Generic title
127879
    1G5    HO5'    1  -3.139   6.236   7.495 -0.8977  0.3408 -0.6572
    1G5     O5'    2  -3.085   6.315   7.505 -0.1151 -0.2420 -0.1627
    1G5     C5'    3  -2.995   6.330   7.395 -0.1846  0.1033 -0.1367
    1G5     H5'    4  -2.896   6.370   7.417 -0.2927  1.4991 -1.9500
    1G5    H5''    5  -3.043   6.397   7.325 -2.1363  0.3113  1.3189
    1G5     C4'    6  -2.975   6.194   7.327 -0.0931 -0.0181 -0.5148
    1G5     H4'    7  -2.935   6.130   7.406 -1.7123 -3.2126 -2.0931
    1G5     O4'    8  -3.095   6.134   7.283  0.1068 -0.5980  0.5485
    1G5     C1'    9  -3.072   6.078   7.148 -0.3674  0.4967 -0.4351
    1G5     H1'   10  -3.105   5.975   7.131  1.6585 -0.2190 -0.2638
    1G5      N9   11  -3.150   6.155   7.056  0.2360 -0.2809  0.6768
    1G5      C8   12  -3.180   6.286   7.065  0.1447  0.2714  0.8568
    1G5      H8   13  -3.161   6.356   7.145 -0.2328  0.5497  0.7089
    1G5      N7   14  -3.262   6.336   6.968  0.1124  0.3930 -0.5018
    1G5      C5   15  -3.279   6.226   6.890 -0.7420  0.0013  0.1657
    1G5      C6   16  -3.372   6.212   6.782 -0.6309 -0.2306  0.3092
    1G5      O6   17  -3.439   6.301   6.728  0.5387 -0.1203 -0.3781
    1G5      N1   18  -3.375   6.083   6.731 -0.0868  0.8740  0.0785
    1G5      H1   19  -3.431   6.060   6.650 -0.4848 -0.7211  0.7524
    1G5      C2   20  -3.304   5.978   6.776 -0.0030 -0.2939 -0.7001
    1G5      N2   21  -3.341   5.868   6.723  0.4979  0.3676 -0.4060
    1G5     H21   22  -3.381   5.866   6.630 -2.8419 -0.2314  0.8794
    1G5     H22   23  -3.287   5.787   6.751 -0.2778 -0.6785 -1.7679
    1G5      N3   24  -3.218   5.990   6.875 -0.4583  0.7811 -0.1262
    1G5      C4   25  -3.214   6.111   6.938 -0.1497  0.0339 -0.2301
    1G5     C3'   26  -2.877   6.200   7.217 -0.0195 -0.0080 -0.7659
    1G5     H3'   27  -2.885   6.303   7.185  2.1207  0.1368 -0.9355
    1G5     C2'   28  -2.921   6.082   7.123 -0.4226 -0.1680 -0.0511
    1G5     H2'   29  -2.893   6.109   7.021  2.3937  3.8582  1.5243
    1G5     O2'   30  -2.862   5.955   7.151 -0.2037  0.3060  0.6299
    1G5    HO2'   31  -2.768   5.972   7.161 -0.0717 -1.0775  2.2480
    1G5     O3'   32  -2.746   6.164   7.249 -0.4435  0.2360  0.0316
    2U        P   33  -2.619   6.204   7.150 -0.5630  0.1225 -0.3401
    2U      OP1   34  -2.503   6.247   7.230  0.1385  0.2181 -0.3427
    2U      OP2   35  -2.678   6.290   7.046  0.4016 -0.2263  0.6406
    2U      O5'   36  -2.591   6.065   7.072  1.3983  0.1711  0.8208
    2U      C5'   37  -2.506   5.964   7.129  0.1310  0.0949  0.4457
    2U      H5'   38  -2.534   5.949   7.234  0.5665  0.4872  0.6235
    2U     H5''   39  -2.400   5.989   7.124 -0.0617  0.6007 -2.5535
    2U      C4'   40  -2.522   5.828   7.049 -0.5202  0.3160 -0.1829
    2U      H4'   41  -2.472   5.748   7.102  0.5860  0.5801 -0.7947
    2U      O4'   42  -2.665   5.781   7.047 -0.3813 -0.9202  0.2967
    2U      C1'   43  -2.705   5.718   6.924  0.0081  0.0713  0.2516
    2U      H1'   44  -2.747   5.619   6.944  2.5172 -0.8647  1.3354
    2U       N1   45  -2.802   5.791   6.837  0.1193 -0.3180  0.3164
    2U       C6   46  -2.821   5.926   6.845  0.4245 -0.1497  0.3089
    2U       H6   47  -2.770   5.982   6.922 -0.3581  0.5271  0.3422
    2U       C5   48  -2.906   5.987   6.753  0.4811  0.5651 -0.2081
    2U       H5   49  -2.922   6.094   6.756  0.6111  0.5591  1.5913
    2U       C4   50  -2.973   5.909   6.650 -0.5285  0.4455  0.0328
    2U       O4   51  -3.066   5.954   6.583 -0.4224 -0.0667  0.1629
    2U       N3   52  -2.938   5.776   6.646  0.4989 -0.0989 -0.0030
    2U       H3   53  -2.992   5.725   6.577  0.3956  2.6233 -2.0559
    2U       C2   54  -2.859   5.716   6.737  0.1110 -0.0049 -0.3773
    2U       O2   55  -2.839   5.592   6.725  0.7356  0.7677  0.0727
    2U      C3'   56  -2.493   5.823   6.895 -0.2052  0.2001 -0.1881
    2U      H3'   57  -2.543   5.908   6.849 -0.3516  0.0792 -0.2544
    2U      C2'   58  -2.567   5.696   6.851  0.1947 -0.2667 -0.6441
    2U      H2'   59  -2.584   5.696   6.743 -2.4084  1.2556 -0.3292
    2U      O2'   60  -2.495   5.587   6.903  0.1828 -0.0800  0.0530
    2U     HO2'   61  -2.403   5.613   6.910  0.1746  0.0357 -0.2401
    2U      O3'   62  -2.355   5.813   6.874  0.4663 -0.2621  0.5583
    3U        P   63  -2.296   5.862   6.728  0.3264  0.2946 -0.4517
    3U      OP1   64  -2.146   5.876   6.744  0.6901  0.4018  0.2356
    3U      OP2   65  -2.376   5.968   6.666  0.1905  0.1734 -0.3897
    3U      O5'   66  -2.322   5.727   6.643  0.0973  0.1852  0.2727
    3U      C5'   67  -2.248   5.612   6.671  0.2214 -0.6299 -0.3317
    3U      H5'   68  -2.256   5.611   6.780  0.0935  0.8480 -0.3035
    3U     H5''   69  -2.145   5.635   6.645  0.2708 -0.0468  0.3508
    3U      C4'   70  -2.283   5.481   6.599  0.7289  0.5011 -0.2508
    3U      H4'   71  -2.235   5.396   6.646 -1.8330 -0.9749 -0.1320
    3U      O4'   72  -2.421   5.461   6.617  1.0920 -0.1105  1.4092
    3U      C1'   73  -2.458   5.360   6.521  0.0513 -0.1694  0.2234
    3U      H1'   74  -2.458   5.270   6.582 -1.1742 -2.9035 -3.4623
    3U       N1   75  -2.595   5.394   6.470  0.8904 -0.0263 -0.1903
    3U       C6   76  -2.641   5.524   6.474  0.1527 -0.6957  0.3437
    3U       H6   77  -2.579   5.594   6.527  1.9693 -1.2667 -0.9247
    3U       C5   78  -2.754   5.560   6.414  0.6769  0.0204  0.2236
    3U       H5   79  -2.795   5.657   6.436  2.1167  0.3715  1.5769
    3U       C4   80  -2.836   5.462   6.349  0.1560 -0.2299  0.7299
    3U       O4   81  -2.948   5.482   6.301 -0.3199 -0.7958 -0.1233
    3U       N3   82  -2.773   5.335   6.337  0.5172 -0.4822  0.0289
    3U       H3   83  -2.829   5.265   6.291  1.0052  0.0423 -1.4331
    3U       C2   84  -2.665   5.294   6.401 -0.3157  0.3368 -0.4813
    3U       O2   85  -2.633   5.173   6.396 -0.3795  0.0978 -0.2812
    3U      C3'   86  -2.270   5.462   6.447 -0.5967 -0.5300 -0.3422
    3U      H3'   87  -2.310   5.559   6.416 -0.1215 -0.7361 -1.6861
    3U      C2'   88  -2.359   5.346   6.409  0.7556 -0.1989  0.4630
    3U      H2'   89  -2.403   5.364   6.310  1.5907 -3.2389 -0.5561
    3U      O2'   90  -2.296   5.216   6.426 -0.2733  0.2142  0.4503
    3U     HO2'   91  -2.258   5.195   6.340 -0.7010  3.6254 -0.7173
    3U      O3'   92  -2.132   5.451   6.404  0.5065 -0.0893  0.4332
    4U        P   93  -2.084   5.432   6.251 -0.3009 -0.2184  0.0208
    4U      OP1   94  -1.935   5.434   6.261  0.1271 -0.1809  0.2581
    4U      OP2   95  -2.155   5.530   6.171  1.1135  0.0867  0.3402
    4U      O5'   96  -2.120   5.284   6.201  0.4000 -0.9809 -0.8375
    4U      C5'   97  -2.044   5.170   6.252  0.6298  0.4771  0.2455
    4U      H5'   98  -2.058   5.160   6.359 -1.9059  1.5388  0.0633
    4U     H5''   99  -1.936   5.175   6.236  0.6963  1.4134  0.8966
    4U      C4'  100  -2.094   5.038   6.190 -0.3105  0.4192 -0.8032
    4U      H4'  101  -2.025   4.959   6.219  1.2511  2.8342  2.5963
    4U      O4'  102  -2.227   5.010   6.223 -0.1669 -0.6348  0.1636
    4U      C1'  103  -2.278   4.907   6.135 -0.3838  0.6135  0.3619
    4U      H1'  104  -2.264   4.807   6.176  0.4334 -1.0313 -3.5531
    4U       N1  105  -2.426   4.929   6.114  0.2275  0.6123  0.1079
    4U       C6  106  -2.472   5.039   6.048  0.0860 -0.7499 -0.3837
    4U       H6  107  -2.406   5.124   6.030  0.3304 -1.0294 -0.8573
    4U       C5  108  -2.607   5.052   6.017 -0.1618 -0.3659 -0.7313
    4U       H5  109  -2.648   5.140   5.969 -0.1232  0.4732  0.7122
    4U       C4  110  -2.707   4.959   6.063  0.5752  0.4324  0.1341
    4U       O4  111  -2.829   4.947   6.046  0.1645  0.0835  0.3068
    4U       N3  112  -2.651   4.857   6.131 -0.6609  0.2334 -0.0676
    4U       H3  113  -2.719   4.784   6.148 -0.4031  0.3135  1.5483
    4U       C2  114  -2.517   4.827   6.147  0.0336 -0.1851 -0.4371
    4U       O2  115  -2.483   4.724   6.207 -0.4047  0.1591  0.0649
    4U      C3'  116  -2.100   5.033   6.032 -0.5227 -0.4119  0.0269
    4U      H3'  117  -2.145   5.128   6.002 -1.5040 -1.2323 -1.1865
    4U      C2'  118  -2.196   4.907   6.013 -0.2031 -0.4212 -0.3000
    4U      H2'  119  -2.257   4.920   5.924 -1.4265  1.1459  0.7239
    4U      O2'  120  -2.129   4.783   6.005 -0.0769 -0.1506 -0.1085
    4U     HO2'  121  -2.071   4.775   5.929  1.3643 -2.3394  1.0779
    4U      O3'  122  -1.958   5.017   5.983 -0.5856  0.4405  0.1804
    5U        P  123  -1.926   5.041   5.829  0.1495  0.2165 -0.1214
    5U      OP1  124  -1.782   5.074   5.825 -0.2391 -0.1410  0.3686
    5U      OP2  125  -2.033   5.136   5.778 -0.6822  0.0147 -0.0044
    5U      O5'  126  -1.960   4.910   5.754 -0.4762 -0.6983  0.3328
    5U      C5'  127  -1.875   4.799   5.732  0.7448 -0.2577  0.3784
    5U      H5'  128  -1.835   4.768   5.829  0.3279 -0.4387  0.4963
    5U     H5''  129  -1.799   4.836   5.664 -2.3649  3.3163 -1.5404
    5U      C4'  130  -1.971   4.693   5.669  1.1441  1.1689 -0.8297
    5U      H4'  131  -1.910   4.606   5.643  2.3959  1.6389  0.4095
    5U      O4'  132  -2.080   4.649   5.753 -0.0735 -0.0628 -0.0047
    5U      C1'  133  -2.169   4.575   5.678  1.0514 -0.2774 -0.0982
    5U      H1'  134  -2.133   4.474   5.658 -0.7140 -0.9581 -0.0421
    5U       N1  135  -2.303   4.583   5.740  0.4272 -0.4677 -0.3192
    5U       C6  136  -2.368   4.707   5.750 -0.5980  0.4354  0.1659
    5U       H6  137  -2.328   4.792   5.697  3.0901 -1.1216  0.1865
    5U       C5  138  -2.485   4.716   5.817 -0.6958 -0.2153 -0.2414
    5U       H5  139  -2.536   4.811   5.816  0.5685  0.5022  0.4803
    5U       C4  140  -2.549   4.605   5.884  0.5801  0.6044  0.3147
    5U       O4  141  -2.657   4.617   5.938  0.7693 -0.2486  0.6669
    5U       N3  142  -2.478   4.484   5.880  1.0217 -0.5661 -0.4631
    5U       H3  143  -2.533   4.402   5.903 -3.2484  0.6205 -4.7037
    5U       C2  144  -2.356   4.472   5.805 -0.3908  0.2245  0.1018
    5U       O2  145  -2.299   4.367   5.802  0.3496 -0.4713  0.3748
    5U      C3'  146  -2.059   4.750   5.550 -0.6643  1.1117 -0.0078
    5U      H3'  147  -2.103   4.835   5.603 -0.3866  1.1186  0.2140
    5U      C2'  148  -2.174   4.642   5.543  0.0083  1.1309 -0.1717
    5U      H2'  149  -2.263   4.692   5.505  0.1060  3.6522  2.5869
    5U      O2'  150  -2.118   4.541   5.455 -0.3400 -0.0134 -0.4874
    5U     HO2'  151  -2.103   4.578   5.368  2.1680  2.2348  0.7432
    5U      O3'  152  -1.990   4.787   5.435  0.1472 -0.5287  0.0055
    6U        P  153  -2.064   4.876   5.323  0.0368 -0.0744 -0.0676
    6U      OP1  154  -1.977   4.961   5.239  0.7291 -0.1286  0.1336
    6U      OP2  155  -2.178   4.946   5.388  0.0053  0.2791  0.7494
    6U      O5'  156  -2.141   4.766   5.239 -0.7654 -0.1864  0.4720
    6U      C5'  157  -2.071   4.653   5.178 -0.9388 -0.2183  0.1290
    6U      H5'  158  -1.993   4.626   5.249 -1.2228  2.3833  1.5335
    6U     H5''  159  -2.013   4.682   5.090 -2.5286  2.5102 -0.1089
    6U      C4'  160  -2.155   4.534   5.133 -0.0124 -0.4420  0.3406
    6U      H4'  161  -2.086   4.460   5.091  1.1469  0.5187  0.5171
    6U      O4'  162  -2.246   4.463   5.225 -0.0512 -0.6621 -0.0324
    6U      C1'  163  -2.383   4.476   5.188 -0.0162  0.4427  0.4639
    6U      H1'  164  -2.415   4.391   5.128  1.4294  0.2348 -0.0555
    6U       N1  165  -2.466   4.485   5.308 -0.3717 -0.0877  0.5939
    6U       C6  166  -2.489   4.604   5.372  0.0688 -0.3668 -0.7687
    6U       H6  167  -2.446   4.700   5.347  2.3809 -0.8356  0.9655
    6U       C5  168  -2.552   4.603   5.495  1.0275  0.2340  0.3003
    6U       H5  169  -2.572   4.697   5.544  0.7750 -0.1161  0.8856
    6U       C4  170  -2.613   4.481   5.549  0.4395 -0.0841  1.0160
    6U       O4  171  -2.690   4.469   5.645 -1.1111  0.3567 -0.5426
    6U       N3  172  -2.599   4.373   5.472 -0.4734 -1.0186 -0.3269
    6U       H3  173  -2.667   4.299   5.478 -2.3851  0.5023 -1.8013
    6U       C2  174  -2.533   4.371   5.351 -0.0679 -0.9346  0.6475
    6U       O2  175  -2.550   4.267   5.292  0.3564  0.2028 -0.2390
    6U      C3'  176  -2.248   4.593   5.027 -0.2832 -0.7077 -0.0011
    6U      H3'  177  -2.213   4.689   4.989  0.1984 -0.9890 -0.2887
    6U      C2'  178  -2.383   4.597   5.095 -0.0417 -0.5095  0.2915
    6U      H2'  179  -2.394   4.686   5.156 -3.0979  3.0104 -4.6707
    6U      O2'  180  -2.496   4.603   5.008 -0.0820 -0.3650 -0.3554
    6U     HO2'  181  -2.490   4.527   4.949 -0.5686 -0.9390  0.3151
    6U      O3'  182  -2.249   4.496   4.918 -0.7313  0.3640 -1.2957
    7A        P  183  -2.158   4.515   4.786 -0.0550  0.4915  0.2628
    7A      OP1  184  -2.162   4.389   4.707  0.0407 -0.0211  0.3960
    7A      OP2  185  -2.029   4.563   4.834 -0.0449  0.1235  0.2747
    7A      O5'  186  -2.233   4.636   4.707  0.0539 -0.4740 -0.0126
    7A      C5'  187  -2.356   4.610   4.643 -0.5086 -0.1247 -0.5501
    7A      H5'  188  -2.412   4.547   4.712  0.5491 -0.0353  0.4146
    7A     H5''  189  -2.323   4.558   4.553  1.5323 -1.1608  0.7223
    7A      C4'  190  -2.449   4.723   4.616 -0.2177  0.5861  0.0463
    7A      H4'  191  -2.518   4.676   4.546  0.1922 -0.8995  0.5770
    7A      O4'  192  -2.525   4.762   4.727  0.1036 -0.6700  0.0460
    7A      C1'  193  -2.510   4.903   4.733  0.2365 -0.6202 -0.3650
    7A      H1'  194  -2.604   4.954   4.752  0.4232  0.5735 -2.3670
    7A       N9  195  -2.418   4.943   4.837  1.1596  0.0125 -0.2006
    7A       C8  196  -2.292   4.902   4.867  0.2712  0.6429  0.2397
    7A       H8  197  -2.239   4.824   4.814  1.2773 -0.6882  3.0033
    7A       N7  198  -2.238   4.960   4.972 -0.4704 -0.3746 -0.2997
    7A       C5  199  -2.332   5.057   5.002 -0.4964  0.0238 -0.3054
    7A       C6  200  -2.333   5.168   5.088 -0.1267 -0.0885 -0.1804
    7A       N6  201  -2.240   5.210   5.169 -0.2063  0.8915  0.1490
    7A      H61  202  -2.150   5.163   5.163 -0.2551  0.5588  1.5634
    7A      H62  203  -2.263   5.285   5.233  1.0518  1.9443 -0.5648
    7A       N1  204  -2.439   5.234   5.106  0.4659  0.6503  0.5314
    7A       C2  205  -2.546   5.213   5.025  0.0108 -0.0543  0.2187
    7A       H2  206  -2.628   5.281   5.045 -1.2738 -1.3796 -0.4174
    7A       N3  207  -2.563   5.119   4.928  0.0255 -0.0970 -0.8672
    7A       C4  208  -2.448   5.041   4.929 -0.1388 -0.2616  0.2059
    7A      C3'  209  -2.377   4.836   4.547 -0.2810 -0.5291  0.2671
    7A      H3'  210  -2.282   4.842   4.600 -1.1776 -1.4854  2.0623
    7A      C2'  211  -2.455   4.956   4.598 -1.2264  0.2618  0.4023
    7A      H2'  212  -2.385   5.035   4.625 -3.1390  1.7859  1.1318
    7A      O2'  213  -2.541   5.000   4.497 -0.4694  0.1188 -0.2476
    7A     HO2'  214  -2.505   4.959   4.418 -3.8036 -2.0503 -0.8163
    7A      O3'  215  -2.362   4.838   4.407 -0.1571  0.7013 -0.1642
    8A        P  216  -2.225   4.878   4.336  0.3637  0.3308  0.0516
    8A      OP1  217  -2.111   4.839   4.421 -0.1643 -0.1478 -0.0136
    8A      OP2  218  -2.233   5.010   4.279  0.4316  0.0544 -1.0417
    8A      O5'  219  -2.229   4.766   4.220  0.2503 -0.2549  0.4465
    8A      C5'  220  -2.126   4.757   4.122  0.2568  0.4445  0.3071
    8A      H5'  221  -2.030   4.742   4.171  1.8376  0.5199 -2.5902
    8A     H5''  222  -2.112   4.852   4.070  1.8929 -0.3473 -0.7426
    8A      C4'  223  -2.149   4.646   4.021  0.3498 -0.1470 -0.3986
    8A      H4'  224  -2.056   4.637   3.965  2.8204 -0.9896  3.4286
    8A      O4'  225  -2.150   4.520   4.090  1.1239 -0.2019  0.2689
    8A      C1'  226  -2.263   4.446   4.043  0.1014  0.2618 -0.2343
    8A      H1'  227  -2.245   4.371   3.966  0.6001  0.8731 -0.7290
    8A       N9  228  -2.330   4.384   4.167 -0.2878 -0.2764  0.5314
    8A       C8  229  -2.341   4.428   4.298  0.4288  0.0143 -0.7782
    8A       H8  230  -2.317   4.527   4.334  1.0536 -0.2250 -0.5221
    8A       N7  231  -2.392   4.338   4.383  0.1238 -0.3354  0.3181
    8A       C5  232  -2.426   4.234   4.295  0.0451 -0.0882  0.1889
    8A       C6  233  -2.483   4.105   4.314 -0.0075 -0.8938  0.2972
    8A       N6  234  -2.520   4.042   4.422  0.2745  0.1201  0.9221
    8A      H61  235  -2.546   4.104   4.498 -0.6913  2.3154 -1.0528
    8A      H62  236  -2.585   3.966   4.412 -0.1443  0.3759  1.5847
    8A       N1  237  -2.515   4.036   4.204 -0.4107  0.0280  0.4326
    8A       C2  238  -2.489   4.088   4.085  0.1270  0.2622  1.0784
    8A       H2  239  -2.514   4.026   4.000  1.4589  0.4763  0.4938
    8A       N3  240  -2.417   4.190   4.054 -0.2828 -0.5009 -0.3420
    8A       C4  241  -2.398   4.267   4.162  0.0136 -0.3195  0.1129
    8A      C3'  242  -2.269   4.653   3.925 -0.3860 -0.5302 -0.2846
    8A      H3'  243  -2.335   4.740   3.928 -3.0036 -2.4041  0.4517
    8A      C2'  244  -2.359   4.548   3.980 -0.0107  0.8230 -0.6681
    8A      H2'  245  -2.416   4.597   4.059 -2.1027 -0.9834 -0.9547
    8A      O2'  246  -2.444   4.478   3.886  0.8248 -0.0857  0.0297
    8A     HO2'  247  -2.536   4.503   3.888  0.5591 -1.0278 -0.1753
    8A      O3'  248  -2.233   4.634   3.783 -0.3148  0.6118 -0.1368
    9A        P  249  -2.178   4.750   3.698 -0.0016  0.0986 -0.0323
    9A      OP1  250  -2.125   4.703   3.576  0.4880 -0.8455  0.1641
    9A      OP2  251  -2.092   4.831   3.789  0.0668  0.1914 -0.1786
    9A      O5'  252  -2.314   4.828   3.671  0.1608 -0.6178 -0.3896
    9A      C5'  253  -2.400   4.800   3.558 -0.3882  0.0737 -0.3077
    9A      H5'  254  -2.382   4.695   3.532 -0.3366  0.3212 -1.3130
    9A     H5''  255  -2.383   4.859   3.468 -2.1256  0.5195 -0.3795
    9A      C4'  256  -2.539   4.837   3.591 -0.6101  0.8151 -0.1176
    9A      H4'  257  -2.532   4.936   3.637  4.0443  0.7481 -0.2674
    9A      O4'  258  -2.614   4.847   3.468  0.1945 -0.2551 -0.5025
    9A      C1'  259  -2.703   4.743   3.446 -0.5068  0.7325 -0.8931
    9A      H1'  260  -2.802   4.783   3.466 -0.3047  1.1768 -0.7628
    9A       N9  261  -2.702   4.676   3.309  0.8865 -0.7198 -0.8247
    9A       C8  262  -2.598   4.609   3.250  0.6672 -1.0036  0.2022
    9A       H8  263  -2.501   4.593   3.295  1.1569 -0.5577 -0.6527
    9A       N7  264  -2.623   4.562   3.132 -0.4595 -0.6298 -1.0967
    9A       C5  265  -2.756   4.590   3.112 -0.1534  1.6461  0.2394
    9A       C6  266  -2.848   4.579   3.008  0.4695 -0.3748  0.9846
    9A       N6  267  -2.839   4.513   2.896  0.6539  0.6050 -0.3042
    9A      H61  268  -2.753   4.467   2.871 -0.6912 -1.6109 -1.0603
    9A      H62  269  -2.932   4.502   2.857 -1.1555 -0.5446  3.8218
    9A       N1  270  -2.971   4.634   3.011 -0.4475 -1.1264  0.0770
    9A       C2  271  -3.002   4.705   3.114 -0.5388  0.4337  0.2018
    9A       H2  272  -3.106   4.737   3.117 -0.2143  1.5211  0.6118
    9A       N3  273  -2.930   4.718   3.222 -0.3381 -0.5848 -0.1527
    9A       C4  274  -2.803   4.664   3.219 -0.0306  0.9462  0.2518
    9A      C3'  275  -2.616   4.732   3.670 -0.0033  0.4543  0.1820
    9A      H3'  276  -2.547   4.670   3.728  0.4500 -0.6508 -1.4713
    9A      C2'  277  -2.661   4.636   3.550 -0.3339 -0.1556  0.1219
    9A      H2'  278  -2.573   4.580   3.516 -0.0919  1.2584 -1.7887
    9A      O2'  279  -2.763   4.552   3.571 -0.4959 -0.1528  0.3942
    9A     HO2'  280  -2.801   4.574   3.656  3.0877 -0.3109  2.1843
    9A      O3'  281  -2.712   4.797   3.747  0.7088  0.7867 -0.6177
   10C        P  282  -2.796   4.711   3.859 -0.1028  0.1972  0.1573
   10C      OP1  283  -2.836   4.813   3.952 -1.1749 -0.5654 -1.0264
   10C      OP2  284  -2.725   4.593   3.902 -0.1987  0.2041  0.2930
   10C      O5'  285  -2.928   4.665   3.774 -0.2943  0.0843  0.4631
   10C      C5'  286  -3.010   4.767   3.725  0.6303 -1.0360 -0.1172
   10C      H5'  287  -2.953   4.841   3.668  1.2732 -1.7985 -0.4748
   10C     H5''  288  -3.052   4.822   3.810 -0.3754 -0.7129 -0.7997
   10C      C4'  289  -3.131   4.727   3.633 -0.1799  0.2036  0.5600
   10C      H4'  290  -3.192   4.814   3.610  0.5776  0.5388 -0.2381
   10C      O4'  291  -3.084   4.676   3.506 -0.0533 -0.4850  0.5669
   10C      C1'  292  -3.205   4.631   3.448  0.2821 -0.4051 -0.1941
   10C      H1'  293  -3.257   4.715   3.402  1.5009  0.5113  0.0606
   10C       N1  294  -3.172   4.526   3.348 -0.1147  0.2534 -0.4609
   10C       C6  295  -3.049   4.472   3.333  0.5115  1.1482 -0.7492
   10C       H6  296  -2.972   4.488   3.406  0.2414  0.4552 -0.3029
   10C       C5  297  -3.027   4.393   3.224  0.1266 -0.3503  0.7044
   10C       H5  298  -2.932   4.342   3.216 -0.9571 -2.7136  1.8910
   10C       C4  299  -3.137   4.358   3.142 -0.4087  0.2999  0.3472
   10C       N4  300  -3.117   4.271   3.042 -0.3444 -0.6181  0.3135
   10C      H41  301  -3.028   4.227   3.028  0.5703  1.1615  0.3149
   10C      H42  302  -3.201   4.254   2.989 -0.1177  0.4701 -0.4331
   10C       N3  303  -3.261   4.399   3.159 -0.8457 -0.7290  0.4667
   10C       C2  304  -3.275   4.497   3.250  0.3734  0.0188 -0.9362
   10C       O2  305  -3.390   4.544   3.250 -0.3101  0.2435 -0.4870
   10C      C3'  306  -3.212   4.611   3.678 -0.7552 -0.1940  0.2351
   10C      H3'  307  -3.140   4.529   3.683 -0.0605  0.1610 -2.4925
   10C      C2'  308  -3.299   4.575   3.554  0.1239  0.1562 -0.6731
   10C      H2'  309  -3.316   4.467   3.553 -1.0003  0.3166 -0.6487
   10C      O2'  310  -3.429   4.645   3.547 -0.3654 -0.1667  0.0115
   10C     HO2'  311  -3.465   4.656   3.635  0.5418 -1.7568  0.6439
   10C      O3'  312  -3.305   4.631   3.793 -0.3777  0.1180 -0.0144
   11G        P  313  -3.340   4.509   3.880  0.4074 -0.0289 -0.2038
   11G      OP1  314  -3.412   4.572   4.002 -0.2175 -0.0674  0.3870
   11G      OP2  315  -3.226   4.414   3.904  0.0508  0.6467  0.0376
   11G      O5'  316  -3.459   4.435   3.798 -0.4565  0.6118  0.6464
   11G      C5'  317  -3.594   4.483   3.782 -0.1085  0.0271 -0.4802
   11G      H5'  318  -3.595   4.586   3.745  0.4066 -0.5743 -2.2829
   11G     H5''  319  -3.638   4.500   3.880 -2.2569  0.0310 -1.3953
   11G      C4'  320  -3.682   4.396   3.690 -0.3358  0.2810 -0.8671
   11G      H4'  321  -3.782   4.439   3.686 -0.9692 -1.2378 -1.9580
   11G      O4'  322  -3.639   4.388   3.549  0.4707  0.2918 -0.5106
   11G      C1'  323  -3.708   4.272   3.502  0.3647 -0.7067 -0.1191
   11G      H1'  324  -3.793   4.300   3.439 -1.3403 -0.5438  2.1335
   11G       N9  325  -3.603   4.190   3.425 -0.8628  0.4741 -0.9824
   11G       C8  326  -3.464   4.197   3.449 -0.0517  0.6474  0.8186
   11G       H8  327  -3.417   4.268   3.515  1.9287  0.8082 -0.6561
   11G       N7  328  -3.403   4.114   3.377  0.6516  0.9056  0.7522
   11G       C5  329  -3.499   4.034   3.319  0.3319  0.3229  0.0154
   11G       C6  330  -3.491   3.915   3.238  0.5658  0.6823  1.1198
   11G       O6  331  -3.392   3.852   3.191 -1.2038  0.5511 -0.9629
   11G       N1  332  -3.611   3.863   3.195  0.6382 -0.1435  0.3202
   11G       H1  333  -3.610   3.778   3.141 -2.0396 -0.2987  0.3526
   11G       C2  334  -3.724   3.931   3.212  0.1584  0.1842 -0.6939
   11G       N2  335  -3.831   3.882   3.169  0.1562  0.1464  0.3702
   11G      H21  336  -3.821   3.796   3.116  0.5155  0.5268 -0.1913
   11G      H22  337  -3.916   3.905   3.218 -0.4914 -1.6905  0.1817
   11G       N3  338  -3.734   4.040   3.288  0.0691 -0.7816 -0.1980
   11G       C4  339  -3.621   4.087   3.337 -0.5596 -0.4978 -0.2305
   11G      C3'  340  -3.705   4.256   3.740 -0.2694  0.2385 -0.1490
   11G      H3'  341  -3.618   4.194   3.762  0.4226  1.7911  1.7012
   11G      C2'  342  -3.770   4.202   3.615 -0.1840  0.1967  0.1405
   11G      H2'  343  -3.759   4.095   3.604  2.2046  0.5683 -1.9924
   11G      O2'  344  -3.915   4.224   3.602  0.1033  0.3330 -0.0384
   11G     HO2'  345  -3.965   4.221   3.684 -0.6448 -2.1782 -0.5298
   11G      O3'  346  -3.787   4.260   3.855  0.0751  0.0440  0.1249
   12G        P  347  -3.797   4.139   3.955  0.0061  0.2019  0.0932
   12G      OP1  348  -3.903   4.158   4.054  0.6254 -0.1978 -0.0393
   12G      OP2  349  -3.658   4.124   4.002  0.0962 -0.0214 -0.1432
   12G      O5'  350  -3.838   4.013   3.863  0.5729 -0.0177  0.0919
   12G      C5'  351  -3.973   3.990   3.811  0.1586  0.2210 -0.2770
   12G      H5'  352  -4.008   4.074   3.751 -0.5700 -0.3419 -0.6417
   12G     H5''  353  -4.038   3.998   3.898  0.3398  0.5472 -0.1677
   12G      C4'  354  -3.980   3.864   3.747  0.1789  0.2921 -0.2115
   12G      H4'  355  -4.086   3.858   3.723  0.5535  0.9873 -2.3010
   12G      O4'  356  -3.901   3.866   3.628  0.5393  0.3359 -0.2693
   12G      C1'  357  -3.892   3.733   3.566  0.5538  0.3424 -0.3065
   12G      H1'  358  -3.965   3.728   3.485 -0.1991 -0.9315  0.4168
   12G       N9  359  -3.754   3.708   3.529 -1.0867  0.7525 -0.0162
   12G       C8  360  -3.643   3.778   3.572  0.1111  0.0207 -0.6705
   12G       H8  361  -3.652   3.869   3.629  2.3296  1.2933 -2.2012
   12G       N7  362  -3.530   3.730   3.523  0.5899  0.2273 -0.2601
   12G       C5  363  -3.572   3.632   3.439 -0.2146  0.4866  0.3192
   12G       C6  364  -3.501   3.546   3.345 -0.5063 -0.0678 -0.6282
   12G       O6  365  -3.375   3.542   3.321  0.9517 -0.7040  0.2807
   12G       N1  366  -3.580   3.464   3.272  0.3458 -0.1454 -0.4488
   12G       H1  367  -3.535   3.385   3.228  0.7065  0.7222 -1.6893
   12G       C2  368  -3.709   3.450   3.306  0.4115  1.0889 -0.2004
   12G       N2  369  -3.766   3.355   3.246  0.2052  0.2645 -0.3245
   12G      H21  370  -3.710   3.298   3.183  0.3416  1.0709 -0.9456
   12G      H22  371  -3.865   3.356   3.227 -0.2229 -2.8214  1.0875
   12G       N3  372  -3.784   3.532   3.378 -0.0869  0.3865  0.4339
   12G       C4  373  -3.704   3.616   3.441 -0.2883  0.1433 -0.7360
   12G      C3'  374  -3.924   3.740   3.806 -0.0707 -0.2692 -0.6555
   12G      H3'  375  -3.818   3.761   3.821 -0.2836  1.7644 -1.6343
   12G      C2'  376  -3.924   3.641   3.682  0.4962 -0.3565  0.5705
   12G      H2'  377  -3.859   3.554   3.692  0.0028 -1.3766 -3.4229
   12G      O2'  378  -4.052   3.584   3.640 -0.7482 -0.3138 -0.2136
   12G     HO2'  379  -4.099   3.608   3.720  0.4203  1.3554  0.0114
   12G      O3'  380  -3.986   3.671   3.918 -1.2667 -0.0284 -0.2227
   13G        P  381  -3.906   3.553   4.002  0.7311 -0.0892  0.4514
   13G      OP1  382  -3.986   3.497   4.121  0.5507  0.3007  0.7055
   13G      OP2  383  -3.775   3.601   4.030 -0.4656 -0.7035 -0.0175
   13G      O5'  384  -3.877   3.433   3.905  0.1034 -0.1571 -0.3521
   13G      C5'  385  -3.981   3.346   3.855 -0.6205  1.1069  0.1203
   13G      H5'  386  -4.046   3.406   3.791 -0.2860  2.5040  1.0536
   13G     H5''  387  -4.040   3.321   3.943  0.0777  1.5911  0.7444
   13G      C4'  388  -3.921   3.222   3.779  0.6743  0.2950 -0.4879
   13G      H4'  389  -4.003   3.154   3.759 -1.5637  2.1308  1.7512
   13G      O4'  390  -3.875   3.271   3.655  0.3710 -0.2524 -0.1832
   13G      C1'  391  -3.774   3.174   3.617  0.3253 -0.0461 -0.6531
   13G      H1'  392  -3.791   3.131   3.518 -2.0370 -0.5192 -0.0994
   13G       N9  393  -3.643   3.243   3.594  1.0306 -0.1389 -0.4210
   13G       C8  394  -3.591   3.345   3.668  0.1288 -1.0474  0.3260
   13G       H8  395  -3.657   3.398   3.735  1.3662  0.9895  0.0023
   13G       N7  396  -3.464   3.379   3.638  0.4082  0.1616  0.1020
   13G       C5  397  -3.440   3.285   3.529  0.2911  0.5294 -0.0981
   13G       C6  398  -3.323   3.258   3.445 -0.2502 -0.1303 -0.4706
   13G       O6  399  -3.216   3.329   3.459  0.3953  0.3753  0.3481
   13G       N1  400  -3.325   3.146   3.370  0.2651 -0.4636 -0.7972
   13G       H1  401  -3.251   3.135   3.303 -0.6599 -0.9389 -1.7704
   13G       C2  402  -3.439   3.082   3.355 -0.5719  1.7908 -0.3997
   13G       N2  403  -3.434   2.990   3.270  0.4598  0.0431  0.2313
   13G      H21  404  -3.350   2.993   3.214  2.1447  1.7564  2.6822
   13G      H22  405  -3.486   2.903   3.276  0.7307 -0.2003 -0.7431
   13G       N3  406  -3.559   3.099   3.416 -0.8059  0.1833  0.1717
   13G       C4  407  -3.549   3.205   3.501 -0.0331  0.1687 -0.1180
   13G      C3'  408  -3.810   3.138   3.846 -0.3285 -0.4971  0.3471
   13G      H3'  409  -3.731   3.202   3.884  0.1136 -1.3005  0.7960
   13G      C2'  410  -3.751   3.067   3.723  0.3712  0.0835 -1.3458
   13G      H2'  411  -3.651   3.029   3.746 -0.1093  0.6742  2.1982
   13G      O2'  412  -3.830   2.955   3.697 -0.3557  0.2222 -0.4797
   13G     HO2'  413  -3.830   2.908   3.781 -0.2608 -1.2499 -1.2628
   13G      O3'  414  -3.849   3.052   3.954  0.2936 -0.4181  0.4436
   14U        P  415  -3.747   2.960   4.039  0.7133 -0.0791 -0.1001
   14U      OP1  416  -3.682   2.874   3.938 -0.4502 -0.3295  0.2907
   14U      OP2  417  -3.831   2.907   4.155  0.5702 -0.5396 -0.1376
   14U      O5'  418  -3.645   3.068   4.083 -0.5077  1.3689 -0.0887
   14U      C5'  419  -3.639   3.120   4.216 -0.6634 -0.3703  0.0591
   14U      H5'  420  -3.607   3.047   4.290  1.1994 -0.8613 -1.1700
   14U     H5''  421  -3.739   3.153   4.243 -0.0700  1.5780  0.0928
   14U      C4'  422  -3.538   3.242   4.228 -0.0273 -0.2912  0.3641
   14U      H4'  423  -3.526   3.268   4.333  0.5673 -0.6349  0.3798
   14U      O4'  424  -3.411   3.204   4.160  0.0814 -0.2995  0.3003
   14U      C1'  425  -3.378   3.304   4.062 -0.0252  0.5865 -0.1194
   14U      H1'  426  -3.308   3.376   4.103 -0.0490 -0.5155  1.9793
   14U       N1  427  -3.327   3.254   3.932  0.2352  0.7277 -0.9094
   14U       C6  428  -3.375   3.131   3.889  0.0647 -0.5109 -0.1244
   14U       H6  429  -3.461   3.085   3.935  0.5438  0.7180  2.1860
   14U       C5  430  -3.318   3.066   3.785 -0.5814  0.2367  0.2114
   14U       H5  431  -3.355   2.968   3.758  1.4583 -0.4536 -0.3219
   14U       C4  432  -3.203   3.126   3.717 -0.3861  0.2034 -0.1528
   14U       O4  433  -3.136   3.062   3.632  0.5449 -0.7497 -0.0065
   14U       N3  434  -3.161   3.252   3.771  0.4473 -0.2361  0.2689
   14U       H3  435  -3.085   3.297   3.722 -1.3836  0.8762 -1.7414
   14U       C2  436  -3.224   3.322   3.873 -0.0933 -0.9151  0.5613
   14U       O2  437  -3.175   3.424   3.912  0.2579 -0.1556 -0.3083
   14U      C3'  438  -3.585   3.382   4.170 -0.6896  0.8515 -0.3120
   14U      H3'  439  -3.692   3.364   4.161 -0.6899 -0.2001  1.2643
   14U      C2'  440  -3.517   3.372   4.035 -0.1369  0.0087  0.2464
   14U      H2'  441  -3.584   3.319   3.968  0.2355  3.2487 -3.0514
   14U      O2'  442  -3.506   3.498   3.982 -0.4546  0.3997 -0.8400
   14U     HO2'  443  -3.593   3.538   3.973 -0.2826  1.0847  0.3214
   14U      O3'  444  -3.556   3.494   4.260  0.5140 -0.1438 -0.1993
   15U        P  445  -3.662   3.532   4.381 -0.0665  0.2499  0.0377
   15U      OP1  446  -3.785   3.461   4.364  0.3018 -0.4255  0.7172
   15U      OP2  447  -3.670   3.678   4.385  0.3181 -0.1005  0.2784
   15U      O5'  448  -3.583   3.487   4.515 -0.7803 -0.0885  0.2444
   15U      C5'  449  -3.630   3.532   4.643  0.0836 -0.5343  0.2925
   15U      H5'  450  -3.727   3.486   4.657 -0.8182  0.7866 -1.3141
   15U     H5''  451  -3.631   3.641   4.640 -0.4565 -0.5057  1.1410
   15U      C4'  452  -3.545   3.502   4.770  0.0686  0.2655  0.9601
   15U      H4'  453  -3.583   3.574   4.843 -1.6049 -0.9498  1.3532
   15U      O4'  454  -3.561   3.367   4.813 -0.2078 -0.5033  0.5226
   15U      C1'  455  -3.430   3.308   4.816 -0.1002  0.0122 -0.5616
   15U      H1'  456  -3.410   3.322   4.922 -2.5066  1.1885 -0.1980
   15U       N1  457  -3.429   3.168   4.785 -0.4318  0.1972  0.5113
   15U       C6  458  -3.485   3.137   4.662 -0.4930  0.4419  0.4806
   15U       H6  459  -3.533   3.210   4.599 -3.5206 -2.2145 -0.5288
   15U       C5  460  -3.501   3.005   4.627  0.7593  0.1177 -0.6844
   15U       H5  461  -3.564   2.979   4.543 -0.5279 -2.1498  0.8403
   15U       C4  462  -3.441   2.897   4.705 -0.1931 -0.5913 -0.4176
   15U       O4  463  -3.436   2.774   4.676  0.6877  0.1454 -0.2837
   15U       N3  464  -3.405   2.940   4.829 -0.4245  0.1067 -0.1059
   15U       H3  465  -3.361   2.873   4.891 -2.8209 -1.4354  0.0661
   15U       C2  466  -3.396   3.065   4.876  0.7264 -0.2884 -0.9378
   15U       O2  467  -3.397   3.085   4.994  0.0726 -0.2325 -0.3743
   15U      C3'  468  -3.400   3.539   4.748 -0.4567  0.6439  0.1129
   15U      H3'  469  -3.385   3.592   4.654 -1.5387  3.8334  1.6093
   15U      C2'  470  -3.345   3.394   4.726 -0.6658 -0.0757  0.0161
   15U      H2'  471  -3.374   3.366   4.624 -1.3391 -2.6995  0.8366
   15U      O2'  472  -3.206   3.388   4.756  0.2451 -0.4569  0.0276
   15U     HO2'  473  -3.192   3.453   4.826  0.6613 -0.7926  0.2569
   15U      O3'  474  -3.339   3.610   4.866  0.0204 -0.8657 -0.6298
   16U        P  475  -3.374   3.763   4.912 -0.5215 -0.4801  0.0878
   16U      OP1  476  -3.271   3.786   5.015  0.1250 -0.8406  0.7470
   16U      OP2  477  -3.514   3.783   4.957  0.7829 -0.1480 -0.1698
   16U      O5'  478  -3.335   3.844   4.771 -0.3983 -0.1241 -0.4447
   16U      C5'  479  -3.432   3.909   4.696  0.2978 -0.3253  0.0797
   16U      H5'  480  -3.497   3.963   4.764  3.1600  1.0146  1.9650
   16U     H5''  481  -3.487   3.835   4.638  0.1062 -1.4550  1.6691
   16U      C4'  482  -3.369   4.015   4.598  0.0526 -0.3029 -0.0093
   16U      H4'  483  -3.327   4.099   4.654  0.2706 -0.6047  0.2785
   16U      O4'  484  -3.265   3.960   4.520  0.0749 -0.3034 -0.3021
   16U      C1'  485  -3.310   3.930   4.386  0.1517 -0.7611 -0.4754
   16U      H1'  486  -3.261   3.988   4.308  0.7609 -1.9466 -1.0073
   16U       N1  487  -3.295   3.784   4.354  0.3354 -0.0100  0.7161
   16U       C6  488  -3.225   3.703   4.447  0.1507  0.0946  0.7479
   16U       H6  489  -3.216   3.732   4.551 -1.0990 -1.2949  1.2764
   16U       C5  490  -3.189   3.578   4.409 -0.6774 -0.3255 -0.2409
   16U       H5  491  -3.138   3.519   4.485 -0.8795 -2.7899 -1.8978
   16U       C4  492  -3.180   3.539   4.271 -0.7045  0.3741 -0.1509
   16U       O4  493  -3.117   3.451   4.218  0.1084 -0.0180  0.6384
   16U       N3  494  -3.232   3.634   4.188 -0.4836 -0.3991 -0.1742
   16U       H3  495  -3.200   3.624   4.092  0.2152  0.9026 -0.0975
   16U       C2  496  -3.292   3.751   4.214  0.4730  0.5719 -0.1587
   16U       O2  497  -3.315   3.819   4.114 -0.1335  0.5172 -0.7957
   16U      C3'  498  -3.465   4.074   4.504 -0.4071 -0.2738 -0.3092
   16U      H3'  499  -3.567   4.071   4.542 -0.7270  1.9827 -0.8722
   16U      C2'  500  -3.461   3.976   4.385  0.4304  0.0205 -0.0340
   16U      H2'  501  -3.536   3.897   4.397 -0.6757  1.1271  0.5490
   16U      O2'  502  -3.493   4.047   4.270  0.3050  0.6760 -0.3406
   16U     HO2'  503  -3.503   4.140   4.294  0.6896  0.3696  1.0966
   16U      O3'  504  -3.433   4.207   4.461  0.2628 -0.5528 -0.2858
   17G        P  505  -3.475   4.338   4.539  0.1169  0.0655  0.1270
   17G      OP1  506  -3.432   4.443   4.445 -0.2162 -0.0560 -0.1358
   17G      OP2  507  -3.437   4.338   4.680  0.2161 -0.1451 -0.0496
   17G      O5'  508  -3.638   4.312   4.527 -0.3536 -0.0605  0.2762
   17G      C5'  509  -3.729   4.370   4.436 -0.9031 -0.6096 -0.8989
   17G      H5'  510  -3.804   4.302   4.397 -3.5539  1.5305  0.1216
   17G     H5''  511  -3.674   4.412   4.351  2.9682 -1.3515  1.0440
   17G      C4'  512  -3.814   4.490   4.496  0.7866  0.2209 -0.2103
   17G      H4'  513  -3.877   4.544   4.425  0.0431  1.8735  1.6059
   17G      O4'  514  -3.912   4.443   4.588 -0.1856 -0.2247 -0.1453
   17G      C1'  515  -3.913   4.545   4.692  0.3324 -0.0708  0.1792
   17G      H1'  516  -3.949   4.647   4.677  3.3113  1.1004  0.1289
   17G       N9  517  -3.961   4.481   4.813  0.5037  0.0398  0.5925
   17G       C8  518  -3.922   4.359   4.860  0.1024  0.0963  0.4040
   17G       H8  519  -3.846   4.310   4.800  0.6991  3.2089 -1.6172
   17G       N7  520  -3.983   4.307   4.962  0.2774 -0.6626 -0.2132
   17G       C5  521  -4.068   4.418   4.990  0.6024  0.1220 -0.0978
   17G       C6  522  -4.171   4.433   5.093  0.6985 -0.3963 -0.3401
   17G       O6  523  -4.219   4.348   5.169 -0.3260 -0.5578 -0.5363
   17G       N1  524  -4.210   4.569   5.108 -0.3872 -0.4257  0.2977
   17G       H1  525  -4.266   4.594   5.188  0.8984 -0.7433  1.3426
   17G       C2  526  -4.193   4.657   5.013  0.4680 -0.8474 -0.1765
   17G       N2  527  -4.251   4.772   5.027  0.1332  0.3788  0.0780
   17G      H21  528  -4.317   4.782   5.102 -0.0207  0.5683 -0.0787
   17G      H22  529  -4.245   4.827   4.942 -1.0608 -0.7019 -0.7527
   17G       N3  530  -4.113   4.647   4.913  0.6055  0.0891  0.2209
   17G       C4  531  -4.052   4.525   4.905 -0.9147 -0.1225 -0.0035
   17G      C3'  532  -3.723   4.595   4.555  0.0198  0.1196  0.3065
   17G      H3'  533  -3.616   4.571   4.549  0.1935  0.3281  2.0080
   17G      C2'  534  -3.766   4.575   4.699 -0.3083  0.5216 -0.5426
   17G      H2'  535  -3.714   4.490   4.743 -0.7832 -0.5758 -2.0042
   17G      O2'  536  -3.756   4.692   4.785 -0.8742  0.4587 -0.2107
   17G     HO2'  537  -3.667   4.694   4.822 -0.7538  1.9642 -0.5055
   17G      O3'  538  -3.751   4.724   4.501 -0.2907 -0.3319 -0.2651
   18C        P  539  -3.689   4.767   4.362 -0.0840 -0.1191  0.6287
   18C      OP1  540  -3.701   4.656   4.263  0.1737 -0.3530 -0.1642
   18C      OP2  541  -3.552   4.813   4.397  0.0287 -0.5181 -0.2541
   18C      O5'  542  -3.779   4.887   4.325  0.1597  0.6720  0.1570
   18C      C5'  543  -3.913   4.863   4.268 -0.1807 -1.1460 -0.4169
   18C      H5'  544  -3.967   4.797   4.336  2.1563 -0.4453  2.3129
   18C     H5''  545  -3.894   4.829   4.166 -0.7293  1.0307 -1.2995
   18C      C4'  546  -4.000   4.995   4.260 -0.2409 -0.1329  0.4420
   18C      H4'  547  -4.102   4.975   4.226 -0.3809 -0.0103  0.7840
   18C      O4'  548  -4.015   5.053   4.389 -0.5423 -0.6922 -0.4792
   18C      C1'  549  -4.021   5.195   4.357 -0.1925 -0.4431  0.2585
   18C      H1'  550  -4.115   5.229   4.399 -0.6782 -1.1482 -0.2284
   18C       N1  551  -3.907   5.262   4.422 -0.2598  0.2302 -0.0032
   18C       C6  552  -3.798   5.196   4.472 -0.2365 -0.3135 -0.3291
   18C       H6  553  -3.791   5.089   4.457 -2.0042 -0.3367 -1.2665
   18C       C5  554  -3.710   5.258   4.545 -0.3244 -0.0689 -0.4676
   18C       H5  555  -3.623   5.218   4.597  1.3143  1.4108 -1.9266
   18C       C4  556  -3.735   5.392   4.579 -0.7658 -0.4859 -0.1893
   18C       N4  557  -3.652   5.454   4.665  0.5083 -0.0270  0.5421
   18C      H41  558  -3.582   5.408   4.720  0.2422  0.4594  1.3016
   18C      H42  559  -3.668   5.552   4.683  1.6974  0.2963 -0.0140
   18C       N3  560  -3.829   5.467   4.528 -0.1014  0.2914 -0.3629
   18C       C2  561  -3.919   5.401   4.450  0.0058  0.5397  0.2457
   18C       O2  562  -4.012   5.468   4.406  0.1746 -0.6775 -0.4300
   18C      C3'  563  -3.940   5.106   4.165  0.3458 -0.0491 -0.2550
   18C      H3'  564  -3.841   5.134   4.202 -0.6544  1.6112  1.2968
   18C      C2'  565  -4.028   5.223   4.195 -0.1389 -0.2009 -1.1049
   18C      H2'  566  -3.985   5.317   4.160 -3.0015  0.4655 -3.1891
   18C      O2'  567  -4.160   5.199   4.157 -0.0892 -0.3087  0.3361
   18C     HO2'  568  -4.157   5.197   4.061 -1.0676  4.7427 -0.0901
   18C      O3'  569  -3.955   5.054   4.030  0.0642  0.3672  0.4326
   19G        P  570  -3.916   5.141   3.914 -0.2236  0.2021  0.2172
   19G      OP1  571  -3.944   5.067   3.788  0.2098  0.0155 -0.2712
   19G      OP2  572  -3.774   5.172   3.949  0.1477 -0.2396 -0.5098
   19G      O5'  573  -3.997   5.276   3.909 -0.1124  0.6256  0.7050
   19G      C5'  574  -4.114   5.290   3.833  0.4749 -0.6210 -0.7449
   19G      H5'  575  -4.176   5.207   3.867 -0.9095  0.8579  0.5112
   19G     H5''  576  -4.094   5.295   3.726 -3.7092  1.3757 -1.6390
   19G      C4'  577  -4.193   5.419   3.858  0.4423  0.6598  0.6255
   19G      H4'  578  -4.296   5.398   3.832  0.8271  0.9988 -1.2753
   19G      O4'  579  -4.189   5.453   4.006  0.4920 -0.8489  0.2766
   19G      C1'  580  -4.199   5.597   4.013  0.6242 -0.5478  0.6157
   19G      H1'  581  -4.296   5.621   4.058 -0.2396 -1.0292 -0.9149
   19G       N9  582  -4.083   5.663   4.071  0.6996  0.4020  0.4408
   19G       C8  583  -3.971   5.596   4.112 -0.4192 -0.3251  0.4385
   19G       H8  584  -3.955   5.490   4.094 -2.4659 -0.6388  0.1586
   19G       N7  585  -3.880   5.671   4.172  0.3348  0.0159 -0.5829
   19G       C5  586  -3.939   5.798   4.163 -0.4242 -0.1368  0.0403
   19G       C6  587  -3.890   5.928   4.197 -1.1886  1.0399  0.5137
   19G       O6  588  -3.776   5.957   4.228  0.6419 -0.4367 -0.0851
   19G       N1  589  -3.982   6.031   4.193 -0.5054  0.2020 -0.3883
   19G       H1  590  -3.956   6.127   4.211 -0.9214  0.2862 -0.2113
   19G       C2  591  -4.103   6.007   4.140  0.4165  0.3203  0.1958
   19G       N2  592  -4.183   6.110   4.130 -0.9228  0.9137 -0.2102
   19G      H21  593  -4.153   6.197   4.172 -0.0583  0.3966  0.2815
   19G      H22  594  -4.254   6.115   4.059  1.4720  2.5096 -2.7408
   19G       N3  595  -4.154   5.892   4.096  0.0139 -0.2095  0.1638
   19G       C4  596  -4.063   5.793   4.107 -0.0863  0.5527 -0.6455
   19G      C3'  597  -4.139   5.542   3.781  0.1192  0.2749 -0.3131
   19G      H3'  598  -4.031   5.554   3.794  0.1172 -0.2103  0.1835
   19G      C2'  599  -4.214   5.646   3.864 -0.2117  0.7420  1.1216
   19G      H2'  600  -4.172   5.747   3.865 -0.2677  0.7642  1.6290
   19G      O2'  601  -4.355   5.653   3.813 -0.4222  0.2914  0.2065
   19G     HO2'  602  -4.358   5.656   3.717 -2.1827 -0.4149  0.1943
   19G      O3'  603  -4.180   5.550   3.644 -0.3783  0.4439 -0.0777
   20G        P  604  -4.082   5.610   3.538 -0.1313  0.3149 -0.1969
   20G      OP1  605  -4.159   5.615   3.411  0.1298 -0.2075  0.2142
   20G      OP2  606  -3.961   5.540   3.535 -0.6516 -0.2602  0.3526
   20G      O5'  607  -4.052   5.761   3.573  0.1066 -0.1868  0.1513
   20G      C5'  608  -4.161   5.857   3.554  0.1472  0.7415  0.1029
   20G      H5'  609  -4.243   5.801   3.599 -0.7411  2.1900  0.3531
   20G     H5''  610  -4.182   5.873   3.448 -1.0629  4.2073  0.7116
   20G      C4'  611  -4.145   5.992   3.624  0.7150 -0.8365  0.3503
   20G      H4'  612  -4.229   6.049   3.585  0.8055 -0.2414  1.0035
   20G      O4'  613  -4.133   5.988   3.767  0.6001 -0.2123 -0.2611
   20G      C1'  614  -4.052   6.105   3.794 -0.1061 -0.4590  0.0057
   20G      H1'  615  -4.104   6.159   3.873  0.3537  3.0148 -1.8255
   20G       N9  616  -3.906   6.056   3.840  0.6993 -0.2478 -0.3816
   20G       C8  617  -3.842   5.941   3.823 -0.2775  1.1565  0.3339
   20G       H8  618  -3.875   5.875   3.743  1.7416  2.1809 -1.4406
   20G       N7  619  -3.728   5.931   3.890 -0.0192 -0.5392  0.3979
   20G       C5  620  -3.724   6.057   3.957 -0.2099  0.0874 -0.0919
   20G       C6  621  -3.613   6.127   4.030  0.2236 -0.1268 -0.6669
   20G       O6  622  -3.507   6.083   4.077 -0.2506 -0.0980 -0.6176
   20G       N1  623  -3.644   6.254   4.072 -0.2020 -0.3197  0.8190
   20G       H1  624  -3.586   6.298   4.142 -1.3478 -0.6610  2.0003
   20G       C2  625  -3.752   6.315   4.032  0.3716 -0.8835  0.5238
   20G       N2  626  -3.756   6.442   4.062 -0.2631 -0.3449  0.0262
   20G      H21  627  -3.676   6.494   4.093  0.6752 -0.9507 -1.3082
   20G      H22  628  -3.840   6.493   4.036  0.1140 -0.6764 -1.9801
   20G       N3  629  -3.849   6.272   3.956 -0.3314 -0.1240 -0.7800
   20G       C4  630  -3.832   6.136   3.927 -0.0137 -0.0654  0.4861
   20G      C3'  631  -4.033   6.080   3.565 -0.0075  0.1320 -0.3056
   20G      H3'  632  -3.942   6.021   3.568 -1.5582 -2.4175 -0.0553
   20G      C2'  633  -4.042   6.183   3.669 -0.2289 -0.3625 -1.2593
   20G      H2'  634  -3.956   6.249   3.680 -0.9507  0.3712  0.1455
   20G      O2'  635  -4.160   6.264   3.664  0.2603  0.6259  0.2248
   20G     HO2'  636  -4.152   6.328   3.736  1.8544 -0.2483  0.8507
   20G      O3'  637  -4.041   6.130   3.429 -0.0511  0.0865  0.0815
   21U        P  638  -3.905   6.158   3.351  0.3380  0.0350  0.7238
   21U      OP1  639  -3.938   6.170   3.210 -0.1187  0.5725 -0.0074
   21U      OP2  640  -3.795   6.059   3.389  0.9118 -0.1723 -0.5719
   21U      O5'  641  -3.856   6.304   3.403 -0.3916  0.4020 -0.5154
   21U      C5'  642  -3.944   6.411   3.408  0.7247  0.1838  0.3409
   21U      H5'  643  -4.046   6.391   3.441  0.2346  0.0870 -1.1402
   21U     H5''  644  -3.944   6.445   3.304 -1.2454  2.0290  0.8824
   21U      C4'  645  -3.884   6.520   3.493  0.2184 -0.4434 -0.0192
   21U      H4'  646  -3.948   6.606   3.476  1.4993  0.0976 -2.7292
   21U      O4'  647  -3.867   6.505   3.636  0.1603 -0.2182  0.4123
   21U      C1'  648  -3.741   6.560   3.676 -1.0127  0.3547  0.1107
   21U      H1'  649  -3.764   6.621   3.763 -1.5053  3.5046 -2.0477
   21U       N1  650  -3.647   6.449   3.710  0.2607  0.1083 -0.9764
   21U       C6  651  -3.682   6.318   3.681  0.4765 -0.5345 -0.1991
   21U       H6  652  -3.779   6.298   3.638  0.0342  0.5656  0.2590
   21U       C5  653  -3.590   6.218   3.706 -0.6803  0.6837  0.5037
   21U       H5  654  -3.611   6.115   3.683 -0.6556  0.6785  0.5035
   21U       C4  655  -3.462   6.244   3.774  0.0224  0.3250  1.0412
   21U       O4  656  -3.365   6.171   3.798  0.8125 -0.5612  0.4422
   21U       N3  657  -3.448   6.375   3.807  0.0688 -0.2308 -0.0471
   21U       H3  658  -3.363   6.395   3.858  0.2348 -0.8152 -0.0844
   21U       C2  659  -3.536   6.477   3.787 -0.8540  0.3542 -0.1157
   21U       O2  660  -3.519   6.582   3.853  0.0432  0.0869 -0.1774
   21U      C3'  661  -3.745   6.560   3.439  0.7102 -0.0222  0.2357
   21U      H3'  662  -3.684   6.471   3.421 -1.5055 -1.2683 -1.6095
   21U      C2'  663  -3.685   6.643   3.559 -0.2370 -0.0325 -0.0372
   21U      H2'  664  -3.577   6.651   3.555  0.4378 -4.5413  2.2872
   21U      O2'  665  -3.757   6.760   3.569  0.0261 -0.0176 -0.0198
   21U     HO2'  666  -3.760   6.789   3.660  0.7934 -0.4153  0.1424
   21U      O3'  667  -3.764   6.653   3.329  0.2275 -0.0283 -0.3792
   22G        P  668  -3.654   6.666   3.219 -0.1505 -0.1561 -0.1882
   22G      OP1  669  -3.705   6.762   3.121  0.6685 -0.0225 -0.2750
   22G      OP2  670  -3.615   6.530   3.186  0.3236 -0.0868 -0.6117
   22G      O5'  671  -3.529   6.730   3.290 -1.1400  0.0287  0.1961
   22G      C5'  672  -3.521   6.868   3.321 -0.4106 -0.1494 -0.0567
   22G      H5'  673  -3.617   6.897   3.364 -1.8029 -1.1006 -2.3131
   22G     H5''  674  -3.514   6.934   3.234  0.1941  0.2340  0.2737
   22G      C4'  675  -3.410   6.909   3.420 -0.5334  0.4664  0.7246
   22G      H4'  676  -3.425   7.014   3.445 -0.5839  0.2488  1.6302
   22G      O4'  677  -3.419   6.838   3.544 -0.4047 -0.1794  0.2274
   22G      C1'  678  -3.290   6.822   3.591  0.2993 -0.8907 -0.0074
   22G      H1'  679  -3.270   6.836   3.697  2.9644 -2.1648 -0.2414
   22G       N9  680  -3.242   6.681   3.574 -0.2831  0.2535  0.8462
   22G       C8  681  -3.305   6.574   3.505  0.1224 -0.3009 -0.5811
   22G       H8  682  -3.386   6.582   3.434 -2.3321  1.4483  2.1549
   22G       N7  683  -3.252   6.457   3.531 -0.3782 -0.6281 -0.5015
   22G       C5  684  -3.151   6.486   3.620  0.7624  0.3293  1.2937
   22G       C6  685  -3.056   6.400   3.686  0.8628 -0.8348  0.5517
   22G       O6  686  -3.030   6.281   3.673  0.1623 -0.0975 -0.4616
   22G       N1  687  -2.971   6.472   3.769 -0.6327 -0.4906  0.1843
   22G       H1  688  -2.917   6.409   3.825  0.2223  0.1526  0.1064
   22G       C2  689  -2.964   6.607   3.774  0.0520 -0.1078  0.5333
   22G       N2  690  -2.866   6.655   3.856 -0.6912  0.4697  0.2981
   22G      H21  691  -2.801   6.597   3.907  1.2188  2.9172  0.8391
   22G      H22  692  -2.840   6.751   3.838  1.9413 -0.1420  0.3392
   22G       N3  693  -3.040   6.692   3.709  0.0056 -0.0856 -0.4350
   22G       C4  694  -3.138   6.623   3.641 -0.1620 -0.4786 -0.5573
   22G      C3'  695  -3.270   6.907   3.372 -1.5715  0.1601  0.0873
   22G      H3'  696  -3.243   6.811   3.328 -0.4937 -0.6923  2.4164
   22G      C2'  697  -3.206   6.925   3.505 -0.0178  0.4463 -0.3806
   22G      H2'  698  -3.100   6.902   3.504  0.7554  3.4364 -2.8835
   22G      O2'  699  -3.223   7.052   3.563 -0.5748  0.2612 -0.4094
   22G     HO2'  700  -3.175   7.119   3.514 -0.9445 -0.9533 -2.5416
   22G      O3'  701  -3.234   7.018   3.286  0.7348  0.3033  0.6069
   23U        P  702  -3.141   6.999   3.160 -0.1713 -0.0807  0.1433
   23U      OP1  703  -3.109   7.139   3.116  0.5931  0.7369  0.6631
   23U      OP2  704  -3.203   6.908   3.059 -0.0269 -0.1497 -0.4825
   23U      O5'  705  -2.999   6.940   3.218  1.2135  0.2826 -0.0479
   23U      C5'  706  -2.902   7.020   3.294  0.5821  0.1200 -0.4465
   23U      H5'  707  -2.954   7.081   3.368  1.2874 -0.6855  0.7404
   23U     H5''  708  -2.861   7.100   3.233 -0.0329  0.2901 -0.6418
   23U      C4'  709  -2.783   6.942   3.358  0.7700 -0.1118 -0.7243
   23U      H4'  710  -2.707   7.006   3.401  0.1796  0.4455 -0.4973
   23U      O4'  711  -2.835   6.859   3.465 -0.5450  0.5898 -0.1795
   23U      C1'  712  -2.736   6.755   3.469  0.0277 -0.5384 -0.5272
   23U      H1'  713  -2.691   6.755   3.568 -0.3077 -0.7303 -0.3704
   23U       N1  714  -2.799   6.613   3.450  0.3752  0.2530  0.3269
   23U       C6  715  -2.917   6.600   3.377 -0.1282  0.0871  0.7596
   23U       H6  716  -2.960   6.690   3.336  1.3045  0.5115  0.1240
   23U       C5  717  -2.974   6.481   3.353 -0.0922  0.5018 -0.4524
   23U       H5  718  -3.059   6.464   3.290 -0.6794  1.0971  0.1702
   23U       C4  719  -2.925   6.363   3.412 -0.1732  0.2650 -0.4465
   23U       O4  720  -2.976   6.256   3.399  0.5501 -0.5761 -0.9487
   23U       N3  721  -2.800   6.372   3.471  0.0642 -0.4177  0.4550
   23U       H3  722  -2.750   6.294   3.511 -0.6449 -2.4497 -2.3443
   23U       C2  723  -2.731   6.494   3.492  0.3191  0.4991  0.7213
   23U       O2  724  -2.616   6.492   3.528 -0.4419  0.0610 -0.0357
   23U      C3'  725  -2.713   6.846   3.254  0.4422 -0.0431 -0.6712
   23U      H3'  726  -2.785   6.769   3.225  0.8289 -2.1569  3.1961
   23U      C2'  727  -2.627   6.779   3.363 -0.1437 -0.2430 -0.2619
   23U      H2'  728  -2.596   6.680   3.330 -1.5127 -0.3693 -1.2609
   23U      O2'  729  -2.507   6.852   3.404 -0.1102  0.2723 -0.2610
   23U     HO2'  730  -2.492   6.916   3.334  0.5989  1.2131  0.7210
   23U      O3'  731  -2.619   6.891   3.161 -0.0726 -1.0025 -0.7238
   24A        P  732  -2.591   6.808   3.034 -0.5395  0.1546  0.0753
   24A      OP1  733  -2.503   6.895   2.957  0.3224  0.6745 -0.3879
   24A      OP2  734  -2.716   6.762   2.976  0.4854 -0.4715  0.4188
   24A      O5'  735  -2.506   6.682   3.077 -0.3041 -0.0134 -0.9157
   24A      C5'  736  -2.379   6.693   3.130 -0.2354 -0.2946  0.1187
   24A      H5'  737  -2.383   6.750   3.223 -1.2926  0.2435 -0.2389
   24A     H5''  738  -2.307   6.744   3.065  1.3204  2.5009  3.6384
   24A      C4'  739  -2.312   6.562   3.184  0.4302 -0.9585 -0.2634
   24A      H4'  740  -2.218   6.595   3.230 -0.4667 -0.0437  0.9832
   24A      O4'  741  -2.385   6.504   3.292 -0.4760  0.3056  0.6534
   24A      C1'  742  -2.365   6.365   3.286  0.4713 -0.0051  0.0386
   24A      H1'  743  -2.330   6.331   3.383  0.9810 -0.6832 -0.3734
   24A       N9  744  -2.490   6.303   3.252  0.0917  0.3964 -0.1610
   24A       C8  745  -2.590   6.342   3.170 -0.0839 -0.4557 -0.5140
   24A       H8  746  -2.586   6.446   3.142 -0.2209  0.0924  1.3623
   24A       N7  747  -2.673   6.245   3.137 -0.1462 -0.1396 -0.4004
   24A       C5  748  -2.620   6.130   3.202 -0.1710  0.3253  0.1933
   24A       C6  749  -2.649   5.993   3.219  0.1167 -0.6595  0.0996
   24A       N6  750  -2.757   5.933   3.181  0.3119  0.3776  0.1641
   24A      H61  751  -2.832   5.979   3.131 -1.3358 -5.2865 -3.4522
   24A      H62  752  -2.784   5.839   3.208 -1.2477  1.0168  1.0112
   24A       N1  753  -2.573   5.917   3.283 -0.1721  0.2248 -0.1417
   24A       C2  754  -2.457   5.959   3.335  0.4715 -0.4173 -0.7532
   24A       H2  755  -2.389   5.882   3.368 -0.8950 -1.2707  0.1719
   24A       N3  756  -2.411   6.078   3.324  0.3750 -1.3282 -0.1062
   24A       C4  757  -2.501   6.162   3.264  0.4962 -0.2071  0.9556
   24A      C3'  758  -2.285   6.449   3.079  0.4122 -0.0960  0.2227
   24A      H3'  759  -2.378   6.432   3.025  0.9528 -0.6245 -0.5782
   24A      C2'  760  -2.264   6.330   3.174  0.5189 -0.8867  0.2870
   24A      H2'  761  -2.280   6.240   3.116 -1.9485 -0.1555 -0.2680
   24A      O2'  762  -2.132   6.335   3.234  1.1420 -0.6641 -0.0110
   24A     HO2'  763  -2.137   6.316   3.327  0.5033 -2.2882 -0.3515
   24A      O3'  764  -2.170   6.470   3.008 -0.4867  0.1276  0.3161
   25A        P  765  -2.146   6.391   2.866 -0.0995 -0.0289 -0.6244
   25A      OP1  766  -2.022   6.461   2.809 -0.1862 -0.6298  0.0973
   25A      OP2  767  -2.273   6.410   2.795  0.2385 -0.0978  0.0795
   25A      O5'  768  -2.125   6.245   2.893  0.2056  0.4868  0.3405
   25A      C5'  769  -2.007   6.204   2.959  0.7442  0.1930 -0.1729
   25A      H5'  770  -2.008   6.278   3.039 -0.0431  1.3810 -1.2421
   25A     H5''  771  -1.916   6.210   2.899 -1.9212  3.5783 -4.5245
   25A      C4'  772  -2.021   6.063   3.012 -0.2581 -0.5171 -0.3589
   25A      H4'  773  -1.927   6.052   3.066 -0.1871  2.9574  0.4450
   25A      O4'  774  -2.133   6.046   3.096  0.0824  0.2837 -0.1104
   25A      C1'  775  -2.172   5.914   3.080 -0.0458  0.1028 -0.8736
   25A      H1'  776  -2.175   5.855   3.172 -0.1015 -1.0429 -1.5892
   25A       N9  777  -2.311   5.911   3.022  0.8860 -0.2329  0.0665
   25A       C8  778  -2.383   6.013   2.964 -0.0127  0.1289  0.5683
   25A       H8  779  -2.344   6.110   2.939 -0.8746  0.2933 -0.1603
   25A       N7  780  -2.501   5.979   2.914 -0.1867  0.3792 -0.6469
   25A       C5  781  -2.515   5.850   2.958 -0.8573  0.4554 -0.5430
   25A       C6  782  -2.624   5.753   2.954 -0.2122 -0.2635  0.7833
   25A       N6  783  -2.738   5.774   2.884  0.5443  1.1695  0.5624
   25A      H61  784  -2.759   5.870   2.861  0.2906  0.6651 -1.6330
   25A      H62  785  -2.809   5.701   2.881 -1.0656  2.6703  0.2370
   25A       N1  786  -2.612   5.635   3.012 -0.2157 -0.6910 -0.2345
   25A       C2  787  -2.498   5.614   3.067  0.2863  0.0983 -0.4796
   25A       H2  788  -2.506   5.523   3.125  1.7968 -1.0099 -1.9228
   25A       N3  789  -2.390   5.689   3.084 -0.6140  0.1573 -0.0583
   25A       C4  790  -2.403   5.807   3.026 -0.3047 -0.7320  0.0024
   25A      C3'  791  -2.034   5.971   2.895  0.0876 -0.6395  0.5328
   25A      H3'  792  -2.121   5.999   2.836 -0.3554  1.4319  2.0591
   25A      C2'  793  -2.077   5.848   2.975 -0.3914  0.2415 -0.2349
   25A      H2'  794  -2.125   5.780   2.905 -2.0709  0.3994  0.7180
   25A      O2'  795  -1.963   5.801   3.046 -0.3839 -0.3882 -0.6681
   25A     HO2'  796  -1.890   5.832   2.993 -1.1572 -0.7203 -1.9788
   25A      O3'  797  -1.918   5.943   2.810 -0.4612  0.1235 -0.0914
   26G        P  798  -1.931   5.860   2.671  0.2256  0.4135  0.0168
   26G      OP1  799  -1.795   5.852   2.606 -0.5265  0.1359 -0.6211
   26G      OP2  800  -2.035   5.918   2.591 -0.5347 -0.6937 -1.0378
   26G      O5'  801  -1.982   5.712   2.706  0.8140  0.2902  0.1318
   26G      C5'  802  -1.899   5.620   2.769  0.6392  0.1629 -0.3167
   26G      H5'  803  -1.860   5.668   2.859 -2.3121  1.5180  0.3335
   26G     H5''  804  -1.816   5.586   2.706  0.6135  0.7587 -0.6751
   26G      C4'  805  -1.970   5.491   2.808 -0.5298 -0.0914  0.1372
   26G      H4'  806  -1.911   5.428   2.875 -0.9652  0.2183  0.8277
   26G      O4'  807  -2.089   5.519   2.888 -0.4937 -0.0408  0.0380
   26G      C1'  808  -2.183   5.420   2.849  0.2823  0.5027  0.5824
   26G      H1'  809  -2.233   5.366   2.929 -1.4851 -0.5602 -1.1416
   26G       N9  810  -2.303   5.497   2.790  0.6755 -0.3665  0.3795
   26G       C8  811  -2.308   5.619   2.724 -0.0750 -0.1262  0.2678
   26G       H8  812  -2.216   5.674   2.713  0.7521 -1.5151 -0.0585
   26G       N7  813  -2.422   5.659   2.670 -0.0317  0.6078 -0.2729
   26G       C5  814  -2.506   5.550   2.702 -1.2579 -0.8349 -0.8217
   26G       C6  815  -2.641   5.517   2.675  0.7520 -0.7080  0.4663
   26G       O6  816  -2.724   5.581   2.610  0.2716 -0.1543  0.9036
   26G       N1  817  -2.676   5.397   2.712  0.6548 -0.5988 -0.3140
   26G       H1  818  -2.774   5.379   2.696  0.6044 -0.0857 -0.5984
   26G       C2  819  -2.605   5.312   2.784 -0.5953  0.1965 -0.4872
   26G       N2  820  -2.658   5.203   2.832 -0.6767 -0.9619  0.3048
   26G      H21  821  -2.758   5.192   2.838 -1.0867  1.9133  0.2216
   26G      H22  822  -2.602   5.131   2.876 -1.5819 -0.8992  1.6175
   26G       N3  823  -2.474   5.335   2.822  0.0040  0.1844  0.6396
   26G       C4  824  -2.434   5.455   2.774 -0.8726 -0.1991 -0.4910
   26G      C3'  825  -2.023   5.412   2.683  0.1347  0.2727 -0.1263
   26G      H3'  826  -2.057   5.472   2.599  4.1163  0.3151 -1.9608
   26G      C2'  827  -2.124   5.319   2.752  0.1637  0.9345  0.1408
   26G      H2'  828  -2.194   5.276   2.681 -0.6736  0.2734  1.3442
   26G      O2'  829  -2.075   5.218   2.828 -0.4540  0.7512 -0.0581
   26G     HO2'  830  -1.988   5.198   2.792 -2.3349 -2.0569 -3.5934
   26G      O3'  831  -1.920   5.333   2.627 -0.5670 -0.2347 -0.3316
   27U        P  832  -1.928   5.272   2.482  0.6054  0.2794 -0.0371
   27U      OP1  833  -1.793   5.222   2.449  0.3744  0.1507 -0.1018
   27U      OP2  834  -1.993   5.364   2.393 -0.3943  0.4935 -0.1315
   27U      O5'  835  -2.027   5.148   2.495 -0.5775  0.2626  0.0460
   27U      C5'  836  -1.998   5.018   2.540 -0.7978 -0.2549 -0.0580
   27U      H5'  837  -1.973   5.034   2.645 -0.7650  0.5913 -0.1894
   27U     H5''  838  -1.919   4.974   2.479 -0.7222  0.1739 -0.2772
   27U      C4'  839  -2.120   4.927   2.514 -0.0982  0.2715 -0.4204
   27U      H4'  840  -2.097   4.831   2.560  0.8234  1.4004  1.6392
   27U      O4'  841  -2.252   4.962   2.568 -0.2348  0.8863  0.4957
   27U      C1'  842  -2.344   4.949   2.460  0.3209  0.1275 -0.3612
   27U      H1'  843  -2.376   4.845   2.473 -0.3053  0.1316 -1.6874
   27U       N1  844  -2.450   5.051   2.478 -0.1248 -0.6188  0.4736
   27U       C6  845  -2.414   5.184   2.486  0.1694 -0.2919 -0.1828
   27U       H6  846  -2.323   5.225   2.527 -0.3474 -0.4195  1.1333
   27U       C5  847  -2.509   5.278   2.463 -0.1180  0.3755  0.6664
   27U       H5  848  -2.477   5.380   2.457  3.2832 -0.4584  2.3277
   27U       C4  849  -2.647   5.246   2.448  0.3894  0.3370 -0.6913
   27U       O4  850  -2.730   5.327   2.413  0.4377  0.0901 -1.0372
   27U       N3  851  -2.673   5.112   2.452  0.8239  0.5220 -0.1799
   27U       H3  852  -2.767   5.085   2.429  0.6968 -0.2074  1.0992
   27U       C2  853  -2.582   5.010   2.450 -0.5893  0.1271 -0.9078
   27U       O2  854  -2.615   4.892   2.434  0.5950 -0.1925  0.2119
   27U      C3'  855  -2.137   4.886   2.360  0.0046  0.2629 -0.2266
   27U      H3'  856  -2.061   4.916   2.288 -0.0959  0.0782 -0.4133
   27U      C2'  857  -2.265   4.961   2.334  0.4407  0.3566 -0.6592
   27U      H2'  858  -2.234   5.065   2.321  0.0724  0.6801  0.8147
   27U      O2'  859  -2.348   4.913   2.234 -0.3066 -0.1969  0.1406
   27U     HO2'  860  -2.338   4.818   2.242  1.8602  0.1150  2.2296
   27U      O3'  861  -2.161   4.743   2.355  0.2712 -0.1697 -1.2218
   28G        P  862  -2.058   4.627   2.373  0.2784 -0.1539 -0.1610
   28G      OP1  863  -1.920   4.675   2.348  0.2719  0.6391 -0.7726
   28G      OP2  864  -2.120   4.521   2.287 -0.0544  0.1587 -0.3379
   28G      O5'  865  -2.061   4.569   2.519 -0.4629 -0.0196  0.1663
   28G      C5'  866  -2.182   4.513   2.570  0.2438  0.6589 -0.0217
   28G      H5'  867  -2.177   4.404   2.573  1.1660  0.7102  2.0724
   28G     H5''  868  -2.278   4.544   2.528  1.3137  2.3108 -1.3466
   28G      C4'  869  -2.191   4.553   2.724  0.6864 -0.5213 -0.2424
   28G      H4'  870  -2.091   4.542   2.766  0.6843 -0.0241 -0.0954
   28G      O4'  871  -2.242   4.684   2.737 -0.2132 -0.0225 -0.4296
   28G      C1'  872  -2.363   4.681   2.812  0.1741  1.7993 -0.3572
   28G      H1'  873  -2.369   4.766   2.879 -1.4582  1.5186 -0.1125
   28G       N9  874  -2.493   4.684   2.738  0.6021 -0.2589 -0.7852
   28G       C8  875  -2.535   4.606   2.629  0.3224  0.3791 -0.7977
   28G       H8  876  -2.478   4.545   2.561  0.4785  1.6686 -1.8653
   28G       N7  877  -2.661   4.631   2.601  0.2467 -0.8764  0.1044
   28G       C5  878  -2.709   4.727   2.698  0.3403 -0.2647 -0.2455
   28G       C6  879  -2.840   4.777   2.723  0.1864 -0.4337  0.9630
   28G       O6  880  -2.946   4.770   2.656  0.1449  0.0978 -0.1554
   28G       N1  881  -2.850   4.862   2.828  0.3659  0.0841  0.7722
   28G       H1  882  -2.944   4.875   2.864 -0.1139 -0.3548 -0.2837
   28G       C2  883  -2.743   4.887   2.910 -0.2535 -0.3311 -0.0093
   28G       N2  884  -2.771   4.966   3.008 -0.2457 -1.4081 -0.0899
   28G      H21  885  -2.856   5.020   3.000  0.6395  0.7827  3.1880
   28G      H22  886  -2.694   4.985   3.071 -1.9158  3.1340  0.9581
   28G       N3  887  -2.623   4.835   2.893  0.8833  0.3409 -1.0412
   28G       C4  888  -2.604   4.760   2.782 -0.1433  0.6177  0.1596
   28G      C3'  889  -2.290   4.461   2.808 -0.4669 -0.5368 -0.4615
   28G      H3'  890  -2.361   4.419   2.736 -2.0082 -0.6440  1.0517
   28G      C2'  891  -2.357   4.556   2.902  0.7290  0.6457  0.5518
   28G      H2'  892  -2.453   4.515   2.935  1.3400  0.2426  1.8780
   28G      O2'  893  -2.278   4.579   3.018 -0.2744 -0.2102 -0.2195
   28G     HO2'  894  -2.256   4.494   3.055 -2.9461 -1.5309 -1.3513
   28G      O3'  895  -2.221   4.356   2.864 -0.1163  0.2695 -0.5011
   29C        P  896  -2.187   4.218   2.796  0.2221  0.2613 -0.6068
   29C      OP1  897  -2.077   4.243   2.695 -0.6122 -0.0155  0.0642
   29C      OP2  898  -2.314   4.153   2.762 -0.2431 -0.2023  0.4957
   29C      O5'  899  -2.144   4.126   2.915 -0.0652 -0.6081 -0.9483
   29C      C5'  900  -2.016   4.114   2.967  0.8003 -0.3626 -0.1185
   29C      H5'  901  -1.981   4.215   2.989  1.1082 -0.3130 -0.7938
   29C     H5''  902  -1.953   4.089   2.881  5.0590 -0.9806  2.8672
   29C      C4'  903  -1.981   4.035   3.094  0.2192  0.2095  0.3682
   29C      H4'  904  -1.878   4.062   3.112  0.6440 -1.0349 -0.0663
   29C      O4'  905  -2.058   4.067   3.206 -0.1449 -0.0959  0.1862
   29C      C1'  906  -2.078   3.951   3.290  0.3515 -0.0222 -0.1826
   29C      H1'  907  -2.024   3.966   3.383  0.3253 -3.6890  0.5579
   29C       N1  908  -2.229   3.946   3.328  0.2197  0.7300  0.1735
   29C       C6  909  -2.322   3.976   3.232 -0.2234 -0.2155 -0.6707
   29C       H6  910  -2.296   3.996   3.129  0.1731  0.8611 -0.3784
   29C       C5  911  -2.450   3.974   3.275  0.2788  1.4332 -0.0057
   29C       H5  912  -2.525   3.996   3.201  1.1654  1.0801 -1.0343
   29C       C4  913  -2.488   3.945   3.409 -0.4469 -0.1895 -0.8983
   29C       N4  914  -2.610   3.954   3.444  0.2553 -0.5100 -0.4288
   29C      H41  915  -2.673   3.991   3.375  2.3297  0.0034 -2.1592
   29C      H42  916  -2.643   3.915   3.531  2.2187 -1.7794 -0.1932
   29C       N3  917  -2.399   3.908   3.499  0.7764  0.7796 -0.7490
   29C       C2  918  -2.266   3.911   3.458  0.3878  0.9221  0.1104
   29C       O2  919  -2.183   3.891   3.544  0.0546  0.8939 -0.2590
   29C      C3'  920  -2.004   3.879   3.079  0.0867 -0.1801 -0.2362
   29C      H3'  921  -2.097   3.869   3.022 -1.5456  4.0060  1.2790
   29C      C2'  922  -2.021   3.824   3.220  0.9572 -0.5110  0.1882
   29C      H2'  923  -2.103   3.752   3.228 -0.6995  1.4465  2.3957
   29C      O2'  924  -1.903   3.780   3.282 -0.7939  0.7794  0.1403
   29C     HO2'  925  -1.863   3.729   3.210 -0.9200  1.7638 -0.6468
   29C      O3'  926  -1.898   3.812   3.015  0.7825 -0.2743 -0.5048
   30A        P  927  -1.924   3.702   2.897 -0.6978 -0.0767 -0.1717
   30A      OP1  928  -1.789   3.639   2.879 -0.1145  0.4583  0.0857
   30A      OP2  929  -1.985   3.784   2.787  0.3597  0.5191 -0.1555
   30A      O5'  930  -2.030   3.596   2.964  0.0176 -0.2018 -0.1968
   30A      C5'  931  -1.980   3.483   3.027  0.0539 -0.1577 -0.1246
   30A      H5'  932  -1.908   3.512   3.104  1.6238  0.2628 -1.6998
   30A     H5''  933  -1.924   3.415   2.964 -0.5834 -0.7396 -0.0782
   30A      C4'  934  -2.080   3.397   3.106 -0.2785 -0.7187 -0.3918
   30A      H4'  935  -2.029   3.313   3.152  2.0789  0.9518  0.2682
   30A      O4'  936  -2.138   3.474   3.215  0.1747  0.4603 -0.7172
   30A      C1'  937  -2.268   3.439   3.241  0.5914  0.5066  0.2672
   30A      H1'  938  -2.287   3.414   3.346 -2.4794 -0.1885 -0.3584
   30A       N9  939  -2.359   3.554   3.198  0.0552  0.6253 -0.1923
   30A       C8  940  -2.347   3.626   3.087 -0.0296 -1.5061 -0.3754
   30A       H8  941  -2.252   3.631   3.035  0.8656 -0.9823  1.2515
   30A       N7  942  -2.451   3.693   3.044  0.2601 -0.3795  0.1904
   30A       C5  943  -2.544   3.664   3.151 -0.3819 -0.0118 -0.2344
   30A       C6  944  -2.681   3.692   3.184 -0.0256  0.1821  1.1007
   30A       N6  945  -2.760   3.764   3.116  1.1156  0.2844 -0.3666
   30A      H61  946  -2.732   3.809   3.030 -1.5400 -0.6575 -1.8647
   30A      H62  947  -2.845   3.788   3.166  1.7783 -1.2220  1.6043
   30A       N1  948  -2.751   3.635   3.285 -0.1290 -0.7747 -0.2899
   30A       C2  949  -2.677   3.578   3.378 -0.3453 -0.0588  0.9012
   30A       H2  950  -2.736   3.551   3.464 -1.0343 -1.0115  0.1580
   30A       N3  951  -2.542   3.542   3.371  0.4097  0.4361 -0.2999
   30A       C4  952  -2.483   3.583   3.251 -0.3239 -0.8070  0.6598
   30A      C3'  953  -2.199   3.337   3.030  0.7778  0.3959 -0.4373
   30A      H3'  954  -2.238   3.409   2.957 -1.4181  1.2317  1.4098
   30A      C2'  955  -2.289   3.314   3.151  0.0445  0.3921  0.4100
   30A      H2'  956  -2.392   3.299   3.121  0.4313 -0.5966 -0.4908
   30A      O2'  957  -2.247   3.204   3.230  0.3680 -0.2958 -0.4405
   30A     HO2'  958  -2.320   3.184   3.289  2.4378  0.1551  2.5224
   30A      O3'  959  -2.165   3.223   2.950  0.3568 -1.1295  0.4464
   31G        P  960  -2.276   3.157   2.843  0.8229 -0.4859 -0.5703
   31G      OP1  961  -2.194   3.094   2.737  0.2979 -0.2341  0.2004
   31G      OP2  962  -2.371   3.265   2.807  0.7289 -0.3451 -0.6611
   31G      O5'  963  -2.369   3.037   2.901  0.1908  0.3226 -0.2817
   31G      C5'  964  -2.317   2.905   2.928 -0.0185  0.2619  0.0992
   31G      H5'  965  -2.231   2.914   2.995 -0.7190  1.7438  0.8638
   31G     H5''  966  -2.273   2.850   2.846 -0.3152  1.0585 -0.6102
   31G      C4'  967  -2.419   2.814   2.998  0.4422 -0.0995  0.1623
   31G      H4'  968  -2.389   2.709   2.991  1.0449  0.0917 -0.2510
   31G      O4'  969  -2.445   2.845   3.130  0.3262  0.0921  0.4931
   31G      C1'  970  -2.586   2.824   3.157  0.3129 -0.6641 -0.6126
   31G      H1'  971  -2.604   2.751   3.235 -0.1665 -1.5921 -1.5733
   31G       N9  972  -2.637   2.956   3.185 -0.5837 -0.4477 -0.6700
   31G       C8  973  -2.581   3.081   3.151 -0.4845 -0.3555  0.1596
   31G       H8  974  -2.481   3.087   3.109  0.2273  0.1026  1.8650
   31G       N7  975  -2.637   3.183   3.207  0.3671  0.2501  0.7410
   31G       C5  976  -2.743   3.121   3.280 -0.6838 -0.3738  0.1530
   31G       C6  977  -2.852   3.177   3.358 -0.0450  0.1145  0.3998
   31G       O6  978  -2.878   3.294   3.380 -1.0411 -0.3973  0.0181
   31G       N1  979  -2.930   3.088   3.422  0.3091  0.6034 -0.3633
   31G       H1  980  -2.999   3.119   3.489 -2.9915 -4.2127 -0.9298
   31G       C2  981  -2.915   2.950   3.409 -0.6928 -0.5093 -0.3772
   31G       N2  982  -3.016   2.882   3.441  0.7110 -0.0087  1.1301
   31G      H21  983  -3.100   2.929   3.471 -2.0379 -1.0871 -3.7680
   31G      H22  984  -3.012   2.784   3.414 -0.3287 -0.2919  1.9253
   31G       N3  985  -2.829   2.891   3.322 -0.4301 -0.3280 -0.5920
   31G       C4  986  -2.745   2.985   3.266  0.3179  0.4041 -0.1501
   31G      C3'  987  -2.547   2.815   2.923  0.5644 -0.1615  0.0193
   31G      H3'  988  -2.582   2.918   2.909 -0.3352 -0.3906  0.4748
   31G      C2'  989  -2.646   2.762   3.032 -0.3680  0.1721  1.3448
   31G      H2'  990  -2.748   2.795   3.013 -0.5881 -2.0864 -2.4948
   31G      O2'  991  -2.653   2.612   3.033 -0.4805  0.4073  0.4055
   31G     HO2'  992  -2.624   2.578   2.948 -1.1704 -2.5962  1.2518
   31G      O3'  993  -2.540   2.743   2.800  0.5851 -0.4130 -0.0071
   32C        P  994  -2.639   2.772   2.677 -0.1396 -0.2944  0.0671
   32C      OP1  995  -2.618   2.665   2.582  0.6174 -0.1482  0.4295
   32C      OP2  996  -2.599   2.908   2.630  0.7417 -0.0714  0.1157
   32C      O5'  997  -2.796   2.782   2.710  0.0310  0.2661 -0.2882
   32C      C5'  998  -2.870   2.670   2.752  1.0504  0.0622  0.3236
   32C      H5'  999  -2.823   2.621   2.838 -1.7487  2.4344  3.4696
   32C     H5'' 1000  -2.889   2.597   2.673  0.8031  0.1800  0.2750
   32C      C4' 1001  -3.007   2.694   2.816  0.3913  0.0949  0.2781
   32C      H4' 1002  -3.056   2.596   2.821 -0.0909  0.3061 -0.2621
   32C      O4' 1003  -3.002   2.740   2.950 -0.7110 -0.0392  0.3433
   32C      C1' 1004  -3.100   2.844   2.972  0.2908  0.2806  0.2850
   32C      H1' 1005  -3.170   2.824   3.053  0.8519  0.0877  0.7292
   32C       N1 1006  -3.039   2.972   3.000 -0.4068  0.3452  0.1333
   32C       C6 1007  -2.925   3.015   2.937  0.6993  0.8835  0.2582
   32C       H6 1008  -2.877   2.942   2.873 -0.5580 -0.0094  0.3108
   32C       C5 1009  -2.869   3.138   2.952  0.3732  0.3047 -0.5451
   32C       H5 1010  -2.777   3.162   2.901 -0.7413  1.9536 -1.8802
   32C       C4 1011  -2.940   3.226   3.041 -0.2075  0.4167 -0.3624
   32C       N4 1012  -2.907   3.352   3.063 -0.2814 -0.5263 -0.9372
   32C      H41 1013  -2.816   3.390   3.040  0.2695 -1.2815 -0.1115
   32C      H42 1014  -2.954   3.381   3.148  0.9795 -1.3637  0.0896
   32C       N3 1015  -3.046   3.189   3.107 -0.1610  0.2114  0.0913
   32C       C2 1016  -3.098   3.064   3.085 -0.2356 -0.0331 -0.2614
   32C       O2 1017  -3.207   3.030   3.137 -0.1518 -0.3580 -0.9346
   32C      C3' 1018  -3.102   2.791   2.734 -0.5802  0.7346 -0.1355
   32C      H3' 1019  -3.055   2.886   2.709  0.3595 -0.6157 -4.2735
   32C      C2' 1020  -3.196   2.836   2.846 -0.2628  0.5231  0.3710
   32C      H2' 1021  -3.243   2.933   2.829 -1.4656 -0.2445 -0.8559
   32C      O2' 1022  -3.296   2.738   2.873  0.3371 -0.3147  0.3053
   32C     HO2' 1023  -3.362   2.752   2.805 -0.9457  0.2257  1.5823
   32C      O3' 1024  -3.165   2.740   2.622 -0.1018  0.3220  0.9058
   33C        P 1025  -3.220   2.844   2.500 -0.2734 -0.2025  0.2433
   33C      OP1 1026  -3.262   2.756   2.394 -0.0870 -0.0342  0.4550
   33C      OP2 1027  -3.121   2.951   2.466 -0.4025 -0.4299 -0.2627
   33C      O5' 1028  -3.346   2.902   2.572  0.2384  0.5116 -0.0807
   33C      C5' 1029  -3.469   2.830   2.573 -0.3672  0.6170 -0.5148
   33C      H5' 1030  -3.450   2.724   2.589 -1.3915  0.3639 -0.8996
   33C     H5'' 1031  -3.513   2.837   2.473  1.1508  3.6221 -1.1146
   33C      C4' 1032  -3.566   2.891   2.675 -0.2889 -0.1280  0.4316
   33C      H4' 1033  -3.653   2.827   2.689 -0.2252 -0.2889  0.0907
   33C      O4' 1034  -3.518   2.906   2.803 -0.4888 -0.2185  0.5867
   33C      C1' 1035  -3.587   3.016   2.865  0.2716  0.3763  0.3744
   33C      H1' 1036  -3.634   2.984   2.958  1.8237  1.4517  1.5840
   33C       N1 1037  -3.503   3.128   2.904 -0.8804 -0.2433 -0.2509
   33C       C6 1038  -3.372   3.140   2.859  0.2720  0.4240 -0.6598
   33C       H6 1039  -3.345   3.074   2.778 -5.0127 -1.6250 -1.1432
   33C       C5 1040  -3.292   3.237   2.908  0.7782 -0.8625 -0.6075
   33C       H5 1041  -3.194   3.260   2.868  0.3602  4.6963  0.6955
   33C       C4 1042  -3.344   3.312   3.017  0.1446  0.3856  0.3099
   33C       N4 1043  -3.267   3.398   3.074  0.1966  0.7437 -0.3544
   33C      H41 1044  -3.169   3.390   3.051  0.2000  0.8878 -0.3936
   33C      H42 1045  -3.312   3.450   3.149 -0.2150  0.7198 -0.5831
   33C       N3 1046  -3.466   3.300   3.061  0.3016  0.0128 -0.4444
   33C       C2 1047  -3.551   3.214   3.004  0.8609  0.5181  0.6047
   33C       O2 1048  -3.665   3.192   3.052  0.1992  0.5176 -0.3635
   33C      C3' 1049  -3.610   3.032   2.630 -0.1107  0.6706 -0.6707
   33C      H3' 1050  -3.520   3.091   2.613  0.6937  0.1066  1.3152
   33C      C2' 1051  -3.677   3.075   2.762  0.3725  0.2905  0.4455
   33C      H2' 1052  -3.689   3.184   2.764 -1.7508  0.0901  1.6214
   33C      O2' 1053  -3.802   3.008   2.782  0.4007  0.5463  1.5809
   33C     HO2' 1054  -3.874   3.065   2.808  0.7430  1.2910  0.9308
   33C      O3' 1055  -3.689   3.025   2.514 -0.0162  0.0061  0.2270
   34C        P 1056  -3.702   3.153   2.419  0.2964  0.0107  0.0859
   34C      OP1 1057  -3.770   3.114   2.290  0.4960 -0.2290 -0.8366
   34C      OP2 1058  -3.562   3.214   2.415  0.3461 -0.7808  0.4088
   34C      O5' 1059  -3.796   3.241   2.510  0.2847 -0.9264  0.1641
   34C      C5' 1060  -3.929   3.216   2.550 -0.1977 -0.5208  0.5048
   34C      H5' 1061  -3.941   3.124   2.607  0.6014 -2.8057 -2.6917
   34C     H5'' 1062  -4.004   3.204   2.472 -0.9870  0.0067  1.1706
   34C      C4' 1063  -3.978   3.328   2.638 -0.1844  0.1066 -0.9668
   34C      H4' 1064  -4.078   3.306   2.673 -0.4524  1.1740 -1.0358
   34C      O4' 1065  -3.893   3.325   2.760  0.3942 -0.2908  0.9825
   34C      C1' 1066  -3.879   3.455   2.823 -0.2106  0.4025  0.2599
   34C      H1' 1067  -3.937   3.455   2.916 -1.8049 -0.9467 -0.6654
   34C       N1 1068  -3.743   3.511   2.849 -0.5728  0.1525 -0.3168
   34C       C6 1069  -3.635   3.471   2.778 -0.5019  0.4849  0.0747
   34C       H6 1070  -3.646   3.419   2.683  5.8592  0.1447 -0.8825
   34C       C5 1071  -3.515   3.512   2.809  1.2306  0.1731  0.5317
   34C       H5 1072  -3.440   3.493   2.733 -1.2248 -0.6646 -1.8041
   34C       C4 1073  -3.496   3.591   2.921  0.3366  0.5251 -0.3465
   34C       N4 1074  -3.382   3.659   2.934 -0.0063  0.5758  0.1822
   34C      H41 1075  -3.298   3.637   2.883 -0.4237  2.4340 -1.4250
   34C      H42 1076  -3.385   3.727   3.008 -2.1780  1.4175 -0.5963
   34C       N3 1077  -3.596   3.630   2.999  0.0411  0.0517  0.6653
   34C       C2 1078  -3.720   3.590   2.962  0.0451 -0.6854  0.8169
   34C       O2 1079  -3.814   3.630   3.040 -0.4719  0.6119  0.2146
   34C      C3' 1080  -3.960   3.471   2.589  0.0815  0.3166 -0.1585
   34C      H3' 1081  -3.865   3.461   2.537 -0.4295 -0.7118 -0.9322
   34C      C2' 1082  -3.954   3.545   2.723 -0.3432  0.3014 -0.3142
   34C      H2' 1083  -3.893   3.636   2.718  0.5425 -0.1812  1.0869
   34C      O2' 1084  -4.078   3.571   2.774  0.6982  0.3966 -0.4053
   34C     HO2' 1085  -4.123   3.640   2.724  0.1198  2.3651  2.5478
   34C      O3' 1086  -4.063   3.524   2.505 -0.7122  0.0809 -0.4425
   35G        P 1087  -4.050   3.661   2.432  0.0360 -0.4089  0.2588
   35G      OP1 1088  -4.153   3.676   2.322 -0.5875  0.2387 -0.0784
   35G      OP2 1089  -3.911   3.690   2.405 -0.6894  0.4842  0.4038
   35G      O5' 1090  -4.098   3.759   2.550 -0.2821 -0.2580  0.2550
   35G      C5' 1091  -4.083   3.897   2.535 -0.5950 -0.7894 -0.3149
   35G      H5' 1092  -4.171   3.941   2.488 -2.1092 -2.2362  1.0047
   35G     H5'' 1093  -4.001   3.922   2.468 -1.0728 -2.9367 -1.8171
   35G      C4' 1094  -4.075   3.974   2.664  0.2922 -0.4070  0.0015
   35G      H4' 1095  -4.175   3.971   2.707  1.4511 -2.6920  2.8968
   35G      O4' 1096  -3.987   3.915   2.751 -0.6469 -0.4196 -0.7904
   35G      C1' 1097  -3.914   4.018   2.826  0.2202 -0.4249  0.5291
   35G      H1' 1098  -3.940   4.011   2.932 -0.4141  1.6728  0.5545
   35G       N9 1099  -3.766   4.016   2.821 -0.0070 -0.1903  0.3466
   35G       C8 1100  -3.680   3.921   2.768  0.7851  0.0146 -0.4458
   35G       H8 1101  -3.719   3.836   2.714  1.8965 -0.5792 -0.3443
   35G       N7 1102  -3.548   3.941   2.785  0.1482 -0.1816 -0.0372
   35G       C5 1103  -3.550   4.052   2.861  0.5047 -0.3426  0.0556
   35G       C6 1104  -3.442   4.120   2.925  0.2202  0.1206 -0.0443
   35G       O6 1105  -3.318   4.097   2.914 -0.1046  0.9040 -0.0597
   35G       N1 1106  -3.479   4.220   3.016  0.7015 -0.9812  0.0159
   35G       H1 1107  -3.398   4.252   3.067 -0.3612  0.4046  0.9235
   35G       C2 1108  -3.602   4.253   3.040  0.2437 -0.2469 -0.4274
   35G       N2 1109  -3.624   4.344   3.130  0.9499  0.5108 -0.4836
   35G      H21 1110  -3.544   4.376   3.184  0.8615 -1.2044  0.7293
   35G      H22 1111  -3.718   4.376   3.152 -0.0735  0.3615 -4.0697
   35G       N3 1112  -3.703   4.203   2.969 -0.3660 -0.2291 -0.3626
   35G       C4 1113  -3.679   4.098   2.886 -0.1869 -0.3622  0.7080
   35G      C3' 1114  -4.025   4.121   2.645  0.9233  0.0092 -0.7104
   35G      H3' 1115  -3.947   4.123   2.569  0.4096 -0.8418 -1.2723
   35G      C2' 1116  -3.971   4.156   2.781 -0.4790  0.5881  0.4351
   35G      H2' 1117  -3.892   4.232   2.778  1.2949 -1.1822 -2.0443
   35G      O2' 1118  -4.064   4.191   2.877  0.0869  0.2368 -0.1741
   35G     HO2' 1119  -4.135   4.234   2.828 -1.2724 -2.5855 -0.9373
   35G      O3' 1120  -4.132   4.190   2.591 -0.0975 -0.9057  0.2099
   36U        P 1121  -4.110   4.324   2.504  0.0501 -0.1900 -0.2027
   36U      OP1 1122  -4.244   4.383   2.491 -0.9267 -1.1303 -0.5907
   36U      OP2 1123  -4.033   4.288   2.384 -0.3584  0.2618  0.9790
   36U      O5' 1124  -4.012   4.426   2.589 -0.0263  0.4304 -0.0074
   36U      C5' 1125  -4.070   4.539   2.660  0.5696  0.0100 -0.1209
   36U      H5' 1126  -4.140   4.492   2.729 -0.0223  1.2066  0.1178
   36U     H5'' 1127  -4.124   4.614   2.603 -1.5165  0.1065  1.8282
   36U      C4' 1128  -3.959   4.613   2.745  0.2486 -0.0860 -0.5500
   36U      H4' 1129  -4.006   4.654   2.834  0.4472 -3.3762  1.2161
   36U      O4' 1130  -3.871   4.508   2.792 -0.3316 -0.3417  0.0550
   36U      C1' 1131  -3.739   4.550   2.750  0.8995 -0.1601 -0.5017
   36U      H1' 1132  -3.704   4.626   2.820 -1.4771  1.7836 -1.2958
   36U       N1 1133  -3.632   4.445   2.741  0.5771  0.1963  0.1843
   36U       C6 1134  -3.650   4.336   2.657 -0.0256  0.5907  0.5815
   36U       H6 1135  -3.751   4.309   2.634 -0.6706  2.8413  0.4872
   36U       C5 1136  -3.541   4.264   2.607 -0.1742  0.9722  0.1399
   36U       H5 1137  -3.556   4.176   2.546 -0.0491 -0.6123  2.2537
   36U       C4 1138  -3.406   4.302   2.647  0.1849  1.0794  0.3320
   36U       O4 1139  -3.312   4.237   2.606 -0.2857 -0.3035 -0.1362
   36U       N3 1140  -3.396   4.417   2.724  0.2170  0.4465 -0.6323
   36U       H3 1141  -3.302   4.447   2.747  1.1384 -2.3219 -0.4778
   36U       C2 1142  -3.505   4.488   2.782 -1.0114 -0.0163  0.0371
   36U       O2 1143  -3.482   4.595   2.842 -0.1360 -0.4550  0.0831
   36U      C3' 1144  -3.868   4.716   2.669 -0.4010 -0.5011  0.0653
   36U      H3' 1145  -3.901   4.750   2.571  5.3504  1.1882 -1.6937
   36U      C2' 1146  -3.755   4.619   2.617  0.0865 -0.5161 -0.9277
   36U      H2' 1147  -3.790   4.559   2.533  1.0117  0.1345 -1.7964
   36U      O2' 1148  -3.635   4.687   2.586  0.0248 -0.1749 -0.5218
   36U     HO2' 1149  -3.622   4.776   2.619 -0.3915 -0.9670  2.0070
   36U      O3' 1150  -3.823   4.824   2.748  0.2779  0.1071  0.5346
   37C        P 1151  -3.766   4.966   2.689  0.3325  0.6056  0.2444
   37C      OP1 1152  -3.800   5.072   2.786 -0.1412  0.1412  0.0262
   37C      OP2 1153  -3.797   4.984   2.547 -0.4987 -0.1688  0.7252
   37C      O5' 1154  -3.612   4.937   2.708  0.5703 -0.1461  0.9806
   37C      C5' 1155  -3.551   4.987   2.824  0.0997  0.4140  1.7985
   37C      H5' 1156  -3.603   4.962   2.917 -1.9292  1.0042  0.8764
   37C     H5'' 1157  -3.565   5.094   2.806 -0.6774 -0.1074 -1.3201
   37C      C4' 1158  -3.403   4.948   2.846 -0.2274 -0.4599  0.2759
   37C      H4' 1159  -3.403   4.839   2.849 -4.2665 -0.6407 -0.0410
   37C      O4' 1160  -3.327   5.024   2.748 -0.3159 -0.5586  0.7661
   37C      C1' 1161  -3.188   5.039   2.792 -0.4866 -0.8418 -0.5192
   37C      H1' 1162  -3.133   4.961   2.739 -2.4290 -1.7774 -1.2685
   37C       N1 1163  -3.143   5.179   2.775 -0.1164 -0.1932 -0.0658
   37C       C6 1164  -3.231   5.262   2.717 -0.2280 -0.3091 -0.1183
   37C       H6 1165  -3.337   5.244   2.724 -0.9078  2.0090 -2.4266
   37C       C5 1166  -3.186   5.369   2.655  0.2531  0.4454 -0.0894
   37C       H5 1167  -3.261   5.436   2.615 -0.8858  1.0902  2.8736
   37C       C4 1168  -3.049   5.390   2.650  0.7903 -0.9720  0.5106
   37C       N4 1169  -3.003   5.495   2.590  0.0430  0.8717 -0.4040
   37C      H41 1170  -3.069   5.564   2.555  0.5529  1.2089 -0.7252
   37C      H42 1171  -2.910   5.522   2.620 -0.8308  3.4671  0.2138
   37C       N3 1172  -2.962   5.320   2.717 -0.7310 -0.1007  0.1493
   37C       C2 1173  -3.009   5.214   2.782 -0.5996 -0.0466  0.2655
   37C       O2 1174  -2.924   5.156   2.859 -0.2175 -0.3819  0.4877
   37C      C3' 1175  -3.345   5.017   2.966 -0.6878 -0.9023 -0.1826
   37C      H3' 1176  -3.373   5.120   2.985  0.1345 -1.0197  1.9895
   37C      C2' 1177  -3.193   5.019   2.938 -0.0351  0.8491  0.1011
   37C      H2' 1178  -3.144   5.100   2.992 -0.8238  1.8557 -0.6280
   37C      O2' 1179  -3.131   4.900   2.966 -0.6398 -0.0727  0.3830
   37C     HO2' 1180  -3.179   4.892   3.049 -2.6369  2.5636 -0.3373
   37C      O3' 1181  -3.369   4.937   3.084  0.8067 -0.2412 -0.4011
   38U        P 1182  -3.398   5.009   3.226 -0.4742  0.2482 -0.5179
   38U      OP1 1183  -3.460   4.903   3.309  0.1425  0.3153  0.0744
   38U      OP2 1184  -3.474   5.131   3.209 -0.2741  0.0954 -0.2456
   38U      O5' 1185  -3.251   5.041   3.280  0.2058  0.1538  0.9979
   38U      C5' 1186  -3.162   4.951   3.340 -0.2712 -0.1702  0.1716
   38U      H5' 1187  -3.156   4.870   3.266  0.1779  0.5726 -0.6227
   38U     H5'' 1188  -3.196   4.922   3.439 -3.6467 -0.4705 -0.9488
   38U      C4' 1189  -3.022   5.017   3.345 -0.0097  1.9164  0.6316
   38U      H4' 1190  -2.949   4.943   3.376 -0.4773  1.1048 -0.1365
   38U      O4' 1191  -2.990   5.079   3.214  0.6342  0.5353 -0.0034
   38U      C1' 1192  -2.906   5.195   3.237  0.7494  0.2705  0.1162
   38U      H1' 1193  -2.802   5.177   3.208  0.6981  3.8497 -3.0939
   38U       N1 1194  -2.940   5.318   3.172  0.7260 -0.9663  0.2376
   38U       C6 1195  -3.062   5.350   3.127 -0.3103 -1.0895 -0.3321
   38U       H6 1196  -3.146   5.287   3.155 -1.2193  0.8075  1.4437
   38U       C5 1197  -3.075   5.444   3.036 -0.6060 -0.5678  1.1044
   38U       H5 1198  -3.176   5.468   3.004 -0.2648 -0.4112  0.1165
   38U       C4 1199  -2.964   5.517   2.984 -0.5811  0.3309  0.0912
   38U       O4 1200  -2.976   5.614   2.912 -0.0346  0.2312  0.1996
   38U       N3 1201  -2.841   5.468   3.024  0.2076 -0.4122 -0.6141
   38U       H3 1202  -2.760   5.528   3.015 -0.4191  0.4502 -0.5953
   38U       C2 1203  -2.832   5.392   3.136 -0.0002  0.5896 -0.0246
   38U       O2 1204  -2.724   5.388   3.193  0.3810 -0.0219 -0.6928
   38U      C3' 1205  -3.023   5.140   3.434 -0.3888 -0.6342 -0.4030
   38U      H3' 1206  -3.113   5.200   3.423 -1.3601 -1.8001  0.8005
   38U      C2' 1207  -2.899   5.215   3.390  0.0700 -0.4467  0.1819
   38U      H2' 1208  -2.903   5.321   3.417  1.2796 -0.3411 -0.0059
   38U      O2' 1209  -2.776   5.158   3.432 -0.3980 -0.7273 -0.0103
   38U     HO2' 1210  -2.763   5.191   3.522 -2.3453  1.9688 -0.5988
   38U      O3' 1211  -3.020   5.107   3.572  0.3851  0.0643 -0.1484
   39U        P 1212  -3.055   5.211   3.685 -0.2631 -0.5879 -0.0268
   39U      OP1 1213  -3.129   5.147   3.798  0.2089 -0.1756  0.2905
   39U      OP2 1214  -3.111   5.329   3.626 -0.2348 -0.3966 -0.2473
   39U      O5' 1215  -2.910   5.249   3.731  0.0061 -0.4068  0.1541
   39U      C5' 1216  -2.808   5.166   3.779  0.9081  1.2595 -0.1648
   39U      H5' 1217  -2.810   5.077   3.717  0.7173  2.2365 -1.6106
   39U     H5'' 1218  -2.835   5.137   3.880 -0.0737  1.1372 -0.4556
   39U      C4' 1219  -2.675   5.248   3.778 -0.3659 -0.4578  0.0015
   39U      H4' 1220  -2.602   5.177   3.817 -2.8692 -2.1038  2.0088
   39U      O4' 1221  -2.638   5.295   3.645 -0.0142 -0.1204 -0.2540
   39U      C1' 1222  -2.574   5.415   3.646 -0.4214 -0.3356 -0.5763
   39U      H1' 1223  -2.478   5.392   3.600 -0.3957 -1.8648  0.1760
   39U       N1 1224  -2.643   5.519   3.578  0.9710  1.0279  0.0431
   39U       C6 1225  -2.776   5.520   3.589 -0.3191  0.5689 -0.1097
   39U       H6 1226  -2.833   5.457   3.656  0.0296 -1.2192 -1.4122
   39U       C5 1227  -2.854   5.574   3.491  0.1678  0.6946 -0.0262
   39U       H5 1228  -2.960   5.556   3.497  0.5341 -1.8088  0.1138
   39U       C4 1229  -2.795   5.648   3.388 -0.1571 -1.6355 -0.0530
   39U       O4 1230  -2.854   5.707   3.293 -0.1486 -0.6715  0.0106
   39U       N3 1231  -2.662   5.682   3.408 -0.0735 -0.1892 -0.1523
   39U       H3 1232  -2.614   5.749   3.349  0.9133 -1.4038 -0.7800
   39U       C2 1233  -2.583   5.608   3.495 -0.3144 -0.7469  0.1649
   39U       O2 1234  -2.460   5.631   3.510  0.2754 -0.2361 -0.2322
   39U      C3' 1235  -2.680   5.368   3.873  0.8252  0.0815 -0.5651
   39U      H3' 1236  -2.778   5.415   3.867  0.2536 -0.9195  0.3763
   39U      C2' 1237  -2.566   5.440   3.802 -0.0590  0.5056  0.4965
   39U      H2' 1238  -2.566   5.549   3.802 -2.1073  0.6438 -2.8279
   39U      O2' 1239  -2.445   5.380   3.831  0.2335  0.6195  0.3451
   39U     HO2' 1240  -2.445   5.315   3.902  1.1989 -1.6391 -1.5844
   39U      O3' 1241  -2.669   5.344   4.012 -1.0902  0.5306 -0.1395
   40A        P 1242  -2.713   5.437   4.122 -0.2394  0.3848 -0.1942
   40A      OP1 1243  -2.689   5.374   4.256  0.0788 -0.7765  1.0439
   40A      OP2 1244  -2.847   5.494   4.092 -0.1786  0.5741  0.1570
   40A      O5' 1245  -2.612   5.561   4.112 -0.2268 -0.5037 -0.1786
   40A      C5' 1246  -2.475   5.549   4.143  0.6084 -0.0626  0.1035
   40A      H5' 1247  -2.428   5.467   4.088  1.8073 -1.4957  3.0784
   40A     H5'' 1248  -2.459   5.531   4.249 -0.1271  1.7612  0.5668
   40A      C4' 1249  -2.390   5.673   4.098  0.1025  0.4089  0.4326
   40A      H4' 1250  -2.290   5.640   4.128  0.1444 -0.3923 -0.5627
   40A      O4' 1251  -2.401   5.689   3.962 -0.7290  0.3689  0.5326
   40A      C1' 1252  -2.413   5.830   3.930  0.0123  0.4388  0.3998
   40A      H1' 1253  -2.334   5.866   3.864 -1.9077  0.7239 -1.8759
   40A       N9 1254  -2.543   5.862   3.867  0.7992 -0.3182  0.4039
   40A       C8 1255  -2.662   5.801   3.885 -0.2427 -0.7415  0.0191
   40A       H8 1256  -2.679   5.713   3.945 -0.8626 -1.3126 -0.9542
   40A       N7 1257  -2.755   5.840   3.807 -0.0039 -0.6967  0.3908
   40A       C5 1258  -2.688   5.943   3.733  1.5518  0.5742  1.0442
   40A       C6 1259  -2.726   6.023   3.618  0.5557  0.6435 -0.5164
   40A       N6 1260  -2.838   6.024   3.554  0.6191  0.2513  0.7004
   40A      H61 1261  -2.904   5.957   3.590 -1.4796  1.9636  0.2735
   40A      H62 1262  -2.851   6.085   3.474  0.1152 -0.6540  0.0822
   40A       N1 1263  -2.639   6.103   3.564 -0.3782 -0.8848 -0.5297
   40A       C2 1264  -2.523   6.116   3.621 -0.7820 -0.1412  0.9608
   40A       H2 1265  -2.461   6.191   3.575 -1.9075  0.5353  0.4887
   40A       N3 1266  -2.470   6.046   3.718 -0.4883 -0.0943  0.5994
   40A       C4 1267  -2.561   5.960   3.767 -0.5013  0.1678 -0.5321
   40A      C3' 1268  -2.437   5.806   4.162 -0.1155  0.5976 -0.1863
   40A      H3' 1269  -2.545   5.806   4.177 -0.0106 -0.6209  0.7746
   40A      C2' 1270  -2.385   5.898   4.060  0.5285  0.4523 -0.0952
   40A      H2' 1271  -2.429   5.997   4.073  0.9255  0.5333  0.7286
   40A      O2' 1272  -2.246   5.923   4.083  0.2052 -0.0290 -0.0240
   40A     HO2' 1273  -2.215   5.887   4.167  1.6236 -1.3327 -1.0389
   40A      O3' 1274  -2.384   5.818   4.297 -0.4429  0.0073 -0.0616
   41C        P 1275  -2.482   5.891   4.400 -0.1737 -0.1934  0.7810
   41C      OP1 1276  -2.417   5.873   4.530  0.6556 -1.0232  0.8164
   41C      OP2 1277  -2.620   5.841   4.391  0.8581  0.5008 -0.1544
   41C      O5' 1278  -2.468   6.042   4.351 -0.9497  1.0356  0.1434
   41C      C5' 1279  -2.351   6.116   4.367  0.6754  0.4014 -0.7073
   41C      H5' 1280  -2.263   6.094   4.307 -0.2898  0.1152 -2.0570
   41C     H5'' 1281  -2.331   6.117   4.474  0.1889  1.8294 -0.6087
   41C      C4' 1282  -2.380   6.268   4.327  0.0827 -0.4166  0.1578
   41C      H4' 1283  -2.296   6.336   4.341  0.5761 -1.1825  1.1068
   41C      O4' 1284  -2.420   6.262   4.185 -0.1415  0.7551 -0.2515
   41C      C1' 1285  -2.510   6.358   4.148  0.4292 -0.3186 -0.5927
   41C      H1' 1286  -2.470   6.436   4.083 -1.0212  2.4944  1.6488
   41C       N1 1287  -2.628   6.294   4.090  0.3608  0.0301 -0.6644
   41C       C6 1288  -2.656   6.158   4.111 -0.6332  0.0546  0.0415
   41C       H6 1289  -2.606   6.108   4.193  1.0861  1.6544  0.0483
   41C       C5 1290  -2.749   6.100   4.035  0.1292  0.8293 -0.4045
   41C       H5 1291  -2.760   5.994   4.049  0.5826  0.9681  1.2684
   41C       C4 1292  -2.809   6.169   3.927  0.1856 -0.2532 -0.0327
   41C       N4 1293  -2.903   6.112   3.859  0.3603 -1.1076 -0.0898
   41C      H41 1294  -2.914   6.012   3.866  1.6772 -1.2857 -0.1707
   41C      H42 1295  -2.967   6.170   3.807 -0.7273 -0.8113  1.5337
   41C       N3 1296  -2.794   6.299   3.918 -0.4000 -0.5271 -0.4989
   41C       C2 1297  -2.701   6.361   3.993  0.6109 -0.1097 -0.5345
   41C       O2 1298  -2.689   6.482   3.972  0.0803  0.0463  0.3360
   41C      C3' 1299  -2.513   6.333   4.386  0.2565 -0.0459 -0.4289
   41C      H3' 1300  -2.588   6.254   4.390  1.6116 -1.3131  1.9772
   41C      C2' 1301  -2.551   6.436   4.273 -0.6793  1.0009 -0.1719
   41C      H2' 1302  -2.656   6.466   4.279 -0.3145  2.0021  1.7105
   41C      O2' 1303  -2.476   6.557   4.288 -0.1145  0.0829  0.0001
   41C     HO2' 1304  -2.525   6.639   4.301  0.4644  0.7082 -1.6029
   41C      O3' 1305  -2.489   6.385   4.508  0.2156  0.2460 -0.0563
   42A        P 1306  -2.592   6.385   4.633  0.0002  0.4355  0.2673
   42A      OP1 1307  -2.540   6.434   4.762  0.2197  0.5855  0.3306
   42A      OP2 1308  -2.652   6.254   4.628 -0.2368  0.1980  0.5520
   42A      O5' 1309  -2.706   6.478   4.580 -0.0981  0.0025  0.2155
   42A      C5' 1310  -2.693   6.618   4.584  0.9076 -0.0246 -0.4873
   42A      H5' 1311  -2.600   6.659   4.546 -0.1342  2.6596 -0.3141
   42A     H5'' 1312  -2.701   6.643   4.690 -0.7240 -6.6464  1.4103
   42A      C4' 1313  -2.802   6.699   4.516 -0.0557  0.1860  0.3986
   42A      H4' 1314  -2.781   6.805   4.528  0.7472  0.4389 -2.5142
   42A      O4' 1315  -2.786   6.664   4.376  0.3555  0.6737  0.0908
   42A      C1' 1316  -2.919   6.671   4.325 -0.7228 -0.2229 -0.3077
   42A      H1' 1317  -2.924   6.736   4.237  0.0909 -1.3817 -1.2594
   42A       N9 1318  -2.963   6.539   4.269 -0.8048 -0.2278 -0.1987
   42A       C8 1319  -2.917   6.419   4.307  0.0172  0.8391 -0.4753
   42A       H8 1320  -2.848   6.407   4.389 -0.1536 -1.3072 -0.5883
   42A       N7 1321  -2.986   6.316   4.259  0.1903 -0.7802 -0.2987
   42A       C5 1322  -3.067   6.381   4.163  0.1118  0.0165 -0.2036
   42A       C6 1323  -3.151   6.338   4.060 -0.7468 -0.0273 -0.9250
   42A       N6 1324  -3.184   6.216   4.050 -0.2266 -0.0547  0.6041
   42A      H61 1325  -3.129   6.144   4.094 -0.4745 -0.3826  0.3853
   42A      H62 1326  -3.253   6.201   3.978  2.5468  1.1799 -2.5963
   42A       N1 1327  -3.222   6.421   3.982 -0.3990  0.4496  0.1563
   42A       C2 1328  -3.206   6.553   4.011  0.1716  0.6091  0.3242
   42A       H2 1329  -3.265   6.622   3.953 -0.9805 -1.7696 -1.5044
   42A       N3 1330  -3.121   6.605   4.098  0.2434  0.0698 -0.0195
   42A       C4 1331  -3.049   6.514   4.167  0.3523 -0.1458 -0.1701
   42A      C3' 1332  -2.942   6.677   4.570 -0.4341  0.2330  0.4649
   42A      H3' 1333  -2.965   6.571   4.585  0.9793 -0.2128 -0.3173
   42A      C2' 1334  -3.007   6.723   4.438  0.3747  0.4794 -0.3538
   42A      H2' 1335  -3.106   6.675   4.434  0.4449 -0.1604  2.7133
   42A      O2' 1336  -3.022   6.859   4.412 -0.4521  0.3646  0.2208
   42A     HO2' 1337  -3.115   6.876   4.431 -1.7976 -4.6017 -0.2968
   42A      O3' 1338  -2.969   6.755   4.687  0.0061  0.3372  0.5424
   43C        P 1339  -3.112   6.780   4.753 -0.2068  0.0572  0.0161
   43C      OP1 1340  -3.106   6.903   4.837 -0.0865  0.4440 -0.2853
   43C      OP2 1341  -3.161   6.655   4.817 -0.5602  0.0240 -0.2654
   43C      O5' 1342  -3.200   6.807   4.620  0.0296  0.5845 -0.1980
   43C      C5' 1343  -3.269   6.929   4.604 -0.5851 -0.2232  0.5849
   43C      H5' 1344  -3.195   6.996   4.560  0.4061  0.9263  3.7573
   43C     H5'' 1345  -3.299   6.961   4.703  0.7515 -0.1936  1.0023
   43C      C4' 1346  -3.391   6.926   4.511  0.0940 -0.3889  0.6099
   43C      H4' 1347  -3.442   7.021   4.500 -0.5579 -0.9153 -1.3538
   43C      O4' 1348  -3.356   6.853   4.392 -0.1121  0.2199 -0.0257
   43C      C1' 1349  -3.466   6.787   4.323  0.0132 -0.4111  0.7437
   43C      H1' 1350  -3.489   6.826   4.223 -0.3097 -1.7516  0.2688
   43C       N1 1351  -3.436   6.648   4.325  0.4400  0.3115  0.6027
   43C       C6 1352  -3.358   6.585   4.418 -1.0328  0.0657 -0.3389
   43C       H6 1353  -3.310   6.632   4.503  1.3615  0.2563 -1.7009
   43C       C5 1354  -3.334   6.455   4.408  0.6553  0.0374 -0.8809
   43C       H5 1355  -3.268   6.410   4.481 -0.1683  3.4951  2.3230
   43C       C4 1356  -3.388   6.373   4.309  1.0711 -0.2855 -0.7520
   43C       N4 1357  -3.373   6.243   4.295 -0.4333  0.0285  1.0172
   43C      H41 1358  -3.317   6.194   4.364  0.1817  1.5470  1.6425
   43C      H42 1359  -3.388   6.205   4.203 -0.5223 -2.0013  1.8295
   43C       N3 1360  -3.474   6.425   4.228 -0.0510 -0.0183  0.2970
   43C       C2 1361  -3.495   6.562   4.234 -0.0137 -0.2752  0.0639
   43C       O2 1362  -3.583   6.606   4.164  1.0346 -0.7034 -0.2820
   43C      C3' 1363  -3.512   6.845   4.553  0.3027  0.8124  0.4164
   43C      H3' 1364  -3.474   6.756   4.603  0.4653  0.1539 -0.8357
   43C      C2' 1365  -3.584   6.817   4.418  0.0089  0.0698 -0.4853
   43C      H2' 1366  -3.657   6.737   4.423 -1.4652  1.2845 -1.5470
   43C      O2' 1367  -3.647   6.930   4.353 -0.2658  0.7206 -0.5611
   43C     HO2' 1368  -3.722   6.959   4.405 -0.9094  4.0472 -3.0254
   43C      O3' 1369  -3.613   6.894   4.644 -0.6597  0.1994  0.2655
   44C        P 1370  -3.693   6.807   4.757 -0.2061 -0.1146 -0.3828
   44C      OP1 1371  -3.748   6.900   4.870 -0.2671  0.0316  0.4886
   44C      OP2 1372  -3.611   6.686   4.798  0.5846 -0.4878 -0.2463
   44C      O5' 1373  -3.815   6.756   4.678  0.2388 -0.0422 -0.1745
   44C      C5' 1374  -3.915   6.839   4.634  0.3704 -0.2332 -0.0702
   44C      H5' 1375  -3.870   6.920   4.576 -2.3210 -0.6771 -3.0858
   44C     H5'' 1376  -3.966   6.891   4.715  1.2668  0.7225 -0.1024
   44C      C4' 1377  -4.018   6.773   4.543  0.1451  0.0154 -0.4344
   44C      H4' 1378  -4.085   6.854   4.513 -1.4463 -0.3791  1.7574
   44C      O4' 1379  -3.945   6.736   4.429  0.1970  0.6140  0.0380
   44C      C1' 1380  -4.019   6.616   4.383 -0.2904  0.2108  0.2009
   44C      H1' 1381  -4.037   6.623   4.275 -0.1226 -0.3211  0.1361
   44C       N1 1382  -3.924   6.494   4.390 -0.1100 -0.8742 -0.0478
   44C       C6 1383  -3.825   6.489   4.483  0.2042  0.1377  0.1021
   44C       H6 1384  -3.821   6.574   4.550  0.0359  0.9530 -0.8891
   44C       C5 1385  -3.742   6.381   4.480  0.7637 -0.3447  0.2316
   44C       H5 1386  -3.673   6.374   4.563  0.7449 -0.1556  0.2636
   44C       C4 1387  -3.766   6.276   4.391  0.5323 -0.0001 -0.1909
   44C       N4 1388  -3.680   6.172   4.394 -0.2210 -0.1644 -0.4082
   44C      H41 1389  -3.594   6.186   4.444  1.0374 -0.7019 -2.2780
   44C      H42 1390  -3.694   6.101   4.323 -0.1789 -1.7678  1.1122
   44C       N3 1391  -3.871   6.276   4.315  0.5582 -0.6608 -0.2972
   44C       C2 1392  -3.955   6.384   4.317  0.8195  0.1784 -1.2103
   44C       O2 1393  -4.059   6.378   4.255  0.2307  0.1701 -0.1417
   44C      C3' 1394  -4.094   6.649   4.605 -0.2636 -0.4381  0.7557
   44C      H3' 1395  -4.019   6.584   4.649 -0.1554  0.2887  1.6756
   44C      C2' 1396  -4.144   6.597   4.475 -0.0196 -0.1394  0.1090
   44C      H2' 1397  -4.171   6.492   4.488 -3.9017  0.8558  1.3969
   44C      O2' 1398  -4.257   6.669   4.428 -0.7668 -0.1221 -0.8501
   44C     HO2' 1399  -4.279   6.732   4.496  0.3671 -1.6233  1.0157
   44C      O3' 1400  -4.201   6.672   4.691 -0.5320 -0.0608 -0.0502
   45G        P 1401  -4.236   6.563   4.815  0.4669 -0.0848  0.1694
   45G      OP1 1402  -4.360   6.606   4.885  0.2670  0.0446 -0.1421
   45G      OP2 1403  -4.110   6.533   4.893  0.3512 -0.1205 -0.2852
   45G      O5' 1404  -4.285   6.443   4.724 -0.6815 -0.8225 -0.6298
   45G      C5' 1405  -4.395   6.452   4.634 -0.9419 -0.6313  0.4940
   45G      H5' 1406  -4.364   6.514   4.550 -2.2898 -2.6400 -1.6061
   45G     H5'' 1407  -4.479   6.497   4.687 -0.7474 -0.7088  0.8699
   45G      C4' 1408  -4.431   6.327   4.567  0.9705  1.0309  0.1756
   45G      H4' 1409  -4.530   6.358   4.536  0.1593  0.3438  1.9674
   45G      O4' 1410  -4.343   6.285   4.455  0.2741  0.3230  0.0741
   45G      C1' 1411  -4.340   6.150   4.448  0.5019 -0.0228  0.1628
   45G      H1' 1412  -4.354   6.108   4.348  1.4339  1.8143 -0.7864
   45G       N9 1413  -4.204   6.104   4.498  0.1799 -0.7218 -0.1859
   45G       C8 1414  -4.101   6.175   4.548 -0.6759  0.0001  0.0104
   45G       H8 1415  -4.108   6.282   4.560 -0.5647 -0.0072  0.1410
   45G       N7 1416  -3.997   6.105   4.556 -0.1066  0.1822 -0.0906
   45G       C5 1417  -4.038   5.968   4.526  0.6084 -0.2980 -0.7331
   45G       C6 1418  -3.965   5.847   4.522  0.1956  0.3171 -0.4498
   45G       O6 1419  -3.850   5.821   4.553 -0.1762 -0.5816 -0.1394
   45G       N1 1420  -4.043   5.750   4.477  0.7011 -0.1292  0.6330
   45G       H1 1421  -3.991   5.665   4.463  1.3319  0.5239 -1.3444
   45G       C2 1422  -4.172   5.761   4.440 -1.1634  1.0116  0.6561
   45G       N2 1423  -4.214   5.649   4.389  0.2262 -0.1033 -0.3403
   45G      H21 1424  -4.153   5.568   4.391 -1.4107 -1.4172 -1.2478
   45G      H22 1425  -4.309   5.653   4.355 -0.2872  3.0873  1.0822
   45G       N3 1426  -4.243   5.870   4.441 -0.4250  0.6169  0.2845
   45G       C4 1427  -4.164   5.974   4.472 -0.5844  0.2986 -0.2718
   45G      C3' 1428  -4.451   6.207   4.657  0.2785  0.9375 -0.0819
   45G      H3' 1429  -4.362   6.204   4.719  2.0879  0.1817 -2.5419
   45G      C2' 1430  -4.450   6.100   4.548 -0.5629 -0.1081 -0.4675
   45G      H2' 1431  -4.431   5.998   4.582 -3.2782 -0.6462 -0.3243
   45G      O2' 1432  -4.579   6.097   4.481  0.4403  0.2273  0.4690
   45G     HO2' 1433  -4.646   6.136   4.538 -2.0108 -2.6500 -0.1816
   45G      O3' 1434  -4.574   6.210   4.730  0.1182 -0.1361  0.7654
   46U        P 1435  -4.597   6.135   4.865  0.0715  0.2582 -0.1499
   46U      OP1 1436  -4.745   6.139   4.893 -1.1069 -0.3968  0.3659
   46U      OP2 1437  -4.508   6.209   4.961  0.5506 -0.5893 -0.0658
   46U      O5' 1438  -4.558   5.980   4.859 -0.6861 -0.4130  0.1803
   46U      C5' 1439  -4.634   5.892   4.784  0.5849 -0.2583  0.0341
   46U      H5' 1440  -4.657   5.924   4.683 -1.0996  1.3452  0.8661
   46U     H5'' 1441  -4.727   5.871   4.836  0.6093  1.4718  0.8370
   46U      C4' 1442  -4.568   5.751   4.761 -0.0523  0.2324 -0.3584
   46U      H4' 1443  -4.624   5.697   4.685  0.6482  1.1762 -1.5921
   46U      O4' 1444  -4.433   5.764   4.700  0.0548 -0.7862 -0.7181
   46U      C1' 1445  -4.346   5.653   4.744  0.0606 -0.2268  1.1174
   46U      H1' 1446  -4.337   5.596   4.652 -1.6867  1.6311 -0.3218
   46U       N1 1447  -4.213   5.697   4.784  1.1433  0.5512  0.1905
   46U       C6 1448  -4.198   5.827   4.821 -0.0133 -0.9227  0.2272
   46U       H6 1449  -4.280   5.896   4.837  1.2631  0.1244  3.0410
   46U       C5 1450  -4.074   5.878   4.838  0.4951 -0.6640 -0.9282
   46U       H5 1451  -4.068   5.985   4.849  2.3401 -0.8484  0.1381
   46U       C4 1452  -3.962   5.787   4.853  0.3021  1.1846  0.8140
   46U       O4 1453  -3.853   5.829   4.888 -0.5818  0.1265  0.5790
   46U       N3 1454  -3.985   5.652   4.827  0.6483 -0.0151  0.7607
   46U       H3 1455  -3.908   5.586   4.824  1.5430  1.0034  0.5368
   46U       C2 1456  -4.110   5.607   4.786  0.0003 -0.4142 -0.6907
   46U       O2 1457  -4.122   5.489   4.765 -0.4444  0.2074 -0.4866
   46U      C3' 1458  -4.544   5.658   4.879 -0.7499  0.4808 -0.7451
   46U      H3' 1459  -4.514   5.714   4.967 -1.5674  1.8275 -1.2907
   46U      C2' 1460  -4.417   5.575   4.852  0.1781  0.3955  0.3396
   46U      H2' 1461  -4.356   5.582   4.942 -2.1525 -0.5846  2.0889
   46U      O2' 1462  -4.456   5.446   4.808 -0.5220  0.0521 -0.1906
   46U     HO2' 1463  -4.538   5.421   4.851  0.2803  0.1756  1.5189
   46U      O3' 1464  -4.658   5.575   4.909 -0.1422 -0.4164  0.7654
   47G        P 1465  -4.739   5.586   5.039 -0.2103  0.5837  0.2330
   47G      OP1 1466  -4.870   5.520   5.008 -0.8267 -0.1163  0.1419
   47G      OP2 1467  -4.755   5.730   5.088  0.1618  0.3427 -0.1084
   47G      O5' 1468  -4.659   5.503   5.145  0.0237  0.2431 -0.3198
   47G      C5' 1469  -4.654   5.361   5.144  0.3972 -1.0739  0.2626
   47G      H5' 1470  -4.609   5.332   5.049  2.8413 -1.1554  1.3606
   47G     H5'' 1471  -4.757   5.326   5.141  0.6087 -1.6409 -1.2129
   47G      C4' 1472  -4.560   5.301   5.249  0.0861 -0.2182  0.1285
   47G      H4' 1473  -4.573   5.193   5.248 -0.9006 -0.1169  0.9196
   47G      O4' 1474  -4.427   5.348   5.233 -0.6869 -0.1959  0.1974
   47G      C1' 1475  -4.377   5.355   5.366 -0.1155  0.5103  0.0516
   47G      H1' 1476  -4.291   5.293   5.392  1.2620  1.7427 -1.3448
   47G       N9 1477  -4.348   5.495   5.391  0.0839  0.4378  0.2307
   47G       C8 1478  -4.396   5.602   5.311  0.2314 -0.3763 -0.5867
   47G       H8 1479  -4.455   5.594   5.221 -1.9793 -2.9862  0.9666
   47G       N7 1480  -4.356   5.717   5.364 -0.1882 -0.7150 -0.0491
   47G       C5 1481  -4.288   5.686   5.474  0.1600  0.4118 -0.1839
   47G       C6 1482  -4.213   5.762   5.568  0.7452  0.4432 -0.5247
   47G       O6 1483  -4.191   5.882   5.561  0.2235  0.6363  0.4097
   47G       N1 1484  -4.166   5.696   5.680 -0.2193 -0.0909 -0.0181
   47G       H1 1485  -4.131   5.759   5.750  1.4235 -0.0545 -0.8213
   47G       C2 1486  -4.189   5.561   5.694 -1.2522 -0.7814  0.4089
   47G       N2 1487  -4.136   5.513   5.801 -0.8557  0.7035 -0.2303
   47G      H21 1488  -4.086   5.563   5.872 -0.6628 -0.4618  0.4827
   47G      H22 1489  -4.138   5.412   5.799 -1.4566  0.6722  0.9242
   47G       N3 1490  -4.233   5.479   5.604  0.2658  0.1331 -0.2748
   47G       C4 1491  -4.280   5.550   5.496  0.1248  1.0322  0.6524
   47G      C3' 1492  -4.612   5.343   5.385  0.0030  0.8899 -0.0088
   47G      H3' 1493  -4.631   5.450   5.381 -1.1245  0.6949 -3.6927
   47G      C2' 1494  -4.488   5.314   5.465  0.1579  0.1287  0.3590
   47G      H2' 1495  -4.493   5.374   5.556  1.7974 -0.1881  0.7068
   47G      O2' 1496  -4.477   5.167   5.497  0.7107 -0.0544 -0.4384
   47G     HO2' 1497  -4.392   5.154   5.539  0.9631  1.2674 -0.5103
   47G      O3' 1498  -4.733   5.277   5.413 -0.6754 -0.4263 -0.6814
   48C        P 1499  -4.833   5.329   5.529 -0.3157 -0.2194 -0.0258
   48C      OP1 1500  -4.930   5.232   5.559  0.3380 -0.0825  0.4295
   48C      OP2 1501  -4.885   5.464   5.487  0.4049  0.3490  0.4371
   48C      O5' 1502  -4.749   5.356   5.659 -0.0723 -0.6292 -0.5954
   48C      C5' 1503  -4.727   5.255   5.753  0.4642 -0.0284  0.1782
   48C      H5' 1504  -4.658   5.180   5.715  2.0522  1.6882 -0.5302
   48C     H5'' 1505  -4.823   5.211   5.779 -0.1793  0.8384 -0.6339
   48C      C4' 1506  -4.657   5.305   5.876  0.3409  0.8014 -0.5773
   48C      H4' 1507  -4.624   5.225   5.943  1.8645  1.9308  0.0972
   48C      O4' 1508  -4.536   5.373   5.851  0.4536  0.0767 -0.2075
   48C      C1' 1509  -4.501   5.449   5.964 -0.2432  0.5044  0.5425
   48C      H1' 1510  -4.426   5.399   6.026  1.4831  0.1774 -1.6713
   48C       N1 1511  -4.466   5.581   5.917  0.6950  0.3669 -0.4315
   48C       C6 1512  -4.501   5.635   5.795  0.4683 -0.5686 -1.1155
   48C       H6 1513  -4.547   5.583   5.713  0.4083  2.5334 -3.1984
   48C       C5 1514  -4.500   5.768   5.778 -0.0666  0.3478  0.7905
   48C       H5 1515  -4.534   5.804   5.682  1.1812 -2.1997 -0.7069
   48C       C4 1516  -4.421   5.841   5.864  0.8193  0.4264  0.1309
   48C       N4 1517  -4.402   5.970   5.855  0.5963  0.1344  0.4835
   48C      H41 1518  -4.422   6.016   5.768 -1.2412 -1.0837  0.2119
   48C      H42 1519  -4.348   6.004   5.934  2.6259 -1.3948 -0.1548
   48C       N3 1520  -4.359   5.790   5.972  0.0136 -0.4774 -0.1446
   48C       C2 1521  -4.384   5.663   5.996  1.4404 -0.1225 -0.0747
   48C       O2 1522  -4.345   5.608   6.099  0.9632  0.0739  0.1351
   48C      C3' 1523  -4.739   5.404   5.956 -0.1951  0.4349  0.3794
   48C      H3' 1524  -4.773   5.484   5.890 -2.2685  0.4139  1.3577
   48C      C2' 1525  -4.636   5.466   6.052 -0.9448 -0.5051  1.3160
   48C      H2' 1526  -4.667   5.570   6.064  0.3916  0.3202 -1.4847
   48C      O2' 1527  -4.612   5.391   6.165  0.2527 -0.2633 -0.3040
   48C     HO2' 1528  -4.696   5.378   6.210  0.1911  2.3350  0.4579
   48C      O3' 1529  -4.848   5.358   6.032  0.0077 -0.0699  0.7209
   49G        P 1530  -4.951   5.457   6.099  0.4766  0.3894  0.1581
   49G      OP1 1531  -5.070   5.383   6.121 -0.1024  0.6386 -0.0899
   49G      OP2 1532  -4.964   5.589   6.037 -0.1146 -0.0151  0.4172
   49G      O5' 1533  -4.888   5.466   6.250  0.1467 -0.0636 -0.2715
   49G      C5' 1534  -4.893   5.356   6.337  0.0128  0.2703  0.4864
   49G      H5' 1535  -4.860   5.263   6.291 -1.9905 -1.1866  1.8556
   49G     H5'' 1536  -4.996   5.342   6.367 -0.1533  0.1421 -0.1332
   49G      C4' 1537  -4.814   5.389   6.478 -0.0785 -0.0928 -0.0284
   49G      H4' 1538  -4.815   5.304   6.547  1.8551 -0.6421 -0.6333
   49G      O4' 1539  -4.677   5.425   6.461 -0.0359 -0.4045  0.7426
   49G      C1' 1540  -4.639   5.513   6.557 -0.1264 -0.6109 -0.8115
   49G      H1' 1541  -4.560   5.482   6.625  0.1941  2.3975  0.3474
   49G       N9 1542  -4.616   5.647   6.488 -0.1537  0.2379  0.0777
   49G       C8 1543  -4.664   5.677   6.364 -0.9518 -0.5327  0.8830
   49G       H8 1544  -4.711   5.608   6.295 -1.0185  1.7758 -1.5337
   49G       N7 1545  -4.659   5.811   6.332  0.1953  0.1608 -0.1169
   49G       C5 1546  -4.591   5.857   6.446 -0.1784 -0.1084 -0.1799
   49G       C6 1547  -4.540   5.991   6.463 -0.2112 -0.7193  0.1453
   49G       O6 1548  -4.561   6.092   6.394  0.0331 -0.0614  0.7063
   49G       N1 1549  -4.469   6.001   6.581  0.5129  0.3235  0.3393
   49G       H1 1550  -4.445   6.096   6.607  2.1328 -0.3827  1.6468
   49G       C2 1551  -4.445   5.905   6.666 -0.1154 -0.5115  0.9996
   49G       N2 1552  -4.365   5.921   6.766  0.3575 -0.1579 -0.8211
   49G      H21 1553  -4.338   6.016   6.785 -1.5060  0.7343 -2.3207
   49G      H22 1554  -4.344   5.836   6.816  1.3399  1.0795  0.9547
   49G       N3 1555  -4.484   5.783   6.651  0.0934  0.2944  0.1777
   49G       C4 1556  -4.564   5.763   6.540  0.5706  0.7672 -0.3176
   49G      C3' 1557  -4.884   5.501   6.560 -0.1689  0.6766  0.8507
   49G      H3' 1558  -4.889   5.586   6.491  2.7720  0.1765 -0.1267
   49G      C2' 1559  -4.762   5.524   6.653 -0.3048 -0.2757  0.6137
   49G      H2' 1560  -4.778   5.620   6.701  1.5418  0.2606  0.2182
   49G      O2' 1561  -4.749   5.431   6.762  0.1386 -0.0761  0.1282
   49G     HO2' 1562  -4.686   5.480   6.815  0.3273 -0.0107 -0.1508
   49G      O3' 1563  -4.999   5.455   6.628 -0.0317 -0.0441  0.6568
   50G        P 1564  -5.097   5.559   6.689 -0.1588 -0.1019 -0.1609
   50G      OP1 1565  -5.198   5.473   6.749 -0.3033  0.6637 -0.2846
   50G      OP2 1566  -5.141   5.649   6.576  0.1980  0.4743 -0.4420
   50G      O5' 1567  -5.042   5.650   6.799  0.1747 -0.3373  0.8315
   50G      C5' 1568  -4.996   5.591   6.921  0.4240 -0.4172  1.1688
   50G      H5' 1569  -4.943   5.498   6.899 -0.5337 -0.1717 -2.8935
   50G     H5'' 1570  -5.082   5.566   6.984  1.4083 -2.4995  1.8086
   50G      C4' 1571  -4.917   5.670   7.020 -0.1510  0.4661  0.1556
   50G      H4' 1572  -4.907   5.594   7.097  0.3215 -0.5197 -0.8481
   50G      O4' 1573  -4.780   5.717   6.977  1.0543 -0.1067 -0.2509
   50G      C1' 1574  -4.771   5.853   7.009 -0.1239 -0.1186  0.2326
   50G      H1' 1575  -4.676   5.873   7.059  0.1278  2.4050 -1.1238
   50G       N9 1576  -4.756   5.939   6.893 -0.5849  0.2867 -0.1534
   50G       C8 1577  -4.794   5.914   6.766  0.0030  0.2190 -0.4991
   50G       H8 1578  -4.817   5.818   6.721  0.5295  0.3995 -1.1853
   50G       N7 1579  -4.779   6.016   6.686  0.1600 -0.1545 -1.1033
   50G       C5 1580  -4.742   6.120   6.781 -0.0286 -1.2109  0.5384
   50G       C6 1581  -4.716   6.257   6.752  0.0518  0.2697  0.1129
   50G       O6 1582  -4.735   6.312   6.639  0.4946 -0.7727 -0.4365
   50G       N1 1583  -4.677   6.327   6.862 -0.4926 -0.0237 -0.2619
   50G       H1 1584  -4.648   6.422   6.845  0.3374 -0.2392 -0.0761
   50G       C2 1585  -4.675   6.267   6.985  1.0204  0.0779  0.3534
   50G       N2 1586  -4.643   6.344   7.086  0.1260 -1.1077  1.0211
   50G      H21 1587  -4.613   6.440   7.071 -0.5078 -1.3267 -2.5827
   50G      H22 1588  -4.607   6.305   7.172  0.8032 -1.7247  0.4698
   50G       N3 1589  -4.692   6.140   7.010  0.1154  0.0242  0.5637
   50G       C4 1590  -4.718   6.067   6.900 -0.2722  0.4300 -0.2882
   50G      C3' 1591  -4.998   5.790   7.082  0.0468  0.6765 -0.4012
   50G      H3' 1592  -5.056   5.831   6.999  3.4280  2.9698 -1.8699
   50G      C2' 1593  -4.881   5.888   7.109 -1.6059 -0.8870 -0.4990
   50G      H2' 1594  -4.908   5.993   7.098  0.7686 -0.2246 -0.5214
   50G      O2' 1595  -4.837   5.861   7.246 -0.2563  0.8428  0.1791
   50G     HO2' 1596  -4.910   5.835   7.302  0.3907 -3.3145 -0.5944
   50G      O3' 1597  -5.071   5.759   7.200 -0.0820  0.4641  0.4666
   51C        P 1598  -5.213   5.824   7.234  0.1064  0.0693  0.1971
   51C      OP1 1599  -5.276   5.742   7.335  0.4542  0.2739 -0.7156
   51C      OP2 1600  -5.279   5.835   7.103 -0.4976 -1.0280  0.2807
   51C      O5' 1601  -5.184   5.974   7.274  0.4495 -0.5356  0.2827
   51C      C5' 1602  -5.126   6.019   7.388 -0.9408 -0.0788  0.2409
   51C      H5' 1603  -5.036   5.968   7.421 -0.0055  0.1752 -1.7500
   51C     H5'' 1604  -5.194   5.993   7.470  0.2402  0.5514  1.4526
   51C      C4' 1605  -5.095   6.168   7.391 -0.0461  0.0472 -0.2124
   51C      H4' 1606  -5.051   6.182   7.490  0.5056 -1.7632 -0.1758
   51C      O4' 1607  -4.988   6.195   7.299  0.4247  0.3938  0.0299
   51C      C1' 1608  -4.997   6.326   7.244  0.6261 -0.1563 -0.0957
   51C      H1' 1609  -4.904   6.383   7.244  0.0935  0.9529  3.2499
   51C       N1 1610  -5.042   6.323   7.096 -0.3313 -0.2143  0.9416
   51C       C6 1611  -5.106   6.223   7.030 -0.2084 -0.7416  0.0479
   51C       H6 1612  -5.124   6.129   7.079  2.8625 -2.4596 -1.8099
   51C       C5 1613  -5.123   6.235   6.898  0.2515 -0.0022 -0.3745
   51C       H5 1614  -5.164   6.148   6.849 -1.6958  0.2748  0.6627
   51C       C4 1615  -5.095   6.358   6.835 -0.5587  0.1159  0.8291
   51C       N4 1616  -5.126   6.389   6.712  0.1147  0.8305  0.0239
   51C      H41 1617  -5.181   6.325   6.656 -1.4455  1.4979  0.7446
   51C      H42 1618  -5.101   6.480   6.675  0.1100  0.4997 -0.8343
   51C       N3 1619  -5.046   6.466   6.893 -0.1202  0.2451 -0.2355
   51C       C2 1620  -5.019   6.451   7.032  0.7182 -0.0869 -0.2224
   51C       O2 1621  -4.985   6.559   7.087  0.1083 -0.5055 -0.1695
   51C      C3' 1622  -5.199   6.278   7.374 -0.0391 -0.3103  0.3301
   51C      H3' 1623  -5.258   6.256   7.285  1.3160 -1.0957 -0.3964
   51C      C2' 1624  -5.106   6.396   7.328 -0.4936  0.6729 -0.2280
   51C      H2' 1625  -5.166   6.467   7.270  0.6861  2.0033  0.1187
   51C      O2' 1626  -5.047   6.454   7.444  0.0750  0.1786  0.2227
   51C     HO2' 1627  -5.123   6.469   7.500  0.4556  0.4947  0.6520
   51C      O3' 1628  -5.273   6.317   7.488  0.4309  0.8515  0.6231
   52A        P 1629  -5.427   6.347   7.483 -0.0404 -0.0527 -0.4392
   52A      OP1 1630  -5.458   6.401   7.618 -0.0315 -0.8429  0.4476
   52A      OP2 1631  -5.515   6.242   7.426 -1.0345  0.3592  0.7132
   52A      O5' 1632  -5.428   6.468   7.388 -0.4779  0.4504  0.2320
   52A      C5' 1633  -5.373   6.599   7.420 -0.0596 -0.5141  0.7130
   52A      H5' 1634  -5.266   6.589   7.440  0.3929  1.7510 -0.3017
   52A     H5'' 1635  -5.420   6.634   7.512 -0.1984  1.9797 -0.2369
   52A      C4' 1636  -5.404   6.710   7.324 -1.0750 -0.0244 -0.2151
   52A      H4' 1637  -5.389   6.804   7.377 -2.1336  2.1479 -3.5126
   52A      O4' 1638  -5.313   6.700   7.214 -0.0353  0.3385  0.1002
   52A      C1' 1639  -5.378   6.718   7.092  0.4451  0.4986  0.1274
   52A      H1' 1640  -5.330   6.792   7.028  0.4331  0.5800  0.2134
   52A       N9 1641  -5.387   6.596   7.015  0.5523 -0.0423 -0.5521
   52A       C8 1642  -5.361   6.464   7.046 -0.3760 -1.1087  0.2607
   52A       H8 1643  -5.350   6.434   7.149 -0.3093 -0.8756  0.3223
   52A       N7 1644  -5.391   6.385   6.945  0.3029  1.4620  0.2698
   52A       C5 1645  -5.426   6.465   6.840 -0.2739 -0.0066  0.2073
   52A       C6 1646  -5.460   6.448   6.706  0.0872  0.0615 -0.5915
   52A       N6 1647  -5.474   6.336   6.633  0.4656  0.0133  0.3294
   52A      H61 1648  -5.479   6.250   6.686 -0.1088  0.0317  0.3036
   52A      H62 1649  -5.507   6.339   6.538  2.4746 -1.2268 -0.4687
   52A       N1 1650  -5.489   6.549   6.631  0.1861 -0.9387 -0.1336
   52A       C2 1651  -5.469   6.669   6.676 -0.6427 -0.1715  0.6853
   52A       H2 1652  -5.498   6.753   6.614  4.0109  0.8402 -0.5236
   52A       N3 1653  -5.441   6.708   6.799 -0.4208  0.3663  0.0151
   52A       C4 1654  -5.421   6.596   6.882  0.0551 -0.0592 -0.3288
   52A      C3' 1655  -5.541   6.700   7.271  1.4402  0.4599  0.0651
   52A      H3' 1656  -5.551   6.595   7.242  1.3056  0.6631 -0.6485
   52A      C2' 1657  -5.518   6.770   7.130 -0.0108  1.2719 -0.5282
   52A      H2' 1658  -5.588   6.730   7.057  0.9563 -0.1011 -0.7543
   52A      O2' 1659  -5.513   6.909   7.123  0.4103  0.5120 -0.6762
   52A     HO2' 1660  -5.560   6.940   7.201 -1.9344 -3.2288 -0.3472
   52A      O3' 1661  -5.651   6.746   7.346 -0.0727  0.1330  0.5758
   53C        P 1662  -5.800   6.708   7.306 -0.2634 -0.1030  0.1849
   53C      OP1 1663  -5.886   6.761   7.413 -0.0707  0.4029  0.5981
   53C      OP2 1664  -5.811   6.563   7.286 -0.1162  0.0264 -0.2987
   53C      O5' 1665  -5.837   6.778   7.170 -0.5336 -0.1613  0.0251
   53C      C5' 1666  -5.858   6.923   7.167 -0.4572  0.4352 -0.3901
   53C      H5' 1667  -5.763   6.975   7.177 -0.4025  0.7244 -2.1985
   53C     H5'' 1668  -5.904   6.951   7.262 -1.2738 -2.8936  0.3336
   53C      C4' 1669  -5.945   6.974   7.046 -0.5137  0.2170 -0.7174
   53C      H4' 1670  -5.987   7.072   7.069 -2.7807 -0.9439  0.5026
   53C      O4' 1671  -5.879   6.990   6.923 -0.2014  0.1445  0.2230
   53C      C1' 1672  -5.961   6.938   6.819 -0.3079 -0.0910 -0.0669
   53C      H1' 1673  -5.966   7.016   6.743  2.2606  0.1463 -0.0597
   53C       N1 1674  -5.903   6.814   6.764  0.2587 -0.2308 -0.4684
   53C       C6 1675  -5.817   6.738   6.830 -0.1417  0.0336  0.1102
   53C       H6 1676  -5.782   6.760   6.930 -0.2721 -3.2779  0.9910
   53C       C5 1677  -5.791   6.614   6.783 -0.4451  0.6223 -0.3469
   53C       H5 1678  -5.725   6.554   6.843 -1.0929  0.3880  0.1389
   53C       C4 1679  -5.841   6.580   6.662 -0.5951  1.0465  0.0274
   53C       N4 1680  -5.814   6.466   6.615  0.0601 -0.3624  0.3660
   53C      H41 1681  -5.741   6.409   6.656 -0.3657 -0.4347  1.0362
   53C      H42 1682  -5.849   6.451   6.521 -1.5467  0.6144  0.7733
   53C       N3 1683  -5.928   6.640   6.597  0.6187 -0.0079  0.1291
   53C       C2 1684  -5.963   6.762   6.644  0.0460 -0.0832 -0.3753
   53C       O2 1685  -6.043   6.827   6.576 -0.0262 -0.7143 -0.3659
   53C      C3' 1686  -6.069   6.888   7.024 -0.0564  0.1926  0.5482
   53C      H3' 1687  -6.041   6.783   7.029 -3.8089 -0.9606  0.3005
   53C      C2' 1688  -6.095   6.929   6.880 -0.2293 -0.9735  0.1928
   53C      H2' 1689  -6.154   6.858   6.822 -0.4828  0.9559 -2.0666
   53C      O2' 1690  -6.155   7.055   6.873 -0.9669 -0.0888  0.0728
   53C     HO2' 1691  -6.202   7.073   6.955 -1.4489 -0.9231 -0.0092
   53C      O3' 1692  -6.172   6.907   7.109 -0.2543  0.5775 -0.1664
   54A        P 1693  -6.286   6.792   7.113  0.7368 -0.4630 -0.1008
   54A      OP1 1694  -6.384   6.838   7.219 -0.8744 -0.4500  0.6467
   54A      OP2 1695  -6.226   6.654   7.121  0.2970 -0.3527  0.1285
   54A      O5' 1696  -6.346   6.797   6.970 -0.0908  0.7854 -0.5891
   54A      C5' 1697  -6.449   6.889   6.929  0.0042 -0.1538  1.0055
   54A      H5' 1698  -6.404   6.989   6.933 -0.4917  0.1552 -0.5752
   54A     H5'' 1699  -6.537   6.874   6.991 -1.2421 -0.1054 -0.6812
   54A      C4' 1700  -6.487   6.860   6.779 -0.0441 -0.1154 -0.2793
   54A      H4' 1701  -6.538   6.945   6.735  2.5890  1.1034 -1.2408
   54A      O4' 1702  -6.376   6.832   6.690  0.0416 -0.4022  1.1868
   54A      C1' 1703  -6.410   6.736   6.592  0.1517 -0.0285  0.4483
   54A      H1' 1704  -6.386   6.773   6.493  1.4631  0.9555  1.1087
   54A       N9 1705  -6.338   6.614   6.609  0.1950  0.2307 -1.1642
   54A       C8 1706  -6.256   6.572   6.715 -0.2669  0.3241 -0.4073
   54A       H8 1707  -6.216   6.630   6.797  0.7618 -1.1276  0.1552
   54A       N7 1708  -6.205   6.460   6.699 -1.0567 -0.0319 -0.2256
   54A       C5 1709  -6.260   6.410   6.586 -0.0167 -0.1736  0.2894
   54A       C6 1710  -6.250   6.293   6.516  0.2400 -0.5332  0.3024
   54A       N6 1711  -6.167   6.191   6.540 -0.7269  0.0802 -0.3894
   54A      H61 1712  -6.106   6.206   6.619 -2.2163  0.4885  0.7223
   54A      H62 1713  -6.166   6.118   6.471  2.5933  1.3002 -1.8235
   54A       N1 1714  -6.316   6.277   6.403 -0.0549  1.0452 -0.3096
   54A       C2 1715  -6.393   6.369   6.360 -0.0054 -0.1453  0.1783
   54A       H2 1716  -6.446   6.355   6.267  0.2749 -1.7942  0.2476
   54A       N3 1717  -6.412   6.494   6.413 -0.0311 -0.2246  0.0011
   54A       C4 1718  -6.342   6.505   6.527 -0.9034  0.0385 -0.5343
   54A      C3' 1719  -6.566   6.732   6.765 -0.2612  0.0028 -1.1545
   54A      H3' 1720  -6.518   6.658   6.828 -1.9362 -1.0186 -1.0135
   54A      C2' 1721  -6.557   6.717   6.615  0.0995  0.1694  0.4926
   54A      H2' 1722  -6.596   6.622   6.578 -0.6786  0.1219  1.4027
   54A      O2' 1723  -6.633   6.812   6.551 -0.2595  0.5479  0.0226
   54A     HO2' 1724  -6.713   6.822   6.604 -0.6657 -1.9637  0.0471
   54A      O3' 1725  -6.699   6.753   6.797  0.3581 -0.3892 -0.2994
   55G        P 1726  -6.783   6.641   6.866  0.1060  0.6297 -0.5287
   55G      OP1 1727  -6.893   6.712   6.937 -0.5050  0.5499 -0.0391
   55G      OP2 1728  -6.691   6.569   6.952 -0.6700  0.0953  0.3358
   55G      O5' 1729  -6.838   6.547   6.735 -0.2042  0.2005  0.4891
   55G      C5' 1730  -6.945   6.595   6.652  0.6336  0.0675  1.2021
   55G      H5' 1731  -6.920   6.694   6.615  1.9533 -0.1215  1.5451
   55G     H5'' 1732  -7.043   6.613   6.696 -0.3143  1.0936 -1.1342
   55G      C4' 1733  -6.956   6.500   6.530 -0.0191 -0.1580 -0.3140
   55G      H4' 1734  -7.033   6.539   6.464  1.8824 -1.2332 -3.3468
   55G      O4' 1735  -6.830   6.509   6.457 -0.0357  0.6911  0.2836
   55G      C1' 1736  -6.826   6.375   6.405  0.1327  0.9322  0.4776
   55G      H1' 1737  -6.813   6.387   6.297  0.9330  0.2969  0.4982
   55G       N9 1738  -6.712   6.295   6.457 -0.0257  1.1108  0.5452
   55G       C8 1739  -6.660   6.304   6.582 -0.6653  0.4220 -0.5672
   55G       H8 1740  -6.681   6.388   6.646 -1.8868  0.6019 -1.1801
   55G       N7 1741  -6.571   6.204   6.615  0.7088 -0.2932 -0.4566
   55G       C5 1742  -6.576   6.116   6.500 -0.4358 -0.7858  0.7089
   55G       C6 1743  -6.518   5.991   6.465  0.4585  0.5019 -0.9145
   55G       O6 1744  -6.429   5.932   6.524 -0.0181  0.3236 -0.1332
   55G       N1 1745  -6.556   5.945   6.339 -0.1365  0.6951 -0.2083
   55G       H1 1746  -6.515   5.856   6.316  2.5017  1.5841  0.7334
   55G       C2 1747  -6.641   6.008   6.255 -0.3625  0.2031 -0.2635
   55G       N2 1748  -6.670   5.938   6.150  0.6201 -0.1558  0.5057
   55G      H21 1749  -6.623   5.852   6.126  0.5462 -0.2943  0.8541
   55G      H22 1750  -6.733   5.989   6.089  0.3642 -2.6676 -1.5089
   55G       N3 1751  -6.707   6.120   6.286 -0.2138  0.2560  0.1853
   55G       C4 1752  -6.661   6.175   6.407  0.7791 -0.2951 -0.0733
   55G      C3' 1753  -6.994   6.357   6.563 -0.7036 -0.0378 -0.0903
   55G      H3' 1754  -6.924   6.313   6.635  0.5592  3.3292  0.9226
   55G      C2' 1755  -6.955   6.297   6.433 -0.2722 -0.1151 -0.5555
   55G      H2' 1756  -6.949   6.191   6.455 -0.4098  0.1461  0.8530
   55G      O2' 1757  -7.043   6.326   6.326  0.4629 -0.2211 -0.0332
   55G     HO2' 1758  -7.046   6.252   6.264 -0.5366 -2.2291  2.2496
   55G      O3' 1759  -7.125   6.335   6.608 -1.0649 -1.1533  0.5231
   56G        P 1760  -7.181   6.199   6.679 -0.8202  0.3454  0.0046
   56G      OP1 1761  -7.328   6.215   6.682  0.1873  0.4197 -0.5252
   56G      OP2 1762  -7.107   6.160   6.802 -0.5511  0.4392 -0.5330
   56G      O5' 1763  -7.147   6.087   6.571 -0.2331  0.5113  0.9441
   56G      C5' 1764  -7.223   6.060   6.453  0.1680 -0.1929 -0.1599
   56G      H5' 1765  -7.227   6.143   6.382  1.8168 -0.7646 -0.9760
   56G     H5'' 1766  -7.321   6.044   6.496  0.8451 -1.1346  1.1056
   56G      C4' 1767  -7.170   5.931   6.375  0.6718 -0.5342 -0.0600
   56G      H4' 1768  -7.233   5.918   6.287 -2.5600  4.5363  1.0876
   56G      O4' 1769  -7.033   5.948   6.344 -0.4301 -0.5776  0.5582
   56G      C1' 1770  -6.978   5.822   6.344 -0.4360  0.6928  0.3842
   56G      H1' 1771  -6.915   5.808   6.256 -2.4856  1.1331 -1.2242
   56G       N9 1772  -6.892   5.816   6.473  0.2726  0.2654 -0.2196
   56G       C8 1773  -6.881   5.904   6.574 -1.2929  0.1196 -0.5449
   56G       H8 1774  -6.931   6.000   6.574 -1.5598  0.1528  3.4500
   56G       N7 1775  -6.805   5.864   6.673 -0.4097  0.7707 -0.0918
   56G       C5 1776  -6.747   5.747   6.627 -0.0935  0.9439  0.5105
   56G       C6 1777  -6.643   5.658   6.676  0.0474  0.3838  0.1820
   56G       O6 1778  -6.573   5.684   6.775 -0.0032 -0.1168  0.4355
   56G       N1 1779  -6.632   5.534   6.612 -0.0913  0.1968  0.0204
   56G       H1 1780  -6.572   5.460   6.646 -0.4819 -0.6115 -0.9940
   56G       C2 1781  -6.704   5.512   6.493  0.2221  0.0187 -0.6350
   56G       N2 1782  -6.697   5.394   6.449 -0.4808  0.5146 -0.6852
   56G      H21 1783  -6.630   5.330   6.488 -0.3301  0.3513 -1.2099
   56G      H22 1784  -6.740   5.389   6.358 -0.9681  1.6384 -0.5410
   56G       N3 1785  -6.791   5.593   6.436  0.6423 -0.2405  0.1159
   56G       C4 1786  -6.807   5.711   6.507 -0.0149 -0.9008 -0.0504
   56G      C3' 1787  -7.169   5.796   6.460 -1.0930 -0.7293  0.1939
   56G      H3' 1788  -7.122   5.808   6.557 -0.1825  0.5086 -0.3716
   56G      C2' 1789  -7.085   5.720   6.360  0.2552 -0.0389 -0.3129
   56G      H2' 1790  -7.044   5.630   6.404  1.5155  0.4469 -0.4615
   56G      O2' 1791  -7.148   5.697   6.232 -0.2881 -0.6004 -0.4378
   56G     HO2' 1792  -7.134   5.602   6.224  0.0166 -0.7656  1.4992
   56G      O3' 1793  -7.299   5.740   6.468  0.0711  0.1211  0.2092
   57C        P 1794  -7.345   5.657   6.593 -0.2797  0.1776  0.0605
   57C      OP1 1795  -7.489   5.624   6.566 -0.1226 -0.4213  0.2693
   57C      OP2 1796  -7.310   5.730   6.713  0.2713 -0.1320 -0.4554
   57C      O5' 1797  -7.265   5.529   6.607 -0.3384 -0.1001 -0.0424
   57C      C5' 1798  -7.262   5.430   6.507 -0.3915  0.7507  0.4042
   57C      H5' 1799  -7.244   5.482   6.413  0.4738  1.1659  0.7811
   57C     H5'' 1800  -7.362   5.387   6.499  0.0946 -0.3640  0.2385
   57C      C4' 1801  -7.176   5.300   6.514  0.4037 -0.5742 -0.3111
   57C      H4' 1802  -7.205   5.227   6.439  1.9524 -1.6044  0.0425
   57C      O4' 1803  -7.036   5.342   6.510  0.5029 -0.2601  0.2299
   57C      C1' 1804  -6.959   5.262   6.602  0.9582  0.0212  0.8234
   57C      H1' 1805  -6.891   5.197   6.547 -0.1271 -1.9677  1.7147
   57C       N1 1806  -6.892   5.349   6.703 -0.2851  0.1910  0.8094
   57C       C6 1807  -6.931   5.476   6.736 -0.2668 -0.2820 -0.3082
   57C       H6 1808  -7.010   5.521   6.677  0.9655  0.2949 -1.6123
   57C       C5 1809  -6.876   5.545   6.837 -0.2565  0.4118  0.0402
   57C       H5 1810  -6.899   5.645   6.870 -0.6225  0.4309 -0.2696
   57C       C4 1811  -6.778   5.481   6.913  0.3966 -0.3109  0.1684
   57C       N4 1812  -6.724   5.539   7.021  0.8679  0.0850  0.4791
   57C      H41 1813  -6.766   5.628   7.043 -2.1424 -1.3298  0.9885
   57C      H42 1814  -6.657   5.492   7.080 -0.5996 -0.5457  1.7210
   57C       N3 1815  -6.730   5.361   6.871 -0.4634 -0.5764  0.2301
   57C       C2 1816  -6.781   5.294   6.767  0.3244  0.5046 -0.3133
   57C       O2 1817  -6.735   5.183   6.732 -0.5726  0.2448 -0.0964
   57C      C3' 1818  -7.197   5.238   6.653 -0.1592 -0.7117 -0.3160
   57C      H3' 1819  -7.210   5.312   6.731 -2.4790 -2.5856  1.2165
   57C      C2' 1820  -7.060   5.170   6.667  0.2884 -0.0659  0.3689
   57C      H2' 1821  -7.043   5.142   6.771 -0.0825  1.3769  0.8464
   57C      O2' 1822  -7.073   5.059   6.583  0.6532  0.6218  0.3582
   57C     HO2' 1823  -7.167   5.038   6.586  0.2886  1.9577 -0.6009
   57C      O3' 1824  -7.297   5.141   6.666  0.0771 -0.1044  0.1749
   58A        P 1825  -7.457   5.166   6.689 -0.1817 -0.4752 -0.3640
   58A      OP1 1826  -7.511   5.204   6.560 -0.5795  0.2757 -0.7372
   58A      OP2 1827  -7.461   5.272   6.793 -0.1627 -0.3261  0.2683
   58A      O5' 1828  -7.532   5.036   6.744 -0.3775  0.3512 -0.3283
   58A      C5' 1829  -7.679   5.031   6.752  1.2964 -0.4327  0.1186
   58A      H5' 1830  -7.728   5.082   6.670  0.2074 -1.9271 -0.2044
   58A     H5'' 1831  -7.718   5.087   6.837 -0.1234 -0.5179 -0.4577
   58A      C4' 1832  -7.733   4.891   6.751  0.3520 -0.2750 -0.2618
   58A      H4' 1833  -7.840   4.894   6.771  0.2241  2.2256 -0.9632
   58A      O4' 1834  -7.709   4.836   6.623  0.2508 -0.2972  0.0922
   58A      C1' 1835  -7.605   4.741   6.627 -0.1133  0.8326 -0.9455
   58A      H1' 1836  -7.645   4.646   6.591 -1.1857  0.4755  1.0268
   58A       N9 1837  -7.504   4.780   6.534  0.4119  0.1388 -0.6733
   58A       C8 1838  -7.487   4.895   6.466 -0.3383  1.0070 -0.1228
   58A       H8 1839  -7.563   4.971   6.455 -0.8117  0.7177  0.9577
   58A       N7 1840  -7.366   4.903   6.412  0.0739  0.6032 -0.5465
   58A       C5 1841  -7.299   4.781   6.437  0.8195  0.1798  0.6449
   58A       C6 1842  -7.176   4.718   6.399 -0.0883  0.2841  1.3104
   58A       N6 1843  -7.083   4.774   6.319 -0.0793 -0.1163 -0.2561
   58A      H61 1844  -7.095   4.869   6.285 -0.6238 -1.1167 -3.1570
   58A      H62 1845  -6.999   4.726   6.290 -0.7244 -1.2109 -0.3418
   58A       N1 1846  -7.150   4.597   6.450  0.1187  0.2687  0.3800
   58A       C2 1847  -7.243   4.537   6.528 -0.0243 -1.3679 -0.5947
   58A       H2 1848  -7.217   4.445   6.580 -0.8657 -0.3392  1.7893
   58A       N3 1849  -7.366   4.580   6.559 -0.0367 -0.1304 -0.4175
   58A       C4 1850  -7.390   4.701   6.510  0.1021 -0.0137 -0.2983
   58A      C3' 1851  -7.668   4.798   6.860  0.0355  0.2651  0.4606
   58A      H3' 1852  -7.614   4.863   6.929 -1.0750 -0.8828  2.5391
   58A      C2' 1853  -7.564   4.716   6.774  0.2590  0.3645 -0.8465
   58A      H2' 1854  -7.462   4.749   6.795 -1.2169  4.8364  0.4239
   58A      O2' 1855  -7.580   4.574   6.799  0.1508  0.3077  0.2257
   58A     HO2' 1856  -7.665   4.562   6.840  0.0126 -2.7318 -0.6933
   58A      O3' 1857  -7.759   4.715   6.928  0.3784  0.2461  0.8326
   59C        P 1858  -7.787   4.740   7.082 -0.0589 -0.2555 -0.0532
   59C      OP1 1859  -7.916   4.667   7.100 -0.1939 -0.1394 -0.6395
   59C      OP2 1860  -7.775   4.887   7.118  0.1390  0.7184 -0.0851
   59C      O5' 1861  -7.682   4.652   7.158  0.4971  0.0545  0.3060
   59C      C5' 1862  -7.677   4.508   7.168  0.8851  0.5082  0.4771
   59C      H5' 1863  -7.699   4.469   7.069 -1.1673 -1.4310  1.6057
   59C     H5'' 1864  -7.756   4.467   7.231  0.7406 -2.0348 -1.1879
   59C      C4' 1865  -7.542   4.446   7.218  0.7224  0.7535  0.5106
   59C      H4' 1866  -7.544   4.337   7.214  1.5362  0.7056 -4.0421
   59C      O4' 1867  -7.439   4.474   7.122  0.1695  0.2857  0.2057
   59C      C1' 1868  -7.322   4.520   7.192 -0.3813 -0.8056  0.0824
   59C      H1' 1869  -7.250   4.438   7.200 -0.6604 -1.3330 -2.2993
   59C       N1 1870  -7.263   4.623   7.100  0.4175 -0.8271 -0.2198
   59C       C6 1871  -7.351   4.719   7.055  0.2802  0.3729  0.5057
   59C       H6 1872  -7.456   4.701   7.075  0.7073 -2.0740  0.8370
   59C       C5 1873  -7.302   4.830   6.994 -0.6417 -0.7405  0.4544
   59C       H5 1874  -7.369   4.907   6.959 -0.7008 -0.9268  0.1628
   59C       C4 1875  -7.156   4.842   6.986  0.3649  0.5867  1.3139
   59C       N4 1876  -7.097   4.932   6.919  0.0668 -0.4384  0.2783
   59C      H41 1877  -7.149   4.985   6.851  0.7546  0.4952  0.4592
   59C      H42 1878  -6.997   4.921   6.910  0.1981 -1.3990  2.3788
   59C       N3 1879  -7.071   4.752   7.033  0.9109 -0.2553  0.0769
   59C       C2 1880  -7.124   4.650   7.097  0.2030 -0.0839 -0.0624
   59C       O2 1881  -7.042   4.571   7.146  0.6936 -0.3104  0.9221
   59C      C3' 1882  -7.506   4.501   7.353 -0.0292  0.7511  0.0081
   59C      H3' 1883  -7.579   4.574   7.389 -0.0789  0.8861 -0.3678
   59C      C2' 1884  -7.383   4.583   7.315  1.0223 -0.1608 -0.4150
   59C      H2' 1885  -7.418   4.681   7.285  0.3070 -0.6802 -1.3023
   59C      O2' 1886  -7.289   4.591   7.417 -0.3238  0.7418  0.4142
   59C     HO2' 1887  -7.232   4.668   7.408 -0.5289  0.7954 -0.5505
   59C      O3' 1888  -7.490   4.399   7.447  0.3937  0.2906 -0.2404
   60U        P 1889  -7.623   4.341   7.517  0.0540 -0.1588 -0.2594
   60U      OP1 1890  -7.730   4.446   7.522  0.3070  0.0527  0.1811
   60U      OP2 1891  -7.585   4.276   7.646  0.2726  0.2058  0.1400
   60U      O5' 1892  -7.674   4.245   7.406  0.2420  0.4849 -0.3996
   60U      C5' 1893  -7.627   4.117   7.382  0.5173  0.4590  0.7369
   60U      H5' 1894  -7.640   4.057   7.472  5.2982  1.0473  2.0767
   60U     H5'' 1895  -7.522   4.119   7.354  1.1305 -0.3423  2.8012
   60U      C4' 1896  -7.704   4.066   7.262 -0.1839  0.1304 -0.3339
   60U      H4' 1897  -7.675   3.968   7.223  1.1934  0.9393 -1.4151
   60U      O4' 1898  -7.847   4.051   7.292 -0.5111  0.2145 -0.5556
   60U      C1' 1899  -7.901   4.032   7.170  0.8150 -0.6386  0.0452
   60U      H1' 1900  -7.926   3.927   7.157  1.1140 -0.5684 -1.2576
   60U       N1 1901  -8.033   4.108   7.148 -0.8568  0.1173 -0.2054
   60U       C6 1902  -8.059   4.236   7.206 -0.3119  0.4504  0.0113
   60U       H6 1903  -7.979   4.299   7.241  0.6551 -1.2314  0.9809
   60U       C5 1904  -8.191   4.268   7.222  0.2972  0.2266  0.5953
   60U       H5 1905  -8.218   4.363   7.267 -1.3120 -0.1001  0.3928
   60U       C4 1906  -8.298   4.187   7.164  0.4132  0.0636  0.0897
   60U       O4 1907  -8.420   4.218   7.166  0.4223 -0.5054 -0.1769
   60U       N3 1908  -8.260   4.073   7.109 -0.2867 -0.1364 -0.2430
   60U       H3 1909  -8.335   4.017   7.072  0.9425 -0.9052 -1.6693
   60U       C2 1910  -8.136   4.030   7.094 -0.4298  0.4720 -0.3710
   60U       O2 1911  -8.123   3.915   7.047  0.1876  0.3684  0.5516
   60U      C3' 1912  -7.698   4.143   7.136  0.2061  0.0507  0.4315
   60U      H3' 1913  -7.734   4.245   7.145 -1.3555 -0.3243 -1.0349
   60U      C2' 1914  -7.794   4.064   7.058  0.5813  0.1789 -1.0308
   60U      H2' 1915  -7.826   4.112   6.966  0.1678  0.5225 -0.7120
   60U      O2' 1916  -7.749   3.939   7.010 -0.2216 -0.3382  0.3007
   60U     HO2' 1917  -7.692   3.961   6.936 -0.1366  0.0432  0.4795
   60U      O3' 1918  -7.576   4.146   7.079 -0.2980 -0.0092 -0.5911
   61A        P 1919  -7.560   4.208   6.936 -0.1161  0.5398  0.0409
   61A      OP1 1920  -7.416   4.252   6.916 -0.7951  0.1038  0.0419
   61A      OP2 1921  -7.671   4.304   6.900 -0.9738  0.2742 -0.2019
   61A      O5' 1922  -7.574   4.081   6.842  0.2222  0.7509  0.2939
   61A      C5' 1923  -7.470   3.984   6.837 -0.4597 -0.2883 -0.0477
   61A      H5' 1924  -7.455   3.935   6.934 -4.6754 -1.2803  0.2984
   61A     H5'' 1925  -7.378   4.036   6.813 -0.7052 -0.2460 -0.9301
   61A      C4' 1926  -7.502   3.873   6.727  0.0330  0.4736 -0.7927
   61A      H4' 1927  -7.448   3.786   6.763 -1.5531  0.0712  0.7899
   61A      O4' 1928  -7.638   3.853   6.733  0.1406 -0.1550 -0.1764
   61A      C1' 1929  -7.713   3.890   6.618  0.2955 -0.0640 -0.1368
   61A      H1' 1930  -7.740   3.801   6.560 -1.2933  0.1992  0.1478
   61A       N9 1931  -7.835   3.969   6.671 -0.2920  0.2580  0.3300
   61A       C8 1932  -7.854   4.103   6.713 -0.3085  0.8018  0.5530
   61A       H8 1933  -7.779   4.174   6.744 -0.7027  0.9747  1.1285
   61A       N7 1934  -7.978   4.122   6.750  0.7068 -0.7383  0.1631
   61A       C5 1935  -8.046   4.001   6.719  0.1380 -0.5222 -0.1350
   61A       C6 1936  -8.179   3.953   6.743  0.4666  0.1596 -0.0943
   61A       N6 1937  -8.283   4.027   6.778 -0.3903 -0.6658 -0.5277
   61A      H61 1938  -8.270   4.122   6.809 -0.0908 -1.5497  2.2628
   61A      H62 1939  -8.374   3.984   6.792  0.3063 -2.2320 -0.6712
   61A       N1 1940  -8.223   3.830   6.705 -0.5197 -0.6719 -0.4333
   61A       C2 1941  -8.128   3.760   6.639  0.8641 -0.1976 -0.1789
   61A       H2 1942  -8.176   3.672   6.599 -3.5781  1.6723  0.4225
   61A       N3 1943  -8.000   3.795   6.614 -0.0920 -0.2113  0.1503
   61A       C4 1944  -7.960   3.914   6.664 -0.2199 -0.5192  0.3945
   61A      C3' 1945  -7.484   3.934   6.585 -0.0659 -0.4164 -0.1680
   61A      H3' 1946  -7.406   4.010   6.585 -1.3442  1.0000  1.5739
   61A      C2' 1947  -7.617   3.978   6.535 -0.3933  0.0935  0.0689
   61A      H2' 1948  -7.645   4.080   6.564 -0.5691 -0.2865  1.2954
   61A      O2' 1949  -7.637   3.965   6.400  1.1037  0.3918  0.3540
   61A     HO2' 1950  -7.579   4.034   6.366 -0.8880  2.2964  0.6082
   61A      O3' 1951  -7.445   3.820   6.506 -0.7663 -0.6399  0.1540
   62G        P 1952  -7.297   3.802   6.458  0.4821  0.3607  0.4229
   62G      OP1 1953  -7.291   3.673   6.387 -0.3144  0.3792  0.4085
   62G      OP2 1954  -7.222   3.834   6.574 -0.0159 -0.4134  0.4135
   62G      O5' 1955  -7.293   3.918   6.351  0.2137 -0.4379  0.4241
   62G      C5' 1956  -7.330   3.904   6.217  0.2634 -0.6171  0.2669
   62G      H5' 1957  -7.404   3.826   6.200 -1.6472  1.6429 -2.8456
   62G     H5'' 1958  -7.241   3.856   6.178  1.6299  1.5853  0.4721
   62G      C4' 1959  -7.372   4.030   6.146 -0.1012  1.0762  0.4387
   62G      H4' 1960  -7.341   4.005   6.044 -2.1069 -0.5940  0.1676
   62G      O4' 1961  -7.508   4.064   6.162 -0.4574 -0.0696  0.2353
   62G      C1' 1962  -7.531   4.193   6.114 -0.1253  0.6969 -0.3268
   62G      H1' 1963  -7.575   4.192   6.015  2.1399  0.3055 -1.3799
   62G       N9 1964  -7.620   4.267   6.204  0.5365 -0.1141 -0.3483
   62G       C8 1965  -7.748   4.320   6.175  0.4567  0.0042 -0.1404
   62G       H8 1966  -7.798   4.311   6.080 -2.3539  0.3436  1.1759
   62G       N7 1967  -7.806   4.374   6.294 -0.3205  0.1302 -0.1556
   62G       C5 1968  -7.705   4.358   6.387  0.9794 -0.2504  0.5675
   62G       C6 1969  -7.721   4.384   6.527  0.6532  0.4413 -0.5825
   62G       O6 1970  -7.813   4.428   6.596  0.0437  0.1297 -0.2104
   62G       N1 1971  -7.605   4.358   6.592  0.2692  0.0181  0.6540
   62G       H1 1972  -7.604   4.358   6.693  2.1965 -3.8467  0.8527
   62G       C2 1973  -7.501   4.296   6.539 -0.0507 -0.2728 -0.4670
   62G       N2 1974  -7.401   4.264   6.612 -0.4436  0.4655 -0.4889
   62G      H21 1975  -7.386   4.293   6.708  0.6315 -2.4305  0.3351
   62G      H22 1976  -7.323   4.215   6.571  2.8860  2.2305  3.0185
   62G       N3 1977  -7.492   4.250   6.417  0.0971 -0.0115 -0.0412
   62G       C4 1978  -7.602   4.283   6.342  0.2433 -1.0353 -0.8948
   62G      C3' 1979  -7.290   4.152   6.170  0.7215 -0.5745  0.4029
   62G      H3' 1980  -7.284   4.172   6.277 -1.4344  2.8771  0.0206
   62G      C2' 1981  -7.391   4.257   6.115  0.6187 -0.0282 -1.0149
   62G      H2' 1982  -7.391   4.345   6.180 -2.0406 -0.4165 -0.3393
   62G      O2' 1983  -7.371   4.299   5.984 -0.1368  0.7232  0.5494
   62G     HO2' 1984  -7.308   4.243   5.938  0.9509  3.2130 -1.2548
   62G      O3' 1985  -7.157   4.147   6.108 -0.5012  0.4043 -0.4386
   63U        P 1986  -7.042   4.251   6.135 -0.0945 -0.1708  0.2073
   63U      OP1 1987  -6.916   4.195   6.091  0.2015  0.2720 -0.3055
   63U      OP2 1988  -7.044   4.290   6.276  0.1502 -0.2607 -0.3778
   63U      O5' 1989  -7.078   4.380   6.059  0.2380  0.2328 -0.9443
   63U      C5' 1990  -7.051   4.386   5.922  0.0145  0.1233 -0.4835
   63U      H5' 1991  -7.115   4.313   5.872  0.7207 -2.0433  1.5822
   63U     H5'' 1992  -6.951   4.352   5.895 -1.1593 -1.8648 -2.6950
   63U      C4' 1993  -7.081   4.532   5.874 -0.4829  0.1515 -0.0267
   63U      H4' 1994  -7.040   4.546   5.774  1.0398 -2.9297  0.0376
   63U      O4' 1995  -7.223   4.552   5.862 -0.0201 -0.7612 -0.2800
   63U      C1' 1996  -7.259   4.683   5.900 -0.1091 -0.4457  0.4516
   63U      H1' 1997  -7.310   4.731   5.816 -1.4517  0.4679  1.7372
   63U       N1 1998  -7.345   4.705   6.017  0.3065 -0.3617 -0.0882
   63U       C6 1999  -7.345   4.621   6.125  0.1042 -0.1384 -0.8167
   63U       H6 2000  -7.269   4.550   6.156 -1.1703 -1.6233 -0.9402
   63U       C5 2001  -7.457   4.612   6.205 -0.4235 -0.3326 -0.2503
   63U       H5 2002  -7.461   4.545   6.290  0.2886 -0.7302 -0.5238
   63U       C4 2003  -7.579   4.694   6.181 -0.5608  0.4288 -0.1974
   63U       O4 2004  -7.683   4.685   6.247 -0.1395 -0.2154 -0.3722
   63U       N3 2005  -7.568   4.778   6.075  0.5496  0.1173  0.3152
   63U       H3 2006  -7.646   4.838   6.054 -0.0757 -0.5868  0.5714
   63U       C2 2007  -7.454   4.793   6.000 -0.5448 -0.0639  0.6574
   63U       O2 2008  -7.446   4.891   5.921 -0.5862  0.4100  0.6700
   63U      C3' 2009  -7.033   4.648   5.960 -0.4298 -0.3152  0.0325
   63U      H3' 2010  -7.064   4.619   6.060 -1.5752  1.1788  0.1471
   63U      C2' 2011  -7.130   4.761   5.923  1.0659 -0.6225 -0.4736
   63U      H2' 2012  -7.133   4.829   6.008 -3.6828  0.6607 -1.3988
   63U      O2' 2013  -7.086   4.835   5.808 -0.0767  0.2597  0.0742
   63U     HO2' 2014  -7.084   4.929   5.824 -0.3897  0.2039  0.4246
   63U      O3' 2015  -6.896   4.680   5.948 -0.4243  0.5905 -0.5632
   64A        P 2016  -6.805   4.655   6.077 -0.5096 -0.1290 -0.2556
   64A      OP1 2017  -6.706   4.549   6.052  0.1755  0.4876  0.9399
   64A      OP2 2018  -6.875   4.637   6.203  1.4109  0.3254 -0.1491
   64A      O5' 2019  -6.706   4.786   6.101 -0.2254  0.5094 -0.6729
   64A      C5' 2020  -6.616   4.831   6.001  0.2953  0.1038 -0.5613
   64A      H5' 2021  -6.665   4.819   5.904 -0.1681 -0.3354 -0.2779
   64A     H5'' 2022  -6.526   4.771   5.988  0.5916  0.2277  0.7627
   64A      C4' 2023  -6.558   4.976   6.030 -0.5889  0.4390  0.2171
   64A      H4' 2024  -6.484   4.999   5.954  1.5854  1.2829  2.4820
   64A      O4' 2025  -6.660   5.065   6.024 -0.0288 -0.6094 -0.2803
   64A      C1' 2026  -6.678   5.127   6.155  0.4530 -0.3012  0.0674
   64A      H1' 2027  -6.631   5.226   6.159 -1.3702  0.6089 -0.0101
   64A       N9 2028  -6.821   5.139   6.190 -0.0630 -0.0506  0.6975
   64A       C8 2029  -6.913   5.038   6.215 -0.9330 -0.6996 -0.6266
   64A       H8 2030  -6.876   4.937   6.209  1.1451  0.1061 -4.4532
   64A       N7 2031  -7.038   5.064   6.224 -0.0495  0.8136  0.1460
   64A       C5 2032  -7.037   5.203   6.203 -0.3272  0.4951 -0.6699
   64A       C6 2033  -7.125   5.309   6.180  0.2370 -0.2382  0.2972
   64A       N6 2034  -7.256   5.297   6.188 -0.2895  0.0947 -0.1946
   64A      H61 2035  -7.296   5.206   6.202 -2.1010  0.9212  0.2270
   64A      H62 2036  -7.303   5.385   6.174  0.5350  0.8892  1.6373
   64A       N1 2037  -7.090   5.434   6.171 -0.2275  0.3134 -0.1142
   64A       C2 2038  -6.960   5.457   6.170  0.0760  0.3239  0.1948
   64A       H2 2039  -6.941   5.564   6.167 -1.2737  0.7523  3.0286
   64A       N3 2040  -6.858   5.368   6.175  0.0910  0.7310  0.2035
   64A       C4 2041  -6.902   5.248   6.198  0.3847 -0.0549  0.5016
   64A      C3' 2042  -6.491   4.988   6.171  0.1288  0.5457  0.3836
   64A      H3' 2043  -6.457   4.894   6.214  1.6282  0.3316 -1.1817
   64A      C2' 2044  -6.608   5.040   6.255  0.2007  0.4102 -0.3269
   64A      H2' 2045  -6.675   4.962   6.291 -1.5514  2.2659  0.6402
   64A      O2' 2046  -6.567   5.133   6.362  1.0714  0.7392  0.2808
   64A     HO2' 2047  -6.474   5.152   6.348  1.1479  1.0112  1.1182
   64A      O3' 2048  -6.385   5.071   6.180  0.3158 -0.4182 -0.1968
   65C        P 2049  -6.247   5.047   6.114 -0.0591 -0.7650 -0.2527
   65C      OP1 2050  -6.201   4.906   6.107  0.0630  0.3263 -0.7152
   65C      OP2 2051  -6.164   5.132   6.206  1.5398  0.7806 -0.1541
   65C      O5' 2052  -6.243   5.101   5.958  0.0348 -0.0372 -0.3062
   65C      C5' 2053  -6.222   5.229   5.921  0.0912 -0.1856  0.6690
   65C      H5' 2054  -6.166   5.241   5.827 -0.8598 -0.6872  0.0229
   65C     H5'' 2055  -6.161   5.278   5.997 -0.3185 -0.8168  1.4167
   65C      C4' 2056  -6.351   5.303   5.893 -0.5560  1.2332 -0.8911
   65C      H4' 2057  -6.390   5.244   5.810 -0.9927  1.0525 -0.5559
   65C      O4' 2058  -6.466   5.313   5.982  0.3345  1.1675 -0.5529
   65C      C1' 2059  -6.496   5.444   6.000 -0.2475  0.3320 -0.0329
   65C      H1' 2060  -6.604   5.453   6.008 -0.3307  1.5737 -1.9195
   65C       N1 2061  -6.432   5.506   6.119  0.9662 -0.1610  0.3764
   65C       C6 2062  -6.335   5.446   6.191 -0.5487 -0.0897  0.1966
   65C       H6 2063  -6.303   5.352   6.150 -0.0129  0.5560 -0.9009
   65C       C5 2064  -6.282   5.498   6.300  0.0978  0.7135  0.1954
   65C       H5 2065  -6.198   5.446   6.345 -1.4760 -2.3776 -0.2075
   65C       C4 2066  -6.347   5.609   6.353  0.3157 -0.4742 -0.0089
   65C       N4 2067  -6.312   5.661   6.470 -0.5504 -0.6110  0.4116
   65C      H41 2068  -6.257   5.605   6.533  0.9369  1.0992  0.7217
   65C      H42 2069  -6.346   5.755   6.486 -0.0829 -0.5777  1.2224
   65C       N3 2070  -6.443   5.671   6.284 -0.0632 -0.3187 -0.2739
   65C       C2 2071  -6.479   5.628   6.164 -0.1792 -0.8936 -0.6859
   65C       O2 2072  -6.558   5.691   6.095  0.3405 -0.7694 -0.0829
   65C      C3' 2073  -6.324   5.441   5.843  0.0311 -0.2653 -0.1899
   65C      H3' 2074  -6.253   5.488   5.911 -0.2189  0.0616 -0.1474
   65C      C2' 2075  -6.454   5.519   5.876 -0.0319 -0.4702 -1.0679
   65C      H2' 2076  -6.431   5.623   5.896 -0.6747 -0.2267 -1.5567
   65C      O2' 2077  -6.537   5.519   5.765 -0.3042  0.5446 -0.0398
   65C     HO2' 2078  -6.480   5.473   5.702 -0.0054  2.2962 -1.1085
   65C      O3' 2079  -6.281   5.452   5.708  0.2247  0.0595 -0.3278
   66U        P 2080  -6.150   5.544   5.666  0.3539  0.0444  0.3269
   66U      OP1 2081  -6.126   5.521   5.520  0.0867 -0.1132 -0.6513
   66U      OP2 2082  -6.055   5.506   5.769 -0.6799 -0.1327  0.0497
   66U      O5' 2083  -6.213   5.684   5.707 -0.4270 -0.1697 -0.3919
   66U      C5' 2084  -6.303   5.756   5.617  0.2305  0.1340 -0.3727
   66U      H5' 2085  -6.395   5.698   5.612  0.0906  0.4497 -2.7083
   66U     H5'' 2086  -6.247   5.746   5.524  1.0141 -0.1047  0.1143
   66U      C4' 2087  -6.343   5.895   5.655  0.4819  0.0183 -0.0162
   66U      H4' 2088  -6.408   5.934   5.577  1.3950  1.8735  0.1186
   66U      O4' 2089  -6.412   5.890   5.777  0.1054 -0.3620 -0.0102
   66U      C1' 2090  -6.385   6.002   5.858  0.6717  0.4707  0.1583
   66U      H1' 2091  -6.484   6.042   5.878  1.0330  1.5994 -0.2261
   66U       N1 2092  -6.305   5.984   5.982 -0.1971  0.3165 -0.5674
   66U       C6 2093  -6.240   5.868   6.024  0.5200 -0.5551 -0.2033
   66U       H6 2094  -6.236   5.788   5.952 -0.7284 -0.8749  0.0712
   66U       C5 2095  -6.175   5.866   6.141 -0.2511 -0.4639 -0.0840
   66U       H5 2096  -6.119   5.778   6.170 -2.3456 -1.7804  0.1821
   66U       C4 2097  -6.163   5.986   6.229  0.0977 -0.1575  0.4777
   66U       O4 2098  -6.098   6.003   6.334  0.1903 -0.7405 -0.7335
   66U       N3 2099  -6.246   6.095   6.184 -0.6828  0.2498 -0.3977
   66U       H3 2100  -6.275   6.166   6.250 -5.5217 -1.2848 -0.4559
   66U       C2 2101  -6.319   6.095   6.071 -1.0948 -0.2029 -0.1326
   66U       O2 2102  -6.394   6.192   6.056 -0.2427  0.2148  0.0615
   66U      C3' 2103  -6.220   5.987   5.676  0.1660 -1.4608 -0.7343
   66U      H3' 2104  -6.133   5.937   5.718  1.6127  0.8195 -0.8803
   66U      C2' 2105  -6.296   6.093   5.764  0.7332 -0.9790  0.3538
   66U      H2' 2106  -6.227   6.154   5.822  0.1948  3.2341 -3.0314
   66U      O2' 2107  -6.396   6.182   5.706  0.1582 -0.9642 -0.5591
   66U     HO2' 2108  -6.353   6.264   5.680  1.3087 -1.6692 -0.9701
   66U      O3' 2109  -6.185   6.047   5.553  0.1470  0.6155  0.1584
   67G        P 2110  -6.057   6.132   5.542 -0.4138  0.3136  0.3385
   67G      OP1 2111  -6.035   6.157   5.403 -0.1011  0.7868 -0.6843
   67G      OP2 2112  -5.953   6.067   5.627  0.4501  0.1399  0.4327
   67G      O5' 2113  -6.089   6.267   5.601  0.1413  0.5228 -0.4671
   67G      C5' 2114  -6.181   6.353   5.537 -0.3527 -0.5015  0.5923
   67G      H5' 2115  -6.272   6.299   5.509 -0.0111 -2.4227  2.8740
   67G     H5'' 2116  -6.131   6.394   5.449 -0.7340  1.0755  1.0919
   67G      C4' 2117  -6.212   6.471   5.633 -0.1762  0.3046 -0.7572
   67G      H4' 2118  -6.280   6.542   5.587 -2.0444  0.5050  2.0506
   67G      O4' 2119  -6.274   6.427   5.753  0.7057  0.0511 -0.6701
   67G      C1' 2120  -6.228   6.514   5.863 -0.0465  0.6824 -0.5227
   67G      H1' 2121  -6.321   6.546   5.910  1.1570  2.6473  0.6604
   67G       N9 2122  -6.143   6.453   5.965 -0.0074  0.7816 -0.0952
   67G       C8 2123  -6.073   6.331   5.957  0.7448  0.6842 -0.6682
   67G       H8 2124  -6.063   6.275   5.865  1.8332  0.9207 -0.7045
   67G       N7 2125  -5.998   6.312   6.066 -0.4401 -0.3950 -0.1080
   67G       C5 2126  -6.033   6.411   6.156  0.1868  0.4489 -0.1776
   67G       C6 2127  -5.998   6.432   6.294  0.1127 -0.3631 -0.1684
   67G       O6 2128  -5.928   6.362   6.370 -0.5835 -0.5794  0.2165
   67G       N1 2129  -6.041   6.555   6.345  0.3074 -0.3893 -0.1260
   67G       H1 2130  -6.016   6.577   6.440  2.8397  2.1958 -1.2242
   67G       C2 2131  -6.124   6.642   6.271 -0.0442  0.5970 -0.5657
   67G       N2 2132  -6.143   6.756   6.328 -0.3073 -0.2267  0.9084
   67G      H21 2133  -6.087   6.802   6.399 -0.1955 -1.3115  1.5453
   67G      H22 2134  -6.220   6.810   6.292 -0.6499 -0.0632  1.8560
   67G       N3 2135  -6.154   6.625   6.143  0.0490 -0.6445  0.2410
   67G       C4 2136  -6.115   6.506   6.095 -0.1614 -0.8104  0.0619
   67G      C3' 2137  -6.088   6.563   5.660 -0.0440  0.3782 -0.4884
   67G      H3' 2138  -6.006   6.493   5.676 -1.5575 -1.2649  0.5521
   67G      C2' 2139  -6.147   6.623   5.794 -0.3369 -0.0482 -0.1913
   67G      H2' 2140  -6.070   6.667   5.857 -2.0394 -0.7534  2.4998
   67G      O2' 2141  -6.234   6.735   5.773 -0.8552 -0.3036 -0.1725
   67G     HO2' 2142  -6.225   6.753   5.679 -0.7557  0.6492  0.0071
   67G      O3' 2143  -6.072   6.667   5.570  0.1191 -0.0734  0.4838
   68A        P 2144  -5.933   6.730   5.548  0.0692  0.3599 -0.2868
   68A      OP1 2145  -5.946   6.829   5.437 -0.3884 -0.3618  0.2919
   68A      OP2 2146  -5.836   6.623   5.544 -0.0631  0.5964  0.7139
   68A      O5' 2147  -5.919   6.817   5.689 -0.0093  0.4939  0.6462
   68A      C5' 2148  -5.992   6.937   5.706  0.0413 -0.3200  0.9521
   68A      H5' 2149  -6.095   6.913   5.679 -0.2637 -0.1207  1.8913
   68A     H5'' 2150  -5.958   7.014   5.637 -2.7615  1.1997  1.1012
   68A      C4' 2151  -5.991   7.003   5.841  0.4263 -0.0370 -1.3928
   68A      H4' 2152  -6.057   7.090   5.839  1.2289  0.5751 -2.6118
   68A      O4' 2153  -6.037   6.919   5.951  0.6623  0.2080  0.2877
   68A      C1' 2154  -5.970   6.954   6.084  0.2825  1.5066 -0.1129
   68A      H1' 2155  -6.040   6.981   6.163 -1.0202  0.6089 -0.9137
   68A       N9 2156  -5.890   6.835   6.126  0.0270 -0.0491  0.6185
   68A       C8 2157  -5.868   6.709   6.060  0.6942  0.1780 -0.7967
   68A       H8 2158  -5.907   6.678   5.964 -3.4242  1.6338  0.1816
   68A       N7 2159  -5.785   6.633   6.131  0.2588  0.1661 -0.2673
   68A       C5 2160  -5.763   6.705   6.249  0.1740 -0.0280  0.3420
   68A       C6 2161  -5.690   6.680   6.366 -0.7259  0.5550 -0.3212
   68A       N6 2162  -5.616   6.582   6.391 -0.9375 -0.4737  0.1550
   68A      H61 2163  -5.593   6.509   6.325 -0.3001 -0.0705 -0.0838
   68A      H62 2164  -5.559   6.590   6.474 -0.0826 -1.1101 -0.3551
   68A       N1 2165  -5.687   6.770   6.465  0.2787  0.5119  0.1438
   68A       C2 2166  -5.748   6.886   6.448  0.9582  0.0393 -0.0900
   68A       H2 2167  -5.737   6.955   6.531  2.4923  2.5697 -2.2452
   68A       N3 2168  -5.832   6.914   6.342 -0.1856  0.0914 -0.5014
   68A       C4 2169  -5.835   6.821   6.246 -0.2817 -0.0392 -0.9109
   68A      C3' 2170  -5.856   7.048   5.900  0.5757 -0.4598 -0.2313
   68A      H3' 2171  -5.777   6.973   5.897  0.4505 -0.6879  1.5238
   68A      C2' 2172  -5.892   7.080   6.046 -0.8882  0.0461 -0.1670
   68A      H2' 2173  -5.811   7.102   6.116 -1.5234 -1.2788  1.0312
   68A      O2' 2174  -5.976   7.199   6.050 -0.5131  0.9122 -0.4174
   68A     HO2' 2175  -5.970   7.237   5.962 -1.6865  1.9532 -0.0650
   68A      O3' 2176  -5.816   7.171   5.842 -0.4632  0.1464  0.2278
   69U        P 2177  -5.668   7.180   5.791  0.1119 -0.2742 -0.1438
   69U      OP1 2178  -5.655   7.296   5.699 -0.1569  0.2803 -0.1089
   69U      OP2 2179  -5.601   7.049   5.757  0.0660  0.1261 -0.3664
   69U      O5' 2180  -5.596   7.223   5.926  0.5351  0.6227  0.0650
   69U      C5' 2181  -5.632   7.335   6.010  0.5061 -0.3121  0.2110
   69U      H5' 2182  -5.737   7.359   6.031  1.3646  2.3574  1.9685
   69U     H5'' 2183  -5.600   7.432   5.972 -2.0765  1.0951  1.3557
   69U      C4' 2184  -5.568   7.317   6.151 -0.2071 -0.4567 -0.0709
   69U      H4' 2185  -5.594   7.400   6.217  2.3642 -0.2974  0.8180
   69U      O4' 2186  -5.625   7.194   6.212 -0.1087  0.3383  0.4354
   69U      C1' 2187  -5.524   7.132   6.291 -0.1291 -0.1920  0.3931
   69U      H1' 2188  -5.545   7.125   6.398  0.2113  1.3221  0.5830
   69U       N1 2189  -5.510   6.990   6.249 -0.4280 -1.1664  0.0173
   69U       C6 2190  -5.548   6.950   6.126  0.5258  0.4548  0.7337
   69U       H6 2191  -5.597   7.021   6.062 -2.2216 -0.8798  1.2492
   69U       C5 2192  -5.493   6.837   6.069 -0.3876  0.0495 -0.6742
   69U       H5 2193  -5.502   6.811   5.965  4.5358 -0.3469 -1.2333
   69U       C4 2194  -5.421   6.746   6.151  0.0741  0.2522  0.3059
   69U       O4 2195  -5.375   6.634   6.114  0.0985  0.9126 -0.0457
   69U       N3 2196  -5.402   6.789   6.281 -0.0299 -0.0038 -0.5848
   69U       H3 2197  -5.351   6.728   6.343 -3.1207 -0.8557  1.3561
   69U       C2 2198  -5.432   6.913   6.331  0.2312 -0.4921 -0.8094
   69U       O2 2199  -5.401   6.935   6.449 -0.0746  0.3298 -0.3769
   69U      C3' 2200  -5.421   7.299   6.150  0.2500 -0.0603 -0.1435
   69U      H3' 2201  -5.385   7.225   6.077  4.6007 -1.3595  2.8819
   69U      C2' 2202  -5.398   7.216   6.277  0.8173 -0.2888 -0.2956
   69U      H2' 2203  -5.304   7.160   6.277  1.6969  1.0126  2.7485
   69U      O2' 2204  -5.405   7.294   6.395 -1.0265 -0.2639 -0.0715
   69U     HO2' 2205  -5.339   7.363   6.390  0.2983 -1.3461  1.4116
   69U      O3' 2206  -5.345   7.421   6.142  0.1713  0.2045  0.4173
   70G        P 2207  -5.191   7.417   6.122  0.1308 -0.3763  0.4668
   70G      OP1 2208  -5.140   7.551   6.080 -0.2956  0.4033  0.3468
   70G      OP2 2209  -5.149   7.297   6.049 -0.2088 -0.1513  0.5594
   70G      O5' 2210  -5.155   7.410   6.273 -0.2219 -0.0580 -0.4166
   70G      C5' 2211  -5.029   7.384   6.318  0.5299  0.8868 -0.9970
   70G      H5' 2212  -4.954   7.458   6.288  1.4142 -0.6539 -2.8152
   70G     H5'' 2213  -4.998   7.284   6.287 -1.6715  0.5172 -2.1647
   70G      C4' 2214  -5.023   7.391   6.473  0.4113  0.4221  0.3896
   70G      H4' 2215  -5.019   7.492   6.514  0.4608 -0.6501  3.2625
   70G      O4' 2216  -5.134   7.323   6.543  0.0913  0.1305  0.0560
   70G      C1' 2217  -5.073   7.221   6.624 -0.6008 -0.6723 -0.2100
   70G      H1' 2218  -5.120   7.236   6.721  2.2486 -0.0792  1.1923
   70G       N9 2219  -5.089   7.077   6.583 -0.0578 -1.0324  0.4924
   70G       C8 2220  -5.076   7.033   6.458  0.5170  1.6473 -0.8072
   70G       H8 2221  -5.066   7.091   6.367 -0.1174  2.0243 -0.6401
   70G       N7 2222  -5.067   6.895   6.458 -0.0766  0.2588 -0.2284
   70G       C5 2223  -5.067   6.855   6.594 -0.6578  0.2194 -0.5382
   70G       C6 2224  -5.057   6.733   6.656 -0.4623 -0.4925  0.2037
   70G       O6 2225  -5.059   6.622   6.608  0.5006 -0.5686 -0.1077
   70G       N1 2226  -5.060   6.738   6.795  0.2993  0.1579 -0.1395
   70G       H1 2227  -5.062   6.648   6.841  0.1059  0.6767  0.8984
   70G       C2 2228  -5.075   6.855   6.861  0.4928  0.2435 -0.4541
   70G       N2 2229  -5.065   6.849   6.993 -0.8429  0.2817 -0.5163
   70G      H21 2230  -5.054   6.760   7.040  2.0298  1.4241  1.2721
   70G      H22 2231  -5.069   6.932   7.051 -1.2324  0.5493 -0.9147
   70G       N3 2232  -5.085   6.976   6.809 -0.1721  0.8024 -0.3655
   70G       C4 2233  -5.080   6.972   6.669  0.1487  0.2631 -0.2608
   70G      C3' 2234  -4.888   7.328   6.523  0.6093  1.0202  0.7644
   70G      H3' 2235  -4.854   7.257   6.447 -1.7808  2.4956 -1.8886
   70G      C2' 2236  -4.927   7.259   6.653 -0.0387  0.4566  0.8071
   70G      H2' 2237  -4.867   7.168   6.664 -0.9537 -0.1975  0.5773
   70G      O2' 2238  -4.926   7.345   6.756  0.1450 -0.3190 -0.1451
   70G     HO2' 2239  -4.851   7.404   6.743  0.6996 -1.0443 -0.2677
   70G      O3' 2240  -4.792   7.417   6.543 -0.5298  0.3720 -0.1568
   71U        P 2241  -4.640   7.381   6.505 -0.0189  0.8715  0.2394
   71U      OP1 2242  -4.538   7.479   6.550  1.0038  0.3432  0.4396
   71U      OP2 2243  -4.641   7.348   6.362 -0.7707  0.1110 -0.1542
   71U      O5' 2244  -4.599   7.245   6.578  0.7697  0.3506  0.9372
   71U      C5' 2245  -4.589   7.246   6.718 -0.8378  0.3944 -0.0915
   71U      H5' 2246  -4.679   7.266   6.778 -0.3322  2.2622  0.1172
   71U     H5'' 2247  -4.520   7.317   6.765 -0.6714  0.9163 -1.1062
   71U      C4' 2248  -4.558   7.102   6.776 -0.2544 -0.0360 -0.6275
   71U      H4' 2249  -4.539   7.119   6.882 -0.3393 -0.9326 -0.4571
   71U      O4' 2250  -4.667   7.004   6.752 -0.2668 -0.6303  0.1133
   71U      C1' 2251  -4.615   6.875   6.767  0.2862 -0.5054 -0.4170
   71U      H1' 2252  -4.650   6.843   6.865  4.0077 -0.4163  1.0908
   71U       N1 2253  -4.663   6.783   6.658 -0.5018 -0.7359  0.0071
   71U       C6 2254  -4.728   6.839   6.548  0.0427  0.5623 -0.0115
   71U       H6 2255  -4.720   6.942   6.520  1.5554 -0.0213 -1.9798
   71U       C5 2256  -4.784   6.750   6.456 -0.5050 -0.1281 -0.7824
   71U       H5 2257  -4.827   6.802   6.371 -3.0500  3.4195  2.3026
   71U       C4 2258  -4.760   6.606   6.457  0.1028  1.0454 -0.5248
   71U       O4 2259  -4.793   6.533   6.368  0.5883  0.7134 -0.6285
   71U       N3 2260  -4.687   6.565   6.571 -0.2810  1.0292  1.2438
   71U       H3 2261  -4.676   6.465   6.582  1.7997  1.1131  0.3443
   71U       C2 2262  -4.648   6.647   6.670 -1.0401 -0.1144 -1.4460
   71U       O2 2263  -4.604   6.593   6.774 -0.4960 -0.3184  0.0934
   71U      C3' 2264  -4.438   7.027   6.713 -0.1305  0.3007 -0.3628
   71U      H3' 2265  -4.451   7.021   6.605  2.7620 -1.8139 -0.7156
   71U      C2' 2266  -4.465   6.887   6.779 -0.3518 -0.2903 -0.1955
   71U      H2' 2267  -4.418   6.811   6.717 -1.0479 -0.2230 -0.8143
   71U      O2' 2268  -4.432   6.887   6.918  0.2477 -0.4426 -0.1584
   71U     HO2' 2269  -4.382   6.967   6.935  2.1332 -1.6559  0.4560
   71U      O3' 2270  -4.318   7.083   6.746 -0.7447  0.6974 -0.0240
   72C        P 2271  -4.185   7.025   6.682  0.0892  0.3684 -0.5816
   72C      OP1 2272  -4.078   7.119   6.728  0.2833  0.1078  0.1718
   72C      OP2 2273  -4.208   7.012   6.538  0.9333  0.7242 -0.3053
   72C      O5' 2274  -4.158   6.874   6.743  0.3929  0.1207 -0.5664
   72C      C5' 2275  -4.087   6.853   6.868  0.9694  0.2384  0.4272
   72C      H5' 2276  -4.146   6.899   6.948 -1.4929 -0.9096 -0.6236
   72C     H5'' 2277  -3.987   6.895   6.855  0.2598  1.0597 -3.8892
   72C      C4' 2278  -4.083   6.698   6.906 -0.3357  0.5930  0.9509
   72C      H4' 2279  -4.038   6.678   7.003 -0.4700 -2.4819  0.4824
   72C      O4' 2280  -4.213   6.632   6.908 -0.2183  0.0635 -0.0600
   72C      C1' 2281  -4.212   6.496   6.867  0.4568 -0.3895 -0.4325
   72C      H1' 2282  -4.250   6.441   6.953  0.5653  0.0564 -0.0930
   72C       N1 2283  -4.281   6.458   6.744 -0.5858 -0.6250  0.5706
   72C       C6 2284  -4.309   6.559   6.652  0.1298 -0.4975  0.0762
   72C       H6 2285  -4.279   6.660   6.673  0.5540 -0.3301 -1.2514
   72C       C5 2286  -4.362   6.531   6.529 -0.1466 -0.2999 -0.5198
   72C       H5 2287  -4.399   6.612   6.469  0.1204  0.2796  0.0793
   72C       C4 2288  -4.414   6.399   6.520  0.2878  0.6794 -0.0310
   72C       N4 2289  -4.514   6.374   6.434 -0.8187  0.2046  0.2140
   72C      H41 2290  -4.538   6.432   6.355 -1.0531  1.4426  1.1626
   72C      H42 2291  -4.559   6.285   6.450  1.0537 -0.5032  1.9916
   72C       N3 2292  -4.388   6.300   6.602  0.6278 -0.3219 -0.2274
   72C       C2 2293  -4.325   6.330   6.714 -0.3285  0.3235 -0.0863
   72C       O2 2294  -4.314   6.237   6.797  0.8865  0.8187 -0.1324
   72C      C3' 2295  -3.995   6.615   6.812 -0.0347 -0.4707  0.0059
   72C      H3' 2296  -4.005   6.653   6.710  2.8991  4.1989  1.1389
   72C      C2' 2297  -4.063   6.473   6.829  0.5502 -0.3812 -0.3022
   72C      H2' 2298  -4.052   6.435   6.727  0.6084  0.1456 -0.4975
   72C      O2' 2299  -3.972   6.407   6.926  0.5650  0.3579 -0.3581
   72C     HO2' 2300  -3.894   6.374   6.880  0.9146  0.5812  0.0622
   72C      O3' 2301  -3.853   6.625   6.839 -0.2896  0.0437  0.0934
   73G        P 2302  -3.748   6.561   6.737 -0.0489  0.6628 -0.2630
   73G      OP1 2303  -3.614   6.593   6.794 -0.0237 -0.5122 -0.7624
   73G      OP2 2304  -3.785   6.621   6.607 -0.6049  0.2459  0.7593
   73G      O5' 2305  -3.772   6.398   6.739  0.3422  0.1476  0.4599
   73G      C5' 2306  -3.748   6.318   6.618  0.7855 -0.5528 -0.0561
   73G      H5' 2307  -3.642   6.310   6.597  1.3043  0.0581  2.0975
   73G     H5'' 2308  -3.789   6.367   6.529  0.5033 -2.2910 -0.9268
   73G      C4' 2309  -3.815   6.186   6.638 -0.9022 -0.5059  0.4966
   73G      H4' 2310  -3.773   6.139   6.727 -0.7962 -0.2664  0.5740
   73G      O4' 2311  -3.956   6.205   6.659 -0.6910  0.4342  0.2487
   73G      C1' 2312  -4.024   6.093   6.600 -0.3507  0.4860 -0.7893
   73G      H1' 2313  -4.089   6.033   6.663 -0.0982  2.0750  1.0691
   73G       N9 2314  -4.108   6.141   6.489  0.1306  0.3005  0.3607
   73G       C8 2315  -4.106   6.263   6.423  0.4075  0.6299 -0.1051
   73G       H8 2316  -4.052   6.348   6.461  1.2103  0.4510 -0.8164
   73G       N7 2317  -4.174   6.264   6.309  0.3551  0.3398 -0.4251
   73G       C5 2318  -4.217   6.133   6.300  0.0098 -0.5627  0.6218
   73G       C6 2319  -4.278   6.067   6.192 -0.3787 -0.3811  0.6450
   73G       O6 2320  -4.311   6.121   6.084  0.9772 -0.0210  0.3015
   73G       N1 2321  -4.295   5.935   6.206 -0.3981  0.5014 -0.0651
   73G       H1 2322  -4.345   5.885   6.133 -0.7175  0.4774  0.1692
   73G       C2 2323  -4.272   5.869   6.318 -0.4222  0.3929 -0.1498
   73G       N2 2324  -4.285   5.743   6.328 -0.1949  0.5150  0.4444
   73G      H21 2325  -4.313   5.684   6.251  2.3932 -2.1725  1.3963
   73G      H22 2326  -4.246   5.702   6.412 -3.5454  2.0351  2.9609
   73G       N3 2327  -4.207   5.923   6.423  0.3521 -0.5385 -0.0335
   73G       C4 2328  -4.174   6.054   6.403  0.4825  0.4968  0.3608
   73G      C3' 2329  -3.799   6.088   6.521  0.1155 -0.3767  0.1740
   73G      H3' 2330  -3.820   6.129   6.422 -2.4678  0.3275  0.9211
   73G      C2' 2331  -3.913   5.994   6.554 -0.1341  0.6730 -0.6663
   73G      H2' 2332  -3.946   5.941   6.465 -2.5820  4.3504 -2.1731
   73G      O2' 2333  -3.883   5.914   6.663  0.2353 -0.1744  0.6258
   73G     HO2' 2334  -3.928   5.954   6.738 -0.9931  2.2475 -1.2521
   73G      O3' 2335  -3.668   6.026   6.530  0.4327 -0.2421 -0.2032
   74U        P 2336  -3.580   5.989   6.408 -0.5096  0.3731  0.1958
   74U      OP1 2337  -3.467   5.912   6.464 -0.3173 -0.0198 -0.1261
   74U      OP2 2338  -3.567   6.105   6.317 -0.5395  0.2059 -0.4756
   74U      O5' 2339  -3.675   5.894   6.317 -0.3206 -0.6060  0.6769
   74U      C5' 2340  -3.715   5.762   6.353  0.0464  0.6513 -0.2027
   74U      H5' 2341  -3.771   5.757   6.447 -0.3658 -0.3969 -0.4863
   74U     H5'' 2342  -3.630   5.697   6.372 -1.2705 -2.2812 -3.2972
   74U      C4' 2343  -3.792   5.688   6.247  0.0789  0.5549 -0.2456
   74U      H4' 2344  -3.806   5.585   6.280  3.3910 -0.0038 -0.3272
   74U      O4' 2345  -3.924   5.733   6.241 -0.4233 -0.2859 -0.6716
   74U      C1' 2346  -3.971   5.751   6.107  0.1730  0.3819 -0.7311
   74U      H1' 2347  -4.068   5.702   6.099 -0.0802  0.4664  1.4319
   74U       N1 2348  -3.982   5.894   6.073 -0.0822  0.0684 -0.3469
   74U       C6 2349  -3.952   5.989   6.167 -1.1107 -0.2732  0.7255
   74U       H6 2350  -3.927   5.970   6.271 -1.0946  4.2574  1.7860
   74U       C5 2351  -3.963   6.119   6.138 -0.3384 -0.0762 -0.0982
   74U       H5 2352  -3.931   6.192   6.212  1.6722 -1.0503  0.0658
   74U       C4 2353  -4.009   6.165   6.014  0.4950 -0.3126 -0.1624
   74U       O4 2354  -4.042   6.282   5.993 -0.3456  0.0015 -0.0431
   74U       N3 2355  -4.048   6.069   5.924 -0.5027 -0.0393  0.4134
   74U       H3 2356  -4.086   6.101   5.836 -1.8975 -3.6020 -0.4345
   74U       C2 2357  -4.033   5.932   5.947  0.0020 -0.6481  0.2596
   74U       O2 2358  -4.064   5.848   5.862 -0.5546  0.6488  0.3160
   74U      C3' 2359  -3.737   5.687   6.102 -0.8973 -0.4012  0.4030
   74U      H3' 2360  -3.683   5.782   6.096  1.6343 -1.7181  0.9586
   74U      C2' 2361  -3.865   5.688   6.012 -0.3524  0.9945  0.1901
   74U      H2' 2362  -3.842   5.741   5.920  2.6906  0.6345  0.6482
   74U      O2' 2363  -3.908   5.556   6.008  0.8700 -0.2009 -0.4709
   74U     HO2' 2364  -3.835   5.503   5.975 -1.1309 -2.1654 -2.0819
   74U      O3' 2365  -3.645   5.576   6.087 -0.5627  0.1531  0.7032
   75A        P 2366  -3.545   5.570   5.969 -0.4944  0.0399 -0.2152
   75A      OP1 2367  -3.441   5.475   6.006 -0.1624  0.5698 -0.8349
   75A      OP2 2368  -3.505   5.708   5.925 -0.3167 -0.5078 -0.8859
   75A      O5' 2369  -3.642   5.496   5.859 -0.1816  0.8535 -0.5589
   75A      C5' 2370  -3.662   5.360   5.867 -0.5330  0.1477  0.2074
   75A      H5' 2371  -3.730   5.338   5.949 -0.5664  0.6014  0.3049
   75A     H5'' 2372  -3.576   5.295   5.883 -2.4913 -3.1070 -1.3545
   75A      C4' 2373  -3.730   5.310   5.738 -0.7881 -0.1662  0.0053
   75A      H4' 2374  -3.755   5.204   5.744 -1.2388  0.0055  1.7322
   75A      O4' 2375  -3.850   5.382   5.702 -0.2787  0.2764  0.3982
   75A      C1' 2376  -3.861   5.383   5.563 -0.1866  0.6069 -0.0407
   75A      H1' 2377  -3.944   5.314   5.548  0.6920 -0.4059 -0.3364
   75A       N9 2378  -3.893   5.514   5.521  0.1639 -0.2746  0.6118
   75A       C8 2379  -3.849   5.627   5.577  0.0498 -0.6115 -0.3165
   75A       H8 2380  -3.777   5.625   5.658 -0.3733  0.8031  0.1195
   75A       N7 2381  -3.872   5.735   5.506  0.2103 -0.4854  0.5904
   75A       C5 2382  -3.951   5.688   5.395  0.2221  0.1500  0.3252
   75A       C6 2383  -4.019   5.742   5.276 -0.4392  0.4596 -0.4260
   75A       N6 2384  -4.020   5.865   5.241 -0.8615 -0.2614 -0.3014
   75A      H61 2385  -3.992   5.950   5.288 -2.7611  0.3560 -0.2090
   75A      H62 2386  -4.101   5.873   5.181 -1.7334  0.3687  0.9150
   75A       N1 2387  -4.081   5.662   5.193  0.4151 -0.1723  0.1855
   75A       C2 2388  -4.083   5.534   5.225  0.1174 -0.3621  0.6756
   75A       H2 2389  -4.151   5.477   5.164 -0.6373  0.3668  0.8236
   75A       N3 2390  -4.024   5.470   5.324  0.6992 -0.2247 -0.4437
   75A       C4 2391  -3.959   5.548   5.404  0.2435 -0.3590 -0.1606
   75A      C3' 2392  -3.645   5.333   5.615 -0.2746 -0.2057 -0.5467
   75A      H3' 2393  -3.588   5.426   5.626 -2.8527  1.5742 -1.2934
   75A      C2' 2394  -3.736   5.333   5.502  0.5422  0.2475 -0.5001
   75A      H2' 2395  -3.703   5.407   5.429 -2.1471  2.0376 -0.0380
   75A      O2' 2396  -3.775   5.210   5.436  0.0890 -0.4127 -0.4116
   75A     HO2' 2397  -3.738   5.204   5.347  1.8784  1.8448  0.0691
   75A      O3' 2398  -3.560   5.223   5.621 -0.0899 -0.1556  0.8509
   76U        P 2399  -3.430   5.201   5.525  0.2062 -0.4794 -0.0692
   76U      OP1 2400  -3.356   5.087   5.576 -0.0058  0.8199 -0.3199
   76U      OP2 2401  -3.359   5.339   5.523 -0.2449  0.8788  0.6861
   76U      O5' 2402  -3.468   5.177   5.372  0.4848 -0.5060  0.2557
   76U      C5' 2403  -3.531   5.056   5.319  0.5356 -0.0747  0.5443
   76U      H5' 2404  -3.616   5.020   5.377  0.2351  1.2560  0.9671
   76U     H5'' 2405  -3.458   4.975   5.319 -0.5106 -1.0820 -1.1326
   76U      C4' 2406  -3.581   5.068   5.166 -0.6415 -0.0443 -1.0138
   76U      H4' 2407  -3.636   4.975   5.151 -2.2464  0.2820  1.9236
   76U      O4' 2408  -3.659   5.181   5.172  0.7376  0.5295  0.2327
   76U      C1' 2409  -3.605   5.275   5.079 -0.2731 -0.0389 -0.4391
   76U      H1' 2410  -3.658   5.257   4.986 -0.4657  0.6593 -0.4733
   76U       N1 2411  -3.614   5.420   5.113 -0.0511  0.0453 -0.3701
   76U       C6 2412  -3.539   5.467   5.221  0.4654 -0.2760  0.0273
   76U       H6 2413  -3.473   5.411   5.285  1.8703  1.9184  0.6348
   76U       C5 2414  -3.559   5.589   5.271  0.5683 -0.3214 -0.0150
   76U       H5 2415  -3.526   5.618   5.370 -2.4546 -1.8724  1.5655
   76U       C4 2416  -3.643   5.680   5.208  0.4649  0.3894 -0.3957
   76U       O4 2417  -3.654   5.797   5.246  0.2781 -0.1033  0.3658
   76U       N3 2418  -3.711   5.636   5.096  0.5273 -0.4287  0.7866
   76U       H3 2419  -3.783   5.690   5.051  2.4589  1.0593 -0.6689
   76U       C2 2420  -3.704   5.503   5.047  0.8709 -0.4373  0.4898
   76U       O2 2421  -3.789   5.467   4.960  0.1992 -0.5610 -0.3158
   76U      C3' 2422  -3.466   5.087   5.063  0.7765  0.3418 -0.0042
   76U      H3' 2423  -3.371   5.051   5.104  1.0414  1.6874  0.6241
   76U      C2' 2424  -3.465   5.231   5.039  0.0650  0.5348  0.0613
   76U      H2' 2425  -3.398   5.284   5.106  1.3912 -2.4629  1.3293
   76U      O2' 2426  -3.421   5.275   4.904  0.4832  0.4587  0.5221
   76U     HO2' 2427  -3.357   5.212   4.870  0.7932  1.3834 -0.6586
   76U      O3' 2428  -3.507   5.014   4.953 -0.9354  0.1654 -0.0908
   77A        P 2429  -3.464   4.860   4.939 -0.2249 -0.0300  0.6776
   77A      OP1 2430  -3.316   4.846   4.964  0.4440 -0.7901  0.1710
   77A      OP2 2431  -3.518   4.818   4.813 -0.6191  0.7653 -0.7306
   77A      O5' 2432  -3.540   4.762   5.038 -0.6061 -0.0839  0.1297
   77A      C5' 2433  -3.471   4.694   5.145  0.1113  0.1923  0.6190
   77A      H5' 2434  -3.415   4.766   5.206 -2.5852  0.0467  3.5510
   77A     H5'' 2435  -3.411   4.618   5.096 -2.3305  0.9553 -4.0726
   77A      C4' 2436  -3.587   4.643   5.236 -0.1440  0.5943  0.0502
   77A      H4' 2437  -3.532   4.629   5.329  4.4880 -0.4397 -2.5365
   77A      O4' 2438  -3.690   4.739   5.270 -0.8374  0.0998 -0.0380
   77A      C1' 2439  -3.813   4.678   5.251 -0.3223 -0.4170 -0.4322
   77A      H1' 2440  -3.862   4.651   5.345 -3.1633  0.0250 -1.6768
   77A       N9 2441  -3.890   4.793   5.196 -0.0052  0.0353 -1.4156
   77A       C8 2442  -3.865   4.874   5.090  0.1840 -0.5030  0.0252
   77A       H8 2443  -3.802   4.862   5.004 -0.7637  1.6792 -1.0568
   77A       N7 2444  -3.941   4.979   5.090  0.7880  0.1501 -0.1352
   77A       C5 2445  -4.033   4.961   5.191  0.4604 -0.1186 -0.6548
   77A       C6 2446  -4.143   5.032   5.240  0.5086  0.1482 -0.6647
   77A       N6 2447  -4.184   5.148   5.190 -0.3478  0.4618  0.0372
   77A      H61 2448  -4.112   5.191   5.134  0.6923 -0.4750  0.6083
   77A      H62 2449  -4.270   5.193   5.220 -0.2455  0.8189 -0.2017
   77A       N1 2450  -4.210   4.989   5.346  0.4057  0.1635  0.1870
   77A       C2 2451  -4.168   4.879   5.407 -0.4832 -0.6305  0.0712
   77A       H2 2452  -4.219   4.855   5.499 -0.3843  2.2358  0.9887
   77A       N3 2453  -4.061   4.809   5.373 -0.1615 -0.0914 -0.7064
   77A       C4 2454  -4.001   4.850   5.257  0.0574  0.4947 -0.1292
   77A      C3' 2455  -3.654   4.513   5.196 -0.3920  0.9799 -0.1882
   77A      H3' 2456  -3.609   4.465   5.109  1.0587  0.0011  1.0411
   77A      C2' 2457  -3.797   4.560   5.159 -0.1173  0.7559  0.1207
   77A      H2' 2458  -3.805   4.586   5.053  0.5018 -0.7597 -0.3204
   77A      O2' 2459  -3.893   4.465   5.190  0.6293 -0.2132 -0.3098
   77A     HO2' 2460  -3.837   4.387   5.187 -0.2795 -0.8436 -1.2254
   77A      O3' 2461  -3.647   4.411   5.299 -0.4554 -0.2671 -0.3519
   78C        P 2462  -3.514   4.332   5.336 -0.0298  0.0226  0.4781
   78C      OP1 2463  -3.405   4.348   5.238  0.0487 -0.2057 -0.5121
   78C      OP2 2464  -3.558   4.192   5.360 -0.3714  1.1723 -0.7276
   78C      O5' 2465  -3.463   4.404   5.468  0.1828  0.7746 -0.6973
   78C      C5' 2466  -3.451   4.333   5.591  0.7006  0.3425  0.1495
   78C      H5' 2467  -3.396   4.239   5.581 -0.4457 -0.5375  1.7136
   78C     H5'' 2468  -3.551   4.317   5.631  0.1360  2.8535 -0.0740
   78C      C4' 2469  -3.381   4.414   5.696 -0.6900 -0.0097 -1.8329
   78C      H4' 2470  -3.391   4.352   5.786  1.5195  2.5342  0.3462
   78C      O4' 2471  -3.246   4.417   5.668 -0.8295  0.5086 -0.8488
   78C      C1' 2472  -3.216   4.553   5.647  0.7976 -0.7491 -0.6777
   78C      H1' 2473  -3.163   4.588   5.736  0.5522  0.7378 -1.0909
   78C       N1 2474  -3.123   4.563   5.534  0.2381  0.2448  0.5411
   78C       C6 2475  -3.162   4.557   5.398  0.4860  0.7533 -0.1854
   78C       H6 2476  -3.265   4.534   5.376 -0.2220  0.3263  3.0507
   78C       C5 2477  -3.074   4.571   5.294  0.4739  0.0992 -0.2824
   78C       H5 2478  -3.107   4.570   5.192  0.0293 -0.3381 -0.1383
   78C       C4 2479  -2.945   4.596   5.330  0.0902 -0.1042  0.3322
   78C       N4 2480  -2.845   4.600   5.238  0.2155 -0.1328  0.0632
   78C      H41 2481  -2.878   4.594   5.142 -0.5160 -3.3779  0.4106
   78C      H42 2482  -2.757   4.642   5.263  0.1637 -1.0700  1.9843
   78C       N3 2483  -2.898   4.613   5.453  0.2595 -0.2613  0.4638
   78C       C2 2484  -2.991   4.604   5.551 -0.1794 -0.4094 -0.6906
   78C       O2 2485  -2.943   4.617   5.663  0.0892  0.4791 -0.6686
   78C      C3' 2486  -3.434   4.559   5.726 -0.2608  0.5992 -0.2873
   78C      H3' 2487  -3.534   4.557   5.684  0.0102 -1.4795 -0.9411
   78C      C2' 2488  -3.342   4.648   5.647  0.0651 -0.2653 -0.6048
   78C      H2' 2489  -3.377   4.649   5.544 -1.5495  0.3345 -0.0739
   78C      O2' 2490  -3.317   4.775   5.706 -0.2098  0.0815  0.0330
   78C     HO2' 2491  -3.395   4.831   5.700 -0.1575  0.3790  1.6002
   78C      O3' 2492  -3.444   4.584   5.871 -0.6929  0.5381 -0.2404
   79A        P 2493  -3.581   4.540   5.936  0.2220 -0.1788 -0.2433
   79A      OP1 2494  -3.699   4.581   5.855 -0.5468 -0.8885 -0.0408
   79A      OP2 2495  -3.567   4.608   6.068 -0.1554  0.1547 -0.8506
   79A      O5' 2496  -3.580   4.381   5.949 -0.2514 -0.3117 -0.3236
   79A      C5' 2497  -3.487   4.327   6.039 -0.2481  0.3940  0.5651
   79A      H5' 2498  -3.505   4.376   6.135  1.3812  2.5870 -0.1623
   79A     H5'' 2499  -3.385   4.344   6.004  0.5070  1.4687  2.9987
   79A      C4' 2500  -3.506   4.173   6.053 -0.5063  0.1882 -0.5565
   79A      H4' 2501  -3.599   4.151   6.104 -0.1874 -0.2410 -0.1531
   79A      O4' 2502  -3.499   4.106   5.921  0.1228  0.9241 -0.1156
   79A      C1' 2503  -3.409   3.997   5.914  0.6002 -0.1087  0.4022
   79A      H1' 2504  -3.469   3.911   5.883 -2.8775  2.4042 -0.3805
   79A       N9 2505  -3.299   4.031   5.816 -0.1545 -0.2041  0.1158
   79A       C8 2506  -3.281   3.986   5.686  0.5127  1.4731  0.2636
   79A       H8 2507  -3.346   3.905   5.656  0.4774  1.1477  1.1902
   79A       N7 2508  -3.191   4.044   5.610 -0.6792  0.6660 -0.1635
   79A       C5 2509  -3.146   4.148   5.694  0.2677  1.0238 -0.0699
   79A       C6 2510  -3.040   4.242   5.692  0.0326  0.9167  0.7076
   79A       N6 2511  -2.951   4.262   5.595  0.2341 -0.2185 -0.0565
   79A      H61 2512  -2.962   4.201   5.516 -1.4565 -1.7796  1.2989
   79A      H62 2513  -2.873   4.324   5.614  0.4613  0.1585 -2.0483
   79A       N1 2514  -3.005   4.309   5.800 -0.2355 -0.2195  0.3643
   79A       C2 2515  -3.075   4.286   5.907  0.1899  0.0201 -0.2109
   79A       H2 2516  -3.059   4.339   6.000 -2.2380 -1.0861  0.9221
   79A       N3 2517  -3.182   4.212   5.925  0.1938  0.0959 -0.5201
   79A       C4 2518  -3.208   4.133   5.816 -0.4015  0.5527  0.0949
   79A      C3' 2519  -3.398   4.103   6.134  0.2352  0.7886  0.2505
   79A      H3' 2520  -3.303   4.155   6.124  0.3802  0.6852  1.0402
   79A      C2' 2521  -3.376   3.965   6.063 -0.2179 -0.6726  0.4438
   79A      H2' 2522  -3.273   3.932   6.074 -0.3208 -1.0142  0.3979
   79A      O2' 2523  -3.462   3.864   6.100 -0.1735  1.0233 -0.5352
   79A     HO2' 2524  -3.435   3.825   6.184 -2.2620 -0.1467 -0.3198
   79A      O3' 2525  -3.426   4.081   6.277  0.7852  0.1369  0.2335
   80G        P 2526  -3.382   4.180   6.394  0.1243  0.2093 -0.2235
   80G      OP1 2527  -3.470   4.157   6.516  0.0669 -0.0494  0.4097
   80G      OP2 2528  -3.377   4.326   6.347  0.0566  0.4158  0.1967
   80G      O5' 2529  -3.234   4.132   6.426 -0.3891  0.1660 -0.8312
   80G      C5' 2530  -3.210   4.011   6.485  0.7523  0.3322 -0.2615
   80G      H5' 2531  -3.265   3.926   6.447 -1.1395  1.7650 -0.8912
   80G     H5'' 2532  -3.254   4.018   6.584  0.2609  1.3491 -0.5353
   80G      C4' 2533  -3.060   3.983   6.500 -0.5580  0.5255  0.2969
   80G      H4' 2534  -3.052   3.886   6.549 -0.3005  0.4508  0.1100
   80G      O4' 2535  -2.983   3.974   6.377  0.5875  0.0379 -0.4076
   80G      C1' 2536  -2.866   4.056   6.379  0.1598  0.0145  0.5915
   80G      H1' 2537  -2.780   4.007   6.335 -0.5855 -2.6648  1.8714
   80G       N9 2538  -2.882   4.193   6.325 -0.4197 -1.0112 -0.4937
   80G       C8 2539  -2.992   4.252   6.283 -0.8769  0.8204  0.8287
   80G       H8 2540  -3.085   4.201   6.264  0.5225 -1.1136 -1.5089
   80G       N7 2541  -2.987   4.383   6.263  0.5225 -0.2814  0.0848
   80G       C5 2542  -2.853   4.408   6.275 -0.1953  0.4270  0.4933
   80G       C6 2543  -2.775   4.530   6.255 -0.4250 -0.5328  0.3606
   80G       O6 2544  -2.815   4.640   6.229  0.8434  0.6295  0.3138
   80G       N1 2545  -2.644   4.510   6.290 -0.0710  0.1421 -0.3155
   80G       H1 2546  -2.584   4.591   6.291  0.8351 -0.5232  0.2663
   80G       C2 2547  -2.588   4.398   6.320 -0.9753 -0.6353 -0.5861
   80G       N2 2548  -2.454   4.410   6.347  0.8110  0.0979  0.2854
   80G      H21 2549  -2.395   4.464   6.285  1.9905 -4.3730 -2.9655
   80G      H22 2550  -2.410   4.321   6.367 -0.9522 -0.9640 -0.3253
   80G       N3 2551  -2.649   4.284   6.331  0.2068  0.7395 -1.0288
   80G       C4 2552  -2.785   4.288   6.306  0.0414 -0.3547  0.0663
   80G      C3' 2553  -2.979   4.074   6.604 -0.2932 -0.2860  0.1552
   80G      H3' 2554  -3.017   4.176   6.608  0.6017  0.2569 -2.7444
   80G      C2' 2555  -2.838   4.067   6.534 -0.4761  0.5230 -0.0806
   80G      H2' 2556  -2.784   4.154   6.570  0.3574 -0.5660  1.3834
   80G      O2' 2557  -2.760   3.958   6.579  0.3473  0.2377  0.1396
   80G     HO2' 2558  -2.818   3.914   6.642 -0.2196  2.5129  1.3204
   80G      O3' 2559  -2.974   4.034   6.740  0.0500  0.6544  0.8622
   81G        P 2560  -2.979   4.148   6.857  0.2443 -0.1074 -0.0127
   81G      OP1 2561  -2.969   4.077   6.987 -0.5176  0.0182  0.5494
   81G      OP2 2562  -3.103   4.228   6.833  0.3692 -0.7967  0.1789
   81G      O5' 2563  -2.861   4.244   6.850  0.9212 -0.1786 -0.6219
   81G      C5' 2564  -2.734   4.210   6.909  0.0378 -0.5175 -0.3554
   81G      H5' 2565  -2.699   4.114   6.871  2.1291  0.4772 -1.1389
   81G     H5'' 2566  -2.750   4.184   7.014  2.1559  3.4442  1.1685
   81G      C4' 2567  -2.617   4.315   6.906  0.0850 -0.1525  0.0050
   81G      H4' 2568  -2.535   4.267   6.958 -1.8450 -3.6979  0.0794
   81G      O4' 2569  -2.585   4.337   6.766  0.1109  0.2738 -0.4583
   81G      C1' 2570  -2.552   4.472   6.752  0.2297 -0.7142  0.0780
   81G      H1' 2571  -2.449   4.473   6.716  0.0051 -2.6397 -0.7335
   81G       N9 2572  -2.643   4.555   6.664  0.1924 -0.1780 -0.0523
   81G       C8 2573  -2.775   4.528   6.635  0.1102 -0.0270  0.8041
   81G       H8 2574  -2.818   4.432   6.661 -1.7966  0.3544 -0.7074
   81G       N7 2575  -2.842   4.618   6.577 -1.0759 -0.2727  0.1252
   81G       C5 2576  -2.747   4.723   6.565  0.2170 -0.4334  0.1746
   81G       C6 2577  -2.751   4.859   6.497  0.6048 -0.5911 -0.5505
   81G       O6 2578  -2.837   4.913   6.427  0.3579  0.0766  0.1324
   81G       N1 2579  -2.627   4.925   6.502 -0.3174  0.6404 -0.3207
   81G       H1 2580  -2.635   5.019   6.465 -0.9395  0.2612 -1.1756
   81G       C2 2581  -2.518   4.872   6.554  0.6436 -1.2953 -1.1067
   81G       N2 2582  -2.416   4.955   6.563  0.1496 -0.3351 -0.6227
   81G      H21 2583  -2.413   5.046   6.520  1.7507  2.0001  3.8026
   81G      H22 2584  -2.333   4.915   6.604 -0.6328  0.1770  1.5923
   81G       N3 2585  -2.508   4.758   6.622 -0.2603 -0.3347  0.1156
   81G       C4 2586  -2.625   4.680   6.617  0.3040  0.3259  0.2972
   81G      C3' 2587  -2.680   4.448   6.958  0.2520  0.1600 -0.1251
   81G      H3' 2588  -2.768   4.463   6.895 -0.3138  0.8905  0.8195
   81G      C2' 2589  -2.561   4.532   6.901 -0.6858 -0.2772 -0.7246
   81G      H2' 2590  -2.576   4.640   6.910  1.1022 -0.0728  0.3066
   81G      O2' 2591  -2.432   4.509   6.964  0.2362 -0.3775 -0.0482
   81G     HO2' 2592  -2.422   4.490   7.057  0.2555  0.6595  0.1740
   81G      O3' 2593  -2.704   4.459   7.099 -0.4074  0.4197  0.1147
   82G        P 2594  -2.812   4.554   7.155  0.0339 -0.4055 -0.1677
   82G      OP1 2595  -2.813   4.570   7.305 -0.3177  0.3930 -0.1524
   82G      OP2 2596  -2.937   4.504   7.093  0.3586 -0.0291  0.3959
   82G      O5' 2597  -2.773   4.701   7.090 -0.3720  0.1673 -0.4216
   82G      C5' 2598  -2.656   4.770   7.130  0.2061  0.0535  0.0569
   82G      H5' 2599  -2.573   4.706   7.101  0.2256 -0.5874  1.4453
   82G     H5'' 2600  -2.666   4.794   7.235 -0.0098  4.1011 -0.7082
   82G      C4' 2601  -2.636   4.913   7.079 -0.3123 -0.7186  0.6139
   82G      H4' 2602  -2.552   4.957   7.133 -0.1640  1.3798 -1.2036
   82G      O4' 2603  -2.612   4.922   6.941  0.0888  0.7268  0.1924
   82G      C1' 2604  -2.694   5.023   6.883 -0.2603 -0.1169 -0.2489
   82G      H1' 2605  -2.635   5.076   6.808  0.4257  1.5228  1.3976
   82G       N9 2606  -2.824   4.984   6.809 -0.2557  0.1988 -0.8919
   82G       C8 2607  -2.895   4.869   6.824 -0.4505 -0.7564 -0.0079
   82G       H8 2608  -2.866   4.782   6.882  1.9897  1.1698  1.8964
   82G       N7 2609  -2.993   4.866   6.740  0.0819 -0.3796 -0.6680
   82G       C5 2610  -2.996   4.993   6.682  0.8779  0.4230  0.5004
   82G       C6 2611  -3.092   5.049   6.596 -0.0896 -1.0180  0.2671
   82G       O6 2612  -3.192   4.995   6.556 -0.1142  0.3943  0.3370
   82G       N1 2613  -3.071   5.179   6.573  0.1233  0.4165 -0.2767
   82G       H1 2614  -3.132   5.223   6.506 -1.2435 -2.3341 -0.9999
   82G       C2 2615  -2.978   5.256   6.632 -0.0850  0.4312  0.9528
   82G       N2 2616  -2.962   5.377   6.591 -0.6947 -0.0290 -0.1690
   82G      H21 2617  -3.020   5.417   6.518 -2.5740 -2.4887 -0.1617
   82G      H22 2618  -2.884   5.416   6.642 -0.9457  0.5991 -0.2559
   82G       N3 2619  -2.882   5.201   6.710 -0.6933  0.1412  0.1438
   82G       C4 2620  -2.896   5.070   6.730  0.4047  0.3896 -0.1825
   82G      C3' 2621  -2.755   5.002   7.107  0.5287  0.7080 -0.0647
   82G      H3' 2622  -2.847   4.952   7.075 -0.0278  1.0326  0.9937
   82G      C2' 2623  -2.729   5.110   7.006 -0.0147  0.1794  0.3686
   82G      H2' 2624  -2.820   5.168   6.994  0.9737  2.4214  2.7830
   82G      O2' 2625  -2.636   5.205   7.043  0.0456  0.3881  0.1132
   82G     HO2' 2626  -2.607   5.244   6.960  1.7488 -2.5330 -0.8305
   82G      O3' 2627  -2.766   5.047   7.246 -0.3572 -0.5056  0.4554
   83C        P 2628  -2.896   5.117   7.287  0.1565  0.2748  0.0434
   83C      OP1 2629  -2.867   5.160   7.429 -0.5321  0.1676 -0.0814
   83C      OP2 2630  -2.992   5.001   7.275 -0.6627  0.3737  0.1622
   83C      O5' 2631  -2.947   5.235   7.190 -0.2350  0.0625  0.0487
   83C      C5' 2632  -2.898   5.371   7.213  0.3769 -0.6659  0.6211
   83C      H5' 2633  -2.789   5.367   7.209  0.3406 -0.6957 -2.3230
   83C     H5'' 2634  -2.911   5.388   7.320  0.8962  0.0688  0.5751
   83C      C4' 2635  -2.963   5.487   7.147 -1.0525  0.5036  0.3002
   83C      H4' 2636  -2.907   5.575   7.179 -1.3231  1.3213 -1.3746
   83C      O4' 2637  -2.953   5.491   6.997 -0.0346 -0.0712  0.3066
   83C      C1' 2638  -3.083   5.543   6.955 -0.0277 -0.3013 -0.6792
   83C      H1' 2639  -3.056   5.608   6.871  2.3187  0.6973  0.7639
   83C       N1 2640  -3.147   5.423   6.891  0.2051 -0.3175  0.5297
   83C       C6 2641  -3.126   5.291   6.923  0.4575  0.9798 -0.3574
   83C       H6 2642  -3.041   5.257   6.981 -0.5100  0.7799  1.0069
   83C       C5 2643  -3.217   5.194   6.895  0.2705  0.5032  0.2867
   83C       H5 2644  -3.205   5.092   6.929 -3.5453  0.3900  1.7646
   83C       C4 2645  -3.329   5.231   6.820 -0.9993 -0.8879  0.1766
   83C       N4 2646  -3.409   5.149   6.762 -0.3131  0.0800  0.2765
   83C      H41 2647  -3.382   5.052   6.760 -0.4064  0.0598 -0.7924
   83C      H42 2648  -3.465   5.195   6.691  0.9658  0.7931 -0.3153
   83C       N3 2649  -3.333   5.347   6.757  0.0245 -0.6830 -0.4786
   83C       C2 2650  -3.250   5.450   6.802 -0.1694  0.3260  0.2743
   83C       O2 2651  -3.272   5.562   6.761  0.1342 -0.5235 -0.3041
   83C      C3' 2652  -3.110   5.513   7.192 -0.9622  0.1933  0.4711
   83C      H3' 2653  -3.168   5.421   7.178 -0.1888 -0.2025 -0.2444
   83C      C2' 2654  -3.149   5.601   7.072 -0.0451 -0.6624  0.9622
   83C      H2' 2655  -3.258   5.597   7.065 -0.2143  0.8376  2.2258
   83C      O2' 2656  -3.101   5.738   7.074  0.2507  0.3386 -0.4698
   83C     HO2' 2657  -3.154   5.794   7.018  0.9818  0.9139 -0.6018
   83C      O3' 2658  -3.120   5.570   7.324  0.6018  0.4774  0.2723
   84U        P 2659  -3.256   5.586   7.387  0.1194 -0.1637 -0.4087
   84U      OP1 2660  -3.229   5.616   7.529  0.5077  0.3527  0.3118
   84U      OP2 2661  -3.340   5.464   7.357 -0.3492 -0.3036 -0.2999
   84U      O5' 2662  -3.327   5.713   7.323  0.1120  0.8723 -0.0505
   84U      C5' 2663  -3.283   5.839   7.360  0.2236 -0.1187 -0.2033
   84U      H5' 2664  -3.183   5.852   7.318  0.0687 -0.6552 -0.7469
   84U     H5'' 2665  -3.268   5.836   7.468  3.0479 -1.1314 -0.5256
   84U      C4' 2666  -3.374   5.943   7.307 -0.0812 -0.1366 -0.2481
   84U      H4' 2667  -3.341   6.040   7.344  1.1165 -0.4662 -0.4074
   84U      O4' 2668  -3.372   5.947   7.164 -0.5650 -0.3204 -0.3526
   84U      C1' 2669  -3.486   6.004   7.110  0.0210 -0.2330  0.8836
   84U      H1' 2670  -3.462   6.102   7.070 -2.0265  0.3993  1.0912
   84U       N1 2671  -3.538   5.904   7.010 -0.8959 -0.0095 -0.6573
   84U       C6 2672  -3.503   5.771   7.017  0.8835  0.7107  0.7498
   84U       H6 2673  -3.452   5.718   7.096 -0.2939 -2.2967 -0.3324
   84U       C5 2674  -3.520   5.686   6.912  0.2618  0.6833  0.4872
   84U       H5 2675  -3.483   5.585   6.908  1.9894  1.2982 -0.0063
   84U       C4 2676  -3.592   5.721   6.793  0.1478  0.2106  0.3683
   84U       O4 2677  -3.596   5.658   6.685  0.0741 -0.2230 -0.0658
   84U       N3 2678  -3.655   5.846   6.808 -0.2230 -0.0098 -0.0270
   84U       H3 2679  -3.714   5.885   6.736 -1.8193 -1.8672  0.1897
   84U       C2 2680  -3.628   5.940   6.911 -0.9881 -0.3164  0.1075
   84U       O2 2681  -3.688   6.052   6.913  0.7904 -0.2948  0.0102
   84U      C3' 2682  -3.524   5.920   7.338  0.3612  0.4779 -0.0281
   84U      H3' 2683  -3.560   5.817   7.324 -0.0645  0.3749  1.6024
   84U      C2' 2684  -3.580   6.016   7.232 -0.0477 -0.0295  1.1242
   84U      H2' 2685  -3.683   6.003   7.201  0.4120  1.3326 -1.1977
   84U      O2' 2686  -3.566   6.153   7.270  0.5373  0.0398 -0.1678
   84U     HO2' 2687  -3.603   6.162   7.359  0.7121  2.5062 -0.2647
   84U      O3' 2688  -3.559   5.972   7.466  0.1464 -0.5300  0.4536
   85U        P 2689  -3.674   5.908   7.560 -0.1866  0.1000  0.5118
   85U      OP1 2690  -3.631   5.906   7.702  0.2532 -0.5793  0.3866
   85U      OP2 2691  -3.711   5.781   7.497 -0.2798  0.9086 -0.0588
   85U      O5' 2692  -3.812   5.989   7.530 -0.6481  0.1166 -0.1829
   85U      C5' 2693  -3.854   6.108   7.597 -0.7922  0.5648  0.6978
   85U      H5' 2694  -3.792   6.196   7.579 -1.5249  0.8918 -0.2825
   85U     H5'' 2695  -3.855   6.079   7.702  0.5684  0.1453  0.6103
   85U      C4' 2696  -3.991   6.153   7.548  0.0809 -0.3236  0.7123
   85U      H4' 2697  -4.022   6.225   7.624 -0.3551  0.3056 -0.0544
   85U      O4' 2698  -3.979   6.238   7.434 -0.2175  0.1025  0.4004
   85U      C1' 2699  -4.105   6.227   7.356  0.4079  0.1080  0.7467
   85U      H1' 2700  -4.156   6.322   7.339 -0.6640 -0.7269 -0.8173
   85U       N1 2701  -4.086   6.161   7.230 -0.1537 -0.9496  0.2143
   85U       C6 2702  -3.984   6.079   7.196 -0.9490 -0.7570  0.4526
   85U       H6 2703  -3.918   6.063   7.280  1.8476  0.8175 -1.2675
   85U       C5 2704  -3.972   6.002   7.087  0.2070  0.5494 -0.3142
   85U       H5 2705  -3.894   5.930   7.068  0.0174 -1.3565  4.7768
   85U       C4 2706  -4.069   6.023   6.981 -0.4216  0.4671 -0.4423
   85U       O4 2707  -4.071   5.952   6.887 -0.2676  0.3748 -0.0031
   85U       N3 2708  -4.160   6.122   7.006 -0.0654  0.7377  0.1476
   85U       H3 2709  -4.228   6.147   6.935  0.6009 -1.8383 -1.5196
   85U       C2 2710  -4.182   6.177   7.130 -0.1452  0.0902  0.4667
   85U       O2 2711  -4.287   6.239   7.145 -0.2152 -0.6058  0.5618
   85U      C3' 2712  -4.109   6.053   7.521 -0.0865 -0.5079 -0.0120
   85U      H3' 2713  -4.073   5.963   7.472  1.0628 -1.4448  2.3729
   85U      C2' 2714  -4.205   6.140   7.433  0.4008 -0.0992  0.2152
   85U      H2' 2715  -4.274   6.076   7.379  1.8460 -0.2409 -1.5489
   85U      O2' 2716  -4.282   6.230   7.517  0.1418 -0.2915 -0.1128
   85U     HO2' 2717  -4.363   6.253   7.470  0.0086  3.2631  1.5143
   85U      O3' 2718  -4.185   6.014   7.632  0.3610 -0.4495  0.0810
   86U        P 2719  -4.218   5.866   7.672 -0.4620  0.4409  0.0830
   86U      OP1 2720  -4.328   5.861   7.766 -0.1651 -0.8988  0.9388
   86U      OP2 2721  -4.085   5.789   7.699 -0.2230 -0.0305  0.2366
   86U      O5' 2722  -4.270   5.808   7.535  0.0550  0.5187  0.1052
   86U      C5' 2723  -4.403   5.842   7.487 -0.2532 -0.4383  0.7796
   86U      H5' 2724  -4.421   5.949   7.474  2.4253 -0.0035  0.0493
   86U     H5'' 2725  -4.475   5.808   7.561  4.3279 -2.1886  4.9925
   86U      C4' 2726  -4.437   5.775   7.355 -0.0589 -0.4153  0.1335
   86U      H4' 2727  -4.541   5.803   7.339  0.5541  1.7520 -0.3994
   86U      O4' 2728  -4.350   5.824   7.258  0.2366 -0.5406  0.4602
   86U      C1' 2729  -4.333   5.735   7.152 -0.2925  0.2404 -0.0304
   86U      H1' 2730  -4.382   5.771   7.061  2.6821  3.2521 -0.6512
   86U       N1 2731  -4.187   5.728   7.118 -0.1907  1.0812  0.2426
   86U       C6 2732  -4.087   5.715   7.213  0.2454 -0.3566 -0.3815
   86U       H6 2733  -4.113   5.746   7.313 -2.8895 -0.7177 -0.9932
   86U       C5 2734  -3.960   5.680   7.179 -0.2316  0.0625  0.3413
   86U       H5 2735  -3.882   5.672   7.252  0.8098  0.6634 -0.6722
   86U       C4 2736  -3.925   5.649   7.041 -0.4193  0.9083  0.4470
   86U       O4 2737  -3.819   5.596   6.998  0.3396 -0.3978 -0.4204
   86U       N3 2738  -4.025   5.673   6.951 -0.3547 -0.1732 -0.1048
   86U       H3 2739  -4.014   5.657   6.852 -0.5550  2.5724 -0.6668
   86U       C2 2740  -4.155   5.689   6.987 -0.2251 -0.2482  0.2842
   86U       O2 2741  -4.236   5.672   6.896  0.2783  0.3025 -0.0668
   86U      C3' 2742  -4.423   5.622   7.359 -0.1716 -0.5957 -0.4832
   86U      H3' 2743  -4.336   5.589   7.416  0.4127 -1.5742 -1.8754
   86U      C2' 2744  -4.395   5.607   7.207 -0.5739 -0.8208 -0.3950
   86U      H2' 2745  -4.327   5.525   7.183 -0.4692  0.2518 -4.5986
   86U      O2' 2746  -4.516   5.584   7.145  0.2830  0.8273  0.1784
   86U     HO2' 2747  -4.554   5.509   7.192  0.6512  1.7612  2.0930
   86U      O3' 2748  -4.532   5.573   7.425  0.2095 -0.3398 -0.2823
   87U3       P 2749  -4.544   5.420   7.462  0.2929  0.2700  0.6921
   87U3     OP1 2750  -4.655   5.409   7.562 -0.0772 -0.3378 -0.3118
   87U3     OP2 2751  -4.414   5.363   7.502 -0.0246  0.6735 -0.4794
   87U3     O5' 2752  -4.590   5.342   7.326 -0.3904 -0.1958 -0.5185
   87U3     C5' 2753  -4.725   5.337   7.278 -0.7073 -0.0474  0.2910
   87U3     H5' 2754  -4.765   5.438   7.277 -0.2161  0.2569  2.8575
   87U3    H5'' 2755  -4.797   5.300   7.351  0.6327 -1.5906  0.9046
   87U3     C4' 2756  -4.750   5.250   7.156 -0.8023  0.8405 -0.2494
   87U3     H4' 2757  -4.854   5.265   7.125 -1.0218 -0.4900 -0.2066
   87U3     O4' 2758  -4.668   5.297   7.045  0.1474 -0.1649 -1.0361
   87U3     C1' 2759  -4.579   5.201   6.994 -0.1086  0.5866 -0.1428
   87U3     H1' 2760  -4.613   5.173   6.894  1.5142 -0.5044 -0.4366
   87U3      N1 2761  -4.431   5.231   6.984  0.7971 -0.1882  0.0402
   87U3      C6 2762  -4.353   5.250   7.100  0.3769  0.0045 -0.0776
   87U3      H6 2763  -4.402   5.234   7.195  2.6769 -1.9517  0.8831
   87U3      C5 2764  -4.223   5.282   7.091  0.2737 -0.0422  1.0432
   87U3      H5 2765  -4.162   5.313   7.175  0.2735 -0.2820  1.1322
   87U3      C4 2766  -4.168   5.300   6.962  0.1251  0.4409  0.1988
   87U3      O4 2767  -4.051   5.323   6.941  0.2889 -0.1602 -0.1895
   87U3      N3 2768  -4.251   5.275   6.850 -0.3321 -0.9915  0.0496
   87U3      H3 2769  -4.213   5.262   6.758  0.8307 -1.8456  0.6165
   87U3      C2 2770  -4.381   5.234   6.856  0.2121  0.5135 -0.5255
   87U3      O2 2771  -4.444   5.224   6.753 -1.0856 -0.3878 -0.0100
   87U3     C3' 2772  -4.719   5.096   7.169  0.5531 -0.0133  0.9039
   87U3     H3' 2773  -4.698   5.070   7.273  1.0649  0.4979  0.9342
   87U3     C2' 2774  -4.598   5.075   7.080  0.3865  0.1213  0.4487
   87U3     H2' 2775  -4.518   5.066   7.154  1.6184  1.4065 -0.6855
   87U3     O2' 2776  -4.608   4.952   7.004 -0.3873 -0.2986 -0.1501
   87U3    HO2' 2777  -4.537   4.891   7.026  0.0583  0.5984  1.0388
   87U3     O3' 2778  -4.820   5.016   7.124 -0.5334  0.6192 -0.5942
   87U3    HO3' 2779  -4.773   4.940   7.089 -0.9980  0.4035 -0.7577
   88Na+    Na+ 2780  -4.844   9.811   5.954 -0.1991 -0.1083  0.3815
   89Na+    Na+ 2781  -3.374   4.714   6.100  0.0951  0.1528  0.6124
   90Na+    Na+ 2782  -3.439   3.877   5.163  0.2529 -0.4285 -0.4120
   91Na+    Na+ 2783  -2.453   3.714   2.802 -0.5617  0.5827 -0.0111
   92Na+    Na+ 2784  -5.732   7.362   6.616  0.4086 -0.0955  0.1006
   93Na+    Na+ 2785  -2.472   5.684   5.622  0.0738 -0.5442  0.5675
   94Na+    Na+ 2786  -3.551   5.578   7.453  0.0547 -0.3350  0.4387
   95Na+    Na+ 2787   0.353   2.588   7.191 -0.1310 -0.1770 -0.8849
   96Na+    Na+ 2788   4.487   6.123   6.993  0.1470  0.1834  0.2976
   97Na+    Na+ 2789  -5.221   6.776   5.672 -0.3459 -0.2598 -0.5221
   98Na+    Na+ 2790   3.213   5.741   0.520  0.3551 -0.0071  0.4208
   99Na+    Na+ 2791  -0.503   5.338   2.191  0.1250  0.5491 -0.0054
  100Na+    Na+ 2792  -1.992   5.876   6.150  0.6544 -0.3296 -0.2838
  101Na+    Na+ 2793   7.195   1.897   2.485  0.0452  0.1624  0.2246
  102Na+    Na+ 2794  -3.556   4.691   3.333  0.2377 -0.0057  0.1384
  103Na+    Na+ 2795  -5.586   6.097   8.180  0.4102 -0.3348  0.0962
  104Na+    Na+ 2796   3.054   1.127   2.465 -0.3117 -0.0460  0.6164
  105Na+    Na+ 2797   3.186   9.391   7.267  0.7711 -0.3956 -0.0228
  106Na+    Na+ 2798   3.534   2.449   1.274  0.1492 -0.6966  0.1248
  107Na+    Na+ 2799   5.952   7.176   1.451  0.2670 -0.3013 -0.3301
  108Na+    Na+ 2800  -3.089   4.379   4.920 -0.5564  0.3112 -0.0028
  109Na+    Na+ 2801  -5.103   5.755   6.375 -0.1369 -0.4691 -0.0481
  110Na+    Na+ 2802  -2.977   9.486   5.854 -0.2658 -0.1624 -0.1749
  111Na+    Na+ 2803  -3.183   4.846   4.157 -0.0547  0.7922  0.3227
  112Na+    Na+ 2804  -4.888   5.086   5.391 -0.3303  0.1619 -0.0782
  113Na+    Na+ 2805  -3.992   6.341   3.030 -0.0776 -0.0932  0.1773
  114Na+    Na+ 2806  -3.449   5.678   4.280 -0.0506  0.1930 -0.6207
  115Na+    Na+ 2807  -3.709   3.786   6.633  0.1065  0.0419  0.2149
  116Na+    Na+ 2808   9.449   0.727   1.967 -0.0329 -0.5633  0.3098
  117Na+    Na+ 2809  -3.433   6.489   6.903  0.2855  0.2511  0.4145
  118Na+    Na+ 2810  -4.224   3.915   4.674 -0.4722  0.1872  0.4692
  119Na+    Na+ 2811  -3.898   5.703   7.620 -0.0272  0.0848  0.0384
  120Na+    Na+ 2812   3.269   6.938   5.339  0.4750 -0.0500  0.6006
  121Na+    Na+ 2813  -3.245   4.691   7.404 -0.0490  0.0445  0.0287
  122Na+    Na+ 2814  -2.348   6.269   2.624  0.1602 -1.0270  0.5157
  123Na+    Na+ 2815   2.887   6.081   5.398  0.3866 -0.0523 -0.5522
  124Na+    Na+ 2816   5.684   6.428   4.715 -0.8032 -0.1404 -0.2606
  125Na+    Na+ 2817  -4.584   8.548   6.405 -0.0945 -0.2525  0.1158
  126Na+    Na+ 2818   3.943   7.156   6.176  0.0149  0.2619  0.2357
  127Na+    Na+ 2819   6.792   4.118   3.296  0.3492  0.7814  0.2129
  128Na+    Na+ 2820  -2.895   5.664   7.749  0.2516  0.8382 -0.2876
  129Na+    Na+ 2821   8.504   3.063   2.126  0.5212 -1.1162 -0.6683
  130Na+    Na+ 2822  -3.892   5.344   3.418  0.2511  0.3333 -0.0260
  131Na+    Na+ 2823  -3.329   6.264   3.370 -0.2755 -0.7522 -0.4045
  132Na+    Na+ 2824  -2.433   7.953   2.947 -0.5113  0.3168  0.9804
  133Na+    Na+ 2825  -1.432   1.702   7.878  0.2582  0.0095 -0.6742
  134Na+    Na+ 2826   3.846   4.031   8.667 -0.1450  0.5177 -0.0249
  135Na+    Na+ 2827   1.314   9.799   6.706  0.4173  0.2766 -0.1008
  136Na+    Na+ 2828   4.019   4.450   6.414  0.3665 -0.1480 -0.3198
  137Na+    Na+ 2829  -1.281   6.487   6.010  0.0785 -0.1289  0.1745
  138Na+    Na+ 2830   3.017   4.884   8.927 -0.4782 -0.4818 -0.2368
  139Na+    Na+ 2831  -3.371   5.871   6.014  0.3660 -0.5330 -0.0430
  140Na+    Na+ 2832   9.048   0.666   1.623 -0.0177 -0.1540 -0.0382
  141Na+    Na+ 2833  -3.506   3.959   4.035 -0.1457 -0.7905 -0.3495
  142Na+    Na+ 2834  -0.582   5.249   5.217  0.1702 -0.2368  0.2092
  143Na+    Na+ 2835  -3.222   5.413   5.930 -0.4793  0.1455  0.1710
  144Na+    Na+ 2836  -3.793   6.259   4.896 -0.2324 -0.1668  0.4466
  145Na+    Na+ 2837  -0.454   7.949   0.379 -0.0721 -0.1222  0.6886
  146Na+    Na+ 2838  -7.456   9.104   7.617  0.0275 -0.1728  0.3336
  147Na+    Na+ 2839  -3.553   7.152   4.798  0.2859  0.7574 -0.2481
  148Na+    Na+ 2840  -6.755   9.816   6.386  0.1036 -0.1277  0.1368
  149Na+    Na+ 2841   5.914   4.325   2.952 -0.0153  0.0321 -0.4844
  150Na+    Na+ 2842   8.108   2.145   2.478  0.1537  0.7899 -0.4114
  151Na+    Na+ 2843  -4.240   6.959   5.181 -0.1587  0.8244  0.3586
  152Na+    Na+ 2844   2.442   2.123   8.356  0.0633 -0.4066  0.3827
  153Na+    Na+ 2845  -5.818   6.159   6.036  0.3341 -0.4544 -0.0504
  154Na+    Na+ 2846  -3.064   4.660   6.620  0.0082  0.0240  0.6354
  155Na+    Na+ 2847  -1.899   6.461   2.609 -0.5193  0.5057  0.3063
  156Na+    Na+ 2848  -3.457   4.522   4.234 -0.0398 -0.0139  0.0707
  157Na+    Na+ 2849   4.104   3.173   4.218 -0.9724  0.1126  0.1402
  158Na+    Na+ 2850  -3.065   2.848   4.126  0.3722  0.1934 -0.1898
  159Na+    Na+ 2851  -2.737   6.650   1.452  0.2974 -0.1859 -0.6864
  160Na+    Na+ 2852   3.180   1.927   5.745 -0.0201  0.7106  0.3218
  161Na+    Na+ 2853  -1.712   3.929   2.290  0.0491  0.0306 -0.3862
  162Na+    Na+ 2854  -1.542   9.268   8.395 -0.2995  0.6568  0.4724
  163Na+    Na+ 2855  -2.221   2.445   2.559 -0.0651 -0.4184  0.3543
  164Na+    Na+ 2856  -5.971   6.413   7.369 -0.2101  0.3612  0.4163
  165Na+    Na+ 2857   5.796   4.130   0.462 -0.2760  0.4857  0.0724
  166Na+    Na+ 2858   4.846   6.344   0.155  1.0433  0.5563  0.5002
  167Na+    Na+ 2859  -5.767   5.532   7.243 -0.2544 -0.7352  0.0356
  168Na+    Na+ 2860   1.595   6.537   0.329  0.5046  0.2097  0.3220
  169Na+    Na+ 2861  -1.951   6.146   3.830  0.3949  0.2094  0.1016
  170Na+    Na+ 2862   0.262   9.040   3.360  0.1225 -0.1241 -0.0463
  171Na+    Na+ 2863  -1.663   4.714   4.533 -0.2593  0.0036 -0.8275
  172Na+    Na+ 2864  -3.208   3.561   3.457 -0.0770 -0.3579  0.1456
  173Na+    Na+ 2865   0.482  10.093   8.568  0.3571 -0.2779  0.0257
  174Na+    Na+ 2866  -3.526   4.891   4.603 -0.3946  0.3344 -0.0913
  175Na+    Na+ 2867  -2.441   0.814   4.782  0.3215  0.1439  0.2387
  176Na+    Na+ 2868  -3.518   6.002   5.326  0.0632 -0.1942  0.5333
  177Na+    Na+ 2869  -5.998   3.296   8.455  0.8943 -0.0694  0.6356
  178Na+    Na+ 2870  -3.735   2.292   6.518 -0.0793 -0.4190 -0.1502
  179Na+    Na+ 2871   5.549   3.098   2.291  0.1403  0.3918  0.1475
  180Na+    Na+ 2872   1.083   6.442   4.144  0.1850  0.7327 -0.0322
  181Na+    Na+ 2873   1.945   9.536   4.276  0.5154 -0.4543  0.2008
  182Na+    Na+ 2874  -1.807   3.691   3.504  0.0991  0.3392  0.5505
  183Na+    Na+ 2875   2.587  10.326   0.225  0.0493  0.5408 -0.0503
  184Na+    Na+ 2876  -2.837   4.509   5.847 -0.2283  0.2669 -0.0067
  185Na+    Na+ 2877  -3.685   7.238   6.415  0.1662 -0.9379 -0.2044
  186Na+    Na+ 2878  -1.107   8.366   6.221  0.4366 -0.3592  0.3840
  187Na+    Na+ 2879   0.135   6.293   8.367  0.1377  0.1030  0.0117
  188Na+    Na+ 2880  -6.824   9.036   8.484 -0.2969  0.1487  0.0539
  189Na+    Na+ 2881  -4.792   5.915   5.496  0.2083 -0.2224 -0.4292
  190Na+    Na+ 2882   3.082   4.612   6.259  0.1896 -0.3519  0.3701
  191Na+    Na+ 2883  -2.162   3.449   7.403 -0.1646  0.4469  0.1415
  192Na+    Na+ 2884   3.769   5.291   2.238 -0.3127  0.4567  0.0720
  193Na+    Na+ 2885  -4.987   5.093   6.996  0.2899 -0.6638 -0.5405
  194Na+    Na+ 2886  -5.801   5.816   6.688 -0.0804 -0.3993 -0.0669
  195Na+    Na+ 2887   3.517   3.549   6.337  0.4151 -0.5596  0.1238
  196Na+    Na+ 2888  -3.094   5.468   4.075  0.0764  0.0168  0.3922
  197Na+    Na+ 2889   1.939   8.474   5.852 -0.4260  0.7084 -0.6783
  198Na+    Na+ 2890   3.330   3.445   1.277 -0.3175  0.2545 -0.3768
  199Na+    Na+ 2891   1.487   8.860   7.475 -0.3436 -0.2806 -0.0284
  200Na+    Na+ 2892   6.828   3.097   2.245 -0.0574 -0.1212 -0.4731
  201Na+    Na+ 2893   5.710   4.124   2.122  0.2738 -0.3335  0.3734
  202Na+    Na+ 2894   3.183   9.221   1.767  0.0673 -0.1096 -0.4749
  203Na+    Na+ 2895   5.930   0.659   6.405 -0.2059 -0.2615  0.1417
  204Na+    Na+ 2896  -4.516   7.626   7.031  0.2984 -0.1728  0.3165
  205Na+    Na+ 2897   4.471   8.073   1.938  0.2642 -0.1993  0.6006
  206Na+    Na+ 2898   6.432   0.388   5.044 -0.3951 -0.7695 -0.0351
  207Na+    Na+ 2899   7.880   0.116   3.888  0.1701 -0.3753 -0.2857
  208Na+    Na+ 2900   4.939   0.831   2.427  0.2698 -0.2368  0.1031
  209Na+    Na+ 2901   4.979   6.090   4.981 -0.1712  0.1549 -0.2910
  210Na+    Na+ 2902   3.395   6.529   6.957 -0.1547  0.7521  0.1055
  211Na+    Na+ 2903   4.490   0.426   7.427 -0.1691 -0.2664  0.0871
  212Na+    Na+ 2904  -4.970   6.824   7.929  0.0218  0.3213  0.5927
  213Na+    Na+ 2905   1.824   2.530   1.726  0.7356 -0.1736 -0.5237
  214Na+    Na+ 2906   3.396   8.240   4.111 -0.4038  0.4463  0.4855
  215Na+    Na+ 2907   1.199   4.509   0.868 -0.2594 -0.2209 -0.0266
  216Na+    Na+ 2908  -0.505   5.602   3.542 -0.4210  0.0507 -0.7072
  217Na+    Na+ 2909  -5.283   5.309   5.790  0.1726  0.5379 -0.3229
  218Na+    Na+ 2910   5.529   1.537   5.832 -0.0747 -0.1419  0.1701
  219Na+    Na+ 2911   1.808   1.508   5.872 -0.2090  0.4856 -0.5420
  220Na+    Na+ 2912  -3.579   7.093   2.465 -0.4211 -0.4674 -0.4412
  221Na+    Na+ 2913  -0.252   0.023   1.969 -0.3728  0.2847  0.4422
  222Na+    Na+ 2914   2.891   4.641   7.825  0.7198  0.1102  0.5741
  223Na+    Na+ 2915  -3.888   3.646   4.282 -0.2020  0.1445 -0.3457
  224Na+    Na+ 2916  -3.118   7.108   8.185 -0.2374  0.4540  0.0331
  225Na+    Na+ 2917   1.462   9.002   3.636 -0.4680  0.0306  0.2584
  226Na+    Na+ 2918   7.704   4.511   2.388  0.4361  0.1548  0.2322
  227Na+    Na+ 2919   6.057   1.337   0.289  0.2481  0.6797  0.0331
  228Na+    Na+ 2920  -4.473   7.511   6.299 -0.3296  0.2873  0.6755
  229Na+    Na+ 2921  -3.735   5.628   3.571  0.1963 -0.0834 -0.2347
  230Na+    Na+ 2922  -2.004   5.050   3.278  0.2030 -0.2503 -0.4474
  231Na+    Na+ 2923  -2.697   4.694   2.330  0.2249 -0.1136 -0.0959
  232Na+    Na+ 2924  -4.378   9.912   1.984 -0.3149  0.5259  0.1265
  233Na+    Na+ 2925   4.739   4.446   5.958  0.3736 -0.8024  0.1227
  234Na+    Na+ 2926  -4.152   4.691   6.094  0.1205 -0.1919 -0.3291
  235Cl-    Cl- 2927   7.365   1.580   3.030 -0.7479  0.2294 -0.2824
  236Cl-    Cl- 2928   0.413   5.972   7.070  0.1233  0.3562  0.1867
  237Cl-    Cl- 2929  -0.562   8.380   4.334  0.1789  0.3856  0.1162
  238Cl-    Cl- 2930  -6.410   9.217   8.458  0.2926 -0.2395 -0.5866
  239Cl-    Cl- 2931   3.774   9.840   5.364  0.3501  0.0001 -0.2451
  240Cl-    Cl- 2932   4.752   1.851   8.189 -0.1544 -0.1940 -0.3030
  241Cl-    Cl- 2933  -7.044   7.811   7.927 -0.0671  0.2918 -0.5691
  242Cl-    Cl- 2934   3.058   7.094   5.279  0.0317  0.6784  0.1552
  243Cl-    Cl- 2935   4.466   0.192   6.720  0.0267 -0.1623  0.3906
  244Cl-    Cl- 2936   5.487   0.278   4.136 -0.2863 -0.1714  0.0203
  245Cl-    Cl- 2937   6.794   4.689   0.258 -0.0261 -0.2565  0.0280
  246Cl-    Cl- 2938   2.741   9.362   1.735  0.2474 -0.3889 -0.1883
  247Cl-    Cl- 2939   3.774   1.833   1.649  0.0880 -0.0306  0.0252
  248Cl-    Cl- 2940  -0.695   0.612   2.314 -0.0360 -0.2848  0.0789
  249Cl-    Cl- 2941  -1.495   1.136   2.418 -0.2633 -0.4169  0.0630
  250Cl-    Cl- 2942  -0.956   2.829   8.230 -0.4221 -0.0356 -0.3761
  251Cl-    Cl- 2943   2.060   8.853   4.896 -0.1418  0.0013 -0.2829
  252Cl-    Cl- 2944   2.942   6.312   0.953 -0.3409  0.1164 -0.2222
  253Cl-    Cl- 2945  -5.323   9.948   7.098 -0.4173 -0.4245  0.4939
  254Cl-    Cl- 2946   1.385   0.831   5.157  0.4386  0.1181  0.0397
  255Cl-    Cl- 2947   2.574   0.185   8.023  0.5268 -0.2061  0.3595
  256Cl-    Cl- 2948   3.935   6.084   3.676  0.0150 -0.1551 -0.0034
  257Cl-    Cl- 2949   0.584   4.976   0.461 -0.4933  0.0867 -0.1034
  258Cl-    Cl- 2950  -1.891   1.319   3.258 -0.6429  0.2795  0.2847
  259Cl-    Cl- 2951   1.392   2.840   2.068 -0.0773  0.4789  0.3786
  260Cl-    Cl- 2952   4.447   7.992   2.181  0.0758 -0.1055 -0.4938
  261Cl-    Cl- 2953   2.245   8.681   5.871 -0.2759  0.2147 -0.1861
  262Cl-    Cl- 2954   2.974   1.873   5.601  0.3499 -0.0623  0.1164
  263Cl-    Cl- 2955  -1.287   9.249   3.427  0.1182 -0.2023 -0.0147
  264Cl-    Cl- 2956  -0.962   6.509   6.260 -0.2428 -0.4716 -0.1030
  265Cl-    Cl- 2957   0.635   6.696   2.786 -0.1036  0.2806  0.3480
  266Cl-    Cl- 2958  -0.278   3.430   2.439  0.1074  0.0770 -0.3415
  267Cl-    Cl- 2959   4.150   2.201   1.543  0.4417  0.5728 -0.1108
  268Cl-    Cl- 2960  -4.120  10.242   2.040  0.3715 -0.0296 -0.4097
  269Cl-    Cl- 2961  -4.352   8.897   7.325 -0.5003 -0.3915 -0.3725
  270Cl-    Cl- 2962  -0.463   2.100   5.722 -0.0772  0.1382  0.2910
  271Cl-    Cl- 2963  -6.988   9.905   6.416 -0.1491 -0.0111 -0.3869
  272Cl-    Cl- 2964   6.066   1.115   1.302  0.3416  0.1706 -0.2936
  273Cl-    Cl- 2965   6.254   4.025   3.243 -0.0227  0.2224 -0.2055
  274Cl-    Cl- 2966   5.560   4.958   5.496  0.3027 -0.6420  0.4227
  275Cl-    Cl- 2967  -2.952   3.056   6.867  0.5080 -0.0542  0.2046
  276Cl-    Cl- 2968   6.974   0.861   5.024  0.2150  0.1167 -0.0011
  277Cl-    Cl- 2969   7.442   6.734   0.811  0.1804  0.0454 -0.2395
  278Cl-    Cl- 2970  -1.055   4.287   3.642 -0.0233 -0.1067  0.7433
  279Cl-    Cl- 2971  -3.690   2.961   7.496 -0.0366 -0.4688  0.2996
  280Cl-    Cl- 2972   1.235   0.935   1.049  0.5486 -0.1131 -0.5665
  281Cl-    Cl- 2973   1.479   2.376   8.874  0.0705 -0.0086 -0.0884
  282Cl-    Cl- 2974  -4.822   6.179   8.629 -0.1651  0.1425  0.1859
  283Cl-    Cl- 2975   6.719   0.497   4.775 -0.5154  0.4139 -0.0043
  284Cl-    Cl- 2976   3.357   3.202   0.653 -0.1632  0.3216  0.0955
  285Cl-    Cl- 2977   3.202   8.973   4.187 -0.4514 -0.3309  0.3743
  286Cl-    Cl- 2978  -8.400   9.439   8.591  0.0594 -0.2226  0.4851
  287Cl-    Cl- 2979  -1.530   8.083   0.384 -0.0567 -0.0453  0.0058
  288Cl-    Cl- 2980  -2.144   9.911   7.516  0.1479 -0.1112  0.3124
  289Cl-    Cl- 2981   5.457   3.598   2.297 -0.0660  0.0318 -0.0596
  290Cl-    Cl- 2982   2.504   7.741   6.830 -0.1690 -0.2125  0.0614
  291Cl-    Cl- 2983   0.007   8.471   6.405 -0.4413  0.1427 -0.4803
  292Cl-    Cl- 2984   5.722   4.372   0.567  0.0472  0.8801 -0.0044
  293Cl-    Cl- 2985   3.329   5.105   0.669 -0.1111  0.6052 -0.4524
  294Cl-    Cl- 2986   6.746   9.146   0.076  0.1976  0.0951  0.0573
  295Cl-    Cl- 2987  -6.294   8.297   6.858  0.3658 -0.2195 -0.0739
  296WAT      O 2988  -2.044   5.002   4.632  0.6345 -0.0451 -0.0168
  296WAT     H1 2989  -2.082   4.971   4.550 -1.2818 -0.0780  0.8463
  296WAT     H2 2990  -2.063   5.096   4.634 -0.8887 -0.3343  1.1405
  296WAT    EPW 2991  -2.051   5.010   4.621  0.1810 -0.0877  0.2499
  297WAT      O 2992   3.734   3.342   2.766  0.8119  0.1315 -0.0277
  297WAT     H1 2993   3.791   3.349   2.843  1.5832 -3.0991 -0.1375
  297WAT     H2 2994   3.742   3.427   2.723  1.6600  1.4853  2.5446
  297WAT    EPW 2995   3.743   3.354   2.771  1.0254 -0.1160  0.2970
  298WAT      O 2996   0.513   4.619   5.009  0.6091  0.3583  0.5532
  298WAT     H1 2997   0.600   4.579   5.007  0.9659  1.1072  1.0183
  298WAT     H2 2998   0.469   4.579   5.084  1.1241  1.1574  1.2897
  298WAT    EPW 2999   0.519   4.609   5.018  0.7241  0.5624  0.7117
  299WAT      O 3000  -0.932   1.547   8.844  0.3194  0.1781 -0.6457
  299WAT     H1 3001  -0.872   1.531   8.917 -1.4028 -1.0248  0.5590
  299WAT     H2 3002  -0.973   1.631   8.865  0.0378 -0.0248 -0.3883
  299WAT    EPW 3003  -0.929   1.556   8.856  0.0551 -0.0073 -0.4525
  300WAT      O 3004   4.955   0.878   3.892  0.1665 -0.2524 -1.0430
  300WAT     H1 3005   4.927   0.945   3.954 -2.1234  2.3578 -4.5412
  300WAT     H2 3006   5.051   0.887   3.889  0.2775  0.0128  1.4443
  300WAT    EPW 3007   4.964   0.888   3.899 -0.1209  0.1269 -1.1765
  301WAT      O 3008   5.325   9.249   0.897 -0.8554  0.2314 -0.0749
  301WAT     H1 3009   5.412   9.270   0.931 -0.7123  1.3527 -1.0510
  301WAT     H2 3010   5.341   9.180   0.832 -0.5149  1.1674 -1.0254
  301WAT    EPW 3011   5.338   9.242   0.893 -0.7915  0.5026 -0.3290
  302WAT      O 3012  -4.038   6.147   7.914 -0.2197 -0.3259 -0.3522
  302WAT     H1 3013  -4.111   6.103   7.871  0.1308 -1.4222  0.1282
  302WAT     H2 3014  -3.994   6.077   7.963  3.5883 -0.7439 -3.8158
  302WAT    EPW 3015  -4.042   6.132   7.915  0.3285 -0.5255 -0.7455
  303WAT      O 3016   1.422   8.197   7.363 -0.0280  0.2788 -0.2390
  303WAT     H1 3017   1.390   8.129   7.303 -0.2540  1.0481 -1.0107
  303WAT     H2 3018   1.457   8.149   7.438  0.8720 -0.7328 -1.2774
  303WAT    EPW 3019   1.422   8.182   7.365  0.0609  0.2465 -0.4778
  304WAT      O 3020   5.312   3.027   5.432 -0.5036  0.3707  0.1415
  304WAT     H1 3021   5.341   2.946   5.475  1.0391 -0.1108 -1.6633
  304WAT     H2 3022   5.261   3.072   5.499 -0.4167 -1.5371  1.5938
  304WAT    EPW 3023   5.309   3.022   5.447 -0.2890  0.0556  0.0949
  305WAT      O 3024   0.887   2.691   8.720  0.2398 -0.6290  0.7025
  305WAT     H1 3025   0.924   2.759   8.776  2.6443 -3.6162  3.0856
  305WAT     H2 3026   0.963   2.653   8.676 -1.0648 -1.6407 -0.7703
  305WAT    EPW 3027   0.902   2.695   8.722  0.3849 -1.1564  0.8225
  306WAT      O 3028  -3.416   9.289   8.693  0.2732 -0.4681 -0.6536
  306WAT     H1 3029  -3.326   9.316   8.677  0.2519  0.8756  1.1292
  306WAT     H2 3030  -3.469   9.361   8.660 -0.1076 -0.8268 -0.8381
  306WAT    EPW 3031  -3.411   9.302   8.687  0.2202 -0.3381 -0.4430
  307WAT      O 3032   5.581   3.378   3.341  0.1361 -0.1713  0.4335
  307WAT     H1 3033   5.503   3.353   3.390 -0.7098 -1.4924 -1.4984
  307WAT     H2 3034   5.610   3.459   3.382 -1.6222 -0.2213  1.8670
  307WAT    EPW 3035   5.575   3.385   3.353 -0.2077 -0.3521  0.3678
  308WAT      O 3036   0.531   0.756   2.181 -0.3667  1.2207  0.6302
  308WAT     H1 3037   0.480   0.818   2.130  0.7930  0.9204 -1.0035
  308WAT     H2 3038   0.617   0.797   2.189  0.6151 -0.3490 -1.0162
  308WAT    EPW 3039   0.536   0.769   2.175 -0.0843  0.9741  0.1975
  309WAT      O 3040   1.937   2.799   6.421 -0.5185 -0.3766  0.1915
  309WAT     H1 3041   1.892   2.715   6.423  2.0787 -1.8937 -0.3261
  309WAT     H2 3042   2.017   2.782   6.371  0.4837  2.2221  0.7466
  309WAT    EPW 3043   1.942   2.786   6.415 -0.0437 -0.2340  0.1965
  310WAT      O 3044  -1.935   9.887   1.330 -0.1295  0.3863 -0.0878
  310WAT     H1 3045  -1.928   9.982   1.315 -3.6192  1.0824  1.6838
  310WAT     H2 3046  -2.007   9.878   1.393 -1.3619 -3.5816 -1.7539
  310WAT    EPW 3047  -1.944   9.899   1.336 -0.7523 -0.0453 -0.0739
  311WAT      O 3048  -0.047  10.102   7.842  0.5861 -0.7610 -0.3573
  311WAT     H1 3049  -0.043  10.090   7.747  2.9592  1.1295 -0.5958
  311WAT     H2 3050  -0.112  10.172   7.854  2.6841  1.4321 -1.0010
  311WAT    EPW 3051  -0.055  10.110   7.831  1.1758 -0.2222 -0.4735
  312WAT      O 3052  -6.858   6.256   8.829  0.5522 -1.1480  0.2892
  312WAT     H1 3053  -6.794   6.231   8.763  1.3452 -0.8656  0.9361
  312WAT     H2 3054  -6.925   6.305   8.780  1.5996 -0.1334 -0.1543
  312WAT    EPW 3055  -6.859   6.259   8.814  0.7949 -0.9768  0.3161
  313WAT      O 3056   4.291   0.579   7.456 -0.4592 -0.3855 -0.5694
  313WAT     H1 3057   4.280   0.658   7.404 -0.1739 -1.5094 -2.4354
  313WAT     H2 3058   4.204   0.538   7.456 -0.8719  0.3891  1.2703
  313WAT    EPW 3059   4.278   0.584   7.450 -0.4761 -0.4315 -0.5727
  314WAT      O 3060  -1.070   6.198   7.892 -0.5639  0.0618  0.8053
  314WAT     H1 3061  -1.039   6.141   7.822  0.4386  1.3165  0.1875
  314WAT     H2 3062  -1.162   6.215   7.871 -0.5016 -0.2477  0.2670
  314WAT    EPW 3063  -1.078   6.193   7.880 -0.4234  0.1864  0.6528
  315WAT      O 3064   8.296   4.503   0.108 -0.9970  0.1903 -0.0793
  315WAT     H1 3065   8.362   4.563   0.074 -4.0813  3.9236 -0.1151
  315WAT     H2 3066   8.333   4.472   0.191  1.1443  1.4608 -0.4919
  315WAT    EPW 3067   8.309   4.507   0.115 -1.1210  0.8502 -0.1385
  316WAT      O 3068   4.556   7.817   2.442 -0.2086  0.1995 -0.1264
  316WAT     H1 3069   4.607   7.888   2.481  0.2631 -0.4865  0.5492
  316WAT     H2 3070   4.520   7.854   2.362  0.4040  1.0582 -0.0170
  316WAT    EPW 3071   4.558   7.831   2.437 -0.0656  0.2224 -0.0229
  317WAT      O 3072   1.887   7.819   2.152  0.5900 -0.2509 -0.1860
  317WAT     H1 3073   1.933   7.902   2.139 -2.3924  1.7393  0.8857
  317WAT     H2 3074   1.797   7.836   2.123 -0.3176 -2.9241  0.7234
  317WAT    EPW 3075   1.881   7.832   2.146  0.0769 -0.3409  0.0752
  318WAT      O 3076  -5.790   8.538   8.435 -0.6776  0.3389 -0.4180
  318WAT     H1 3077  -5.882   8.564   8.426 -0.7971 -0.3515 -1.3351
  318WAT     H2 3078  -5.793   8.443   8.446 -0.1204  0.4209  0.4958
  318WAT    EPW 3079  -5.803   8.529   8.435 -0.6196  0.2584 -0.4182
  319WAT      O 3080   0.241   2.424   6.768  0.4536 -0.9673 -0.6729
  319WAT     H1 3081   0.302   2.364   6.810  1.2367  1.4247  1.9244
  319WAT     H2 3082   0.167   2.431   6.829  0.2021  0.3473 -1.0779
  319WAT    EPW 3083   0.239   2.417   6.782  0.5237 -0.4784 -0.3836
  320WAT      O 3084   4.322   3.183   3.357  0.3072  0.5269  0.0524
  320WAT     H1 3085   4.396   3.242   3.346  0.2292  0.5922 -0.1220
  320WAT     H2 3086   4.339   3.139   3.441  1.4539 -0.7507 -0.7993
  320WAT    EPW 3087   4.334   3.185   3.367  0.4482  0.3669 -0.0830
  321WAT      O 3088   3.801   6.984   3.274  0.3990  1.0188 -0.4511
  321WAT     H1 3089   3.754   6.981   3.190 -1.3575  1.4457  0.4610
  321WAT     H2 3090   3.815   6.892   3.297  0.9424  0.8997 -1.2147
  321WAT    EPW 3091   3.797   6.972   3.266  0.2390  1.0595 -0.4315
  322WAT      O 3092  -3.335   3.579   5.874 -0.3014  0.5609 -0.1419
  322WAT     H1 3093  -3.273   3.594   5.946  0.5338  1.1590 -0.9564
  322WAT     H2 3094  -3.410   3.634   5.896  0.5580  1.8942 -0.4382
  322WAT    EPW 3095  -3.337   3.588   5.887 -0.0780  0.8156 -0.2882
  323WAT      O 3096   1.514   9.233   3.549  0.2062 -0.5276  0.6775
  323WAT     H1 3097   1.495   9.204   3.460  1.3349 -0.8835  0.5296
  323WAT     H2 3098   1.466   9.315   3.559  1.3408  0.3572 -0.8351
  323WAT    EPW 3099   1.505   9.240   3.539  0.5047 -0.4582  0.4586
  324WAT      O 3100   1.236   1.526   3.079  0.2556 -0.2706  0.2403
  324WAT     H1 3101   1.266   1.509   2.990  0.9370 -0.3519  0.4781
  324WAT     H2 3102   1.293   1.473   3.134  0.7901  0.8816  0.8241
  324WAT    EPW 3103   1.247   1.517   3.074  0.4159 -0.1293  0.3486
  325WAT      O 3104  -4.485   6.949   7.250  0.1901 -0.1863  0.3194
  325WAT     H1 3105  -4.457   6.870   7.203  0.2081  0.1471 -0.2480
  325WAT     H2 3106  -4.561   6.980   7.201 -0.2215 -0.2188  0.9342
  325WAT    EPW 3107  -4.491   6.942   7.237  0.1380 -0.1466  0.3257
  326WAT      O 3108   6.602   4.960   4.212  0.1235  0.2548 -0.3003
  326WAT     H1 3109   6.530   4.901   4.191  0.8221 -0.6810 -0.1337
  326WAT     H2 3110   6.579   5.042   4.169 -0.7194 -0.2244 -0.7914
  326WAT    EPW 3111   6.590   4.963   4.204  0.1042  0.0682 -0.3431
  327WAT      O 3112   2.686   0.556   0.957  0.1211 -0.4587 -0.3689
  327WAT     H1 3113   2.774   0.561   0.996 -0.7030  0.5549  1.4923
  327WAT     H2 3114   2.689   0.617   0.884  1.6887 -2.3435 -2.0087
  327WAT    EPW 3115   2.698   0.565   0.953  0.2192 -0.5736 -0.3397
  328WAT      O 3116   0.225   1.380   6.726  0.1463  0.1522  0.2126
  328WAT     H1 3117   0.185   1.457   6.685 -0.3201  0.1925  0.7402
  328WAT     H2 3118   0.192   1.380   6.816 -0.3807 -1.0162  0.0421
  328WAT    EPW 3119   0.215   1.390   6.732  0.0153  0.0035  0.2599
  329WAT      O 3120   3.585   0.205   0.371 -0.0360  0.2917  0.1728
  329WAT     H1 3121   3.633   0.127   0.344 -0.6816 -0.3046  0.6940
  329WAT     H2 3122   3.552   0.243   0.289  0.8391  0.3974 -0.1373
  329WAT    EPW 3123   3.587   0.200   0.357 -0.0057  0.2270  0.2006
  330WAT      O 3124   0.622   5.060   7.061  0.4907 -0.0101 -0.3005
  330WAT     H1 3125   0.685   4.990   7.077 -2.0285 -2.1799  0.9390
  330WAT     H2 3126   0.564   5.026   6.992  0.8065  2.0634 -1.6987
  330WAT    EPW 3127   0.622   5.047   7.054  0.2001 -0.0229 -0.3214
  331WAT      O 3128   2.934   1.788   0.789 -0.2279  0.6799  0.5016
  331WAT     H1 3129   3.027   1.777   0.809 -0.5445 -0.2842  1.5593
  331WAT     H2 3130   2.927   1.764   0.696  0.5028  0.3165  0.5317
  331WAT    EPW 3131   2.945   1.783   0.779 -0.1733  0.5048  0.6451
  332WAT      O 3132  -4.350   1.831   8.377  0.5299  0.2886 -0.0748
  332WAT     H1 3133  -4.265   1.846   8.417  1.1236 -0.1822 -1.1387
  332WAT     H2 3134  -4.332   1.777   8.300 -0.8843 -1.0868  0.4920
  332WAT    EPW 3135  -4.337   1.825   8.372  0.4218  0.0451 -0.1402
  333WAT      O 3136  -0.478   0.629   3.099  0.2812  0.0844  0.4638
  333WAT     H1 3137  -0.410   0.568   3.130  0.5402  0.2794  0.2824
  333WAT     H2 3138  -0.429   0.707   3.073 -0.0612  0.4214  0.8240
  333WAT    EPW 3139  -0.463   0.631   3.100  0.2702  0.1546  0.4874
  334WAT      O 3140   2.978   6.150   8.900  0.4651 -0.4415 -0.4102
  334WAT     H1 3141   3.071   6.134   8.884  0.7790  1.3861 -0.6353
  334WAT     H2 3142   2.940   6.158   8.813 -0.0646 -1.8984 -0.3323
  334WAT    EPW 3143   2.985   6.149   8.887  0.4365 -0.3927 -0.4296
  335WAT      O 3144   4.429   0.189   6.160  0.3307 -0.2837 -0.1875
  335WAT     H1 3145   4.512   0.209   6.117  0.7254 -0.1359  0.6203
  335WAT     H2 3146   4.440   0.100   6.192  0.3805 -0.0866  0.3608
  335WAT    EPW 3147   4.442   0.180   6.158  0.3893 -0.2382 -0.0086
  336WAT      O 3148   0.388   3.849   3.494 -0.6370  0.5200  0.1266
  336WAT     H1 3149   0.339   3.903   3.557 -0.9768  1.5245 -0.9774
  336WAT     H2 3150   0.388   3.900   3.413 -0.2172 -0.7600 -0.7059
  336WAT    EPW 3151   0.381   3.863   3.492 -0.6265  0.4836 -0.1287
  337WAT      O 3152  -2.487   9.409   1.432  0.2319  0.1221  0.2301
  337WAT     H1 3153  -2.462   9.486   1.380  0.6222  0.2749  0.6339
  337WAT     H2 3154  -2.581   9.401   1.419 -0.5543  2.8415  3.0120
  337WAT    EPW 3155  -2.496   9.418   1.423  0.1798  0.5007  0.6503
  338WAT      O 3156   6.736   0.435   3.457  0.1759  0.6894  0.1648
  338WAT     H1 3157   6.761   0.472   3.541 -0.9690  0.9959  0.3954
  338WAT     H2 3158   6.732   0.341   3.472  0.4467  0.7018  0.3174
  338WAT    EPW 3159   6.739   0.427   3.470  0.0606  0.7315  0.2153
  339WAT      O 3160   4.684   4.054   0.884  0.6048 -0.0043  0.3182
  339WAT     H1 3161   4.623   4.126   0.902  1.7019  0.6225  1.6712
  339WAT     H2 3162   4.771   4.091   0.898  1.2806 -1.1785 -0.5139
  339WAT    EPW 3163   4.687   4.068   0.888  0.8388 -0.0765  0.3869
  340WAT      O 3164   3.066   4.153   2.490 -0.4749 -1.0985 -0.1110
  340WAT     H1 3165   3.090   4.061   2.482  1.5378 -0.6103 -0.0675
  340WAT     H2 3166   3.048   4.182   2.401 -0.0429 -1.2682 -0.2548
  340WAT    EPW 3167   3.067   4.145   2.478 -0.1525 -1.0564 -0.1242
  341WAT      O 3168  -0.043   8.472   6.080  0.5490  0.1542  0.4245
  341WAT     H1 3169  -0.094   8.414   6.137 -1.3298  0.9220 -0.3820
  341WAT     H2 3170   0.004   8.530   6.140 -0.0103 -0.1846  1.2040
  341WAT    EPW 3171  -0.043   8.472   6.095  0.2274  0.2108  0.4210
  342WAT      O 3172  -0.933   9.132   8.665  0.6591  0.2235  0.3356
  342WAT     H1 3173  -0.913   9.159   8.576  0.3053  0.7933  0.4253
  342WAT     H2 3174  -0.975   9.046   8.655 -0.8643  0.9919 -0.1770
  342WAT    EPW 3175  -0.936   9.124   8.652  0.4115  0.4001  0.2799
  343WAT      O 3176   1.522   2.927   6.097 -0.0520 -0.3447 -0.8077
  343WAT     H1 3177   1.547   2.944   6.188 -0.5283 -0.8710 -0.5706
  343WAT     H2 3178   1.605   2.919   6.050  0.2164 -0.8499 -0.2641
  343WAT    EPW 3179   1.536   2.928   6.103 -0.0794 -0.4807 -0.7045
  344WAT      O 3180   2.492   2.800   5.328 -0.0372  0.1665  0.1328
  344WAT     H1 3181   2.440   2.761   5.397 -1.1237  1.5080  0.1177
  344WAT     H2 3182   2.497   2.893   5.352  1.6685  0.2224 -0.2963
  344WAT    EPW 3183   2.486   2.807   5.340  0.0445  0.3507  0.0741
  345WAT      O 3184  -1.076   9.847   4.560 -0.5320  0.2484 -0.5413
  345WAT     H1 3185  -1.113   9.935   4.553 -1.0699  0.0485 -0.2703
  345WAT     H2 3186  -1.048   9.826   4.471  0.6853  1.1494 -0.3979
  345WAT    EPW 3187  -1.077   9.856   4.547 -0.4424  0.3405 -0.4866
  346WAT      O 3188  -0.824   7.197   3.429  0.1128  0.3896 -0.7432
  346WAT     H1 3189  -0.831   7.101   3.426 -1.4974  0.4465  0.0120
  346WAT     H2 3190  -0.882   7.227   3.359  4.4483  0.8601 -4.6331
  346WAT    EPW 3191  -0.833   7.188   3.419  0.4723  0.4592 -1.1567
  347WAT      O 3192   3.574   4.565   3.114  0.1595  1.1627  0.1198
  347WAT     H1 3193   3.607   4.589   3.027 -0.4449 -3.7912 -1.7936
  347WAT     H2 3194   3.479   4.572   3.106  0.0833  0.3029  0.2514
  347WAT    EPW 3195   3.566   4.569   3.101  0.0697  0.3958 -0.1153
  348WAT      O 3196   7.034   0.597   5.505 -0.3641  0.6516  0.2079
  348WAT     H1 3197   6.960   0.545   5.537 -1.4402  2.3273  0.5612
  348WAT     H2 3198   7.062   0.649   5.580  2.5709 -1.3496  0.6857
  348WAT    EPW 3199   7.028   0.597   5.519 -0.1187  0.6086  0.3176
  349WAT      O 3200  -2.540   7.839   5.699  0.4917  0.0704 -0.7732
  349WAT     H1 3201  -2.586   7.826   5.781  1.6691 -1.4726 -0.3218
  349WAT     H2 3202  -2.450   7.860   5.724  0.2418  2.6858 -1.6438
  349WAT    EPW 3203  -2.534   7.840   5.713  0.6140  0.2117 -0.8285
  350WAT      O 3204   2.977   3.918   3.260  0.2803 -0.2731  0.4125
  350WAT     H1 3205   2.932   3.954   3.336  1.6621  0.3746  0.9506
  350WAT     H2 3206   2.994   3.994   3.204  0.7712 -0.4953  0.2515
  350WAT    EPW 3207   2.973   3.933   3.262  0.5274 -0.2171  0.4622
  351WAT      O 3208  -2.974   3.592   5.404 -0.0583  0.1779  0.3901
  351WAT     H1 3209  -3.013   3.518   5.357  1.0075 -0.1368 -0.0344
  351WAT     H2 3210  -2.991   3.573   5.497  1.2238 -1.2391  0.3752
  351WAT    EPW 3211  -2.982   3.580   5.410  0.2513 -0.0504  0.3319
  352WAT      O 3212  -1.478   3.466   8.426 -0.0539 -0.0546  0.1237
  352WAT     H1 3213  -1.505   3.529   8.493 -1.1650 -1.0478  0.6302
  352WAT     H2 3214  -1.551   3.405   8.419  2.5526 -3.9363  2.7970
  352WAT    EPW 3215  -1.491   3.467   8.434  0.1433 -0.6975  0.5426
  353WAT      O 3216  -2.583  -0.002   4.787 -0.1372 -0.7917 -0.2048
  353WAT     H1 3217  -2.530   0.015   4.865 -1.2979  0.7271  0.3129
  353WAT     H2 3218  -2.612   0.085   4.759  0.5957 -1.2422 -2.6285
  353WAT    EPW 3219  -2.580   0.012   4.794 -0.1936 -0.6508 -0.4563
  354WAT      O 3220   7.219   6.276   1.489  0.6351  0.2772 -0.2304
  354WAT     H1 3221   7.183   6.307   1.405 -1.2711  1.9556  1.1183
  354WAT     H2 3222   7.142   6.262   1.544  1.8168 -1.4259  1.0777
  354WAT    EPW 3223   7.204   6.278   1.485  0.5395  0.2739  0.1200
  355WAT      O 3224   1.626   0.672   8.355 -0.1283  0.0644 -0.0257
  355WAT     H1 3225   1.692   0.734   8.322  0.1881 -0.3968 -0.2676
  355WAT     H2 3226   1.677   0.606   8.402 -0.4724  0.0218  0.2931
  355WAT    EPW 3227   1.641   0.672   8.357 -0.1320 -0.0021 -0.0157
  356WAT      O 3228  -2.284   9.962   0.769 -0.1321 -0.7214 -0.6152
  356WAT     H1 3229  -2.261  10.055   0.765 -2.2872  0.0106  1.5203
  356WAT     H2 3230  -2.201   9.916   0.763  1.4613  1.5245  1.9904
  356WAT    EPW 3231  -2.270   9.968   0.768 -0.2062 -0.3285  0.0101
  357WAT      O 3232   4.487   6.921   5.841  0.6270 -1.4009  0.6756
  357WAT     H1 3233   4.424   6.985   5.808  1.3248 -0.4096  1.1948
  357WAT     H2 3234   4.547   6.907   5.767 -0.0747 -2.2034  0.2442
  357WAT    EPW 3235   4.487   6.928   5.827  0.6266 -1.3762  0.6874
  358WAT      O 3236   3.361   9.753   5.832 -0.1049 -0.9136  0.4237
  358WAT     H1 3237   3.299   9.699   5.783  1.8491 -0.2438 -3.1328
  358WAT     H2 3238   3.356   9.839   5.790 -0.1889  0.5741  3.2505
  358WAT    EPW 3239   3.352   9.757   5.820  0.1417 -0.6289  0.3273
  359WAT      O 3240  -3.625   7.208   5.209 -0.3549  0.8090 -0.9497
  359WAT     H1 3241  -3.582   7.126   5.182 -1.5603  0.1425 -0.9289
  359WAT     H2 3242  -3.625   7.262   5.130 -3.5964 -1.0140 -2.3720
  359WAT    EPW 3243  -3.619   7.204   5.195 -0.9414  0.4807 -1.1346
  360WAT      O 3244  -0.910   6.160   8.487  0.8473  0.2745  0.5480
  360WAT     H1 3245  -0.950   6.127   8.406  0.9858  1.2355  0.0786
  360WAT     H2 3246  -0.836   6.101   8.502  0.9199  0.1836 -0.1231
  360WAT    EPW 3247  -0.905   6.148   8.478  0.8751  0.3891  0.3977
  361WAT      O 3248  -5.658   5.687   6.821 -0.9494  0.4023  0.3119
  361WAT     H1 3249  -5.571   5.726   6.827 -1.1322  0.8987 -0.2184
  361WAT     H2 3250  -5.649   5.621   6.752 -0.8225 -0.0125  0.7228
  361WAT    EPW 3251  -5.645   5.684   6.813 -0.9565  0.4129  0.2959
  362WAT      O 3252  -3.089   5.287   4.634  0.1283 -0.3754  0.1477
  362WAT     H1 3253  -3.110   5.356   4.570  1.2743  0.5058  0.6944
  362WAT     H2 3254  -2.994   5.290   4.642  0.0582 -0.9625  1.3520
  362WAT    EPW 3255  -3.080   5.297   4.627  0.2701 -0.3369  0.3788
  363WAT      O 3256  -3.531   9.339   3.603 -0.2201  0.6057  0.6589
  363WAT     H1 3257  -3.458   9.294   3.562 -0.8053 -0.0850  0.3580
  363WAT     H2 3258  -3.561   9.401   3.537 -0.0530  0.7288  0.6980
  363WAT    EPW 3259  -3.526   9.341   3.589 -0.2753  0.5307  0.6244
  364WAT      O 3260  -5.363   1.506   8.860 -0.2560  0.4737  0.0134
  364WAT     H1 3261  -5.426   1.541   8.922 -0.7335 -0.8151  0.2928
  364WAT     H2 3262  -5.415   1.450   8.802  0.3172  0.9804 -1.0355
  364WAT    EPW 3263  -5.378   1.503   8.860 -0.2432  0.3705 -0.0882
  365WAT      O 3264  -1.295   8.004   0.571  0.2809 -0.1490  0.5887
  365WAT     H1 3265  -1.378   8.005   0.524 -0.0382 -0.5034  1.1293
  365WAT     H2 3266  -1.319   8.019   0.663  0.7654 -0.6749  0.8108
  365WAT    EPW 3267  -1.309   8.006   0.577  0.3027 -0.2656  0.6893
  366WAT      O 3268   4.143   2.392   5.939 -0.2774 -0.3525  0.6510
  366WAT     H1 3269   4.228   2.425   5.969 -1.0216  0.7573  1.6260
  366WAT     H2 3270   4.080   2.453   5.976 -1.6124 -1.9715  1.1265
  366WAT    EPW 3271   4.146   2.405   5.948 -0.5517 -0.4196  0.8423
  367WAT      O 3272   2.484   0.693   3.556 -0.3550  0.0363 -0.3901
  367WAT     H1 3273   2.515   0.604   3.540 -1.0931 -0.1158 -1.0661
  367WAT     H2 3274   2.555   0.749   3.524 -0.1872 -0.3063 -0.6280
  367WAT    EPW 3275   2.497   0.689   3.549 -0.4302 -0.0290 -0.5107
  368WAT      O 3276  -0.336   7.861   2.392  0.4352  0.2866 -0.0650
  368WAT     H1 3277  -0.312   7.952   2.372  0.3341  0.0080 -1.5468
  368WAT     H2 3278  -0.258   7.823   2.430  1.4266  0.2500 -1.9977
  368WAT    EPW 3279  -0.323   7.868   2.394  0.5527  0.2451 -0.5153
  369WAT      O 3280  -3.058   3.404   8.287 -0.0427 -0.4034 -0.0309
  369WAT     H1 3281  -3.068   3.319   8.246 -0.4019 -1.2212  1.6592
  369WAT     H2 3282  -2.965   3.423   8.282  0.7362 -2.7328  2.9117
  369WAT    EPW 3283  -3.047   3.396   8.281  0.0128 -0.8185  0.5798
  370WAT      O 3284  -3.486   8.217   2.723  0.8552 -0.0618  0.3644
  370WAT     H1 3285  -3.470   8.122   2.724  0.4240 -0.1407  0.7968
  370WAT     H2 3286  -3.438   8.249   2.647  0.1035 -0.7973 -0.4538
  370WAT    EPW 3287  -3.478   8.208   2.713  0.6992 -0.1688  0.3134
  371WAT      O 3288  -0.862   4.140   2.283  0.0947  0.2264 -0.0729
  371WAT     H1 3289  -0.925   4.143   2.211 -0.5858  1.4359  0.5359
  371WAT     H2 3290  -0.777   4.138   2.241 -0.2989  0.6315 -0.9073
  371WAT    EPW 3291  -0.859   4.140   2.268 -0.0469  0.4392 -0.1026
  372WAT      O 3292  -1.704   8.128   4.067  0.0429  0.9376 -0.0152
  372WAT     H1 3293  -1.773   8.195   4.073 -0.3366  0.7128 -1.4571
  372WAT     H2 3294  -1.623   8.175   4.087 -0.1692  1.9461 -1.3738
  372WAT    EPW 3295  -1.703   8.143   4.070 -0.0352  1.0414 -0.3846
  373WAT      O 3296  -0.444   9.748   3.528  1.3880 -0.7264 -1.0682
  373WAT     H1 3297  -0.406   9.696   3.458  0.9954 -2.2983 -0.1476
  373WAT     H2 3298  -0.532   9.713   3.540  1.1886 -0.0029 -0.2636
  373WAT    EPW 3299  -0.450   9.737   3.520  1.3099 -0.8383 -0.8407
  374WAT      O 3300  -2.148  10.217   7.394 -0.0991 -0.7384  0.3552
  374WAT     H1 3301  -2.059  10.249   7.376  0.3310 -2.4351 -0.7842
  374WAT     H2 3302  -2.135  10.128   7.425 -1.3617 -0.5320  1.5537
  374WAT    EPW 3303  -2.135  10.210   7.396 -0.2090 -0.9351  0.3631
  375WAT      O 3304   6.406   4.289   4.742  0.2705  0.9372 -0.3317
  375WAT     H1 3305   6.475   4.273   4.806  0.5711  0.4984 -0.7552
  375WAT     H2 3306   6.347   4.351   4.785  0.1060  0.1450  0.6231
  375WAT    EPW 3307   6.408   4.295   4.756  0.2885  0.7746 -0.2615
  376WAT      O 3308  -6.349   8.942   6.505  0.1337  0.3207 -0.3503
  376WAT     H1 3309  -6.341   9.015   6.444 -0.4238 -1.4857 -2.7123
  376WAT     H2 3310  -6.270   8.946   6.559  1.9640  0.5171 -2.9076
  376WAT    EPW 3311  -6.337   8.952   6.504  0.3014  0.1087 -0.9992
  377WAT      O 3312   1.826   0.168   6.710  0.1766 -0.3193  0.1843
  377WAT     H1 3313   1.851   0.142   6.622  0.7227 -1.2538  0.5992
  377WAT     H2 3314   1.731   0.159   6.713  0.0584  0.6149 -0.5843
  377WAT    EPW 3315   1.817   0.163   6.699  0.2330 -0.3193  0.1376
  378WAT      O 3316  -5.235   8.794   7.948 -0.0276  0.5574 -0.2482
  378WAT     H1 3317  -5.157   8.748   7.918 -0.1711  0.2628 -0.1709
  378WAT     H2 3318  -5.292   8.797   7.871 -1.0573 -1.5781  0.3610
  378WAT    EPW 3319  -5.232   8.789   7.934 -0.1822  0.2370 -0.1576
  379WAT      O 3320   4.495   2.115   8.513  0.2970  0.3141  0.7722
  379WAT     H1 3321   4.429   2.183   8.528 -0.9976 -0.7718  0.1674
  379WAT     H2 3322   4.445   2.034   8.504  1.5511 -0.3093 -1.4221
  379WAT    EPW 3323   4.479   2.113   8.514  0.2916  0.0886  0.4029
  380WAT      O 3324   5.699   2.923   5.483 -0.4947  0.0304  0.6661
  380WAT     H1 3325   5.616   2.881   5.505  0.7034 -2.5007  0.6863
  380WAT     H2 3326   5.712   2.904   5.390  0.4659 -0.4001  0.8725
  380WAT    EPW 3327   5.690   2.915   5.474 -0.2103 -0.3604  0.6959
  381WAT      O 3328  -0.949   6.800   7.625 -0.0560  0.3255 -0.1990
  381WAT     H1 3329  -0.972   6.853   7.548 -1.4905  1.1448  0.7294
  381WAT     H2 3330  -0.943   6.711   7.592 -2.4175  0.3789 -1.0248
  381WAT    EPW 3331  -0.951   6.795   7.611 -0.5566  0.4406 -0.1853
  382WAT      O 3332   1.593   1.662   7.553  0.1163  0.2287 -0.2296
  382WAT     H1 3333   1.555   1.746   7.578 -0.1639 -0.5567  2.1559
  382WAT     H2 3334   1.558   1.599   7.615 -1.4449 -2.1729 -3.2423
  382WAT    EPW 3335   1.583   1.664   7.564 -0.1266 -0.1916 -0.3123
  383WAT      O 3336  -3.451   9.411   1.104 -0.0580 -0.6024  0.1383
  383WAT     H1 3337  -3.448   9.440   1.013  0.1438 -3.1802 -0.7709
  383WAT     H2 3338  -3.438   9.316   1.099  4.1861 -0.4230  3.1562
  383WAT    EPW 3339  -3.449   9.402   1.091  0.5285 -0.9189  0.4164
  384WAT      O 3340  -0.793   7.734   2.983 -0.0170 -0.3351 -0.4155
  384WAT     H1 3341  -0.779   7.676   2.908 -4.4298  0.6983 -2.3664
  384WAT     H2 3342  -0.812   7.819   2.945 -1.0337  0.5935  1.9289
  384WAT    EPW 3343  -0.794   7.737   2.968 -0.7331 -0.0763 -0.3636
  385WAT      O 3344   2.266   6.955   1.586  0.0372  0.1223  0.3332
  385WAT     H1 3345   2.182   6.990   1.616 -0.8959 -1.5602 -0.1778
  385WAT     H2 3346   2.259   6.955   1.490  0.7383  0.1802  0.2737
  385WAT    EPW 3347   2.254   6.960   1.577  0.0066 -0.0920  0.2580
  386WAT      O 3348  -6.927   6.845   8.489  0.2902 -0.9234 -0.4562
  386WAT     H1 3349  -6.945   6.860   8.396  2.0188 -1.0097 -0.8486
  386WAT     H2 3350  -7.007   6.871   8.534 -0.1812  0.2069 -1.8818
  386WAT    EPW 3351  -6.940   6.851   8.483  0.4561 -0.7856 -0.6962
  387WAT      O 3352  -6.863   6.124   8.562  1.2486 -0.6177 -0.6527
  387WAT     H1 3353  -6.831   6.050   8.511  2.1939 -0.9860  0.4297
  387WAT     H2 3354  -6.943   6.091   8.604  0.9785 -0.6105 -1.1561
  387WAT    EPW 3355  -6.869   6.110   8.561  1.3378 -0.6652 -0.5765
  388WAT      O 3356  -3.846   8.727   6.066 -0.1097 -0.7463  0.0866
  388WAT     H1 3357  -3.772   8.667   6.056 -1.3873 -2.9643  2.5891
  388WAT     H2 3358  -3.921   8.680   6.028 -0.7577  0.2336  0.1166
  388WAT    EPW 3359  -3.846   8.713   6.060 -0.3637 -0.9093  0.4206
  389WAT      O 3360   6.517   2.759   2.831  0.2975 -0.6790 -0.3761
  389WAT     H1 3361   6.482   2.734   2.917 -1.1327 -0.5370 -0.8758
  389WAT     H2 3362   6.506   2.854   2.829  1.8607 -0.4735 -0.0953
  389WAT    EPW 3363   6.511   2.768   2.842  0.3150 -0.6331 -0.4050
  390WAT      O 3364  -4.334   8.687   6.586 -0.7024  0.1014 -0.0257
  390WAT     H1 3365  -4.329   8.761   6.647 -0.4270  0.4810 -0.5052
  390WAT     H2 3366  -4.245   8.680   6.549 -1.1133  0.5149 -1.1311
  390WAT    EPW 3367  -4.321   8.696   6.589 -0.7203  0.2060 -0.2346
  391WAT      O 3368   4.128   7.674   2.339 -1.2525 -0.7003  0.0285
  391WAT     H1 3369   4.173   7.718   2.411 -0.7866 -2.9240  1.1743
  391WAT     H2 3370   4.197   7.653   2.277 -1.2098 -1.2978  0.2777
  391WAT    EPW 3371   4.143   7.677   2.340 -1.1854 -1.0722  0.2126
  392WAT      O 3372  -1.332   6.502   1.571  0.5091  0.1618 -0.5200
  392WAT     H1 3373  -1.271   6.460   1.632 -0.8572 -0.2465  0.6226
  392WAT     H2 3374  -1.368   6.576   1.620 -0.2289  0.1416 -1.0144
  392WAT    EPW 3375  -1.329   6.506   1.585  0.2316  0.1054 -0.4345
  393WAT      O 3376  -1.075   1.578   5.805  1.2953 -0.2250  0.4971
  393WAT     H1 3377  -1.164   1.599   5.774  1.7065 -0.1369 -0.7002
  393WAT     H2 3378  -1.087   1.547   5.894 -0.2329 -2.4696 -0.3982
  393WAT    EPW 3379  -1.088   1.577   5.812  1.1479 -0.5094  0.2210
  394WAT      O 3380   2.035   7.613   1.151 -0.0129 -0.3276 -0.7380
  394WAT     H1 3381   2.090   7.593   1.227 -1.2019  3.8507  1.4815
  394WAT     H2 3382   2.095   7.650   1.087  0.2959  1.0499  0.3206
  394WAT    EPW 3383   2.050   7.615   1.152 -0.1290  0.4051 -0.3056
  395WAT      O 3384   6.011   9.945   1.091 -0.4592  0.5038 -0.2265
  395WAT     H1 3385   5.973  10.023   1.051  0.4476  1.0363 -0.0969
  395WAT     H2 3386   6.074   9.979   1.155 -0.8203 -0.3357  0.6126
  395WAT    EPW 3387   6.015   9.960   1.094 -0.3872  0.4635 -0.0987
  396WAT      O 3388   6.471   1.528   6.523  0.0935 -0.8639 -0.3528
  396WAT     H1 3389   6.447   1.617   6.548  3.4642  0.3448 -0.8484
  396WAT     H2 3390   6.388   1.482   6.517 -1.6585  1.6223  2.1008
  396WAT    EPW 3391   6.457   1.534   6.525  0.3071 -0.3765 -0.0947
  397WAT      O 3392  -0.977   5.137   0.532 -0.3349 -0.7882  0.1613
  397WAT     H1 3393  -1.003   5.228   0.517 -1.0823 -0.7005  1.7682
  397WAT     H2 3394  -0.889   5.131   0.494  1.0274  1.4760  2.5797
  397WAT    EPW 3395  -0.968   5.148   0.525 -0.2537 -0.4778  0.6922
  398WAT      O 3396  -2.239   6.390   0.193 -1.2003  0.1865 -0.9771
  398WAT     H1 3397  -2.286   6.392   0.110 -0.6135 -2.4471 -1.4564
  398WAT     H2 3398  -2.280   6.319   0.242  1.5637 -1.6327 -1.0607
  398WAT    EPW 3399  -2.251   6.381   0.189 -0.7584 -0.4010 -1.0513
  399WAT      O 3400   1.677   2.944   7.015  0.2080 -0.4902 -0.0844
  399WAT     H1 3401   1.709   2.989   7.093 -0.4221 -1.3939  0.7147
  399WAT     H2 3402   1.636   2.865   7.048  0.3056 -1.1043 -1.3796
  399WAT    EPW 3403   1.676   2.940   7.030  0.1378 -0.6905 -0.1500
  400WAT      O 3404  -4.591   2.416   7.229  0.3632 -0.3690  0.0902
  400WAT     H1 3405  -4.568   2.493   7.178 -0.2927 -1.0235 -1.2217
  400WAT     H2 3406  -4.510   2.364   7.232  0.8239  0.3683  1.0296
  400WAT    EPW 3407  -4.577   2.420   7.223  0.3374 -0.3581  0.0412
  401WAT      O 3408   1.985   6.260   0.639  0.1505 -0.4815 -0.2201
  401WAT     H1 3409   1.965   6.340   0.688  1.4974 -0.4905  0.3908
  401WAT     H2 3410   2.080   6.255   0.639  0.1414 -1.1068 -1.8842
  401WAT    EPW 3411   1.995   6.270   0.646  0.3269 -0.5651 -0.3590
  402WAT      O 3412  -4.890   9.026   8.722 -0.5177 -0.1963 -0.6575
  402WAT     H1 3413  -4.824   8.957   8.722 -0.3783 -0.1083  1.2351
  402WAT     H2 3414  -4.971   8.982   8.695 -1.0002 -1.7688  2.8624
  402WAT    EPW 3415  -4.892   9.012   8.718 -0.5629 -0.3920  0.0567
  403WAT      O 3416  -1.825   5.049   6.845  0.5389 -0.4511  0.0304
  403WAT     H1 3417  -1.742   5.064   6.891  1.5879  1.2722 -2.1802
  403WAT     H2 3418  -1.877   5.127   6.864  0.6563 -0.1179 -0.9274
  403WAT    EPW 3419  -1.821   5.061   6.853  0.6927 -0.1800 -0.3874
  404WAT      O 3420   5.106   2.198   4.928 -0.2957  0.9389 -0.1708
  404WAT     H1 3421   5.045   2.221   4.859 -1.1026 -3.0308 -1.0185
  404WAT     H2 3422   5.051   2.183   5.005  0.0457  0.9163  0.0713
  404WAT    EPW 3423   5.091   2.199   4.929 -0.3569  0.4123 -0.2508
  405WAT      O 3424  -5.618   7.679   8.947  0.3374 -0.4716 -0.5289
  405WAT     H1 3425  -5.544   7.703   9.002  1.1887  1.0590 -2.2248
  405WAT     H2 3426  -5.587   7.693   8.858 -2.5218  2.0734 -1.3004
  405WAT    EPW 3427  -5.604   7.684   8.942  0.0725  0.0658 -0.8545
  406WAT      O 3428   3.447   3.716   1.881  0.2825  0.1336  0.0422
  406WAT     H1 3429   3.468   3.796   1.832 -0.0405 -1.3421 -2.7248
  406WAT     H2 3430   3.529   3.667   1.883  0.5744  0.6409  2.0639
  406WAT    EPW 3431   3.460   3.720   1.875  0.2785  0.0058 -0.0561
  407WAT      O 3432  -0.990   3.594   7.634  0.8150 -0.1608  1.2049
  407WAT     H1 3433  -0.993   3.685   7.666  0.4223  1.0160 -1.8357
  407WAT     H2 3434  -1.046   3.595   7.556  0.6612 -3.1072  1.1822
  407WAT    EPW 3435  -0.998   3.606   7.628  0.7429 -0.3942  0.8011
  408WAT      O 3436   2.575   4.023   4.628 -0.1613  0.3574 -0.0643
  408WAT     H1 3437   2.607   3.966   4.557 -0.2286  0.3262 -0.0697
  408WAT     H2 3438   2.644   4.088   4.639  0.2473 -0.1449  0.4287
  408WAT    EPW 3439   2.588   4.024   4.620 -0.1163  0.2871  0.0000
  409WAT      O 3440   7.785   5.184   0.003  0.7969  0.7431  0.4738
  409WAT     H1 3441   7.852   5.223  -0.053  0.8767 -0.0016  0.0419
  409WAT     H2 3442   7.817   5.198   0.093  1.2448  0.8973  0.2924
  409WAT    EPW 3443   7.798   5.191   0.008  0.8665  0.6652  0.3934
  410WAT      O 3444   6.872   7.570   1.252  0.0734 -0.1589  0.2587
  410WAT     H1 3445   6.827   7.638   1.302  3.8089  1.2061  2.1092
  410WAT     H2 3446   6.901   7.507   1.318 -0.2381 -1.7380 -1.0260
  410WAT    EPW 3447   6.870   7.570   1.267  0.5250 -0.1872  0.3333
  411WAT      O 3448   0.184   9.278   4.117  0.2039 -0.0920 -0.1813
  411WAT     H1 3449   0.145   9.362   4.138  1.0997  0.3317 -0.1693
  411WAT     H2 3450   0.111   9.225   4.086 -0.1282  1.2515 -1.8937
  411WAT    EPW 3451   0.169   9.282   4.115  0.2782  0.1411 -0.4053
  412WAT      O 3452  -1.229   3.186   3.495  0.2604 -0.1080 -0.1943
  412WAT     H1 3453  -1.170   3.251   3.455  0.2863  0.4163  0.6715
  412WAT     H2 3454  -1.188   3.102   3.476  1.5792  0.2752  0.8323
  412WAT    EPW 3455  -1.216   3.184   3.487  0.4378  0.0117  0.0553
  413WAT      O 3456  -1.455   5.251   1.156  0.8976  0.9951  0.1212
  413WAT     H1 3457  -1.508   5.208   1.089  0.6521  0.3910  0.6973
  413WAT     H2 3458  -1.495   5.338   1.165  0.5825  0.8788 -0.1092
  413WAT    EPW 3459  -1.467   5.257   1.148  0.8236  0.9000  0.1668
  414WAT      O 3460  -4.578   8.732   3.550 -0.1694  0.4044 -0.3760
  414WAT     H1 3461  -4.661   8.718   3.594  0.4670 -3.5375 -0.1125
  414WAT     H2 3462  -4.517   8.754   3.620 -0.0920 -1.3767  0.1574
  414WAT    EPW 3463  -4.581   8.733   3.565 -0.0753 -0.3500 -0.2710
  415WAT      O 3464   6.840   9.908   0.058  0.6566  0.2277  0.0416
  415WAT     H1 3465   6.931   9.886   0.035  1.0565  1.0136  0.8195
  415WAT     H2 3466   6.848   9.969   0.131 -0.3395  3.8227 -2.5871
  415WAT    EPW 3467   6.853   9.913   0.064  0.5779  0.8049 -0.2025
  416WAT      O 3468  -3.909   4.885   5.845  0.0125 -0.4989 -0.5944
  416WAT     H1 3469  -3.943   4.807   5.800 -3.1237  1.1748 -1.4494
  416WAT     H2 3470  -3.865   4.934   5.776  0.5438 -0.7461 -0.4324
  416WAT    EPW 3471  -3.908   4.881   5.830 -0.3310 -0.3109 -0.6859
  417WAT      O 3472  -3.067   9.393   3.588  0.3273  0.4158  0.1552
  417WAT     H1 3473  -3.028   9.427   3.668  0.1186  2.2633 -0.4751
  417WAT     H2 3474  -2.994   9.355   3.539  0.7684  0.8923  0.4401
  417WAT    EPW 3475  -3.052   9.393   3.592  0.3579  0.7224  0.1097
  418WAT      O 3476   4.982   6.968   0.740 -0.3088  0.3235 -0.3387
  418WAT     H1 3477   5.008   7.058   0.757  1.2070 -0.0455 -0.5154
  418WAT     H2 3478   4.905   6.954   0.794 -0.3395  1.6107 -0.0255
  418WAT    EPW 3479   4.976   6.978   0.749 -0.1132  0.4447 -0.3207
  419WAT      O 3480  -1.660   7.366   6.413  0.3708  0.3384 -0.4922
  419WAT     H1 3481  -1.701   7.280   6.421  2.1198 -0.4448  0.4753
  419WAT     H2 3482  -1.712   7.411   6.347 -1.7144 -0.7728  0.2982
  419WAT    EPW 3483  -1.672   7.361   6.406  0.3265  0.0887 -0.2604
  420WAT      O 3484  -2.966   6.565   7.021  0.0538 -0.1120 -0.4876
  420WAT     H1 3485  -2.946   6.649   6.979 -2.2896  1.1944  0.8093
  420WAT     H2 3486  -3.059   6.571   7.043 -0.9866 -4.1625 -2.7327
  420WAT    EPW 3487  -2.976   6.577   7.018 -0.3924 -0.4740 -0.6127
  421WAT      O 3488  -1.467   0.091   8.721  0.0824 -0.4799  0.7144
  421WAT     H1 3489  -1.504   0.151   8.657 -0.5277 -0.2711  1.2490
  421WAT     H2 3490  -1.387   0.059   8.680  0.6442  1.0150  0.5793
  421WAT    EPW 3491  -1.461   0.095   8.707  0.0761 -0.2552  0.7672
  422WAT      O 3492   3.979   2.958   2.839  0.1409 -0.1165 -0.0087
  422WAT     H1 3493   3.927   2.965   2.919 -0.2703  1.3795 -0.3724
  422WAT     H2 3494   3.997   2.864   2.830 -0.7836 -0.4346  1.2060
  422WAT    EPW 3495   3.975   2.947   2.848 -0.0354  0.0389  0.1035
  423WAT      O 3496   1.914   8.411   1.868 -0.4420  0.2268 -0.1860
  423WAT     H1 3497   1.872   8.385   1.786 -1.7499 -2.0956  1.1058
  423WAT     H2 3498   1.851   8.470   1.909 -1.8598 -1.9993  1.0205
  423WAT    EPW 3499   1.900   8.416   1.863 -0.8015 -0.3729  0.1435
  424WAT      O 3500   1.494   1.250   0.705  0.1638 -0.2807  0.0568
  424WAT     H1 3501   1.512   1.292   0.789 -0.1298 -1.0733  0.5287
  424WAT     H2 3502   1.472   1.159   0.728 -0.1601 -0.4420 -0.8536
  424WAT    EPW 3503   1.494   1.243   0.720  0.0824 -0.4065 -0.0010
  425WAT      O 3504   3.079   8.375   1.990  0.1441  0.6242  0.4260
  425WAT     H1 3505   3.170   8.379   2.020  0.3527  1.6006 -0.2820
  425WAT     H2 3506   3.058   8.466   1.968  0.0007  0.0169 -2.3395
  425WAT    EPW 3507   3.088   8.388   1.991  0.1527  0.6733 -0.0321
  426WAT      O 3508   2.584   1.292   8.229  0.0600  0.6801  1.1846
  426WAT     H1 3509   2.653   1.357   8.242  0.7017 -0.1965  2.5065
  426WAT     H2 3510   2.631   1.215   8.196 -0.6023  0.6951  0.1843
  426WAT    EPW 3511   2.600   1.290   8.227  0.0575  0.5664  1.2274
  427WAT      O 3512   1.935   8.610   6.651 -0.9981 -0.7990 -0.4578
  427WAT     H1 3513   2.002   8.542   6.639 -0.7875 -0.3821 -1.8018
  427WAT     H2 3514   1.978   8.677   6.704 -0.7754 -1.1293 -0.2201
  427WAT    EPW 3515   1.950   8.610   6.656 -0.9410 -0.7873 -0.6037
  428WAT      O 3516  -3.058   3.425   8.756  0.4012  0.1307  0.0745
  428WAT     H1 3517  -2.977   3.476   8.751  0.5855 -0.1380  0.3079
  428WAT     H2 3518  -3.046   3.367   8.832 -0.7221  1.3285  1.2320
  428WAT    EPW 3519  -3.046   3.424   8.766  0.2774  0.2532  0.2580
  429WAT      O 3520   6.078   8.767   0.674 -0.0364  0.1708  0.1754
  429WAT     H1 3521   6.047   8.848   0.715  0.1068 -0.6562  2.0162
  429WAT     H2 3522   6.001   8.710   0.673  0.6757 -0.9622  2.3715
  429WAT    EPW 3523   6.063   8.770   0.680  0.0763 -0.0877  0.7078
  430WAT      O 3524  -2.107   8.031   0.661  0.0337 -0.2954  0.0706
  430WAT     H1 3525  -2.118   8.070   0.747 -0.3137  0.9366 -0.5019
  430WAT     H2 3526  -2.012   8.020   0.652  0.1400  0.3696  0.2884
  430WAT    EPW 3527  -2.096   8.035   0.671  0.0019 -0.0453  0.0238
  431WAT      O 3528  -1.271   1.464   3.621  0.1110  0.4387 -0.3551
  431WAT     H1 3529  -1.322   1.427   3.550 -2.1029 -1.0749  1.8757
  431WAT     H2 3530  -1.182   1.472   3.585 -1.0828  0.7001 -3.5329
  431WAT    EPW 3531  -1.266   1.460   3.607 -0.3386  0.2736 -0.4799
  432WAT      O 3532   2.454   3.202   7.980 -0.0905  0.4982  0.2180
  432WAT     H1 3533   2.376   3.238   8.020 -0.4707  0.6409 -0.6230
  432WAT     H2 3534   2.503   3.278   7.949 -0.8951  0.3544 -1.5600
  432WAT    EPW 3535   2.450   3.217   7.981 -0.2468  0.4981 -0.1276
  433WAT      O 3536   6.751   2.889   4.940 -0.1478 -0.4067 -0.4515
  433WAT     H1 3537   6.846   2.886   4.949 -0.3426 -0.6935  2.2149
  433WAT     H2 3538   6.718   2.880   5.029 -2.7039 -0.6490 -1.3402
  433WAT    EPW 3539   6.759   2.887   4.953 -0.5107 -0.4765 -0.2172
  434WAT      O 3540   1.889   3.587   7.916  0.1638  0.6307 -0.0197
  434WAT     H1 3541   1.898   3.636   7.998 -0.2320 -1.5447  1.4115
  434WAT     H2 3542   1.807   3.539   7.926 -0.8481  1.6901 -2.5217
  434WAT    EPW 3543   1.880   3.587   7.928 -0.0219  0.4835 -0.1609
  435WAT      O 3544  -3.596   8.757   1.654 -0.1563 -0.5561 -0.0825
  435WAT     H1 3545  -3.546   8.733   1.732 -1.4629 -1.8461  0.3919
  435WAT     H2 3546  -3.616   8.850   1.665  1.4542 -0.1974  0.0683
  435WAT    EPW 3547  -3.592   8.766   1.665 -0.1162 -0.6790 -0.0001
  436WAT      O 3548  -1.435   2.244   5.339  0.6679  0.0377 -0.4258
  436WAT     H1 3549  -1.341   2.234   5.323  0.6249  0.3302 -0.8874
  436WAT     H2 3550  -1.456   2.333   5.310  0.7954  1.1073  2.4563
  436WAT    EPW 3551  -1.426   2.254   5.333  0.6790  0.2174 -0.1066
  437WAT      O 3552  -5.708   8.433   7.345 -0.1225  0.6004  0.3795
  437WAT     H1 3553  -5.795   8.458   7.377 -1.0292 -2.4078  0.5882
  437WAT     H2 3554  -5.724   8.397   7.258  1.2696  1.9737 -0.4812
  437WAT    EPW 3555  -5.722   8.431   7.338 -0.0584  0.3853  0.2933
  438WAT      O 3556   0.661   1.852   8.502 -0.0525  0.0860  0.3820
  438WAT     H1 3557   0.657   1.760   8.530 -0.7502 -0.0900 -0.2481
  438WAT     H2 3558   0.733   1.855   8.439 -0.5493 -0.2258 -0.2214
  438WAT    EPW 3559   0.670   1.840   8.497 -0.2100  0.0217  0.2189
  439WAT      O 3560   1.284   1.633   3.717 -0.6733  0.1842  0.4831
  439WAT     H1 3561   1.289   1.620   3.623 -0.2609 -0.5725  0.6023
  439WAT     H2 3562   1.358   1.584   3.752  0.9689  2.8177  0.9776
  439WAT    EPW 3563   1.294   1.625   3.709 -0.4023  0.4318  0.5641
  440WAT      O 3564  -8.144  10.245   7.492 -0.0891  0.1187 -0.3671
  440WAT     H1 3565  -8.100  10.321   7.529 -0.3700 -0.0380  0.2961
  440WAT     H2 3566  -8.125  10.250   7.398 -1.0851  1.6545 -0.5144
  440WAT    EPW 3567  -8.135  10.255   7.484 -0.2575  0.3004 -0.2992
  441WAT      O 3568  -1.021   3.274   6.729 -0.2276  0.0113 -0.0015
  441WAT     H1 3569  -1.007   3.333   6.803 -0.9655  0.4266 -0.1826
  441WAT     H2 3570  -1.008   3.330   6.652 -0.5789 -0.1396 -0.1732
  441WAT    EPW 3571  -1.018   3.289   6.729 -0.3712  0.0463 -0.0479
  442WAT      O 3572  -0.291   3.946   7.303  0.2376 -0.3750  0.3430
  442WAT     H1 3573  -0.271   3.949   7.210  0.1748  0.6367  0.3527
  442WAT     H2 3574  -0.208   3.965   7.346  0.1432 -0.2587  0.4759
  442WAT    EPW 3575  -0.277   3.949   7.296  0.2169 -0.2263  0.3617
  443WAT      O 3576   2.916   8.943   3.381 -0.3553 -0.3119  0.0973
  443WAT     H1 3577   2.850   8.883   3.415 -1.3886  0.3934 -0.6188
  443WAT     H2 3578   2.867   9.006   3.329  0.8871  0.2259 -0.4657
  443WAT    EPW 3579   2.901   8.943   3.379 -0.3276 -0.1478 -0.0714
  444WAT      O 3580   1.035   7.393   5.213 -0.0254 -0.7804 -0.3588
  444WAT     H1 3581   1.019   7.487   5.208  2.4049 -0.2460  0.5282
  444WAT     H2 3582   0.986   7.364   5.290  0.8047  0.1895  0.5692
  444WAT    EPW 3583   1.026   7.402   5.223  0.4047 -0.5817 -0.1194
  445WAT      O 3584  -2.082   8.686   6.919 -0.0908  0.3507  0.5241
  445WAT     H1 3585  -2.042   8.732   6.993 -0.0965 -0.7931  1.2536
  445WAT     H2 3586  -2.014   8.626   6.889 -0.5902 -0.2177  0.5247
  445WAT    EPW 3587  -2.067   8.684   6.925 -0.1575  0.1249  0.6204
  446WAT      O 3588   1.049   9.147   8.368  0.0896  0.2897  0.5075
  446WAT     H1 3589   0.955   9.134   8.382 -0.1415 -2.0114 -2.2305
  446WAT     H2 3590   1.090   9.069   8.406  1.0590  1.6616  2.4182
  446WAT    EPW 3591   1.042   9.135   8.375  0.1870  0.1664  0.3986
  447WAT      O 3592   5.952   4.487   5.025 -0.7998  0.6852 -0.2601
  447WAT     H1 3593   6.044   4.465   5.013 -1.4665 -2.7919  0.0475
  447WAT     H2 3594   5.909   4.451   4.948 -2.2544 -0.7774  1.1655
  447WAT    EPW 3595   5.959   4.479   5.013 -1.0796  0.0336 -0.0315
  448WAT      O 3596  -3.800   1.683   7.338  0.1278 -0.4190 -0.6214
  448WAT     H1 3597  -3.791   1.697   7.244  0.4952 -0.5929 -0.6119
  448WAT     H2 3598  -3.802   1.771   7.376 -0.3712 -0.3387 -0.8206
  448WAT    EPW 3599  -3.799   1.697   7.331  0.1105 -0.4314 -0.6461
  449WAT      O 3600  -1.055   9.568   8.113 -0.0500  0.0650 -0.2397
  449WAT     H1 3601  -1.052   9.631   8.186 -0.1941  1.5839 -1.5051
  449WAT     H2 3602  -1.017   9.616   8.039  0.8134 -1.7129 -0.9941
  449WAT    EPW 3603  -1.050   9.583   8.113  0.0448  0.0310 -0.5059
  450WAT      O 3604   2.462   3.534   4.844 -0.3081  0.2515 -0.0588
  450WAT     H1 3605   2.386   3.564   4.794 -0.2464  0.6815  0.0962
  450WAT     H2 3606   2.444   3.442   4.862  0.5535 -0.4966 -2.5591
  450WAT    EPW 3607   2.449   3.526   4.840 -0.1864  0.2096 -0.3681
  451WAT      O 3608   0.390   3.401   5.917 -0.1734  0.3314  0.5264
  451WAT     H1 3609   0.318   3.343   5.892  1.7651 -1.7660 -0.5333
  451WAT     H2 3610   0.375   3.481   5.866 -0.7259 -0.7940 -1.1595
  451WAT    EPW 3611   0.379   3.404   5.907  0.0094 -0.0936  0.1643
  452WAT      O 3612  -6.065   9.410   6.143 -0.0752 -0.4604 -0.6619
  452WAT     H1 3613  -5.988   9.362   6.172  1.5484  1.2135 -1.9049
  452WAT     H2 3614  -6.072   9.483   6.204 -0.1234 -0.1413 -1.0396
  452WAT    EPW 3615  -6.056   9.413   6.155  0.1323 -0.1979 -0.8759
  453WAT      O 3616   8.485   2.052   0.423 -0.3747  0.3924  0.0344
  453WAT     H1 3617   8.565   2.102   0.439 -0.4855  0.3486  0.7634
  453WAT     H2 3618   8.515   1.966   0.395 -0.1417  0.0466  1.3027
  453WAT    EPW 3619   8.499   2.047   0.421 -0.3591  0.3409  0.2978
  454WAT      O 3620  -5.995   8.904   6.427  0.6393 -0.6781 -0.0631
  454WAT     H1 3621  -5.908   8.907   6.465  0.3429  1.9431  0.5918
  454WAT     H2 3622  -6.051   8.947   6.491 -0.4402  1.0400 -2.0269
  454WAT    EPW 3623  -5.991   8.910   6.441  0.4580 -0.1059 -0.2358
  455WAT      O 3624   0.313   8.984   2.386  0.0255  0.4700  1.0760
  455WAT     H1 3625   0.409   8.980   2.383  0.0022 -0.3869  1.0441
  455WAT     H2 3626   0.293   9.026   2.469  0.4303  1.3886  0.7268
  455WAT    EPW 3627   0.323   8.989   2.396  0.0758  0.4783  1.0257
  456WAT      O 3628  -3.322   5.801   8.511 -0.5150 -0.4097  0.0839
  456WAT     H1 3629  -3.333   5.706   8.506  1.2523 -0.6944  0.8399
  456WAT     H2 3630  -3.362   5.826   8.594 -1.3207 -0.4212 -0.2935
  456WAT    EPW 3631  -3.329   5.792   8.521 -0.3881 -0.4487  0.1340
  457WAT      O 3632   3.616   6.745   2.706  0.3098 -0.0959 -0.4048
  457WAT     H1 3633   3.530   6.709   2.685 -0.7795  1.2283  1.4328
  457WAT     H2 3634   3.646   6.691   2.779  1.4986 -1.1334 -1.6229
  457WAT    EPW 3635   3.608   6.733   2.713  0.3231 -0.0579 -0.3231
  458WAT      O 3636   3.897   8.468   4.393  0.2254 -0.8173  0.2010
  458WAT     H1 3637   3.902   8.564   4.388 -1.3989 -0.7545 -1.1309
  458WAT     H2 3638   3.960   8.445   4.461  1.2674  1.1225 -0.0195
  458WAT    EPW 3639   3.906   8.478   4.402  0.1485 -0.5531 -0.0038
  459WAT      O 3640  -2.395   4.607   8.488 -0.6789  0.2782  0.0910
  459WAT     H1 3641  -2.321   4.568   8.534  0.2136 -0.5448 -1.9238
  459WAT     H2 3642  -2.388   4.574   8.399 -1.0080  3.5424 -1.2963
  459WAT    EPW 3643  -2.385   4.597   8.483 -0.6045  0.6001 -0.3576
  460WAT      O 3644   1.195   5.202   3.899 -0.1126  0.4972  0.1933
  460WAT     H1 3645   1.160   5.120   3.932  1.0962 -0.6866 -1.3129
  460WAT     H2 3646   1.150   5.270   3.949 -1.2686 -1.0684  1.3443
  460WAT    EPW 3647   1.185   5.200   3.910 -0.1056  0.1345  0.1464
  461WAT      O 3648   3.065   7.069   0.605 -0.2175 -0.0103  0.2261
  461WAT     H1 3649   3.083   7.151   0.560 -0.3466 -0.2017 -0.1784
  461WAT     H2 3650   3.093   7.001   0.543  1.4413 -0.2721  1.1771
  461WAT    EPW 3651   3.071   7.071   0.591 -0.0156 -0.0701  0.2982
  462WAT      O 3652  -4.571   1.303   8.944 -0.0535 -0.1660 -0.1197
  462WAT     H1 3653  -4.631   1.280   8.873  0.5942 -1.2552 -0.3427
  462WAT     H2 3654  -4.601   1.389   8.975 -2.7256 -1.3494  0.8702
  462WAT    EPW 3655  -4.582   1.311   8.939 -0.3205 -0.4659 -0.0185
  463WAT      O 3656   3.917   5.955   0.346 -0.4720 -0.7599 -0.3997
  463WAT     H1 3657   3.872   5.962   0.430 -0.3178  0.5634 -0.4099
  463WAT     H2 3658   3.953   5.867   0.346  2.9988  0.4006  2.7276
  463WAT    EPW 3659   3.916   5.944   0.357  0.0061 -0.4323  0.0114
  464WAT      O 3660   1.302   2.611   7.258 -0.4969 -0.3306  0.2642
  464WAT     H1 3661   1.324   2.564   7.338 -3.4216 -0.6607  1.0095
  464WAT     H2 3662   1.223   2.567   7.226  0.0712  0.3917 -2.3079
  464WAT    EPW 3663   1.294   2.599   7.264 -0.8077 -0.2789  0.0231
  465WAT      O 3664  -0.764   5.847   0.698  0.1846  0.8403  0.0353
  465WAT     H1 3665  -0.749   5.868   0.606 -0.1117  1.0812  0.0411
  465WAT     H2 3666  -0.814   5.766   0.696 -2.2107  2.2246 -0.1108
  465WAT    EPW 3667  -0.769   5.839   0.685 -0.1704  1.0545  0.0168
  466WAT      O 3668   3.936   7.864   3.689 -0.0381 -0.1933 -0.0635
  466WAT     H1 3669   4.022   7.842   3.654  1.0051  1.4927  1.2934
  466WAT     H2 3670   3.954   7.914   3.769 -2.2589  0.9872 -0.2094
  466WAT    EPW 3671   3.949   7.868   3.695 -0.1936  0.1845  0.0962
  467WAT      O 3672   4.024   3.408   8.783 -0.4724 -0.3135  0.8147
  467WAT     H1 3673   4.100   3.444   8.738 -1.0142  1.5608  1.3213
  467WAT     H2 3674   4.033   3.438   8.874 -0.7686 -1.8060  1.3819
  467WAT    EPW 3675   4.035   3.416   8.789 -0.5827 -0.2630  0.9561
  468WAT      O 3676  -2.449   6.404   6.683  0.0048 -0.5614 -1.0457
  468WAT     H1 3677  -2.502   6.328   6.704  1.4487 -1.3000  0.0609
  468WAT     H2 3678  -2.480   6.472   6.742  1.4246 -1.5122  0.8950
  468WAT    EPW 3679  -2.460   6.403   6.693  0.3827 -0.7842 -0.6437
  469WAT      O 3680   2.039   2.239   7.230  0.6723  0.1641  0.3061
  469WAT     H1 3681   2.085   2.156   7.220  0.2128 -0.1494  0.7839
  469WAT     H2 3682   2.009   2.241   7.321 -2.6952 -0.9560 -0.6279
  469WAT    EPW 3683   2.041   2.229   7.240  0.1675 -0.0250  0.2458
  470WAT      O 3684  -6.631  10.012   7.281  0.1050  0.1169 -0.0482
  470WAT     H1 3685  -6.692  10.081   7.309  1.9954  2.1233 -0.5298
  470WAT     H2 3686  -6.675   9.969   7.208 -0.3985  2.1311 -1.0179
  470WAT    EPW 3687  -6.645  10.016   7.275  0.2882  0.6466 -0.2396
  471WAT      O 3688  -3.364   7.168   5.251  0.2920  0.1408  0.2718
  471WAT     H1 3689  -3.402   7.080   5.258 -1.0463  0.8131  1.8271
  471WAT     H2 3690  -3.437   7.227   5.266  1.6454  1.5105  1.7433
  471WAT    EPW 3691  -3.379   7.164   5.254  0.2941  0.4101  0.6709
  472WAT      O 3692   5.054   1.537   3.375  0.2942 -0.0538 -0.7287
  472WAT     H1 3693   4.990   1.574   3.435  0.4989  2.3345 -1.8662
  472WAT     H2 3694   5.057   1.443   3.397 -1.9234  0.1721  0.8110
  472WAT    EPW 3695   5.046   1.529   3.386  0.0286  0.2910 -0.6757
  473WAT      O 3696  -0.994   6.959   2.106 -0.0664  0.4692  0.7058
  473WAT     H1 3697  -0.989   6.885   2.044 -1.0929 -0.7016  1.9512
  473WAT     H2 3698  -1.022   6.919   2.188  0.4222  2.1194  1.7178
  473WAT    EPW 3699  -0.997   6.944   2.108 -0.1374  0.5324  1.0036
  474WAT      O 3700   3.569   0.496   6.952 -0.0625  0.4858  0.1667
  474WAT     H1 3701   3.505   0.525   7.017  1.2185  1.1188  1.1747
  474WAT     H2 3702   3.632   0.444   7.002  0.1450 -0.2656 -0.8402
  474WAT    EPW 3703   3.569   0.493   6.967  0.1338  0.4702  0.1669
  475WAT      O 3704  -1.276   7.641   7.699  0.7534 -0.8308  0.0967
  475WAT     H1 3705  -1.201   7.700   7.700 -0.3029  0.6028  2.0909
  475WAT     H2 3706  -1.257   7.576   7.766  0.2319 -0.4400  0.6377
  475WAT    EPW 3707  -1.264   7.641   7.708  0.5453 -0.5901  0.4313
  476WAT      O 3708   0.542   8.493   8.661 -0.3543 -0.3850  0.5128
  476WAT     H1 3709   0.468   8.454   8.706 -2.7082  0.3719 -2.3167
  476WAT     H2 3710   0.575   8.560   8.721 -0.8169 -1.8595  2.5082
  476WAT    EPW 3711   0.537   8.497   8.675 -0.7257 -0.4797  0.4029
  477WAT      O 3712  -1.837   1.985   4.571  0.1362 -0.4639 -0.1465
  477WAT     H1 3713  -1.813   1.919   4.637 -1.3360 -0.2657  0.6191
  477WAT     H2 3714  -1.767   2.050   4.577  0.6396 -1.0354  0.3916
  477WAT    EPW 3715  -1.824   1.985   4.581  0.0085 -0.5131  0.0253
  478WAT      O 3716   0.788   9.938   4.737 -0.3497  0.2993 -0.2752
  478WAT     H1 3717   0.871   9.915   4.778 -0.8015  1.0829  1.1281
  478WAT     H2 3718   0.750   9.854   4.712 -0.5688 -0.3190  1.9642
  478WAT    EPW 3719   0.794   9.924   4.739 -0.4382  0.3214  0.2055
  479WAT      O 3720   3.940   4.379   3.819  0.2996 -0.5666  0.2539
  479WAT     H1 3721   3.946   4.430   3.738  2.6939  1.6902  1.7248
  479WAT     H2 3722   3.850   4.392   3.848  0.2402  1.0679 -0.5349
  479WAT    EPW 3723   3.929   4.387   3.812  0.6076 -0.0532  0.3438
  480WAT      O 3724   0.291   7.791   2.951 -0.3517  0.3695 -0.4965
  480WAT     H1 3725   0.344   7.711   2.953 -1.0077 -0.1786 -2.3841
  480WAT     H2 3726   0.300   7.824   2.862 -1.2097  1.6372 -0.1516
  480WAT    EPW 3727   0.299   7.784   2.940 -0.5514  0.4642 -0.6999
  481WAT      O 3728  -6.536   8.570   8.312 -0.5067 -0.3128 -0.5432
  481WAT     H1 3729  -6.526   8.661   8.339 -1.1641 -0.1009 -0.9791
  481WAT     H2 3730  -6.456   8.550   8.264  0.3711 -0.4775  0.9105
  481WAT    EPW 3731  -6.524   8.580   8.309 -0.4776 -0.3066 -0.4091
  482WAT      O 3732   3.039   3.260   2.657 -0.2068  0.5446 -0.2186
  482WAT     H1 3733   3.102   3.331   2.670  0.1819 -0.3374  3.9375
  482WAT     H2 3734   2.999   3.247   2.743 -1.3613 -3.2831 -1.1574
  482WAT    EPW 3735   3.042   3.268   2.670 -0.3078 -0.0767  0.2058
  483WAT      O 3736  -1.852  10.287   6.887 -0.2248  0.0757  0.0424
  483WAT     H1 3737  -1.834  10.370   6.844 -0.1214  1.0650  1.8891
  483WAT     H2 3738  -1.904  10.237   6.824 -1.2814  1.9875 -0.6600
  483WAT    EPW 3739  -1.856  10.291   6.873 -0.3505  0.4582  0.1934
  484WAT      O 3740   0.433   5.461   6.940 -0.0731 -0.1675  0.0138
  484WAT     H1 3741   0.509   5.510   6.972  0.4726 -1.6093  1.0448
  484WAT     H2 3742   0.360   5.495   6.992  0.1173  0.2164  0.0400
  484WAT    EPW 3743   0.433   5.472   6.951  0.0240 -0.3071  0.1533
  485WAT      O 3744  -0.444   1.012   1.891  0.0099 -0.6445 -0.6981
  485WAT     H1 3745  -0.417   0.926   1.859 -0.7920 -1.4917  0.7664
  485WAT     H2 3746  -0.372   1.070   1.868 -0.3401 -1.2062 -3.6406
  485WAT    EPW 3747  -0.431   1.008   1.884 -0.1421 -0.8304 -0.8931
  486WAT      O 3748   1.036   2.673   7.477 -0.6576  0.4565  1.0422
  486WAT     H1 3749   0.973   2.639   7.413  0.3096 -1.9133  1.2709
  486WAT     H2 3750   1.024   2.768   7.473 -0.5499  0.4666 -2.7713
  486WAT    EPW 3751   1.026   2.681   7.468 -0.5158  0.1452  0.5693
  487WAT      O 3752   7.101   7.778   0.583 -0.2767  0.6002 -0.2068
  487WAT     H1 3753   7.124   7.694   0.541  1.6916  1.1308 -0.2784
  487WAT     H2 3754   7.057   7.753   0.664  0.2134 -0.5220 -0.2642
  487WAT    EPW 3755   7.098   7.763   0.588  0.0474  0.5221 -0.2238
  488WAT      O 3756  -7.784   8.762   8.658  0.0466  0.2797  0.4000
  488WAT     H1 3757  -7.844   8.808   8.598 -1.3891  0.0193  1.5717
  488WAT     H2 3758  -7.802   8.801   8.744  2.4240  1.0002  0.6497
  488WAT    EPW 3759  -7.795   8.773   8.661  0.1707  0.3405  0.5875
  489WAT      O 3760   2.163   2.263   3.508 -0.6402  0.0512  0.5397
  489WAT     H1 3761   2.127   2.309   3.584 -0.2760 -0.6203  1.1274
  489WAT     H2 3762   2.258   2.263   3.523 -0.5403  0.1607 -0.0611
  489WAT    EPW 3763   2.171   2.269   3.520 -0.5789 -0.0230  0.5379
  490WAT      O 3764   3.627   7.550   0.996  0.4462  0.2731 -0.3683
  490WAT     H1 3765   3.591   7.468   1.029 -0.8385  1.1858  0.6619
  490WAT     H2 3766   3.552   7.594   0.956  1.0976  0.9606 -0.8536
  490WAT    EPW 3767   3.612   7.545   0.995  0.3628  0.4840 -0.2964
  491WAT      O 3768  -0.626   8.733   2.160  0.3525  0.2457  0.1185
  491WAT     H1 3769  -0.721   8.741   2.149  0.5273 -0.0610 -2.2966
  491WAT     H2 3770  -0.594   8.823   2.146  0.4923  0.0849 -0.6746
  491WAT    EPW 3771  -0.634   8.746   2.157  0.3940  0.1841 -0.3047
  492WAT      O 3772   4.484   3.943   1.575 -0.6438  0.8616 -0.8404
  492WAT     H1 3773   4.536   3.932   1.495 -0.0046 -1.8351 -0.1420
  492WAT     H2 3774   4.406   3.991   1.547 -0.4622 -0.0709 -3.1045
  492WAT    EPW 3775   4.480   3.948   1.561 -0.5357  0.3829 -1.0468
  493WAT      O 3776   0.838   5.606   3.632 -0.0421 -0.2692 -0.5875
  493WAT     H1 3777   0.797   5.574   3.552 -0.8201 -0.5321 -0.0904
  493WAT     H2 3778   0.835   5.702   3.623 -1.0591 -0.2722 -0.4194
  493WAT    EPW 3779   0.832   5.615   3.620 -0.2789 -0.3042 -0.4997
  494WAT      O 3780  -2.204   1.625   2.877 -0.6707  0.0165 -0.2502
  494WAT     H1 3781  -2.217   1.552   2.817 -1.2980 -0.7787  0.8099
  494WAT     H2 3782  -2.126   1.601   2.927  0.0580  0.8398 -0.9579
  494WAT    EPW 3783  -2.195   1.612   2.876 -0.6573  0.0202 -0.2036
  495WAT      O 3784  -1.381   2.779   3.234  0.4270  0.2314 -0.1687
  495WAT     H1 3785  -1.311   2.842   3.215 -1.2711  1.9258 -1.0429
  495WAT     H2 3786  -1.348   2.696   3.198  1.2646  1.3575 -2.1591
  495WAT    EPW 3787  -1.367   2.776   3.227  0.3135  0.6033 -0.5465
  496WAT      O 3788  -2.076   5.200   3.102  0.2955  0.5329  0.1309
  496WAT     H1 3789  -2.070   5.174   3.010  0.7762 -0.0370  0.3216
  496WAT     H2 3790  -2.169   5.194   3.122  0.3758 -0.9848  0.1443
  496WAT    EPW 3791  -2.087   5.196   3.092  0.3694  0.2575  0.1578
  497WAT      O 3792  -2.862   5.578   5.995 -0.5749 -0.0128  0.5741
  497WAT     H1 3793  -2.835   5.668   6.012 -1.6988  1.0203 -2.5296
  497WAT     H2 3794  -2.881   5.543   6.082 -1.4889  3.2126  1.8363
  497WAT    EPW 3795  -2.861   5.585   6.009 -0.8436  0.5486  0.3314
  498WAT      O 3796   4.843   2.671   6.822 -0.4565  0.1143 -1.0706
  498WAT     H1 3797   4.801   2.750   6.789 -0.6457  0.7727  0.6655
  498WAT     H2 3798   4.848   2.684   6.917  0.0614 -1.6898 -0.8137
  498WAT    EPW 3799   4.838   2.683   6.830 -0.4132 -0.0368 -0.8078
  499WAT      O 3800   5.466   8.242   3.849  0.4743  0.4620  0.1890
  499WAT     H1 3801   5.502   8.223   3.762  0.3029 -0.8301  0.3753
  499WAT     H2 3802   5.524   8.309   3.884  1.5531 -0.1916 -0.2791
  499WAT    EPW 3803   5.478   8.248   3.842  0.5941  0.2055  0.1518
  500WAT      O 3804   3.687   8.058   4.613  0.2972  0.2706 -0.2882
  500WAT     H1 3805   3.777   8.083   4.633  1.5247 -2.2938 -2.1576
  500WAT     H2 3806   3.676   7.972   4.652 -1.8431  1.0263  0.9835
  500WAT    EPW 3807   3.697   8.050   4.621  0.1768  0.0315 -0.3672
  501WAT      O 3808   6.677   8.660   0.986 -0.0846 -0.3042  0.2871
  501WAT     H1 3809   6.632   8.744   0.994  1.5535  0.5066  1.7179
  501WAT     H2 3810   6.607   8.596   0.975 -1.3232  1.3558 -2.4698
  501WAT    EPW 3811   6.662   8.663   0.986 -0.0319  0.0219  0.1122
  502WAT      O 3812   2.228   2.957   2.060 -0.5184  0.1295 -0.3955
  502WAT     H1 3813   2.245   2.919   1.974  0.5616 -0.0635 -0.1112
  502WAT     H2 3814   2.182   3.039   2.040 -1.3413 -0.4718 -1.0837
  502WAT    EPW 3815   2.224   2.963   2.046 -0.4846  0.0247 -0.4487
  503WAT      O 3816  -1.874   1.330   7.471 -0.0546 -0.4841 -0.2907
  503WAT     H1 3817  -1.903   1.239   7.472 -0.0320 -0.5793 -2.6417
  503WAT     H2 3818  -1.954   1.381   7.481 -0.6834 -0.7857 -2.9917
  503WAT    EPW 3819  -1.888   1.325   7.472 -0.1345 -0.5364 -0.9570
  504WAT      O 3820  -2.166   9.529   8.138  0.5163 -0.2722 -0.4097
  504WAT     H1 3821  -2.086   9.569   8.104  1.5819 -1.2590  0.8420
  504WAT     H2 3822  -2.236   9.570   8.087  1.9295 -0.8833 -3.0028
  504WAT    EPW 3823  -2.165   9.540   8.127  0.8433 -0.4830 -0.5865
  505WAT      O 3824  -0.587   5.891   6.266 -0.4480  0.0805 -0.4922
  505WAT     H1 3825  -0.582   5.983   6.238 -1.8376  0.7238  1.2226
  505WAT     H2 3826  -0.669   5.859   6.228 -1.0940  0.2430  0.6984
  505WAT    EPW 3827  -0.597   5.899   6.257 -0.7165  0.1869 -0.1090
  506WAT      O 3828   3.076   4.710   1.417  0.3093  0.0346  0.2586
  506WAT     H1 3829   3.047   4.624   1.388  0.2615  0.6841 -1.7575
  506WAT     H2 3830   3.074   4.705   1.513  2.7404 -3.0104  0.3129
  506WAT    EPW 3831   3.072   4.698   1.426  0.6236 -0.2813 -0.0002
  507WAT      O 3832  -2.281   1.770   5.728 -0.0136  0.3332  0.9721
  507WAT     H1 3833  -2.311   1.685   5.695  2.7070  0.2991 -1.9645
  507WAT     H2 3834  -2.358   1.826   5.723 -1.6229 -1.6776  2.0133
  507WAT    EPW 3835  -2.295   1.766   5.723  0.1330  0.0635  0.7219
  508WAT      O 3836   5.262   0.345   1.400  0.1618 -0.2145  0.0043
  508WAT     H1 3837   5.246   0.263   1.445  0.0311 -0.4009 -0.3744
  508WAT     H2 3838   5.192   0.352   1.335  2.2888 -1.7656 -2.6784
  508WAT    EPW 3839   5.251   0.335   1.397  0.4251 -0.4437 -0.3995
  509WAT      O 3840  -3.458   9.992   3.852 -0.3351 -0.3206 -0.1384
  509WAT     H1 3841  -3.467  10.087   3.839 -0.0176 -0.1696  0.6698
  509WAT     H2 3842  -3.534   9.968   3.905 -0.1404 -0.4133  0.1045
  509WAT    EPW 3843  -3.469  10.002   3.858 -0.2675 -0.3133  0.0002
  510WAT      O 3844  -5.632   3.482   7.564 -0.1592  0.5550  0.0602
  510WAT     H1 3845  -5.606   3.390   7.557  0.1784  0.6630 -0.1290
  510WAT     H2 3846  -5.688   3.485   7.642  1.0348  0.4622  0.9490
  510WAT    EPW 3847  -5.636   3.470   7.573  0.0427  0.5569  0.1523
  511WAT      O 3848   2.130   2.532   7.359  0.9536 -0.7135  0.4400
  511WAT     H1 3849   2.157   2.611   7.312  1.1890 -0.9940  0.0921
  511WAT     H2 3850   2.133   2.463   7.292  3.3511 -1.5499  1.3063
  511WAT    EPW 3851   2.134   2.533   7.344  1.3008 -0.8608  0.5083
  512WAT      O 3852   0.274   4.603   5.426 -0.0805 -0.0072  0.0121
  512WAT     H1 3853   0.345   4.565   5.478  0.0441  0.0522 -0.1133
  512WAT     H2 3854   0.195   4.590   5.480  0.4283  2.6307  1.6077
  512WAT    EPW 3855   0.273   4.596   5.440  0.0031  0.3486  0.2060
  513WAT      O 3856   5.316   0.556   3.378 -0.0083  0.0808 -0.2314
  513WAT     H1 3857   5.396   0.540   3.327  0.2180 -2.8223  0.8388
  513WAT     H2 3858   5.280   0.469   3.394 -2.0095  1.1315  1.5394
  513WAT    EPW 3859   5.322   0.542   3.373 -0.2425 -0.1635  0.1432
  514WAT      O 3860  -6.828   9.016   7.784  0.6025 -0.0801 -0.0738
  514WAT     H1 3861  -6.745   9.026   7.736  0.8956 -0.0242  0.4365
  514WAT     H2 3862  -6.801   8.985   7.871  0.0614 -0.4044 -0.0212
  514WAT    EPW 3863  -6.813   9.013   7.789  0.5696 -0.1159  0.0002
  515WAT      O 3864   3.872   4.366   4.896 -0.1940 -0.2288  0.4248
  515WAT     H1 3865   3.788   4.357   4.851  0.8081  1.5687 -2.0493
  515WAT     H2 3866   3.893   4.459   4.888  0.7894 -0.0907  3.4537
  515WAT    EPW 3867   3.864   4.377   4.889  0.0679  0.0265  0.4978
  516WAT      O 3868   1.064   6.962   3.445  0.0221 -0.0512  0.3076
  516WAT     H1 3869   1.143   6.907   3.444  2.1682  2.8099 -0.6182
  516WAT     H2 3870   1.033   6.960   3.354 -0.1845 -0.1054  0.3790
  516WAT    EPW 3871   1.070   6.954   3.433  0.2779  0.3192  0.1949
  517WAT      O 3872   1.831   4.333   4.860  0.3792  0.3532 -0.0453
  517WAT     H1 3873   1.788   4.348   4.944 -1.3113  1.0986 -0.9915
  517WAT     H2 3874   1.923   4.321   4.882 -0.0738  0.1808  1.9336
  517WAT    EPW 3875   1.837   4.334   4.874  0.0965  0.4287  0.0908
  518WAT      O 3876   0.330  10.132   3.998  0.1234 -0.5284 -0.9299
  518WAT     H1 3877   0.400  10.188   4.030 -0.8103 -0.0684  0.3729
  518WAT     H2 3878   0.255  10.190   3.988 -0.1050 -1.0127 -2.3004
  518WAT    EPW 3879   0.329  10.147   4.001 -0.0299 -0.5312 -0.9389
  519WAT      O 3880  -5.216   3.406   6.760  0.0501  0.0356  0.3209
  519WAT     H1 3881  -5.215   3.313   6.734  1.6662  0.8850 -3.3261
  519WAT     H2 3882  -5.230   3.404   6.855 -0.0638 -3.9138  0.4024
  519WAT    EPW 3883  -5.217   3.393   6.769  0.2482 -0.3732 -0.1495
  520WAT      O 3884  -1.607   5.079   3.436  0.0111  0.1116 -0.5961
  520WAT     H1 3885  -1.543   5.008   3.439 -0.7081 -0.5340 -0.1874
  520WAT     H2 3886  -1.674   5.054   3.499 -0.0422  1.3746 -0.1254
  520WAT    EPW 3887  -1.608   5.067   3.445 -0.0908  0.1931 -0.4802
  521WAT      O 3888  -1.430   4.298   5.603 -0.6063  0.1016  0.2124
  521WAT     H1 3889  -1.500   4.343   5.556 -1.0648 -1.8415 -1.0538
  521WAT     H2 3890  -1.404   4.226   5.546  1.9714  0.3250  0.9440
  521WAT    EPW 3891  -1.436   4.295   5.590 -0.3268 -0.1252  0.1416
  522WAT      O 3892  -2.198   9.990   6.985 -0.4302  0.5470 -0.2883
  522WAT     H1 3893  -2.151   9.945   6.915 -0.6038 -0.1374  0.0277
  522WAT     H2 3894  -2.253  10.054   6.940  0.3484  0.9406 -0.6980
  522WAT    EPW 3895  -2.199   9.993   6.970 -0.3504  0.5088 -0.3006
  523WAT      O 3896   3.236   0.482   2.939  0.7989  0.1412 -0.0546
  523WAT     H1 3897   3.169   0.545   2.915  0.8523  1.7090  3.3900
  523WAT     H2 3898   3.190   0.417   2.993  1.5733 -0.2335  0.1693
  523WAT    EPW 3899   3.221   0.482   2.943  0.9081  0.2986  0.4293
  524WAT      O 3900   1.655   1.165   8.178  0.4210 -0.0402 -0.3729
  524WAT     H1 3901   1.578   1.173   8.121  0.0988 -2.7300 -0.4500
  524WAT     H2 3902   1.624   1.194   8.264  0.3802  2.2526 -1.1040
  524WAT    EPW 3903   1.641   1.170   8.182  0.3731 -0.0926 -0.4792
  525WAT      O 3904   2.761   0.909   1.417 -0.0916  0.1111 -0.0008
  525WAT     H1 3905   2.720   0.832   1.458  1.8187 -1.9040 -1.6605
  525WAT     H2 3906   2.687   0.966   1.396 -2.0553 -2.7163 -1.5916
  525WAT    EPW 3907   2.746   0.906   1.420 -0.0986 -0.5276 -0.4295
  526WAT      O 3908  -0.429   5.321   5.771  0.1533  0.0724 -0.3834
  526WAT     H1 3909  -0.478   5.253   5.818  1.9358 -0.7404  0.3716
  526WAT     H2 3910  -0.483   5.400   5.782 -1.3220 -0.9190 -0.1771
  526WAT    EPW 3911  -0.443   5.323   5.779  0.1938 -0.1655 -0.2568
  527WAT      O 3912   8.920   1.457   0.541 -0.0982 -0.9368  0.1818
  527WAT     H1 3913   8.987   1.407   0.495  2.5321  1.3987  1.1177
  527WAT     H2 3914   8.952   1.461   0.631 -1.8051 -0.1707  0.7809
  527WAT    EPW 3915   8.933   1.451   0.547  0.0234 -0.5277  0.3843
  528WAT      O 3916  -1.156   2.378   8.039  0.2019  0.3786 -0.2153
  528WAT     H1 3917  -1.187   2.314   7.975 -1.9976  2.3772 -1.3467
  528WAT     H2 3918  -1.224   2.378   8.107  1.1188  0.2304  0.7199
  528WAT    EPW 3919  -1.169   2.370   8.039  0.0328  0.6226 -0.2408
  529WAT      O 3920   0.667   4.460   0.200 -0.1364 -0.5120 -0.0459
  529WAT     H1 3921   0.616   4.486   0.124 -0.0839  0.4388  0.2228
  529WAT     H2 3922   0.734   4.528   0.208  1.5597 -2.0123 -0.7228
  529WAT    EPW 3923   0.669   4.472   0.191  0.0943 -0.5846 -0.0998
  530WAT      O 3924   5.770   7.078   0.535 -0.3109 -0.6483 -0.3358
  530WAT     H1 3925   5.710   7.074   0.460  1.6913  1.7306 -2.2636
  530WAT     H2 3926   5.839   7.015   0.514  0.3899  0.2107 -0.6639
  530WAT    EPW 3927   5.771   7.069   0.522  0.0455 -0.2215 -0.6333
  531WAT      O 3928  -5.068   9.725   7.850  0.1232 -0.2615 -0.5505
  531WAT     H1 3929  -4.978   9.696   7.869  1.4503  3.8085  0.2789
  531WAT     H2 3930  -5.067   9.746   7.757  0.8711  1.9390 -0.1164
  531WAT    EPW 3931  -5.056   9.724   7.840  0.3967  0.5660 -0.3841
  532WAT      O 3932  -5.064   6.337   5.438  0.4037  0.0688 -0.3149
  532WAT     H1 3933  -5.139   6.312   5.383  1.1504 -0.2736 -1.2096
  532WAT     H2 3934  -5.070   6.432   5.445  0.5027  0.1622 -1.3189
  532WAT    EPW 3935  -5.075   6.346   5.432  0.5152  0.0358 -0.5653
  533WAT      O 3936   6.440   0.776   4.168 -0.6802 -0.1590 -0.1790
  533WAT     H1 3937   6.407   0.788   4.257 -2.7954 -0.3606 -0.8764
  533WAT     H2 3938   6.379   0.826   4.113 -1.3418 -2.5550 -1.7776
  533WAT    EPW 3939   6.427   0.784   4.173 -1.0464 -0.5016 -0.4818
  534WAT      O 3940  -6.995   9.621   8.347  0.4819 -0.5300 -0.8124
  534WAT     H1 3941  -7.044   9.584   8.420  2.0444 -0.2196  0.4282
  534WAT     H2 3942  -7.061   9.668   8.296 -1.2268 -3.3606 -1.4200
  534WAT    EPW 3943  -7.010   9.622   8.350  0.4625 -0.8626 -0.7291
  535WAT      O 3944  -2.310   3.196   2.073 -0.2934  0.0797 -0.2675
  535WAT     H1 3945  -2.279   3.274   2.118 -0.6580  0.6694 -1.0396
  535WAT     H2 3946  -2.252   3.185   1.998 -1.8440  1.1605 -1.6950
  535WAT    EPW 3947  -2.298   3.205   2.069 -0.5460  0.2999 -0.5575
  536WAT      O 3948  -0.760   5.191   3.510 -0.0821  0.4772 -0.4068
  536WAT     H1 3949  -0.804   5.257   3.563 -1.3229  0.3636 -1.2492
  536WAT     H2 3950  -0.694   5.240   3.462 -1.2872  1.2255 -1.3661
  536WAT    EPW 3951  -0.757   5.206   3.511 -0.4047  0.5610 -0.6444
  537WAT      O 3952   1.846   5.445   1.451  0.1428 -0.2263  0.0249
  537WAT     H1 3953   1.893   5.363   1.465  1.2982  0.6554  1.5837
  537WAT     H2 3954   1.806   5.464   1.535 -2.1425 -0.3638 -0.9514
  537WAT    EPW 3955   1.847   5.436   1.464 -0.0062 -0.1280  0.1017
  538WAT      O 3956   1.442   2.923   5.342 -0.2084  1.1466 -0.0443
  538WAT     H1 3957   1.413   2.936   5.432 -1.2366  1.0839 -0.3596
  538WAT     H2 3958   1.437   3.010   5.302 -2.2514  0.7591 -0.7451
  538WAT    EPW 3959   1.438   2.937   5.349 -0.6135  1.0872 -0.1783
  539WAT      O 3960   0.446  10.034   4.580  0.0312  0.0605 -0.1636
  539WAT     H1 3961   0.495   9.958   4.549  0.9378  0.7385 -0.4344
  539WAT     H2 3962   0.453  10.098   4.509  0.2714  0.8261  0.5312
  539WAT    EPW 3963   0.453  10.033   4.567  0.1824  0.2508 -0.1078
  540WAT      O 3964   0.805   2.006   4.927  0.0794  0.1675 -0.4552
  540WAT     H1 3965   0.900   2.008   4.927  0.1029  1.0760  1.4174
  540WAT     H2 3966   0.778   2.094   4.901 -0.2796 -0.1673 -1.2690
  540WAT    EPW 3967   0.814   2.018   4.924  0.0351  0.2432 -0.3154
  541WAT      O 3968  -4.980   6.653   7.743  0.0394  0.3626 -0.1326
  541WAT     H1 3969  -4.932   6.631   7.663  1.6670  1.5138  0.4766
  541WAT     H2 3970  -5.070   6.625   7.726  0.7143 -1.0227 -1.6819
  541WAT    EPW 3971  -4.985   6.646   7.730  0.3431  0.3316 -0.2568
  542WAT      O 3972   2.621   8.543   0.387  0.0128 -1.1146 -0.4943
  542WAT     H1 3973   2.668   8.512   0.464  0.9197 -0.6010 -0.8248
  542WAT     H2 3974   2.686   8.594   0.339 -1.2984  0.9059 -0.1975
  542WAT    EPW 3975   2.636   8.545   0.391 -0.0405 -0.7801 -0.4987
  543WAT      O 3976  -1.099   9.763   5.222 -0.5659 -0.2862 -0.0112
  543WAT     H1 3977  -1.050   9.812   5.155  0.1711 -1.5564 -0.4312
  543WAT     H2 3978  -1.182   9.741   5.180  0.5598 -2.5554 -1.1795
  543WAT    EPW 3979  -1.103   9.767   5.208 -0.3202 -0.7529 -0.2208
  544WAT      O 3980   1.825   4.917   0.477  0.3016  0.0764 -0.3624
  544WAT     H1 3981   1.914   4.951   0.476 -0.0397  1.0187 -1.9699
  544WAT     H2 3982   1.788   4.947   0.560  0.8009  1.5345 -0.6578
  544WAT    EPW 3983   1.832   4.925   0.488  0.3224  0.3929 -0.6134
  545WAT      O 3984   1.799   2.832   5.061 -0.3188 -0.1396 -0.6086
  545WAT     H1 3985   1.833   2.846   4.973  0.4240 -1.5737 -0.5821
  545WAT     H2 3986   1.744   2.754   5.053 -0.0986 -0.3925  0.2315
  545WAT    EPW 3987   1.796   2.824   5.048 -0.1918 -0.3622 -0.4945
  546WAT      O 3988   4.610   0.069   1.330  0.7042  0.1056  0.1180
  546WAT     H1 3989   4.647   0.042   1.414  0.7576 -1.3249 -0.3522
  546WAT     H2 3990   4.686   0.082   1.273  0.7179  1.7572  0.4386
  546WAT    EPW 3991   4.625   0.067   1.334  0.7131  0.1348  0.0982
  547WAT      O 3992  -3.925   6.877   7.154  0.1661 -0.2956  0.0386
  547WAT     H1 3993  -4.006   6.900   7.198 -1.6619  0.3370 -3.3388
  547WAT     H2 3994  -3.881   6.960   7.140  0.7030 -0.4842  0.5559
  547WAT    EPW 3995  -3.930   6.891   7.158 -0.0042 -0.2370 -0.3388
  548WAT      O 3996   3.333   8.331   1.337 -0.1423 -0.2155  0.4350
  548WAT     H1 3997   3.276   8.262   1.304 -0.7076 -0.4236  1.7975
  548WAT     H2 3998   3.421   8.303   1.314 -0.5166 -0.2297 -1.0790
  548WAT    EPW 3999   3.337   8.318   1.330 -0.2662 -0.2446  0.4150
  549WAT      O 4000   4.324   6.363   5.633  0.2811  0.1942 -0.3516
  549WAT     H1 4001   4.241   6.405   5.656 -1.1792 -2.5996  0.0244
  549WAT     H2 4002   4.362   6.339   5.718 -0.0241 -1.0926 -0.5554
  549WAT    EPW 4003   4.318   6.365   5.648  0.0482 -0.3440 -0.3288
  550WAT      O 4004  -5.594   6.180   6.873 -0.9579 -0.0027 -0.4934
  550WAT     H1 4005  -5.682   6.195   6.906 -1.5831 -1.7171 -1.2649
  550WAT     H2 4006  -5.539   6.239   6.924 -1.9800 -1.6656  2.8585
  550WAT    EPW 4007  -5.598   6.190   6.884 -1.1749 -0.4480 -0.1531
  551WAT      O 4008   6.125   5.543   1.987  0.0541 -0.7120  0.0142
  551WAT     H1 4009   6.041   5.588   1.999 -0.0657 -0.9829  0.1801
  551WAT     H2 4010   6.178   5.572   2.062 -0.3025 -1.4915  0.5775
  551WAT    EPW 4011   6.121   5.553   1.999 -0.0088 -0.8507  0.1103
  552WAT      O 4012   1.175   8.762   4.320 -0.5051  0.2941  1.1233
  552WAT     H1 4013   1.236   8.782   4.249 -0.1619  0.6853  1.5171
  552WAT     H2 4014   1.138   8.847   4.345 -0.3583  0.2117  1.6430
  552WAT    EPW 4015   1.178   8.776   4.314 -0.4405  0.3352  1.2438
  553WAT      O 4016   3.016   1.531   2.094  0.0082  0.1217 -0.2756
  553WAT     H1 4017   3.091   1.492   2.049  0.3266  0.6213 -0.1737
  553WAT     H2 4018   2.947   1.533   2.027  0.9568  2.3840 -1.2714
  553WAT    EPW 4019   3.017   1.526   2.079  0.1754  0.4860 -0.3935
  554WAT      O 4020   0.020   1.340   0.972 -0.7988  0.3556  0.3390
  554WAT     H1 4021  -0.038   1.399   1.019 -1.4494  0.4345 -0.5405
  554WAT     H2 4022   0.096   1.330   1.030 -1.1152  1.2654  0.9302
  554WAT    EPW 4023   0.023   1.346   0.986 -0.9263  0.4861  0.3010
  555WAT      O 4024   2.182   2.932   5.733 -0.1728 -0.3259 -0.1789
  555WAT     H1 4025   2.199   3.018   5.695 -1.5507 -0.6375 -1.5848
  555WAT     H2 4026   2.147   2.880   5.660 -1.6157 -1.3651  1.1918
  555WAT    EPW 4027   2.180   2.936   5.718 -0.5449 -0.5040 -0.1833
  556WAT      O 4028   3.753   8.387   2.489  0.4205 -0.5912  0.8563
  556WAT     H1 4029   3.846   8.400   2.473  1.1641 -2.6778  2.9067
  556WAT     H2 4030   3.743   8.292   2.498 -2.3405 -0.6678 -1.4751
  556WAT    EPW 4031   3.764   8.376   2.488  0.1544 -0.8769  0.8192
  557WAT      O 4032   1.300   1.850   3.365  0.7338  0.4282 -0.3460
  557WAT     H1 4033   1.245   1.911   3.317 -2.2349 -1.5895  0.2264
  557WAT     H2 4034   1.367   1.823   3.302  0.9465  2.7343 -1.1849
  557WAT    EPW 4035   1.302   1.855   3.350  0.3703  0.4662 -0.3811
  558WAT      O 4036   0.559  10.356   7.912  0.0831  0.3771  0.3152
  558WAT     H1 4037   0.478  10.321   7.950 -0.5361  0.8918 -0.4943
  558WAT     H2 4038   0.531  10.400   7.832  1.2632 -0.0872 -0.3840
  558WAT    EPW 4039   0.545  10.357   7.906  0.1571  0.3843  0.1161
  559WAT      O 4040  -0.722   2.871   4.397 -0.3177  0.1037  0.1816
  559WAT     H1 4041  -0.695   2.805   4.461  0.1142  0.7438  0.6728
  559WAT     H2 4042  -0.719   2.953   4.445 -1.3064  0.4289 -0.2972
  559WAT    EPW 4043  -0.718   2.873   4.412 -0.3911  0.2310  0.1833
  560WAT      O 4044  -3.257   8.628   2.770  0.4989  0.3922 -0.1644
  560WAT     H1 4045  -3.304   8.590   2.844  0.8770  0.6734  0.2258
  560WAT     H2 4046  -3.326   8.663   2.713  0.1176 -1.2261 -0.7457
  560WAT    EPW 4047  -3.272   8.627   2.772  0.4985  0.2160 -0.1897
  561WAT      O 4048   1.686   1.831   6.131 -0.4404 -0.1662 -0.2719
  561WAT     H1 4049   1.598   1.849   6.164 -0.5487  0.1567 -0.7306
  561WAT     H2 4050   1.738   1.816   6.210 -0.8485 -0.1082  0.0150
  561WAT    EPW 4051   1.681   1.831   6.146 -0.5085 -0.1159 -0.2944
  562WAT      O 4052   0.371  10.271   6.913  0.5385  0.6443 -0.0259
  562WAT     H1 4053   0.289  10.315   6.890 -0.9202 -1.5100  0.6553
  562WAT     H2 4054   0.377  10.198   6.851  1.1137 -0.1042  0.8796
  562WAT    EPW 4055   0.361  10.267   6.902  0.4220  0.2618  0.1836
  563WAT      O 4056  -4.763   8.394   3.553  0.5312  0.1032  0.2537
  563WAT     H1 4057  -4.794   8.380   3.643 -0.3176 -1.4437 -0.2282
  563WAT     H2 4058  -4.829   8.451   3.513 -0.4776 -1.2204 -0.0641
  563WAT    EPW 4059  -4.776   8.400   3.559  0.2861 -0.2756  0.1482
  564WAT      O 4060  -0.439   7.091   7.949 -0.4082 -0.2082 -0.3605
  564WAT     H1 4061  -0.416   7.133   7.866 -0.0603 -0.0771 -0.1941
  564WAT     H2 4062  -0.442   6.998   7.928  2.2756 -0.4455  0.0729
  564WAT    EPW 4063  -0.437   7.084   7.935 -0.0083 -0.2224 -0.2816
  565WAT      O 4064  -3.834   9.503   4.611 -0.0848 -0.1336 -0.5837
  565WAT     H1 4065  -3.745   9.511   4.575  0.5009 -1.0474  0.5725
  565WAT     H2 4066  -3.877   9.439   4.554 -0.9406  2.2147 -2.7600
  565WAT    EPW 4067  -3.828   9.495   4.599 -0.1204  0.0558 -0.7181
  566WAT      O 4068   4.731   7.071   2.482  0.1520 -0.1784  0.1518
  566WAT     H1 4069   4.751   6.981   2.455  1.0165  0.3557 -1.0867
  566WAT     H2 4070   4.639   7.083   2.459 -0.1447 -0.9426  0.9064
  566WAT    EPW 4071   4.721   7.061   2.475  0.2270 -0.2086  0.0880
  567WAT      O 4072  -1.070   7.023   4.721  0.5153 -0.0646  0.5134
  567WAT     H1 4073  -1.033   6.943   4.684  0.5719 -0.7073  1.8923
  567WAT     H2 4074  -1.072   7.007   4.815  1.0434  1.7783  0.8757
  567WAT    EPW 4075  -1.065   7.010   4.728  0.5925  0.0939  0.7429
  568WAT      O 4076   9.596   3.133   0.281  0.0395 -0.1689  0.4335
  568WAT     H1 4077   9.667   3.070   0.290  0.3009 -0.0717 -0.7378
  568WAT     H2 4078   9.538   3.116   0.356 -0.2162 -2.2076 -0.1747
  568WAT    EPW 4079   9.597   3.123   0.292  0.0401 -0.4250  0.1988
  569WAT      O 4080  -1.840   8.663   0.652  0.0472 -0.2715 -0.1772
  569WAT     H1 4081  -1.880   8.682   0.737  2.2732  0.3092  0.8232
  569WAT     H2 4082  -1.746   8.666   0.669  0.5598 -0.2536 -2.6571
  569WAT    EPW 4083  -1.833   8.666   0.665  0.4084 -0.1926 -0.3724
  570WAT      O 4084   4.112   2.507   1.541  0.3249 -0.0976 -0.1833
  570WAT     H1 4085   4.056   2.511   1.464 -1.1513  0.0313  0.8451
  570WAT     H2 4086   4.117   2.414   1.563 -1.0907  0.0396  0.8164
  570WAT    EPW 4087   4.106   2.495   1.534 -0.0565 -0.0625  0.0842
  571WAT      O 4088   1.259   2.410   7.482 -0.9529  0.2400  0.0802
  571WAT     H1 4089   1.269   2.421   7.576 -0.8935  0.2016  0.0781
  571WAT     H2 4090   1.166   2.389   7.469 -1.0219  0.5228  0.1045
  571WAT    EPW 4091   1.248   2.409   7.492 -0.9542  0.2723  0.0830
  572WAT      O 4092   6.297   3.203   2.796 -0.2308  0.5220 -0.5702
  572WAT     H1 4093   6.209   3.172   2.776 -0.6372  2.3166 -1.6852
  572WAT     H2 4094   6.300   3.205   2.892 -1.5241  0.8021 -0.5211
  572WAT    EPW 4095   6.286   3.199   2.806 -0.4549  0.7956 -0.7107
  573WAT      O 4096  -1.637   1.196   8.003  1.0507 -0.0682 -0.3734
  573WAT     H1 4097  -1.682   1.111   8.003  1.0256 -0.0553 -0.2871
  573WAT     H2 4098  -1.684   1.248   8.067 -0.2934  0.7438 -1.9510
  573WAT    EPW 4099  -1.649   1.191   8.011  0.8700  0.0406 -0.5698
  574WAT      O 4100  -2.515   2.389   5.919 -0.3802 -0.2478 -0.3801
  574WAT     H1 4101  -2.436   2.408   5.971 -0.8783  1.8580 -0.2922
  574WAT     H2 4102  -2.519   2.460   5.855 -3.4879  1.1538  1.1875
  574WAT    EPW 4103  -2.505   2.401   5.918 -0.8557  0.2148 -0.1616
  575WAT      O 4104   0.864   8.011   3.567 -0.1542 -0.3223 -0.2425
  575WAT     H1 4105   0.786   8.009   3.511 -0.3718  0.6886 -0.0112
  575WAT     H2 4106   0.885   8.104   3.575  1.4736 -0.6129 -0.8051
  575WAT    EPW 4107   0.856   8.023   3.561  0.0318 -0.2275 -0.2861
  576WAT      O 4108  -2.774   4.045   4.803  0.6154  0.3510 -0.4510
  576WAT     H1 4109  -2.810   4.005   4.881  1.3027  0.2284 -0.1871
  576WAT     H2 4110  -2.773   4.139   4.822  0.9007  0.3108 -0.2552
  576WAT    EPW 4111  -2.779   4.052   4.816  0.7436  0.3295 -0.3903
  577WAT      O 4112   2.383   1.696   5.105 -0.2947 -0.9825 -0.5577
  577WAT     H1 4113   2.346   1.680   5.018  0.8896 -3.6866 -0.6768
  577WAT     H2 4114   2.475   1.717   5.088 -0.2378 -0.7631  0.0069
  577WAT    EPW 4115   2.390   1.697   5.091 -0.1309 -1.3102 -0.4988
  578WAT      O 4116  -2.503   8.086   8.472 -0.2080 -0.2382  0.3763
  578WAT     H1 4117  -2.438   8.021   8.499 -1.9801 -2.6891 -0.8035
  578WAT     H2 4118  -2.456   8.143   8.411  0.9025 -1.8035 -0.2975
  578WAT    EPW 4119  -2.488   8.085   8.468 -0.2953 -0.7677  0.1316
  579WAT      O 4120   5.532   7.565   2.639  0.1691  0.0213 -0.4827
  579WAT     H1 4121   5.488   7.650   2.646  0.6372  0.2707 -0.5710
  579WAT     H2 4122   5.623   7.587   2.618  0.2273 -0.5109 -0.7792
  579WAT    EPW 4123   5.538   7.579   2.637  0.2384 -0.0160 -0.5333
  580WAT      O 4124  -1.332   5.998   5.885 -0.1054  0.2805 -1.1607
  580WAT     H1 4125  -1.327   6.006   5.790 -0.5085 -0.5955 -1.2710
  580WAT     H2 4126  -1.330   5.903   5.901 -0.2671  0.4088 -0.3145
  580WAT    EPW 4127  -1.331   5.986   5.875 -0.1799  0.1819 -1.0636
  581WAT      O 4128  -2.565   1.015   4.817 -0.3832 -0.9536 -0.1009
  581WAT     H1 4129  -2.659   1.014   4.804 -0.5653  1.0201  0.6376
  581WAT     H2 4130  -2.530   1.062   4.741 -0.1644 -0.4631  0.2899
  581WAT    EPW 4131  -2.573   1.021   4.805 -0.3784 -0.6286  0.0482
  582WAT      O 4132   5.791   8.062   3.636 -0.2704 -0.0940  0.7052
  582WAT     H1 4133   5.790   8.034   3.727 -2.1177 -2.1088  0.1465
  582WAT     H2 4134   5.869   8.020   3.599  1.9940  2.8114  1.8309
  582WAT    EPW 4135   5.801   8.052   3.643 -0.2153  0.0234  0.7799
  583WAT      O 4136   5.987   1.748   1.332  0.0173  0.1434 -0.4031
  583WAT     H1 4137   6.053   1.683   1.309  1.1506  0.5167  1.4742
  583WAT     H2 4138   6.009   1.825   1.279  1.4644  0.4217  0.5344
  583WAT    EPW 4139   5.999   1.750   1.322  0.3576  0.2294 -0.0318
  584WAT      O 4140   6.021   6.729   3.927 -1.6026  0.5089 -0.0125
  584WAT     H1 4141   5.944   6.675   3.945 -1.0626  0.1185  1.2527
  584WAT     H2 4142   6.066   6.683   3.856 -1.3479 -0.5273  0.7960
  584WAT    EPW 4143   6.017   6.715   3.920 -1.4980  0.3209  0.2611
  585WAT      O 4144   6.178   2.159   6.160  0.5539  0.4349 -0.1252
  585WAT     H1 4145   6.236   2.228   6.129 -0.1229  1.2577  0.4259
  585WAT     H2 4146   6.229   2.112   6.226  0.1027  2.0934  1.4598
  585WAT    EPW 4147   6.192   2.162   6.165  0.4053  0.7622  0.1564
  586WAT      O 4148   1.894   6.947   2.808 -0.4963 -0.5342 -0.8652
  586WAT     H1 4149   1.969   6.988   2.851 -0.4847  0.2959 -1.6579
  586WAT     H2 4150   1.913   6.853   2.812  0.0134 -0.4047 -0.0208
  586WAT    EPW 4151   1.906   6.940   2.814 -0.4275 -0.4077 -0.8584
  587WAT      O 4152   2.287   3.204   2.720 -0.1110  0.5045  0.8855
  587WAT     H1 4153   2.326   3.275   2.770 -0.7093  1.2765  0.2824
  587WAT     H2 4154   2.210   3.243   2.679  0.1874 -0.1893 -0.3899
  587WAT    EPW 4155   2.282   3.219   2.721 -0.1506  0.5149  0.6377
  588WAT      O 4156   3.773   5.649   4.649 -0.5500  0.7007 -0.5674
  588WAT     H1 4157   3.852   5.629   4.598  0.7094 -0.8087  1.7892
  588WAT     H2 4158   3.701   5.635   4.588  0.9320  1.5993 -2.6544
  588WAT    EPW 4159   3.774   5.645   4.634 -0.1885  0.6201 -0.5319
  589WAT      O 4160   6.174   2.635   3.399 -0.0691 -0.7698 -0.8758
  589WAT     H1 4161   6.165   2.613   3.306  1.3758 -1.4080 -0.8970
  589WAT     H2 4162   6.268   2.631   3.415 -0.3155 -0.8723  0.6721
  589WAT    EPW 4163   6.185   2.632   3.389  0.0889 -0.8674 -0.6744
  590WAT      O 4164  -1.654   3.351   2.899  0.1032 -0.0280 -0.3902
  590WAT     H1 4165  -1.668   3.442   2.872  1.6710  0.3520 -0.0553
  590WAT     H2 4166  -1.559   3.341   2.897  0.1233 -0.8947  2.0310
  590WAT    EPW 4167  -1.643   3.362   2.895  0.3126 -0.0921 -0.0267
  591WAT      O 4168   1.546   2.859   2.941 -0.3340 -0.4238  0.4226
  591WAT     H1 4169   1.642   2.856   2.942 -0.2794  0.7219  0.3013
  591WAT     H2 4170   1.525   2.926   2.877 -1.1277  1.3458  2.4126
  591WAT    EPW 4171   1.556   2.867   2.933 -0.4315 -0.0392  0.6691
  592WAT      O 4172   2.229   3.601   1.120 -0.1845 -0.1891 -0.1025
  592WAT     H1 4173   2.163   3.532   1.110 -0.1260 -0.6044  1.9370
  592WAT     H2 4174   2.312   3.556   1.107 -0.1995 -0.0892 -0.5980
  592WAT    EPW 4175   2.231   3.586   1.117 -0.1787 -0.2307  0.1011
  593WAT      O 4176  -0.966   7.527   6.740 -0.2483 -0.3025  0.2797
  593WAT     H1 4177  -0.889   7.492   6.696  0.0171  0.2887  0.2615
  593WAT     H2 4178  -1.040   7.487   6.694  0.0247  0.2782 -0.6974
  593WAT    EPW 4179  -0.966   7.517   6.728 -0.1772 -0.1481  0.1485
  594WAT      O 4180   0.012   6.444   6.519  0.7815  0.1837 -0.1167
  594WAT     H1 4181   0.004   6.441   6.424 -1.0742  0.5974  0.0018
  594WAT     H2 4182  -0.007   6.354   6.548  0.3121  0.2934 -0.0781
  594WAT    EPW 4183   0.009   6.432   6.510  0.4749  0.2527 -0.0961
  595WAT      O 4184   5.263   7.412   4.404  0.7720  0.4490  0.3597
  595WAT     H1 4185   5.285   7.464   4.327 -2.8486  0.0871 -1.0618
  595WAT     H2 4186   5.174   7.439   4.427 -0.3922 -3.3709  0.9797
  595WAT    EPW 4187   5.254   7.423   4.397  0.1409 -0.1025  0.2542
  596WAT      O 4188  -6.777  10.132   7.535  0.4732 -0.5794 -0.4015
  596WAT     H1 4189  -6.857  10.178   7.510  0.4545 -1.3942 -1.9757
  596WAT     H2 4190  -6.754  10.168   7.621 -1.0018  0.4046 -0.3889
  596WAT    EPW 4191  -6.784  10.143   7.543  0.2761 -0.5569 -0.6075
  597WAT      O 4192   2.392   7.086   0.452 -0.4762 -0.5404  0.3984
  597WAT     H1 4193   2.343   7.166   0.431 -0.7223 -0.7676  0.0852
  597WAT     H2 4194   2.346   7.018   0.403  0.2379 -0.7400  0.0029
  597WAT    EPW 4195   2.379   7.088   0.443 -0.4145 -0.5965  0.3049
  598WAT      O 4196  -3.270   9.991   3.506 -0.3398 -0.2098  0.3744
  598WAT     H1 4197  -3.251   9.980   3.413 -2.5805 -1.6299  0.0001
  598WAT     H2 4198  -3.190   9.964   3.550  1.2739  1.8142 -1.0963
  598WAT    EPW 4199  -3.257   9.986   3.500 -0.4225 -0.1307  0.1310
  599WAT      O 4200  -0.615   2.768   8.647 -0.2196 -0.4073  0.2616
  599WAT     H1 4201  -0.557   2.812   8.586  0.9616 -3.3224 -0.8872
  599WAT     H2 4202  -0.574   2.780   8.733  0.2972  0.3296 -0.0860
  599WAT    EPW 4203  -0.602   2.775   8.651  0.0044 -0.6945  0.0639
  600WAT      O 4204  -3.220   9.628   1.353  0.4397  0.0430 -0.8654
  600WAT     H1 4205  -3.214   9.548   1.406 -1.3351  1.1372  1.1345
  600WAT     H2 4206  -3.136   9.672   1.366  1.3502 -1.3418 -1.8066
  600WAT    EPW 4207  -3.209   9.623   1.362  0.3256  0.0048 -0.7258
  601WAT      O 4208  -2.362   4.863   3.189  0.8637  0.3888  0.1107
  601WAT     H1 4209  -2.297   4.889   3.124  1.3465 -0.8949  0.0338
  601WAT     H2 4210  -2.365   4.767   3.181 -1.7231  0.4686 -0.5337
  601WAT    EPW 4211  -2.354   4.854   3.179  0.5862  0.2298  0.0156
  602WAT      O 4212  -4.521   1.528   7.766  0.2601  0.2083 -0.4497
  602WAT     H1 4213  -4.494   1.604   7.713  5.1386 -1.1711 -0.4810
  602WAT     H2 4214  -4.440   1.501   7.810 -1.5223 -4.2149  0.5842
  602WAT    EPW 4215  -4.506   1.535   7.765  0.6685 -0.5570 -0.3176
  603WAT      O 4216   1.697   2.205   2.463 -0.0026  0.6174 -0.0243
  603WAT     H1 4217   1.686   2.300   2.457 -2.9218  0.3294 -0.4293
  603WAT     H2 4218   1.608   2.171   2.469  0.9795 -2.1193  0.1306
  603WAT    EPW 4219   1.684   2.213   2.463 -0.2581  0.2184 -0.0572
  604WAT      O 4220   2.236   5.457   4.483 -0.3856 -0.1340  0.5140
  604WAT     H1 4221   2.279   5.455   4.398  0.3593  0.7578  0.8540
  604WAT     H2 4222   2.227   5.365   4.508 -0.4834 -0.3957 -0.4498
  604WAT    EPW 4223   2.240   5.445   4.475 -0.3002 -0.0508  0.4318
  605WAT      O 4224   2.447  10.020   4.440  0.1103 -0.1714 -0.1909
  605WAT     H1 4225   2.470  10.096   4.492 -1.3634 -0.9406  1.7035
  605WAT     H2 4226   2.470  10.044   4.351  3.8993  0.7664  0.8757
  605WAT    EPW 4227   2.453  10.033   4.435  0.4158 -0.1497  0.1996
  606WAT      O 4228  -4.892   8.259   7.856 -0.0378  0.2728  0.6612
  606WAT     H1 4229  -4.944   8.286   7.932 -2.8298  0.7181 -1.2432
  606WAT     H2 4230  -4.858   8.341   7.820  1.5980  0.0316  1.5602
  606WAT    EPW 4231  -4.895   8.273   7.861 -0.1900  0.3004  0.5286
  607WAT      O 4232   5.440   1.546   4.067 -0.2413 -0.2023  0.3243
  607WAT     H1 4233   5.508   1.551   4.133 -0.1740 -1.3307  0.3502
  607WAT     H2 4234   5.441   1.633   4.025  1.6048 -0.3744 -0.0749
  607WAT    EPW 4235   5.449   1.558   4.070  0.0110 -0.3738  0.2751
  608WAT      O 4236  -3.405   9.096   2.556  0.1900  0.2728 -0.5029
  608WAT     H1 4237  -3.443   9.079   2.470  2.2681 -0.3542 -1.3485
  608WAT     H2 4238  -3.367   9.184   2.549 -1.8693  1.3613  0.6835
  608WAT    EPW 4239  -3.405   9.106   2.544  0.1925  0.3338 -0.4579
  609WAT      O 4240  -0.562   4.424   7.824 -0.2818 -0.3577 -0.2886
  609WAT     H1 4241  -0.568   4.393   7.733  1.8367  0.4202 -0.7473
  609WAT     H2 4242  -0.589   4.515   7.820 -2.5587 -0.9529  0.3448
  609WAT    EPW 4243  -0.566   4.432   7.811 -0.3027 -0.3335 -0.2654
  610WAT      O 4244   0.392   8.218   6.009 -0.4310 -0.0840 -0.0786
  610WAT     H1 4245   0.305   8.218   5.969  0.6651  3.0316 -2.9374
  610WAT     H2 4246   0.380   8.259   6.094 -1.6684  1.3066 -0.8723
  610WAT    EPW 4247   0.379   8.223   6.015 -0.4496  0.5107 -0.5603
  611WAT      O 4248   8.050   3.964   0.954  0.4639  0.1907 -0.5714
  611WAT     H1 4249   8.052   4.059   0.960  0.8830  0.2227 -1.1341
  611WAT     H2 4250   8.139   3.940   0.927  0.3527 -0.3582 -0.4646
  611WAT    EPW 4251   8.062   3.973   0.951  0.5040  0.1225 -0.6315
  612WAT      O 4252   1.554   4.382   2.147  0.0938 -0.3629 -0.5996
  612WAT     H1 4253   1.578   4.450   2.085 -1.2183 -0.7156 -1.5545
  612WAT     H2 4254   1.637   4.352   2.184  0.6452  2.6663  0.9199
  612WAT    EPW 4255   1.568   4.387   2.143 -0.0066 -0.0100 -0.5251
  613WAT      O 4256  -1.681   7.581   6.600 -0.2857  0.5895  0.2133
  613WAT     H1 4257  -1.683   7.511   6.535 -1.1212  2.5508 -2.0175
  613WAT     H2 4258  -1.634   7.652   6.557 -1.9670  2.4242  1.2259
  613WAT    EPW 4259  -1.675   7.581   6.585 -0.6177  1.0900  0.0529
  614WAT      O 4260  -4.670   6.865   5.735  0.5196  0.1383  0.1675
  614WAT     H1 4261  -4.673   6.785   5.683 -0.2763  0.0813  0.2861
  614WAT     H2 4262  -4.687   6.836   5.825  1.2753  0.3120  0.3730
  614WAT    EPW 4263  -4.673   6.851   5.740  0.5143  0.1538  0.2103
  615WAT      O 4264  -5.261   3.616   7.216  0.0075 -0.1161 -0.5859
  615WAT     H1 4265  -5.208   3.695   7.226  0.5729 -0.4670 -0.7997
  615WAT     H2 4266  -5.236   3.560   7.289 -0.0332 -0.2997 -0.7100
  615WAT    EPW 4267  -5.251   3.619   7.227  0.0768 -0.1866 -0.6306
  616WAT      O 4268   1.314   5.192   4.349  0.5339  0.3956  0.1982
  616WAT     H1 4269   1.327   5.116   4.292  0.0208  1.8810 -2.0377
  616WAT     H2 4270   1.392   5.246   4.335  1.8418 -0.4854  3.2488
  616WAT    EPW 4271   1.326   5.189   4.339  0.6387  0.4752  0.3057
  617WAT      O 4272   4.996   3.510   7.161  0.0554  0.2473 -0.1577
  617WAT     H1 4273   4.947   3.438   7.202  0.9015 -0.1311  0.2286
  617WAT     H2 4274   5.086   3.497   7.192  0.5751  0.3980 -1.5585
  617WAT    EPW 4275   5.001   3.499   7.171  0.2356  0.2173 -0.2913
  618WAT      O 4276   3.425   6.634   6.765 -0.0391  0.6665 -0.0243
  618WAT     H1 4277   3.382   6.718   6.780 -0.5833  0.1108  1.7740
  618WAT     H2 4278   3.516   6.657   6.746 -0.2205  1.6738  0.2875
  618WAT    EPW 4279   3.432   6.648   6.765 -0.1348  0.7260  0.2539
  619WAT      O 4280   4.385   7.138   3.886 -0.4766 -0.2744  0.1333
  619WAT     H1 4281   4.343   7.058   3.919 -0.0843 -1.0782 -1.2511
  619WAT     H2 4282   4.389   7.126   3.791  0.2231  1.0929 -0.0359
  619WAT    EPW 4283   4.380   7.126   3.878 -0.3328 -0.2003 -0.0715
  620WAT      O 4284  -4.133   8.800   2.663 -0.8974 -0.3207  0.1277
  620WAT     H1 4285  -4.154   8.892   2.675 -0.8575 -0.1163 -1.1998
  620WAT     H2 4286  -4.213   8.760   2.628  0.0794 -0.0097 -2.7207
  620WAT    EPW 4287  -4.146   8.807   2.660 -0.7629 -0.2532 -0.4231
  621WAT      O 4288   3.105   5.015   1.979 -0.3578 -0.2733  0.1367
  621WAT     H1 4289   3.067   5.061   2.054  0.0078  0.1103  0.0899
  621WAT     H2 4290   3.074   5.065   1.903  0.9996  0.6173  0.1416
  621WAT    EPW 4291   3.096   5.028   1.979 -0.1307 -0.1051  0.1311
  622WAT      O 4292  -4.333   9.245   2.268 -0.0289  0.0843  0.4639
  622WAT     H1 4293  -4.265   9.274   2.207  0.1353 -0.9695  0.1308
  622WAT     H2 4294  -4.384   9.181   2.219 -0.4626 -0.1031  1.1379
  622WAT    EPW 4295  -4.331   9.241   2.254 -0.0646 -0.0792  0.5088
  623WAT      O 4296  -2.332   6.837   8.840  0.1946  0.4459 -0.3852
  623WAT     H1 4297  -2.237   6.841   8.852  0.2090  0.6893 -0.5698
  623WAT     H2 4298  -2.366   6.831   8.930  0.4985 -3.4004 -0.3866
  623WAT    EPW 4299  -2.324   6.837   8.854  0.2366 -0.0293 -0.4096
  624WAT      O 4300   0.757   6.298   6.955  0.1053 -0.4367  0.4218
  624WAT     H1 4301   0.780   6.341   7.037  3.3946 -0.8652 -0.1263
  624WAT     H2 4302   0.662   6.309   6.948 -0.3159 -0.2571  4.1484
  624WAT    EPW 4303   0.747   6.305   6.965  0.4836 -0.4694  0.8411
  625WAT      O 4304   2.632   7.707   6.397 -0.0772  0.4277 -0.2527
  625WAT     H1 4305   2.549   7.693   6.443 -0.1387  0.7429 -0.2688
  625WAT     H2 4306   2.663   7.618   6.377  0.1073  0.2695  0.6711
  625WAT    EPW 4307   2.625   7.693   6.400 -0.0609  0.4485 -0.1328
  626WAT      O 4308  -3.474   9.951   5.403  0.3237 -0.5880  0.5188
  626WAT     H1 4309  -3.412   9.884   5.430 -0.7370 -1.1431  1.6873
  626WAT     H2 4310  -3.458  10.024   5.463 -0.1382 -0.7220  0.8034
  626WAT    EPW 4311  -3.464   9.952   5.415  0.1229 -0.6790  0.7105
  627WAT      O 4312  -4.098   9.615   5.844  0.0656  0.4939 -0.6383
  627WAT     H1 4313  -4.178   9.626   5.792 -0.2886 -1.6549 -0.6405
  627WAT     H2 4314  -4.101   9.686   5.908 -1.8422  0.4928 -0.6748
  627WAT    EPW 4315  -4.109   9.626   5.845 -0.2327  0.2103 -0.6435
  628WAT      O 4316  -0.417   3.766   3.214  0.2632 -0.1051  0.9756
  628WAT     H1 4317  -0.355   3.812   3.270  0.2916 -0.9404  1.6526
  628WAT     H2 4318  -0.363   3.711   3.157  0.1964  0.0779  0.7342
  628WAT    EPW 4319  -0.402   3.764   3.213  0.2581 -0.1911  1.0331
  629WAT      O 4320   3.755   5.086   2.688 -0.6953  0.3001  0.2070
  629WAT     H1 4321   3.674   5.039   2.711 -1.6556  2.3352  1.2187
  629WAT     H2 4322   3.809   5.080   2.766 -0.2332 -0.2466 -0.1431
  629WAT    EPW 4323   3.751   5.079   2.701 -0.7609  0.4964  0.2942
  630WAT      O 4324   1.640   4.728   0.142 -0.2660  0.2832  0.2972
  630WAT     H1 4325   1.624   4.711   0.050  1.6793 -2.4780  0.3460
  630WAT     H2 4326   1.675   4.817   0.145 -2.1791  1.1677 -1.2994
  630WAT    EPW 4327   1.642   4.737   0.130 -0.2618  0.0358  0.0931
  631WAT      O 4328   0.420   9.828   0.021 -0.7615 -0.3132  0.4795
  631WAT     H1 4329   0.471   9.839   0.102 -1.2539  0.0215  0.7457
  631WAT     H2 4330   0.403   9.917  -0.009 -2.0845 -0.3910  0.9581
  631WAT    EPW 4331   0.425   9.841   0.028 -1.0010 -0.2794  0.5779
  632WAT      O 4332   2.036   0.096   7.675  0.4861 -0.3494  0.1494
  632WAT     H1 4333   2.132   0.092   7.678  0.4586 -0.8392  0.4055
  632WAT     H2 4334   2.008   0.067   7.761  0.1064 -0.0339  0.1366
  632WAT    EPW 4335   2.045   0.092   7.686  0.4324 -0.3724  0.1814
  633WAT      O 4336   2.847   4.574   4.773 -0.5412  0.5273  0.5042
  633WAT     H1 4337   2.819   4.600   4.685 -2.2695  0.7467  1.0761
  633WAT     H2 4338   2.769   4.588   4.828  0.1808 -0.5922  1.8807
  633WAT    EPW 4339   2.833   4.580   4.769 -0.6739  0.4086  0.7613
  634WAT      O 4340   0.247   3.013   5.923 -0.0439 -0.4577 -0.2249
  634WAT     H1 4341   0.166   2.990   5.969  0.6214 -0.0901  1.1885
  634WAT     H2 4342   0.223   3.011   5.830 -1.4695 -1.1088  0.1254
  634WAT    EPW 4343   0.233   3.010   5.917 -0.1442 -0.4950  0.0076
  635WAT      O 4344   4.383   0.769   7.622 -0.3305 -0.0737  0.5190
  635WAT     H1 4345   4.340   0.706   7.564  0.7067 -0.2797 -0.0431
  635WAT     H2 4346   4.451   0.810   7.568  0.2184  0.1966  1.3911
  635WAT    EPW 4347   4.387   0.766   7.608 -0.1214 -0.0652  0.5596
  636WAT      O 4348   1.273   3.445   3.135 -0.2884 -0.2534  0.1050
  636WAT     H1 4349   1.230   3.478   3.057  1.6686  0.3276 -0.8027
  636WAT     H2 4350   1.291   3.353   3.116 -0.3898 -0.2809  0.1416
  636WAT    EPW 4351   1.270   3.437   3.122 -0.0436 -0.1804 -0.0098
  637WAT      O 4352   3.287   8.010   5.388  0.3586 -0.2453 -0.1273
  637WAT     H1 4353   3.230   8.032   5.462  0.0716 -0.8174 -0.1740
  637WAT     H2 4354   3.376   8.016   5.424  0.2652  0.3797  0.0188
  637WAT    EPW 4355   3.291   8.014   5.403  0.3084 -0.2389 -0.1142
  638WAT      O 4356   0.412   6.722   2.212 -0.5336  0.0989 -0.4388
  638WAT     H1 4357   0.343   6.656   2.211  0.9908 -1.6368  0.5944
  638WAT     H2 4358   0.426   6.740   2.306  1.5410 -0.9209 -0.4976
  638WAT    EPW 4359   0.405   6.716   2.224 -0.0589 -0.2644 -0.3103
  639WAT      O 4360  -1.848   5.691   6.151  1.1689 -0.0044 -0.0138
  639WAT     H1 4361  -1.871   5.611   6.197 -0.3710  0.4742  0.0834
  639WAT     H2 4362  -1.811   5.661   6.068 -0.9396 -0.8456 -0.7040
  639WAT    EPW 4363  -1.846   5.677   6.146  0.6878 -0.0525 -0.0923
  640WAT      O 4364   3.224   0.050   6.542 -0.9082  0.0293 -0.4903
  640WAT     H1 4365   3.244  -0.042   6.561 -1.0918 -0.2303 -1.4849
  640WAT     H2 4366   3.141   0.047   6.493 -1.3414  0.7902  0.1638
  640WAT    EPW 4367   3.216   0.038   6.538 -0.9896  0.0955 -0.5352
  641WAT      O 4368   3.046   2.978   0.046 -0.3673 -0.0891 -0.3637
  641WAT     H1 4369   3.099   2.956  -0.031  0.0732  3.0368 -1.1099
  641WAT     H2 4370   3.111   2.993   0.115 -0.4503  0.8308 -0.4702
  641WAT    EPW 4371   3.062   2.977   0.045 -0.3201  0.4444 -0.4762
  642WAT      O 4372   8.969   1.554   1.697  0.2534 -0.3574 -0.1576
  642WAT     H1 4373   8.920   1.483   1.738  1.6571 -0.6194  1.1105
  642WAT     H2 4374   9.058   1.521   1.688  0.3959  0.3491 -1.8455
  642WAT    EPW 4375   8.974   1.540   1.701  0.4573 -0.2987 -0.2130
  643WAT      O 4376  -2.170   8.603   3.084 -0.4781 -0.2088  0.1518
  643WAT     H1 4377  -2.139   8.571   3.168  1.1145 -1.0777 -0.7193
  643WAT     H2 4378  -2.097   8.656   3.050 -0.4066 -1.2313 -1.3877
  643WAT    EPW 4379  -2.156   8.606   3.091 -0.2586 -0.4582 -0.1661
  644WAT      O 4380   1.467   7.293   1.361 -0.1828 -0.1352  0.3367
  644WAT     H1 4381   1.416   7.362   1.405 -0.1609  0.2472 -0.2317
  644WAT     H2 4382   1.445   7.302   1.268  3.5230  2.3907 -0.5394
  644WAT    EPW 4383   1.457   7.303   1.355  0.3089  0.2484  0.1462
  645WAT      O 4384  -2.061   8.753   1.693 -0.3294 -0.1577 -0.0320
  645WAT     H1 4385  -2.054   8.658   1.701  0.6272 -0.1488 -0.6145
  645WAT     H2 4386  -2.037   8.772   1.602  0.9185  0.7464  0.4432
  645WAT    EPW 4387  -2.057   8.743   1.682 -0.0387 -0.0372 -0.0462
  646WAT      O 4388  -3.648   6.550   8.367 -0.2053 -0.0148 -0.5543
  646WAT     H1 4389  -3.702   6.473   8.354 -0.2061 -0.1307  0.1249
  646WAT     H2 4390  -3.704   6.611   8.415  0.4694 -0.3994  0.7681
  646WAT    EPW 4391  -3.662   6.548   8.372 -0.1165 -0.0811 -0.2909
  647WAT      O 4392  -1.927   7.368   1.271  0.0255 -0.1514 -0.2916
  647WAT     H1 4393  -1.958   7.424   1.343  1.6724 -1.0934  1.2330
  647WAT     H2 4394  -1.993   7.379   1.202 -2.6945 -0.6650  2.0317
  647WAT    EPW 4395  -1.940   7.377   1.271 -0.1160 -0.3433  0.2159
  648WAT      O 4396   3.310   6.838   1.825  0.2755  0.9027 -0.1866
  648WAT     H1 4397   3.215   6.834   1.837  0.5592 -1.8902  2.3954
  648WAT     H2 4398   3.333   6.928   1.849 -1.5224  0.9876  1.5355
  648WAT    EPW 4399   3.300   6.850   1.830  0.0759  0.5453  0.3811
  649WAT      O 4400   4.574   3.007   2.091 -0.2187 -0.2425  0.2051
  649WAT     H1 4401   4.599   2.944   2.158 -0.3720  0.9977  1.4922
  649WAT     H2 4402   4.601   2.967   2.008  2.8884 -0.5270  1.2065
  649WAT    EPW 4403   4.581   2.994   2.089  0.1707 -0.1163  0.5070
  650WAT      O 4404   0.288   5.388   2.609 -0.0558  0.4224  0.2609
  650WAT     H1 4405   0.374   5.358   2.581 -0.4089  0.6219 -1.0865
  650WAT     H2 4406   0.229   5.318   2.584 -0.8041  1.8633 -2.3492
  650WAT    EPW 4407   0.292   5.375   2.602 -0.2010  0.6390 -0.2611
  651WAT      O 4408   2.964   0.938   5.716  0.0640 -0.0104  0.2974
  651WAT     H1 4409   3.043   0.931   5.663  0.1239 -0.8154  0.4920
  651WAT     H2 4410   2.894   0.955   5.652  0.3842  0.6983  0.1253
  651WAT    EPW 4411   2.965   0.940   5.700  0.1141 -0.0231  0.3004
  652WAT      O 4412   2.937   8.715   6.557 -0.2068 -0.5132  0.4834
  652WAT     H1 4413   3.012   8.692   6.502 -0.3813  0.6476 -0.2763
  652WAT     H2 4414   2.966   8.693   6.646  1.7396  1.4504  0.4278
  652WAT    EPW 4415   2.951   8.709   6.562  0.0268 -0.1016  0.3757
  653WAT      O 4416  -2.760   9.599   1.703  0.0050 -0.0750  0.5163
  653WAT     H1 4417  -2.825   9.529   1.692 -0.9831  0.5273  2.1316
  653WAT     H2 4418  -2.698   9.564   1.767 -0.4101  0.4525  1.2182
  653WAT    EPW 4419  -2.761   9.585   1.710 -0.1800  0.0744  0.8219
  654WAT      O 4420  -2.666   7.165   6.589 -0.5978  0.4129  0.5697
  654WAT     H1 4421  -2.666   7.074   6.560 -2.8045  0.4977  0.1634
  654WAT     H2 4422  -2.732   7.207   6.534  3.6552  3.5382 -2.9164
  654WAT    EPW 4423  -2.675   7.158   6.578 -0.3278  0.8364  0.0565
  655WAT      O 4424   6.476   4.086   0.391  0.5136  0.3888 -0.0258
  655WAT     H1 4425   6.531   4.159   0.421 -0.9486  1.5723 -0.1551
  655WAT     H2 4426   6.455   4.038   0.471 -0.7397  1.7022  0.4740
  655WAT    EPW 4427   6.481   4.089   0.406  0.1554  0.7181  0.0231
  656WAT      O 4428   0.456   1.029   6.244 -0.6708  0.8104  0.4168
  656WAT     H1 4429   0.503   1.061   6.167  0.1141  2.3270  1.4657
  656WAT     H2 4430   0.407   0.954   6.213  1.8444 -0.3905 -0.9405
  656WAT    EPW 4431   0.456   1.024   6.230 -0.2355  0.8520  0.3762
  657WAT      O 4432   1.269   0.287   1.303 -0.3173  0.6247 -0.1273
  657WAT     H1 4433   1.176   0.274   1.323 -0.2470  1.2413  0.6241
  657WAT     H2 4434   1.308   0.201   1.319 -0.4781  0.7770  1.2108
  657WAT    EPW 4435   1.262   0.274   1.308 -0.3292  0.7261  0.1484
  658WAT      O 4436   4.394   6.000   6.822 -0.2580  0.0288 -0.1169
  658WAT     H1 4437   4.378   6.065   6.754 -1.5648 -0.9710 -0.8157
  658WAT     H2 4438   4.363   5.918   6.784 -0.1065 -0.7297  1.3326
  658WAT    EPW 4439   4.388   5.998   6.808 -0.4103 -0.2031 -0.0179
  659WAT      O 4440   2.389   3.998   1.408 -0.1756  0.3751 -0.0949
  659WAT     H1 4441   2.445   4.071   1.380 -0.4494  1.9593  3.0152
  659WAT     H2 4442   2.448   3.923   1.413  0.0527  0.1226 -3.7177
  659WAT    EPW 4443   2.404   3.998   1.405 -0.1816  0.5509 -0.1625
  660WAT      O 4444  -4.048   9.341   3.528  0.6933 -0.7800 -0.6958
  660WAT     H1 4445  -4.124   9.299   3.487 -1.0189 -0.5222  1.9304
  660WAT     H2 4446  -4.050   9.308   3.618  0.0351  3.7313  1.2125
  660WAT    EPW 4447  -4.059   9.331   3.535  0.3805 -0.1512 -0.0976
  661WAT      O 4448   3.604   9.596   1.914  0.3909 -0.3531 -0.3456
  661WAT     H1 4449   3.657   9.675   1.929  0.5258 -0.2595 -1.3083
  661WAT     H2 4450   3.602   9.554   2.000  0.0161  0.8733  0.2833
  661WAT    EPW 4451   3.611   9.601   1.928  0.3593 -0.1793 -0.3896
  662WAT      O 4452   0.180   9.253   3.417  0.1726 -0.6817 -0.4217
  662WAT     H1 4453   0.229   9.323   3.374  0.3724 -0.2757  0.4653
  662WAT     H2 4454   0.091   9.264   3.385  0.1114  0.2500  0.0355
  662WAT    EPW 4455   0.175   9.264   3.407  0.1909 -0.5050 -0.2444
  663WAT      O 4456  -6.614   9.084   6.403  0.0308  0.6918 -0.5134
  663WAT     H1 4457  -6.671   9.104   6.478  0.5994  0.7744 -0.1029
  663WAT     H2 4458  -6.569   9.003   6.428  2.2002  2.0885  0.3981
  663WAT    EPW 4459  -6.616   9.076   6.416  0.3917  0.8864 -0.3388
  664WAT      O 4460   6.144   0.915   6.748  0.4701  0.4817 -0.4395
  664WAT     H1 4461   6.112   0.830   6.718 -0.1630  1.6473 -3.3259
  664WAT     H2 4462   6.185   0.896   6.832 -0.9808 -2.4021 -0.2516
  664WAT    EPW 4463   6.145   0.901   6.755  0.1953  0.2551 -0.7954
  665WAT      O 4464  -0.841   3.421   0.990  0.2102  0.5392  0.1962
  665WAT     H1 4465  -0.821   3.370   0.911 -0.5187  0.9735 -0.2826
  665WAT     H2 4466  -0.761   3.469   1.009  0.1438  1.0432 -0.7512
  665WAT    EPW 4467  -0.828   3.420   0.982  0.1053  0.6629  0.0081
  666WAT      O 4468   2.654   7.887   2.644 -0.2924  0.2974  0.2947
  666WAT     H1 4469   2.592   7.917   2.711 -0.4010  1.7724 -0.4358
  666WAT     H2 4470   2.739   7.888   2.688 -0.3048  1.6194  0.3255
  666WAT    EPW 4471   2.657   7.891   2.659 -0.3084  0.6664  0.2025
  667WAT      O 4472   1.828   7.086   4.962  0.5406 -0.1230  0.0705
  667WAT     H1 4473   1.861   7.063   4.875 -0.3594 -1.8112  0.1375
  667WAT     H2 4474   1.757   7.024   4.978 -0.9991  1.7899  0.9829
  667WAT    EPW 4475   1.823   7.075   4.953  0.2188 -0.0935  0.1998
  668WAT      O 4476  -2.120   4.573   1.776 -1.0398 -0.6079 -0.5091
  668WAT     H1 4477  -2.144   4.644   1.836 -0.7781 -1.2060  0.3286
  668WAT     H2 4478  -2.046   4.530   1.819 -0.4853 -0.7188 -1.5381
  668WAT    EPW 4479  -2.114   4.577   1.790 -0.9322 -0.7014 -0.5343
  669WAT      O 4480   4.928   4.238   5.526  0.3705  0.3259 -0.3655
  669WAT     H1 4481   4.942   4.300   5.454 -2.6017  1.7247  0.0781
  669WAT     H2 4482   4.837   4.208   5.513  0.6410 -1.3775  1.3635
  669WAT    EPW 4483   4.918   4.242   5.514  0.0141  0.2856 -0.0792
  670WAT      O 4484  -4.122   7.535   7.610  0.8046 -0.0729 -0.2605
  670WAT     H1 4485  -4.155   7.478   7.541  0.8236  0.9923 -1.1648
  670WAT     H2 4486  -4.191   7.535   7.677  1.4125 -2.2865  0.4514
  670WAT    EPW 4487  -4.135   7.528   7.610  0.8874 -0.2241 -0.2859
  671WAT      O 4488  -0.045   5.293   2.288  1.2271  0.5373  0.1654
  671WAT     H1 4489   0.046   5.265   2.278  1.4276  0.6761  1.4740
  671WAT     H2 4490  -0.095   5.211   2.289  1.4205  0.4202  0.2464
  671WAT    EPW 4491  -0.039   5.278   2.286  1.2790  0.5403  0.3487
  672WAT      O 4492   5.752   0.900   3.231 -0.1036 -0.0889 -0.0918
  672WAT     H1 4493   5.785   0.935   3.313 -0.5630 -0.7497  0.3829
  672WAT     H2 4494   5.717   0.976   3.184  0.8445  0.4094 -0.0152
  672WAT    EPW 4495   5.752   0.914   3.235 -0.0393 -0.1104 -0.0192
  673WAT      O 4496   4.222   4.722   7.252  0.1382 -0.1850 -0.1042
  673WAT     H1 4497   4.176   4.733   7.169 -1.1570  1.4670  0.7641
  673WAT     H2 4498   4.282   4.796   7.257  1.3301 -1.1146 -0.2243
  673WAT    EPW 4499   4.224   4.733   7.242  0.1245 -0.0896 -0.0055
  674WAT      O 4500   4.933   8.045   2.754  0.3146  0.0245  0.6570
  674WAT     H1 4501   4.964   8.074   2.668 -0.8731 -0.5540  0.0043
  674WAT     H2 4502   4.979   8.101   2.816  2.2099 -0.4247 -0.2673
  674WAT    EPW 4503   4.943   8.056   2.751  0.4079 -0.1116  0.4491
  675WAT      O 4504   5.006   5.482   3.943 -0.3983 -0.2912 -0.1120
  675WAT     H1 4505   5.022   5.407   4.002  0.1883 -1.2178 -1.3976
  675WAT     H2 4506   4.949   5.540   3.994  0.9874 -0.4949  1.8119
  675WAT    EPW 4507   5.001   5.480   3.958 -0.1380 -0.4404 -0.0278
  676WAT      O 4508   4.781   2.801   4.939 -0.5143  0.1993  0.0559
  676WAT     H1 4509   4.731   2.733   4.984 -0.8526 -1.5595 -2.7451
  676WAT     H2 4510   4.740   2.883   4.966 -0.4131 -0.6509  3.1638
  676WAT    EPW 4511   4.769   2.803   4.949 -0.5455 -0.1447  0.0963
  677WAT      O 4512   1.532   4.343   5.474 -0.4763 -0.3562 -0.0541
  677WAT     H1 4513   1.506   4.382   5.390 -0.3743 -2.7512 -1.3003
  677WAT     H2 4514   1.458   4.287   5.498 -0.2346 -0.1822  1.1286
  677WAT    EPW 4515   1.518   4.341   5.466 -0.4309 -0.6492 -0.0625
  678WAT      O 4516  -3.626   5.937   5.537  0.5243  0.6898 -0.0850
  678WAT     H1 4517  -3.661   6.012   5.584 -0.7571  0.5652 -0.7875
  678WAT     H2 4518  -3.701   5.880   5.523  1.4791 -0.7709  0.4831
  678WAT    EPW 4519  -3.640   5.939   5.541  0.4812  0.4809 -0.1025
  679WAT      O 4520   3.602   3.488   6.047  0.8861  0.4593  0.6823
  679WAT     H1 4521   3.610   3.415   6.108  0.1493 -1.5290 -1.4470
  679WAT     H2 4522   3.683   3.538   6.060  1.9867 -1.3832  1.4343
  679WAT    EPW 4523   3.614   3.485   6.057  0.9341 -0.0459  0.5007
  680WAT      O 4524   3.618   6.225   0.699  0.7016  0.4174  0.4739
  680WAT     H1 4525   3.684   6.158   0.681 -0.7644 -0.9116 -0.2018
  680WAT     H2 4526   3.623   6.284   0.624 -0.5572 -1.1311 -0.9295
  680WAT    EPW 4527   3.628   6.224   0.687  0.3422  0.0377  0.1997
  681WAT      O 4528  -2.555   7.784   7.928 -0.3953 -0.1367 -0.2750
  681WAT     H1 4529  -2.479   7.740   7.967 -0.3342  0.1272 -0.0970
  681WAT     H2 4530  -2.517   7.851   7.871 -0.4979  0.0115 -0.1671
  681WAT    EPW 4531  -2.540   7.787   7.925 -0.4008 -0.0823 -0.2372
  682WAT      O 4532   3.549   1.115   7.179 -0.3628 -0.0134 -0.4731
  682WAT     H1 4533   3.529   1.035   7.227 -0.7339  0.4752  0.2009
  682WAT     H2 4534   3.636   1.100   7.142 -0.3266 -0.6258 -0.1439
  682WAT    EPW 4535   3.558   1.103   7.181 -0.4069 -0.0297 -0.3407
  683WAT      O 4536   3.837   3.725   4.091 -0.3790 -0.5321  1.0528
  683WAT     H1 4537   3.843   3.806   4.041 -0.9442 -2.0344 -1.5958
  683WAT     H2 4538   3.746   3.696   4.080  0.4757 -2.9163 -0.4308
  683WAT    EPW 4539   3.826   3.732   4.083 -0.3409 -1.0446  0.5078
  684WAT      O 4540   2.070   1.266   8.793 -0.4513  0.1315  0.4399
  684WAT     H1 4541   2.110   1.191   8.750 -2.9394 -1.1245  0.1599
  684WAT     H2 4542   2.128   1.285   8.867  1.1337 -0.9555 -0.4841
  684WAT    EPW 4543   2.083   1.259   8.797 -0.5704 -0.1775  0.2809
  685WAT      O 4544   6.990   2.729   2.485  0.5650 -0.7113  0.0136
  685WAT     H1 4545   7.083   2.709   2.481  0.7303  0.1492 -0.6982
  685WAT     H2 4546   6.948   2.659   2.435  0.5719 -2.4503  2.2987
  685WAT    EPW 4547   6.997   2.717   2.478  0.5877 -0.8272  0.2211
  686WAT      O 4548  -1.419   3.281   2.482  0.0166 -0.2347  0.0569
  686WAT     H1 4549  -1.353   3.341   2.517  0.7422 -0.6636 -0.5478
  686WAT     H2 4550  -1.496   3.295   2.537  1.0442 -0.7249  1.6884
  686WAT    EPW 4551  -1.420   3.290   2.494  0.2478 -0.3558  0.1924
  687WAT      O 4552  -2.904   8.395   6.621  0.2777  0.0075 -0.3820
  687WAT     H1 4553  -2.911   8.439   6.537  1.3193  0.1687 -0.4005
  687WAT     H2 4554  -2.828   8.338   6.612  1.0578  0.8172  0.7787
  687WAT    EPW 4555  -2.895   8.393   6.609  0.5180  0.1354 -0.2313
  688WAT      O 4556  -1.437   7.228   2.812  0.1153  0.5682  0.3038
  688WAT     H1 4557  -1.465   7.138   2.830  1.3474 -0.1886 -1.3438
  688WAT     H2 4558  -1.519   7.276   2.796 -0.4610 -0.7741 -0.9820
  688WAT    EPW 4559  -1.452   7.223   2.812  0.2018  0.2913 -0.0831
  689WAT      O 4560  -4.433   8.770   8.868 -0.3173  0.0784  0.2881
  689WAT     H1 4561  -4.450   8.690   8.918 -1.0101  0.2099  0.2777
  689WAT     H2 4562  -4.475   8.839   8.919  1.7385  0.7268  1.2133
  689WAT    EPW 4563  -4.441   8.768   8.881 -0.1373  0.1812  0.4086
  690WAT      O 4564  -1.685   7.475   4.123 -0.0484 -0.1008 -0.5167
  690WAT     H1 4565  -1.724   7.392   4.149  1.5666 -0.1531  2.1500
  690WAT     H2 4566  -1.755   7.539   4.135 -0.3110 -0.6222  0.9433
  690WAT    EPW 4567  -1.699   7.473   4.128  0.1300 -0.1764  0.0277
  691WAT      O 4568   3.115   5.246   1.083 -0.7772 -0.1173 -0.0684
  691WAT     H1 4569   3.126   5.290   0.999 -0.4309  0.3695  0.2229
  691WAT     H2 4570   3.170   5.168   1.077  3.7675  2.5576  1.5679
  691WAT    EPW 4571   3.124   5.242   1.071 -0.1321  0.2997  0.1858
  692WAT      O 4572   2.314   4.155   7.825  0.5719 -0.1397 -0.0383
  692WAT     H1 4573   2.282   4.191   7.907  0.0791  1.5520 -0.9336
  692WAT     H2 4574   2.404   4.128   7.843  0.9543  1.5489  0.6938
  692WAT    EPW 4575   2.322   4.156   7.838  0.5574  0.3061 -0.0601
  693WAT      O 4576  -2.148   3.276   6.206  0.4642 -0.3937  0.1376
  693WAT     H1 4577  -2.198   3.289   6.287 -0.7269 -0.0063 -0.6380
  693WAT     H2 4578  -2.136   3.181   6.201  3.0660 -0.2894  2.2065
  693WAT    EPW 4579  -2.153   3.265   6.216  0.6503 -0.3288  0.3083
  694WAT      O 4580  -2.387   8.740   8.009  0.3174 -0.1136  0.8059
  694WAT     H1 4581  -2.482   8.735   8.001 -0.0140  3.3319  1.2769
  694WAT     H2 4582  -2.372   8.798   8.083  2.8349 -1.3356  1.3519
  694WAT    EPW 4583  -2.398   8.747   8.017  0.6057  0.1798  0.9398
  695WAT      O 4584  -0.970   0.387   1.487 -0.2139 -0.6541  0.0293
  695WAT     H1 4585  -0.951   0.306   1.439 -0.9047 -2.0721  1.9809
  695WAT     H2 4586  -1.036   0.360   1.552  1.9456  0.6559  2.9694
  695WAT    EPW 4587  -0.976   0.373   1.490 -0.0201 -0.6683  0.6745
  696WAT      O 4588   0.759   2.821   2.311  0.6237 -0.4850  0.8315
  696WAT     H1 4589   0.760   2.774   2.228 -2.2498 -1.1270  1.0735
  696WAT     H2 4590   0.823   2.776   2.365  0.4944 -1.8505 -0.1163
  696WAT    EPW 4591   0.768   2.809   2.307  0.2276 -0.7496  0.7384
  697WAT      O 4592  -4.849   4.401   7.409 -0.4850  0.6515 -0.5544
  697WAT     H1 4593  -4.776   4.349   7.375  0.6736  2.6449 -1.2858
  697WAT     H2 4594  -4.918   4.392   7.343 -1.0719 -1.4419  0.2566
  697WAT    EPW 4595  -4.849   4.393   7.396 -0.4096  0.6382 -0.5441
  698WAT      O 4596  -2.913   7.130   1.834  1.2172 -0.2514  0.1971
  698WAT     H1 4597  -2.946   7.204   1.885  0.9662 -1.0982  1.2859
  698WAT     H2 4598  -2.971   7.058   1.857  1.6386 -0.8652 -0.6361
  698WAT    EPW 4599  -2.925   7.131   1.843  1.2397 -0.4439  0.2308
  699WAT      O 4600   1.747   3.474   5.382  0.4307 -0.2021 -0.3503
  699WAT     H1 4601   1.733   3.408   5.450 -1.6097 -0.1220 -0.6347
  699WAT     H2 4602   1.745   3.426   5.300 -2.3163  0.2471 -0.6537
  699WAT    EPW 4603   1.745   3.459   5.380 -0.2007 -0.1322 -0.4277
  700WAT      O 4604  -3.492   1.141   8.935  0.7574  0.5124  0.1265
  700WAT     H1 4605  -3.465   1.078   8.868 -0.0704  0.8890 -0.5845
  700WAT     H2 4606  -3.412   1.158   8.985  0.6867 -2.3106  1.4053
  700WAT    EPW 4607  -3.478   1.135   8.933  0.6390  0.1898  0.2012
  701WAT      O 4608  -3.090   5.712   5.067  0.4847  0.2079 -0.1671
  701WAT     H1 4609  -3.000   5.684   5.079  0.7430  1.2249  0.3440
  701WAT     H2 4610  -3.142   5.634   5.087  1.2529 -0.5337 -0.9597
  701WAT    EPW 4611  -3.085   5.698   5.071  0.6200  0.2441 -0.2043
  702WAT      O 4612   3.076   5.700   6.622 -0.7843 -0.2312 -0.1329
  702WAT     H1 4613   3.135   5.735   6.555 -2.0192  2.7326  0.1753
  702WAT     H2 4614   2.994   5.685   6.576 -1.2486  0.5310  0.4325
  702WAT    EPW 4615   3.073   5.703   6.607 -1.0084  0.2601 -0.0179
  703WAT      O 4616   4.779   0.114   6.620 -0.3652  0.1199  0.0247
  703WAT     H1 4617   4.806   0.023   6.618 -0.9318 -0.0465 -0.1702
  703WAT     H2 4618   4.686   0.112   6.643 -0.9045  0.5188 -1.9590
  703WAT    EPW 4619   4.770   0.102   6.623 -0.5112  0.1505 -0.2625
  704WAT      O 4620  -3.120  10.135   6.008 -0.4145 -0.2318 -0.0055
  704WAT     H1 4621  -3.161  10.202   6.063  1.6134 -0.4066  1.8752
  704WAT     H2 4622  -3.056  10.183   5.955 -0.5947 -0.3932 -0.3733
  704WAT    EPW 4623  -3.117  10.150   6.008 -0.1708 -0.2761  0.1941
  705WAT      O 4624   6.012   8.989   0.156  0.1793  0.4567  0.4260
  705WAT     H1 4625   6.025   8.911   0.209 -0.1370  0.0523 -0.0804
  705WAT     H2 4626   6.024   8.959   0.066  2.4128  1.4622  0.3144
  705WAT    EPW 4627   6.015   8.975   0.151  0.4320  0.5355  0.3445
  706WAT      O 4628  -1.212   3.628   0.406  0.4584 -0.1404  0.3641
  706WAT     H1 4629  -1.295   3.663   0.438 -0.4258  0.1065 -2.0043
  706WAT     H2 4630  -1.177   3.578   0.480 -1.7786 -0.2269  1.4498
  706WAT    EPW 4631  -1.219   3.626   0.420  0.0467 -0.1192  0.1949
  707WAT      O 4632   1.987   3.537   5.816 -0.4946  0.0738  0.0550
  707WAT     H1 4633   1.970   3.445   5.799 -0.4613  0.2018 -0.7247
  707WAT     H2 4634   2.082   3.543   5.823 -0.5617 -0.1576  1.4429
  707WAT    EPW 4635   1.997   3.526   5.815 -0.4990  0.0602  0.1352
  708WAT      O 4636   9.667   0.726   0.031 -0.1425 -0.5317  0.2371
  708WAT     H1 4637   9.669   0.687   0.119  1.1170  0.1737  0.5520
  708WAT     H2 4638   9.602   0.796   0.038 -4.9767 -4.3803 -1.2379
  708WAT    EPW 4639   9.659   0.730   0.044 -0.6142 -0.9462  0.0841
  709WAT      O 4640   1.189   4.684   6.030  0.1149 -0.9764  0.1658
  709WAT     H1 4641   1.172   4.731   6.112  0.6612  0.5398 -0.5582
  709WAT     H2 4642   1.107   4.691   5.981  0.6342  0.5697 -0.5538
  709WAT    EPW 4643   1.176   4.691   6.034  0.2555 -0.5727 -0.0243
  710WAT      O 4644   2.053   7.377   4.254 -0.0373  0.0892  0.4607
  710WAT     H1 4645   1.973   7.325   4.263  0.3822 -0.4737  1.0900
  710WAT     H2 4646   2.046   7.444   4.322 -0.4432  0.7026 -0.1627
  710WAT    EPW 4647   2.041   7.379   4.264 -0.0355  0.0961  0.4616
  711WAT      O 4648  -1.968   8.534   0.423  0.3693  0.5116 -0.3083
  711WAT     H1 4649  -1.962   8.447   0.384 -1.3768  0.3229 -0.2303
  711WAT     H2 4650  -1.904   8.533   0.494 -0.3305 -1.0881  0.3523
  711WAT    EPW 4651  -1.959   8.522   0.427  0.0467  0.2756 -0.2109
  712WAT      O 4652  -3.339   9.485   6.634  0.2847 -0.2146 -0.0837
  712WAT     H1 4653  -3.423   9.465   6.674 -1.0544 -1.6630 -3.2771
  712WAT     H2 4654  -3.309   9.401   6.598  1.2024  0.9577 -2.2331
  712WAT    EPW 4655  -3.346   9.471   6.634  0.2291 -0.2513 -0.7885
  713WAT      O 4656  -3.512   8.313   8.688  0.5491  0.0849  0.1448
  713WAT     H1 4657  -3.558   8.232   8.712 -1.3861  0.5041 -1.8618
  713WAT     H2 4658  -3.512   8.365   8.769 -0.2306 -0.9731  0.8584
  713WAT    EPW 4659  -3.518   8.309   8.702  0.1910  0.0005 -0.0253
  714WAT      O 4660   4.104   7.803   5.729 -0.3575 -0.5193 -0.4014
  714WAT     H1 4661   4.033   7.820   5.667  0.9359  0.5743 -1.6606
  714WAT     H2 4662   4.183   7.827   5.681  0.7311  0.0858  1.5992
  714WAT    EPW 4663   4.105   7.808   5.715 -0.0436 -0.2954 -0.3037
  715WAT      O 4664   5.166   9.612   2.359 -0.0451  0.5226 -0.2161
  715WAT     H1 4665   5.124   9.602   2.274  1.3809  0.0250 -0.8771
  715WAT     H2 4666   5.100   9.581   2.422 -0.5833 -0.4252 -1.2338
  715WAT    EPW 4667   5.152   9.607   2.356  0.0718  0.3319 -0.4374
  716WAT      O 4668  -5.076   8.976   5.978 -0.2059 -0.1354 -0.1252
  716WAT     H1 4669  -5.108   9.044   5.919  2.9345  1.8779  0.2614
  716WAT     H2 4670  -4.995   8.946   5.938  0.7411 -0.4531  1.9208
  716WAT    EPW 4671  -5.070   8.981   5.965  0.3331  0.0882  0.1955
  717WAT      O 4672   2.918   3.245   4.559 -0.4879 -0.3378 -0.1476
  717WAT     H1 4673   2.921   3.322   4.616  0.2444  0.5168 -1.3065
  717WAT     H2 4674   2.824   3.231   4.545 -0.6255  0.5231 -0.1669
  717WAT    EPW 4675   2.906   3.253   4.565 -0.4095 -0.1116 -0.3030
  718WAT      O 4676  -1.180   9.474   1.543  0.1094  0.3978 -0.2395
  718WAT     H1 4677  -1.195   9.438   1.630 -1.3981  1.4558 -0.0223
  718WAT     H2 4678  -1.189   9.399   1.484 -0.9117  0.0262  0.3638
  718WAT    EPW 4679  -1.183   9.459   1.547 -0.2241  0.4883 -0.1312
  719WAT      O 4680   1.186   0.314   7.764 -0.4666 -0.0313  0.2216
  719WAT     H1 4681   1.263   0.330   7.819  0.5861 -1.1186 -0.8618
  719WAT     H2 4682   1.136   0.248   7.812 -0.3030  0.0915  0.5636
  719WAT    EPW 4683   1.189   0.307   7.777 -0.3062 -0.1585  0.1237
  720WAT      O 4684   5.564   3.238   2.748  0.3209 -0.4637 -0.1864
  720WAT     H1 4685   5.575   3.333   2.746 -1.8168 -0.1696 -0.2981
  720WAT     H2 4686   5.469   3.225   2.749  0.4053 -2.4765  4.1351
  720WAT    EPW 4687   5.553   3.248   2.748  0.0501 -0.6903  0.3688
  721WAT      O 4688   3.903   1.143   1.101 -0.0831 -0.3950  0.4432
  721WAT     H1 4689   3.869   1.078   1.162 -0.7906 -0.4759 -0.0280
  721WAT     H2 4690   3.925   1.219   1.155 -1.3125 -0.2223  0.7262
  721WAT    EPW 4691   3.902   1.144   1.116 -0.3387 -0.3828  0.4184
  722WAT      O 4692   7.696   0.734   0.770  0.0184  0.1025 -0.1005
  722WAT     H1 4693   7.601   0.727   0.757  0.2780 -2.1713 -1.3004
  722WAT     H2 4694   7.706   0.771   0.858 -1.9521  0.9614 -0.1824
  722WAT    EPW 4695   7.685   0.738   0.780 -0.2072 -0.0841 -0.2695
  723WAT      O 4696  -3.867   2.681   8.137  0.0093 -0.1065 -0.2015
  723WAT     H1 4697  -3.817   2.760   8.160  1.2289 -1.1466  0.8902
  723WAT     H2 4698  -3.819   2.642   8.064  0.1924 -0.5606  0.1604
  723WAT    EPW 4699  -3.854   2.687   8.131  0.1943 -0.3035 -0.0095
  724WAT      O 4700   9.637   0.273   0.359 -0.0561  0.8965  0.3028
  724WAT     H1 4701   9.561   0.215   0.365 -0.4608  1.3518 -0.3795
  724WAT     H2 4702   9.712   0.214   0.365 -0.4334  0.5115  1.7609
  724WAT    EPW 4703   9.637   0.257   0.361 -0.1593  0.9058  0.4051
  725WAT      O 4704  -3.923   7.244   6.078  0.2784 -0.2541  0.0389
  725WAT     H1 4705  -3.876   7.233   5.995 -0.6148  0.6617 -0.6033
  725WAT     H2 4706  -3.950   7.336   6.078 -2.1628 -0.9127  0.0301
  725WAT    EPW 4707  -3.920   7.254   6.067 -0.1614 -0.2203 -0.0470
  726WAT      O 4708   3.800   0.387   7.042 -0.9185  0.2120  0.3157
  726WAT     H1 4709   3.856   0.363   6.968 -2.9729  0.7980 -1.5291
  726WAT     H2 4710   3.837   0.470   7.073  0.5261 -0.5025  0.5838
  726WAT    EPW 4711   3.812   0.395   7.036 -0.9990  0.1950  0.1075
  727WAT      O 4712   4.321   4.649   1.884  0.0479 -0.4407 -0.1374
  727WAT     H1 4713   4.408   4.638   1.922 -0.0507 -0.2877  0.1301
  727WAT     H2 4714   4.334   4.632   1.790  0.1682 -1.4605  0.0515
  727WAT    EPW 4715   4.334   4.645   1.876  0.0508 -0.5550 -0.0772
  728WAT      O 4716  -1.089   6.901   2.364  0.0702 -0.2078  0.4983
  728WAT     H1 4717  -1.168   6.952   2.346  0.4926  0.1269 -0.5149
  728WAT     H2 4718  -1.116   6.835   2.427 -1.2233 -0.5723 -0.3999
  728WAT    EPW 4719  -1.103   6.899   2.370 -0.0446 -0.2117  0.2462
  729WAT      O 4720  -3.450  10.261   6.486  0.1920  0.1390  0.4018
  729WAT     H1 4721  -3.420  10.182   6.441  3.0512  1.7040 -0.7181
  729WAT     H2 4722  -3.421  10.251   6.576 -1.3604 -0.9478  0.8200
  729WAT    EPW 4723  -3.443  10.249   6.492  0.3643  0.2022  0.3090
  730WAT      O 4724  -1.360   2.680   3.479 -0.5928  0.1419 -0.4367
  730WAT     H1 4725  -1.350   2.748   3.411 -0.8460 -0.3173 -0.9389
  730WAT     H2 4726  -1.369   2.729   3.560 -0.6064  0.7109 -0.7733
  730WAT    EPW 4727  -1.360   2.696   3.481 -0.6280  0.1564 -0.5474
  731WAT      O 4728  -3.933   6.440   7.809  0.4043  0.2512  0.3836
  731WAT     H1 4729  -3.901   6.466   7.896  2.5663  0.0240 -0.2840
  731WAT     H2 4730  -3.950   6.346   7.817 -1.3767  0.6014  1.0822
  731WAT    EPW 4731  -3.931   6.431   7.822  0.4547  0.2675  0.3879
  732WAT      O 4732  -0.632  10.184   7.172 -1.1157 -0.5489  0.5252
  732WAT     H1 4733  -0.545  10.176   7.134  1.1961  2.4002  4.4221
  732WAT     H2 4734  -0.670  10.261   7.131 -0.2980  0.2656  1.2418
  732WAT    EPW 4735  -0.625  10.193   7.162 -0.7029 -0.0529  1.1339
  733WAT      O 4736  -0.753   7.334   7.536 -0.1341 -0.2579 -0.1129
  733WAT     H1 4737  -0.721   7.406   7.591  0.1194 -1.5691  1.5409
  733WAT     H2 4738  -0.783   7.268   7.599  0.2031 -1.8569 -1.5687
  733WAT    EPW 4739  -0.753   7.335   7.552 -0.0562 -0.6418 -0.0865
  734WAT      O 4740   5.958   1.231   3.722 -0.2178  0.3937 -0.2118
  734WAT     H1 4741   5.944   1.205   3.631 -0.4073 -1.9015  0.4116
  734WAT     H2 4742   6.036   1.183   3.749 -0.6309  0.4073  1.0727
  734WAT    EPW 4743   5.967   1.222   3.713 -0.2973  0.0927  0.0399
  735WAT      O 4744   5.387   4.137   0.989  0.7570 -0.3133  0.3568
  735WAT     H1 4745   5.422   4.131   1.078  2.5976  0.3098 -0.2712
  735WAT     H2 4746   5.293   4.122   0.999  0.5191  1.9268  2.7169
  735WAT    EPW 4747   5.380   4.134   1.002  0.9685  0.0644  0.5853
  736WAT      O 4748   2.522   7.435   7.829 -0.0003  0.5172 -0.0957
  736WAT     H1 4749   2.507   7.481   7.746  0.3724 -0.7748 -0.9063
  736WAT     H2 4750   2.583   7.365   7.807  0.7542  0.6478  1.4524
  736WAT    EPW 4751   2.528   7.432   7.815  0.1484  0.3641  0.0014
  737WAT      O 4752   4.588   2.227   8.796 -0.6601  0.3143  0.0937
  737WAT     H1 4753   4.635   2.198   8.717 -1.4249 -1.8090  0.3782
  737WAT     H2 4754   4.653   2.279   8.844  0.5773 -0.3933 -0.7553
  737WAT    EPW 4755   4.603   2.230   8.792 -0.5977 -0.0590  0.0196
  738WAT      O 4756  -7.615   9.320   7.945 -0.7824 -0.2740 -0.2449
  738WAT     H1 4757  -7.705   9.290   7.956 -1.2502  1.5056  1.1808
  738WAT     H2 4758  -7.562   9.258   7.995 -1.2948 -0.8208 -0.3736
  738WAT    EPW 4759  -7.620   9.308   7.953 -0.9115 -0.1106 -0.0739
  739WAT      O 4760  -1.887   1.799   7.027 -0.3815 -0.0018 -0.4472
  739WAT     H1 4761  -1.920   1.887   7.010 -0.6004  0.0829  0.3618
  739WAT     H2 4762  -1.878   1.759   6.940  0.3784  1.0505 -0.8624
  739WAT    EPW 4763  -1.890   1.805   7.013 -0.3101  0.1482 -0.3955
  740WAT      O 4764   4.340   1.343   0.584  0.1813 -0.3281  0.3429
  740WAT     H1 4765   4.251   1.380   0.580  0.2838 -0.1770 -1.7256
  740WAT     H2 4766   4.397   1.420   0.588  0.2690 -0.3213 -0.6378
  740WAT    EPW 4767   4.336   1.358   0.584  0.2065 -0.3073 -0.0593
  741WAT      O 4768   3.505   1.969   1.733 -0.2509  0.1901  0.1463
  741WAT     H1 4769   3.519   2.017   1.814 -0.9590 -3.8120  2.9484
  741WAT     H2 4770   3.592   1.944   1.704 -0.0452  0.9122  0.1219
  741WAT    EPW 4771   3.518   1.972   1.740 -0.3171 -0.2425  0.5127
  742WAT      O 4772  -5.788   3.974   7.244  0.0295  0.7277 -0.1421
  742WAT     H1 4773  -5.793   3.972   7.149  2.3052 -0.3302 -0.3254
  742WAT     H2 4774  -5.873   3.942   7.274  0.6381 -3.1768 -1.9635
  742WAT    EPW 4775  -5.800   3.970   7.236  0.4101  0.0733 -0.4065
  743WAT      O 4776   5.138   4.489   2.806 -0.1542 -0.3172 -0.6005
  743WAT     H1 4777   5.117   4.559   2.867  1.2668  0.2687 -0.7521
  743WAT     H2 4778   5.162   4.534   2.725  2.6596 -0.8080 -0.1463
  743WAT    EPW 4779   5.139   4.504   2.803  0.4046 -0.3047 -0.5605
  744WAT      O 4780   0.594   2.624   1.166 -0.7823 -0.4545 -0.0758
  744WAT     H1 4781   0.651   2.663   1.100  1.1625  1.5054  2.5417
  744WAT     H2 4782   0.543   2.697   1.201  0.1204 -0.8617  2.2867
  744WAT    EPW 4783   0.595   2.638   1.162 -0.4068 -0.2496  0.5810
  745WAT      O 4784   3.645   6.121   1.314 -0.4483 -0.1701  0.5365
  745WAT     H1 4785   3.608   6.120   1.225  0.0542  1.5097  0.2900
  745WAT     H2 4786   3.708   6.049   1.313 -0.4847 -0.2102 -0.4553
  745WAT    EPW 4787   3.648   6.111   1.302 -0.3868  0.0463  0.3732
  746WAT      O 4788   5.767   5.168   2.026 -0.4506 -0.1319 -0.3276
  746WAT     H1 4789   5.839   5.223   2.058 -0.1866  0.2327 -1.5086
  746WAT     H2 4790   5.690   5.204   2.069 -0.1916  0.7647 -0.5717
  746WAT    EPW 4791   5.767   5.180   2.036 -0.3817  0.0346 -0.5156
  747WAT      O 4792   6.268   4.411   3.447 -0.4354  0.3457 -0.4106
  747WAT     H1 4793   6.263   4.375   3.536 -0.5900 -1.0595 -0.9580
  747WAT     H2 4794   6.292   4.503   3.460  2.1322 -0.4211  1.0083
  747WAT    EPW 4795   6.271   4.418   3.460 -0.1171  0.0594 -0.2956
  748WAT      O 4796   2.203   5.517   8.543 -0.3976 -0.6641 -0.0923
  748WAT     H1 4797   2.185   5.603   8.581 -0.2629 -0.4064 -0.6043
  748WAT     H2 4798   2.191   5.456   8.616 -2.4446 -0.4264 -0.1723
  748WAT    EPW 4799   2.200   5.520   8.558 -0.6498 -0.5989 -0.1702
  749WAT      O 4800  -2.129   9.083   2.630  0.2011 -0.2115 -1.2766
  749WAT     H1 4801  -2.141   9.043   2.716  1.6796 -0.6927 -1.2803
  749WAT     H2 4802  -2.208   9.136   2.618 -0.1153 -0.2737  0.2938
  749WAT    EPW 4803  -2.141   9.085   2.640  0.3543 -0.2837 -1.0699
  750WAT      O 4804   6.195   1.717   5.364  0.0768 -0.5287 -0.6663
  750WAT     H1 4805   6.251   1.750   5.293 -1.3747 -3.0528 -3.2254
  750WAT     H2 4806   6.120   1.678   5.319 -1.1922 -1.8792  2.3350
  750WAT    EPW 4807   6.193   1.716   5.348 -0.2820 -1.0397 -0.6080
  751WAT      O 4808   4.574   0.162   1.635 -0.0162  0.0970  0.1098
  751WAT     H1 4809   4.623   0.241   1.659  1.0471 -0.7051  0.6906
  751WAT     H2 4810   4.631   0.090   1.664 -1.9641 -0.8974  1.7171
  751WAT    EPW 4811   4.588   0.163   1.642 -0.1330 -0.1399  0.3984
  752WAT      O 4812  -0.038   6.428   8.296 -0.3268 -0.0338 -0.0692
  752WAT     H1 4813  -0.126   6.393   8.290  0.3979 -1.9333 -0.3159
  752WAT     H2 4814  -0.049   6.523   8.286 -2.0839 -0.4009 -2.5104
  752WAT    EPW 4815  -0.051   6.436   8.294 -0.4630 -0.3328 -0.4239
  753WAT      O 4816   0.353   9.374   0.712  0.0504 -0.3015 -0.2747
  753WAT     H1 4817   0.266   9.345   0.740 -0.4385 -1.5384 -2.8101
  753WAT     H2 4818   0.351   9.469   0.725 -2.2950 -0.0714 -1.6087
  753WAT    EPW 4819   0.341   9.383   0.717 -0.3234 -0.4339 -0.7850
  754WAT      O 4820   0.310   1.985   7.022 -0.3886 -0.4949  0.0747
  754WAT     H1 4821   0.391   1.970   7.071 -1.0109  1.9098  2.0580
  754WAT     H2 4822   0.242   1.943   7.075 -0.8915  0.8551  0.5310
  754WAT    EPW 4823   0.312   1.977   7.035 -0.5370  0.0004  0.3963
  755WAT      O 4824   1.468   4.385   5.861  0.6379  0.6368 -0.1084
  755WAT     H1 4825   1.381   4.409   5.891 -0.6216 -0.3419 -2.7184
  755WAT     H2 4826   1.460   4.293   5.834  2.0131  0.9897 -1.9093
  755WAT    EPW 4827   1.456   4.376   5.861  0.6531  0.5541 -0.6902
  756WAT      O 4828   3.025   7.264   7.804  0.2107 -0.1469  0.0566
  756WAT     H1 4829   3.119   7.278   7.803  0.1722  0.1924 -1.3817
  756WAT     H2 4830   3.002   7.250   7.712 -0.7593 -3.0737  0.6613
  756WAT    EPW 4831   3.034   7.264   7.792  0.0776 -0.4880 -0.0534
  757WAT      O 4832   7.129   0.266   0.236  0.6394  0.2360 -0.4764
  757WAT     H1 4833   7.114   0.360   0.229 -0.7119  0.1068  0.3652
  757WAT     H2 4834   7.077   0.228   0.166  1.2417  0.1031 -0.8634
  757WAT    EPW 4835   7.121   0.274   0.226  0.5405  0.2014 -0.4164
  758WAT      O 4836   4.094   0.445   0.904 -0.1524 -0.2399 -0.1055
  758WAT     H1 4837   4.151   0.511   0.865  0.4108 -0.2415  0.6963
  758WAT     H2 4838   4.130   0.430   0.992 -0.0682 -1.8190 -0.3657
  758WAT    EPW 4839   4.106   0.452   0.910 -0.0670 -0.4484 -0.0341
  759WAT      O 4840  -3.355   2.899   5.773  0.4620  0.5730  0.5014
  759WAT     H1 4841  -3.283   2.836   5.772  2.4801  2.6898 -1.4248
  759WAT     H2 4842  -3.383   2.905   5.682 -0.9304  1.1576  0.9439
  759WAT    EPW 4843  -3.349   2.892   5.761  0.5444  0.9292  0.3057
  760WAT      O 4844   6.826   6.099   2.160 -0.5874  0.5249 -0.8866
  760WAT     H1 4845   6.827   6.058   2.246 -1.3763 -1.3058 -1.6891
  760WAT     H2 4846   6.908   6.072   2.119 -1.3258 -0.7453 -1.5978
  760WAT    EPW 4847   6.837   6.090   2.166 -0.7889  0.1161 -1.0862
  761WAT      O 4848  -0.387   0.523   6.733 -0.8095  0.2610  1.1125
  761WAT     H1 4849  -0.299   0.488   6.747 -1.3638 -1.2717  0.9581
  761WAT     H2 4850  -0.376   0.618   6.736  0.6812  0.0892  2.1258
  761WAT    EPW 4851  -0.374   0.531   6.735 -0.6860  0.0361  1.2259
  762WAT      O 4852   4.997   7.031   4.612 -0.3634  0.4586  0.2958
  762WAT     H1 4853   5.086   7.017   4.645 -0.3670 -0.4233 -0.0405
  762WAT     H2 4854   4.995   6.985   4.528 -1.1043  0.5609  0.2504
  762WAT    EPW 4855   5.008   7.023   4.605 -0.4616  0.3557  0.2453
  763WAT      O 4856   3.747   3.485   4.462 -0.2413  0.1114  0.0788
  763WAT     H1 4857   3.652   3.497   4.462 -0.1311  1.4484  2.2794
  763WAT     H2 4858   3.782   3.574   4.463  1.0195 -0.3712  0.0869
  763WAT    EPW 4859   3.739   3.498   4.462 -0.0606  0.2241  0.3700
  764WAT      O 4860  -4.581   4.302   5.170  0.6488 -0.3085 -0.3418
  764WAT     H1 4861  -4.606   4.229   5.228 -1.4314 -0.7832 -1.7496
  764WAT     H2 4862  -4.492   4.280   5.142  0.7270 -1.3725  0.6486
  764WAT    EPW 4863  -4.573   4.289   5.174  0.3848 -0.5116 -0.3967
  765WAT      O 4864   3.154   5.673   1.316 -0.8712 -0.3194  0.0245
  765WAT     H1 4865   3.227   5.724   1.282 -1.8841  1.5833  0.5466
  765WAT     H2 4866   3.092   5.739   1.349 -2.1163 -1.9080  1.0193
  765WAT    EPW 4867   3.155   5.689   1.316 -1.1691 -0.2782  0.2246
  766WAT      O 4868   1.013   4.280   6.692 -1.0317  0.1869  0.0038
  766WAT     H1 4869   1.101   4.248   6.675 -1.7641 -0.6044 -2.8438
  766WAT     H2 4870   0.979   4.221   6.760  0.3942  0.1267  0.7042
  766WAT    EPW 4871   1.020   4.268   6.699 -0.9403  0.0746 -0.2797
  767WAT      O 4872   5.616   4.112   4.229 -0.3752 -0.1066  0.9586
  767WAT     H1 4873   5.548   4.122   4.296 -0.3412  1.4743  0.7827
  767WAT     H2 4874   5.586   4.038   4.175 -3.1832  1.9413 -0.5100
  767WAT    EPW 4875   5.603   4.103   4.231 -0.7410  0.3719  0.7417
  768WAT      O 4876  -4.797   8.388   5.759  0.5739 -0.4137  0.3461
  768WAT     H1 4877  -4.734   8.316   5.761 -0.1683 -1.0859 -0.1284
  768WAT     H2 4878  -4.744   8.466   5.770  1.8331 -0.7555 -2.5368
  768WAT    EPW 4879  -4.782   8.389   5.761  0.6421 -0.5474 -0.0966
  769WAT      O 4880   5.190   5.296   0.059  0.1998  0.8391  0.0450
  769WAT     H1 4881   5.136   5.324   0.133 -0.3500 -0.0539 -0.0088
  769WAT     H2 4882   5.278   5.286   0.096 -0.1959 -0.2471  0.7603
  769WAT    EPW 4883   5.194   5.298   0.074  0.0749  0.5782  0.1322
  770WAT      O 4884   6.162   1.880   3.488  0.5078  0.5850  0.0957
  770WAT     H1 4885   6.175   1.803   3.433  1.2543  0.2411  0.7459
  770WAT     H2 4886   6.131   1.845   3.572  1.2250  0.9540  0.5228
  770WAT    EPW 4887   6.159   1.865   3.492  0.7007  0.5883  0.2377
  771WAT      O 4888  -1.859   7.472   4.965  0.3891  0.1990 -0.0250
  771WAT     H1 4889  -1.941   7.522   4.969  0.5058  0.7314 -2.4390
  771WAT     H2 4890  -1.880   7.397   4.909  1.4676  0.1855 -0.4247
  771WAT    EPW 4891  -1.873   7.469   4.958  0.5468  0.2673 -0.3963
  772WAT      O 4892   1.840   0.105   4.042  0.0719  0.2031  0.5553
  772WAT     H1 4893   1.773   0.128   3.978 -0.2808 -2.0011  0.0406
  772WAT     H2 4894   1.902   0.051   3.992  1.8672  1.5833  1.1987
  772WAT    EPW 4895   1.840   0.101   4.027  0.2621  0.0944  0.5724
  773WAT      O 4896   2.034   9.337   8.280 -0.5513  0.0103 -0.2480
  773WAT     H1 4897   2.034   9.350   8.185  0.5537 -0.4309 -0.3195
  773WAT     H2 4898   2.121   9.366   8.308 -0.4980 -0.8341  0.4912
  773WAT    EPW 4899   2.045   9.343   8.271 -0.3985 -0.1593 -0.1597
  774WAT      O 4900  -5.296   9.511   4.854  0.0066 -0.2917 -0.5204
  774WAT     H1 4901  -5.216   9.461   4.863  2.1626  1.6709 -5.1087
  774WAT     H2 4902  -5.341   9.471   4.779 -0.4009  1.8443 -1.5150
  774WAT    EPW 4903  -5.291   9.499   4.845  0.2370  0.2489 -1.2567
  775WAT      O 4904   2.229   2.009   2.506  0.5085 -0.1687 -0.3878
  775WAT     H1 4905   2.152   1.980   2.457 -0.5089 -0.7438  1.4681
  775WAT     H2 4906   2.248   1.937   2.565  0.4886  1.2436  1.4206
  775WAT    EPW 4907   2.221   1.996   2.507  0.3717 -0.0583  0.0955
  776WAT      O 4908  -2.956   9.656   7.505  0.3303  0.0837  0.3217
  776WAT     H1 4909  -2.992   9.670   7.417  3.3188  0.5222 -0.9606
  776WAT     H2 4910  -2.913   9.571   7.501  1.3121  0.5239  1.0541
  776WAT    EPW 4911  -2.955   9.647   7.493  0.8539  0.2003  0.2494
  777WAT      O 4912  -0.281   3.686   8.216  0.0455  1.2205  0.2938
  777WAT     H1 4913  -0.328   3.606   8.236 -0.9279  1.1321 -2.0774
  777WAT     H2 4914  -0.188   3.661   8.221 -0.2318  0.1555  0.3620
  777WAT    EPW 4915  -0.275   3.672   8.219 -0.1194  1.0684 -0.0100
  778WAT      O 4916  -5.048   9.199   4.529 -0.0801  0.2578 -0.1053
  778WAT     H1 4917  -4.959   9.180   4.498 -0.9645 -2.2304 -1.4334
  778WAT     H2 4918  -5.070   9.283   4.488  1.7542  1.1165  0.5658
  778WAT    EPW 4919  -5.039   9.207   4.519  0.0453  0.0424 -0.1922
  779WAT      O 4920   2.659   0.729   6.966  0.3805 -0.6043 -0.2762
  779WAT     H1 4921   2.715   0.681   7.027 -1.1552 -1.3637  0.5818
  779WAT     H2 4922   2.572   0.692   6.978 -0.0405 -0.5838 -2.7505
  779WAT    EPW 4923   2.655   0.718   6.976  0.1224 -0.7018 -0.4895
  780WAT      O 4924  -0.242   8.063   8.545  0.1716  0.3373 -0.4335
  780WAT     H1 4925  -0.263   8.037   8.634 -0.2351 -4.3626 -1.6397
  780WAT     H2 4926  -0.323   8.049   8.495  0.8606  1.1345 -1.8633
  780WAT    EPW 4927  -0.256   8.058   8.550  0.2088 -0.1779 -0.7815
  781WAT      O 4928   5.576   0.062   8.243 -0.1874  1.0333  0.1584
  781WAT     H1 4929   5.531   0.066   8.328  0.7216 -1.1367  0.8010
  781WAT     H2 4930   5.574   0.152   8.212 -2.0741  1.5979  1.6682
  781WAT    EPW 4931   5.569   0.074   8.250 -0.3163  0.8216  0.4420
  782WAT      O 4932   5.332   2.873   0.929 -0.2349 -0.4676 -0.0959
  782WAT     H1 4933   5.266   2.873   0.860 -1.4634  1.1740  1.0366
  782WAT     H2 4934   5.315   2.792   0.978  0.2045 -1.2910 -1.2487
  782WAT    EPW 4935   5.321   2.862   0.926 -0.3390 -0.3598 -0.0986
  783WAT      O 4936  -2.537   0.149   6.615  0.2215  0.5051 -0.0229
  783WAT     H1 4937  -2.508   0.059   6.598 -0.0488  0.8711 -3.0601
  783WAT     H2 4938  -2.483   0.178   6.689  2.6026 -1.1366 -0.9819
  783WAT    EPW 4939  -2.526   0.141   6.622  0.4998  0.3368 -0.5500
  784WAT      O 4940  -4.838   9.556   7.835 -0.5772 -0.7563  0.4385
  784WAT     H1 4941  -4.798   9.519   7.756  2.5757 -0.4662  1.7743
  784WAT     H2 4942  -4.867   9.479   7.885 -3.1623 -0.9293 -1.1312
  784WAT    EPW 4943  -4.836   9.541   7.831 -0.5021 -0.7410  0.4077
  785WAT      O 4944   4.788   4.924   5.291 -0.0744  0.3180 -0.2816
  785WAT     H1 4945   4.791   4.849   5.350 -0.2615  0.7184  0.2454
  785WAT     H2 4946   4.696   4.929   5.263  0.0036  0.1579 -0.5834
  785WAT    EPW 4947   4.776   4.915   5.295 -0.0887  0.3498 -0.2520
  786WAT      O 4948   0.530   6.514   0.066 -0.3227  0.6122 -0.1606
  786WAT     H1 4949   0.561   6.601   0.089  0.2639 -0.1159  2.0956
  786WAT     H2 4950   0.490   6.481   0.146 -0.2442 -1.3024 -0.8496
  786WAT    EPW 4951   0.529   6.521   0.079 -0.2350  0.2637  0.0461
  787WAT      O 4952   5.739   5.926   1.387 -0.1005  0.7417  0.2315
  787WAT     H1 4953   5.824   5.947   1.425  0.7972 -1.9534 -0.0800
  787WAT     H2 4954   5.678   5.930   1.461  0.9899 -0.9125  1.2791
  787WAT    EPW 4955   5.742   5.929   1.402  0.1616  0.1681  0.3286
  788WAT      O 4956   5.378   1.634   7.997 -0.0334  0.2231 -0.0089
  788WAT     H1 4957   5.377   1.591   8.082 -0.6741  0.6477  0.1981
  788WAT     H2 4958   5.470   1.658   7.984 -0.1464  1.3525  1.1623
  788WAT    EPW 4959   5.390   1.631   8.006 -0.1328  0.4280  0.1731
  789WAT      O 4960   1.901   4.171   8.707  0.3198 -0.5569  0.4107
  789WAT     H1 4961   1.912   4.264   8.724  1.3308  0.4171 -4.2893
  789WAT     H2 4962   1.976   4.130   8.749 -0.0670  0.6326  2.4448
  789WAT    EPW 4963   1.912   4.178   8.715  0.4021 -0.2716  0.0591
  790WAT      O 4964   1.490   9.453   3.077  0.1507  0.1676  0.1096
  790WAT     H1 4965   1.549   9.493   3.013  1.6704  0.2716  1.5042
  790WAT     H2 4966   1.549   9.414   3.142 -1.1683 -4.6312 -1.2377
  790WAT    EPW 4967   1.506   9.453   3.077  0.1772 -0.4520  0.1159
  791WAT      O 4968   1.692   0.446   2.537 -0.7685  0.0367 -0.4734
  791WAT     H1 4969   1.751   0.502   2.588 -1.4983  1.5765 -1.2452
  791WAT     H2 4970   1.622   0.505   2.510 -1.7560 -1.3580 -1.0459
  791WAT    EPW 4971   1.690   0.461   2.540 -0.9950  0.0558 -0.6508
  792WAT      O 4972  -2.237   5.240   4.468  0.4180 -0.1047 -0.3706
  792WAT     H1 4973  -2.237   5.162   4.413 -1.3662 -2.4494  2.6215
  792WAT     H2 4974  -2.309   5.294   4.434  0.5399 -0.5795 -1.4061
  792WAT    EPW 4975  -2.246   5.237   4.456  0.1987 -0.4766 -0.1125
  793WAT      O 4976  -3.216   9.887   8.464 -0.0186 -0.2203 -0.4823
  793WAT     H1 4977  -3.132   9.930   8.448 -0.1804  0.7618  1.0900
  793WAT     H2 4978  -3.281   9.957   8.461 -0.7171 -0.8708 -1.0635
  793WAT    EPW 4979  -3.214   9.902   8.461 -0.1321 -0.1764 -0.3514
  794WAT      O 4980   4.618   3.863   4.656  0.5565 -0.2688 -0.1935
  794WAT     H1 4981   4.663   3.944   4.630 -0.7356  0.2639 -0.8792
  794WAT     H2 4982   4.681   3.794   4.638  1.7740  0.5926  0.6068
  794WAT    EPW 4983   4.632   3.865   4.650  0.5467 -0.0849 -0.1783
  795WAT      O 4984  -3.624   7.024   6.328 -0.1902 -0.8663  0.1178
  795WAT     H1 4985  -3.667   6.993   6.248 -3.3328  0.8262  0.9941
  795WAT     H2 4986  -3.645   6.957   6.393  1.3844 -1.6501 -0.1140
  795WAT    EPW 4987  -3.632   7.011   6.326 -0.3970 -0.7465  0.2029
  796WAT      O 4988  -3.401   0.266   6.325 -0.4938 -0.5344 -0.5334
  796WAT     H1 4989  -3.495   0.258   6.345 -0.3514 -0.2018  0.3528
  796WAT     H2 4990  -3.358   0.210   6.390  0.0323  1.1142  0.6072
  796WAT    EPW 4991  -3.408   0.258   6.336 -0.4057 -0.2731 -0.2661
  797WAT      O 4992   1.866  10.120   7.504  0.0017 -0.6478 -0.2535
  797WAT     H1 4993   1.853  10.032   7.467  1.4219 -0.5907 -1.0005
  797WAT     H2 4994   1.952  10.147   7.470 -0.6856  1.3042 -0.5782
  797WAT    EPW 4995   1.876  10.112   7.494  0.0983 -0.3829 -0.3951
  798WAT      O 4996   2.300   3.992   8.420  0.1521  0.7568  0.1832
  798WAT     H1 4997   2.260   3.981   8.507 -0.7820 -2.7430 -0.5470
  798WAT     H2 4998   2.264   3.921   8.367  3.9418  0.0303 -1.8459
  798WAT    EPW 4999   2.290   3.981   8.425  0.5287  0.1993 -0.1807
  799WAT      O 5000  -1.031   9.883   4.952  0.5635 -0.2145  0.1252
  799WAT     H1 5001  -1.001   9.817   4.890  0.5875 -0.8834  0.8289
  799WAT     H2 5002  -1.116   9.911   4.918 -0.1419 -1.6798  0.5668
  799WAT    EPW 5003  -1.039   9.878   4.939  0.4736 -0.4959  0.2763
  800WAT      O 5004   7.589   3.880   2.433  0.2692  0.4083  0.0544
  800WAT     H1 5005   7.636   3.929   2.500  3.2520 -1.6037 -0.3846
  800WAT     H2 5006   7.595   3.933   2.354 -0.9200  1.5388  0.6864
  800WAT    EPW 5007   7.596   3.893   2.431  0.5057  0.2918  0.0799
  801WAT      O 5008   0.226   4.561   8.373  0.3315 -0.3999 -0.1134
  801WAT     H1 5009   0.135   4.530   8.376  0.0968  0.3083  0.1772
  801WAT     H2 5010   0.268   4.506   8.307 -0.5493 -0.0930 -0.9379
  801WAT    EPW 5011   0.220   4.549   8.365  0.1844 -0.2661 -0.1836
  802WAT      O 5012   0.612   0.080   7.503 -1.3816  0.8286  0.2412
  802WAT     H1 5013   0.525   0.090   7.465 -0.7698  0.2230 -1.3988
  802WAT     H2 5014   0.671   0.116   7.436 -0.2829 -0.0440  0.7171
  802WAT    EPW 5015   0.608   0.086   7.489 -1.1560  0.6336  0.0875
  803WAT      O 5016  -0.270   8.537   5.223  0.9215  0.0341  0.1539
  803WAT     H1 5017  -0.337   8.539   5.290  1.0316 -0.8431  0.3057
  803WAT     H2 5018  -0.305   8.591   5.152  1.0028  1.3352  1.0795
  803WAT    EPW 5019  -0.283   8.544   5.222  0.9467  0.0901  0.2959
  804WAT      O 5020  -0.264   8.411   2.306 -0.2558  0.0678  0.2968
  804WAT     H1 5021  -0.217   8.437   2.227 -0.6459  1.9742  0.6269
  804WAT     H2 5022  -0.270   8.316   2.301 -0.7866  0.1785 -2.2609
  804WAT    EPW 5023  -0.258   8.402   2.295 -0.3773  0.3338  0.0030
  805WAT      O 5024  -1.388   3.443   1.276 -0.1444 -0.0911  0.0144
  805WAT     H1 5025  -1.476   3.477   1.258 -0.2580 -0.0165  0.7084
  805WAT     H2 5026  -1.341   3.453   1.193 -1.1606 -1.3104 -0.7514
  805WAT    EPW 5027  -1.393   3.448   1.262 -0.2935 -0.2421  0.0049
  806WAT      O 5028   2.024   5.150   3.492 -0.3538 -0.6161 -0.2595
  806WAT     H1 5029   2.030   5.100   3.573 -1.5771 -0.4025 -0.0066
  806WAT     H2 5030   2.082   5.225   3.505 -1.2106 -0.1020  0.8002
  806WAT    EPW 5031   2.032   5.154   3.504 -0.6281 -0.5202 -0.0864
  807WAT      O 5032  -6.299   8.519   8.153 -0.7060  0.2733 -0.0770
  807WAT     H1 5033  -6.241   8.577   8.202  0.7700  0.4340 -1.9141
  807WAT     H2 5034  -6.251   8.437   8.147 -0.8593  0.2631 -1.2371
  807WAT    EPW 5035  -6.285   8.516   8.159 -0.5317  0.2928 -0.4725
  808WAT      O 5036   5.822   6.780   1.353 -0.1063  0.1366 -1.0603
  808WAT     H1 5037   5.737   6.820   1.333  0.7941  2.5764 -0.3645
  808WAT     H2 5038   5.866   6.774   1.268 -0.8457 -0.9275 -1.3935
  808WAT    EPW 5039   5.817   6.784   1.339 -0.0851  0.3181 -1.0125
  809WAT      O 5040   0.281   6.359   4.323 -0.0905  0.5704 -0.3085
  809WAT     H1 5041   0.298   6.384   4.414 -0.2533 -0.6254  0.0673
  809WAT     H2 5042   0.354   6.302   4.299  1.6803  3.3574 -2.0185
  809WAT    EPW 5043   0.293   6.355   4.332  0.1216  0.7801 -0.4845
  810WAT      O 5044  -5.213   1.749   8.864 -0.7778 -0.4033  0.2831
  810WAT     H1 5045  -5.231   1.805   8.789 -2.2340  0.2321  1.0623
  810WAT     H2 5046  -5.268   1.671   8.850  0.1758 -1.0268 -0.0962
  810WAT    EPW 5047  -5.223   1.746   8.853 -0.8440 -0.4017  0.3357
  811WAT      O 5048   2.143   5.133   4.690 -0.0510  0.4138 -0.4758
  811WAT     H1 5049   2.202   5.059   4.675  0.6259  1.2241 -2.0158
  811WAT     H2 5050   2.200   5.210   4.693 -0.8971  1.0602 -0.5152
  811WAT    EPW 5051   2.158   5.133   4.689 -0.0733  0.6058 -0.6843
  812WAT      O 5052   5.361   0.060   2.298  0.3910 -0.0086 -0.4978
  812WAT     H1 5053   5.426   0.059   2.228 -0.7433 -1.5858 -1.6348
  812WAT     H2 5054   5.361  -0.030   2.332 -1.0424 -0.0115 -0.4271
  812WAT    EPW 5055   5.369   0.048   2.293  0.0527 -0.2170 -0.6384
  813WAT      O 5056   1.661  10.153   0.708 -0.4805 -0.4828  0.3116
  813WAT     H1 5057   1.711  10.122   0.633  0.6043 -0.0864  0.8417
  813WAT     H2 5058   1.677  10.086   0.776 -2.4028 -1.4645 -0.1294
  813WAT    EPW 5059   1.670  10.140   0.707 -0.5910 -0.5603  0.3234
  814WAT      O 5060   4.547   0.247   8.901  1.1435 -0.5790 -0.0071
  814WAT     H1 5061   4.535   0.336   8.867  1.1728 -0.4052  0.4338
  814WAT     H2 5062   4.586   0.199   8.828 -1.0852 -0.8603 -1.0816
  814WAT    EPW 5063   4.551   0.253   8.887  0.8533 -0.5932 -0.0906
  815WAT      O 5064  -1.145   2.950   5.490  0.0982 -1.1835  0.8319
  815WAT     H1 5065  -1.168   2.986   5.404  0.0255 -1.3170  0.7952
  815WAT     H2 5066  -1.210   2.882   5.505  2.2360 -3.7424 -0.6453
  815WAT    EPW 5067  -1.157   2.946   5.481  0.3706 -1.5386  0.6323
  816WAT      O 5068  -3.005   9.966   1.135  0.3250  0.7086  0.2420
  816WAT     H1 5069  -2.912   9.986   1.129 -0.0777  2.5171 -0.7923
  816WAT     H2 5070  -3.019   9.895   1.073  1.1108 -0.0477  0.9080
  816WAT    EPW 5071  -2.995   9.959   1.126  0.3755  0.8473  0.1935
  817WAT      O 5072   2.818   9.203   5.451  0.3372 -0.5628 -0.0947
  817WAT     H1 5073   2.775   9.222   5.367  2.1030 -0.3151 -0.9787
  817WAT     H2 5074   2.807   9.284   5.502 -0.6678 -0.6843 -0.0948
  817WAT    EPW 5075   2.811   9.216   5.447  0.4376 -0.5465 -0.2112
  818WAT      O 5076   6.987   5.993   1.276 -0.0234 -0.0388  0.0353
  818WAT     H1 5077   6.971   6.073   1.227  0.1385  0.4600  0.7739
  818WAT     H2 5078   6.903   5.947   1.277 -0.8784  1.4299  1.8952
  818WAT    EPW 5079   6.974   5.997   1.270 -0.1147  0.2208  0.3781
  819WAT      O 5080   3.663   1.698   8.487  0.4118 -0.2175  0.6853
  819WAT     H1 5081   3.587   1.710   8.430  0.7072 -0.8080  0.1469
  819WAT     H2 5082   3.640   1.624   8.543  1.5211 -2.0710 -1.1722
  819WAT    EPW 5083   3.650   1.690   8.487  0.5970 -0.5398  0.3695
  820WAT      O 5084   2.641   2.562   3.235  0.2869  0.1788 -0.2133
  820WAT     H1 5085   2.561   2.572   3.287 -0.1898 -2.4318 -0.2976
  820WAT     H2 5086   2.682   2.483   3.271  2.1648  0.7347 -1.0453
  820WAT    EPW 5087   2.636   2.553   3.247  0.4717 -0.0921 -0.3341
  821WAT      O 5088   2.495   2.437   1.287 -0.4838 -0.1766 -0.4457
  821WAT     H1 5089   2.536   2.376   1.226 -0.1583  0.3568 -0.7682
  821WAT     H2 5090   2.514   2.400   1.374 -2.2831 -1.7965 -0.6678
  821WAT    EPW 5091   2.503   2.424   1.290 -0.6781 -0.3198 -0.5175
  822WAT      O 5092  -3.207   3.669   7.868  0.0612 -0.4808  0.0908
  822WAT     H1 5093  -3.226   3.624   7.786 -1.0363 -2.1925  1.1919
  822WAT     H2 5094  -3.293   3.678   7.910  0.4925  1.1010  0.7087
  822WAT    EPW 5095  -3.221   3.664   7.863 -0.0266 -0.4979  0.3176
  823WAT      O 5096   6.906   1.032   3.791 -0.5867 -0.5904  0.0585
  823WAT     H1 5097   6.927   1.030   3.698  1.0032  0.1049  0.3750
  823WAT     H2 5098   6.990   1.025   3.835 -1.3802 -1.6272  1.4711
  823WAT    EPW 5099   6.920   1.031   3.784 -0.4816 -0.6354  0.2866
  824WAT      O 5100  -2.195   4.567   6.683 -0.3009  1.1212  0.1270
  824WAT     H1 5101  -2.174   4.650   6.639 -0.9082  2.1182  1.6520
  824WAT     H2 5102  -2.236   4.593   6.765  0.4049 -0.6960  1.1101
  824WAT    EPW 5103  -2.197   4.581   6.688 -0.2879  1.0133  0.4578
  825WAT      O 5104   2.689   0.652   2.226 -0.5735 -0.8341  0.3371
  825WAT     H1 5105   2.609   0.659   2.174 -1.0090 -0.0982  1.0819
  825WAT     H2 5106   2.677   0.715   2.297  1.8965  1.5482 -1.1534
  825WAT    EPW 5107   2.677   0.662   2.229 -0.3051 -0.4228  0.2388
  826WAT      O 5108   5.119   4.293   1.281  0.2152  0.2789 -0.0289
  826WAT     H1 5109   5.113   4.376   1.233  2.6154  1.2924  1.2397
  826WAT     H2 5110   5.092   4.316   1.370 -0.0114 -0.5383  0.1158
  826WAT    EPW 5111   5.114   4.307   1.286  0.5016  0.3047  0.1575
  827WAT      O 5112  -2.391   3.459   8.277  0.4310 -0.3890  0.4409
  827WAT     H1 5113  -2.482   3.435   8.263  0.5263 -1.3597  1.3871
  827WAT     H2 5114  -2.360   3.488   8.191  0.1028 -2.9821 -0.6324
  827WAT    EPW 5115  -2.399   3.460   8.264  0.4002 -0.8591  0.4244
  828WAT      O 5116   0.579   6.049   4.509 -0.5068  0.4137 -0.3829
  828WAT     H1 5117   0.656   6.060   4.563 -0.1278 -2.6259 -0.1337
  828WAT     H2 5118   0.591   5.964   4.466 -2.7581  0.7805 -1.9489
  828WAT    EPW 5119   0.590   6.040   4.510 -0.7538  0.0610 -0.5565
  829WAT      O 5120   4.322   4.085   7.570 -0.4086  0.0304 -0.6051
  829WAT     H1 5121   4.409   4.072   7.608 -0.4061 -0.5364 -0.7930
  829WAT     H2 5122   4.265   4.100   7.646 -0.7210 -2.8111 -0.1438
  829WAT    EPW 5123   4.326   4.085   7.585 -0.4494 -0.4194 -0.5691
  830WAT      O 5124   3.925   7.621   5.855 -0.5164  0.7268  0.0107
  830WAT     H1 5125   3.987   7.665   5.797  0.0224 -1.8894 -1.5781
  830WAT     H2 5126   3.864   7.578   5.796  0.9495 -3.3787  1.1442
  830WAT    EPW 5127   3.925   7.621   5.840 -0.2521 -0.1595 -0.0494
  831WAT      O 5128   5.643   4.466   4.529  0.7550 -0.4173  0.5587
  831WAT     H1 5129   5.610   4.428   4.447  4.0264  0.3562 -1.3430
  831WAT     H2 5130   5.570   4.517   4.563 -0.4014  0.3796 -2.6813
  831WAT    EPW 5131   5.629   4.467   4.523  1.0340 -0.2103 -0.1194
  832WAT      O 5132  -0.400   7.445   2.973  0.3320  0.1274 -0.2878
  832WAT     H1 5133  -0.459   7.374   2.948  0.3597 -0.0620  0.1743
  832WAT     H2 5134  -0.440   7.484   3.050 -0.8782  2.1001 -1.8228
  832WAT    EPW 5135  -0.413   7.441   2.980  0.1760  0.3626 -0.4293
  833WAT      O 5136   2.094   0.390   8.037  0.5143 -0.2996 -0.8507
  833WAT     H1 5137   2.085   0.439   8.118 -1.0035 -1.4090 -0.2875
  833WAT     H2 5138   2.010   0.403   7.992  1.3452  0.3250 -2.2828
  833WAT    EPW 5139   2.082   0.398   8.042  0.4237 -0.3635 -0.9656
  834WAT      O 5140  -2.628   3.205   5.262 -0.2841  1.1082  0.5903
  834WAT     H1 5141  -2.581   3.287   5.248 -1.8001  2.0582  0.7345
  834WAT     H2 5142  -2.720   3.228   5.247 -0.6668 -0.7838 -0.2637
  834WAT    EPW 5143  -2.634   3.219   5.258 -0.5345  0.9840  0.4969
  835WAT      O 5144   0.813   3.684   1.898  0.0736 -0.1175  0.0084
  835WAT     H1 5145   0.796   3.711   1.988  3.3550  1.3771  0.3576
  835WAT     H2 5146   0.814   3.589   1.901 -0.9083 -0.1015  1.3170
  835WAT    EPW 5147   0.811   3.675   1.910  0.3769  0.0818  0.2270
  836WAT      O 5148   2.476   8.088   2.046  0.2536 -0.0326  0.3920
  836WAT     H1 5149   2.402   8.126   2.093 -0.4051 -0.1538 -0.5281
  836WAT     H2 5150   2.492   8.148   1.973 -1.4453 -1.9107 -1.6888
  836WAT    EPW 5151   2.469   8.101   2.043 -0.0572 -0.2961 -0.0038
  837WAT      O 5152   7.376   1.837   2.335 -0.2333 -0.4363  0.1785
  837WAT     H1 5153   7.464   1.800   2.335  0.5153  1.2101 -0.6437
  837WAT     H2 5154   7.332   1.793   2.262  0.5369  0.0186 -0.5887
  837WAT    EPW 5155   7.382   1.826   2.325 -0.0331 -0.1591 -0.0311
  838WAT      O 5156  -0.664   3.070   4.001 -0.1120  0.1366  0.6793
  838WAT     H1 5157  -0.644   3.159   3.972 -1.1939  0.1338 -0.1325
  838WAT     H2 5158  -0.597   3.051   4.067  0.0539  1.5939  0.9679
  838WAT    EPW 5159  -0.653   3.079   4.006 -0.2328  0.3284  0.6104
  839WAT      O 5160   6.423   3.052   0.268  0.3285  0.8303 -0.0614
  839WAT     H1 5161   6.515   3.073   0.284  0.2946  0.1707  1.1170
  839WAT     H2 5162   6.418   3.040   0.173  1.2937  1.5770 -0.2277
  839WAT    EPW 5163   6.435   3.053   0.258  0.4513  0.8419  0.0721
  840WAT      O 5164   8.295   5.109   1.272 -0.0053 -0.0082 -0.5061
  840WAT     H1 5165   8.340   5.185   1.308 -0.4341  0.8757 -1.7586
  840WAT     H2 5166   8.214   5.144   1.236  0.5678 -0.7469 -2.6575
  840WAT    EPW 5167   8.290   5.123   1.272  0.0138  0.0107 -0.9550
  841WAT      O 5168   1.448   4.011   4.460 -1.2639  0.5479 -0.1529
  841WAT     H1 5169   1.530   3.981   4.499 -1.9238 -2.1573 -0.6066
  841WAT     H2 5170   1.392   4.031   4.535 -2.4496 -4.3932  0.6690
  841WAT    EPW 5171   1.451   4.010   4.475 -1.5073 -0.4606 -0.1042
  842WAT      O 5172   0.190   2.819   5.061  0.6985 -0.5077  0.3525
  842WAT     H1 5173   0.243   2.777   5.129 -0.1796  0.7998  1.8957
  842WAT     H2 5174   0.227   2.907   5.052 -0.8820  0.2716  1.1370
  842WAT    EPW 5175   0.202   2.825   5.069  0.3742 -0.2325  0.6595
  843WAT      O 5176  -2.465   0.871   5.007 -0.4577 -0.0375 -0.0195
  843WAT     H1 5177  -2.415   0.884   5.087  2.5461  0.6364 -1.8607
  843WAT     H2 5178  -2.506   0.956   4.990  1.6151  0.8416 -0.8597
  843WAT    EPW 5179  -2.464   0.884   5.015  0.2120  0.1673 -0.3731
  844WAT      O 5180   2.421   5.420   6.785 -0.0809 -0.1370 -0.5787
  844WAT     H1 5181   2.482   5.442   6.855 -0.0523 -0.0799 -0.6217
  844WAT     H2 5182   2.339   5.464   6.810 -1.1334 -2.8244  1.1858
  844WAT    EPW 5183   2.418   5.428   6.798 -0.2159 -0.4840 -0.3514
  845WAT      O 5184  -0.664   2.677   4.605  0.6919 -0.3377  0.6597
  845WAT     H1 5185  -0.597   2.611   4.585  0.7784 -0.5984  1.7496
  845WAT     H2 5186  -0.742   2.645   4.559  1.2838 -0.0615 -0.5686
  845WAT    EPW 5187  -0.666   2.664   4.596  0.7814 -0.3356  0.6413
  846WAT      O 5188   2.137  10.078   3.886 -0.3608  0.0573 -0.3730
  846WAT     H1 5189   2.179   9.992   3.889  0.4066  0.4374  0.2033
  846WAT     H2 5190   2.081  10.081   3.963 -0.1840  0.1727 -0.2485
  846WAT    EPW 5191   2.135  10.067   3.896 -0.2363  0.1225 -0.2806
  847WAT      O 5192   2.130   3.461   7.548 -0.0554 -0.0294  0.6633
  847WAT     H1 5193   2.173   3.398   7.606  2.5732  0.2582 -0.8267
  847WAT     H2 5194   2.116   3.538   7.603 -0.0773 -0.6709  1.5859
  847WAT    EPW 5195   2.133   3.463   7.563  0.2884 -0.0761  0.5884
  848WAT      O 5196  -2.714   3.057   7.072 -0.3822  0.6560 -0.0640
  848WAT     H1 5197  -2.777   3.054   7.000 -0.2252  1.0489 -0.2198
  848WAT     H2 5198  -2.759   3.107   7.140 -0.2955  0.8118 -0.1208
  848WAT    EPW 5199  -2.728   3.063   7.071 -0.3501  0.7284 -0.0923
  849WAT      O 5200   5.237   0.551   7.570 -0.3434  0.1446 -0.0682
  849WAT     H1 5201   5.171   0.509   7.514 -1.6667  0.1177  1.4589
  849WAT     H2 5202   5.189   0.581   7.647  1.9164 -2.9667  2.8419
  849WAT    EPW 5203   5.222   0.550   7.572 -0.2198 -0.2694  0.5171
  850WAT      O 5204   2.444   4.673   5.523 -0.5242 -0.3449 -0.6870
  850WAT     H1 5205   2.527   4.682   5.570  0.0709 -0.2698 -1.7100
  850WAT     H2 5206   2.378   4.670   5.591  0.2509  0.4396  0.1208
  850WAT    EPW 5207   2.446   4.673   5.538 -0.3436 -0.2317 -0.7155
  851WAT      O 5208   0.873   4.006   3.303 -0.2935 -0.3828 -0.1677
  851WAT     H1 5209   0.859   4.081   3.245  0.1828 -1.1091 -1.2442
  851WAT     H2 5210   0.872   3.930   3.245 -2.4523 -1.4160  1.0967
  851WAT    EPW 5211   0.871   4.006   3.288 -0.5154 -0.6146 -0.1429
  852WAT      O 5212   1.047   0.155   0.140 -0.0725 -0.2509 -0.5794
  852WAT     H1 5213   1.042   0.236   0.088 -0.4532 -0.4840 -0.9084
  852WAT     H2 5214   1.030   0.184   0.229 -3.1833 -0.3506 -1.0442
  852WAT    EPW 5215   1.044   0.170   0.145 -0.5329 -0.2948 -0.6841
  853WAT      O 5216   2.387   5.962   3.552 -0.2725 -0.1122  0.1499
  853WAT     H1 5217   2.299   5.926   3.544 -1.1473  1.9921 -0.4862
  853WAT     H2 5218   2.392   5.993   3.643  0.1788 -1.0484  0.4574
  853WAT    EPW 5219   2.377   5.961   3.563 -0.3283  0.0417  0.1067
  854WAT      O 5220  -1.813   7.332   2.182 -0.1307  0.3614  0.6238
  854WAT     H1 5221  -1.858   7.260   2.227 -0.3026 -0.1903 -0.3905
  854WAT     H2 5222  -1.721   7.321   2.207 -0.2731  0.2805  1.1235
  854WAT    EPW 5223  -1.806   7.321   2.192 -0.1721  0.2778  0.5560
  855WAT      O 5224  -2.603   5.903   6.276  0.0307  0.5695 -0.1930
  855WAT     H1 5225  -2.524   5.850   6.266 -0.9691 -0.6996 -1.9450
  855WAT     H2 5226  -2.616   5.910   6.371 -0.5255 -3.5639  0.2049
  855WAT    EPW 5227  -2.594   5.897   6.287 -0.1746 -0.1428 -0.3717
  856WAT      O 5228   2.491   7.101   4.119 -0.2714 -0.0162  0.2003
  856WAT     H1 5229   2.503   7.192   4.144  1.3249 -0.3617  0.7751
  856WAT     H2 5230   2.406   7.077   4.157 -0.3870  1.0206  0.6352
  856WAT    EPW 5231   2.481   7.110   4.127 -0.0762  0.0749  0.3335
  857WAT      O 5232   4.305   2.816   8.217 -0.4372 -0.4553  0.4351
  857WAT     H1 5233   4.365   2.815   8.292  1.4759 -1.3043 -1.0277
  857WAT     H2 5234   4.361   2.806   8.141 -2.4370 -1.0323 -1.0573
  857WAT    EPW 5235   4.320   2.815   8.217 -0.4487 -0.6433  0.0453
  858WAT      O 5236   5.798   1.998   3.448 -0.4486  0.3290  0.3426
  858WAT     H1 5237   5.830   1.908   3.448  0.2353  0.5491 -0.9572
  858WAT     H2 5238   5.729   1.998   3.383  0.2537  0.9685 -0.4142
  858WAT    EPW 5239   5.793   1.986   3.440 -0.2658  0.4423  0.0714
  859WAT      O 5240   4.924  10.325   1.386 -0.8700  0.6207  0.4819
  859WAT     H1 5241   4.910  10.341   1.293  3.4221  1.1741 -0.2698
  859WAT     H2 5242   4.962  10.407   1.419 -1.1971  0.0327  2.4713
  859WAT    EPW 5243   4.927  10.338   1.378 -0.3469  0.6166  0.6452
  860WAT      O 5244  -6.496   7.719   8.196  0.3433  0.0846  0.0303
  860WAT     H1 5245  -6.505   7.623   8.200 -0.3235  0.0947 -0.8406
  860WAT     H2 5246  -6.582   7.749   8.166  1.2452  0.7502 -2.0798
  860WAT    EPW 5247  -6.509   7.710   8.193  0.3743  0.1736 -0.3629
  861WAT      O 5248   2.214   8.102   6.602  0.2121  0.0103  0.2131
  861WAT     H1 5249   2.136   8.047   6.609  0.5188 -0.5658 -0.7238
  861WAT     H2 5250   2.261   8.068   6.526 -0.9760  3.2371 -2.2331
  861WAT    EPW 5251   2.210   8.091   6.593  0.0958  0.3595 -0.2332
  862WAT      O 5252   4.641   0.435   6.564 -0.2169  0.2950 -0.5620
  862WAT     H1 5253   4.597   0.389   6.636  1.3275  1.1479  1.0087
  862WAT     H2 5254   4.724   0.389   6.553  1.6145  2.8720  1.4241
  862WAT    EPW 5255   4.646   0.423   6.572  0.2284  0.7474 -0.0927
  863WAT      O 5256  -1.513   9.456   1.877 -0.4177 -0.9274  0.2584
  863WAT     H1 5257  -1.556   9.396   1.939 -3.2307  1.1807  0.5658
  863WAT     H2 5258  -1.521   9.412   1.793  2.6632 -3.4290  1.0674
  863WAT    EPW 5259  -1.520   9.442   1.874 -0.3824 -0.9794  0.4057
  864WAT      O 5260  -0.954   1.753   8.313 -0.0321  0.2802 -0.2244
  864WAT     H1 5261  -0.912   1.687   8.258  0.7834  0.0603  0.6399
  864WAT     H2 5262  -0.915   1.835   8.286  1.0183  0.0734  0.5967
  864WAT    EPW 5263  -0.944   1.755   8.302  0.2140  0.2239 -0.0019
  865WAT      O 5264  -6.293   4.100   8.558 -0.2815 -0.1978  0.4113
  865WAT     H1 5265  -6.288   4.012   8.594 -2.1445 -0.0662  1.1073
  865WAT     H2 5266  -6.218   4.106   8.498 -0.3838 -2.3933 -0.0181
  865WAT    EPW 5267  -6.282   4.089   8.555 -0.5407 -0.4702  0.4463
  866WAT      O 5268   2.996   0.599   8.166 -0.3677 -0.4181 -0.0058
  866WAT     H1 5269   2.962   0.684   8.137 -1.0787 -1.6294 -3.1798
  866WAT     H2 5270   2.919   0.553   8.198 -0.7415 -1.0706 -1.7045
  866WAT    EPW 5271   2.981   0.604   8.166 -0.5107 -0.6639 -0.6485
  867WAT      O 5272   0.674   2.623   4.976 -0.6379  0.3789  0.3211
  867WAT     H1 5273   0.713   2.710   4.986 -0.1254  0.1921  0.0021
  867WAT     H2 5274   0.747   2.563   4.986 -0.7907  0.0319 -0.5547
  867WAT    EPW 5275   0.689   2.627   4.979 -0.5905  0.3085  0.1636
  868WAT      O 5276  -3.263   2.989   8.051  0.8813 -0.3216  0.0907
  868WAT     H1 5277  -3.355   2.963   8.053  0.4564  0.4301 -3.2984
  868WAT     H2 5278  -3.230   2.954   7.969  1.9007  4.2562 -1.7710
  868WAT    EPW 5279  -3.271   2.981   8.040  0.9596  0.3812 -0.6022
  869WAT      O 5280   2.091   6.133   3.813 -0.0891 -0.2961  0.6185
  869WAT     H1 5281   2.115   6.055   3.763  0.0125  1.1375 -1.6975
  869WAT     H2 5282   2.172   6.184   3.818 -0.8019  1.0506 -0.6308
  869WAT    EPW 5283   2.105   6.130   3.807 -0.1698  0.0708  0.1482
  870WAT      O 5284   2.374   2.091   1.650 -0.1185  0.0588  0.1284
  870WAT     H1 5285   2.339   2.179   1.664  0.8984  0.5515 -0.3163
  870WAT     H2 5286   2.328   2.059   1.572  0.2171  0.5945 -0.2965
  870WAT    EPW 5287   2.363   2.098   1.642  0.0598  0.1943  0.0137
  871WAT      O 5288   1.599   3.304   5.893  0.7613  0.1315 -0.8598
  871WAT     H1 5289   1.554   3.329   5.973  2.1183 -0.2734  0.0699
  871WAT     H2 5290   1.542   3.239   5.852 -0.7185  1.5182 -1.0805
  871WAT    EPW 5291   1.586   3.299   5.898  0.7451  0.2609 -0.7663
  872WAT      O 5292   6.223   2.316   0.314  0.5061  0.8233 -0.3182
  872WAT     H1 5293   6.189   2.397   0.353 -2.6912  1.4394 -3.7747
  872WAT     H2 5294   6.165   2.247   0.346  1.1001  0.4492 -0.0262
  872WAT    EPW 5295   6.211   2.318   0.323  0.1628  0.8552 -0.7356
  873WAT      O 5296   2.561   7.522   1.555  0.3233  0.2183  0.3404
  873WAT     H1 5297   2.565   7.520   1.650  2.5628  1.5612  0.3439
  873WAT     H2 5298   2.637   7.574   1.529 -0.1313 -0.2561 -2.1932
  873WAT    EPW 5299   2.572   7.529   1.564  0.5587  0.3326  0.0067
  874WAT      O 5300   1.556   3.410   7.155  0.5896 -0.3470  0.0788
  874WAT     H1 5301   1.527   3.501   7.166  1.0276  0.0052 -1.4334
  874WAT     H2 5302   1.510   3.362   7.223 -0.3069  0.8756  0.3762
  874WAT    EPW 5303   1.546   3.416   7.165  0.5291 -0.1392 -0.0815
  875WAT      O 5304  -3.318   9.011   7.185 -0.4828  0.3412  0.1919
  875WAT     H1 5305  -3.338   9.056   7.103  0.1690 -1.4807 -1.0453
  875WAT     H2 5306  -3.237   9.051   7.216  1.9876 -2.0031 -2.6459
  875WAT    EPW 5307  -3.310   9.022   7.178 -0.0709 -0.2084 -0.3457
  876WAT      O 5308  -6.462   9.707   8.754 -0.1350 -0.2037  0.2836
  876WAT     H1 5309  -6.472   9.757   8.673 -2.6252  0.1255  0.7200
  876WAT     H2 5310  -6.369   9.717   8.777  0.2741  1.0066 -1.6545
  876WAT    EPW 5311  -6.451   9.715   8.747 -0.4094 -0.0005  0.0858
  877WAT      O 5312   4.536   4.400   5.846 -0.3799 -0.1657 -0.7166
  877WAT     H1 5313   4.457   4.348   5.865  1.1171 -2.0005  0.8217
  877WAT     H2 5314   4.502   4.483   5.812 -2.9749 -0.8333  0.0193
  877WAT    EPW 5315   4.521   4.404   5.844 -0.5248 -0.4959 -0.4165
  878WAT      O 5316   1.923   4.155   0.834  0.1962 -0.4334  0.1989
  878WAT     H1 5317   1.912   4.061   0.852 -1.8797 -0.7770 -2.2433
  878WAT     H2 5318   1.872   4.198   0.903 -0.7630 -1.2423  0.0225
  878WAT    EPW 5319   1.914   4.148   0.845 -0.2041 -0.5856 -0.1465
  879WAT      O 5320   1.715   7.589   4.675 -0.2956 -0.8627  0.3004
  879WAT     H1 5321   1.648   7.610   4.739  0.5112  1.9975  0.3219
  879WAT     H2 5322   1.795   7.575   4.727  0.7656  3.1162  0.0452
  879WAT    EPW 5323   1.717   7.590   4.690 -0.0493  0.0393  0.2697
  880WAT      O 5324  -0.701   3.572   6.334  0.3710  0.2005 -0.0791
  880WAT     H1 5325  -0.747   3.655   6.336 -0.0754  0.0082 -1.6056
  880WAT     H2 5326  -0.735   3.524   6.409 -2.0295  0.0170 -1.2194
  880WAT    EPW 5327  -0.711   3.577   6.344 -0.0045  0.1509 -0.4308
  881WAT      O 5328   1.314   1.354   0.303 -0.9353 -0.3290 -0.6442
  881WAT     H1 5329   1.387   1.293   0.316 -1.0990 -0.1515  1.6113
  881WAT     H2 5330   1.356   1.436   0.275 -0.1557 -0.0944  1.0555
  881WAT    EPW 5331   1.329   1.357   0.301 -0.8541 -0.2747 -0.1225
  882WAT      O 5332   6.232   6.765   0.652  0.7513 -0.1610 -0.0080
  882WAT     H1 5333   6.161   6.750   0.714 -1.7856  1.7209 -2.2030
  882WAT     H2 5334   6.307   6.719   0.689 -0.4520  1.0570  4.5218
  882WAT    EPW 5335   6.232   6.757   0.665  0.2580  0.2480  0.2999
  883WAT      O 5336  -0.251   3.898   8.893 -0.1287  0.2712  0.6339
  883WAT     H1 5337  -0.242   3.941   8.978 -1.4216  0.0917  0.8808
  883WAT     H2 5338  -0.229   3.806   8.911 -4.1911 -0.7165  1.7935
  883WAT    EPW 5339  -0.247   3.891   8.907 -0.8351  0.1171  0.8192
  884WAT      O 5340  -0.939   9.314   6.805  0.6389 -0.7887 -0.0319
  884WAT     H1 5341  -0.998   9.357   6.744  1.3755 -1.4163 -1.2349
  884WAT     H2 5342  -0.874   9.270   6.749  0.7848 -2.1989  1.1613
  884WAT    EPW 5343  -0.938   9.314   6.789  0.7553 -1.0576 -0.0331
  885WAT      O 5344  -4.123   9.098   2.717 -0.2851 -0.8983  0.1358
  885WAT     H1 5345  -4.072   9.170   2.755  1.1290 -2.2191  0.8890
  885WAT     H2 5346  -4.205   9.098   2.765  0.1566 -0.4802  0.9097
  885WAT    EPW 5347  -4.127   9.107   2.728 -0.0405 -1.0176  0.3371
  886WAT      O 5348   2.054   1.082   7.716 -0.8418  0.2363 -0.3018
  886WAT     H1 5349   1.962   1.067   7.740 -0.6623  0.0648  0.3131
  886WAT     H2 5350   2.084   1.148   7.778 -0.7065  0.7158 -0.8755
  886WAT    EPW 5351   2.045   1.089   7.728 -0.8003  0.2769 -0.2964
  887WAT      O 5352  -4.710   1.935   7.414 -0.3585 -0.1167 -0.6476
  887WAT     H1 5353  -4.723   1.849   7.455  0.7000 -0.6271 -1.3530
  887WAT     H2 5354  -4.630   1.926   7.363  0.9877  1.9306  0.9374
  887WAT    EPW 5355  -4.701   1.923   7.413 -0.0415  0.0861 -0.5317
  888WAT      O 5356  -5.120   7.579   4.703  0.3518  0.1903 -0.1467
  888WAT     H1 5357  -5.104   7.494   4.744 -0.7035 -0.3284 -0.7617
  888WAT     H2 5358  -5.112   7.563   4.609  0.8051  0.9229 -0.2381
  888WAT    EPW 5359  -5.117   7.565   4.696  0.2723  0.2184 -0.2398
  889WAT      O 5360  -2.716   5.786   5.357  0.3092  0.9322 -0.4924
  889WAT     H1 5361  -2.766   5.762   5.279 -0.4800 -0.8044  0.4661
  889WAT     H2 5362  -2.780   5.780   5.428  1.3286  1.0874  0.4597
  889WAT    EPW 5363  -2.731   5.782   5.356  0.3396  0.7236 -0.2403
  890WAT      O 5364  -6.091   8.518   7.139 -0.2517 -0.0800 -0.5008
  890WAT     H1 5365  -6.094   8.514   7.044 -1.4191 -0.6316 -0.4617
  890WAT     H2 5366  -6.069   8.429   7.166  2.0124  0.4971 -0.2793
  890WAT    EPW 5367  -6.089   8.506   7.130 -0.1070 -0.0768 -0.4663
  891WAT      O 5368  -1.318  10.082   8.344  0.7326 -0.0194 -0.0200
  891WAT     H1 5369  -1.300  10.165   8.299 -0.1822  0.5031  0.5385
  891WAT     H2 5370  -1.286  10.015   8.284 -0.6387  0.6354 -1.5666
  891WAT    EPW 5371  -1.311  10.084   8.330  0.4311  0.1359 -0.1502
  892WAT      O 5372   0.498   9.481   4.690  0.5447 -0.2793  0.4011
  892WAT     H1 5373   0.486   9.402   4.638 -1.7435  0.4098 -0.2145
  892WAT     H2 5374   0.475   9.455   4.779  2.8272 -1.0208  0.8626
  892WAT    EPW 5375   0.494   9.467   4.695  0.5440 -0.2861  0.3810
  893WAT      O 5376  -0.815   3.933   8.933  0.6561 -0.3382 -0.6344
  893WAT     H1 5377  -0.865   3.893   9.004  0.3152 -0.7879 -1.1204
  893WAT     H2 5378  -0.750   3.867   8.910  0.4907 -0.3708 -1.0199
  893WAT    EPW 5379  -0.813   3.919   8.940  0.5893 -0.4017 -0.7496
  894WAT      O 5380   0.744   7.711   6.941 -0.2333 -0.1069  0.1166
  894WAT     H1 5381   0.708   7.679   6.859  2.2621  1.8367 -1.9253
  894WAT     H2 5382   0.832   7.742   6.918  1.4011 -1.2469  3.9358
  894WAT    EPW 5383   0.751   7.711   6.927  0.3114 -0.0010  0.3510
  895WAT      O 5384   0.141   6.216   1.270 -0.8253  0.3587 -0.3320
  895WAT     H1 5385   0.109   6.304   1.291  4.0496  1.8131  2.6123
  895WAT     H2 5386   0.134   6.168   1.352 -0.0798 -0.7836 -0.9171
  895WAT    EPW 5387   0.136   6.221   1.283 -0.0840  0.3998 -0.0209
  896WAT      O 5388  -2.256   6.079   2.620  0.8787  0.2706  0.1538
  896WAT     H1 5389  -2.174   6.029   2.617 -0.1099 -1.5429  1.7873
  896WAT     H2 5390  -2.320   6.023   2.577  0.0224  0.6914  0.8572
  896WAT    EPW 5391  -2.253   6.065   2.614  0.6354  0.0870  0.4622
  897WAT      O 5392   0.030   8.450   3.387 -0.1666  0.1381 -0.2298
  897WAT     H1 5393  -0.034   8.492   3.330 -0.8073 -2.6374 -1.7396
  897WAT     H2 5394   0.099   8.516   3.398 -2.3239  2.5320 -0.0937
  897WAT    EPW 5395   0.031   8.464   3.381 -0.5356  0.0877 -0.4110
  898WAT      O 5396  -1.357   0.775   6.856  0.2925 -0.2976 -0.0898
  898WAT     H1 5397  -1.293   0.816   6.915 -1.3927  1.3269  0.6941
  898WAT     H2 5398  -1.399   0.708   6.910  0.5941 -0.6558 -0.2926
  898WAT    EPW 5399  -1.354   0.772   6.871  0.1100 -0.1306 -0.0131
  899WAT      O 5400  -3.294   8.558   1.383 -0.5307  0.1353  1.0497
  899WAT     H1 5401  -3.358   8.498   1.421  0.0561 -0.0700  1.7216
  899WAT     H2 5402  -3.281   8.625   1.451  0.0634  0.1056  0.9664
  899WAT    EPW 5403  -3.301   8.559   1.397 -0.3752  0.1044  1.1274
  900WAT      O 5404  -3.753   8.470   8.613 -0.6690  0.1973  0.0103
  900WAT     H1 5405  -3.717   8.548   8.570  0.0501 -1.2989 -2.2505
  900WAT     H2 5406  -3.681   8.407   8.612 -1.5707 -0.8732  0.8257
  900WAT    EPW 5407  -3.739   8.472   8.607 -0.6930 -0.1411 -0.1807
  901WAT      O 5408   4.909   2.500   5.542  0.1216 -0.3539  0.1642
  901WAT     H1 5409   4.962   2.461   5.612 -3.1181 -1.1492  2.3549
  901WAT     H2 5410   4.951   2.470   5.461  1.7222 -2.6864  1.7429
  901WAT    EPW 5411   4.922   2.491   5.541 -0.0947 -0.7665  0.6614
  902WAT      O 5412  -0.121   7.516   4.056  0.1509  0.0108  0.3763
  902WAT     H1 5413  -0.176   7.582   4.014 -0.0833 -0.1654  0.4063
  902WAT     H2 5414  -0.069   7.479   3.984  0.1625  0.1090  0.3337
  902WAT    EPW 5415  -0.121   7.520   4.041  0.1215  0.0005  0.3746
  903WAT      O 5416  -1.547   8.949   4.582 -0.0502  0.1158 -0.1216
  903WAT     H1 5417  -1.524   8.984   4.668 -2.0922 -1.2026  1.0600
  903WAT     H2 5418  -1.598   9.018   4.540  0.0578  0.3579  0.1444
  903WAT    EPW 5419  -1.550   8.962   4.588 -0.3054 -0.0262  0.0694
  904WAT      O 5420   8.670   0.670   2.748 -0.3922  0.5647  0.0358
  904WAT     H1 5421   8.764   0.690   2.748 -0.6916  2.0289 -0.2099
  904WAT     H2 5422   8.665   0.581   2.713  0.9549  0.1650  0.7710
  904WAT    EPW 5423   8.682   0.661   2.743 -0.2542  0.7051  0.1004
  905WAT      O 5424   0.851   1.292   0.094 -0.1503 -0.2635  0.4889
  905WAT     H1 5425   0.903   1.244   0.029 -0.1963  1.8683 -1.2226
  905WAT     H2 5426   0.761   1.269   0.073 -0.2193  1.0462 -0.8202
  905WAT    EPW 5427   0.846   1.283   0.083 -0.1655  0.1904  0.0905
  906WAT      O 5428  -2.957  10.183   5.575 -0.5941 -0.4349  0.4465
  906WAT     H1 5429  -2.889  10.123   5.542  1.7587  2.0939  0.3302
  906WAT     H2 5430  -2.927  10.207   5.663 -0.9339  1.2542  0.1338
  906WAT    EPW 5431  -2.944  10.178   5.582 -0.3287  0.1216  0.3901
  907WAT      O 5432   1.866   5.176   5.927 -0.6834 -0.4662 -0.2408
  907WAT     H1 5433   1.927   5.137   5.989  0.4985 -0.7213 -1.5250
  907WAT     H2 5434   1.838   5.103   5.872  1.2572  0.3251 -2.4291
  907WAT    EPW 5435   1.870   5.161   5.928 -0.2716 -0.3955 -0.6988
  908WAT      O 5436  -0.370   3.390   0.639  0.1190  0.1581  0.6221
  908WAT     H1 5437  -0.426   3.336   0.583  0.8809 -0.5943  0.5645
  908WAT     H2 5438  -0.320   3.445   0.578  0.8705 -0.5849  0.5491
  908WAT    EPW 5439  -0.371   3.390   0.623  0.3186 -0.0391  0.6049
  909WAT      O 5440   3.814   6.741   7.198 -0.3236 -0.4186 -0.3791
  909WAT     H1 5441   3.856   6.690   7.267 -0.5233  0.4736  0.4237
  909WAT     H2 5442   3.830   6.692   7.118 -0.8029 -1.9213  0.4142
  909WAT    EPW 5443   3.822   6.728   7.196 -0.4132 -0.4992 -0.1686
  910WAT      O 5444   0.433   1.949   6.061  0.0882 -0.2426  0.0376
  910WAT     H1 5445   0.496   1.933   5.991 -1.3679  0.2578 -1.4848
  910WAT     H2 5446   0.399   2.037   6.042 -2.0094 -1.0133 -0.0283
  910WAT    EPW 5447   0.437   1.959   6.049 -0.3805 -0.2782 -0.1719
  911WAT      O 5448   1.275   0.632   6.539  0.0587 -0.2874 -0.3295
  911WAT     H1 5449   1.360   0.618   6.497  0.2870 -2.5214  0.7360
  911WAT     H2 5450   1.221   0.558   6.511 -0.3708 -0.8300  1.7296
  911WAT    EPW 5451   1.279   0.620   6.530  0.0321 -0.6536  0.0827
  912WAT      O 5452  -1.775   0.433   3.294 -0.1902  0.6210  0.7545
  912WAT     H1 5453  -1.746   0.439   3.203 -0.5776 -0.0182  0.5889
  912WAT     H2 5454  -1.750   0.345   3.322 -2.3009 -0.1014  0.4818
  912WAT    EPW 5455  -1.768   0.422   3.286 -0.5196  0.4414  0.6968
  913WAT      O 5456  -1.328   9.140   7.506 -0.6777 -0.1246  0.1520
  913WAT     H1 5457  -1.241   9.168   7.478 -1.0828 -0.7115 -1.8353
  913WAT     H2 5458  -1.312   9.079   7.578  0.6506 -1.2090 -1.0171
  913WAT    EPW 5459  -1.315   9.135   7.512 -0.5559 -0.3452 -0.2644
  914WAT      O 5460  -0.910   4.173   4.994 -0.1845  0.5487  0.0372
  914WAT     H1 5461  -0.820   4.158   5.024 -0.4378 -2.0811 -0.2459
  914WAT     H2 5462  -0.903   4.178   4.899 -0.4513 -1.2856 -0.1174
  914WAT    EPW 5463  -0.897   4.172   4.985 -0.2531 -0.0398 -0.0207
  915WAT      O 5464  -1.342   9.197   8.506 -0.5032  0.3759  0.5425
  915WAT     H1 5465  -1.265   9.213   8.451 -1.2484 -0.9347 -0.9344
  915WAT     H2 5466  -1.312   9.217   8.595  0.5541  3.2246 -0.3349
  915WAT    EPW 5467  -1.328   9.202   8.510 -0.4621  0.5789  0.2317
  916WAT      O 5468   6.723   2.050   2.627 -0.4425  0.5082  0.3762
  916WAT     H1 5469   6.694   1.974   2.676  0.3677  2.1884  3.7206
  916WAT     H2 5470   6.661   2.119   2.650 -0.4472  1.2482 -1.6004
  916WAT    EPW 5471   6.711   2.049   2.636 -0.3362  0.8274  0.5566
  917WAT      O 5472  -5.886   3.507   8.523 -0.0440  1.0661  0.1011
  917WAT     H1 5473  -5.886   3.591   8.476  2.2829  0.7456 -0.5915
  917WAT     H2 5474  -5.849   3.528   8.609 -0.5021  0.9361  0.3323
  917WAT    EPW 5475  -5.881   3.521   8.529  0.2027  1.0066  0.0405
  918WAT      O 5476   1.296   5.689   5.913  0.7934  0.9750  0.1767
  918WAT     H1 5477   1.219   5.714   5.964  0.4497  0.6254 -0.1579
  918WAT     H2 5478   1.366   5.679   5.977  0.3442  0.4444  0.5960
  918WAT    EPW 5479   1.295   5.691   5.928  0.6889  0.8590  0.1881
  919WAT      O 5480   1.588   9.778   3.964  0.0253 -0.2637  0.4068
  919WAT     H1 5481   1.665   9.726   3.987  1.2934  1.5891  0.6144
  919WAT     H2 5482   1.519   9.714   3.948  1.0418 -1.9112  2.2836
  919WAT    EPW 5483   1.589   9.763   3.965  0.3266 -0.2365  0.6818
  920WAT      O 5484   2.109   1.832   5.086 -0.2881  0.4648 -0.2660
  920WAT     H1 5485   2.114   1.756   5.029 -0.0666  1.2425 -1.3329
  920WAT     H2 5486   2.182   1.823   5.146 -2.1220 -1.7971  1.8135
  920WAT    EPW 5487   2.119   1.821   5.086 -0.5008  0.2690 -0.1323
  921WAT      O 5488  -2.848   3.436   7.425 -0.1212 -0.8098 -0.7019
  921WAT     H1 5489  -2.835   3.513   7.371 -0.3904 -0.2461  0.0146
  921WAT     H2 5490  -2.761   3.396   7.432 -0.3248 -1.7519 -2.7562
  921WAT    EPW 5491  -2.834   3.441   7.419 -0.1836 -0.8596 -0.8786
  922WAT      O 5492  -2.322   4.164   6.947  0.3507 -0.3943  0.0151
  922WAT     H1 5493  -2.275   4.198   6.870  0.4258  0.3499  0.3831
  922WAT     H2 5494  -2.353   4.078   6.919  1.1254 -0.5020 -0.5545
  922WAT    EPW 5495  -2.320   4.157   6.933  0.4628 -0.3104 -0.0114
  923WAT      O 5496   4.704  10.150   0.514 -0.1151  0.3004  0.2040
  923WAT     H1 5497   4.633  10.199   0.473 -0.6834 -1.5268 -1.1336
  923WAT     H2 5498   4.691  10.060   0.485  3.9658  0.1602 -1.8517
  923WAT    EPW 5499   4.693  10.144   0.505  0.3483  0.0410 -0.2435
  924WAT      O 5500  -1.573   2.310   8.766  0.1014 -0.2853  0.0626
  924WAT     H1 5501  -1.653   2.290   8.815  1.2711 -3.7628  0.9112
  924WAT     H2 5502  -1.603   2.347   8.684 -2.1725  1.3597  1.5145
  924WAT    EPW 5503  -1.588   2.312   8.762 -0.0442 -0.5270  0.3657
  925WAT      O 5504  -1.030   7.465   7.775  0.8775 -0.0773  0.0164
  925WAT     H1 5505  -0.966   7.445   7.843  3.1854 -1.9312 -2.4880
  925WAT     H2 5506  -0.988   7.530   7.719  1.3472 -2.3216 -2.4475
  925WAT    EPW 5507  -1.016   7.471   7.776  1.2438 -0.6177 -0.6390
  926WAT      O 5508   1.462   6.408   2.810  0.0249 -0.1363 -0.7833
  926WAT     H1 5509   1.404   6.461   2.864 -0.5865  0.1152 -1.6700
  926WAT     H2 5510   1.484   6.463   2.736  2.5806  0.3211  0.1848
  926WAT    EPW 5511   1.457   6.422   2.808  0.2813 -0.0427 -0.7726
  927WAT      O 5512  -1.065   7.802   4.876  0.1926  0.3819  0.0125
  927WAT     H1 5513  -1.112   7.881   4.849  0.7578  1.1260  1.1299
  927WAT     H2 5514  -1.129   7.751   4.925  0.2119  0.8415  0.5258
  927WAT    EPW 5515  -1.079   7.805   4.879  0.2697  0.5407  0.2277
  928WAT      O 5516   3.184   0.314   3.909  0.0014  0.2859  0.4530
  928WAT     H1 5517   3.250   0.356   3.854  0.8524 -2.1364 -0.4616
  928WAT     H2 5518   3.113   0.291   3.849 -0.4322  0.3556  0.9290
  928WAT    EPW 5519   3.183   0.317   3.894  0.0565 -0.0244  0.3952
  929WAT      O 5520   0.800   6.276   1.009 -0.1286 -0.0237 -0.3766
  929WAT     H1 5521   0.812   6.363   1.046 -0.7756  0.3040 -0.9159
  929WAT     H2 5522   0.884   6.232   1.022 -0.9228 -0.7490  3.5500
  929WAT    EPW 5523   0.812   6.282   1.016 -0.3187 -0.0763  0.0701
  930WAT      O 5524   7.914   0.412   2.361  0.0047 -0.0746  0.0634
  930WAT     H1 5525   7.880   0.367   2.284 -1.3399  0.8552  0.0657
  930WAT     H2 5526   7.981   0.354   2.396 -0.0771 -0.9820 -1.2185
  930WAT    EPW 5527   7.919   0.399   2.355 -0.1833 -0.0717 -0.1054
  931WAT      O 5528   8.317   1.150   0.238 -0.2241 -0.1296 -0.0500
  931WAT     H1 5529   8.409   1.163   0.262  0.3936 -2.1604 -1.0789
  931WAT     H2 5530   8.290   1.072   0.286 -1.3125  0.2519 -0.0180
  931WAT    EPW 5531   8.325   1.142   0.247 -0.2861 -0.3471 -0.1815
  932WAT      O 5532   4.902   2.320   3.726  0.0958 -1.3428  0.8976
  932WAT     H1 5533   4.898   2.254   3.796  1.7742 -1.0391  1.3181
  932WAT     H2 5534   4.968   2.286   3.666  1.9068  0.4900  1.7424
  932WAT    EPW 5535   4.910   2.307   3.728  0.5560 -1.0611  1.0644
  933WAT      O 5536   3.198   7.993   1.470  0.0929  0.3429 -0.5379
  933WAT     H1 5537   3.104   7.985   1.453  0.1526 -1.8176 -0.0921
  933WAT     H2 5538   3.239   7.944   1.399  0.6561 -2.2258  1.4406
  933WAT    EPW 5539   3.191   7.986   1.458  0.1751 -0.2811 -0.2182
  934WAT      O 5540  -3.084   7.676   7.786 -0.1540 -0.0589 -0.1703
  934WAT     H1 5541  -3.078   7.596   7.735  2.1687  0.5506 -0.9544
  934WAT     H2 5542  -2.999   7.685   7.829 -1.2841  0.6110  2.0998
  934WAT    EPW 5543  -3.072   7.667   7.785  0.0032  0.1099  0.0260
  935WAT      O 5544   2.201   6.001   7.653  0.3922 -0.1333  0.5152
  935WAT     H1 5545   2.106   5.995   7.651  0.4783 -1.3610 -1.5702
  935WAT     H2 5546   2.218   6.079   7.707 -1.7673  0.2850  0.6852
  935WAT    EPW 5547   2.191   6.011   7.660  0.1187 -0.2401  0.2627
  936WAT      O 5548   5.535   4.546   5.152  0.1407 -0.1471 -0.4360
  936WAT     H1 5549   5.507   4.597   5.075  0.0026 -0.2125 -0.4304
  936WAT     H2 5550   5.520   4.455   5.127  2.1155 -0.3194 -1.1502
  936WAT    EPW 5551   5.529   4.541   5.138  0.3829 -0.1786 -0.5295
  937WAT      O 5552  -2.945   6.974   8.310  0.2195  0.1507  0.0073
  937WAT     H1 5553  -2.943   6.903   8.246  0.3613 -0.4041  0.6120
  937WAT     H2 5554  -2.929   6.930   8.394 -1.5636  0.6213  0.6281
  937WAT    EPW 5555  -2.942   6.959   8.313  0.0030  0.1395  0.1688
  938WAT      O 5556  -5.337   4.460   6.681  0.1805  0.3920  0.2342
  938WAT     H1 5557  -5.429   4.457   6.706  0.3966 -1.1787  0.9842
  938WAT     H2 5558  -5.307   4.546   6.709 -1.1552  1.1135 -0.4544
  938WAT    EPW 5559  -5.345   4.471   6.688  0.0329  0.2801  0.2422
  939WAT      O 5560   1.334   9.703   6.923  0.0158  0.4387 -0.6160
  939WAT     H1 5561   1.402   9.651   6.880  0.2740 -2.0249  2.4823
  939WAT     H2 5562   1.261   9.643   6.936 -1.0717  1.8291 -0.0380
  939WAT    EPW 5563   1.333   9.689   6.919 -0.0936  0.2975 -0.1311
  940WAT      O 5564   5.715   0.730   6.847 -0.2281 -0.5127  0.0408
  940WAT     H1 5565   5.664   0.802   6.809 -1.0141 -1.6019 -1.0219
  940WAT     H2 5566   5.772   0.773   6.911  0.3888  1.2648 -1.6150
  940WAT    EPW 5567   5.716   0.745   6.851 -0.2503 -0.4219 -0.3176
  941WAT      O 5568   3.130   2.832   5.602  0.2300  0.2106 -0.2909
  941WAT     H1 5569   3.178   2.900   5.649 -0.4225  0.5752 -0.1428
  941WAT     H2 5570   3.143   2.753   5.653  2.2609 -0.1554 -1.2541
  941WAT    EPW 5571   3.138   2.831   5.615  0.4119  0.2105 -0.3984
  942WAT      O 5572   2.980   7.368   4.308 -0.4550  0.2275  0.1981
  942WAT     H1 5573   2.981   7.321   4.391  0.7451 -0.6199 -0.2645
  942WAT     H2 5574   3.008   7.457   4.331 -1.4694  0.3853  0.8876
  942WAT    EPW 5575   2.984   7.374   4.322 -0.4305  0.1366  0.2282
  943WAT      O 5576  -0.732   4.379   8.059  0.2241  0.1331  0.3985
  943WAT     H1 5577  -0.755   4.292   8.026 -1.4232  1.6982 -3.1383
  943WAT     H2 5578  -0.645   4.396   8.023 -0.7388  1.0541 -1.6445
  943WAT    EPW 5579  -0.724   4.369   8.050 -0.1202  0.4609 -0.3371
  944WAT      O 5580  -3.854   1.355   7.613  0.7090 -0.1786  0.5423
  944WAT     H1 5581  -3.829   1.328   7.702  2.6956 -0.3542 -0.0186
  944WAT     H2 5582  -3.777   1.402   7.580  0.0372 -0.1735 -1.1104
  944WAT    EPW 5583  -3.841   1.357   7.621  0.8825 -0.2010  0.2506
  945WAT      O 5584   1.200  10.306   5.901  0.6026  0.4243  0.2678
  945WAT     H1 5585   1.213  10.326   5.808 -1.0859  1.7039  0.2496
  945WAT     H2 5586   1.228  10.215   5.910 -1.7503 -0.6791 -2.1329
  945WAT    EPW 5587   1.205  10.296   5.890  0.0696  0.4478 -0.0513
  946WAT      O 5588   0.935   7.224   1.767 -0.9228 -0.5891  0.3512
  946WAT     H1 5589   1.011   7.186   1.811 -0.4853  2.0505  2.0818
  946WAT     H2 5590   0.952   7.209   1.673  0.7214 -1.7563  0.7832
  946WAT    EPW 5591   0.948   7.217   1.760 -0.6483 -0.3948  0.6364
  947WAT      O 5592   3.587   8.126   4.176 -0.5574  0.0470  0.2208
  947WAT     H1 5593   3.630   8.056   4.128 -2.5252  0.6288 -2.6039
  947WAT     H2 5594   3.658   8.187   4.198  1.3092 -2.9017  3.2873
  947WAT    EPW 5595   3.602   8.125   4.173 -0.5708 -0.2651  0.2527
  948WAT      O 5596   7.585   4.063   2.219  0.0317  0.5193  0.0801
  948WAT     H1 5597   7.505   4.092   2.263  1.1013  2.8058  0.6421
  948WAT     H2 5598   7.554   4.017   2.141 -1.8538 -1.2813  1.7795
  948WAT    EPW 5599   7.570   4.061   2.214 -0.0758  0.5834  0.3784
  949WAT      O 5600  -0.747   2.959   5.192 -0.3883  0.1544 -0.6029
  949WAT     H1 5601  -0.740   3.054   5.182 -1.7578  0.2810 -0.5619
  949WAT     H2 5602  -0.818   2.946   5.255 -0.6530 -0.9023 -1.0922
  949WAT    EPW 5603  -0.756   2.969   5.199 -0.6039  0.0317 -0.6621
  950WAT      O 5604  -3.453   3.583   7.173 -0.2675  0.6518 -0.5881
  950WAT     H1 5605  -3.412   3.496   7.177 -0.0382  0.7746 -0.0740
  950WAT     H2 5606  -3.443   3.610   7.082 -2.6327 -0.9228 -1.3918
  950WAT    EPW 5607  -3.446   3.575   7.162 -0.5491  0.4603 -0.6263
  951WAT      O 5608   8.127   0.040   2.546 -0.0941  0.3690 -0.4503
  951WAT     H1 5609   8.113   0.016   2.637  0.0564  2.1861  0.0800
  951WAT     H2 5610   8.221   0.027   2.532 -0.2173 -0.4883 -0.5442
  951WAT    EPW 5611   8.137   0.035   2.556 -0.0904  0.4954 -0.3927
  952WAT      O 5612  -4.384   3.447   7.933  0.8716  0.2987 -0.6058
  952WAT     H1 5613  -4.293   3.477   7.932  0.4423  1.7636  0.9369
  952WAT     H2 5614  -4.380   3.358   7.897  2.5857  1.1477 -2.7230
  952WAT    EPW 5615  -4.371   3.439   7.928  1.0412  0.6039 -0.6816
  953WAT      O 5616   3.939   1.196   0.510 -0.1168 -0.8939 -0.2507
  953WAT     H1 5617   4.004   1.150   0.563 -0.8210  0.8681  2.3509
  953WAT     H2 5618   3.954   1.165   0.421  1.2528 -3.9486  0.9116
  953WAT    EPW 5619   3.949   1.186   0.505 -0.0290 -1.0644  0.2458
  954WAT      O 5620   1.531   8.370   7.870  0.6625 -0.1098  0.1940
  954WAT     H1 5621   1.582   8.335   7.943  0.1632  2.1361  1.7193
  954WAT     H2 5622   1.536   8.465   7.880 -2.5271  0.2578 -0.4798
  954WAT    EPW 5623   1.538   8.378   7.881  0.1759  0.2341  0.3064
  955WAT      O 5624   1.789   6.842   3.582  0.3821  0.0601 -0.1299
  955WAT     H1 5625   1.770   6.936   3.571 -0.8297 -0.1454  0.0853
  955WAT     H2 5626   1.703   6.800   3.584  0.9248 -1.3655 -2.7385
  955WAT    EPW 5627   1.775   6.849   3.581  0.2939 -0.1550 -0.4456
  956WAT      O 5628   1.577   0.589   5.091 -0.4977 -0.5760 -0.0872
  956WAT     H1 5629   1.665   0.620   5.069 -0.2410 -2.5376 -2.0373
  956WAT     H2 5630   1.524   0.669   5.094  1.0568  0.4992 -0.2923
  956WAT    EPW 5631   1.582   0.604   5.089 -0.2588 -0.6929 -0.3715
  957WAT      O 5632  -2.612   6.631   7.232 -0.7466 -0.3015 -0.7817
  957WAT     H1 5633  -2.697   6.673   7.244 -1.2636 -1.0113 -1.7628
  957WAT     H2 5634  -2.617   6.592   7.145  1.4158  1.4933 -1.8012
  957WAT    EPW 5635  -2.624   6.631   7.222 -0.5296 -0.1585 -1.0457
  958WAT      O 5636  -6.908   9.963   6.934  0.4891  0.5364 -0.1727
  958WAT     H1 5637  -6.898   9.990   6.843  1.0210 -0.3948 -0.4067
  958WAT     H2 5638  -6.988   9.910   6.935  0.0665  1.1679  0.0604
  958WAT    EPW 5639  -6.917   9.960   6.922  0.5035  0.4969 -0.1731
  959WAT      O 5640   1.977   9.652   7.376 -0.4737  0.2587  0.4366
  959WAT     H1 5641   1.979   9.581   7.312  1.9055 -0.1660  0.8646
  959WAT     H2 5642   2.057   9.640   7.427 -0.2497  2.9434  0.8676
  959WAT    EPW 5643   1.988   9.641   7.374 -0.1303  0.5565  0.5498
  960WAT      O 5644   3.687   5.213   7.116 -0.2076 -0.5933  0.0931
  960WAT     H1 5645   3.638   5.274   7.060 -0.9130 -2.0711 -0.9630
  960WAT     H2 5646   3.700   5.261   7.198  0.4337  1.4713 -1.1315
  960WAT    EPW 5647   3.682   5.228   7.119 -0.2160 -0.5162 -0.2077
  961WAT      O 5648   1.992  10.279   3.490  0.3563 -0.2814 -0.5189
  961WAT     H1 5649   2.017  10.271   3.582  1.7053  3.0587 -0.4405
  961WAT     H2 5650   2.038  10.208   3.446  0.9023 -1.0274  1.1906
  961WAT    EPW 5651   2.001  10.269   3.497  0.6062  0.0610 -0.2831
  962WAT      O 5652   1.428   0.460   2.285 -0.6266  0.4795  0.0451
  962WAT     H1 5653   1.427   0.406   2.364 -1.3196 -0.2816 -0.4556
  962WAT     H2 5654   1.499   0.423   2.232 -0.7749  0.3754 -0.0834
  962WAT    EPW 5655   1.437   0.448   2.288 -0.7376  0.3654 -0.0379
  963WAT      O 5656   0.981   5.010   1.851  0.5473 -0.6528  0.4866
  963WAT     H1 5657   0.945   5.006   1.762 -1.4306  0.7413  1.1603
  963WAT     H2 5658   1.035   5.089   1.851  1.6088 -1.3519  0.2047
  963WAT    EPW 5659   0.984   5.019   1.839  0.4264 -0.5612  0.5382
  964WAT      O 5660  -0.720   2.032   2.611  0.4267 -0.5812  0.2598
  964WAT     H1 5661  -0.634   2.072   2.605  0.5986 -0.6575  1.7550
  964WAT     H2 5662  -0.715   1.975   2.688 -0.9742 -0.5407  0.4175
  964WAT    EPW 5663  -0.708   2.030   2.620  0.2646 -0.5860  0.4778
  965WAT      O 5664  -0.047   2.958   1.173  0.3209 -0.4570  0.1206
  965WAT     H1 5665  -0.112   2.895   1.142  0.7250 -1.0160  0.3952
  965WAT     H2 5666   0.032   2.906   1.185 -0.0580 -0.5046  3.0393
  965WAT    EPW 5667  -0.045   2.943   1.171  0.3242 -0.5370  0.5417
  966WAT      O 5668   3.230   0.132   2.121  0.0783 -0.0812  0.4204
  966WAT     H1 5669   3.176   0.054   2.118  1.5224 -1.2446  2.2305
  966WAT     H2 5670   3.215   0.168   2.209 -1.7491  2.6591 -0.8542
  966WAT    EPW 5671   3.221   0.127   2.132  0.0278  0.1268  0.4910
  967WAT      O 5672   0.144   2.847   1.908  0.2505  0.5440 -0.1413
  967WAT     H1 5673   0.144   2.942   1.900 -0.7474  0.5878  0.2580
  967WAT     H2 5674   0.133   2.831   2.002  1.4076  0.0266 -0.0737
  967WAT    EPW 5675   0.142   2.857   1.919  0.2715  0.4815 -0.0798
  968WAT      O 5676   1.644   1.620   4.408 -0.0425  0.4434  0.0271
  968WAT     H1 5677   1.617   1.538   4.367 -3.5732  1.8921 -0.8671
  968WAT     H2 5678   1.599   1.620   4.493  0.3250  1.2214  0.2303
  968WAT    EPW 5679   1.634   1.609   4.414 -0.4597  0.7371 -0.0644
  969WAT      O 5680  -3.999   9.532   3.837 -0.0577  0.0009  0.4261
  969WAT     H1 5681  -4.028   9.568   3.753 -1.1260 -0.4755  0.5711
  969WAT     H2 5682  -3.907   9.511   3.824 -0.9521 -3.3155 -1.8266
  969WAT    EPW 5683  -3.991   9.534   3.824 -0.3165 -0.4992  0.1481
  970WAT      O 5684  -1.334   9.896   2.492 -0.4147  0.4783  1.0141
  970WAT     H1 5685  -1.263   9.831   2.497 -1.0616 -0.2021  1.5586
  970WAT     H2 5686  -1.299   9.964   2.435  1.2289  0.8663  2.3916
  970WAT    EPW 5687  -1.320   9.896   2.485 -0.2832  0.4401  1.2676
  971WAT      O 5688   2.760   1.483   0.754 -0.3230 -0.5235 -0.0669
  971WAT     H1 5689   2.789   1.469   0.664 -0.6397  3.3884 -0.9425
  971WAT     H2 5690   2.837   1.464   0.808  1.4547  1.7796 -1.6406
  971WAT    EPW 5691   2.774   1.479   0.749 -0.1303  0.2962 -0.3899
  972WAT      O 5692  -1.370   6.091   7.525 -0.3243  0.3281  0.4212
  972WAT     H1 5693  -1.356   6.121   7.615 -2.9466 -0.7063  1.2603
  972WAT     H2 5694  -1.464   6.079   7.518 -0.0535 -1.0269 -2.0349
  972WAT    EPW 5695  -1.380   6.094   7.536 -0.6344  0.0129  0.2079
  973WAT      O 5696  -3.663   6.227   5.870  0.5874 -0.9209  0.3859
  973WAT     H1 5697  -3.581   6.271   5.847  0.7710 -1.3988  0.1167
  973WAT     H2 5698  -3.694   6.274   5.948  2.9029 -2.8742  2.6788
  973WAT    EPW 5699  -3.656   6.239   5.877  0.9170 -1.2417  0.6530
  974WAT      O 5700  -1.492   1.448   5.280 -0.1381 -0.0023  0.2445
  974WAT     H1 5701  -1.467   1.507   5.351 -0.6997  1.6969 -0.9017
  974WAT     H2 5702  -1.412   1.402   5.257  0.6652  1.3366  0.2774
  974WAT    EPW 5703  -1.478   1.450   5.286 -0.1062  0.3983  0.0975
  975WAT      O 5704   2.603   5.260   2.064 -0.2514 -0.1925  0.1392
  975WAT     H1 5705   2.541   5.331   2.045  0.6732  0.6931  0.3109
  975WAT     H2 5706   2.606   5.208   1.984 -0.9031 -0.0043 -0.0106
  975WAT    EPW 5707   2.595   5.263   2.051 -0.2154 -0.0505  0.1421
  976WAT      O 5708  -1.859  10.035   2.391 -0.3953  0.1614 -0.2772
  976WAT     H1 5709  -1.770  10.059   2.414 -1.3035  2.8669  0.8649
  976WAT     H2 5710  -1.887   9.976   2.462  0.5199 -0.8828 -0.7654
  976WAT    EPW 5711  -1.851  10.030   2.404 -0.3944  0.3810 -0.1909
  977WAT      O 5712   8.139   4.201   2.009  0.2133  0.3629 -0.7083
  977WAT     H1 5713   8.131   4.183   1.916  1.4756 -0.2330 -0.7130
  977WAT     H2 5714   8.076   4.142   2.050  0.3807 -0.1038 -1.1154
  977WAT    EPW 5715   8.130   4.191   2.002  0.4020  0.2229 -0.7626
  978WAT      O 5716  -1.818   8.302   6.212 -0.1299  0.2044 -0.7318
  978WAT     H1 5717  -1.896   8.252   6.186 -0.0535 -0.0915 -0.4107
  978WAT     H2 5718  -1.793   8.264   6.296  2.4512 -2.1319 -2.3948
  978WAT    EPW 5719  -1.825   8.290   6.220  0.2206 -0.1426 -0.9089
  979WAT      O 5720  -2.711   3.582   5.595  0.0817 -0.3166 -0.1099
  979WAT     H1 5721  -2.795   3.621   5.621  0.1598  0.6688 -1.2995
  979WAT     H2 5722  -2.729   3.487   5.595 -1.1121 -0.1089 -0.6301
  979WAT    EPW 5723  -2.724   3.574   5.599 -0.0653 -0.1591 -0.3355
  980WAT      O 5724   1.967   1.466   8.632  0.0009  0.3047  0.5862
  980WAT     H1 5725   1.909   1.504   8.699  0.4718 -1.4680  2.1078
  980WAT     H2 5726   2.009   1.393   8.677  1.8152  0.2250 -1.1324
  980WAT    EPW 5727   1.965   1.461   8.647  0.3023  0.0603  0.5598
  981WAT      O 5728   5.728   8.333   0.585  0.5272 -0.6783 -0.4083
  981WAT     H1 5729   5.812   8.356   0.626 -0.8591  1.3745  1.6023
  981WAT     H2 5730   5.686   8.418   0.570 -0.3085 -1.5279 -3.5708
  981WAT    EPW 5731   5.734   8.348   0.589  0.2341 -0.5193 -0.5602
  982WAT      O 5732  -6.117   7.655   8.138 -0.9205  0.1641  0.1060
  982WAT     H1 5733  -6.036   7.702   8.156  0.3963 -2.4004  1.5704
  982WAT     H2 5734  -6.174   7.675   8.212  0.0323 -1.2364  1.2762
  982WAT    EPW 5735  -6.114   7.663   8.150 -0.6211 -0.3591  0.4535
  983WAT      O 5736   3.549   9.875   3.255 -0.7664  0.4227 -0.8986
  983WAT     H1 5737   3.599   9.819   3.196 -0.9782 -0.1260 -0.5604
  983WAT     H2 5738   3.514   9.944   3.198  0.0970  0.6263 -1.1869
  983WAT    EPW 5739   3.551   9.877   3.240 -0.6804  0.3767 -0.8919
  984WAT      O 5740  -5.452   9.004   8.430  0.7727 -0.0477  0.0440
  984WAT     H1 5741  -5.412   8.918   8.440  0.1003 -0.5039 -0.9355
  984WAT     H2 5742  -5.528   8.988   8.374  2.7831  1.7335 -3.5624
  984WAT    EPW 5743  -5.457   8.990   8.424  0.9491  0.1273 -0.5608
  985WAT      O 5744  -0.080   8.922   1.380 -0.5457 -0.4428  0.5260
  985WAT     H1 5745  -0.028   8.891   1.307 -0.1826  0.6993  0.2835
  985WAT     H2 5746  -0.037   8.885   1.458 -0.2751 -0.7291  0.2425
  985WAT    EPW 5747  -0.068   8.913   1.381 -0.4621 -0.3304  0.4566
  986WAT      O 5748  -3.746   8.480   7.802  0.3434 -0.1691 -0.2012
  986WAT     H1 5749  -3.744   8.515   7.891  1.0146 -1.1167  0.1735
  986WAT     H2 5750  -3.830   8.510   7.767  1.6911  3.6147 -0.6832
  986WAT    EPW 5751  -3.757   8.489   7.809  0.6096  0.2050 -0.2153
  987WAT      O 5752   1.879   2.429   6.530  0.0377  0.1344  0.3369
  987WAT     H1 5753   1.968   2.421   6.564  0.3640 -1.0135 -0.7016
  987WAT     H2 5754   1.832   2.479   6.597  1.0108 -0.7300  1.7207
  987WAT    EPW 5755   1.884   2.435   6.543  0.2090 -0.1310  0.3824
  988WAT      O 5756  -4.961   5.883   5.308  0.1230  0.1292  0.6617
  988WAT     H1 5757  -5.044   5.931   5.312  0.1356  0.3360 -0.9451
  988WAT     H2 5758  -4.987   5.791   5.313 -0.3493  0.1389 -1.0245
  988WAT    EPW 5759  -4.976   5.877   5.309  0.0625  0.1578  0.2275
  989WAT      O 5760  -3.266   9.254   7.880  0.1007  0.4374  0.7724
  989WAT     H1 5761  -3.354   9.288   7.864 -0.6761 -1.4280  0.8076
  989WAT     H2 5762  -3.247   9.277   7.971 -1.6956 -1.7668  1.8134
  989WAT    EPW 5763  -3.275   9.261   7.890 -0.2388 -0.0992  0.9146
  990WAT      O 5764   6.049   6.957   0.977  0.2429  0.2700  0.1113
  990WAT     H1 5765   5.998   6.971   0.897 -0.5088  1.6733  0.7981
  990WAT     H2 5766   6.125   6.908   0.948  0.3116  1.2957 -1.5953
  990WAT    EPW 5767   6.052   6.953   0.963  0.1531  0.5906 -0.0232
  991WAT      O 5768   2.485   7.944   2.877  0.3930  0.5234 -0.2097
  991WAT     H1 5769   2.470   8.028   2.920 -1.5669  0.1930 -0.1719
  991WAT     H2 5770   2.482   7.879   2.947 -2.3900  0.0293 -0.6696
  991WAT    EPW 5771   2.483   7.947   2.892 -0.2326  0.4148 -0.2654
  992WAT      O 5772  -3.129   6.067   4.711  0.1881  0.3939  0.0547
  992WAT     H1 5773  -3.095   6.155   4.724  0.0942  0.6542 -1.3230
  992WAT     H2 5774  -3.155   6.064   4.619  0.0191 -1.0152  0.1176
  992WAT    EPW 5775  -3.128   6.078   4.701  0.1534  0.2425 -0.1187
  993WAT      O 5776   2.279   2.641   2.960  0.5560  0.8219  0.2723
  993WAT     H1 5777   2.247   2.572   2.901  0.2467 -0.6540  2.0681
  993WAT     H2 5778   2.335   2.696   2.904 -0.1648 -0.1589 -1.5097
  993WAT    EPW 5779   2.282   2.639   2.945  0.4202  0.4977  0.2742
  994WAT      O 5780   3.353   8.872   7.064 -0.0681 -0.0419 -0.3664
  994WAT     H1 5781   3.429   8.840   7.112 -1.9259 -0.8410  2.2340
  994WAT     H2 5782   3.349   8.815   6.987  2.3365  0.5225 -1.0148
  994WAT    EPW 5783   3.363   8.860   7.060  0.0039 -0.0725 -0.1090
  995WAT      O 5784   6.948   7.370   2.158  0.2456 -0.0960 -0.9412
  995WAT     H1 5785   6.965   7.388   2.065 -1.4172 -0.4087 -1.3449
  995WAT     H2 5786   6.928   7.277   2.161  2.7872 -0.6902  0.1779
  995WAT    EPW 5787   6.947   7.360   2.146  0.3614 -0.2155 -0.8469
  996WAT      O 5788  -3.385   7.080   4.142  0.3770  0.0054  0.3110
  996WAT     H1 5789  -3.443   7.020   4.096 -1.8432  2.6563 -0.6143
  996WAT     H2 5790  -3.429   7.096   4.225 -1.2725  3.2136 -0.9989
  996WAT    EPW 5791  -3.399   7.074   4.147 -0.1333  0.7780  0.0165
  997WAT      O 5792  -2.862   9.920   5.484  0.0544  0.4665 -0.0545
  997WAT     H1 5793  -2.829   9.930   5.394  2.7100 -0.3124  0.7368
  997WAT     H2 5794  -2.867   9.825   5.497 -1.1645  0.5774  0.3462
  997WAT    EPW 5795  -2.858   9.908   5.474  0.2438  0.3781  0.1025
  998WAT      O 5796  -1.874   0.056   5.179  0.8433  0.3643 -0.2369
  998WAT     H1 5797  -1.836   0.026   5.262  0.3442  0.4547  0.0276
  998WAT     H2 5798  -1.808   0.032   5.113  0.1624 -2.0361 -0.1500
  998WAT    EPW 5799  -1.860   0.049   5.181  0.6877  0.0596 -0.1905
  999WAT      O 5800   2.524   0.969   3.580  0.3032  0.7397 -0.8840
  999WAT     H1 5801   2.455   1.033   3.595 -0.3527 -0.2637  0.7501
  999WAT     H2 5802   2.562   0.993   3.496 -0.0354  3.1324 -0.4280
  999WAT    EPW 5803   2.520   0.981   3.571  0.1719  0.9230 -0.6083
 1000WAT      O 5804  -0.128   0.496   6.308 -0.7835  0.7470 -0.3050
 1000WAT     H1 5805  -0.111   0.431   6.376 -0.9813  0.8450 -0.1621
 1000WAT     H2 5806  -0.212   0.535   6.332 -0.2412  1.7030  0.1260
 1000WAT    EPW 5807  -0.136   0.493   6.320 -0.7381  0.8860 -0.2294
 1001WAT      O 5808   6.832   0.680   2.610  0.1626  0.1637  0.4504
 1001WAT     H1 5809   6.849   0.620   2.683 -1.1523  1.6443  2.0527
 1001WAT     H2 5810   6.909   0.671   2.554  2.2012  0.4051  3.0271
 1001WAT    EPW 5811   6.845   0.671   2.612  0.2580  0.3908  1.0016
 1002WAT      O 5812   3.230   7.433   0.857  0.3510  0.3428  0.7101
 1002WAT     H1 5813   3.277   7.513   0.878  0.6601  0.4995 -0.4924
 1002WAT     H2 5814   3.278   7.396   0.783 -0.3226 -0.4765  0.6685
 1002WAT    EPW 5815   3.242   7.439   0.850  0.3029  0.2553  0.5460
 1003WAT      O 5816   2.453   9.908   0.171  0.5382  0.0010  0.2912
 1003WAT     H1 5817   2.442  10.002   0.156 -0.6540 -0.2449 -0.4510
 1003WAT     H2 5818   2.420   9.867   0.092 -0.5071 -1.1159  1.2744
 1003WAT    EPW 5819   2.447   9.915   0.159  0.2431 -0.1788  0.3230
 1004WAT      O 5820   2.527   0.426   3.497 -0.5886 -0.4910  0.2346
 1004WAT     H1 5821   2.588   0.353   3.505 -0.4412 -0.5536 -1.2968
 1004WAT     H2 5822   2.440   0.386   3.504 -0.4981 -0.5649  1.1130
 1004WAT    EPW 5823   2.524   0.411   3.499 -0.5573 -0.5090  0.1484
 1005WAT      O 5824  -5.793   6.320   7.496  0.7980 -0.3671 -0.2458
 1005WAT     H1 5825  -5.704   6.291   7.477  0.8764  0.1607 -0.7473
 1005WAT     H2 5826  -5.786   6.364   7.580  0.6448 -1.8979  0.5909
 1005WAT    EPW 5827  -5.780   6.322   7.504  0.7882 -0.4995 -0.2015
 1006WAT      O 5828   1.200   4.138   4.938 -0.4085  0.3548 -0.4608
 1006WAT     H1 5829   1.219   4.118   5.030  1.6130  0.9485 -0.6981
 1006WAT     H2 5830   1.140   4.213   4.942  1.1754  1.6662  0.4391
 1006WAT    EPW 5831   1.195   4.145   4.951  0.0670  0.6061 -0.3734
 1007WAT      O 5832   5.439   0.076   3.404  0.0357 -0.8922 -0.0488
 1007WAT     H1 5833   5.360   0.073   3.457  0.4402 -1.0180  0.5525
 1007WAT     H2 5834   5.497   0.009   3.441  1.2106  0.5247  0.8159
 1007WAT    EPW 5835   5.436   0.067   3.416  0.2439 -0.7219  0.1445
 1008WAT      O 5836  -1.762   5.892   0.809  0.0655 -0.9299 -0.0742
 1008WAT     H1 5837  -1.798   5.928   0.890  0.9643 -1.6814  0.6685
 1008WAT     H2 5838  -1.670   5.876   0.828  0.8231  0.8257 -1.8986
 1008WAT    EPW 5839  -1.755   5.895   0.822  0.2839 -0.7975 -0.2169
 1009WAT      O 5840  -0.184   1.943   0.587  0.6801  0.1825  0.2554
 1009WAT     H1 5841  -0.161   1.868   0.643 -0.0294 -0.4382 -0.2547
 1009WAT     H2 5842  -0.204   1.903   0.502  2.1804  1.1513 -0.5871
 1009WAT    EPW 5843  -0.184   1.928   0.583  0.7844  0.2284  0.0770
 1010WAT      O 5844   8.376   3.152   1.684  0.7172  0.2910  0.5108
 1010WAT     H1 5845   8.342   3.233   1.722  0.4676  0.4768 -0.0991
 1010WAT     H2 5846   8.465   3.173   1.655 -0.3125  1.2444 -2.3250
 1010WAT    EPW 5847   8.383   3.165   1.685  0.5484  0.4413  0.0563
 1011WAT      O 5848   1.763   7.883   4.115  0.2672  0.3988  0.2493
 1011WAT     H1 5849   1.708   7.951   4.155  2.2143 -0.3724  4.8085
 1011WAT     H2 5850   1.702   7.812   4.095 -1.0318  1.4161  0.4528
 1011WAT    EPW 5851   1.747   7.882   4.117  0.3527  0.4313  0.8774
 1012WAT      O 5852  -5.107  10.258   3.062 -0.2087 -0.1298 -0.0869
 1012WAT     H1 5853  -5.111  10.162   3.059  0.9867 -0.3045  1.9546
 1012WAT     H2 5854  -5.198  10.286   3.070 -0.4626 -1.2170  1.0822
 1012WAT    EPW 5855  -5.119  10.249   3.063 -0.0846 -0.2971  0.3365
 1013WAT      O 5856   1.950   3.261   2.689  0.7930  0.9992  0.1513
 1013WAT     H1 5857   1.942   3.341   2.740  1.0746  1.3050 -0.2829
 1013WAT     H2 5858   1.922   3.192   2.749  2.1011  1.2370  1.0896
 1013WAT    EPW 5859   1.945   3.262   2.704  1.0027  1.0709  0.2178
 1014WAT      O 5860  -2.975   7.379   6.060  0.3594 -0.8446 -0.4946
 1014WAT     H1 5861  -2.985   7.434   6.138  1.2389  0.1447 -1.0618
 1014WAT     H2 5862  -2.911   7.313   6.086 -1.1101 -2.0045  0.3717
 1014WAT    EPW 5863  -2.968   7.377   6.074  0.2816 -0.8671 -0.4551
 1015WAT      O 5864  -3.882   9.299   6.637 -0.3466  0.3164  0.1331
 1015WAT     H1 5865  -3.793   9.265   6.624  0.0552  1.8910 -1.8679
 1015WAT     H2 5866  -3.929   9.272   6.558 -0.7101  2.1048 -0.3174
 1015WAT    EPW 5867  -3.876   9.291   6.625 -0.3417  0.7606 -0.1903
 1016WAT      O 5868   3.209   4.091   5.929 -0.0509  0.1510 -0.4166
 1016WAT     H1 5869   3.259   4.108   5.850 -0.0346  5.0318  0.3491
 1016WAT     H2 5870   3.120   4.118   5.908 -0.3069  0.3643  0.8481
 1016WAT    EPW 5871   3.204   4.096   5.916 -0.0826  0.8228 -0.1488
 1017WAT      O 5872  -6.603   8.822   7.167  0.5542  0.5733 -0.4713
 1017WAT     H1 5873  -6.510   8.807   7.186  0.8163  2.4712 -0.0976
 1017WAT     H2 5874  -6.607   8.913   7.138 -1.1136  0.3223 -1.1129
 1017WAT    EPW 5875  -6.591   8.832   7.165  0.3688  0.7901 -0.5064
 1018WAT      O 5876  -1.917   4.499   6.680 -0.2996  0.0771  0.0535
 1018WAT     H1 5877  -1.923   4.416   6.727 -1.3060 -1.2513 -2.2597
 1018WAT     H2 5878  -2.000   4.544   6.700  0.3544  0.7269  1.5160
 1018WAT    EPW 5879  -1.929   4.494   6.689 -0.3461 -0.0126 -0.0589
 1019WAT      O 5880   4.959   7.783   5.125  0.5773  0.5447  0.2910
 1019WAT     H1 5881   5.024   7.844   5.090  0.2247  0.3455 -0.7332
 1019WAT     H2 5882   4.957   7.711   5.063 -1.5610  1.1601 -0.4547
 1019WAT    EPW 5883   4.967   7.782   5.112  0.2489  0.5994  0.0577
 1020WAT      O 5884   6.788   3.118   0.962 -0.2135  0.3438 -0.0520
 1020WAT     H1 5885   6.842   3.198   0.960 -0.4594  0.5340 -3.1090
 1020WAT     H2 5886   6.725   3.134   1.033  2.4084  0.9299  2.3487
 1020WAT    EPW 5887   6.787   3.131   0.971  0.0999  0.4462 -0.1386
 1021WAT      O 5888   3.276   8.272   0.721  0.8540 -0.3773 -0.2497
 1021WAT     H1 5889   3.268   8.217   0.799  0.2972  0.3645  0.2352
 1021WAT     H2 5890   3.368   8.297   0.718  1.2768 -1.8731 -0.8728
 1021WAT    EPW 5891   3.287   8.268   0.731  0.8363 -0.4768 -0.2680
 1022WAT      O 5892  -1.377   9.090   2.822 -0.5129 -0.0315 -0.3249
 1022WAT     H1 5893  -1.457   9.038   2.834  0.6667 -1.2199  4.0339
 1022WAT     H2 5894  -1.407   9.181   2.824 -1.9113 -0.4673 -0.4892
 1022WAT    EPW 5895  -1.391   9.095   2.824 -0.5417 -0.2456  0.2284
 1023WAT      O 5896   0.233   4.594   7.266 -0.1188  0.0154 -0.2624
 1023WAT     H1 5897   0.186   4.674   7.241  0.0374  0.3662  0.5408
 1023WAT     H2 5898   0.285   4.619   7.343  2.7273  0.1064 -2.0729
 1023WAT    EPW 5899   0.234   4.608   7.273  0.2772  0.0737 -0.3953
 1024WAT      O 5900   0.012   9.660   7.559 -0.4664  0.5478 -0.5580
 1024WAT     H1 5901  -0.030   9.689   7.478  0.0925  1.6428 -0.4699
 1024WAT     H2 5902   0.105   9.681   7.546 -0.3184  0.4039  0.2236
 1024WAT    EPW 5903   0.019   9.666   7.546 -0.3731  0.6728 -0.4432
 1025WAT      O 5904  -1.908   9.930   5.059  0.7194 -0.0119 -0.1119
 1025WAT     H1 5905  -1.880   9.889   4.977  1.6823  1.1247 -0.3680
 1025WAT     H2 5906  -1.827   9.954   5.104  0.1975 -0.1211  0.9399
 1025WAT    EPW 5907  -1.894   9.928   5.054  0.7776  0.1235 -0.0069
 1026WAT      O 5908  -1.169   2.941   8.857 -0.1597  0.5737 -0.2588
 1026WAT     H1 5909  -1.238   2.953   8.922  0.1070  0.1731  0.1020
 1026WAT     H2 5910  -1.195   2.997   8.784 -0.8292  0.4802 -0.0990
 1026WAT    EPW 5911  -1.182   2.950   8.856 -0.2128  0.5085 -0.1903
 1027WAT      O 5912  -1.086   9.110   7.039  0.2608  0.3443  0.0212
 1027WAT     H1 5913  -1.175   9.085   7.062  1.0349 -0.8392  2.0936
 1027WAT     H2 5914  -1.095   9.175   6.970 -2.1227 -1.3687 -1.4128
 1027WAT    EPW 5915  -1.099   9.115   7.033  0.0485 -0.0381  0.1054
 1028WAT      O 5916  -0.849   5.490   4.421 -0.0306 -0.3124 -0.7361
 1028WAT     H1 5917  -0.779   5.427   4.401  0.9719  0.6277 -0.3258
 1028WAT     H2 5918  -0.804   5.562   4.466 -1.1506  0.6778 -1.1439
 1028WAT    EPW 5919  -0.834   5.491   4.424 -0.0461 -0.0577 -0.7358
 1029WAT      O 5920  -1.084   0.886   3.730 -0.3384  0.3125 -0.0345
 1029WAT     H1 5921  -1.157   0.914   3.675 -0.7162 -0.6124 -0.0104
 1029WAT     H2 5922  -1.073   0.959   3.792 -3.5750 -0.9164  2.2870
 1029WAT    EPW 5923  -1.092   0.899   3.731 -0.8152  0.0284  0.2748
 1030WAT      O 5924   7.571   2.723   3.999 -0.9555  0.6212  0.1354
 1030WAT     H1 5925   7.537   2.634   4.008  1.2096 -0.8178 -3.5819
 1030WAT     H2 5926   7.498   2.774   3.964 -1.5875 -0.3006  0.0850
 1030WAT    EPW 5927   7.557   2.718   3.995 -0.7534  0.3098 -0.3616
 1031WAT      O 5928   3.964  10.024   1.918 -0.3360  0.3259  0.0164
 1031WAT     H1 5929   3.872  10.019   1.941  0.0072  0.7936  1.5954
 1031WAT     H2 5930   3.967  10.079   1.839 -1.4664 -0.5315 -0.6576
 1031WAT    EPW 5931   3.953  10.031   1.910 -0.4399  0.2747  0.1358
 1032WAT      O 5932   0.139   7.073   8.830 -0.4318 -0.6429  0.1803
 1032WAT     H1 5933   0.046   7.081   8.849 -0.9184 -0.1135 -2.0724
 1032WAT     H2 5934   0.143   7.029   8.745  1.2566  0.9069 -0.6390
 1032WAT    EPW 5935   0.128   7.068   8.821 -0.2733 -0.3686 -0.2251
 1033WAT      O 5936  -3.956   9.727   6.612  0.4191 -0.1350  0.0562
 1033WAT     H1 5937  -3.937   9.806   6.663  0.0663 -0.5798  0.9123
 1033WAT     H2 5938  -3.889   9.665   6.639 -1.8019 -1.5809  2.7863
 1033WAT    EPW 5939  -3.945   9.729   6.623  0.0798 -0.3843  0.5293
 1034WAT      O 5940   6.763   0.847   0.856 -0.5931 -0.4410 -0.0879
 1034WAT     H1 5941   6.822   0.873   0.785  1.2748  0.3069  1.6287
 1034WAT     H2 5942   6.684   0.898   0.842 -0.3180 -0.4191 -1.6941
 1034WAT    EPW 5943   6.760   0.857   0.845 -0.3104 -0.3394 -0.0733
 1035WAT      O 5944  -2.611   9.207   3.451  0.6883 -0.4404 -0.0006
 1035WAT     H1 5945  -2.654   9.132   3.492 -1.6992  0.8647  0.0631
 1035WAT     H2 5946  -2.683   9.260   3.418  2.3446  1.3973 -0.8211
 1035WAT    EPW 5947  -2.626   9.204   3.452  0.5919 -0.0257 -0.1005
 1036WAT      O 5948  -2.336   2.228   6.948 -0.5019 -0.6181 -0.2151
 1036WAT     H1 5949  -2.279   2.302   6.928 -2.4527  0.5507 -1.8330
 1036WAT     H2 5950  -2.389   2.257   7.022 -0.5160 -0.8393 -0.1365
 1036WAT    EPW 5951  -2.335   2.241   6.955 -0.7610 -0.4932 -0.4179
 1037WAT      O 5952  -0.333   5.921   1.985  0.2095  0.5308 -0.9914
 1037WAT     H1 5953  -0.267   5.852   1.990 -1.0200 -0.6055  0.0812
 1037WAT     H2 5954  -0.411   5.883   2.025 -0.1043  3.0204  1.0373
 1037WAT    EPW 5955  -0.334   5.907   1.991  0.0060  0.7093 -0.5823
 1038WAT      O 5956   4.230   1.289   5.481 -0.7760 -0.0568  0.0463
 1038WAT     H1 5957   4.284   1.350   5.429 -0.3497  1.3545  2.0119
 1038WAT     H2 5958   4.148   1.335   5.494  0.1288  0.9602  2.9463
 1038WAT    EPW 5959   4.226   1.303   5.476 -0.6006  0.2635  0.6883
 1039WAT      O 5960   1.369   4.303   3.038  0.3311 -0.4886 -0.0200
 1039WAT     H1 5961   1.418   4.223   3.020 -2.3287 -2.7705  1.8878
 1039WAT     H2 5962   1.298   4.302   2.974  0.2657  0.3240  0.0338
 1039WAT    EPW 5963   1.366   4.292   3.028 -0.0284 -0.6824  0.2388
 1040WAT      O 5964   5.810   7.413   3.604 -0.0582 -1.1836  0.1777
 1040WAT     H1 5965   5.881   7.384   3.662  0.5170 -0.5740 -0.2038
 1040WAT     H2 5966   5.751   7.338   3.600 -0.1551 -1.2063  1.6074
 1040WAT    EPW 5967   5.812   7.399   3.611  0.0048 -1.1060  0.3159
 1041WAT      O 5968   4.795   7.945   3.502  0.0386  0.0034 -0.5551
 1041WAT     H1 5969   4.873   7.989   3.536  0.3906  0.7905 -2.2663
 1041WAT     H2 5970   4.725   7.971   3.561  0.8703  0.1517  0.3861
 1041WAT    EPW 5971   4.796   7.954   3.514  0.1945  0.1268 -0.6566
 1042WAT      O 5972   1.697   4.250   1.605 -0.2828 -0.4552  0.0740
 1042WAT     H1 5973   1.638   4.306   1.656 -0.4858  1.0667 -1.7467
 1042WAT     H2 5974   1.641   4.207   1.541  0.0656 -1.8688  0.6777
 1042WAT    EPW 5975   1.682   4.252   1.604 -0.2636 -0.4408 -0.0865
 1043WAT      O 5976   4.079   0.601   3.821  0.2977 -0.1334  0.0743
 1043WAT     H1 5977   4.049   0.621   3.910  0.9816 -2.1912  0.8387
 1043WAT     H2 5978   4.022   0.530   3.792 -1.1299  1.6847 -1.9461
 1043WAT    EPW 5979   4.067   0.594   3.829  0.1996 -0.1650 -0.0913
 1044WAT      O 5980   2.183   2.611   3.219  0.1155 -0.0149  0.3278
 1044WAT     H1 5981   2.091   2.587   3.209  0.5963 -1.8132 -0.1447
 1044WAT     H2 5982   2.218   2.610   3.130  0.5121  1.1229  0.4477
 1044WAT    EPW 5983   2.176   2.608   3.206  0.2313 -0.1020  0.2812
 1045WAT      O 5984   5.186   5.329   5.909  0.4288 -0.7412 -0.1673
 1045WAT     H1 5985   5.138   5.380   5.844 -0.5849 -0.6443  0.6457
 1045WAT     H2 5986   5.234   5.394   5.961 -0.9190 -0.5774  0.9148
 1045WAT    EPW 5987   5.186   5.344   5.907  0.1171 -0.7069  0.0827
 1046WAT      O 5988  -1.663   5.239   3.084 -0.2508  0.4492  0.5683
 1046WAT     H1 5989  -1.626   5.210   3.000  0.3524  2.0893  0.2261
 1046WAT     H2 5990  -1.586   5.260   3.137 -0.3684 -3.9592  2.9940
 1046WAT    EPW 5991  -1.648   5.238   3.080 -0.1868  0.0842  0.8432
 1047WAT      O 5992   1.360   1.314   3.267 -0.1679  0.2499 -0.3902
 1047WAT     H1 5993   1.268   1.298   3.288 -0.8534  1.2542 -2.4010
 1047WAT     H2 5994   1.380   1.252   3.197 -0.1000  1.6614 -1.6765
 1047WAT    EPW 5995   1.350   1.304   3.261 -0.2493  0.5685 -0.8250
 1048WAT      O 5996  -3.413   7.841   1.611  0.2704 -0.0644  0.6991
 1048WAT     H1 5997  -3.441   7.907   1.675  0.8716 -0.1119  1.0212
 1048WAT     H2 5998  -3.408   7.760   1.661  0.2558 -0.2056  0.4739
 1048WAT    EPW 5999  -3.416   7.839   1.626  0.3477 -0.0892  0.7119
 1049WAT      O 6000  -0.554   8.483   6.312  0.1791 -0.2470  0.3559
 1049WAT     H1 6001  -0.475   8.487   6.366  0.4132 -0.6482  0.0445
 1049WAT     H2 6002  -0.523   8.501   6.223 -0.5180  2.7686  0.6164
 1049WAT    EPW 6003  -0.539   8.486   6.307  0.1180  0.0978  0.3490
 1050WAT      O 6004  -6.232   9.678   6.815 -0.3089 -0.0513  0.6720
 1050WAT     H1 6005  -6.294   9.743   6.781  1.5380  2.0555  1.0607
 1050WAT     H2 6006  -6.223   9.700   6.907  1.3314 -0.0093  0.5262
 1050WAT    EPW 6007  -6.239   9.690   6.822  0.1512  0.2322  0.7041
 1051WAT      O 6008   8.818   1.468   0.231  0.1191 -0.3142 -0.0500
 1051WAT     H1 6009   8.727   1.488   0.206  0.3007 -2.0279 -2.5753
 1051WAT     H2 6010   8.868   1.545   0.205 -0.5415  0.4790  0.9784
 1051WAT    EPW 6011   8.812   1.480   0.224  0.0558 -0.4356 -0.2474
 1052WAT      O 6012  -2.022   0.211   6.628 -0.3692  0.0518 -0.3204
 1052WAT     H1 6013  -2.077   0.288   6.640 -0.1188  0.0873  0.6301
 1052WAT     H2 6014  -2.062   0.165   6.553 -1.4185  0.3078  0.0655
 1052WAT    EPW 6015  -2.035   0.215   6.620 -0.4746  0.0903 -0.1442
 1053WAT      O 6016  -5.338   8.858   6.619 -0.1358  1.2397  0.3341
 1053WAT     H1 6017  -5.260   8.834   6.669  0.4397 -1.7041 -1.6793
 1053WAT     H2 6018  -5.405   8.872   6.685  1.4167  1.0287  2.0424
 1053WAT    EPW 6019  -5.336   8.856   6.634  0.1450  0.8240  0.2942
 1054WAT      O 6020  -3.943   9.296   3.227  0.4517  0.1657  0.1906
 1054WAT     H1 6021  -3.857   9.279   3.187 -0.5039 -0.0138 -1.9181
 1054WAT     H2 6022  -3.939   9.253   3.312  2.2784 -0.2542 -0.0640
 1054WAT    EPW 6023  -3.931   9.288   3.233  0.5666  0.0863 -0.1209
 1055WAT      O 6024   0.470   8.584   5.148  0.1529 -0.5034  0.0178
 1055WAT     H1 6025   0.437   8.520   5.213  0.0080 -0.2406  0.2070
 1055WAT     H2 6026   0.565   8.572   5.149  0.1238 -0.7403  0.0301
 1055WAT    EPW 6027   0.478   8.574   5.157  0.1300 -0.4997  0.0443
 1056WAT      O 6028  -0.156   0.548   7.092 -0.1772  0.1193  0.7359
 1056WAT     H1 6029  -0.065   0.564   7.118 -0.2324 -0.3668  1.2471
 1056WAT     H2 6030  -0.152   0.468   7.040 -0.3165  0.0962  0.7614
 1056WAT    EPW 6031  -0.143   0.540   7.088 -0.2029  0.0522  0.8068
 1057WAT      O 6032  -0.483   7.138   4.082 -0.1580  0.1352 -0.3646
 1057WAT     H1 6033  -0.561   7.119   4.030 -0.6630  1.9973 -0.3522
 1057WAT     H2 6034  -0.495   7.228   4.112  2.5674  0.9617 -1.4351
 1057WAT    EPW 6035  -0.495   7.147   4.079  0.1349  0.4897 -0.5043
 1058WAT      O 6036  -3.920   7.808   2.321  0.2124 -0.8694  0.3858
 1058WAT     H1 6037  -3.919   7.713   2.318  2.8378 -0.9025  0.0611
 1058WAT     H2 6038  -3.907   7.829   2.414  2.6684 -0.9164  0.1006
 1058WAT    EPW 6039  -3.918   7.798   2.333  0.8825 -0.8800  0.3054
 1059WAT      O 6040  -1.978   8.362   4.439 -0.2384  0.0484  0.6411
 1059WAT     H1 6041  -2.027   8.398   4.512  0.7603 -0.3912  1.5536
 1059WAT     H2 6042  -1.916   8.431   4.414 -0.7548  0.2963  0.0351
 1059WAT    EPW 6043  -1.976   8.375   4.445 -0.1748  0.0224  0.6814
 1060WAT      O 6044  -0.797   7.947   0.112  0.2801 -0.4215 -0.9100
 1060WAT     H1 6045  -0.769   8.038   0.124  0.9699 -0.6365 -0.8173
 1060WAT     H2 6046  -0.731   7.896   0.159  1.5503 -1.1388 -3.2837
 1060WAT    EPW 6047  -0.785   7.953   0.120  0.5386 -0.5443 -1.2108
 1061WAT      O 6048   6.035   4.637   3.818 -0.1208 -0.2590  0.4341
 1061WAT     H1 6049   5.952   4.590   3.821 -1.0168  1.2753  1.5393
 1061WAT     H2 6050   6.036   4.687   3.900  1.6295  0.2198  0.1569
 1061WAT    EPW 6051   6.024   4.637   3.829 -0.0083  0.0067  0.5434
 1062WAT      O 6052   3.708   5.437   0.928  0.6603 -0.1017  0.3682
 1062WAT     H1 6053   3.630   5.384   0.945 -0.5585  1.6313  0.4186
 1062WAT     H2 6054   3.780   5.386   0.966 -0.2964 -2.1369 -0.4105
 1062WAT    EPW 6055   3.707   5.423   0.935  0.3734 -0.1416  0.2721
 1063WAT      O 6056   5.327   9.032   0.715 -0.2235 -0.0876  0.3379
 1063WAT     H1 6057   5.240   8.993   0.701  0.0288 -0.1063 -1.4746
 1063WAT     H2 6058   5.383   8.958   0.739 -0.5207 -0.2190  0.6321
 1063WAT    EPW 6059   5.323   9.017   0.716 -0.2294 -0.1073  0.1376
 1064WAT      O 6060  -0.548   4.452   2.739 -0.1359  0.1758  0.3123
 1064WAT     H1 6061  -0.456   4.477   2.740  0.0221 -0.1272 -1.7082
 1064WAT     H2 6062  -0.553   4.374   2.794  0.6152  0.7115  1.1765
 1064WAT    EPW 6063  -0.537   4.445   2.746 -0.0160  0.2065  0.1599
 1065WAT      O 6064   6.910   2.912   0.723 -0.1272  0.3426 -0.1633
 1065WAT     H1 6065   6.928   2.840   0.663 -2.6115 -1.9137  1.5591
 1065WAT     H2 6066   6.814   2.916   0.727 -0.0449  1.8635  1.9232
 1065WAT    EPW 6067   6.899   2.903   0.716 -0.4437  0.2456  0.3391
 1066WAT      O 6068  -0.707   3.342   3.310 -0.3010  0.1538  0.5767
 1066WAT     H1 6069  -0.637   3.386   3.358  0.1062 -1.2664  1.3290
 1066WAT     H2 6070  -0.744   3.411   3.255  1.5207  1.0040  0.3205
 1066WAT    EPW 6071  -0.703   3.357   3.309 -0.0070  0.0786  0.6422
 1067WAT      O 6072  -0.874   0.165   7.118 -0.0828  0.5646  0.3153
 1067WAT     H1 6073  -0.891   0.071   7.111  2.2962 -0.1187  2.3255
 1067WAT     H2 6074  -0.905   0.201   7.034 -2.0858 -1.7798 -0.0794
 1067WAT    EPW 6075  -0.881   0.158   7.106 -0.0333  0.1653  0.5283
 1068WAT      O 6076   4.656   5.189   2.096 -0.4047 -0.3635  0.0775
 1068WAT     H1 6077   4.603   5.246   2.151  1.6292  0.4875  1.2733
 1068WAT     H2 6078   4.653   5.229   2.009  1.3537  1.9403  0.9910
 1068WAT    EPW 6079   4.648   5.202   2.091  0.0956  0.0527  0.3557
 1069WAT      O 6080   6.196   5.830   1.631 -0.2146  0.4092  0.1829
 1069WAT     H1 6081   6.215   5.906   1.687 -1.1575  0.4588  0.4552
 1069WAT     H2 6082   6.271   5.772   1.644 -0.8922 -0.0561  2.3494
 1069WAT    EPW 6083   6.209   5.833   1.640 -0.4284  0.3545  0.5046
 1070WAT      O 6084   1.772   2.301   1.393 -0.1582  0.3230 -0.2626
 1070WAT     H1 6085   1.833   2.268   1.327 -1.9138 -1.4863 -1.0725
 1070WAT     H2 6086   1.788   2.245   1.469  2.0171  2.5393  1.0716
 1070WAT    EPW 6087   1.782   2.289   1.395 -0.1028  0.3766 -0.1934
 1071WAT      O 6088   1.354   4.929   8.950  0.1130  0.2017  0.0386
 1071WAT     H1 6089   1.377   5.022   8.952 -0.7202  0.4684 -1.2145
 1071WAT     H2 6090   1.270   4.924   8.995 -1.0457  0.4914 -1.9631
 1071WAT    EPW 6091   1.346   4.940   8.956 -0.1497  0.2751 -0.3905
 1072WAT      O 6092   2.505   5.098   2.576  0.4578 -0.3739  0.7968
 1072WAT     H1 6093   2.569   5.039   2.538  1.5170  1.4110 -0.3203
 1072WAT     H2 6094   2.420   5.063   2.548  1.1533  0.8978 -3.5580
 1072WAT    EPW 6095   2.502   5.086   2.567  0.6893  0.0291  0.0752
 1073WAT      O 6096   3.274   1.418   4.073  0.0273 -0.9584 -0.2523
 1073WAT     H1 6097   3.273   1.391   4.165 -0.2552  0.3663  0.1497
 1073WAT     H2 6098   3.367   1.428   4.053  0.0699  1.5733  0.8005
 1073WAT    EPW 6099   3.286   1.416   4.083 -0.0043 -0.4498 -0.0606
 1074WAT      O 6100  -1.987   1.603   5.132 -0.1870 -0.0043  1.0045
 1074WAT     H1 6101  -1.905   1.568   5.167  0.9653  1.8916  0.3309
 1074WAT     H2 6102  -2.053   1.576   5.196  0.7400 -2.4555  1.0450
 1074WAT    EPW 6103  -1.985   1.594   5.145  0.0873 -0.0775  0.9210
 1075WAT      O 6104   0.535   1.162   7.008  0.5824  0.3176 -0.0799
 1075WAT     H1 6105   0.564   1.242   7.053 -0.0059  1.2749 -1.3585
 1075WAT     H2 6106   0.534   1.185   6.915 -1.5809 -0.5250 -0.3286
 1075WAT    EPW 6107   0.539   1.176   7.002  0.2195  0.3327 -0.2811
 1076WAT      O 6108   4.010   1.641   2.033  0.2734 -0.0788 -0.2624
 1076WAT     H1 6109   3.979   1.707   1.972  1.2972  0.5789 -0.0899
 1076WAT     H2 6110   4.075   1.686   2.087  3.5185 -1.9828 -2.2658
 1076WAT    EPW 6111   4.015   1.656   2.032  0.8364 -0.2432 -0.5039
 1077WAT      O 6112   1.222   0.884   1.773  0.3865 -0.2389 -0.1334
 1077WAT     H1 6113   1.140   0.880   1.724 -0.5839 -0.2464  1.4151
 1077WAT     H2 6114   1.289   0.852   1.712 -0.8877 -1.0021 -1.1722
 1077WAT    EPW 6115   1.220   0.879   1.758  0.0904 -0.3406 -0.0662
 1078WAT      O 6116   4.745   4.726   0.338  0.4912  0.3929  0.6396
 1078WAT     H1 6117   4.818   4.746   0.397 -0.3045  1.8608  1.1692
 1078WAT     H2 6118   4.674   4.783   0.368  0.7073  2.9136 -3.0921
 1078WAT    EPW 6119   4.745   4.736   0.350  0.4148  0.9189  0.2173
 1079WAT      O 6120   4.764   3.227   6.457 -0.0727  0.8925  0.4043
 1079WAT     H1 6121   4.676   3.190   6.447 -0.7876  2.9761 -2.2263
 1079WAT     H2 6122   4.761   3.272   6.542  0.2469 -3.1450  2.8037
 1079WAT    EPW 6123   4.752   3.228   6.467 -0.1249  0.6348  0.3738
 1080WAT      O 6124  -6.173   8.861   5.066 -0.5769  0.2959  0.3506
 1080WAT     H1 6125  -6.242   8.798   5.047 -0.0097 -0.3332  0.3249
 1080WAT     H2 6126  -6.171   8.919   4.990  2.3656 -2.8017 -2.2673
 1080WAT    EPW 6127  -6.182   8.861   5.054 -0.1140 -0.1955  0.0019
 1081WAT      O 6128   2.251   3.295   8.154 -0.7929  0.1411  0.6656
 1081WAT     H1 6129   2.295   3.379   8.160 -0.3161 -0.1149  0.7479
 1081WAT     H2 6130   2.166   3.310   8.196 -0.0590  0.1449  2.2084
 1081WAT    EPW 6131   2.245   3.308   8.161 -0.6332  0.1078  0.8798
 1082WAT      O 6132   2.317   9.873   0.713 -0.2925 -0.1012 -0.2181
 1082WAT     H1 6133   2.260   9.917   0.776 -0.4400 -1.3253  0.5283
 1082WAT     H2 6134   2.406   9.897   0.741 -0.2921 -1.7434  1.3519
 1082WAT    EPW 6135   2.321   9.882   0.725 -0.3120 -0.4797  0.0874
 1083WAT      O 6136  -1.852   7.715   0.179  0.3401  0.1766  0.0807
 1083WAT     H1 6137  -1.838   7.742   0.088 -0.2867  1.3543  0.3099
 1083WAT     H2 6138  -1.933   7.760   0.205 -2.0079 -3.5241 -0.1130
 1083WAT    EPW 6139  -1.861   7.724   0.170 -0.0523 -0.1562  0.0853
 1084WAT      O 6140   8.804   5.823   0.160  0.4762 -0.2192 -0.0139
 1084WAT     H1 6141   8.836   5.912   0.149  1.0284 -0.4329 -0.2158
 1084WAT     H2 6142   8.834   5.777   0.081 -2.7912  0.2277 -1.6754
 1084WAT    EPW 6143   8.812   5.828   0.148  0.1183 -0.1884 -0.2597
 1085WAT      O 6144   3.519   7.013   2.794  1.0570 -0.2416  0.4635
 1085WAT     H1 6145   3.550   6.937   2.745 -0.8120 -1.1048  0.5344
 1085WAT     H2 6146   3.568   7.087   2.757  2.7789 -1.4123  0.2645
 1085WAT    EPW 6147   3.530   7.013   2.783  1.0376 -0.5097  0.4466
 1086WAT      O 6148   0.516   2.879   4.178  0.5340  0.0830 -0.0227
 1086WAT     H1 6149   0.529   2.896   4.272  1.2083  0.9552 -0.2595
 1086WAT     H2 6150   0.569   2.801   4.161 -1.0217 -1.1873  0.6681
 1086WAT    EPW 6151   0.525   2.871   4.189  0.4177  0.0305  0.0370
 1087WAT      O 6152  -4.964   3.749   6.943  0.0632  0.6845  0.2487
 1087WAT     H1 6153  -4.943   3.807   7.016  0.5983 -1.4579  1.9255
 1087WAT     H2 6154  -4.903   3.774   6.874  1.0358  1.3781  1.3132
 1087WAT    EPW 6155  -4.953   3.760   6.944  0.2623  0.4934  0.6104
 1088WAT      O 6156   1.383   1.958   8.377 -0.2343  0.9136  0.3157
 1088WAT     H1 6157   1.427   2.029   8.423 -1.9769  1.7860  0.6918
 1088WAT     H2 6158   1.313   1.930   8.436 -0.1378 -0.5272 -0.2040
 1088WAT    EPW 6159   1.380   1.964   8.391 -0.4514  0.8386  0.2966
 1089WAT      O 6160   2.690   9.539   3.384 -0.4274  0.2217  0.1976
 1089WAT     H1 6161   2.768   9.594   3.393 -0.0565 -0.2738  0.0406
 1089WAT     H2 6162   2.682   9.494   3.467 -2.2225  2.3964  1.3356
 1089WAT    EPW 6163   2.699   9.541   3.396 -0.6152  0.4430  0.3270
 1090WAT      O 6164   0.290   7.372   1.262 -0.2587  0.7136  0.3270
 1090WAT     H1 6165   0.233   7.359   1.337 -0.9196 -0.3888 -0.3508
 1090WAT     H2 6166   0.303   7.285   1.225  0.9014  1.0948 -0.2377
 1090WAT    EPW 6167   0.284   7.359   1.267 -0.1928  0.6185  0.1631
 1091WAT      O 6168   2.627   5.501   6.958  0.1528 -0.0589 -0.0099
 1091WAT     H1 6169   2.625   5.585   7.002  1.5519  1.4771 -2.6196
 1091WAT     H2 6170   2.707   5.458   6.990  1.2532  1.1172 -1.0473
 1091WAT    EPW 6171   2.638   5.506   6.968  0.4823  0.2987 -0.4909
 1092WAT      O 6172  -0.810   7.161   4.937 -0.0360 -0.4059 -0.8120
 1092WAT     H1 6173  -0.794   7.237   4.881 -1.6498  0.9631  0.4579
 1092WAT     H2 6174  -0.874   7.109   4.889  1.2391 -1.1226 -1.7878
 1092WAT    EPW 6175  -0.817   7.164   4.924 -0.0807 -0.3197 -0.7734
 1093WAT      O 6176   2.464   4.307   6.399  0.0972 -0.0441 -0.0330
 1093WAT     H1 6177   2.526   4.375   6.425  1.9398 -1.5582 -0.3017
 1093WAT     H2 6178   2.459   4.249   6.475 -1.2488  0.1914  0.0882
 1093WAT    EPW 6179   2.471   4.308   6.413  0.1626 -0.2131 -0.0525
 1094WAT      O 6180   2.917   9.708   2.098  0.0104  0.2569  0.1501
 1094WAT     H1 6181   2.831   9.723   2.137 -1.2310 -1.1672 -1.8412
 1094WAT     H2 6182   2.938   9.790   2.054 -0.5054  0.4841  0.3171
 1094WAT    EPW 6183   2.909   9.720   2.098 -0.2213  0.0992 -0.0906
 1095WAT      O 6184  -1.767   2.774   6.178 -0.2949  0.1672  0.4112
 1095WAT     H1 6185  -1.686   2.754   6.225  0.1223 -0.0200 -0.3825
 1095WAT     H2 6186  -1.739   2.828   6.105 -0.9722  0.6286  0.4907
 1095WAT    EPW 6187  -1.752   2.778   6.175 -0.3292  0.2034  0.3171
 1096WAT      O 6188  -1.834   1.409   8.514  0.6061 -0.0934  0.7731
 1096WAT     H1 6189  -1.856   1.340   8.452  1.2956 -0.1857  0.6214
 1096WAT     H2 6190  -1.813   1.362   8.595  1.7476 -0.1208  0.4755
 1096WAT    EPW 6191  -1.834   1.394   8.517  0.8476 -0.1091  0.7138
 1097WAT      O 6192  -2.568   8.629   3.739 -0.6187 -0.3596 -0.2176
 1097WAT     H1 6193  -2.588   8.688   3.812  0.1656 -0.2739 -0.0639
 1097WAT     H2 6194  -2.571   8.541   3.778  0.7638 -0.2628  0.1697
 1097WAT    EPW 6195  -2.571   8.625   3.754 -0.3330 -0.3357 -0.1463
 1098WAT      O 6196   6.294   7.021   2.033 -0.5064  0.1622 -0.8718
 1098WAT     H1 6197   6.312   7.033   1.940 -1.2884  0.8470 -0.9430
 1098WAT     H2 6198   6.260   6.931   2.039  2.6517 -1.1337 -0.7411
 1098WAT    EPW 6199   6.292   7.010   2.022 -0.1929  0.0815 -0.8639
 1099WAT      O 6200  -4.232   2.377   8.997  0.0825 -0.5630 -0.4334
 1099WAT     H1 6201  -4.248   2.455   8.945  1.0787 -1.4088 -2.0861
 1099WAT     H2 6202  -4.305   2.318   8.976  1.1292 -1.3856 -1.8895
 1099WAT    EPW 6203  -4.244   2.379   8.988  0.3520 -0.7832 -0.8434
 1100WAT      O 6204   2.635   2.488   6.677  0.9939 -0.1490  0.0343
 1100WAT     H1 6205   2.628   2.570   6.629  1.0110 -0.3290 -0.2833
 1100WAT     H2 6206   2.579   2.427   6.628 -1.7774  0.5221  2.1507
 1100WAT    EPW 6207   2.627   2.491   6.664  0.6306 -0.0842  0.2716
 1101WAT      O 6208   0.825   2.607   3.590  0.0760 -0.2458 -0.0470
 1101WAT     H1 6209   0.760   2.643   3.651 -0.3658 -1.4417  0.2006
 1101WAT     H2 6210   0.908   2.644   3.620 -0.5294  1.8831 -0.7996
 1101WAT    EPW 6211   0.827   2.617   3.602 -0.0621 -0.1228 -0.1136
 1102WAT      O 6212  -0.188   4.147   8.417  0.5943 -0.5771  0.4134
 1102WAT     H1 6213  -0.106   4.162   8.370  0.9688  2.7045  1.8592
 1102WAT     H2 6214  -0.256   4.168   8.353  0.9183 -1.5416 -0.2581
 1102WAT    EPW 6215  -0.186   4.152   8.402  0.6864 -0.2716  0.5159
 1103WAT      O 6216   4.251   0.652   2.684  0.0851  0.2678  0.9596
 1103WAT     H1 6217   4.214   0.587   2.623 -0.4295  0.7953  0.7045
 1103WAT     H2 6218   4.220   0.624   2.770  0.6361 -0.3583  0.9617
 1103WAT    EPW 6219   4.242   0.639   2.687  0.0899  0.2548  0.9263
 1104WAT      O 6220   3.396   0.911   0.575 -0.3436  0.0235 -0.3738
 1104WAT     H1 6221   3.316   0.888   0.623 -0.0989 -1.7374 -0.7231
 1104WAT     H2 6222   3.462   0.922   0.643 -0.5111 -0.1873 -0.1740
 1104WAT    EPW 6223   3.394   0.909   0.590 -0.3334 -0.2366 -0.3935
 1105WAT      O 6224  -3.736   7.902   4.988 -0.9469 -1.1038  0.2714
 1105WAT     H1 6225  -3.656   7.892   5.040 -1.1234 -0.5729  0.6608
 1105WAT     H2 6226  -3.714   7.969   4.924 -1.9827  1.4491  2.3588
 1105WAT    EPW 6227  -3.723   7.910   4.987 -1.1067 -0.6971  0.5980
 1106WAT      O 6228   0.554   5.332   2.547 -0.5256  0.1804  0.1005
 1106WAT     H1 6229   0.596   5.252   2.579  0.8698  0.1836 -1.5781
 1106WAT     H2 6230   0.596   5.349   2.463 -0.9460  2.5763  0.3036
 1106WAT    EPW 6231   0.565   5.323   2.540 -0.3970  0.4969 -0.0941
 1107WAT      O 6232  -2.665   1.299   8.666  0.1256  0.2173  0.0110
 1107WAT     H1 6233  -2.735   1.327   8.725 -0.3212  2.2088 -1.3548
 1107WAT     H2 6234  -2.588   1.290   8.722  0.0962  3.4719  0.7812
 1107WAT    EPW 6235  -2.664   1.302   8.681  0.0627  0.9093 -0.0677
 1108WAT      O 6236   4.629   3.204   0.371  0.0516  0.0574  0.1413
 1108WAT     H1 6237   4.580   3.226   0.292 -0.8868  0.2160  0.7529
 1108WAT     H2 6238   4.718   3.236   0.354 -0.2818  0.6055 -0.6178
 1108WAT    EPW 6239   4.635   3.211   0.359 -0.1161  0.1507  0.1219
 1109WAT      O 6240   5.642   0.114   0.730 -0.1433  0.1150 -0.0462
 1109WAT     H1 6241   5.601   0.104   0.817  0.0737 -0.2144  0.0187
 1109WAT     H2 6242   5.573   0.089   0.669 -0.0750 -0.3347  0.0596
 1109WAT    EPW 6243   5.627   0.109   0.734 -0.1059  0.0122 -0.0237
 1110WAT      O 6244   3.600   7.965   5.011 -0.7383  0.1257 -0.4224
 1110WAT     H1 6245   3.541   8.011   4.950 -0.0383  1.2634 -0.2589
 1110WAT     H2 6246   3.651   7.906   4.954 -1.0099  0.2039 -0.7534
 1110WAT    EPW 6247   3.599   7.963   4.995 -0.6818  0.2859 -0.4447
 1111WAT      O 6248   5.752   2.613   3.627  0.5156  0.2063  0.2798
 1111WAT     H1 6249   5.728   2.692   3.676  0.2821  0.9208 -0.9609
 1111WAT     H2 6250   5.799   2.645   3.550 -1.4396 -0.6828 -1.3660
 1111WAT    EPW 6251   5.755   2.628   3.624  0.2270  0.1833 -0.1010
 1112WAT      O 6252   6.403   5.246   3.254 -0.2375 -0.4839 -0.2730
 1112WAT     H1 6253   6.480   5.260   3.310 -1.4628 -0.8358  1.5874
 1112WAT     H2 6254   6.413   5.156   3.223  0.1002 -0.5399 -0.0133
 1112WAT    EPW 6255   6.414   5.236   3.258 -0.3545 -0.5379  0.0067
 1113WAT      O 6256   5.487   2.801   0.102 -0.3672  0.8186 -0.5110
 1113WAT     H1 6257   5.542   2.820   0.178  0.1706 -0.4269 -0.5559
 1113WAT     H2 6258   5.403   2.775   0.139 -0.3946  1.1002 -0.3751
 1113WAT    EPW 6259   5.484   2.800   0.117 -0.3002  0.6915 -0.4990
 1114WAT      O 6260  -5.959   2.482   8.370  0.0628  0.4185  0.5170
 1114WAT     H1 6261  -5.983   2.438   8.288 -0.5694 -2.3035  2.0612
 1114WAT     H2 6262  -5.983   2.420   8.439  5.1439  0.3483  2.6456
 1114WAT    EPW 6263  -5.966   2.468   8.368  0.6497  0.0502  1.0014
 1115WAT      O 6264   9.310   2.357   1.137  0.1110 -0.2067 -0.3071
 1115WAT     H1 6265   9.355   2.279   1.170  0.5183  0.3962  0.6156
 1115WAT     H2 6266   9.359   2.430   1.174 -1.4247  0.4782  0.4633
 1115WAT    EPW 6267   9.322   2.356   1.146 -0.0377 -0.0368 -0.0838
 1116WAT      O 6268  -5.824   5.274   8.294 -0.2347 -0.0801 -0.1788
 1116WAT     H1 6269  -5.866   5.310   8.372 -0.4741 -2.5426  0.9330
 1116WAT     H2 6270  -5.732   5.264   8.319 -0.4653 -1.6507  0.1522
 1116WAT    EPW 6271  -5.818   5.277   8.307 -0.2966 -0.6120  0.0114
 1117WAT      O 6272  -2.305   7.416   3.262  0.5068  0.2277  0.0868
 1117WAT     H1 6273  -2.231   7.437   3.319  0.1512  3.2719 -0.4141
 1117WAT     H2 6274  -2.266   7.410   3.175  0.1998  2.1423 -0.2232
 1117WAT    EPW 6275  -2.290   7.418   3.258  0.4195  0.8817 -0.0200
 1118WAT      O 6276   1.311   0.637   0.642  0.3272  0.4453 -0.1861
 1118WAT     H1 6277   1.353   0.687   0.712 -0.0479  1.6470 -0.7998
 1118WAT     H2 6278   1.223   0.619   0.676  0.7598 -0.6549  0.4214
 1118WAT    EPW 6279   1.305   0.641   0.656  0.3347  0.4587 -0.1869
 1119WAT      O 6280  -7.665   8.996   7.536 -0.0088 -0.2822 -0.2994
 1119WAT     H1 6281  -7.757   8.995   7.564  0.1053 -2.0096  0.1184
 1119WAT     H2 6282  -7.668   8.960   7.447  0.5170 -3.1321  0.7573
 1119WAT    EPW 6283  -7.678   8.991   7.528  0.0758 -0.8860 -0.1047
 1120WAT      O 6284   2.937   5.676   5.804 -0.2423 -0.4772 -0.2937
 1120WAT     H1 6285   2.948   5.771   5.802 -0.5100 -0.4368  0.0691
 1120WAT     H2 6286   3.025   5.642   5.820  0.0139 -0.3378 -1.3445
 1120WAT    EPW 6287   2.950   5.684   5.806 -0.2438 -0.4535 -0.3846
 1121WAT      O 6288   1.879   6.467   3.601  0.0312  0.5861  0.4261
 1121WAT     H1 6289   1.913   6.411   3.670  0.8958 -0.7778 -1.0403
 1121WAT     H2 6290   1.933   6.546   3.604 -1.5851  1.7502  2.9077
 1121WAT    EPW 6291   1.890   6.470   3.610 -0.0680  0.5598  0.5599
 1122WAT      O 6292  -2.842   9.326   2.046 -0.0317 -0.0544 -0.2684
 1122WAT     H1 6293  -2.747   9.333   2.054  0.1857 -0.4154 -2.1286
 1122WAT     H2 6294  -2.860   9.232   2.042 -0.2876  0.0296 -1.5009
 1122WAT    EPW 6295  -2.832   9.315   2.047 -0.0368 -0.0911 -0.6763
 1123WAT      O 6296   3.306   0.670   1.233  0.6185  0.2014  0.6244
 1123WAT     H1 6297   3.385   0.618   1.218  0.3801 -0.9512  2.8576
 1123WAT     H2 6298   3.282   0.651   1.324 -1.2376  1.8979  0.5632
 1123WAT    EPW 6299   3.313   0.661   1.243  0.3422  0.2732  0.9108
 1124WAT      O 6300  -4.640   9.920   8.937  0.4536  0.4032 -0.4221
 1124WAT     H1 6301  -4.655   9.962   9.022  3.2516 -0.6861  0.7375
 1124WAT     H2 6302  -4.547   9.895   8.939 -0.1493 -2.4746 -2.5557
 1124WAT    EPW 6303  -4.630   9.922   8.949  0.7430 -0.1199 -0.5505
 1125WAT      O 6304   2.133   6.448   5.484 -0.1916  0.0833  0.1693
 1125WAT     H1 6305   2.131   6.389   5.559 -2.1118 -0.2913 -0.1243
 1125WAT     H2 6306   2.093   6.397   5.413 -1.2815  1.4704 -0.2602
 1125WAT    EPW 6307   2.127   6.433   5.484 -0.5885  0.2167  0.0739
 1126WAT      O 6308   1.810   3.302   3.084  0.4456 -0.2574 -0.0225
 1126WAT     H1 6309   1.810   3.234   3.017 -0.4617 -3.5075  2.9735
 1126WAT     H2 6310   1.723   3.340   3.080  0.4004 -0.4177 -0.6299
 1126WAT    EPW 6311   1.799   3.298   3.074  0.3200 -0.7071  0.2925
 1127WAT      O 6312  -6.410  10.138   6.814  0.6541  0.5608 -0.3985
 1127WAT     H1 6313  -6.450  10.212   6.768 -0.7004 -0.0904 -0.3159
 1127WAT     H2 6314  -6.483  10.096   6.859  0.9492 -2.1607 -2.2514
 1127WAT    EPW 6315  -6.425  10.142   6.814  0.5143  0.1163 -0.6318
 1128WAT      O 6316   3.851   8.149   1.913 -0.0695 -0.3614  0.2400
 1128WAT     H1 6317   3.819   8.150   2.003  0.0464  0.1700  0.2757
 1128WAT     H2 6318   3.809   8.072   1.874 -2.2657  0.9063 -0.0406
 1128WAT    EPW 6319   3.841   8.139   1.920 -0.3439 -0.1240  0.2077
 1129WAT      O 6320  -1.739   7.631   3.692  0.3261  0.1633  0.3235
 1129WAT     H1 6321  -1.734   7.588   3.607 -1.2722 -1.7449  1.1148
 1129WAT     H2 6322  -1.652   7.622   3.729  0.0887 -2.4933  0.4452
 1129WAT    EPW 6323  -1.727   7.624   3.685  0.0840 -0.4389  0.4439
 1130WAT      O 6324  -5.748   8.279   5.430 -0.8355  0.1215  0.5462
 1130WAT     H1 6325  -5.754   8.184   5.420 -1.1198  0.0532  1.3415
 1130WAT     H2 6326  -5.665   8.293   5.476  1.1175  0.5194 -2.7472
 1130WAT    EPW 6327  -5.738   8.268   5.435 -0.6154  0.1650  0.2167
 1131WAT      O 6328   2.220   9.604   7.500  0.3602 -0.0870 -0.0389
 1131WAT     H1 6329   2.227   9.522   7.451  0.6567  0.8435 -1.6267
 1131WAT     H2 6330   2.304   9.647   7.485 -0.5673  1.4584 -1.0688
 1131WAT    EPW 6331   2.232   9.599   7.491  0.2769  0.2394 -0.3843
 1132WAT      O 6332   3.422   1.218   6.117  0.0305 -0.3207 -0.4252
 1132WAT     H1 6333   3.518   1.223   6.120  0.2275 -2.2583 -1.3471
 1132WAT     H2 6334   3.394   1.302   6.081  1.2132  1.0114  1.5637
 1132WAT    EPW 6335   3.431   1.229   6.113  0.2126 -0.4005 -0.2844
 1133WAT      O 6336  -2.063   5.035   8.410 -1.1343 -0.3863  0.2936
 1133WAT     H1 6337  -2.081   4.952   8.365 -0.9901 -0.2273 -0.0627
 1133WAT     H2 6338  -2.063   5.101   8.340 -0.6915 -0.1674  0.4935
 1133WAT    EPW 6339  -2.066   5.033   8.395 -1.0569 -0.3364  0.2728
 1134WAT      O 6340  -2.476   1.084   8.016  0.4306 -0.0525  0.5363
 1134WAT     H1 6341  -2.571   1.076   8.027  0.2779  1.6472  0.7277
 1134WAT     H2 6342  -2.460   1.053   7.927 -0.4370  0.4282  0.1983
 1134WAT    EPW 6343  -2.487   1.079   8.006  0.2961  0.2351  0.5169
 1135WAT      O 6344   5.060   7.900   2.334  0.1589  0.1536  0.2548
 1135WAT     H1 6345   5.100   7.869   2.253  1.7469  1.8889  0.2977
 1135WAT     H2 6346   5.047   7.821   2.387 -1.9068 -1.1784 -2.0280
 1135WAT    EPW 6347   5.063   7.886   2.330  0.0958  0.2067 -0.0407
 1136WAT      O 6348   1.882   3.836   8.696  0.1605 -1.3081 -0.4067
 1136WAT     H1 6349   1.849   3.907   8.752  2.3592  0.0127 -0.6641
 1136WAT     H2 6350   1.863   3.756   8.745 -0.1287 -0.3588  1.0922
 1136WAT    EPW 6351   1.875   3.835   8.710  0.4124 -1.0086 -0.2427
 1137WAT      O 6352  -2.199   6.103   3.833 -0.1797 -1.0389  0.2636
 1137WAT     H1 6353  -2.242   6.110   3.918 -0.9712  0.8557 -0.2352
 1137WAT     H2 6354  -2.270   6.112   3.770  0.7871  1.6652 -0.5902
 1137WAT    EPW 6355  -2.214   6.106   3.836 -0.1566 -0.4323  0.0851
 1138WAT      O 6356  -5.382   3.142   8.113 -0.2080  0.3233  0.4751
 1138WAT     H1 6357  -5.356   3.125   8.022  1.0847 -0.0225  0.8941
 1138WAT     H2 6358  -5.315   3.099   8.166 -2.3532 -1.7895  1.6588
 1138WAT    EPW 6359  -5.370   3.134   8.108 -0.3204 -0.0010  0.6866
 1139WAT      O 6360   0.980   9.327   3.652 -0.1344  0.3583  0.3377
 1139WAT     H1 6361   0.955   9.321   3.560  1.4466 -0.3242 -0.0833
 1139WAT     H2 6362   0.911   9.281   3.699 -0.7428  0.3577 -0.5371
 1139WAT    EPW 6363   0.968   9.321   3.647 -0.0061  0.2680  0.1668
 1140WAT      O 6364   6.581   0.164   1.729 -0.5900  0.3407 -0.4307
 1140WAT     H1 6365   6.565   0.240   1.785  0.6985  1.4543 -1.4918
 1140WAT     H2 6366   6.645   0.112   1.778  0.1654  1.0595 -0.6264
 1140WAT    EPW 6367   6.588   0.167   1.743 -0.3202  0.5824 -0.5964
 1141WAT      O 6368  -0.549   8.553   1.092  0.1119  0.7850 -0.1029
 1141WAT     H1 6369  -0.531   8.519   1.180  2.0511  1.3177 -0.2409
 1141WAT     H2 6370  -0.641   8.578   1.094 -0.4984 -1.2678  1.0701
 1141WAT    EPW 6371  -0.558   8.552   1.104  0.2872  0.5851  0.0337
 1142WAT      O 6372   3.534   8.574   1.642 -0.3233  0.1118  0.1188
 1142WAT     H1 6373   3.572   8.491   1.671  1.2329  1.0907  1.0125
 1142WAT     H2 6374   3.559   8.581   1.550  0.9799  0.3554  0.4807
 1142WAT    EPW 6375   3.542   8.564   1.633  0.0538  0.2732  0.2844
 1143WAT      O 6376  -2.421   1.485   3.964  0.6040  0.0377  0.1680
 1143WAT     H1 6377  -2.331   1.488   3.933  0.7980  1.8044  0.8081
 1143WAT     H2 6378  -2.425   1.552   4.032 -1.1453 -0.1667  0.3047
 1143WAT    EPW 6379  -2.410   1.494   3.969  0.3989  0.2437  0.2705
 1144WAT      O 6380  -1.755   5.252   7.181  0.3989 -0.3150 -0.0190
 1144WAT     H1 6381  -1.775   5.337   7.140  0.9743 -0.9753 -1.7681
 1144WAT     H2 6382  -1.760   5.269   7.275 -1.5374  1.1687 -0.3230
 1144WAT    EPW 6383  -1.758   5.265   7.188  0.2195 -0.2062 -0.2899
 1145WAT      O 6384  -1.439   7.617   6.205 -0.0775 -0.6098  0.9945
 1145WAT     H1 6385  -1.412   7.561   6.277 -0.7342 -2.4242 -0.1153
 1145WAT     H2 6386  -1.358   7.630   6.154  0.2197  0.0471  1.6133
 1145WAT    EPW 6387  -1.424   7.612   6.207 -0.1249 -0.7625  0.9298
 1146WAT      O 6388  -0.506   7.242   5.474  0.3044 -0.4117 -0.0153
 1146WAT     H1 6389  -0.472   7.330   5.488 -0.7544 -0.3482  2.5700
 1146WAT     H2 6390  -0.593   7.255   5.436  0.3670 -0.3651 -0.1430
 1146WAT    EPW 6391  -0.513   7.255   5.471  0.1730 -0.3970  0.3090
 1147WAT      O 6392  -4.829   8.641   8.582  0.3619  0.2705 -0.3798
 1147WAT     H1 6393  -4.769   8.572   8.557  0.9817  0.0930  1.4176
 1147WAT     H2 6394  -4.916   8.606   8.563  0.7474 -0.1107 -1.4992
 1147WAT    EPW 6395  -4.833   8.627   8.576  0.4942  0.1974 -0.2899
 1148WAT      O 6396  -0.701   7.110   2.692  0.1675  0.0619  0.0918
 1148WAT     H1 6397  -0.789   7.079   2.671 -0.3192  0.7028  1.0884
 1148WAT     H2 6398  -0.647   7.031   2.693 -0.8406 -0.6738  1.6321
 1148WAT    EPW 6399  -0.706   7.096   2.689 -0.0296  0.0494  0.4264
 1149WAT      O 6400  -6.949   6.618   8.021  0.1535  0.7483  0.4514
 1149WAT     H1 6401  -6.923   6.561   7.949 -0.5745  0.7594  0.1674
 1149WAT     H2 6402  -7.032   6.581   8.052 -1.3070  2.6731 -0.9398
 1149WAT    EPW 6403  -6.957   6.605   8.016 -0.1352  1.0037  0.2308
 1150WAT      O 6404   1.506   8.198   5.377 -0.3915 -0.1187 -0.2367
 1150WAT     H1 6405   1.547   8.130   5.323  0.3338  0.9803 -1.1019
 1150WAT     H2 6406   1.415   8.169   5.387 -0.1940 -1.0163 -0.9170
 1150WAT    EPW 6407   1.500   8.185   5.371 -0.2698 -0.0925 -0.4406
 1151WAT      O 6408   0.617   9.294   8.954  0.5466 -0.6474  0.2346
 1151WAT     H1 6409   0.665   9.214   8.936 -0.9872 -1.7418  0.7599
 1151WAT     H2 6410   0.684   9.360   8.972  1.8247 -2.1290  1.0703
 1151WAT    EPW 6411   0.632   9.292   8.954  0.5128 -0.9875  0.4144
 1152WAT      O 6412   0.793   3.120   2.764 -0.0268  0.1959  1.0175
 1152WAT     H1 6413   0.882   3.145   2.741  0.0579 -0.9557 -0.0717
 1152WAT     H2 6414   0.742   3.139   2.685 -0.0563 -2.3252  0.3399
 1152WAT    EPW 6415   0.798   3.126   2.750 -0.0196 -0.2885  0.7845
 1153WAT      O 6416   5.558   0.043   7.038  0.2564  0.5301 -0.6268
 1153WAT     H1 6417   5.621   0.106   7.073  0.5780  0.3670 -0.9053
 1153WAT     H2 6418   5.564  -0.032   7.098  0.6013  0.3650 -0.8629
 1153WAT    EPW 6419   5.567   0.042   7.051  0.3443  0.4868 -0.6945
 1154WAT      O 6420  -4.797   7.188   4.224 -0.1495 -0.3957 -0.0642
 1154WAT     H1 6421  -4.773   7.248   4.294 -0.5358 -0.0695 -0.2088
 1154WAT     H2 6422  -4.714   7.145   4.200  0.0029 -0.4225  0.5059
 1154WAT    EPW 6423  -4.783   7.190   4.230 -0.1802 -0.3562 -0.0081
 1155WAT      O 6424  -3.880   3.047   8.865  0.3595  0.4159  0.6584
 1155WAT     H1 6425  -3.842   2.960   8.877  2.3585  1.3796  1.7138
 1155WAT     H2 6426  -3.911   3.047   8.774 -0.5361 -1.6791  0.9041
 1155WAT    EPW 6427  -3.879   3.035   8.854  0.5051  0.2667  0.8297
 1156WAT      O 6428   1.325   8.727   2.381 -0.5613  0.1887 -0.1618
 1156WAT     H1 6429   1.377   8.651   2.405 -0.9846  0.1910  0.8339
 1156WAT     H2 6430   1.253   8.691   2.328 -1.5221 -0.3243  1.4251
 1156WAT    EPW 6431   1.322   8.713   2.377 -0.7439  0.1216  0.1788
 1157WAT      O 6432   2.959   1.942   3.285  0.1342  0.2124 -0.4092
 1157WAT     H1 6433   2.900   1.970   3.216 -0.3805  0.2533  0.0462
 1157WAT     H2 6434   2.904   1.935   3.363  0.0023 -2.9445 -0.6506
 1157WAT    EPW 6435   2.944   1.944   3.286  0.0489 -0.1985 -0.3810
 1158WAT      O 6436  -3.510   7.064   8.464 -0.1194 -0.5779 -0.2340
 1158WAT     H1 6437  -3.603   7.059   8.488 -0.7672  0.6989 -2.2136
 1158WAT     H2 6438  -3.471   6.986   8.504 -1.6932 -0.3434  1.9508
 1158WAT    EPW 6439  -3.517   7.053   8.472 -0.4123 -0.3786 -0.2069
 1159WAT      O 6440  -1.009   6.817   6.405 -0.0685  0.1327 -0.9610
 1159WAT     H1 6441  -1.083   6.841   6.349  0.2289  1.8044 -0.6904
 1159WAT     H2 6442  -0.996   6.724   6.389 -1.0725  0.2094 -2.3801
 1159WAT    EPW 6443  -1.017   6.808   6.396 -0.1617  0.3633 -1.1127
 1160WAT      O 6444  -1.070   4.613   3.267  0.1139  0.0366 -0.4941
 1160WAT     H1 6445  -1.007   4.635   3.335 -1.0439  2.2641 -0.0318
 1160WAT     H2 6446  -1.029   4.544   3.216  2.1411  0.1936  0.8605
 1160WAT    EPW 6447  -1.057   4.607   3.269  0.2286  0.3512 -0.2544
 1161WAT      O 6448   0.202   7.618   0.106 -0.4297 -0.3031 -0.4678
 1161WAT     H1 6449   0.285   7.637   0.150 -0.8781 -0.5556  0.5208
 1161WAT     H2 6450   0.206   7.525   0.085 -0.5862 -0.3890 -0.1291
 1161WAT    EPW 6451   0.213   7.609   0.109 -0.5095 -0.3479 -0.2927
 1162WAT      O 6452   6.759   5.269   3.018  0.6605  0.0804  0.5585
 1162WAT     H1 6453   6.679   5.321   3.006 -0.4216 -1.7020 -0.4276
 1162WAT     H2 6454   6.823   5.309   2.961  0.0306  0.7023  0.2796
 1162WAT    EPW 6455   6.757   5.281   3.009  0.4349 -0.0725  0.3917
 1163WAT      O 6456   5.497   2.774   1.209 -0.3851 -0.4421  0.3475
 1163WAT     H1 6457   5.525   2.821   1.287 -0.8609 -3.0717  2.2596
 1163WAT     H2 6458   5.421   2.823   1.177  0.1945  1.0443  1.1689
 1163WAT    EPW 6459   5.490   2.787   1.215 -0.3715 -0.5928  0.7080
 1164WAT      O 6460   1.908   7.022   8.290  0.0842  0.5245 -0.1969
 1164WAT     H1 6461   2.003   7.033   8.289  0.1288  0.2298 -1.7284
 1164WAT     H2 6462   1.895   6.935   8.328  0.4735  0.2667 -0.6420
 1164WAT    EPW 6463   1.919   7.012   8.295  0.1414  0.4516 -0.4578
 1165WAT      O 6464  -5.461   9.559   8.103 -0.3773  0.2685 -0.5181
 1165WAT     H1 6465  -5.390   9.564   8.038 -0.2852 -0.1922 -0.4595
 1165WAT     H2 6466  -5.526   9.502   8.062  1.2262 -3.0796  1.1815
 1165WAT    EPW 6467  -5.460   9.552   8.089 -0.1535 -0.2337 -0.2861
 1166WAT      O 6468  -1.219   9.563   1.093 -0.6821 -0.0139  0.6228
 1166WAT     H1 6469  -1.143   9.564   1.035 -0.2129 -0.9585  1.2045
 1166WAT     H2 6470  -1.289   9.603   1.041  0.1041  0.5160 -0.0577
 1166WAT    EPW 6471  -1.219   9.569   1.078 -0.5165 -0.0687  0.6097
 1167WAT      O 6472   5.559   5.912   2.699  0.8484 -0.3937 -0.5240
 1167WAT     H1 6473   5.637   5.946   2.743  1.9522 -1.1203 -1.8495
 1167WAT     H2 6474   5.574   5.930   2.606 -0.3576 -0.9711 -0.8503
 1167WAT    EPW 6475   5.571   5.919   2.693  0.8349 -0.5655 -0.7418
 1168WAT      O 6476   0.611   8.806   6.860 -0.5692  0.0084 -0.3927
 1168WAT     H1 6477   0.605   8.766   6.774 -1.0452  2.9478 -1.8712
 1168WAT     H2 6478   0.534   8.774   6.907 -1.4390 -0.1022 -1.8257
 1168WAT    EPW 6479   0.600   8.797   6.855 -0.7467  0.3815 -0.7765
 1169WAT      O 6480  -1.787   4.986   3.221 -0.0558 -0.0179 -0.6846
 1169WAT     H1 6481  -1.730   5.019   3.291 -2.1964  0.8627  0.7357
 1169WAT     H2 6482  -1.780   4.890   3.230  0.5133  0.0717  0.0293
 1169WAT    EPW 6483  -1.778   4.978   3.232 -0.2631  0.1101 -0.4032
 1170WAT      O 6484   7.238   2.727   0.802  0.2568 -0.1578 -0.2043
 1170WAT     H1 6485   7.278   2.672   0.869 -0.7935  0.4870  0.9910
 1170WAT     H2 6486   7.277   2.814   0.815 -2.6342  0.9278  2.1196
 1170WAT    EPW 6487   7.248   2.731   0.812 -0.2630  0.0705  0.2598
 1171WAT      O 6488   2.674   7.718   5.080  0.6302  0.2201 -0.3743
 1171WAT     H1 6489   2.697   7.739   5.170  3.2603 -0.1869 -0.8797
 1171WAT     H2 6490   2.712   7.788   5.028 -3.3561  2.1256 -1.1271
 1171WAT    EPW 6491   2.682   7.730   5.085  0.4513  0.4177 -0.5403
 1172WAT      O 6492   0.776   6.211   0.654 -0.0565  0.0846  0.2888
 1172WAT     H1 6493   0.781   6.188   0.561 -0.6503  1.5940 -0.1450
 1172WAT     H2 6494   0.819   6.138   0.698  2.8570  0.6152 -1.3735
 1172WAT    EPW 6495   0.783   6.198   0.647  0.2494  0.3536  0.0124
 1173WAT      O 6496  -0.155   4.345   5.749 -0.4031 -0.1510  0.3947
 1173WAT     H1 6497  -0.248   4.327   5.761 -0.8109  0.7836 -1.0619
 1173WAT     H2 6498  -0.137   4.416   5.811 -1.3081  1.3905 -1.0284
 1173WAT    EPW 6499  -0.165   4.352   5.759 -0.5762  0.1757  0.0150
 1174WAT      O 6500   0.363   5.603   8.492 -0.2724 -0.7197 -0.3341
 1174WAT     H1 6501   0.329   5.638   8.574  0.4660 -1.0202  0.1100
 1174WAT     H2 6502   0.453   5.634   8.488 -0.4391 -0.2950 -1.2800
 1174WAT    EPW 6503   0.370   5.612   8.502 -0.1970 -0.7033 -0.4001
 1175WAT      O 6504  -0.205  10.012   3.771  0.4373 -0.0432  0.4082
 1175WAT     H1 6505  -0.143   9.956   3.817 -1.8900 -0.4364  3.3982
 1175WAT     H2 6506  -0.277   9.953   3.747 -1.3120  1.2232  2.1484
 1175WAT    EPW 6507  -0.207   9.997   3.774 -0.1004  0.0720  1.0320
 1176WAT      O 6508  -3.791   3.785   4.887  0.3770  0.4489  0.2092
 1176WAT     H1 6509  -3.696   3.784   4.900  0.6325 -2.3445 -1.1108
 1176WAT     H2 6510  -3.816   3.693   4.889 -2.3671  1.1169  0.5871
 1176WAT    EPW 6511  -3.782   3.773   4.889  0.0486  0.1684  0.0851
 1177WAT      O 6512  -4.794   7.731   3.868 -0.5890  0.6374 -0.6321
 1177WAT     H1 6513  -4.829   7.812   3.905 -0.2536  0.1550  0.8115
 1177WAT     H2 6514  -4.761   7.683   3.944  0.4109 -0.2726 -1.6126
 1177WAT    EPW 6515  -4.794   7.735   3.883 -0.4127  0.4539 -0.5710
 1178WAT      O 6516   2.371   0.841   8.520 -0.3281  0.7877  0.2418
 1178WAT     H1 6517   2.451   0.893   8.519 -1.7584  3.1468  0.3808
 1178WAT     H2 6518   2.319   0.875   8.447 -0.9801 -1.1009 -0.2185
 1178WAT    EPW 6519   2.375   0.852   8.511 -0.6027  0.8498  0.1993
 1179WAT      O 6520   0.789   9.290   1.689 -0.3202 -0.1507  0.4774
 1179WAT     H1 6521   0.885   9.295   1.697  0.0272 -0.7840 -2.1835
 1179WAT     H2 6522   0.760   9.381   1.691  0.5518  0.1624 -0.2672
 1179WAT    EPW 6523   0.798   9.303   1.690 -0.1594 -0.1926  0.0283
 1180WAT      O 6524   0.800   9.449   1.374  0.4074  0.3852 -0.2477
 1180WAT     H1 6525   0.762   9.369   1.411 -0.1583  0.6578 -0.2229
 1180WAT     H2 6526   0.788   9.515   1.442  0.1809  0.6740 -0.5650
 1180WAT    EPW 6527   0.793   9.447   1.388  0.3029  0.4597 -0.2862
 1181WAT      O 6528   1.942   6.544   0.180 -0.3337 -0.4576  0.8410
 1181WAT     H1 6529   1.971   6.626   0.140 -2.4911  0.3135  0.7392
 1181WAT     H2 6530   2.011   6.481   0.158  1.0628  1.1488  0.3744
 1181WAT    EPW 6531   1.955   6.546   0.172 -0.4340 -0.1442  0.7660
 1182WAT      O 6532   8.712   5.219   0.281 -0.3517 -0.6689 -0.2659
 1182WAT     H1 6533   8.744   5.212   0.371 -0.8653  0.0440 -0.0119
 1182WAT     H2 6534   8.636   5.277   0.288 -0.1150 -0.2304 -1.2276
 1182WAT    EPW 6535   8.706   5.226   0.294 -0.3881 -0.5171 -0.3592
 1183WAT      O 6536   3.010   5.736   2.723 -0.0352 -0.6954  0.3597
 1183WAT     H1 6537   2.956   5.663   2.751 -0.8685 -0.2913 -0.1472
 1183WAT     H2 6538   3.092   5.695   2.694 -1.0003 -1.5997 -1.2557
 1183WAT    EPW 6539   3.014   5.721   2.723 -0.2724 -0.7613  0.0798
 1184WAT      O 6540   6.656   2.104   0.015 -0.7994  0.7271 -0.3321
 1184WAT     H1 6541   6.700   2.052   0.082 -1.1790 -0.3867 -0.9156
 1184WAT     H2 6542   6.718   2.106  -0.058 -1.6631 -0.8733 -1.1690
 1184WAT    EPW 6543   6.670   2.098   0.014 -0.9634  0.3691 -0.5193
 1185WAT      O 6544   5.136   7.242   0.715  0.3906  0.3472 -0.0777
 1185WAT     H1 6545   5.177   7.274   0.795  0.6312 -0.5402  0.1654
 1185WAT     H2 6546   5.204   7.190   0.672 -0.2730 -0.6750  0.0481
 1185WAT    EPW 6547   5.150   7.239   0.720  0.3350  0.0954 -0.0291
 1186WAT      O 6548   5.858   1.129   4.418  0.9060  0.0569  0.4382
 1186WAT     H1 6549   5.806   1.181   4.479  0.7311 -1.8831  2.0658
 1186WAT     H2 6550   5.882   1.190   4.348 -3.1401  1.1950 -0.1960
 1186WAT    EPW 6551   5.854   1.144   4.417  0.3493 -0.0489  0.5691
 1187WAT      O 6552   3.210   2.001   0.942 -0.4258 -0.7731 -0.5032
 1187WAT     H1 6553   3.207   1.909   0.917 -3.1156 -1.5381  2.0215
 1187WAT     H2 6554   3.269   2.003   1.018 -0.3792 -0.4298 -0.5469
 1187WAT    EPW 6555   3.217   1.989   0.949 -0.7744 -0.8287 -0.1760
 1188WAT      O 6556   1.051   1.289   3.695  0.0335 -0.2296 -0.9491
 1188WAT     H1 6557   1.003   1.309   3.775 -0.7292  0.2026 -1.4946
 1188WAT     H2 6558   0.984   1.257   3.635  0.4293  0.3429 -1.7169
 1188WAT    EPW 6559   1.036   1.288   3.698 -0.0149 -0.0972 -1.1224
 1189WAT      O 6560   1.180   1.459   2.819 -0.1280  0.3147  0.0741
 1189WAT     H1 6561   1.131   1.377   2.825  1.0098 -0.5990 -2.0476
 1189WAT     H2 6562   1.113   1.525   2.801 -0.7960 -0.6746 -1.2805
 1189WAT    EPW 6563   1.165   1.457   2.817 -0.0660  0.0637 -0.3844
 1190WAT      O 6564   3.171   5.804   8.875  0.3629  0.3628 -0.0931
 1190WAT     H1 6565   3.128   5.798   8.790 -0.5902  0.2661  0.3851
 1190WAT     H2 6566   3.115   5.754   8.935  2.6498 -2.2528  0.0038
 1190WAT    EPW 6567   3.158   5.797   8.872  0.5388  0.0052 -0.0172
 1191WAT      O 6568   2.722   6.341   3.593  0.3795 -0.3029  0.1252
 1191WAT     H1 6569   2.673   6.281   3.538  0.2225  1.3038 -1.5738
 1191WAT     H2 6570   2.666   6.355   3.669 -1.7756  1.2758 -1.6234
 1191WAT    EPW 6571   2.708   6.335   3.596  0.0746  0.1171 -0.3295
 1192WAT      O 6572   1.047   7.670   1.232 -0.6968  1.0091 -0.0150
 1192WAT     H1 6573   1.057   7.723   1.153  0.9683 -1.2703 -1.4430
 1192WAT     H2 6574   1.129   7.683   1.280 -0.4535  0.0736 -0.1669
 1192WAT    EPW 6575   1.059   7.679   1.228 -0.4451  0.5848 -0.2234
 1193WAT      O 6576   3.844   0.652   4.120  0.1147  0.0491 -0.0140
 1193WAT     H1 6577   3.798   0.709   4.059  0.8916 -0.2940 -0.9450
 1193WAT     H2 6578   3.804   0.671   4.205 -0.9571  0.5597 -0.6133
 1193WAT    EPW 6579   3.833   0.662   4.123  0.0758  0.0712 -0.2155
 1194WAT      O 6580   2.364   4.483   1.041  0.8016 -0.3439 -0.3136
 1194WAT     H1 6581   2.340   4.556   0.983  0.0826  0.3379  0.8050
 1194WAT     H2 6582   2.457   4.468   1.023  1.2243  1.5088  0.1348
 1194WAT    EPW 6583   2.373   4.491   1.031  0.7625 -0.0095 -0.1069
 1195WAT      O 6584  -0.507   1.808   4.419  0.3875 -0.3098  0.4700
 1195WAT     H1 6585  -0.445   1.774   4.354 -0.9353  0.0647 -1.0393
 1195WAT     H2 6586  -0.455   1.872   4.469  0.9397  0.9690 -1.6091
 1195WAT    EPW 6587  -0.492   1.812   4.417  0.2859 -0.0917 -0.0031
 1196WAT      O 6588  -0.337   6.943  -0.022  0.4556  0.3406 -0.7861
 1196WAT     H1 6589  -0.265   6.952   0.040  1.5380 -1.4216 -1.7393
 1196WAT     H2 6590  -0.398   6.882   0.020 -1.2834  2.8585  0.6409
 1196WAT    EPW 6591  -0.336   6.936  -0.008  0.3691  0.4403 -0.7234
 1197WAT      O 6592  -2.879   7.204   1.270 -0.3681  0.8304 -0.5055
 1197WAT     H1 6593  -2.921   7.157   1.342 -1.7418  2.6240 -0.0744
 1197WAT     H2 6594  -2.934   7.280   1.255  0.9658  1.5420 -2.1703
 1197WAT    EPW 6595  -2.891   7.208   1.277 -0.3732  1.1609 -0.6682
 1198WAT      O 6596  -2.053   9.197   5.939 -0.1590 -0.1820  0.1221
 1198WAT     H1 6597  -2.098   9.183   5.855  1.8706 -1.3098 -0.8541
 1198WAT     H2 6598  -2.069   9.117   5.988 -0.3907  0.0093  0.3628
 1198WAT    EPW 6599  -2.061   9.185   5.934  0.0781 -0.3057  0.0253
 1199WAT      O 6600  -4.024   8.500   6.038 -0.1134 -0.0914  0.0037
 1199WAT     H1 6601  -3.979   8.475   6.118  3.0014 -2.4765 -2.2066
 1199WAT     H2 6602  -4.111   8.461   6.047 -0.2368  0.5885  2.5400
 1199WAT    EPW 6603  -4.030   8.491   6.049  0.2809 -0.3157  0.0467
 1200WAT      O 6604  -4.845   4.566   6.957 -0.2433  0.5334  0.2663
 1200WAT     H1 6605  -4.832   4.610   7.041  1.2943 -0.5268  0.6314
 1200WAT     H2 6606  -4.820   4.475   6.974 -1.7785 -0.1521 -0.8643
 1200WAT    EPW 6607  -4.840   4.560   6.970 -0.2432  0.3033  0.1655
 1201WAT      O 6608   2.392   0.031   7.187 -0.1637  0.9690  0.4155
 1201WAT     H1 6609   2.474  -0.004   7.222 -1.0762 -0.2468  1.4090
 1201WAT     H2 6610   2.420   0.104   7.131  1.6053  0.4210  0.5098
 1201WAT    EPW 6611   2.407   0.036   7.184 -0.0508  0.7364  0.5589
 1202WAT      O 6612  -0.536   9.932   1.731  0.1442 -0.6759  0.1542
 1202WAT     H1 6613  -0.481   9.993   1.682 -0.0693 -0.7786 -0.2184
 1202WAT     H2 6614  -0.593   9.987   1.784  1.0118 -0.5686  1.0156
 1202WAT    EPW 6615  -0.536   9.947   1.732  0.2305 -0.6757  0.2187
 1203WAT      O 6616   4.759   2.764   4.280  0.0477 -0.4975 -0.1726
 1203WAT     H1 6617   4.802   2.746   4.364  3.2565  0.7751 -1.3949
 1203WAT     H2 6618   4.736   2.678   4.246 -1.7709 -1.0262  2.1234
 1203WAT    EPW 6619   4.761   2.751   4.287  0.2310 -0.3994 -0.0310
 1204WAT      O 6620  -1.497   1.323   8.737  0.6859  0.0705  0.0964
 1204WAT     H1 6621  -1.435   1.366   8.796 -0.8870  0.4406  1.5664
 1204WAT     H2 6622  -1.558   1.393   8.711  0.5128 -0.4049 -0.8275
 1204WAT    EPW 6623  -1.497   1.338   8.741  0.4556  0.0566  0.1683
 1205WAT      O 6624   1.651   0.994   7.347  0.3039  0.2250  0.3229
 1205WAT     H1 6625   1.564   0.955   7.336 -0.3242  1.1973  1.5008
 1205WAT     H2 6626   1.687   0.949   7.424 -0.3929  1.8138  1.6397
 1205WAT    EPW 6627   1.644   0.983   7.356  0.1291  0.5628  0.6518
 1206WAT      O 6628   0.996   2.942   1.079 -0.3718 -0.7028 -0.4006
 1206WAT     H1 6629   1.027   2.946   1.170  1.3162 -0.6535 -0.9386
 1206WAT     H2 6630   0.954   2.856   1.073 -0.6843 -0.6286  0.4665
 1206WAT    EPW 6631   0.995   2.931   1.090 -0.1904 -0.6865 -0.3572
 1207WAT      O 6632   6.345   2.150   4.131 -0.3671 -0.2044 -0.3984
 1207WAT     H1 6633   6.322   2.086   4.199  3.0392  1.0025  2.1889
 1207WAT     H2 6634   6.430   2.121   4.099  0.9255  2.4575  0.3047
 1207WAT    EPW 6635   6.353   2.138   4.136  0.2525  0.3059  0.0355
 1208WAT      O 6636  -1.975   7.858   2.922  0.0502  0.0658 -0.2639
 1208WAT     H1 6637  -1.894   7.823   2.884 -0.9044 -0.6992 -1.6715
 1208WAT     H2 6638  -1.948   7.940   2.964  1.6036 -0.3288 -0.4314
 1208WAT    EPW 6639  -1.961   7.864   2.922  0.1292 -0.0873 -0.4716
 1209WAT      O 6640   3.642   7.251   6.497 -0.2525  0.2387  0.0909
 1209WAT     H1 6641   3.679   7.213   6.576  0.9343  3.6679  1.3811
 1209WAT     H2 6642   3.562   7.201   6.481  1.1895 -2.6984  1.4496
 1209WAT    EPW 6643   3.636   7.239   6.505  0.0943  0.3037  0.4406
 1210WAT      O 6644   2.544   5.119   6.442  0.1903  0.1748 -0.0415
 1210WAT     H1 6645   2.585   5.152   6.362  2.8873 -3.8212 -0.5899
 1210WAT     H2 6646   2.451   5.110   6.420  0.7320 -0.0173 -2.4380
 1210WAT    EPW 6647   2.537   5.123   6.429  0.6175 -0.3777 -0.4299
 1211WAT      O 6648   6.975   6.780   1.310  0.2939  0.1580 -0.1422
 1211WAT     H1 6649   6.947   6.697   1.349  0.3590 -0.0497 -0.5321
 1211WAT     H2 6650   7.041   6.814   1.370  0.6694 -0.3465 -0.2598
 1211WAT    EPW 6651   6.980   6.774   1.323  0.3521  0.0641 -0.2091
 1212WAT      O 6652   2.856   2.553   3.814  0.0134 -0.6536 -0.2950
 1212WAT     H1 6653   2.902   2.534   3.896 -2.1691 -1.8062  0.7643
 1212WAT     H2 6654   2.773   2.594   3.842  0.2714  1.2994 -2.0951
 1212WAT    EPW 6655   2.851   2.556   3.829 -0.2403 -0.5480 -0.3928
 1213WAT      O 6656   0.055   7.595   1.276 -0.0518  0.6395  0.7810
 1213WAT     H1 6657   0.139   7.639   1.291  1.0699 -1.3036  0.5412
 1213WAT     H2 6658   0.079   7.504   1.259 -2.2139  0.0905  0.4435
 1213WAT    EPW 6659   0.070   7.589   1.276 -0.1890  0.3107  0.7048
 1214WAT      O 6660  -6.528   6.489   8.395 -0.1544 -0.1033 -0.6111
 1214WAT     H1 6661  -6.609   6.534   8.418 -0.3705 -1.1510  0.7718
 1214WAT     H2 6662  -6.549   6.396   8.400  1.7360 -0.4891  2.3111
 1214WAT    EPW 6663  -6.541   6.483   8.399  0.0668 -0.2923 -0.0429
 1215WAT      O 6664  -2.204   9.794   0.054 -0.4282 -0.2541  0.0004
 1215WAT     H1 6665  -2.186   9.702   0.072  1.7352  0.5305  2.5817
 1215WAT     H2 6666  -2.138   9.819  -0.012 -1.2286 -0.5806 -0.9485
 1215WAT    EPW 6667  -2.193   9.785   0.048 -0.2484 -0.1936  0.2157
 1216WAT      O 6668   1.468   6.764   2.843 -0.3406 -0.1882  0.0627
 1216WAT     H1 6669   1.520   6.816   2.904  0.3775 -0.6045 -0.1820
 1216WAT     H2 6670   1.491   6.799   2.757  0.1541 -0.9025 -0.1042
 1216WAT    EPW 6671   1.478   6.776   2.840 -0.1806 -0.3371  0.0085
 1217WAT      O 6672   3.747   3.674   5.712 -0.3879  0.3704  0.3059
 1217WAT     H1 6673   3.795   3.746   5.753  1.4791 -0.4924 -0.2617
 1217WAT     H2 6674   3.815   3.619   5.673 -1.9470  0.6122 -3.1386
 1217WAT    EPW 6675   3.762   3.676   5.712 -0.3473  0.2885 -0.2236
 1218WAT      O 6676   4.637   2.005   3.616  0.3342  0.4693 -0.5464
 1218WAT     H1 6677   4.616   1.931   3.673  0.5907  0.3900 -0.5553
 1218WAT     H2 6678   4.724   1.985   3.582 -0.5516 -0.4011 -2.4432
 1218WAT    EPW 6679   4.645   1.993   3.619  0.2511  0.3440 -0.7977
 1219WAT      O 6680  -3.155   6.992   7.406 -0.1188  0.3402 -0.3530
 1219WAT     H1 6681  -3.235   7.013   7.359 -1.7037 -1.7667  1.2163
 1219WAT     H2 6682  -3.130   6.906   7.373 -0.2692 -0.3786  1.3322
 1219WAT    EPW 6683  -3.162   6.984   7.395 -0.3477 -0.0324  0.0763
 1220WAT      O 6684   3.079  10.200   5.472  0.2173 -0.5480 -0.6497
 1220WAT     H1 6685   3.001  10.251   5.495  0.4850  1.3005 -3.3434
 1220WAT     H2 6686   3.045  10.113   5.451 -0.6468 -0.7137  1.2239
 1220WAT    EPW 6687   3.064  10.196   5.472  0.1386 -0.3257 -0.7579
 1221WAT      O 6688   2.177   2.039   0.387  0.1991 -0.9270  0.6010
 1221WAT     H1 6689   2.213   2.015   0.472  1.4201  0.2004  0.4308
 1221WAT     H2 6690   2.133   2.122   0.401 -1.0204 -1.5248  0.4541
 1221WAT    EPW 6691   2.176   2.047   0.400  0.1992 -0.8572  0.5592
 1222WAT      O 6692  -6.105   3.879   8.797 -0.1548 -1.5770  0.3853
 1222WAT     H1 6693  -6.042   3.844   8.861  2.3814  1.8894  0.0354
 1222WAT     H2 6694  -6.052   3.903   8.721 -1.9451  0.9851 -0.1772
 1222WAT    EPW 6695  -6.089   3.877   8.796 -0.0565 -0.7819  0.2651
 1223WAT      O 6696  -7.143   9.519   8.559  0.4206  0.6157 -0.4691
 1223WAT     H1 6697  -7.103   9.476   8.635 -0.3373  0.2208 -0.2898
 1223WAT     H2 6698  -7.190   9.593   8.596 -2.1347 -1.0393 -0.1914
 1223WAT    EPW 6699  -7.144   9.523   8.574 -0.0162  0.3452 -0.4086
 1224WAT      O 6700   8.764   2.116   2.264  0.0644 -0.2263 -0.5598
 1224WAT     H1 6701   8.798   2.182   2.204  1.3411 -2.2112 -2.1610
 1224WAT     H2 6702   8.829   2.046   2.262  0.3899 -0.3050  3.5014
 1224WAT    EPW 6703   8.777   2.115   2.256  0.2756 -0.4984 -0.2353
 1225WAT      O 6704   5.635   4.039   0.325  0.3837  0.5099 -1.3984
 1225WAT     H1 6705   5.571   4.093   0.371  0.3016 -0.9094  0.2471
 1225WAT     H2 6706   5.587   3.962   0.297  1.7252 -1.9268  2.2646
 1225WAT    EPW 6707   5.621   4.036   0.327  0.5498  0.0014 -0.6982
 1226WAT      O 6708  -0.292   3.927   0.054  0.8143 -0.1243  0.2082
 1226WAT     H1 6709  -0.367   3.936   0.112  1.5570 -0.2168  1.2106
 1226WAT     H2 6710  -0.260   4.017   0.040  0.2780 -0.0421 -0.5665
 1226WAT    EPW 6711  -0.297   3.940   0.060  0.8415 -0.1256  0.2383
 1227WAT      O 6712  -6.466   8.845   8.298  0.4249 -0.8027  0.0461
 1227WAT     H1 6713  -6.374   8.826   8.312  0.7146  0.3431 -0.2137
 1227WAT     H2 6714  -6.468   8.894   8.215 -0.4626 -1.1896 -0.1780
 1227WAT    EPW 6715  -6.454   8.849   8.289  0.3459 -0.7024 -0.0176
 1228WAT      O 6716   6.218   2.971   2.498 -0.4204 -0.0966  0.5756
 1228WAT     H1 6717   6.294   3.021   2.469 -1.4596  0.8766 -0.5306
 1228WAT     H2 6718   6.229   2.885   2.457  1.1623 -0.7153  2.1635
 1228WAT    EPW 6719   6.229   2.966   2.489 -0.3488 -0.0498  0.6392
 1229WAT      O 6720   2.184   6.173   6.234 -0.0140  0.2325  0.0683
 1229WAT     H1 6721   2.181   6.184   6.139  1.1555 -1.1602 -0.1703
 1229WAT     H2 6722   2.255   6.110   6.249 -0.8979 -0.4347  1.7975
 1229WAT    EPW 6723   2.193   6.166   6.224  0.0236 -0.0391  0.2646
 1230WAT      O 6724  -0.489   4.780   0.894  0.0041  0.0865  0.4617
 1230WAT     H1 6725  -0.406   4.799   0.937  0.9339 -1.2705 -0.6609
 1230WAT     H2 6726  -0.531   4.866   0.885  1.1389  0.7598  1.2811
 1230WAT    EPW 6727  -0.484   4.794   0.899  0.2764 -0.0038  0.4217
 1231WAT      O 6728  -3.872   3.263   7.129  0.0632 -0.6619  0.3555
 1231WAT     H1 6729  -3.816   3.274   7.205  1.7826 -1.5710 -0.7217
 1231WAT     H2 6730  -3.959   3.287   7.160  1.0970  1.3374  1.9436
 1231WAT    EPW 6731  -3.876   3.267   7.143  0.4263 -0.5182  0.4230
 1232WAT      O 6732  -0.188   4.596   5.218 -0.9494  0.1692 -0.7434
 1232WAT     H1 6733  -0.264   4.599   5.275 -1.5205  0.4937 -1.5033
 1232WAT     H2 6734  -0.140   4.677   5.237 -1.7335  0.8355 -1.5033
 1232WAT    EPW 6735  -0.191   4.607   5.228 -1.1281  0.2999 -0.9437
 1233WAT      O 6736  -1.746   9.744   0.051 -0.1041  0.9072 -0.1792
 1233WAT     H1 6737  -1.696   9.803  -0.005  0.8344  2.3354  2.0206
 1233WAT     H2 6738  -1.689   9.730   0.127 -1.5347 -0.4853  0.6864
 1233WAT    EPW 6739  -1.732   9.750   0.054 -0.1690  0.9122  0.2251
 1234WAT      O 6740   3.837   5.681   5.856 -0.3597 -0.3435  0.2202
 1234WAT     H1 6741   3.755   5.683   5.807 -0.9893 -0.2657  1.2579
 1234WAT     H2 6742   3.885   5.607   5.818  1.0876  2.1628 -3.4327
 1234WAT    EPW 6743   3.833   5.671   5.844 -0.2519 -0.0029 -0.1247
 1235WAT      O 6744   1.542   4.352   3.875  0.5742 -0.1031 -0.2529
 1235WAT     H1 6745   1.501   4.266   3.860 -0.6764  0.6833 -1.6871
 1235WAT     H2 6746   1.530   4.369   3.968 -0.8518 -0.6890 -0.3019
 1235WAT    EPW 6747   1.535   4.343   3.885  0.2212 -0.0768 -0.4485
 1236WAT      O 6748  -0.221   2.656   7.820  0.4155 -0.8645  0.0895
 1236WAT     H1 6749  -0.156   2.683   7.885  0.4898  0.1888 -0.4073
 1236WAT     H2 6750  -0.212   2.719   7.749 -1.3955 -0.4543  0.1656
 1236WAT    EPW 6751  -0.211   2.667   7.820  0.1864 -0.6715  0.0341
 1237WAT      O 6752  -4.067   6.983   5.013 -0.3718 -0.4342 -0.0279
 1237WAT     H1 6753  -4.049   7.076   4.994  0.0849 -0.4774  0.1814
 1237WAT     H2 6754  -3.991   6.954   5.063  0.2654 -1.3621 -1.4825
 1237WAT    EPW 6755  -4.055   6.992   5.017 -0.2275 -0.5624 -0.1922
 1238WAT      O 6756   0.808   7.568   6.428 -0.8783  0.3928  0.4328
 1238WAT     H1 6757   0.849   7.645   6.467  0.7799  0.9148 -2.1172
 1238WAT     H2 6758   0.880   7.507   6.415 -1.5461 -0.1495 -0.8559
 1238WAT    EPW 6759   0.823   7.570   6.432 -0.7477  0.3901 -0.0734
 1239WAT      O 6760  -4.308   9.118   8.361 -0.2400  0.3798  0.0845
 1239WAT     H1 6761  -4.305   9.189   8.297  1.8099 -0.0638 -0.3673
 1239WAT     H2 6762  -4.397   9.122   8.396 -0.8645  1.7572 -1.5034
 1239WAT    EPW 6763  -4.319   9.128   8.357 -0.0517  0.5031 -0.1845
 1240WAT      O 6764  -2.265   8.600   3.604  0.3094  0.0828  0.1673
 1240WAT     H1 6765  -2.258   8.519   3.656 -0.2694 -0.1265 -0.0703
 1240WAT     H2 6766  -2.282   8.668   3.669 -0.1670 -0.1391  0.2755
 1240WAT    EPW 6767  -2.266   8.598   3.619  0.1702  0.0257  0.1502
 1241WAT      O 6768   4.566   6.412   5.195  0.2550 -0.0150 -0.1746
 1241WAT     H1 6769   4.484   6.445   5.159  0.5728  1.0578  0.0485
 1241WAT     H2 6770   4.562   6.318   5.181 -1.9192 -0.2716  1.7139
 1241WAT    EPW 6771   4.555   6.404   5.188  0.0103  0.0927  0.1040
 1242WAT      O 6772   0.533   1.365   1.462 -0.0371  0.0488  0.8207
 1242WAT     H1 6773   0.576   1.318   1.533  1.6546  2.1509  1.2921
 1242WAT     H2 6774   0.584   1.446   1.452 -2.3519  1.4758 -0.3907
 1242WAT    EPW 6775   0.545   1.370   1.470 -0.1192  0.5142  0.7231
 1243WAT      O 6776  -1.197   3.160   3.921 -0.4474  0.5283 -0.0614
 1243WAT     H1 6777  -1.180   3.218   3.995 -0.3393  1.0334 -0.4805
 1243WAT     H2 6778  -1.177   3.072   3.954  4.4623  1.0945 -0.8567
 1243WAT    EPW 6779  -1.192   3.156   3.935  0.2144  0.6696 -0.2215
 1244WAT      O 6780   1.574   3.373   7.556 -0.1807 -0.8997 -0.0463
 1244WAT     H1 6781   1.662   3.404   7.535 -0.1522 -0.8187  0.1901
 1244WAT     H2 6782   1.522   3.453   7.564 -0.2159 -0.9350  0.0808
 1244WAT    EPW 6783   1.579   3.388   7.555 -0.1816 -0.8937  0.0017
 1245WAT      O 6784  -3.565   7.219   7.562  0.5294 -0.4277 -0.2597
 1245WAT     H1 6785  -3.576   7.125   7.548 -0.9482 -0.7662  2.4820
 1245WAT     H2 6786  -3.646   7.258   7.530  0.2647 -0.3443  0.4996
 1245WAT    EPW 6787  -3.577   7.212   7.556  0.2995 -0.4613  0.2019
 1246WAT      O 6788  -1.567   6.142   5.655  0.0627  0.5993  0.2247
 1246WAT     H1 6789  -1.633   6.119   5.590 -0.7692  1.4470  0.7351
 1246WAT     H2 6790  -1.493   6.086   5.635 -1.0542 -0.8769  0.0401
 1246WAT    EPW 6791  -1.566   6.132   5.644 -0.1944  0.5164  0.2677
 1247WAT      O 6792  -2.959   0.863   4.567  0.1181  0.4259  0.7096
 1247WAT     H1 6793  -2.881   0.901   4.606  2.7588  1.1731 -4.4124
 1247WAT     H2 6794  -2.991   0.931   4.508  0.4084 -2.4213 -3.0892
 1247WAT    EPW 6795  -2.953   0.877   4.564  0.5046  0.1489 -0.4671
 1248WAT      O 6796  -3.687   9.746   2.384  0.3680 -0.1482 -0.3566
 1248WAT     H1 6797  -3.634   9.713   2.312  1.3157  1.0188 -0.2329
 1248WAT     H2 6798  -3.759   9.684   2.392  2.1996 -2.3392  0.0791
 1248WAT    EPW 6799  -3.690   9.734   2.376  0.7346 -0.2832 -0.2829
 1249WAT      O 6800   2.858   0.039   0.971 -0.3601 -0.2066 -0.4988
 1249WAT     H1 6801   2.943   0.001   0.947 -0.0006  1.0174 -1.2850
 1249WAT     H2 6802   2.814  -0.029   1.021  1.1066 -0.8559 -0.0443
 1249WAT    EPW 6803   2.864   0.025   0.974 -0.1192 -0.1311 -0.5425
 1250WAT      O 6804  -0.704   2.220   0.154 -0.6344  0.0681  0.0601
 1250WAT     H1 6805  -0.724   2.133   0.191 -0.5114  0.2239  0.5032
 1250WAT     H2 6806  -0.638   2.256   0.213 -1.6407  1.0096  0.6482
 1250WAT    EPW 6807  -0.698   2.213   0.167 -0.7509  0.2128  0.1961
 1251WAT      O 6808  -4.669   5.099   6.508 -0.1031 -0.6666  0.2435
 1251WAT     H1 6809  -4.576   5.108   6.529 -0.8523  2.3874  3.0842
 1251WAT     H2 6810  -4.705   5.048   6.580 -0.9034 -0.3934  0.0442
 1251WAT    EPW 6811  -4.662   5.094   6.520 -0.3073 -0.2277  0.5920
 1252WAT      O 6812   6.237   0.983   6.333  0.7665 -0.2080 -0.0293
 1252WAT     H1 6813   6.294   0.978   6.409 -0.5197  3.6097  1.4318
 1252WAT     H2 6814   6.206   1.073   6.332 -1.8466 -0.9257 -3.2496
 1252WAT    EPW 6815   6.240   0.994   6.343  0.2522  0.2009 -0.2613
 1253WAT      O 6816  -3.647   0.470   7.680  0.1829 -0.1031  0.2582
 1253WAT     H1 6817  -3.652   0.380   7.647  1.0855 -0.3668  0.8040
 1253WAT     H2 6818  -3.617   0.460   7.771 -1.9888  0.6119  1.1328
 1253WAT    EPW 6819  -3.644   0.456   7.688  0.0155 -0.0435  0.4456
 1254WAT      O 6820   2.598   2.505   8.918  0.1886 -0.7346 -0.5942
 1254WAT     H1 6821   2.651   2.431   8.947  1.9913  0.9147  0.6061
 1254WAT     H2 6822   2.655   2.553   8.858  0.0750  0.9924  0.5943
 1254WAT    EPW 6823   2.613   2.502   8.914  0.4115 -0.2892 -0.2789
 1255WAT      O 6824  -5.306   4.452   6.348 -0.9423 -0.1031  0.1603
 1255WAT     H1 6825  -5.388   4.486   6.313 -1.1302  0.3101  0.9737
 1255WAT     H2 6826  -5.314   4.464   6.443 -0.8486 -2.0348  0.4704
 1255WAT    EPW 6827  -5.318   4.458   6.356 -0.9546 -0.3035  0.3085
 1256WAT      O 6828  -4.705   8.441   4.137  0.9196 -0.0197 -0.0347
 1256WAT     H1 6829  -4.618   8.435   4.099  0.5732 -1.1990 -0.7169
 1256WAT     H2 6830  -4.756   8.374   4.090 -0.4528  0.9194  0.0571
 1256WAT    EPW 6831  -4.700   8.431   4.125  0.6928 -0.0510 -0.1128
 1257WAT      O 6832   3.977   5.229   1.690 -0.4186 -0.0828 -0.5734
 1257WAT     H1 6833   3.943   5.154   1.738 -0.7892  0.0504 -0.6301
 1257WAT     H2 6834   4.056   5.254   1.739 -1.6299  1.0392  0.9234
 1257WAT    EPW 6835   3.983   5.223   1.703 -0.6272  0.0827 -0.3834
 1258WAT      O 6836  -1.356   2.463   2.101 -0.8398 -0.0959 -0.3355
 1258WAT     H1 6837  -1.344   2.469   2.196 -0.3703 -0.7419 -0.3443
 1258WAT     H2 6838  -1.371   2.370   2.085 -1.3026  0.0631 -0.8566
 1258WAT    EPW 6839  -1.357   2.451   2.111 -0.8389 -0.1600 -0.4054
 1259WAT      O 6840  -3.799   7.865   7.397  0.1056  0.1288  0.3674
 1259WAT     H1 6841  -3.816   7.884   7.489  1.8882 -2.6347  1.4049
 1259WAT     H2 6842  -3.876   7.816   7.368 -1.0959  2.1958 -0.1093
 1259WAT    EPW 6843  -3.811   7.861   7.405  0.1823  0.0372  0.4416
 1260WAT      O 6844   0.003   0.025   3.667  0.0669  0.2007 -0.1387
 1260WAT     H1 6845   0.078   0.010   3.724 -1.9182  0.4201  2.7393
 1260WAT     H2 6846   0.041   0.037   3.580  3.1116 -2.4173  0.6591
 1260WAT    EPW 6847   0.018   0.025   3.663  0.2067 -0.1156  0.3461
 1261WAT      O 6848  -4.284   8.279   3.603 -0.0860  0.2869 -0.2764
 1261WAT     H1 6849  -4.334   8.357   3.577 -1.1758 -0.5845 -0.9053
 1261WAT     H2 6850  -4.201   8.314   3.636 -1.6768  1.9208  2.3581
 1261WAT    EPW 6851  -4.280   8.294   3.604 -0.4394  0.3877 -0.0119
 1262WAT      O 6852   6.894   1.104   5.204 -0.6280 -0.4635 -0.5656
 1262WAT     H1 6853   6.914   1.016   5.173 -2.2059 -0.8627 -0.5013
 1262WAT     H2 6854   6.907   1.160   5.126  0.8375 -0.6389 -0.4884
 1262WAT    EPW 6855   6.899   1.100   5.189 -0.6428 -0.5393 -0.5469
 1263WAT      O 6856   1.272   4.435   3.293  0.6436  0.1775 -0.0620
 1263WAT     H1 6857   1.256   4.524   3.322 -1.6793  0.0966 -0.8686
 1263WAT     H2 6858   1.292   4.442   3.200  1.1256 -0.0911  0.0172
 1263WAT    EPW 6859   1.272   4.447   3.285  0.4008  0.1314 -0.1581
 1264WAT      O 6860  -3.620   0.163   7.936 -0.2427 -0.5966  0.9607
 1264WAT     H1 6861  -3.593   0.101   8.003  1.1650 -2.8012 -1.4534
 1264WAT     H2 6862  -3.544   0.170   7.877 -1.3374  1.3253 -0.3495
 1264WAT    EPW 6863  -3.606   0.156   7.937 -0.2013 -0.6339  0.4697
 1265WAT      O 6864   3.739   1.051   6.700  0.1938 -0.6244 -0.1087
 1265WAT     H1 6865   3.799   1.071   6.628  0.5387  0.5298  0.4733
 1265WAT     H2 6866   3.674   0.992   6.662 -0.3438  0.9044 -1.7101
 1265WAT    EPW 6867   3.738   1.046   6.686  0.1684 -0.2705 -0.2432
 1266WAT      O 6868  -3.519   8.877   0.971 -0.3923 -0.1404 -0.1045
 1266WAT     H1 6869  -3.522   8.932   0.892 -0.6710  0.4777  0.3255
 1266WAT     H2 6870  -3.601   8.897   1.017  0.1488  0.1625  0.7594
 1266WAT    EPW 6871  -3.530   8.887   0.966 -0.3577 -0.0191  0.0662
 1267WAT      O 6872   6.469  10.290   0.915  0.1855  0.4662  0.3826
 1267WAT     H1 6873   6.417  10.362   0.880  0.2245  0.8055  1.0253
 1267WAT     H2 6874   6.487  10.314   1.005  0.2367 -0.3303  0.5934
 1267WAT    EPW 6875   6.465  10.303   0.922  0.1974  0.4058  0.4952
 1268WAT      O 6876   3.010   9.393   0.488 -0.5648 -0.3591 -0.7157
 1268WAT     H1 6877   2.926   9.357   0.458 -0.2490 -2.7416  1.0225
 1268WAT     H2 6878   3.075   9.351   0.432 -0.2907 -1.5677  0.4650
 1268WAT    EPW 6879   3.007   9.383   0.477 -0.4870 -0.8330 -0.3307
 1269WAT      O 6880   5.256   8.791   2.471 -0.5042 -0.0945 -0.4508
 1269WAT     H1 6881   5.335   8.817   2.518 -1.0669 -0.1579  0.5579
 1269WAT     H2 6882   5.266   8.829   2.383  1.1310 -1.0150 -0.6914
 1269WAT    EPW 6883   5.267   8.800   2.465 -0.3626 -0.2246 -0.3494
 1270WAT      O 6884   0.138   3.723   4.195  0.9504  0.3804  0.0509
 1270WAT     H1 6885   0.163   3.771   4.116 -0.3288  0.6364 -0.2142
 1270WAT     H2 6886   0.047   3.698   4.181  0.7155  0.3742  1.4170
 1270WAT    EPW 6887   0.129   3.726   4.183  0.7507  0.4133  0.1960
 1271WAT      O 6888   2.954   9.568   1.617 -0.0661 -0.5497  0.4474
 1271WAT     H1 6889   3.018   9.508   1.656 -0.4501  0.7751  3.4057
 1271WAT     H2 6890   2.871   9.543   1.657 -0.5975  0.5548  0.0674
 1271WAT    EPW 6891   2.952   9.557   1.628 -0.1869 -0.2294  0.7874
 1272WAT      O 6892  -1.491   8.302   8.376  0.2235 -0.2888 -0.4006
 1272WAT     H1 6893  -1.553   8.331   8.443  0.9628  0.9113 -0.1927
 1272WAT     H2 6894  -1.545   8.265   8.307 -0.5919 -1.0315  0.6028
 1272WAT    EPW 6895  -1.506   8.301   8.376  0.2135 -0.2279 -0.2413
 1273WAT      O 6896  -4.746   9.722   8.686  0.3043  0.4079  0.9128
 1273WAT     H1 6897  -4.739   9.699   8.779  0.3507  1.4569  1.1800
 1273WAT     H2 6898  -4.779   9.642   8.645 -2.2997  0.6567  2.2407
 1273WAT    EPW 6899  -4.750   9.708   8.693 -0.0331  0.5789  1.1230
 1274WAT      O 6900  -3.151   7.099   1.646  0.2341 -0.3592  0.7769
 1274WAT     H1 6901  -3.209   7.102   1.723 -1.9271 -1.7873 -0.6981
 1274WAT     H2 6902  -3.140   7.191   1.622 -0.1173  0.0299  2.0172
 1274WAT    EPW 6903  -3.157   7.112   1.653 -0.0974 -0.4964  0.7459
 1275WAT      O 6904  -6.251   7.571   6.649  0.2830  0.9416  0.0471
 1275WAT     H1 6905  -6.201   7.595   6.727 -0.5016  1.0650  0.5229
 1275WAT     H2 6906  -6.263   7.476   6.657  0.1090  0.9711  0.1327
 1275WAT    EPW 6907  -6.246   7.561   6.660  0.1564  0.9620  0.1211
 1276WAT      O 6908  -6.088   7.608   7.328 -0.5333  0.5650  0.2686
 1276WAT     H1 6909  -6.018   7.623   7.264  0.7785 -3.9045  0.2961
 1276WAT     H2 6910  -6.149   7.549   7.284 -1.2586 -0.1382  2.0878
 1276WAT    EPW 6911  -6.087   7.602   7.314 -0.4561 -0.1171  0.5121
 1277WAT      O 6912  -6.065   2.834   8.683  1.3190 -0.0396 -0.0681
 1277WAT     H1 6913  -6.160   2.833   8.674  1.2897 -0.9311  0.2534
 1277WAT     H2 6914  -6.049   2.893   8.757  1.1802  1.9615 -1.5444
 1277WAT    EPW 6915  -6.075   2.842   8.692  1.2968  0.1068 -0.2198
 1278WAT      O 6916   6.337   5.097   1.333 -0.9279  0.1790  0.5131
 1278WAT     H1 6917   6.309   5.159   1.400 -2.5091  0.9032 -0.7489
 1278WAT     H2 6918   6.283   5.019   1.347  0.1443 -0.4763  1.2724
 1278WAT    EPW 6919   6.327   5.095   1.344 -0.9949  0.1881  0.4468
 1279WAT      O 6920   0.892   5.607   4.252  0.1142  0.4174 -0.6678
 1279WAT     H1 6921   0.964   5.657   4.213  0.6814  0.2025  0.0860
 1279WAT     H2 6922   0.931   5.564   4.328 -0.3020 -1.2862 -1.3708
 1279WAT    EPW 6923   0.907   5.608   4.257  0.1341  0.1643 -0.6611
 1280WAT      O 6924   1.901  10.219   0.083 -0.0330 -0.0262 -0.6440
 1280WAT     H1 6925   1.868  10.308   0.068 -0.1113 -0.0092 -0.3733
 1280WAT     H2 6926   1.954  10.200   0.006  0.8874  0.6759 -0.2003
 1280WAT    EPW 6927   1.904  10.229   0.071  0.0780  0.0687 -0.5497
 1281WAT      O 6928   0.800   5.317   1.189  0.1047 -0.3490 -0.1200
 1281WAT     H1 6929   0.791   5.413   1.186  0.3081 -0.3308 -0.1198
 1281WAT     H2 6930   0.820   5.291   1.099 -2.1269 -0.6145 -0.6033
 1281WAT    EPW 6931   0.801   5.326   1.177 -0.1628 -0.3817 -0.1837
 1282WAT      O 6932  -4.766   1.875   7.801 -0.7872 -0.1185  0.2946
 1282WAT     H1 6933  -4.852   1.908   7.775 -0.6189  0.4361  0.4181
 1282WAT     H2 6934  -4.743   1.812   7.733 -1.8334 -1.2196  0.9263
 1282WAT    EPW 6935  -4.775   1.871   7.789 -0.9029 -0.1907  0.3941
 1283WAT      O 6936  -3.838   0.422   8.794  0.1205 -0.4698  0.1261
 1283WAT     H1 6937  -3.760   0.437   8.741 -0.1316 -2.4626 -0.8706
 1283WAT     H2 6938  -3.810   0.359   8.860 -0.4685 -0.6650  0.1927
 1283WAT    EPW 6939  -3.824   0.416   8.796  0.0095 -0.7584  0.0033
 1284WAT      O 6940   5.770   2.619   0.582 -0.0978 -0.0076 -0.5489
 1284WAT     H1 6941   5.674   2.625   0.580 -0.1975 -0.5021  1.1196
 1284WAT     H2 6942   5.796   2.619   0.490 -1.7730 -0.9078 -1.0705
 1284WAT    EPW 6943   5.761   2.620   0.569 -0.3319 -0.1916 -0.3976
 1285WAT      O 6944   2.076   0.260   2.659  0.3564  0.2143  0.2865
 1285WAT     H1 6945   1.992   0.263   2.614  0.5658  0.5332 -0.0958
 1285WAT     H2 6946   2.059   0.212   2.740  0.4403 -2.5733 -1.1985
 1285WAT    EPW 6947   2.063   0.254   2.664  0.3951 -0.1113  0.0403
 1286WAT      O 6948   6.218   4.519   4.147  0.4737 -0.0927 -0.4240
 1286WAT     H1 6949   6.193   4.518   4.239 -0.2690 -0.9207 -0.6157
 1286WAT     H2 6950   6.157   4.458   4.105  1.7636 -0.9050 -1.2042
 1286WAT    EPW 6951   6.207   4.510   4.154  0.5460 -0.3092 -0.5522
 1287WAT      O 6952   0.136   4.796   2.917 -0.0107 -0.4718 -0.1620
 1287WAT     H1 6953   0.060   4.747   2.947 -0.7715  1.1935  0.7519
 1287WAT     H2 6954   0.130   4.881   2.961  1.8566  0.0655 -0.8108
 1287WAT    EPW 6955   0.125   4.801   2.927  0.1352 -0.1812 -0.1272
 1288WAT      O 6956   3.886   4.314   0.514 -0.5970  0.6609 -0.3060
 1288WAT     H1 6957   3.966   4.352   0.549  0.1154 -0.6129 -0.4967
 1288WAT     H2 6958   3.832   4.389   0.491 -0.6251  1.5834  2.4029
 1288WAT    EPW 6959   3.889   4.329   0.516 -0.5068  0.6144  0.0261
 1289WAT      O 6960   7.060   1.483   0.660 -0.2999 -0.4469 -0.4843
 1289WAT     H1 6961   7.154   1.500   0.653 -0.1214 -1.4474 -0.5782
 1289WAT     H2 6962   7.020   1.555   0.611  0.3311  0.8177  0.7692
 1289WAT    EPW 6963   7.067   1.495   0.653 -0.1931 -0.4121 -0.3313
 1290WAT      O 6964  -2.723   5.064   2.036 -0.4340 -0.4354 -0.0000
 1290WAT     H1 6965  -2.631   5.086   2.025 -1.0239  2.5117  0.2557
 1290WAT     H2 6966  -2.754   5.048   1.947 -0.5670  2.9873 -0.7166
 1290WAT    EPW 6967  -2.715   5.065   2.023 -0.5294  0.4048 -0.0608
 1291WAT      O 6968   3.712   2.957   0.566 -0.0728  0.2651  0.0132
 1291WAT     H1 6969   3.805   2.967   0.547 -0.2081  3.7937  0.4240
 1291WAT     H2 6970   3.685   3.043   0.600 -3.5291 -0.5587 -0.2135
 1291WAT    EPW 6971   3.721   2.970   0.568 -0.5466  0.6218  0.0375
 1292WAT      O 6972   2.270   2.474   0.756 -0.5131 -0.5158  0.7082
 1292WAT     H1 6973   2.197   2.452   0.698 -0.3837 -0.5605  0.5625
 1292WAT     H2 6974   2.308   2.553   0.718 -0.3983 -0.5727  0.7041
 1292WAT    EPW 6975   2.265   2.482   0.743 -0.4809 -0.5292  0.6885
 1293WAT      O 6976   4.275   8.427   3.132  0.3937 -0.0362  0.2184
 1293WAT     H1 6977   4.290   8.502   3.189 -3.2351  0.2873  0.9849
 1293WAT     H2 6978   4.198   8.383   3.169  2.3225 -4.2685 -0.1432
 1293WAT    EPW 6979   4.267   8.431   3.144  0.1693 -0.5517  0.2718
 1294WAT      O 6980  -1.042   0.887   2.428  0.0843 -0.3204  0.8250
 1294WAT     H1 6981  -1.042   0.793   2.409 -1.0311 -0.0229 -0.8973
 1294WAT     H2 6982  -1.093   0.895   2.509 -2.6146 -0.9971 -0.6918
 1294WAT    EPW 6983  -1.049   0.876   2.436 -0.4188 -0.3704  0.3978
 1295WAT      O 6984   3.720   4.715   2.870 -0.6768 -0.6172  0.6722
 1295WAT     H1 6985   3.807   4.676   2.861 -0.2030  0.6412 -0.4990
 1295WAT     H2 6986   3.663   4.658   2.819 -0.7148 -1.9044  2.0984
 1295WAT    EPW 6987   3.724   4.703   2.862 -0.6193 -0.6208  0.7057
 1296WAT      O 6988   2.177   8.431   7.315 -0.0102  0.0246 -0.7572
 1296WAT     H1 6989   2.171   8.342   7.278  1.2009 -0.4851  0.1995
 1296WAT     H2 6990   2.122   8.484   7.257 -3.2643 -1.8465  0.3641
 1296WAT    EPW 6991   2.169   8.426   7.302 -0.2797 -0.2894 -0.4833
 1297WAT      O 6992  -0.038   4.337   6.030 -0.1673  0.1172 -0.0299
 1297WAT     H1 6993  -0.129   4.309   6.039  0.0603 -1.0057 -1.0373
 1297WAT     H2 6994   0.004   4.268   5.978  2.2411 -1.5160  3.6571
 1297WAT    EPW 6995  -0.044   4.324   6.024  0.1804 -0.2463  0.3233
 1298WAT      O 6996   0.075   9.901   0.540 -0.1676 -0.2998 -0.5266
 1298WAT     H1 6997   0.042   9.941   0.459  1.2992  0.1647 -0.9190
 1298WAT     H2 6998   0.154   9.855   0.513  0.0407 -0.6068  0.5634
 1298WAT    EPW 6999   0.081   9.900   0.526  0.0533 -0.2785 -0.4346
 1299WAT      O 7000  -7.557   9.626   8.538  0.0963 -0.2172  0.4059
 1299WAT     H1 7001  -7.500   9.549   8.536  0.6025  0.1569 -0.4905
 1299WAT     H2 7002  -7.642   9.594   8.507 -0.5624 -1.0364  2.8761
 1299WAT    EPW 7003  -7.560   9.612   8.534  0.0763 -0.2761  0.6132
 1300WAT      O 7004   2.629   2.897   4.795  0.3129  0.4183  0.4417
 1300WAT     H1 7005   2.632   2.899   4.890  0.4769  1.9144  0.4166
 1300WAT     H2 7006   2.542   2.928   4.772  1.1548  2.7370  0.0886
 1300WAT    EPW 7007   2.618   2.901   4.804  0.4456  0.9214  0.3917
 1301WAT      O 7008   4.507   9.300   1.721 -0.1374  0.1418  0.1202
 1301WAT     H1 7009   4.500   9.395   1.714 -1.3428  0.1036  0.5460
 1301WAT     H2 7010   4.470   9.267   1.640  1.3512  0.0343 -0.5498
 1301WAT    EPW 7011   4.501   9.308   1.710 -0.1001  0.1225  0.0880
 1302WAT      O 7012   3.054   7.826   4.808 -0.1078  0.5492  0.6503
 1302WAT     H1 7013   2.993   7.847   4.878 -0.2237  2.9141 -0.0831
 1302WAT     H2 7014   3.002   7.836   4.728  0.2450 -1.2865  0.1459
 1302WAT    EPW 7015   3.039   7.830   4.806 -0.0765  0.6192  0.4871
 1303WAT      O 7016   0.986   2.648   7.766  0.4783  0.0654  0.0497
 1303WAT     H1 7017   1.067   2.611   7.801 -0.1415 -2.1910 -0.7497
 1303WAT     H2 7018   1.006   2.666   7.674  0.5839  1.2736  0.2821
 1303WAT    EPW 7019   1.000   2.646   7.758  0.4104 -0.0728 -0.0250
 1304WAT      O 7020  -0.279  10.142   4.195  0.7082 -0.4982 -0.4736
 1304WAT     H1 7021  -0.343  10.083   4.154 -1.0854  0.0430  1.3793
 1304WAT     H2 7022  -0.256  10.099   4.277  0.3316  0.7513  0.3112
 1304WAT    EPW 7023  -0.284  10.128   4.200  0.4220 -0.2618 -0.1256
 1305WAT      O 7024   4.193   3.588   4.867  0.1094  0.5621 -0.4990
 1305WAT     H1 7025   4.196   3.626   4.955  4.2961 -3.0140  1.2638
 1305WAT     H2 7026   4.133   3.514   4.875  1.1974 -0.3311 -0.2437
 1305WAT    EPW 7027   4.186   3.583   4.880  0.8051 -0.0274 -0.2329
 1306WAT      O 7028  -2.229   1.489   5.668  0.0313 -0.2710  0.5631
 1306WAT     H1 7029  -2.140   1.523   5.662  0.6677 -1.8288  0.6223
 1306WAT     H2 7030  -2.250   1.495   5.762  0.3028 -0.4382  0.6367
 1306WAT    EPW 7031  -2.220   1.494   5.680  0.1509 -0.4985  0.5808
 1307WAT      O 7032   1.214   6.951   0.676 -0.0362 -0.3115  1.0027
 1307WAT     H1 7033   1.185   6.970   0.765 -0.1401  1.5825  0.5944
 1307WAT     H2 7034   1.270   7.024   0.652 -1.0465 -0.0949 -0.9491
 1307WAT    EPW 7035   1.217   6.963   0.685 -0.1832 -0.0334  0.6914
 1308WAT      O 7036  -0.456   0.590   2.111  0.5416  0.5828  1.1215
 1308WAT     H1 7037  -0.391   0.617   2.176  1.6966 -0.7057  0.5546
 1308WAT     H2 7038  -0.537   0.581   2.161  0.7047  2.5224  1.7888
 1308WAT    EPW 7039  -0.458   0.592   2.127  0.7154  0.6687  1.1348
 1309WAT      O 7040   5.902   2.436   5.964  0.2159 -1.0713  0.3616
 1309WAT     H1 7041   5.965   2.456   5.895 -0.8193 -0.5525 -0.4665
 1309WAT     H2 7042   5.898   2.515   6.017  0.7354 -1.3390  0.8121
 1309WAT    EPW 7043   5.910   2.449   5.962  0.1478 -1.0381  0.3116
 1310WAT      O 7044   8.260   4.293   0.819 -0.0651 -0.3439 -0.2364
 1310WAT     H1 7045   8.336   4.310   0.875  0.6670  0.4033 -1.4180
 1310WAT     H2 7046   8.273   4.350   0.743 -1.3680 -0.8537 -0.8691
 1310WAT    EPW 7047   8.272   4.303   0.817 -0.1407 -0.3126 -0.4757
 1311WAT      O 7048   2.500   3.283   6.646 -0.0148 -0.1211  0.4459
 1311WAT     H1 7049   2.527   3.368   6.682 -0.3989  0.5609 -0.8049
 1311WAT     H2 7050   2.576   3.252   6.596  0.5518 -1.1085  1.8618
 1311WAT    EPW 7051   2.513   3.290   6.644  0.0094 -0.1613  0.4675
 1312WAT      O 7052  -4.202   2.631   8.875  0.0417  0.0478 -0.0383
 1312WAT     H1 7053  -4.227   2.722   8.860  1.2081  0.6586  1.4480
 1312WAT     H2 7054  -4.194   2.593   8.787  1.9416  2.0694 -0.8298
 1312WAT    EPW 7055  -4.204   2.638   8.861  0.4461  0.3949  0.0529
 1313WAT      O 7056  -4.210   9.749   1.563  0.8374 -0.0867 -0.4612
 1313WAT     H1 7057  -4.193   9.837   1.530  1.3702  0.0194  0.0903
 1313WAT     H2 7058  -4.147   9.737   1.634 -0.0959 -0.4212  0.3328
 1313WAT    EPW 7059  -4.200   9.759   1.568  0.7846 -0.1173 -0.2838
 1314WAT      O 7060  -4.813   8.675   7.234  0.1044 -0.2701  0.0239
 1314WAT     H1 7061  -4.741   8.612   7.241  1.0067  0.3628 -2.4053
 1314WAT     H2 7062  -4.880   8.642   7.293  1.7481 -1.7766  1.1560
 1314WAT    EPW 7063  -4.812   8.663   7.243  0.4401 -0.3853 -0.1469
 1315WAT      O 7064   0.504   0.088   5.542 -0.3052  0.5781  0.1072
 1315WAT     H1 7065   0.526   0.011   5.489 -0.2250  0.9945 -0.4640
 1315WAT     H2 7066   0.578   0.148   5.529  0.0056  0.4530  1.1590
 1315WAT    EPW 7067   0.517   0.086   5.534 -0.2536  0.6165  0.1707
 1316WAT      O 7068  -1.329   0.849   5.685 -0.5637 -0.2329 -0.5093
 1316WAT     H1 7069  -1.302   0.919   5.744  1.0590 -3.0839  2.4641
 1316WAT     H2 7070  -1.307   0.881   5.598  0.6677  2.6588  0.7406
 1316WAT    EPW 7071  -1.323   0.863   5.681 -0.1872 -0.2275  0.0477
 1317WAT      O 7072  -3.281   8.947   3.503 -0.3471 -0.4838 -0.4988
 1317WAT     H1 7073  -3.351   8.905   3.453  0.8301 -2.1583 -0.8132
 1317WAT     H2 7074  -3.202   8.933   3.451  0.7868 -1.5523  1.3976
 1317WAT    EPW 7075  -3.280   8.940   3.490 -0.0423 -0.8454 -0.2902
 1318WAT      O 7076   0.414   7.107   8.064 -0.4542  0.1365 -0.3516
 1318WAT     H1 7077   0.401   7.078   8.154  1.8236  1.2291  0.4027
 1318WAT     H2 7078   0.494   7.160   8.067 -1.1605  1.5025 -2.7287
 1318WAT    EPW 7079   0.423   7.110   8.076 -0.2469  0.4611 -0.5655
 1319WAT      O 7080  -0.066   6.272   1.576 -0.2939  0.2486 -0.5853
 1319WAT     H1 7081  -0.093   6.334   1.643  0.4521  0.1277 -0.1680
 1319WAT     H2 7082  -0.138   6.273   1.512 -1.1773  0.0943  0.3903
 1319WAT    EPW 7083  -0.079   6.280   1.576 -0.3120  0.2122 -0.4016
 1320WAT      O 7084   1.779  -0.023   0.500  0.1022 -0.2025 -0.1522
 1320WAT     H1 7085   1.863  -0.007   0.543  0.9656 -2.1337 -1.0053
 1320WAT     H2 7086   1.729   0.057   0.515  2.3718  1.3470 -0.2773
 1320WAT    EPW 7087   1.784  -0.010   0.507  0.5155 -0.2528 -0.2812
 1321WAT      O 7088   3.895   5.505   7.076 -0.1417  0.1207 -0.1597
 1321WAT     H1 7089   3.826   5.497   7.011 -0.5619  0.1918  0.2665
 1321WAT     H2 7090   3.901   5.599   7.094  1.5751  0.3730 -1.7699
 1321WAT    EPW 7091   3.887   5.517   7.070  0.0293  0.1633 -0.3159
 1322WAT      O 7092   3.972   4.600   4.047  0.7717 -0.1477 -0.1214
 1322WAT     H1 7093   3.947   4.605   3.955  0.4822  0.7061 -0.0038
 1322WAT     H2 7094   3.953   4.509   4.073  1.3358 -0.5395 -1.0280
 1322WAT    EPW 7095   3.966   4.588   4.038  0.8080 -0.0868 -0.2253
 1323WAT      O 7096   1.242   7.216   0.291  0.1127  0.5864  0.3577
 1323WAT     H1 7097   1.188   7.277   0.242 -0.4108  0.9672  1.3945
 1323WAT     H2 7098   1.289   7.270   0.355 -0.0914 -0.0383  1.0561
 1323WAT    EPW 7099   1.241   7.231   0.293  0.0167  0.5543  0.5865
 1324WAT      O 7100   8.920   1.648   1.441  0.2910 -0.6851  0.7963
 1324WAT     H1 7101   8.947   1.628   1.531  1.2016 -0.8900  0.4967
 1324WAT     H2 7102   8.979   1.718   1.414  0.2415 -0.8487  0.2556
 1324WAT    EPW 7103   8.931   1.655   1.449  0.4044 -0.7337  0.6855
 1325WAT      O 7104  -0.157   3.842   3.344  0.6578 -0.2187 -0.1792
 1325WAT     H1 7105  -0.074   3.888   3.330  0.0702  0.5990 -1.0677
 1325WAT     H2 7106  -0.140   3.753   3.314  1.4007 -0.2487  0.2825
 1325WAT    EPW 7107  -0.144   3.836   3.338  0.6783 -0.1148 -0.2356
 1326WAT      O 7108   5.090   5.329   3.036 -0.3293  0.1578 -0.0297
 1326WAT     H1 7109   5.021   5.384   3.000 -0.6591  0.4750  1.0501
 1326WAT     H2 7110   5.171   5.369   3.006 -0.5335  1.7327  1.3679
 1326WAT    EPW 7111   5.092   5.341   3.027 -0.3998  0.4075  0.2971
 1327WAT      O 7112   2.057   0.337   1.932  0.6928 -0.6413  0.0986
 1327WAT     H1 7113   2.071   0.409   1.993  0.2497 -1.1343  0.7991
 1327WAT     H2 7114   2.092   0.368   1.849 -0.4012  0.7834  0.1294
 1327WAT    EPW 7115   2.063   0.350   1.929  0.4901 -0.5184  0.1950
 1328WAT      O 7116  -3.489   7.685   2.900  0.4904  0.4988  0.3171
 1328WAT     H1 7117  -3.501   7.604   2.851 -1.4678  1.2978 -0.6049
 1328WAT     H2 7118  -3.464   7.656   2.988  1.2883 -1.0407 -0.3757
 1328WAT    EPW 7119  -3.487   7.670   2.905  0.3374  0.4013  0.1042
 1329WAT      O 7120  -2.804   6.312   2.188 -0.3862  0.0342  0.1040
 1329WAT     H1 7121  -2.732   6.321   2.125 -0.7162 -0.4851 -0.3587
 1329WAT     H2 7122  -2.865   6.382   2.165  0.0986  0.6671  0.6893
 1329WAT    EPW 7123  -2.803   6.322   2.176 -0.3657  0.0494  0.1202
 1330WAT      O 7124   8.265   1.368   0.440 -0.3270  0.1122  0.1581
 1330WAT     H1 7125   8.313   1.448   0.418  0.2231 -0.3223 -0.2378
 1330WAT     H2 7126   8.298   1.303   0.379 -1.3067 -0.2417 -0.0115
 1330WAT    EPW 7127   8.276   1.370   0.429 -0.3834  0.0082  0.0835
 1331WAT      O 7128   2.402   4.152   5.264  0.1514 -0.1358  0.3686
 1331WAT     H1 7129   2.375   4.205   5.340 -1.8953  0.8776 -0.9602
 1331WAT     H2 7130   2.324   4.149   5.209  2.1867  1.2001 -2.8578
 1331WAT    EPW 7131   2.388   4.159   5.267  0.1498  0.1740 -0.2320
 1332WAT      O 7132   5.894   1.212   0.168  0.2282  0.3531  0.1234
 1332WAT     H1 7133   5.825   1.155   0.202  0.4301  0.2395  0.3497
 1332WAT     H2 7134   5.964   1.152   0.143 -1.4560 -0.0513 -4.5687
 1332WAT    EPW 7135   5.894   1.196   0.169  0.0327  0.2848 -0.4656
 1333WAT      O 7136   4.927   2.240   0.250 -0.5015  0.1576 -0.0356
 1333WAT     H1 7137   4.863   2.177   0.219 -1.1105  0.2472  1.0191
 1333WAT     H2 7138   4.975   2.266   0.171 -0.9461 -0.8196 -0.6377
 1333WAT    EPW 7139   4.925   2.235   0.235 -0.6404  0.0405  0.0241
 1334WAT      O 7140  -0.901   3.167   2.716  0.3479  0.3754  0.6124
 1334WAT     H1 7141  -0.827   3.137   2.769  0.5757 -5.0303 -2.0483
 1334WAT     H2 7142  -0.862   3.197   2.634 -0.3091  1.2070  0.5901
 1334WAT    EPW 7143  -0.886   3.167   2.712  0.2913 -0.2278  0.2584
 1335WAT      O 7144  -1.080   5.600   3.314  0.0229  0.9246 -0.2479
 1335WAT     H1 7145  -1.163   5.554   3.305  0.9974 -1.1034  0.5155
 1335WAT     H2 7146  -1.064   5.605   3.408  1.5332 -0.2760 -0.3961
 1335WAT    EPW 7147  -1.089   5.594   3.325  0.3507  0.4985 -0.1668
 1336WAT      O 7148   0.287   5.502   5.876 -0.6005  0.0884  0.0884
 1336WAT     H1 7149   0.226   5.432   5.855  1.0122 -0.8814 -1.6949
 1336WAT     H2 7150   0.320   5.479   5.964 -2.2201  0.2643  0.7742
 1336WAT    EPW 7151   0.284   5.490   5.885 -0.6014 -0.0162 -0.0565
 1337WAT      O 7152  -0.188   3.596   3.694 -0.0440 -0.0156 -0.2519
 1337WAT     H1 7153  -0.209   3.575   3.603 -0.0155  1.1447 -0.5401
 1337WAT     H2 7154  -0.125   3.668   3.689  1.2383 -1.0302  0.6698
 1337WAT    EPW 7155  -0.183   3.603   3.681  0.1289  0.0036 -0.1683
 1338WAT      O 7156  -4.819   2.965   8.592  0.0562 -0.3031  0.6349
 1338WAT     H1 7157  -4.905   3.004   8.577 -0.1227 -0.8654  0.1504
 1338WAT     H2 7158  -4.813   2.896   8.526  2.3620  1.9986 -1.8250
 1338WAT    EPW 7159  -4.830   2.961   8.581  0.3369 -0.0738  0.2465
 1339WAT      O 7160   3.349   5.857   6.238 -0.1875  0.1243  0.0875
 1339WAT     H1 7161   3.345   5.920   6.166 -2.3014 -0.0580 -0.0116
 1339WAT     H2 7162   3.381   5.776   6.199  2.0755  0.9284  0.1140
 1339WAT    EPW 7163   3.353   5.855   6.223 -0.1678  0.2062  0.0777
 1340WAT      O 7164  -2.087   3.734   6.334 -0.2225 -0.1289  0.5593
 1340WAT     H1 7165  -2.032   3.735   6.413 -0.5588 -0.8181  0.8130
 1340WAT     H2 7166  -2.176   3.744   6.367 -0.1873  2.6294  0.0419
 1340WAT    EPW 7167  -2.091   3.736   6.349 -0.2621  0.1440  0.5248
 1341WAT      O 7168   6.957   6.361   0.671  0.1027 -0.6583 -0.0232
 1341WAT     H1 7169   6.973   6.369   0.765  3.4072 -3.0664 -0.1978
 1341WAT     H2 7170   7.015   6.426   0.631 -2.1012  1.1325 -0.4677
 1341WAT    EPW 7171   6.967   6.371   0.679  0.2477 -0.7396 -0.1049
 1342WAT      O 7172  -2.188   7.290   4.438 -0.4434  0.8424  0.5824
 1342WAT     H1 7173  -2.157   7.365   4.387  1.4052  0.1034  0.5281
 1342WAT     H2 7174  -2.159   7.307   4.527 -1.4740  0.9423  0.9159
 1342WAT    EPW 7175  -2.180   7.302   4.443 -0.3356  0.7582  0.6192
 1343WAT      O 7176   2.838   7.432   2.313  0.4111  0.7069  0.0578
 1343WAT     H1 7177   2.855   7.412   2.221 -0.8330 -0.0226 -0.0306
 1343WAT     H2 7178   2.916   7.399   2.359 -0.1517 -1.4981 -0.4415
 1343WAT    EPW 7179   2.851   7.425   2.307  0.1727  0.3200 -0.0197
 1344WAT      O 7180  -0.954   6.014   6.726  0.1662 -0.2741  0.1132
 1344WAT     H1 7181  -0.889   6.084   6.722 -0.0765  0.0568  1.5007
 1344WAT     H2 7182  -1.032   6.052   6.687  0.6110 -0.4800 -1.0232
 1344WAT    EPW 7183  -0.956   6.028   6.721  0.1929 -0.2577  0.1464
 1345WAT      O 7184  -0.603   1.675   3.141  0.1338  0.3657  0.2706
 1345WAT     H1 7185  -0.604   1.597   3.196  2.3634 -0.1229 -0.2902
 1345WAT     H2 7186  -0.593   1.642   3.052 -1.6103  1.2218 -0.2871
 1345WAT    EPW 7187  -0.602   1.661   3.136  0.1978  0.4142  0.1230
 1346WAT      O 7188   1.612   5.705   5.809  0.5061 -0.0322 -0.6831
 1346WAT     H1 7189   1.576   5.716   5.897 -0.1474 -1.6380 -0.7101
 1346WAT     H2 7190   1.563   5.767   5.756 -0.5322 -0.4805 -0.2713
 1346WAT    EPW 7191   1.601   5.715   5.814  0.2829 -0.3030 -0.6323
 1347WAT      O 7192   2.051   9.350   6.512  0.3437  0.0093 -0.3725
 1347WAT     H1 7193   2.095   9.403   6.578 -0.6370 -0.0553  0.3579
 1347WAT     H2 7194   2.026   9.411   6.443  0.1085  0.3272 -0.0061
 1347WAT    EPW 7195   2.054   9.365   6.511  0.1833  0.0424 -0.2277
 1348WAT      O 7196  -4.822   1.546   8.695 -0.7118 -0.3586 -0.4586
 1348WAT     H1 7197  -4.814   1.641   8.687 -0.9124 -0.0517  2.2899
 1348WAT     H2 7198  -4.916   1.530   8.699 -0.6588 -0.3910  1.3489
 1348WAT    EPW 7199  -4.833   1.556   8.694 -0.7312 -0.3223  0.1426
 1349WAT      O 7200   2.517   6.302   6.006 -0.4972 -0.3238  0.3979
 1349WAT     H1 7201   2.603   6.281   6.043  0.8032  0.5441 -1.9451
 1349WAT     H2 7202   2.475   6.217   5.993 -0.2817 -0.7310  2.1259
 1349WAT    EPW 7203   2.523   6.288   6.009 -0.2972 -0.2630  0.3169
 1350WAT      O 7204   1.260   9.964   0.064 -0.5671 -0.2174 -0.0310
 1350WAT     H1 7205   1.216   9.984   0.146 -0.6064  0.2150 -0.1533
 1350WAT     H2 7206   1.346   9.930   0.089  0.0200  1.3391  0.1781
 1350WAT    EPW 7207   1.265   9.962   0.078 -0.4948  0.0448 -0.0195
 1351WAT      O 7208  -2.940   5.007   2.409 -0.2970  0.2514  0.1995
 1351WAT     H1 7209  -2.925   4.913   2.408 -1.8463 -0.0094 -0.2418
 1351WAT     H2 7210  -3.022   5.018   2.457  0.4086  1.4838  1.2074
 1351WAT    EPW 7211  -2.949   4.996   2.415 -0.4083  0.3796  0.2741
 1352WAT      O 7212  -6.688   8.803   8.783 -0.5306 -0.1078 -0.3968
 1352WAT     H1 7213  -6.626   8.871   8.756 -0.9772  0.1967 -0.6564
 1352WAT     H2 7214  -6.742   8.845   8.850  0.3947 -0.7705  0.8188
 1352WAT    EPW 7215  -6.687   8.817   8.788 -0.4675 -0.1550 -0.2708
 1353WAT      O 7216  -3.364   0.837   7.105 -0.2668 -0.8063  0.0685
 1353WAT     H1 7217  -3.425   0.874   7.042  0.8411  6.3820  2.3691
 1353WAT     H2 7218  -3.278   0.850   7.065  0.2458  0.5409  1.5352
 1353WAT    EPW 7219  -3.360   0.843   7.091 -0.0532  0.3195  0.5653
 1354WAT      O 7220   0.908   7.130   4.982 -0.2492  0.2503  0.2873
 1354WAT     H1 7221   0.867   7.209   4.948  0.0858  0.4544  0.3583
 1354WAT     H2 7222   0.869   7.059   4.930  1.2057  0.6609 -1.4671
 1354WAT    EPW 7223   0.897   7.131   4.971 -0.0131  0.3312  0.0653
 1355WAT      O 7224   2.039   9.707   4.394 -0.1132  0.9649 -0.2029
 1355WAT     H1 7225   2.123   9.668   4.416 -0.6427 -0.4671 -0.6342
 1355WAT     H2 7226   2.052   9.742   4.305  0.3135  1.6541  0.1223
 1355WAT    EPW 7227   2.052   9.707   4.385 -0.1267  0.8674 -0.2170
 1356WAT      O 7228   4.289   2.763   2.529 -0.1756 -0.8569  0.2844
 1356WAT     H1 7229   4.268   2.828   2.596  2.9980 -0.6707  1.2696
 1356WAT     H2 7230   4.301   2.814   2.449  0.8626 -0.3697  0.7291
 1356WAT    EPW 7231   4.288   2.779   2.528  0.3798 -0.7681  0.4729
 1357WAT      O 7232  -0.352   7.087   7.540  0.7420 -0.0009 -0.5189
 1357WAT     H1 7233  -0.354   7.062   7.447  2.0909 -1.2273 -0.2585
 1357WAT     H2 7234  -0.354   7.004   7.587  0.0014  0.6168  0.5648
 1357WAT    EPW 7235  -0.353   7.072   7.534  0.8222 -0.0811 -0.3414
 1358WAT      O 7236  -3.249  10.299   2.860  0.5933  0.0366 -0.1935
 1358WAT     H1 7237  -3.204  10.229   2.812  0.1623  0.3102 -1.0156
 1358WAT     H2 7238  -3.333  10.307   2.816  0.3629  0.5999  0.3419
 1358WAT    EPW 7239  -3.254  10.291   2.848  0.5062  0.1469 -0.2313
 1359WAT      O 7240  -1.017   9.549   3.039 -0.0466 -0.0213  0.1432
 1359WAT     H1 7241  -0.971   9.506   3.112 -2.1426 -2.8467 -0.0164
 1359WAT     H2 7242  -1.012   9.485   2.968 -1.9716  0.6884 -0.6818
 1359WAT    EPW 7243  -1.010   9.535   3.039 -0.5769 -0.3009  0.0135
 1360WAT      O 7244   1.662   9.583   8.214  0.1369  0.0821 -0.1690
 1360WAT     H1 7245   1.588   9.622   8.168 -1.1931  0.5018  2.1991
 1360WAT     H2 7246   1.639   9.490   8.223 -0.3487  0.2920  0.9344
 1360WAT    EPW 7247   1.649   9.576   8.209 -0.1026  0.1655  0.2890
 1361WAT      O 7248   3.172   3.739   8.776 -0.3087  0.3674  0.3877
 1361WAT     H1 7249   3.197   3.822   8.734 -1.0221  0.6776  0.5569
 1361WAT     H2 7250   3.218   3.740   8.860  1.2955 -0.3509 -0.4330
 1361WAT    EPW 7251   3.182   3.750   8.781 -0.1912  0.3135  0.3014
 1362WAT      O 7252   2.638   1.169   1.415 -0.1049 -0.2823 -0.5762
 1362WAT     H1 7253   2.619   1.227   1.489 -1.1165 -0.7586 -0.4436
 1362WAT     H2 7254   2.592   1.209   1.341 -0.2718 -0.5663 -0.6271
 1362WAT    EPW 7255   2.630   1.182   1.415 -0.2604 -0.3825 -0.5654
 1363WAT      O 7256  -6.937   9.333   6.440  0.1189  0.3180 -0.1132
 1363WAT     H1 7257  -6.904   9.369   6.522  0.7067  1.4165 -0.8027
 1363WAT     H2 7258  -6.931   9.238   6.451  0.8588  0.4611  0.8466
 1363WAT    EPW 7259  -6.932   9.325   6.452  0.2942  0.4821 -0.0775
 1364WAT      O 7260   0.750   8.585   5.127 -1.0951 -0.4979  0.6100
 1364WAT     H1 7261   0.812   8.649   5.091 -1.3788 -0.2590  0.5492
 1364WAT     H2 7262   0.801   8.504   5.131 -1.4964 -0.9524 -1.8230
 1364WAT    EPW 7263   0.765   8.583   5.123 -1.1854 -0.5260  0.2811
 1365WAT      O 7264  -5.260   5.120   6.174 -0.9043 -0.6536 -0.5106
 1365WAT     H1 7265  -5.200   5.058   6.214 -2.2682 -0.5800  1.8126
 1365WAT     H2 7266  -5.203   5.182   6.128  0.8820 -0.2745  2.0112
 1365WAT    EPW 7267  -5.245   5.120   6.173 -0.8485 -0.5939  0.1283
 1366WAT      O 7268   4.351   9.843   1.459  0.3500 -0.7724  0.6154
 1366WAT     H1 7269   4.276   9.857   1.401  0.7504 -1.7738 -0.1763
 1366WAT     H2 7270   4.403   9.776   1.414  1.1902 -0.8287  1.6512
 1366WAT    EPW 7271   4.348   9.836   1.445  0.5136 -0.9122  0.6476
 1367WAT      O 7272   1.485  10.242   6.769  0.5198  0.7018 -0.1019
 1367WAT     H1 7273   1.487  10.320   6.825 -0.4327  0.3685  0.4308
 1367WAT     H2 7274   1.501  10.275   6.681  2.7386  1.1455  0.4146
 1367WAT    EPW 7275   1.487  10.257   6.765  0.6868  0.7162  0.0365
 1368WAT      O 7276   0.408   0.284   7.356 -0.3048 -0.0013  0.1188
 1368WAT     H1 7277   0.324   0.269   7.313 -0.6926  2.4051 -0.0708
 1368WAT     H2 7278   0.461   0.329   7.291  0.5117  0.1123  0.8374
 1368WAT    EPW 7279   0.404   0.288   7.342 -0.2483  0.3311  0.1886
 1369WAT      O 7280   1.534   1.562   6.352  0.3300  0.2439 -0.6652
 1369WAT     H1 7281   1.561   1.548   6.261 -0.7554  0.8801 -1.1069
 1369WAT     H2 7282   1.500   1.478   6.380  3.4501 -0.8705  0.2144
 1369WAT    EPW 7283   1.533   1.549   6.344  0.5983  0.1808 -0.6075
 1370WAT      O 7284  -4.431   9.906   5.935  0.2477 -0.2920  0.5599
 1370WAT     H1 7285  -4.452   9.998   5.916 -3.0170 -0.4184  2.7362
 1370WAT     H2 7286  -4.339   9.909   5.962  0.3243  2.2978  0.3484
 1370WAT    EPW 7287  -4.422   9.919   5.936 -0.1729  0.0329  0.8192
 1371WAT      O 7288  -0.417   9.534   0.902 -0.3755 -0.0723 -0.0367
 1371WAT     H1 7289  -0.436   9.534   0.996 -0.4213 -0.0932 -0.0459
 1371WAT     H2 7290  -0.454   9.616   0.870 -1.6065 -0.6894 -0.2859
 1371WAT    EPW 7291  -0.425   9.545   0.910 -0.5439 -0.1564 -0.0708
 1372WAT      O 7292   0.623   5.396   2.230 -0.3424 -0.5840 -0.1634
 1372WAT     H1 7293   0.680   5.321   2.248  2.0920  1.4942  1.6150
 1372WAT     H2 7294   0.621   5.402   2.134 -2.4843 -4.0931 -0.5049
 1372WAT    EPW 7295   0.631   5.387   2.219 -0.3038 -0.7730  0.0261
 1373WAT      O 7296  -3.911  10.361   8.008  0.2624  0.0169  0.2213
 1373WAT     H1 7297  -3.981  10.373   7.944 -0.2450  0.2330  0.8049
 1373WAT     H2 7298  -3.858  10.288   7.974  0.4781  0.6610 -0.8459
 1373WAT    EPW 7299  -3.913  10.353   7.995  0.2239  0.1302  0.1576
 1374WAT      O 7300   8.891   1.387   1.295 -0.1947  0.3620 -0.5809
 1374WAT     H1 7301   8.797   1.398   1.308 -0.4940 -1.8285 -0.4157
 1374WAT     H2 7302   8.930   1.465   1.335 -1.8178  0.1150  1.6954
 1374WAT    EPW 7303   8.883   1.399   1.302 -0.4478  0.0405 -0.2589
 1375WAT      O 7304  -0.381   1.777   8.740  0.1686  0.0393  0.4914
 1375WAT     H1 7305  -0.328   1.754   8.664 -0.0722  1.0878 -0.0217
 1375WAT     H2 7306  -0.327   1.839   8.789 -0.3998  0.7836  0.1904
 1375WAT    EPW 7307  -0.367   1.782   8.736  0.0618  0.2757  0.3839
 1376WAT      O 7308  -2.203   0.734   4.167  0.0055  0.5723 -0.1484
 1376WAT     H1 7309  -2.187   0.751   4.260  1.0786  1.1229 -0.4185
 1376WAT     H2 7310  -2.117   0.745   4.126 -0.0736 -1.3627 -0.9655
 1376WAT    EPW 7311  -2.189   0.738   4.174  0.1366  0.3897 -0.2921
 1377WAT      O 7312   0.747   9.807   7.506 -0.3694  0.0618 -0.1410
 1377WAT     H1 7313   0.775   9.878   7.448 -0.9352 -1.0141 -1.8356
 1377WAT     H2 7314   0.666   9.839   7.547  0.9775  1.5292  1.4990
 1377WAT    EPW 7315   0.740   9.820   7.503 -0.2664  0.1135 -0.1481
 1378WAT      O 7316  -2.139   9.377   4.582 -0.3524  0.2314  0.8597
 1378WAT     H1 7317  -2.199   9.330   4.640  1.1055 -0.5189  1.8070
 1378WAT     H2 7318  -2.111   9.453   4.633  0.9835 -0.4633  1.1954
 1378WAT    EPW 7319  -2.144   9.381   4.596  0.0162  0.0405  1.0290
 1379WAT      O 7320   7.348   1.190   2.146 -0.0513 -0.2548 -0.1966
 1379WAT     H1 7321   7.412   1.142   2.199 -0.2217 -2.8325 -2.0999
 1379WAT     H2 7322   7.264   1.149   2.168 -0.4189  0.1346 -0.8456
 1379WAT    EPW 7323   7.346   1.178   2.156 -0.1223 -0.5434 -0.5332
 1380WAT      O 7324  -4.786   0.588   7.592  0.7276 -0.1312 -0.8006
 1380WAT     H1 7325  -4.722   0.599   7.522  0.0079  1.3613 -1.2531
 1380WAT     H2 7326  -4.736   0.549   7.664  1.7258 -0.6560 -1.7423
 1380WAT    EPW 7327  -4.771   0.584   7.592  0.7644 -0.0036 -0.9844
 1381WAT      O 7328  -1.336   5.855   0.221 -0.2441 -0.1590  0.6506
 1381WAT     H1 7329  -1.313   5.766   0.245 -2.0367 -0.6970  0.4775
 1381WAT     H2 7330  -1.343   5.901   0.305 -0.1292 -0.3759  0.7804
 1381WAT    EPW 7331  -1.334   5.850   0.235 -0.4654 -0.2587  0.6449
 1382WAT      O 7332   6.584   1.222   2.609 -0.0209  0.0709 -0.1981
 1382WAT     H1 7333   6.643   1.150   2.630  0.9726  0.7917 -0.4422
 1382WAT     H2 7334   6.507   1.180   2.572  1.1300 -0.8188 -1.7052
 1382WAT    EPW 7335   6.582   1.207   2.607  0.2618  0.0486 -0.4289
 1383WAT      O 7336   2.875   2.571   8.346  0.5705  0.3600  0.0454
 1383WAT     H1 7337   2.876   2.478   8.321  0.7675  0.4822 -0.4071
 1383WAT     H2 7338   2.967   2.596   8.352  0.5153  0.6213 -0.1838
 1383WAT    EPW 7339   2.887   2.562   8.344  0.5893  0.4106 -0.0443
 1384WAT      O 7340   9.030   4.732   0.408  0.7113 -0.3199  0.2522
 1384WAT     H1 7341   9.036   4.696   0.320  0.2960  0.8448 -0.2651
 1384WAT     H2 7342   9.029   4.827   0.396  8.7041  0.6863  1.8032
 1384WAT    EPW 7343   9.031   4.740   0.395  1.7109 -0.0334  0.3885
 1385WAT      O 7344   2.982   7.747   6.628 -0.0020  0.1825 -0.2000
 1385WAT     H1 7345   3.057   7.711   6.582  1.6105 -0.5700  2.7970
 1385WAT     H2 7346   3.011   7.833   6.659 -0.7866  0.3804  0.0275
 1385WAT    EPW 7347   2.996   7.754   6.626  0.1072  0.1094  0.2253
 1386WAT      O 7348  -2.228   8.949   2.336  0.5639 -0.3078 -0.5287
 1386WAT     H1 7349  -2.195   8.890   2.404  0.0164 -1.3013 -1.1104
 1386WAT     H2 7350  -2.305   8.989   2.376  1.8603  1.3170  0.4867
 1386WAT    EPW 7351  -2.234   8.946   2.350  0.6627 -0.2246 -0.4714
 1387WAT      O 7352  -1.201   0.330   4.204 -0.4943  0.3979 -0.2539
 1387WAT     H1 7353  -1.272   0.382   4.165 -1.8648  0.6101  2.3376
 1387WAT     H2 7354  -1.128   0.391   4.210 -0.8964  0.9349 -0.6327
 1387WAT    EPW 7355  -1.201   0.345   4.200 -0.7281  0.4967  0.0379
 1388WAT      O 7356   6.159   9.920   1.640 -0.6624 -0.1614 -0.2124
 1388WAT     H1 7357   6.091   9.919   1.706  0.7948 -0.4346  1.3641
 1388WAT     H2 7358   6.143   9.841   1.587 -0.7484 -0.9943  1.0200
 1388WAT    EPW 7359   6.148   9.909   1.641 -0.4818 -0.3076  0.1581
 1389WAT      O 7360   0.966   1.319   1.544 -0.1935  0.1390 -0.6975
 1389WAT     H1 7361   1.057   1.321   1.515 -0.5685  0.1600 -1.9228
 1389WAT     H2 7362   0.924   1.253   1.489 -1.1785  0.9578 -0.9535
 1389WAT    EPW 7363   0.972   1.311   1.533 -0.3729  0.2498 -0.8928
 1390WAT      O 7364   7.332   1.463   2.226  0.5787  0.3013  0.6315
 1390WAT     H1 7365   7.327   1.367   2.223  0.2427  0.3244  0.4594
 1390WAT     H2 7366   7.426   1.481   2.227  0.6588  0.0077 -0.5385
 1390WAT    EPW 7367   7.344   1.453   2.226  0.5448  0.2656  0.4544
 1391WAT      O 7368   5.050   2.200   8.364 -0.0079  0.4346 -1.0869
 1391WAT     H1 7369   5.016   2.239   8.284 -2.2162 -0.3030 -0.6091
 1391WAT     H2 7370   5.022   2.108   8.360  4.0268 -0.9407 -1.6433
 1391WAT    EPW 7371   5.042   2.193   8.353  0.2329  0.1560 -1.0972
 1392WAT      O 7372  -2.245   7.848   2.579  0.5029  0.2275  0.3234
 1392WAT     H1 7373  -2.294   7.897   2.646  1.9979 -0.6967  2.2031
 1392WAT     H2 7374  -2.300   7.853   2.501 -1.8042  0.6087  1.8579
 1392WAT    EPW 7375  -2.259   7.855   2.578  0.3958  0.1559  0.7737
 1393WAT      O 7376   6.625   4.635   4.044 -0.7510  0.3144  0.1964
 1393WAT     H1 7377   6.546   4.685   4.022 -1.1659  0.2319  1.4084
 1393WAT     H2 7378   6.671   4.624   3.961 -1.3726  1.4753 -0.3151
 1393WAT    EPW 7379   6.620   4.640   4.030 -0.8876  0.4568  0.2890
 1394WAT      O 7380  -1.716   9.066   0.416  0.6343  0.0292 -0.3346
 1394WAT     H1 7381  -1.679   9.029   0.335  1.9368 -1.1872  0.7745
 1394WAT     H2 7382  -1.640   9.099   0.464 -0.2067  1.4320  0.0884
 1394WAT    EPW 7383  -1.701   9.066   0.411  0.6952  0.0539 -0.1325
 1395WAT      O 7384  -1.792   9.292   4.869  0.1258  0.7235 -0.1305
 1395WAT     H1 7385  -1.866   9.285   4.929 -0.0485 -0.0860 -0.4330
 1395WAT     H2 7386  -1.832   9.305   4.783  0.3663  1.3957 -0.1549
 1395WAT    EPW 7387  -1.807   9.293   4.865  0.1345  0.7052 -0.1736
 1396WAT      O 7388   2.064   2.856   0.495  0.1160  0.5724 -0.0378
 1396WAT     H1 7389   2.109   2.912   0.433 -0.9698  1.8700  0.2998
 1396WAT     H2 7390   2.133   2.801   0.533  0.6695 -1.0415 -3.0926
 1396WAT    EPW 7391   2.079   2.856   0.492  0.0458  0.5307 -0.3962
 1397WAT      O 7392  -1.942   9.756   3.883 -0.0078 -0.3778 -0.9767
 1397WAT     H1 7393  -1.881   9.690   3.850  1.8182  1.4180 -1.4001
 1397WAT     H2 7394  -1.923   9.834   3.831 -0.1271  1.3083  1.3703
 1397WAT    EPW 7395  -1.932   9.757   3.872  0.2173  0.0815 -0.7230
 1398WAT      O 7396  -0.668   7.859   3.998  0.0960  0.1428  0.3153
 1398WAT     H1 7397  -0.656   7.898   3.911  1.0578 -2.3674 -0.7700
 1398WAT     H2 7398  -0.762   7.869   4.015  0.3285  3.2489  0.3723
 1398WAT    EPW 7399  -0.679   7.865   3.989  0.2535  0.2210  0.1796
 1399WAT      O 7400   1.014   2.325   3.014 -0.8174 -0.0024  0.7481
 1399WAT     H1 7401   1.094   2.276   2.996 -1.5825 -0.1931 -2.6560
 1399WAT     H2 7402   1.025   2.408   2.969 -2.7567 -0.3082 -0.4103
 1399WAT    EPW 7403   1.026   2.329   3.006 -1.1740 -0.0678  0.1464
 1400WAT      O 7404  -0.492   0.947   0.488 -0.1826 -0.2548  0.0056
 1400WAT     H1 7405  -0.559   0.879   0.493  0.6814 -1.1433 -0.1902
 1400WAT     H2 7406  -0.540   1.028   0.503 -1.4503 -0.7818 -1.0014
 1400WAT    EPW 7407  -0.507   0.948   0.491 -0.2359 -0.4415 -0.1530
 1401WAT      O 7408   4.099   1.340   7.946 -0.2601 -0.0933 -0.0994
 1401WAT     H1 7409   4.006   1.323   7.928 -0.1856 -1.2547  0.5255
 1401WAT     H2 7410   4.141   1.334   7.860 -0.5614 -1.0521 -0.1916
 1401WAT    EPW 7411   4.092   1.337   7.932 -0.2902 -0.3729 -0.0293
 1402WAT      O 7412   5.689   9.419   2.142  0.1252 -0.5871  0.0299
 1402WAT     H1 7413   5.727   9.335   2.167  3.8446  0.5450 -1.1207
 1402WAT     H2 7414   5.674   9.411   2.048 -0.2786 -0.2401  0.0634
 1402WAT    EPW 7415   5.692   9.407   2.133  0.5624 -0.3920 -0.1174
 1403WAT      O 7416   0.052   2.058   3.020 -1.2913  0.2076 -0.0471
 1403WAT     H1 7417   0.138   2.037   2.984 -0.3209 -0.5265  2.4606
 1403WAT     H2 7418  -0.009   2.009   2.966  0.1584 -1.7024 -0.0787
 1403WAT    EPW 7419   0.056   2.049   3.008 -0.9721 -0.1411  0.2794
 1404WAT      O 7420   6.884   4.321   3.280 -0.0368 -0.3781  0.5297
 1404WAT     H1 7421   6.923   4.369   3.353  1.1472  0.1413 -0.4112
 1404WAT     H2 7422   6.935   4.348   3.203 -0.4967 -1.8013 -0.3142
 1404WAT    EPW 7423   6.896   4.331   3.279  0.0589 -0.4973  0.2942
 1405WAT      O 7424  -1.642   5.598   4.337 -0.4870 -0.5696  0.7162
 1405WAT     H1 7425  -1.687   5.636   4.413 -1.0039 -0.8955  0.5750
 1405WAT     H2 7426  -1.573   5.661   4.317 -0.3657 -0.4640  1.4350
 1405WAT    EPW 7427  -1.639   5.612   4.345 -0.5391 -0.5987  0.7925
 1406WAT      O 7428   2.118   1.776   4.298  0.3175  0.5126 -0.1046
 1406WAT     H1 7429   2.025   1.774   4.273 -0.2253  0.9599  1.7715
 1406WAT     H2 7430   2.127   1.857   4.348  1.6044  0.2068  0.1746
 1406WAT    EPW 7431   2.107   1.786   4.301  0.4157  0.5312  0.1798
 1407WAT      O 7432  -4.361   9.940   4.643  0.3511  0.9023 -0.1596
 1407WAT     H1 7433  -4.403  10.000   4.582 -0.9883  1.1298  0.9355
 1407WAT     H2 7434  -4.394   9.854   4.618 -0.7312  1.0685  0.6271
 1407WAT    EPW 7435  -4.371   9.936   4.631  0.0315  0.9542  0.0887
 1408WAT      O 7436   2.997   1.706   2.829 -0.4992  0.1086 -0.4827
 1408WAT     H1 7437   3.052   1.743   2.898  0.1525  1.6103 -1.7330
 1408WAT     H2 7438   2.910   1.744   2.844 -0.6405 -0.4437  0.1382
 1408WAT    EPW 7439   2.993   1.716   2.840 -0.4319  0.2338 -0.5658
 1409WAT      O 7440   2.197  10.256   4.943  0.1943 -0.5006  0.1867
 1409WAT     H1 7441   2.117  10.286   4.900  0.5488  0.7209  0.3475
 1409WAT     H2 7442   2.167  10.191   5.006 -0.4747 -1.3369 -0.9528
 1409WAT    EPW 7443   2.183  10.252   4.946  0.1528 -0.4497  0.0577
 1410WAT      O 7444   5.994   1.417   1.282 -0.3963  0.2858 -0.0338
 1410WAT     H1 7445   6.009   1.323   1.295 -0.8466  0.0801 -0.9302
 1410WAT     H2 7446   5.913   1.435   1.329 -0.0657  0.3366  0.5332
 1410WAT    EPW 7447   5.985   1.407   1.290 -0.4120  0.2654 -0.0772
 1411WAT      O 7448   1.081   3.256   7.667  0.3131  0.0417  0.1830
 1411WAT     H1 7449   1.037   3.290   7.589 -0.1277 -0.8629  0.0170
 1411WAT     H2 7450   1.054   3.315   7.737  1.7161  1.6182 -0.5342
 1411WAT    EPW 7451   1.071   3.268   7.666  0.4400  0.1303  0.0665
 1412WAT      O 7452   7.591   5.584   1.026 -0.1930 -0.8510  0.0710
 1412WAT     H1 7453   7.671   5.631   1.052  0.3716 -0.4117 -2.2432
 1412WAT     H2 7454   7.522   5.650   1.030  0.2602 -0.2438 -1.3644
 1412WAT    EPW 7455   7.593   5.599   1.030 -0.0587 -0.7131 -0.4236
 1413WAT      O 7456   3.541   9.463   4.334  0.1748 -0.0513  0.3247
 1413WAT     H1 7457   3.447   9.458   4.351 -0.1475 -1.8603 -1.6494
 1413WAT     H2 7458   3.572   9.372   4.343  0.5326 -0.7242 -4.8142
 1413WAT    EPW 7459   3.533   9.450   4.338  0.1796 -0.3786 -0.6135
 1414WAT      O 7460  -0.137  -0.026   2.703  0.6629  0.3387 -0.6074
 1414WAT     H1 7461  -0.114   0.060   2.667  2.4316  0.5130  0.7939
 1414WAT     H2 7462  -0.213  -0.009   2.758  0.3264  0.7900 -1.1942
 1414WAT    EPW 7463  -0.144  -0.012   2.706  0.8518  0.4212 -0.5000
 1415WAT      O 7464   0.327   1.856   1.104 -0.3606 -0.0692 -0.1108
 1415WAT     H1 7465   0.267   1.782   1.097 -0.6870  0.0874  0.8558
 1415WAT     H2 7466   0.362   1.850   1.193 -0.6997  1.1633  0.1317
 1415WAT    EPW 7467   0.324   1.846   1.115 -0.4483  0.1140  0.0487
 1416WAT      O 7468   0.677   3.134   0.839 -0.4006  0.0084 -0.1864
 1416WAT     H1 7469   0.650   3.224   0.857  0.7079  0.3350 -0.0875
 1416WAT     H2 7470   0.610   3.100   0.780 -0.3953  1.1683 -0.8947
 1416WAT    EPW 7471   0.665   3.141   0.834 -0.2537  0.2046 -0.2668
 1417WAT      O 7472  -1.302   5.991   3.151  0.1432  0.5452  0.3057
 1417WAT     H1 7473  -1.348   5.965   3.071 -1.5218  2.0951  0.7035
 1417WAT     H2 7474  -1.215   5.952   3.142 -0.2617  0.0191 -1.8812
 1417WAT    EPW 7475  -1.297   5.982   3.139 -0.1298  0.6802  0.0697
 1418WAT      O 7476  -5.418   8.396   4.887 -0.5027  0.2329 -0.3378
 1418WAT     H1 7477  -5.423   8.307   4.852  0.7727 -0.2103  0.5500
 1418WAT     H2 7478  -5.345   8.436   4.841  0.9532 -0.2342  1.4648
 1418WAT    EPW 7479  -5.409   8.390   4.877 -0.1423  0.1125  0.0172
 1419WAT      O 7480  -0.944   6.764   4.633  0.2230  0.0672 -0.0842
 1419WAT     H1 7481  -0.972   6.710   4.706  0.6169 -0.2921 -0.1956
 1419WAT     H2 7482  -0.855   6.735   4.614  0.3488  0.5833 -0.3058
 1419WAT    EPW 7483  -0.936   6.753   4.640  0.2916  0.0880 -0.1280
 1420WAT      O 7484   0.987   4.883   3.539 -0.1943 -0.3740 -0.0859
 1420WAT     H1 7485   1.001   4.827   3.463 -0.4248 -2.4213  1.3152
 1420WAT     H2 7486   0.893   4.880   3.555 -0.7051  2.7415 -1.5911
 1420WAT    EPW 7487   0.976   4.875   3.531 -0.2921 -0.2332 -0.0997
 1421WAT      O 7488   4.098   7.481   3.462  0.1751  0.1817 -0.4675
 1421WAT     H1 7489   4.188   7.450   3.448  0.3662  1.4471 -2.2795
 1421WAT     H2 7490   4.085   7.472   3.557  3.0416  2.1143  0.2340
 1421WAT    EPW 7491   4.108   7.475   3.473  0.5784  0.6034 -0.6140
 1422WAT      O 7492   1.117  10.293   1.587  0.4418  0.0019  0.2113
 1422WAT     H1 7493   1.116  10.236   1.510 -0.8574  1.3384 -0.8280
 1422WAT     H2 7494   1.207  10.324   1.593  0.5524 -0.0760 -0.8327
 1422WAT    EPW 7495   1.129  10.290   1.578  0.2850  0.1674 -0.0635
 1423WAT      O 7496   1.827   7.201   1.871  0.4913  0.2394 -0.2384
 1423WAT     H1 7497   1.758   7.250   1.828  0.3592  0.3031  0.0451
 1423WAT     H2 7498   1.833   7.119   1.822  2.3550  1.4625 -2.2776
 1423WAT    EPW 7499   1.819   7.196   1.859  0.7197  0.4094 -0.4700
 1424WAT      O 7500  -7.454   8.643   8.426  0.6937  0.2459 -0.0814
 1424WAT     H1 7501  -7.453   8.548   8.433  0.5989  0.1254 -1.4615
 1424WAT     H2 7502  -7.388   8.672   8.489  2.6647 -0.8929 -1.5078
 1424WAT    EPW 7503  -7.445   8.635   8.435  0.9410  0.0801 -0.4516
 1425WAT      O 7504   3.717   0.407   3.215  0.0506  0.6792 -0.0782
 1425WAT     H1 7505   3.678   0.482   3.261  0.9281  1.3533 -0.3955
 1425WAT     H2 7506   3.643   0.352   3.190 -0.4445  0.1481  2.3616
 1425WAT    EPW 7507   3.702   0.410   3.218  0.1011  0.6981  0.2017
 1426WAT      O 7508  -1.794   7.170   0.057 -0.6979 -0.2239 -0.4872
 1426WAT     H1 7509  -1.717   7.122   0.086  0.5396  0.4721 -2.3925
 1426WAT     H2 7510  -1.850   7.177   0.134  1.6252  0.1632  1.2340
 1426WAT    EPW 7511  -1.792   7.164   0.071 -0.2283 -0.0811 -0.5115
 1427WAT      O 7512  -1.816   5.834   8.756 -0.3106 -0.3453  0.1695
 1427WAT     H1 7513  -1.793   5.888   8.681 -0.9929 -0.1861  0.0666
 1427WAT     H2 7514  -1.734   5.821   8.803 -0.0745  0.5097  0.0134
 1427WAT    EPW 7515  -1.802   5.839   8.752 -0.3694 -0.2117  0.1354
 1428WAT      O 7516  -0.082   0.794   8.535  0.6998 -0.2518 -0.2246
 1428WAT     H1 7517   0.005   0.821   8.506  1.1775 -1.1938  0.2926
 1428WAT     H2 7518  -0.091   0.832   8.622  0.5491 -0.0662 -0.3215
 1428WAT    EPW 7519  -0.072   0.803   8.543  0.7429 -0.3516 -0.1688
 1429WAT      O 7520   0.808  10.282   5.835  0.4985 -0.3210 -0.3843
 1429WAT     H1 7521   0.740  10.253   5.895  1.3277 -2.1632 -0.2841
 1429WAT     H2 7522   0.813  10.377   5.848 -0.6777 -0.4255  1.0108
 1429WAT    EPW 7523   0.800  10.291   5.845  0.4527 -0.5774 -0.1872
 1430WAT      O 7524   4.215   5.340   1.829 -0.0999 -0.4807 -0.5669
 1430WAT     H1 7525   4.261   5.258   1.850  2.2299  0.6277 -0.9718
 1430WAT     H2 7526   4.285   5.399   1.800 -1.8181  1.4110 -1.0550
 1430WAT    EPW 7527   4.231   5.337   1.828 -0.0191 -0.0849 -0.6847
 1431WAT      O 7528  -4.688   7.880   7.871  0.1396  0.8260 -0.1243
 1431WAT     H1 7529  -4.670   7.973   7.881 -1.9403  1.0453  2.6184
 1431WAT     H2 7530  -4.642   7.839   7.945  0.6388 -0.3179 -1.0242
 1431WAT    EPW 7531  -4.679   7.887   7.882 -0.0691  0.7043  0.1187
 1432WAT      O 7532   1.466   9.564   6.117 -0.5157  0.2477  0.4046
 1432WAT     H1 7533   1.503   9.508   6.049  0.2048 -0.7242  1.5448
 1432WAT     H2 7534   1.445   9.646   6.073 -4.0450 -1.6692 -1.9522
 1432WAT    EPW 7535   1.468   9.567   6.103 -0.8861 -0.1330  0.2441
 1433WAT      O 7536   2.150   6.969   8.438  0.3913 -0.6056  0.4955
 1433WAT     H1 7537   2.241   6.963   8.408 -0.6815  0.4036 -3.6989
 1433WAT     H2 7538   2.152   7.029   8.512  3.1879 -1.2357  1.0309
 1433WAT    EPW 7539   2.162   6.976   8.444  0.6187 -0.5558  0.0129
 1434WAT      O 7540  -1.011   4.481   4.270 -0.4887  0.0648  0.2684
 1434WAT     H1 7541  -0.931   4.527   4.247  0.8149 -1.1112  2.1825
 1434WAT     H2 7542  -1.080   4.546   4.258  0.3297  0.4540 -3.7275
 1434WAT    EPW 7543  -1.010   4.496   4.265 -0.2088 -0.0389 -0.0062
 1435WAT      O 7544   3.479   6.266   7.546  0.1762  0.1793 -0.0886
 1435WAT     H1 7545   3.554   6.304   7.500  0.3493  0.3791  0.3598
 1435WAT     H2 7546   3.428   6.225   7.476  1.2631 -0.9265 -0.2697
 1435WAT    EPW 7547   3.482   6.266   7.531  0.3424  0.0598 -0.0534
 1436WAT      O 7548   2.988   4.293   2.240  0.1533 -0.4936  0.4757
 1436WAT     H1 7549   3.074   4.265   2.209 -0.6781 -0.3440 -2.2026
 1436WAT     H2 7550   2.956   4.353   2.173 -2.0251 -0.4639  1.4351
 1436WAT    EPW 7551   2.995   4.297   2.227 -0.2437 -0.4697  0.2491
 1437WAT      O 7552   4.309   9.896   0.422  0.2384  0.8230  0.1742
 1437WAT     H1 7553   4.278   9.985   0.438  2.1084  1.8250 -1.3375
 1437WAT     H2 7554   4.273   9.844   0.494 -2.9198  2.2672 -0.2127
 1437WAT    EPW 7555   4.300   9.901   0.433  0.0687  1.1458 -0.0762
 1438WAT      O 7556  -5.050   3.268   8.736 -0.0367  0.6462 -0.0096
 1438WAT     H1 7557  -5.042   3.362   8.724  1.3920  0.7739  1.6215
 1438WAT     H2 7558  -5.062   3.256   8.830  1.3057 -0.8580  0.0257
 1438WAT    EPW 7559  -5.051   3.279   8.746  0.3288  0.4647  0.2103
 1439WAT      O 7560   2.400   1.297   2.118  0.1715 -0.1845  0.0084
 1439WAT     H1 7561   2.467   1.309   2.050  0.1529 -1.3450 -0.2401
 1439WAT     H2 7562   2.450   1.292   2.200  0.2670  0.3931 -0.0150
 1439WAT    EPW 7563   2.415   1.298   2.120  0.1816 -0.2614 -0.0274
 1440WAT      O 7564   4.709   9.742   1.869 -0.6555 -0.2151 -0.1314
 1440WAT     H1 7565   4.714   9.763   1.776 -1.1686 -0.8495 -0.3056
 1440WAT     H2 7566   4.625   9.776   1.898 -0.8465 -0.7270 -0.0815
 1440WAT    EPW 7567   4.699   9.749   1.861 -0.7484 -0.3662 -0.1478
 1441WAT      O 7568  -5.023  10.072   7.120  0.0080  0.2184  0.4435
 1441WAT     H1 7569  -4.976  10.055   7.039  0.9273 -1.1907  1.2358
 1441WAT     H2 7570  -5.110  10.034   7.106  0.2637 -0.2910  0.2157
 1441WAT    EPW 7571  -5.029  10.065   7.107  0.1628 -0.0343  0.5178
 1442WAT      O 7572   2.570   9.746   4.464 -1.0689 -0.3015 -0.4451
 1442WAT     H1 7573   2.659   9.751   4.497 -1.6977 -1.6154  1.6005
 1442WAT     H2 7574   2.531   9.831   4.486 -1.0370 -0.6230  0.8852
 1442WAT    EPW 7575   2.576   9.758   4.471 -1.1476 -0.5174  0.0000
 1443WAT      O 7576   3.685   9.334   3.796 -0.5133 -0.0531  0.3060
 1443WAT     H1 7577   3.662   9.371   3.882  1.3091 -1.1574  1.3405
 1443WAT     H2 7578   3.780   9.337   3.794 -0.5392  0.5426 -2.0060
 1443WAT    EPW 7579   3.694   9.339   3.807 -0.2763 -0.1202  0.1376
 1444WAT      O 7580  -4.537   6.621   7.054  0.0377 -0.6665  0.0757
 1444WAT     H1 7581  -4.464   6.673   7.088  0.1770 -0.8915  0.1238
 1444WAT     H2 7582  -4.535   6.635   6.960 -0.8791  0.6484  0.2315
 1444WAT    EPW 7583  -4.527   6.630   7.046 -0.0648 -0.5229  0.1025
 1445WAT      O 7584   3.491   1.951   6.610  0.0823  0.0461 -0.5772
 1445WAT     H1 7585   3.514   1.923   6.699  2.5670  1.3537 -0.7219
 1445WAT     H2 7586   3.433   2.026   6.624  0.1114 -0.0202 -0.0622
 1445WAT    EPW 7587   3.486   1.957   6.624  0.4138  0.2099 -0.5286
 1446WAT      O 7588  -2.892   7.843   3.521  1.0719  0.0322  0.4929
 1446WAT     H1 7589  -2.948   7.791   3.578 -0.7114 -0.4311 -1.5295
 1446WAT     H2 7590  -2.854   7.779   3.460  0.6188  0.7909 -0.6272
 1446WAT    EPW 7591  -2.894   7.828   3.520  0.7769  0.0713  0.0784
 1447WAT      O 7592  -0.721   1.901   1.239  0.1537  0.8011 -0.1606
 1447WAT     H1 7593  -0.646   1.877   1.294 -0.7343 -0.3695  0.5809
 1447WAT     H2 7594  -0.780   1.826   1.244  0.0169  0.6674 -2.7427
 1447WAT    EPW 7595  -0.719   1.888   1.247  0.0185  0.6290 -0.4033
 1448WAT      O 7596   7.002   0.915   3.081  0.0465  0.5260  0.4680
 1448WAT     H1 7597   6.979   0.978   3.013 -1.1445  0.8793  1.1608
 1448WAT     H2 7598   7.042   0.968   3.150 -1.2024  0.5975  1.1661
 1448WAT    EPW 7599   7.004   0.930   3.081 -0.2751  0.5820  0.6515
 1449WAT      O 7600  -1.416   0.829   2.829 -0.1742 -0.9020  0.2453
 1449WAT     H1 7601  -1.462   0.910   2.850  1.5665  0.2749 -0.2655
 1449WAT     H2 7602  -1.411   0.782   2.912 -0.8195 -0.3068  0.6352
 1449WAT    EPW 7603  -1.422   0.833   2.842 -0.0297 -0.6683  0.2294
 1450WAT      O 7604   1.053   5.568   6.202  0.2321  0.0659 -0.0440
 1450WAT     H1 7605   1.052   5.620   6.122  2.5546  1.9528  1.0246
 1450WAT     H2 7606   1.101   5.489   6.178  0.1653  0.2170 -0.7108
 1450WAT    EPW 7607   1.059   5.565   6.188  0.5296  0.3345  0.0091
 1451WAT      O 7608  -0.425   7.856   6.288 -0.4983  0.3820  0.4459
 1451WAT     H1 7609  -0.493   7.798   6.323 -1.3240  1.4530  0.6563
 1451WAT     H2 7610  -0.385   7.895   6.366  1.3160 -1.2278  0.4107
 1451WAT    EPW 7611  -0.429   7.854   6.303 -0.3679  0.3109  0.4690
 1452WAT      O 7612   2.187   2.273   0.589 -0.4515  0.9050 -0.7119
 1452WAT     H1 7613   2.186   2.332   0.514 -0.2406  0.6473 -0.9192
 1452WAT     H2 7614   2.270   2.291   0.633 -0.3859  0.7594 -0.7768
 1452WAT    EPW 7615   2.198   2.283   0.585 -0.4150  0.8518 -0.7478
 1453WAT      O 7616  -0.643   1.780   2.063 -0.0390 -0.2354  0.1907
 1453WAT     H1 7617  -0.681   1.868   2.067 -1.5923 -0.8906  0.2294
 1453WAT     H2 7618  -0.552   1.793   2.090 -0.6197  1.1335  1.6413
 1453WAT    EPW 7619  -0.636   1.794   2.067 -0.3205 -0.1413  0.3871
 1454WAT      O 7620  -2.796   1.193   6.283  0.0068  0.1422  0.1630
 1454WAT     H1 7621  -2.803   1.258   6.214 -2.0376  0.7129  0.8399
 1454WAT     H2 7622  -2.735   1.231   6.346 -0.7729  1.1972  0.3069
 1454WAT    EPW 7623  -2.789   1.206   6.282 -0.3657  0.3566  0.2713
 1455WAT      O 7624  -2.543   8.729   2.288  0.1615 -0.4873  0.7044
 1455WAT     H1 7625  -2.572   8.641   2.313  0.9780 -0.8062  0.5840
 1455WAT     H2 7626  -2.621   8.783   2.292 -0.4586 -1.3360  0.2672
 1455WAT    EPW 7627  -2.557   8.724   2.291  0.1874 -0.6409  0.6307
 1456WAT      O 7628  -4.420   2.008   7.586 -0.5192 -0.2884  0.4163
 1456WAT     H1 7629  -4.329   2.013   7.616 -0.6467  3.4240  0.6059
 1456WAT     H2 7630  -4.469   2.064   7.646 -2.1875  1.0387 -2.0089
 1456WAT    EPW 7631  -4.414   2.016   7.598 -0.7558  0.3762  0.1216
 1457WAT      O 7632   5.460  10.313   2.717 -0.6144 -0.1667 -0.5279
 1457WAT     H1 7633   5.426  10.259   2.789 -1.8477  1.3363  0.0615
 1457WAT     H2 7634   5.404  10.390   2.716  1.2406  1.2618 -1.1738
 1457WAT    EPW 7635   5.448  10.316   2.727 -0.5322  0.2198 -0.5355
 1458WAT      O 7636   7.320   0.170   1.403  0.2952  0.0486  0.4359
 1458WAT     H1 7637   7.319   0.150   1.496  1.8313 -1.3841  0.1927
 1458WAT     H2 7638   7.327   0.266   1.399  2.4748  0.0031  1.8622
 1458WAT    EPW 7639   7.321   0.180   1.414  0.7854 -0.1463  0.5920
 1459WAT      O 7640   0.996   2.352   1.802 -0.0018 -0.1172  0.2228
 1459WAT     H1 7641   0.947   2.425   1.840 -0.6784 -1.4858  2.1331
 1459WAT     H2 7642   0.949   2.331   1.721 -0.4960  0.7841  0.2592
 1459WAT    EPW 7643   0.984   2.359   1.796 -0.1562 -0.1788  0.4795
 1460WAT      O 7644  -7.963   9.223   8.195  0.0562 -0.6463 -0.4730
 1460WAT     H1 7645  -7.899   9.201   8.262  2.4851  1.9012 -1.7549
 1460WAT     H2 7646  -8.037   9.259   8.243  0.1990 -2.2229  0.9847
 1460WAT    EPW 7647  -7.964   9.225   8.210  0.3953 -0.5183 -0.4497
 1461WAT      O 7648   0.157   6.028   4.383 -0.5184  0.4411 -0.8250
 1461WAT     H1 7649   0.251   6.037   4.366  0.2911  1.1238  3.0352
 1461WAT     H2 7650   0.145   5.934   4.399 -0.1219  0.5474  0.1742
 1461WAT    EPW 7651   0.168   6.016   4.383 -0.3593  0.5450 -0.1841
 1462WAT      O 7652   2.887   9.142   6.809  0.2098 -0.1121  0.3360
 1462WAT     H1 7653   2.951   9.113   6.874 -1.5270 -2.5231  1.1065
 1462WAT     H2 7654   2.833   9.205   6.856 -0.9602 -1.7529  1.2947
 1462WAT    EPW 7655   2.888   9.147   6.824 -0.1737 -0.6466  0.5641
 1463WAT      O 7656   5.290   6.832   0.950 -0.2901 -0.1825 -0.2233
 1463WAT     H1 7657   5.276   6.812   0.858 -0.9595 -0.6215 -0.0403
 1463WAT     H2 7658   5.201   6.841   0.986 -0.0381  0.0365  0.3602
 1463WAT    EPW 7659   5.276   6.830   0.943 -0.3452 -0.2115 -0.1222
 1464WAT      O 7660  -0.208   7.440   7.519  0.2942  0.5918  0.2477
 1464WAT     H1 7661  -0.246   7.443   7.607 -2.2742  2.2699 -0.8046
 1464WAT     H2 7662  -0.208   7.347   7.497  3.2622 -0.1833  2.8048
 1464WAT    EPW 7663  -0.213   7.428   7.528  0.3469  0.7110  0.4463
 1465WAT      O 7664   5.743   8.239   1.315  0.3179  0.0714 -0.3627
 1465WAT     H1 7665   5.778   8.321   1.350  1.3108 -0.9526  1.1393
 1465WAT     H2 7666   5.815   8.201   1.266  0.7125 -1.0698  1.0395
 1465WAT    EPW 7667   5.757   8.245   1.313  0.5007 -0.2141  0.0204
 1466WAT      O 7668   5.477   4.919   6.046 -0.4229 -0.1413 -0.1561
 1466WAT     H1 7669   5.444   5.000   6.086 -0.6295  0.1450 -0.8911
 1466WAT     H2 7670   5.446   4.922   5.956  2.6022  0.7671 -1.3088
 1466WAT    EPW 7671   5.469   4.930   6.040 -0.0510  0.0165 -0.4051
 1467WAT      O 7672  -5.711   7.070   8.861  0.9584 -0.2759 -0.4980
 1467WAT     H1 7673  -5.635   7.037   8.813  0.5560 -0.2695 -1.1633
 1467WAT     H2 7674  -5.773   7.097   8.792  0.4784  0.0045  0.0277
 1467WAT    EPW 7675  -5.709   7.069   8.845  0.8421 -0.2382 -0.5164
 1468WAT      O 7676  -2.755   7.035   2.817 -0.0420 -0.1362 -0.1898
 1468WAT     H1 7677  -2.766   7.008   2.725  0.5307  0.9483 -0.5911
 1468WAT     H2 7678  -2.705   6.964   2.856 -0.6405 -0.8085 -0.6032
 1468WAT    EPW 7679  -2.750   7.022   2.810 -0.0454 -0.0818 -0.2973
 1469WAT      O 7680  -0.756   0.941   2.802 -0.7711  0.7883 -0.0284
 1469WAT     H1 7681  -0.773   0.956   2.896 -1.7264 -0.0245 -0.0512
 1469WAT     H2 7682  -0.840   0.957   2.760 -0.5351  0.3975 -0.6579
 1469WAT    EPW 7683  -0.769   0.945   2.809 -0.8660  0.6296 -0.1144
 1470WAT      O 7684  -5.351  10.281   5.007  0.0381 -0.5690 -0.2760
 1470WAT     H1 7685  -5.280  10.216   5.001 -2.1978 -3.0252 -2.2125
 1470WAT     H2 7686  -5.409  10.261   4.934 -1.8951  2.3796  0.2576
 1470WAT    EPW 7687  -5.349  10.270   4.996 -0.5119 -0.5040 -0.4611
 1471WAT      O 7688  -0.502   5.464   8.908 -0.1588 -0.4288  0.5278
 1471WAT     H1 7689  -0.483   5.545   8.955 -0.6251 -0.8538  1.4765
 1471WAT     H2 7690  -0.435   5.403   8.938  0.2548 -0.3764 -0.2648
 1471WAT    EPW 7691  -0.490   5.467   8.918 -0.1657 -0.4778  0.5484
 1472WAT      O 7692   4.128   1.827   0.503 -0.2064 -0.3142  0.1615
 1472WAT     H1 7693   4.052   1.774   0.480 -1.0107  0.2378  1.4635
 1472WAT     H2 7694   4.093   1.913   0.522  0.5711 -0.3197  1.8580
 1472WAT    EPW 7695   4.114   1.831   0.502 -0.2098 -0.2421  0.5570
 1473WAT      O 7696   2.229   4.111   0.872  0.0248 -0.0846 -0.0350
 1473WAT     H1 7697   2.243   4.151   0.958  0.9936  0.1976 -0.3146
 1473WAT     H2 7698   2.219   4.017   0.891 -3.2626  0.3026  0.7330
 1473WAT    EPW 7699   2.229   4.104   0.886 -0.2811  0.0036  0.0294
 1474WAT      O 7700   5.505   6.974   3.153  0.4572  0.1339  0.0646
 1474WAT     H1 7701   5.594   7.006   3.169  0.6713 -0.6417  0.4511
 1474WAT     H2 7702   5.458   6.996   3.233  0.2551  0.6780 -0.1980
 1474WAT    EPW 7703   5.511   6.981   3.166  0.4590  0.1035  0.0809
 1475WAT      O 7704  -4.337   7.250   6.395  0.6967 -0.8412 -0.0835
 1475WAT     H1 7705  -4.428   7.253   6.423  1.5002  1.9688  2.7249
 1475WAT     H2 7706  -4.302   7.172   6.439 -0.2313 -1.8432 -1.0446
 1475WAT    EPW 7707  -4.344   7.240   6.404  0.6802 -0.6027  0.1602
 1476WAT      O 7708   0.024   5.442   1.701  0.5347  0.3951  1.1206
 1476WAT     H1 7709   0.086   5.425   1.772 -1.3646  0.6097  2.8931
 1476WAT     H2 7710   0.010   5.356   1.661  2.4376  0.4421  0.2139
 1476WAT    EPW 7711   0.030   5.428   1.705  0.5351  0.4296  1.2348
 1477WAT      O 7712   0.705   8.115   5.817  0.1296  0.4623 -0.0332
 1477WAT     H1 7713   0.692   8.164   5.898 -2.2714  1.2870 -0.8292
 1477WAT     H2 7714   0.684   8.024   5.841 -0.3851  0.6709  0.3337
 1477WAT    EPW 7715   0.700   8.109   5.831 -0.2550  0.5989 -0.0899
 1478WAT      O 7716  -4.830   6.465   8.179  0.0947  0.2139  0.0143
 1478WAT     H1 7717  -4.880   6.393   8.142  1.7005 -0.2046 -1.4335
 1478WAT     H2 7718  -4.803   6.517   8.104  0.4507  1.3398  0.8974
 1478WAT    EPW 7719  -4.833   6.462   8.164  0.3533  0.3071 -0.0601
 1479WAT      O 7720  -0.727   1.725   7.272 -0.9228  0.0812  0.0560
 1479WAT     H1 7721  -0.791   1.684   7.215 -1.5213  2.9427 -1.4978
 1479WAT     H2 7722  -0.657   1.754   7.213 -0.1994  0.6803  1.1685
 1479WAT    EPW 7723  -0.726   1.723   7.257 -0.9063  0.5377 -0.0021
 1480WAT      O 7724   4.483   6.847   4.204  0.2050 -0.6839 -0.5340
 1480WAT     H1 7725   4.425   6.859   4.279 -1.0317 -1.5987 -1.3050
 1480WAT     H2 7726   4.521   6.760   4.216  1.4979 -0.0815 -0.0158
 1480WAT    EPW 7727   4.480   6.837   4.215  0.2122 -0.7250 -0.5674
 1481WAT      O 7728   2.494   5.570   5.513  0.0884 -0.0553  0.1397
 1481WAT     H1 7729   2.494   5.477   5.538 -0.9895 -0.2146 -0.4096
 1481WAT     H2 7730   2.551   5.611   5.578  1.6402 -1.2826 -0.3699
 1481WAT    EPW 7731   2.501   5.563   5.525  0.1508 -0.2382  0.0000
 1482WAT      O 7732   1.158   2.070   4.607  0.0931  0.1287 -0.4910
 1482WAT     H1 7733   1.142   2.164   4.596 -0.5906  0.1832  0.6879
 1482WAT     H2 7734   1.076   2.029   4.580 -0.6696  0.1074  1.6094
 1482WAT    EPW 7735   1.145   2.077   4.602 -0.0976  0.1332 -0.0587
 1483WAT      O 7736   2.819   0.952   4.574  0.1054 -0.1613 -0.1556
 1483WAT     H1 7737   2.824   0.974   4.481  1.1997 -1.7047 -0.5143
 1483WAT     H2 7738   2.883   1.009   4.616 -0.4052  0.5537 -0.3314
 1483WAT    EPW 7739   2.828   0.962   4.567  0.1824 -0.2705 -0.2263
 1484WAT      O 7740  -2.841   9.533   3.203  0.4802  0.2490  0.0909
 1484WAT     H1 7741  -2.793   9.611   3.230  0.0499  1.0021 -1.2424
 1484WAT     H2 7742  -2.822   9.524   3.110  0.5875 -1.2966  0.2304
 1484WAT    EPW 7743  -2.832   9.542   3.194  0.4376  0.1445 -0.0666
 1485WAT      O 7744   4.034   5.369   8.032 -0.2363 -0.1210 -0.4477
 1485WAT     H1 7745   4.038   5.311   7.956  0.0999 -0.9281  0.1705
 1485WAT     H2 7746   4.089   5.327   8.097 -2.9581 -1.1405  1.3728
 1485WAT    EPW 7747   4.042   5.356   8.030 -0.5510 -0.3617 -0.1264
 1486WAT      O 7748   4.956   0.290   4.774  0.3611  0.9807 -0.3282
 1486WAT     H1 7749   4.975   0.382   4.790 -1.5434  1.7403 -1.9700
 1486WAT     H2 7750   4.905   0.262   4.850 -0.0324  1.6186 -0.3546
 1486WAT    EPW 7751   4.952   0.298   4.786  0.0582  1.1650 -0.5484
 1487WAT      O 7752   6.244   3.415   3.070 -0.1967  0.1049  0.5000
 1487WAT     H1 7753   6.282   3.499   3.094  1.6591  0.0721 -1.9883
 1487WAT     H2 7754   6.149   3.428   3.078  0.0925  1.9271  1.5512
 1487WAT    EPW 7755   6.236   3.428   3.074  0.0863  0.3408  0.3104
 1488WAT      O 7756  -4.854   9.985   2.186  0.3867  0.0840  0.0778
 1488WAT     H1 7757  -4.856  10.016   2.276  1.2236  1.1551 -0.2526
 1488WAT     H2 7758  -4.872   9.891   2.193 -1.5612  0.4878  1.1675
 1488WAT    EPW 7759  -4.857   9.976   2.199  0.2401  0.2789  0.1780
 1489WAT      O 7760   4.866   3.356   6.686  0.1129 -0.3322  0.2395
 1489WAT     H1 7761   4.871   3.447   6.715 -2.1584  0.9984 -2.9848
 1489WAT     H2 7762   4.816   3.312   6.754 -0.1851  1.2335  1.0725
 1489WAT    EPW 7763   4.860   3.362   6.699 -0.2258  0.0497 -0.0756
 1490WAT      O 7764  -2.944   7.300   2.423  0.4164 -0.1045  0.4465
 1490WAT     H1 7765  -2.910   7.382   2.459 -0.8858  0.5481  0.2423
 1490WAT     H2 7766  -3.039   7.310   2.425  0.2483 -0.4132 -2.2810
 1490WAT    EPW 7767  -2.952   7.312   2.428  0.2224 -0.0589  0.0597
 1491WAT      O 7768   4.772   6.476   1.985 -0.0910  0.2013 -0.8155
 1491WAT     H1 7769   4.702   6.540   1.996  0.4513  0.4455  1.8034
 1491WAT     H2 7770   4.731   6.392   2.004  0.2778  0.3505  0.7784
 1491WAT    EPW 7771   4.758   6.473   1.989  0.0291  0.2532 -0.2599
 1492WAT      O 7772   4.572   3.278   3.701  0.0567 -0.1213  0.0483
 1492WAT     H1 7773   4.649   3.291   3.756 -0.2333  0.9455  0.2245
 1492WAT     H2 7774   4.578   3.348   3.635 -0.2280 -0.6518 -0.5455
 1492WAT    EPW 7775   4.583   3.289   3.699 -0.0193 -0.0507 -0.0068
 1493WAT      O 7776  -4.157  10.210   8.848  0.0308  0.2462 -0.0244
 1493WAT     H1 7777  -4.208  10.269   8.905  1.2697 -0.4473  1.8916
 1493WAT     H2 7778  -4.067  10.220   8.878  0.5118 -1.2807 -0.8842
 1493WAT    EPW 7779  -4.152  10.219   8.860  0.2575 -0.0467  0.1149
 1494WAT      O 7780   2.983   4.376   2.964  0.1829  0.4391 -0.6005
 1494WAT     H1 7781   2.964   4.466   2.992  0.9883  0.7233 -0.9430
 1494WAT     H2 7782   3.074   4.379   2.935 -0.3986 -0.0165 -2.5851
 1494WAT    EPW 7783   2.993   4.388   2.964  0.2124  0.4165 -0.9074
 1495WAT      O 7784   2.609   6.542   2.117  0.1938  0.0198 -0.9326
 1495WAT     H1 7785   2.552   6.607   2.160  1.3740  1.1793 -1.0780
 1495WAT     H2 7786   2.572   6.458   2.144  1.0836  0.6474  2.7595
 1495WAT    EPW 7787   2.596   6.540   2.127  0.4668  0.2556 -0.4647
 1496WAT      O 7788   0.545   6.725   8.817  0.4106 -0.3443  0.6332
 1496WAT     H1 7789   0.629   6.757   8.850  0.7945 -2.6351  2.0985
 1496WAT     H2 7790   0.479   6.770   8.871  0.4693  2.7429 -1.6171
 1496WAT    EPW 7791   0.547   6.735   8.829  0.4690 -0.2391  0.5298
 1497WAT      O 7792   6.682  10.289   0.372  0.2928 -0.3298 -0.1636
 1497WAT     H1 7793   6.750  10.353   0.349 -1.2810  1.9483  1.1662
 1497WAT     H2 7794   6.641  10.267   0.288  2.6306 -1.8086 -0.9992
 1497WAT    EPW 7795   6.686  10.295   0.358  0.3936 -0.2241 -0.0985
 1498WAT      O 7796  -5.124   8.905   8.662  0.4117 -0.2186 -1.0020
 1498WAT     H1 7797  -5.168   8.910   8.747  2.0523  1.6794 -0.1495
 1498WAT     H2 7798  -5.187   8.864   8.604 -1.9528  1.1537  0.4352
 1498WAT    EPW 7799  -5.138   8.901   8.666  0.3161  0.2127 -0.7000
 1499WAT      O 7800   4.661   5.603   1.721  0.3308  0.3321  0.3666
 1499WAT     H1 7801   4.733   5.603   1.658 -0.2634 -0.6292 -0.3401
 1499WAT     H2 7802   4.597   5.664   1.685 -1.3401 -2.3658 -1.6244
 1499WAT    EPW 7803   4.662   5.611   1.708  0.0322 -0.1504  0.0108
 1500WAT      O 7804  -0.765   3.463   0.286 -0.2740 -0.4246  0.5541
 1500WAT     H1 7805  -0.670   3.458   0.296 -0.2698 -3.0004 -0.1409
 1500WAT     H2 7806  -0.799   3.449   0.374 -0.1220  3.1708  1.3717
 1500WAT    EPW 7807  -0.757   3.461   0.299 -0.2534 -0.2902  0.5702
 1501WAT      O 7808  -3.418   0.630   8.810 -0.0514 -0.1488  0.7554
 1501WAT     H1 7809  -3.467   0.583   8.743  2.5205 -0.6077 -0.9425
 1501WAT     H2 7810  -3.432   0.580   8.890 -1.2188 -1.0213  0.0212
 1501WAT    EPW 7811  -3.426   0.618   8.812  0.1339 -0.3244  0.4349
 1502WAT      O 7812   5.264   5.763   2.511 -0.7840  0.0355 -0.3542
 1502WAT     H1 7813   5.257   5.715   2.593 -0.5855  2.4405  1.1890
 1502WAT     H2 7814   5.221   5.708   2.446 -2.8469 -1.0419  1.8021
 1502WAT    EPW 7815   5.257   5.750   2.513 -1.0300  0.2108  0.1336
 1503WAT      O 7816  -2.043   1.891   8.471  0.2003 -0.4596 -0.0797
 1503WAT     H1 7817  -2.049   1.799   8.499  1.4650 -0.6353 -0.3338
 1503WAT     H2 7818  -2.101   1.897   8.395 -0.9460 -0.7044  0.7474
 1503WAT    EPW 7819  -2.051   1.879   8.465  0.2159 -0.5151 -0.0038
 1504WAT      O 7820   2.509   5.089   1.478  0.5896  0.1335  0.4847
 1504WAT     H1 7821   2.511   5.170   1.426 -0.8063 -1.4906 -2.3295
 1504WAT     H2 7822   2.592   5.047   1.460  0.5463  0.0764  0.4157
 1504WAT    EPW 7823   2.520   5.094   1.469  0.3997 -0.0885  0.1044
 1505WAT      O 7824   0.463   9.009   0.317  0.0740 -0.6361 -0.2540
 1505WAT     H1 7825   0.558   9.007   0.332  0.2410  1.1412 -0.8800
 1505WAT     H2 7826   0.433   9.085   0.365 -0.6421  0.2620 -2.0595
 1505WAT    EPW 7827   0.472   9.019   0.325  0.0016 -0.2832 -0.5747
 1506WAT      O 7828  -1.636   0.962   4.925  0.1066  0.3424  0.1645
 1506WAT     H1 7829  -1.645   0.896   4.993  1.5013 -0.5298 -0.4531
 1506WAT     H2 7830  -1.595   0.916   4.852  1.4691  1.9537 -0.1407
 1506WAT    EPW 7831  -1.632   0.948   4.924  0.4703  0.4399  0.0429
 1507WAT      O 7832  -0.181   0.467   1.926  0.7857 -0.5195  0.0621
 1507WAT     H1 7833  -0.266   0.461   1.883 -0.2232  2.5810  1.3834
 1507WAT     H2 7834  -0.200   0.504   2.012  3.0396 -3.8250  2.2315
 1507WAT    EPW 7835  -0.195   0.471   1.932  0.9499 -0.5465  0.5225
 1508WAT      O 7836   5.753   2.492   0.049  0.3079 -0.9544 -0.7521
 1508WAT     H1 7837   5.844   2.488   0.078  0.5342 -1.4694 -1.4925
 1508WAT     H2 7838   5.747   2.574   0.000  0.3108 -0.8069 -0.5070
 1508WAT    EPW 7839   5.764   2.502   0.047  0.3381 -1.0028 -0.8174
 1509WAT      O 7840  -1.177   3.248   7.401  0.5559 -0.5573 -0.5173
 1509WAT     H1 7841  -1.092   3.293   7.405 -0.0157  0.9371 -3.2935
 1509WAT     H2 7842  -1.154   3.156   7.386  1.8317  0.1804 -4.0859
 1509WAT    EPW 7843  -1.163   3.241   7.400  0.6487 -0.2629 -1.3542
 1510WAT      O 7844   6.705   6.817   0.805  0.2019  0.1493  0.2871
 1510WAT     H1 7845   6.710   6.867   0.723  1.6839 -1.5784 -0.7494
 1510WAT     H2 7846   6.620   6.774   0.801 -0.7611  1.8867  0.8295
 1510WAT    EPW 7847   6.694   6.818   0.794  0.2704  0.1507  0.2219
 1511WAT      O 7848   6.277   2.811   4.447  0.1634 -0.3226  0.4243
 1511WAT     H1 7849   6.211   2.742   4.441  0.4292 -0.4440 -1.9186
 1511WAT     H2 7850   6.236   2.879   4.501 -1.0748 -1.2410  0.6783
 1511WAT    EPW 7851   6.263   2.811   4.453  0.0353 -0.4597  0.1490
 1512WAT      O 7852   4.522   5.804   3.465 -0.5931 -0.1430 -0.1014
 1512WAT     H1 7853   4.525   5.715   3.501  1.1261  0.1833  0.6548
 1512WAT     H2 7854   4.496   5.791   3.374  0.6073 -1.5433 -0.2953
 1512WAT    EPW 7855   4.519   5.790   3.458 -0.2079 -0.2847 -0.0273
 1513WAT      O 7856  -4.016   8.537   8.888  0.1127  0.7041 -0.0197
 1513WAT     H1 7857  -4.077   8.585   8.831  0.2677 -0.0851 -0.8738
 1513WAT     H2 7858  -3.931   8.574   8.868  0.2665 -0.0857 -0.8696
 1513WAT    EPW 7859  -4.013   8.548   8.878  0.1533  0.4959 -0.2446
 1514WAT      O 7860   4.954   2.047   1.527  0.9232  0.1244  0.0000
 1514WAT     H1 7861   4.867   2.010   1.510  1.3949 -0.8817 -0.3246
 1514WAT     H2 7862   4.986   2.072   1.441  1.4775 -0.7340 -0.0539
 1514WAT    EPW 7863   4.947   2.046   1.513  1.0583 -0.1215 -0.0499
 1515WAT      O 7864   0.454   7.189   4.135 -0.3270 -0.2450  0.6930
 1515WAT     H1 7865   0.434   7.241   4.057  1.2227 -0.3705  0.1792
 1515WAT     H2 7866   0.370   7.148   4.159 -1.2522  1.3166  0.2513
 1515WAT    EPW 7867   0.440   7.190   4.127 -0.2446 -0.0556  0.5667
 1516WAT      O 7868   3.120   7.191   4.085 -0.5603 -0.1088 -0.4843
 1516WAT     H1 7869   3.034   7.155   4.063 -0.5328  0.6525 -1.9647
 1516WAT     H2 7870   3.104   7.244   4.163 -1.6485  0.7139 -1.2185
 1516WAT    EPW 7871   3.106   7.193   4.092 -0.7002  0.1001 -0.7763
 1517WAT      O 7872  -6.589   9.598   6.811  0.3047 -0.2950  0.1068
 1517WAT     H1 7873  -6.541   9.658   6.869  0.4815 -0.3895  0.0585
 1517WAT     H2 7874  -6.647   9.655   6.760  1.2897 -0.0281 -0.7551
 1517WAT    EPW 7875  -6.590   9.613   6.812  0.4580 -0.2723 -0.0131
 1518WAT      O 7876  -2.609   0.393   5.010  0.3788  0.6240  0.3786
 1518WAT     H1 7877  -2.685   0.337   4.989  0.0814  0.2156  2.2811
 1518WAT     H2 7878  -2.547   0.376   4.940 -0.3255 -0.9505  0.0779
 1518WAT    EPW 7879  -2.611   0.383   4.998  0.2468  0.3625  0.5898
 1519WAT      O 7880   5.037   7.531   2.162 -0.2194  0.4396 -0.2752
 1519WAT     H1 7881   5.113   7.497   2.209 -0.1990 -0.7014 -1.0948
 1519WAT     H2 7882   4.962   7.489   2.206 -0.2483  0.0386 -0.6955
 1519WAT    EPW 7883   5.037   7.521   2.174 -0.2205  0.2363 -0.4388
 1520WAT      O 7884  -1.427   5.801   6.389  0.3746  0.0578  0.2005
 1520WAT     H1 7885  -1.356   5.842   6.339 -0.4610  1.8088  0.3542
 1520WAT     H2 7886  -1.393   5.796   6.478  0.3418  0.8233  0.2602
 1520WAT    EPW 7887  -1.413   5.806   6.394  0.2600  0.3896  0.2284
 1521WAT      O 7888   3.986   9.287   1.547  0.2756 -0.5361  0.1247
 1521WAT     H1 7889   4.028   9.228   1.484  3.0719 -0.3814  1.6502
 1521WAT     H2 7890   3.938   9.229   1.606  0.2573 -0.9634 -0.3068
 1521WAT    EPW 7891   3.985   9.272   1.547  0.6421 -0.5722  0.2691
 1522WAT      O 7892  -3.123   9.224   7.651  0.0617  0.0535  0.3031
 1522WAT     H1 7893  -3.162   9.254   7.733 -0.0995  1.8903 -0.3973
 1522WAT     H2 7894  -3.194   9.178   7.605 -0.0329 -0.3899  0.8821
 1522WAT    EPW 7895  -3.138   9.222   7.655  0.0279  0.2370  0.2871
 1523WAT      O 7896   1.786   3.856   2.537  0.4102 -0.1303  0.0228
 1523WAT     H1 7897   1.803   3.947   2.515 -0.3977 -0.2509 -1.2121
 1523WAT     H2 7898   1.769   3.857   2.631 -2.8990  1.5990 -0.4343
 1523WAT    EPW 7899   1.786   3.868   2.547 -0.1329  0.0819 -0.2003
 1524WAT      O 7900  -6.530   9.296   8.031  0.0232 -0.2202 -0.6619
 1524WAT     H1 7901  -6.438   9.273   8.038 -0.5913 -2.5987  0.6572
 1524WAT     H2 7902  -6.571   9.256   8.108 -2.1973  0.2627 -1.5061
 1524WAT    EPW 7903  -6.524   9.288   8.042 -0.3510 -0.4702 -0.5989
 1525WAT      O 7904  -3.075   7.056   6.250 -0.1479  0.1874  0.2982
 1525WAT     H1 7905  -3.089   6.977   6.302  0.0875 -0.7884 -1.0683
 1525WAT     H2 7906  -3.144   7.116   6.278 -1.6214 -1.2617 -0.0542
 1525WAT    EPW 7907  -3.086   7.053   6.260 -0.3113 -0.1326  0.0713
 1526WAT      O 7908  -2.560   7.894   1.662 -0.1294  0.1593  0.5446
 1526WAT     H1 7909  -2.580   7.851   1.746 -0.0413 -0.0635  0.4540
 1526WAT     H2 7910  -2.586   7.829   1.596 -3.7667  1.7039  0.2125
 1526WAT    EPW 7911  -2.566   7.880   1.665 -0.5975  0.3338  0.4889
 1527WAT      O 7912   4.839   3.561   2.618  0.2396 -0.0249  0.4159
 1527WAT     H1 7913   4.779   3.635   2.616 -1.4842 -1.2842  2.3661
 1527WAT     H2 7914   4.790   3.488   2.580  2.2589 -0.0746 -2.4733
 1527WAT    EPW 7915   4.825   3.561   2.613  0.2787 -0.1975  0.2921
 1528WAT      O 7916  -1.352   5.956   2.128 -0.0338 -0.5961 -0.5947
 1528WAT     H1 7917  -1.309   6.005   2.058 -0.6292 -1.8036 -1.8565
 1528WAT     H2 7918  -1.348   5.865   2.099 -0.4885 -1.1066  0.8554
 1528WAT    EPW 7919  -1.346   5.950   2.115 -0.1723 -0.8228 -0.5698
 1529WAT      O 7920  -0.564   4.009   4.761 -0.4018 -0.3105 -0.8558
 1529WAT     H1 7921  -0.588   3.981   4.849 -0.1228  2.7458  0.3020
 1529WAT     H2 7922  -0.644   4.047   4.725 -0.4029 -1.1687 -1.8019
 1529WAT    EPW 7923  -0.577   4.011   4.768 -0.3651 -0.0207 -0.8278
 1530WAT      O 7924  -0.262   5.813   6.729 -0.0185  1.2323 -0.2294
 1530WAT     H1 7925  -0.260   5.832   6.635  0.2112  3.3391  0.1458
 1530WAT     H2 7926  -0.178   5.846   6.761  0.3267 -0.3570  0.5930
 1530WAT    EPW 7927  -0.251   5.820   6.721  0.0573  1.3003 -0.0713
 1531WAT      O 7928  -4.007   9.956   7.592 -0.4894  0.2971 -0.1566
 1531WAT     H1 7929  -3.970   9.914   7.514 -0.1524 -1.2293  0.7827
 1531WAT     H2 7930  -3.936   9.953   7.656 -1.6885 -1.2670  1.1791
 1531WAT    EPW 7931  -3.993   9.950   7.590 -0.6030 -0.1106  0.1435
 1532WAT      O 7932  -1.387   1.163   3.530 -0.0500 -0.5168 -0.0256
 1532WAT     H1 7933  -1.407   1.134   3.619  0.0032  0.5346  0.3417
 1532WAT     H2 7934  -1.462   1.133   3.478 -0.9565  0.3793  0.7125
 1532WAT    EPW 7935  -1.400   1.156   3.535 -0.1626 -0.2599  0.1203
 1533WAT      O 7936   0.588   7.070   8.445 -0.0456  0.5386 -0.1458
 1533WAT     H1 7937   0.681   7.080   8.465 -0.1765  1.7549 -0.1182
 1533WAT     H2 7938   0.565   7.148   8.395 -0.8854 -0.1155 -0.8112
 1533WAT    EPW 7939   0.597   7.081   8.441 -0.1737  0.6127 -0.2294
 1534WAT      O 7940   1.894   9.114   5.162 -0.0417 -0.5363  1.0093
 1534WAT     H1 7941   1.837   9.052   5.207  0.9160 -2.5484 -0.4107
 1534WAT     H2 7942   1.970   9.123   5.219  1.0400 -2.8582  0.0678
 1534WAT    EPW 7943   1.896   9.107   5.175  0.2273 -1.1082  0.6979
 1535WAT      O 7944   2.433   1.315   0.288 -0.4816 -0.4595 -0.6450
 1535WAT     H1 7945   2.432   1.376   0.362 -0.1219 -0.4626 -0.6393
 1535WAT     H2 7946   2.371   1.353   0.225 -0.1586 -0.0116 -0.7005
 1535WAT    EPW 7947   2.424   1.328   0.289 -0.3915 -0.4008 -0.6516
 1536WAT      O 7948   2.636   6.698   7.819  0.0722  0.2465 -0.6514
 1536WAT     H1 7949   2.658   6.741   7.736 -1.3376  0.1935 -1.0729
 1536WAT     H2 7950   2.621   6.606   7.795  1.5100 -0.1907 -0.0070
 1536WAT    EPW 7951   2.637   6.691   7.804  0.0759  0.1817 -0.6220
 1537WAT      O 7952   1.506  10.081   2.509  0.3955  0.0716  0.4647
 1537WAT     H1 7953   1.564  10.006   2.522  3.3069  1.7464 -1.5717
 1537WAT     H2 7954   1.519  10.135   2.587 -0.3128 -0.6766  1.1109
 1537WAT    EPW 7955   1.516  10.079   2.521  0.6860  0.1936  0.2813
 1538WAT      O 7956   2.032   3.682   7.705  0.1484 -0.0821  0.6990
 1538WAT     H1 7957   1.991   3.631   7.774  1.0542 -1.2161  0.4269
 1538WAT     H2 7958   2.047   3.768   7.745 -1.1180 -0.0989  1.2610
 1538WAT    EPW 7959   2.029   3.687   7.719  0.1009 -0.2339  0.7372
 1539WAT      O 7960  -1.182   5.010   1.048 -0.2199 -0.1683  0.1081
 1539WAT     H1 7961  -1.136   4.929   1.073  1.1216  0.8103  0.9603
 1539WAT     H2 7962  -1.273   4.983   1.036  0.2438 -1.8529  0.1067
 1539WAT    EPW 7963  -1.188   4.996   1.050  0.0182 -0.2613  0.2204
 1540WAT      O 7964   2.671  10.223   3.251 -0.4150  0.1133 -0.0704
 1540WAT     H1 7965   2.658  10.296   3.312 -0.1747 -0.1673  0.3261
 1540WAT     H2 7966   2.685  10.147   3.308  0.1384 -0.0973 -0.4746
 1540WAT    EPW 7967   2.671  10.223   3.267 -0.3103  0.0491 -0.0713
 1541WAT      O 7968  -2.930   6.336   6.847  0.7562  0.8177 -0.2669
 1541WAT     H1 7969  -2.957   6.415   6.893  0.0536  0.2305  0.3530
 1541WAT     H2 7970  -2.853   6.305   6.896 -0.1751  0.0237  0.7367
 1541WAT    EPW 7971  -2.923   6.342   6.859  0.5407  0.6356 -0.0529
 1542WAT      O 7972   4.241   9.522   1.956 -0.3692 -0.0238  0.5887
 1542WAT     H1 7973   4.296   9.505   2.032 -4.1143 -0.6142  3.4825
 1542WAT     H2 7974   4.183   9.593   1.984 -3.0616 -1.4491 -0.9448
 1542WAT    EPW 7975   4.241   9.529   1.970 -1.2181 -0.2899  0.7681
 1543WAT      O 7976  -6.069  10.095   8.945  0.5085  0.0596  0.5344
 1543WAT     H1 7977  -6.070  10.096   9.041  1.7825 -3.8571  0.7656
 1543WAT     H2 7978  -6.160  10.082   8.920  0.0731  1.7693  1.1230
 1543WAT    EPW 7979  -6.081  10.094   8.954  0.6192 -0.2313  0.6423
 1544WAT      O 7980   5.403   3.555   4.665  0.3785  0.4506  0.2181
 1544WAT     H1 7981   5.423   3.509   4.747  2.1627  1.4046  0.3639
 1544WAT     H2 7982   5.321   3.516   4.636 -0.0320 -0.2893  2.1787
 1544WAT    EPW 7983   5.395   3.544   4.672  0.5598  0.4789  0.4959
 1545WAT      O 7984  -3.008   1.912   8.638 -0.1596  0.0282  0.2859
 1545WAT     H1 7985  -3.055   1.895   8.720  1.6534 -1.3231  1.1404
 1545WAT     H2 7986  -3.036   1.842   8.579 -0.0378 -0.1397  0.4257
 1545WAT    EPW 7987  -3.018   1.900   8.641  0.0956 -0.1723  0.4172
 1546WAT      O 7988  -0.053   8.225   1.762 -0.5551 -0.0247 -0.2331
 1546WAT     H1 7989  -0.002   8.151   1.730 -0.4993  0.8526 -2.3211
 1546WAT     H2 7990  -0.142   8.192   1.770 -0.6598 -0.1797 -1.7957
 1546WAT    EPW 7991  -0.058   8.211   1.759 -0.5615  0.0706 -0.7146
 1547WAT      O 7992   0.462   5.571   0.509 -0.4454  0.1282  0.2855
 1547WAT     H1 7993   0.515   5.539   0.582  0.4768  2.0302  0.4889
 1547WAT     H2 7994   0.372   5.562   0.540 -0.1341 -0.3998  1.0846
 1547WAT    EPW 7995   0.457   5.566   0.523 -0.2827  0.3095  0.4177
 1548WAT      O 7996  -4.547   5.767   4.047  0.0977  0.3815  0.1015
 1548WAT     H1 7997  -4.541   5.803   4.135 -0.4641  0.3312  0.1594
 1548WAT     H2 7998  -4.496   5.828   3.993  0.3681  0.4594  0.4426
 1548WAT    EPW 7999  -4.539   5.780   4.051  0.0591  0.3853  0.1540
 1549WAT      O 8000   7.677   8.244   0.439 -0.6780  0.1447 -0.1779
 1549WAT     H1 8001   7.715   8.164   0.475  0.5469  0.9249  0.3207
 1549WAT     H2 8002   7.625   8.281   0.510 -1.5448 -0.3814 -0.5254
 1549WAT    EPW 8003   7.675   8.238   0.453 -0.6306  0.1783 -0.1580
 1550WAT      O 8004   1.355   3.715   2.891  0.0014  0.1950 -0.5629
 1550WAT     H1 8005   1.324   3.796   2.850 -2.8100  0.2690  1.4009
 1550WAT     H2 8006   1.426   3.686   2.835 -1.8691  1.5784 -3.9805
 1550WAT    EPW 8007   1.360   3.722   2.878 -0.6161  0.3872 -0.7547
 1551WAT      O 8008   1.515   7.383   0.357  0.5103 -0.3394 -0.2299
 1551WAT     H1 8009   1.533   7.322   0.286  1.5818 -2.3256  1.6236
 1551WAT     H2 8010   1.449   7.442   0.321 -0.4187 -2.4188 -2.2478
 1551WAT    EPW 8011   1.508   7.382   0.343  0.5291 -0.8755 -0.2516
 1552WAT      O 8012  -2.023   7.417   7.314  0.1160 -0.4782 -0.7135
 1552WAT     H1 8013  -2.008   7.461   7.398 -0.3584 -0.0969 -0.8215
 1552WAT     H2 8014  -2.116   7.434   7.295  0.5020  0.4194 -1.8779
 1552WAT    EPW 8015  -2.033   7.425   7.323  0.1043 -0.3095 -0.8812
 1553WAT      O 8016  -1.149   8.958   2.717 -0.2203 -0.1269 -0.2308
 1553WAT     H1 8017  -1.232   8.998   2.743 -1.4351 -2.0202 -0.9702
 1553WAT     H2 8018  -1.170   8.867   2.701  1.5777 -0.2529 -2.4673
 1553WAT    EPW 8019  -1.162   8.952   2.718 -0.1433 -0.3934 -0.6233
 1554WAT      O 8020   1.760   0.456   5.478 -0.9204  0.2388 -0.3564
 1554WAT     H1 8021   1.798   0.542   5.463 -0.7068  0.3039  0.5051
 1554WAT     H2 8022   1.675   0.459   5.433 -1.1171  1.0664  0.0472
 1554WAT    EPW 8023   1.754   0.468   5.470 -0.9181  0.3565 -0.1893
 1555WAT      O 8024   1.618   9.480   1.817  0.1831  0.1679  0.1121
 1555WAT     H1 8025   1.702   9.435   1.827  0.7741  0.5083 -2.6763
 1555WAT     H2 8026   1.627   9.558   1.872  1.8907  0.4126 -0.4508
 1555WAT    EPW 8027   1.630   9.485   1.826  0.4863  0.2451 -0.3299
 1556WAT      O 8028  -5.738   9.048   6.843  0.6762  0.0891  0.1156
 1556WAT     H1 8029  -5.711   9.140   6.847  0.1715  0.2537 -0.0944
 1556WAT     H2 8030  -5.745   9.029   6.749 -3.1597  1.0726  0.0203
 1556WAT    EPW 8031  -5.736   9.058   6.831  0.1035  0.2403  0.0753
 1557WAT      O 8032  -1.581   2.571   8.856 -0.8064  0.6563  0.0620
 1557WAT     H1 8033  -1.608   2.625   8.781 -2.2744 -0.6663 -0.4299
 1557WAT     H2 8034  -1.562   2.485   8.817  1.0076  0.6397  0.8865
 1557WAT    EPW 8035  -1.582   2.566   8.841 -0.7607  0.4797  0.1054
 1558WAT      O 8036  -1.095   4.787   0.710 -0.0729 -0.3212 -0.4006
 1558WAT     H1 8037  -1.039   4.753   0.640 -1.6194  1.3048 -2.5951
 1558WAT     H2 8038  -1.048   4.863   0.744  0.2120 -0.4733 -0.4561
 1558WAT    EPW 8039  -1.081   4.793   0.705 -0.2393 -0.1266 -0.6974
 1559WAT      O 8040  -1.661   9.065   6.069 -0.3703 -0.7240  0.6266
 1559WAT     H1 8041  -1.738   9.115   6.096  0.7351  1.6893 -0.4279
 1559WAT     H2 8042  -1.590   9.102   6.121  0.4516 -1.3746 -0.0187
 1559WAT    EPW 8043  -1.662   9.076   6.079 -0.1161 -0.4916  0.4025
 1560WAT      O 8044   3.832   2.850   4.114  0.1041  0.3407  0.1739
 1560WAT     H1 8045   3.753   2.843   4.060 -0.8159  0.8882  1.3866
 1560WAT     H2 8046   3.847   2.945   4.123  2.6993  0.3141 -2.4902
 1560WAT    EPW 8047   3.823   2.862   4.108  0.3250  0.4094 -0.0176
 1561WAT      O 8048  -2.773   2.211   7.485 -0.1990 -0.0864  0.2414
 1561WAT     H1 8049  -2.832   2.143   7.451  0.9460 -0.7107 -0.5631
 1561WAT     H2 8050  -2.829   2.287   7.497 -1.1456 -0.6148 -0.6631
 1561WAT    EPW 8051  -2.788   2.212   7.482 -0.1729 -0.2383  0.0157
 1562WAT      O 8052  -0.355   9.764   2.773  0.0433  1.1029  0.1946
 1562WAT     H1 8053  -0.339   9.737   2.863 -3.5119  2.0604  1.2869
 1562WAT     H2 8054  -0.346   9.859   2.773  2.4504  0.9450 -1.1493
 1562WAT    EPW 8055  -0.352   9.773   2.785 -0.1081  1.2083  0.1615
 1563WAT      O 8056   0.004   7.996   7.333 -0.3050 -0.7451  0.5643
 1563WAT     H1 8057   0.083   8.040   7.301 -1.5265  0.3787 -1.0880
 1563WAT     H2 8058   0.007   8.007   7.428  1.2857 -0.3371  0.4872
 1563WAT    EPW 8059   0.015   8.003   7.342 -0.2563 -0.5431  0.3359
 1564WAT      O 8060  -1.513   6.786   8.619 -0.3403  0.3931  0.4348
 1564WAT     H1 8061  -1.532   6.879   8.632  1.8779  0.6133  3.1073
 1564WAT     H2 8062  -1.456   6.784   8.543 -1.7685  0.9654 -0.6980
 1564WAT    EPW 8063  -1.508   6.798   8.611 -0.2360  0.4978  0.6380
 1565WAT      O 8064  -0.344   1.522   0.963  0.1123  0.0016 -0.5792
 1565WAT     H1 8065  -0.391   1.601   0.991 -2.0282 -2.2114  2.8344
 1565WAT     H2 8066  -0.253   1.537   0.990 -0.3910  1.0457  0.6309
 1565WAT    EPW 8067  -0.338   1.535   0.970 -0.2364 -0.1526  0.0306
 1566WAT      O 8068  -5.554   8.162   6.675  0.3949 -0.6135 -0.6549
 1566WAT     H1 8069  -5.647   8.161   6.695  0.2896  1.4267 -0.8592
 1566WAT     H2 8070  -5.511   8.147   6.759 -0.0936 -1.4904 -0.5487
 1566WAT    EPW 8071  -5.561   8.160   6.689  0.3166 -0.4601 -0.6678
 1567WAT      O 8072   1.911   8.637   6.013  0.1247  0.4307 -0.2652
 1567WAT     H1 8073   1.823   8.672   6.025 -0.5321 -0.5041 -1.9940
 1567WAT     H2 8074   1.969   8.710   6.037 -1.0773  1.0124  1.0517
 1567WAT    EPW 8075   1.907   8.652   6.018 -0.1205  0.3843 -0.3192
 1568WAT      O 8076  -2.688   3.139   6.642 -0.4664  0.0449 -0.0414
 1568WAT     H1 8077  -2.611   3.087   6.664  0.7248  1.7635  0.0363
 1568WAT     H2 8078  -2.749   3.123   6.713  1.6148  2.1049  2.4264
 1568WAT    EPW 8079  -2.686   3.130   6.654 -0.0348  0.5431  0.2944
 1569WAT      O 8080   3.513   2.577   5.580 -0.6157  0.3353  0.0294
 1569WAT     H1 8081   3.603   2.565   5.551 -1.0932 -1.2642 -0.9029
 1569WAT     H2 8082   3.484   2.656   5.534 -0.2341 -0.1683 -1.1341
 1569WAT    EPW 8083   3.521   2.586   5.570 -0.6284  0.0579 -0.2468
 1570WAT      O 8084  -6.948  10.190   8.687 -0.0885 -0.1355 -0.0971
 1570WAT     H1 8085  -6.992  10.222   8.609  0.8281 -0.3242 -0.6999
 1570WAT     H2 8086  -6.858  10.220   8.679  0.4595 -1.6453  0.0090
 1570WAT    EPW 8087  -6.942  10.198   8.676  0.1047 -0.3595 -0.1626
 1571WAT      O 8088   2.289   0.708   3.187 -0.2903 -0.0161 -0.0775
 1571WAT     H1 8089   2.255   0.660   3.263 -0.7024 -2.0295 -1.4517
 1571WAT     H2 8090   2.212   0.721   3.131  0.3013 -0.0387 -0.9011
 1571WAT    EPW 8091   2.274   0.703   3.190 -0.2666 -0.2846 -0.3673
 1572WAT      O 8092   0.729   3.157   4.262 -0.6149 -0.1596 -0.1382
 1572WAT     H1 8093   0.722   3.241   4.308 -1.5441 -0.4845  0.3355
 1572WAT     H2 8094   0.769   3.180   4.178 -3.1872  1.2151 -1.1013
 1572WAT    EPW 8095   0.733   3.171   4.257 -1.0767 -0.0212 -0.2029
 1573WAT      O 8096  -1.039   6.750   0.694  0.7289  0.0575  0.2366
 1573WAT     H1 8097  -1.080   6.802   0.624  2.2817 -2.1804 -2.5332
 1573WAT     H2 8098  -1.047   6.805   0.771 -2.7838  1.9338 -1.2012
 1573WAT    EPW 8099  -1.046   6.764   0.695  0.4704  0.0100 -0.3184
 1574WAT      O 8100   5.230   0.328   4.346 -0.6788  0.4941  0.0752
 1574WAT     H1 8101   5.276   0.294   4.423 -0.6782  0.4440  0.0532
 1574WAT     H2 8102   5.288   0.308   4.273  0.0285  1.8942  0.2255
 1574WAT    EPW 8103   5.243   0.320   4.346 -0.5856  0.6722  0.0923
 1575WAT      O 8104  -2.566   7.902   2.193  0.4252 -0.5066  0.1450
 1575WAT     H1 8105  -2.495   7.841   2.214 -0.4924 -2.2973 -1.6297
 1575WAT     H2 8106  -2.527   7.963   2.130  0.2912 -1.8829 -1.3334
 1575WAT    EPW 8107  -2.551   7.902   2.188  0.2866 -0.9243 -0.2841
 1576WAT      O 8108   0.505   2.603   3.942  1.0159 -0.0385  0.0095
 1576WAT     H1 8109   0.513   2.532   4.006 -0.4947 -2.9226 -2.7534
 1576WAT     H2 8110   0.595   2.623   3.916  1.4906 -0.4534  1.2640
 1576WAT    EPW 8111   0.517   2.597   3.947  0.8793 -0.4736 -0.1894
 1577WAT      O 8112  -1.870   8.464   6.824  0.6526  0.0376  0.1578
 1577WAT     H1 8113  -1.820   8.478   6.905 -2.0171  1.9855  1.6448
 1577WAT     H2 8114  -1.909   8.377   6.835  1.6267 -0.4120  0.1574
 1577WAT    EPW 8115  -1.868   8.455   6.836  0.4290  0.2351  0.3538
 1578WAT      O 8116  -0.142   3.803   2.801  0.3652  0.0282  0.0160
 1578WAT     H1 8117  -0.117   3.724   2.850  3.0076  0.3766 -0.6266
 1578WAT     H2 8118  -0.106   3.790   2.714  1.0811  2.0409 -0.0355
 1578WAT    EPW 8119  -0.134   3.791   2.796  0.8082  0.3395 -0.0755
 1579WAT      O 8120   1.665   4.985   6.769  1.0788  0.2517  0.2532
 1579WAT     H1 8121   1.638   5.055   6.829  0.6592  0.4036 -0.1104
 1579WAT     H2 8122   1.590   4.926   6.764  0.9874  0.4124 -0.3764
 1579WAT    EPW 8123   1.652   4.986   6.776  1.0114  0.2928  0.1221
 1580WAT      O 8124   4.714   4.813   3.252  0.0201  0.6558 -0.3959
 1580WAT     H1 8125   4.711   4.783   3.161  1.5485  2.2474 -1.0396
 1580WAT     H2 8126   4.721   4.909   3.246 -0.6399  0.8637  1.4267
 1580WAT    EPW 8127   4.715   4.822   3.239  0.1347  0.8931 -0.2404
 1581WAT      O 8128   1.066   1.144   5.792  0.2830  0.3049 -0.1005
 1581WAT     H1 8129   1.069   1.150   5.888 -0.8054 -0.1915 -0.0193
 1581WAT     H2 8130   1.047   1.052   5.775 -1.4897  0.7529 -0.7237
 1581WAT    EPW 8131   1.064   1.133   5.803 -0.0944  0.2985 -0.1719
 1582WAT      O 8132   4.644   5.912   0.329 -0.3845  0.1220  0.1830
 1582WAT     H1 8133   4.561   5.914   0.376 -0.0028 -1.8528  1.0707
 1582WAT     H2 8134   4.703   5.864   0.388  1.3484  1.2867 -0.5026
 1582WAT    EPW 8135   4.641   5.906   0.343 -0.1056  0.0153  0.2097
 1583WAT      O 8136   5.027   1.186   1.760 -0.4463  0.1234 -0.3511
 1583WAT     H1 8137   4.960   1.249   1.733  0.1642  0.6289 -0.7400
 1583WAT     H2 8138   5.045   1.135   1.681 -0.4200 -0.0608 -0.2273
 1583WAT    EPW 8139   5.021   1.188   1.746 -0.3624  0.1658 -0.3861
 1584WAT      O 8140  -3.708   8.979   3.340 -0.0523 -0.0010 -0.1157
 1584WAT     H1 8141  -3.691   9.042   3.270 -0.6988  2.6126  1.8935
 1584WAT     H2 8142  -3.630   8.924   3.343  0.7084  0.9191 -1.7628
 1584WAT    EPW 8143  -3.696   8.980   3.331 -0.0372  0.4654 -0.0678
 1585WAT      O 8144  -0.106   7.706   3.772  0.2113  0.4422  1.2740
 1585WAT     H1 8145  -0.126   7.760   3.696  0.5710 -0.0327  0.8232
 1585WAT     H2 8146  -0.182   7.714   3.829 -1.5747 -1.6833 -0.5677
 1585WAT    EPW 8147  -0.118   7.714   3.769  0.0232  0.0992  0.9718
 1586WAT      O 8148   9.812   1.667   0.553 -0.0106 -0.5186  0.5161
 1586WAT     H1 8149   9.878   1.657   0.484 -0.2946  1.9015 -0.2002
 1586WAT     H2 8150   9.848   1.734   0.611 -1.1396 -0.2876  0.9709
 1586WAT    EPW 8151   9.826   1.675   0.551 -0.1974 -0.1689  0.4816
 1587WAT      O 8152   3.755   7.799   0.948  0.6482  0.4622  0.6200
 1587WAT     H1 8153   3.826   7.787   0.885 -1.3647  1.6868 -2.0856
 1587WAT     H2 8154   3.708   7.716   0.947  0.8364  0.3531  0.8033
 1587WAT    EPW 8155   3.758   7.786   0.940  0.4075  0.6092  0.2874
 1588WAT      O 8156   1.833   2.800   7.392  0.1234 -0.6146 -0.5318
 1588WAT     H1 8157   1.810   2.891   7.371 -0.8608 -0.9501 -0.9683
 1588WAT     H2 8158   1.784   2.782   7.473  2.8441  0.2434  1.4534
 1588WAT    EPW 8159   1.823   2.810   7.400  0.3524 -0.5457 -0.3276
 1589WAT      O 8160  -0.432   8.591   6.075 -0.7286  0.9026  0.7172
 1589WAT     H1 8161  -0.484   8.598   5.995 -3.6984 -3.1919  1.9542
 1589WAT     H2 8162  -0.371   8.519   6.058  0.4481  1.7243  1.3253
 1589WAT    EPW 8163  -0.431   8.583   6.062 -0.9651  0.4711  0.9606
 1590WAT      O 8164  -1.033   1.007   2.743  0.0908 -0.1407 -0.3408
 1590WAT     H1 8165  -1.099   0.938   2.748  0.6656 -0.6086  2.6843
 1590WAT     H2 8166  -1.039   1.052   2.827 -0.2803  3.6203 -2.1506
 1590WAT    EPW 8167  -1.043   1.004   2.755  0.1176  0.2936 -0.1806
 1591WAT      O 8168  -1.062   9.030   5.237  0.1656  0.8185  0.3109
 1591WAT     H1 8169  -1.128   9.064   5.176 -0.5919 -2.0855 -0.7008
 1591WAT     H2 8170  -1.070   8.935   5.229  1.1633  0.3088  3.8436
 1591WAT    EPW 8171  -1.072   9.022   5.228  0.1972  0.3681  0.6433
 1592WAT      O 8172   5.860   2.658   6.141  0.4234 -0.5116  0.1985
 1592WAT     H1 8173   5.872   2.625   6.230  0.6945  0.7164  0.6283
 1592WAT     H2 8174   5.937   2.711   6.124  0.3928 -0.7650 -0.7941
 1592WAT    EPW 8175   5.872   2.661   6.151  0.4551 -0.3830  0.1245
 1593WAT      O 8176   4.547   4.466   6.121 -0.4909  0.2142  0.1367
 1593WAT     H1 8177   4.571   4.530   6.188  2.7360  1.3136 -1.7997
 1593WAT     H2 8178   4.460   4.494   6.091 -0.1782  2.2810  0.9846
 1593WAT    EPW 8179   4.539   4.478   6.126 -0.0241  0.6316 -0.0069
 1594WAT      O 8180  -3.455   5.423   7.089 -0.4979 -0.2602 -0.0363
 1594WAT     H1 8181  -3.498   5.340   7.073 -4.7392  1.4303  1.3216
 1594WAT     H2 8182  -3.438   5.424   7.183 -1.5795  0.8112  0.1720
 1594WAT    EPW 8183  -3.458   5.412   7.100 -1.2000  0.1042  0.1702
 1595WAT      O 8184   0.001   6.483   4.914 -0.2797 -0.1349  0.1839
 1595WAT     H1 8185  -0.085   6.456   4.882 -0.6701  0.0901  1.0024
 1595WAT     H2 8186   0.053   6.403   4.914 -0.9154 -0.5624  0.9933
 1595WAT    EPW 8187  -0.003   6.469   4.910 -0.4150 -0.1616  0.3986
 1596WAT      O 8188   2.379   5.381   4.254  0.0240 -0.1425  0.4221
 1596WAT     H1 8189   2.417   5.460   4.215  0.1878 -0.0470  0.7703
 1596WAT     H2 8190   2.382   5.316   4.184 -0.2636  0.2050  0.0802
 1596WAT    EPW 8191   2.385   5.383   4.239  0.0077 -0.0842  0.4230
 1597WAT      O 8192   4.716   9.925   3.089  0.3727 -0.1599  0.2733
 1597WAT     H1 8193   4.695   9.971   3.008 -0.2853 -0.0341  0.5073
 1597WAT     H2 8194   4.750   9.840   3.061 -1.2700 -0.7245 -0.1353
 1597WAT    EPW 8195   4.718   9.920   3.074  0.0691 -0.2179  0.2503
 1598WAT      O 8196  -1.700   3.108   3.342 -0.9048  0.4898 -0.3777
 1598WAT     H1 8197  -1.651   3.079   3.265  2.4617 -0.2052  1.7843
 1598WAT     H2 8198  -1.638   3.163   3.390 -2.2064 -0.4843  2.6505
 1598WAT    EPW 8199  -1.685   3.111   3.338 -0.6325  0.2697  0.3070
 1599WAT      O 8200   3.781   5.340   4.579  0.4000 -0.7988 -0.8320
 1599WAT     H1 8201   3.736   5.258   4.601 -2.1988  0.5764 -0.5857
 1599WAT     H2 8202   3.712   5.407   4.586  2.0393  1.1974 -2.6065
 1599WAT    EPW 8203   3.766   5.338   4.583  0.2735 -0.3543 -1.0333
 1600WAT      O 8204   6.229   4.213   0.056  0.2482 -0.5989  0.5306
 1600WAT     H1 8205   6.184   4.295   0.035 -2.5430 -1.5444  2.2688
 1600WAT     H2 8206   6.322   4.236   0.054 -0.2784  1.9198 -1.5676
 1600WAT    EPW 8207   6.235   4.227   0.053 -0.1893 -0.3915  0.4831
 1601WAT      O 8208   7.421   3.912   2.073  0.8185 -0.2665 -0.0699
 1601WAT     H1 8209   7.387   3.964   1.999  0.4707  2.5864  1.9167
 1601WAT     H2 8210   7.360   3.839   2.081 -1.4643  1.4988 -0.2686
 1601WAT    EPW 8211   7.409   3.910   2.064  0.4716  0.3426  0.1659
 1602WAT      O 8212   7.007   3.141   1.205  0.7602 -0.0396  0.3577
 1602WAT     H1 8213   7.025   3.222   1.253 -1.5299  1.0059 -0.3408
 1602WAT     H2 8214   6.912   3.130   1.214  1.0461 -2.8708  0.6788
 1602WAT    EPW 8215   6.997   3.150   1.212  0.4959 -0.2751  0.3079
 1603WAT      O 8216   1.443   0.995   0.792 -0.0760  0.3174 -0.1287
 1603WAT     H1 8217   1.377   0.992   0.862  0.0421 -0.4061 -0.0335
 1603WAT     H2 8218   1.526   0.978   0.836 -0.0085 -0.2234 -0.4447
 1603WAT    EPW 8219   1.445   0.992   0.807 -0.0516  0.1507 -0.1578
 1604WAT      O 8220   2.958   6.610   8.169 -0.1894 -0.0960  0.4031
 1604WAT     H1 8221   2.946   6.613   8.074 -0.3841 -1.8025  0.3317
 1604WAT     H2 8222   2.946   6.700   8.199 -0.9724  0.3147 -1.0912
 1604WAT    EPW 8223   2.955   6.622   8.161 -0.3183 -0.2668  0.1965
 1605WAT      O 8224   8.460   4.563   1.105  0.4271  0.0000 -0.8152
 1605WAT     H1 8225   8.540   4.613   1.089  0.2634  0.6598  0.3168
 1605WAT     H2 8226   8.391   4.617   1.066  0.4769 -0.4028 -1.4853
 1605WAT    EPW 8227   8.461   4.577   1.098  0.4125  0.0339 -0.7542
 1606WAT      O 8228   2.081   9.056   3.176 -0.1787  0.2942 -0.2902
 1606WAT     H1 8229   2.063   9.145   3.206  0.6208 -0.3438  2.3561
 1606WAT     H2 8230   2.098   9.065   3.083  0.8766  3.0651  0.0918
 1606WAT    EPW 8231   2.081   9.069   3.168  0.0659  0.5755  0.1092
 1607WAT      O 8232  -2.830   3.938   7.251  0.0755 -0.6170  0.3057
 1607WAT     H1 8233  -2.773   4.006   7.286 -0.0726 -0.6831  0.6869
 1607WAT     H2 8234  -2.893   3.984   7.196  0.9526 -0.6279 -0.7248
 1607WAT    EPW 8235  -2.831   3.953   7.249  0.1715 -0.6272  0.2201
 1608WAT      O 8236   0.115   6.549   2.787  0.2864 -0.0670 -0.0168
 1608WAT     H1 8237   0.027   6.557   2.750 -0.3131 -1.3533  1.0423
 1608WAT     H2 8238   0.121   6.621   2.850 -1.3533 -1.8059  2.3451
 1608WAT    EPW 8239   0.104   6.560   2.791 -0.0089 -0.4661  0.4344
 1609WAT      O 8240   1.826   8.078   8.457 -0.6615 -0.0212  0.1027
 1609WAT     H1 8241   1.788   8.166   8.453  1.7229  1.0786 -0.2282
 1609WAT     H2 8242   1.892   8.077   8.388  2.8724 -0.2094  3.1334
 1609WAT    EPW 8243   1.830   8.090   8.448  0.1191  0.0987  0.4587
 1610WAT      O 8244   5.975   3.860   5.757  0.0428 -0.7640  0.2803
 1610WAT     H1 8245   6.040   3.892   5.695  1.5162 -3.3503  0.3713
 1610WAT     H2 8246   6.019   3.862   5.842 -0.9771  0.0012  0.8234
 1610WAT    EPW 8247   5.989   3.865   5.760  0.1025 -1.0042  0.3638
 1611WAT      O 8248   1.581   6.017   8.081 -0.6781  0.4048 -0.0909
 1611WAT     H1 8249   1.600   5.964   8.004 -0.7387 -0.5322  0.5238
 1611WAT     H2 8250   1.653   6.080   8.085 -0.0576 -0.2849 -0.2682
 1611WAT    EPW 8251   1.593   6.019   8.072 -0.6043  0.1903 -0.0334
 1612WAT      O 8252   1.904   9.502   0.463 -0.5156 -0.7554 -0.1828
 1612WAT     H1 8253   1.918   9.408   0.454 -3.2062 -1.1990 -0.7307
 1612WAT     H2 8254   1.932   9.539   0.379 -0.6789 -1.2520 -0.4597
 1612WAT    EPW 8255   1.909   9.494   0.451 -0.8920 -0.8793 -0.2916
 1613WAT      O 8256  -1.002   7.944   8.649 -0.1890  0.4512 -0.2909
 1613WAT     H1 8257  -1.001   7.911   8.559 -0.0930 -0.4252  0.0303
 1613WAT     H2 8258  -1.076   7.900   8.690  0.3319  0.1425  0.3274
 1613WAT    EPW 8259  -1.012   7.934   8.642 -0.1077  0.2947 -0.1674
 1614WAT      O 8260   1.265   7.429   7.781  0.3723 -0.8657 -0.5973
 1614WAT     H1 8261   1.355   7.458   7.798 -0.5465  1.6613  0.6190
 1614WAT     H2 8262   1.230   7.493   7.719  0.0901 -3.2890 -3.1211
 1614WAT    EPW 8263   1.272   7.442   7.775  0.2139 -0.8521 -0.7699
 1615WAT      O 8264  -1.608   7.122   1.235  0.0672  0.3173  0.2051
 1615WAT     H1 8265  -1.620   7.217   1.228  1.7732  0.8890  3.2837
 1615WAT     H2 8266  -1.519   7.112   1.268  0.3346 -2.4674 -1.1253
 1615WAT    EPW 8267  -1.598   7.134   1.238  0.3275  0.0255  0.4356
 1616WAT      O 8268   1.602  10.194   8.105 -0.3855 -0.3022  0.0246
 1616WAT     H1 8269   1.548  10.164   8.178 -0.8219  2.3121  0.8535
 1616WAT     H2 8270   1.662  10.258   8.144  0.6006 -0.1602 -1.6079
 1616WAT    EPW 8271   1.603  10.198   8.120 -0.3130  0.0615 -0.0815
 1617WAT      O 8272  -2.641   8.177   5.983  0.2500 -1.0486  0.2241
 1617WAT     H1 8273  -2.721   8.137   6.018  0.4001 -1.0528  0.5592
 1617WAT     H2 8274  -2.656   8.271   5.991 -0.1137 -1.0284 -0.5877
 1617WAT    EPW 8275  -2.654   8.184   5.988  0.2217 -1.0462  0.1612
 1618WAT      O 8276  -0.674   6.471   1.480  0.4694 -1.0953  0.7026
 1618WAT     H1 8277  -0.613   6.424   1.423 -0.9573 -0.4781 -1.4166
 1618WAT     H2 8278  -0.619   6.534   1.527  1.5241 -0.7927 -0.8699
 1618WAT    EPW 8279  -0.659   6.473   1.479  0.4203 -0.9739  0.2157
 1619WAT      O 8280  -2.122   8.512   4.624 -0.1933 -0.1016 -0.4245
 1619WAT     H1 8281  -2.194   8.467   4.670 -2.6462  2.1471 -1.7952
 1619WAT     H2 8282  -2.152   8.603   4.616  2.5213  0.7823 -1.7551
 1619WAT    EPW 8283  -2.136   8.518   4.629 -0.1588  0.3114 -0.7806
 1620WAT      O 8284  -0.067   9.648   7.838  0.4388  0.4388 -0.1101
 1620WAT     H1 8285  -0.019   9.637   7.756  1.1557 -1.7309  0.5264
 1620WAT     H2 8286  -0.018   9.715   7.886  2.4509 -1.1629  0.1868
 1620WAT    EPW 8287  -0.054   9.656   7.834  0.7987 -0.0587  0.0131
 1621WAT      O 8288  -1.351   5.268   2.454 -0.2004 -0.2951  0.4989
 1621WAT     H1 8289  -1.390   5.247   2.369 -0.2610  0.3535  0.3628
 1621WAT     H2 8290  -1.406   5.221   2.517 -0.5549 -0.2471  0.2298
 1621WAT    EPW 8291  -1.363   5.259   2.451 -0.2551 -0.2031  0.4455
 1622WAT      O 8292   1.977   5.431   6.562 -0.2076 -0.8509  0.3110
 1622WAT     H1 8293   1.998   5.356   6.507  1.0637 -1.1976  1.2303
 1622WAT     H2 8294   2.050   5.492   6.548 -0.7648 -0.1818  0.2776
 1622WAT    EPW 8295   1.990   5.430   6.553 -0.1135 -0.8085  0.4280
 1623WAT      O 8296  -0.409   0.854   2.164  0.3585  0.2891 -0.3087
 1623WAT     H1 8297  -0.441   0.939   2.133  1.1250  0.0631 -1.8256
 1623WAT     H2 8298  -0.471   0.791   2.127  1.7931 -0.0604 -2.3020
 1623WAT    EPW 8299  -0.422   0.857   2.155  0.6488  0.2132 -0.7716
 1624WAT      O 8300   1.780   4.203   8.456  0.3202  0.9678  0.3885
 1624WAT     H1 8301   1.821   4.214   8.541  2.0856  0.6304 -0.3912
 1624WAT     H2 8302   1.703   4.148   8.474  1.6954 -0.7005  1.5020
 1624WAT    EPW 8303   1.775   4.197   8.470  0.7344  0.7033  0.4325
 1625WAT      O 8304   0.608   8.681   1.824  0.3450 -0.3730  0.2236
 1625WAT     H1 8305   0.584   8.718   1.739 -1.4505  1.5191  1.4715
 1625WAT     H2 8306   0.700   8.705   1.836  0.2656  0.4127 -0.6447
 1625WAT    EPW 8307   0.617   8.689   1.814  0.0977 -0.0200  0.2736
 1626WAT      O 8308   3.813   4.623   0.422  0.8397 -0.3254  0.1868
 1626WAT     H1 8309   3.800   4.703   0.372  0.4917 -0.7200 -0.3678
 1626WAT     H2 8310   3.901   4.633   0.460  0.6289  0.4941  0.4769
 1626WAT    EPW 8311   3.823   4.635   0.420  0.7659 -0.2694  0.1519
 1627WAT      O 8312   6.542   4.565   0.413 -0.1178 -0.6418 -0.3594
 1627WAT     H1 8313   6.596   4.627   0.363  2.2892 -3.6371 -1.8399
 1627WAT     H2 8314   6.455   4.571   0.372 -0.6629  3.0684  0.9395
 1627WAT    EPW 8315   6.537   4.574   0.401  0.1278 -0.5476 -0.3834
 1628WAT      O 8316  -1.550   3.338   2.238  0.3244  0.0966  0.5095
 1628WAT     H1 8317  -1.503   3.335   2.321 -2.1951  1.1249  2.1042
 1628WAT     H2 8318  -1.618   3.404   2.252 -1.0194 -0.6488 -1.9290
 1628WAT    EPW 8319  -1.553   3.346   2.251 -0.1851  0.1339  0.3983
 1629WAT      O 8320   0.904   3.902   7.204  0.2826 -0.0529  0.5248
 1629WAT     H1 8321   0.851   3.885   7.282  0.4981  0.4245  0.7836
 1629WAT     H2 8322   0.991   3.923   7.239  0.1447  1.1086  0.2070
 1629WAT    EPW 8323   0.909   3.902   7.219  0.2928  0.1633  0.5171
 1630WAT      O 8324   4.850  10.356   1.132 -0.2222 -0.2415  0.4669
 1630WAT     H1 8325   4.899  10.396   1.060 -1.7171  0.2213 -0.3318
 1630WAT     H2 8326   4.838  10.265   1.105 -0.4561 -0.1625  0.3006
 1630WAT    EPW 8327   4.855  10.349   1.119 -0.4501 -0.1698  0.3396
 1631WAT      O 8328   1.411   4.862   6.854  0.2584  0.0367  0.0887
 1631WAT     H1 8329   1.442   4.900   6.936 -1.6602  0.0817  0.8295
 1631WAT     H2 8330   1.344   4.799   6.881 -0.2406 -0.1188 -1.4383
 1631WAT    EPW 8331   1.406   4.858   6.868 -0.0605  0.0222 -0.0153
 1632WAT      O 8332  -1.214   5.459   5.495  0.0202 -0.0611  0.5459
 1632WAT     H1 8333  -1.126   5.431   5.469 -0.2135  0.6057 -1.0628
 1632WAT     H2 8334  -1.273   5.394   5.456 -0.4310  1.7486 -2.0275
 1632WAT    EPW 8335  -1.210   5.447   5.487 -0.0702  0.2656 -0.0057
 1633WAT      O 8336   1.505   0.468   0.399  0.2509  0.2373  0.5281
 1633WAT     H1 8337   1.470   0.553   0.370 -0.3715  0.3270  1.5140
 1633WAT     H2 8338   1.431   0.409   0.396  1.0045 -0.7160 -1.6665
 1633WAT    EPW 8339   1.491   0.472   0.395  0.2682  0.1234  0.3687
 1634WAT      O 8340  -1.274   1.442   6.793 -0.5509  0.5145  0.4177
 1634WAT     H1 8341  -1.199   1.448   6.733 -0.5628 -0.3311  0.3151
 1634WAT     H2 8342  -1.299   1.350   6.791 -1.9555  0.8840  0.0189
 1634WAT    EPW 8343  -1.267   1.431   6.785 -0.7377  0.4517  0.3514
 1635WAT      O 8344   1.081   5.569   1.084  0.2665  0.3632 -0.5207
 1635WAT     H1 8345   1.065   5.597   1.174  0.1931 -1.2542 -0.0042
 1635WAT     H2 8346   1.038   5.484   1.077  0.0119  0.5954 -2.1899
 1635WAT    EPW 8347   1.074   5.561   1.095  0.2233  0.1802 -0.6728
 1636WAT      O 8348   2.202   1.727   7.221  0.1941 -0.3812  0.2822
 1636WAT     H1 8349   2.124   1.672   7.231  1.6882 -3.4008 -2.4859
 1636WAT     H2 8350   2.219   1.727   7.127  2.6114  1.5540  0.6176
 1636WAT    EPW 8351   2.194   1.719   7.210  0.7100 -0.5242 -0.0384
 1637WAT      O 8352   7.132   2.966   1.957  0.0509 -0.0996  0.1419
 1637WAT     H1 8353   7.193   3.038   1.973  2.4892 -1.7756 -0.9058
 1637WAT     H2 8354   7.161   2.896   2.016  1.2406 -1.9770 -2.4220
 1637WAT    EPW 8355   7.144   2.966   1.967  0.5295 -0.5682 -0.3344
 1638WAT      O 8356  -0.120   8.591   5.823  0.0632  0.4308 -0.4808
 1638WAT     H1 8357  -0.109   8.542   5.904 -2.1670  1.9366  0.8380
 1638WAT     H2 8358  -0.038   8.639   5.812  1.5411 -1.9915 -0.7987
 1638WAT    EPW 8359  -0.108   8.591   5.832 -0.0360  0.3095 -0.3488
 1639WAT      O 8360  -0.102   9.136   4.090  0.0768  0.4095 -0.4271
 1639WAT     H1 8361  -0.147   9.220   4.095 -1.2727 -0.2464 -1.0994
 1639WAT     H2 8362  -0.073   9.119   4.180  3.6821  3.2641 -0.7960
 1639WAT    EPW 8363  -0.104   9.145   4.102  0.3743  0.6995 -0.5643
 1640WAT      O 8364   3.998   0.309   2.926  0.1644 -0.0270 -0.6654
 1640WAT     H1 8365   3.970   0.257   3.001  1.6209 -0.3551 -0.3068
 1640WAT     H2 8366   3.925   0.369   2.909  0.0699  0.5493  1.4700
 1640WAT    EPW 8367   3.985   0.310   2.934  0.3439  0.0057 -0.3365
 1641WAT      O 8368  -0.544   9.188   3.859  0.0592  0.2105  0.4603
 1641WAT     H1 8369  -0.598   9.127   3.808 -0.4473  1.1395 -0.1303
 1641WAT     H2 8370  -0.455   9.153   3.850 -0.0989  0.0495 -0.6139
 1641WAT    EPW 8371  -0.539   9.175   3.851 -0.0285  0.3119  0.2408
 1642WAT      O 8372  -1.220   5.327   6.423 -0.0957  0.2742 -0.1364
 1642WAT     H1 8373  -1.285   5.397   6.414  2.3582  2.4819 -2.0610
 1642WAT     H2 8374  -1.247   5.261   6.359  0.5006  2.0280 -2.2910
 1642WAT    EPW 8375  -1.232   5.327   6.413  0.3066  0.7966 -0.6745
 1643WAT      O 8376   5.952   1.419   0.959 -0.3062  0.0340 -0.1916
 1643WAT     H1 8377   5.957   1.333   1.001  0.0989  0.1303 -0.0441
 1643WAT     H2 8378   5.907   1.402   0.876 -0.8791 -0.1969  0.1601
 1643WAT    EPW 8379   5.947   1.405   0.953 -0.3281  0.0163 -0.1258
 1644WAT      O 8380  -3.663   7.806   1.789  0.0546  0.1777  0.1718
 1644WAT     H1 8381  -3.713   7.767   1.716  1.2238 -1.1684  0.0462
 1644WAT     H2 8382  -3.698   7.763   1.867 -2.2609  2.7000  0.6801
 1644WAT    EPW 8383  -3.675   7.795   1.789 -0.0966  0.3328  0.2223
 1645WAT      O 8384  -2.504   1.681   4.726 -1.0240 -0.1831 -0.4636
 1645WAT     H1 8385  -2.522   1.599   4.680  0.0315 -2.0214  2.1469
 1645WAT     H2 8386  -2.412   1.676   4.750 -1.7925 -0.2012  3.1286
 1645WAT    EPW 8387  -2.494   1.669   4.723 -0.9861 -0.4280  0.3545
 1646WAT      O 8388  -1.731   9.094   1.192 -0.6301  0.4197  0.4400
 1646WAT     H1 8389  -1.798   9.055   1.135 -0.4338  0.0509  0.4608
 1646WAT     H2 8390  -1.781   9.145   1.257 -0.8498  0.9371 -0.1259
 1646WAT    EPW 8391  -1.747   9.096   1.193 -0.6332  0.4392  0.3681
 1647WAT      O 8392   8.237   4.485   1.654  0.3146 -0.5251 -0.1648
 1647WAT     H1 8393   8.211   4.434   1.577  0.9255  0.2301 -0.8920
 1647WAT     H2 8394   8.303   4.546   1.621  1.1259 -0.6779  1.1095
 1647WAT    EPW 8395   8.242   4.486   1.639  0.5021 -0.4458 -0.0927
 1648WAT      O 8396   2.109   0.798   1.483 -0.2709 -0.6019  0.3199
 1648WAT     H1 8397   2.091   0.869   1.545 -1.7846  0.4834 -1.2578
 1648WAT     H2 8398   2.035   0.737   1.495 -1.1527  0.1391 -1.0655
 1648WAT    EPW 8399   2.097   0.799   1.493 -0.5869 -0.3610 -0.0709
 1649WAT      O 8400   2.137   5.043   7.959  0.5498 -0.1837  0.5248
 1649WAT     H1 8401   2.221   5.056   8.002  1.3583 -0.4914 -0.8915
 1649WAT     H2 8402   2.153   4.972   7.897 -0.6410  0.0402 -0.0700
 1649WAT    EPW 8403   2.150   5.035   7.956  0.4994 -0.1945  0.2599
 1650WAT      O 8404  -0.387   1.899   5.252 -0.0934 -0.4775 -0.8193
 1650WAT     H1 8405  -0.388   1.962   5.324  0.5068  1.4971 -2.4437
 1650WAT     H2 8406  -0.372   1.815   5.294 -1.0407  0.4258  1.4606
 1650WAT    EPW 8407  -0.385   1.896   5.267 -0.1392 -0.0979 -0.7329
 1651WAT      O 8408   8.074   3.131   1.944 -1.1958  0.2240  0.4054
 1651WAT     H1 8409   8.037   3.056   1.898  0.5174 -0.1541 -0.4258
 1651WAT     H2 8410   8.088   3.099   2.033  0.1072 -0.6924 -0.0981
 1651WAT    EPW 8411   8.071   3.117   1.950 -0.7982  0.0534  0.2293
 1652WAT      O 8412   6.254   6.925   2.561  0.4055 -0.2406 -0.3921
 1652WAT     H1 8413   6.159   6.927   2.551  0.1374  2.2756  1.5640
 1652WAT     H2 8414   6.287   6.984   2.492  0.1653  1.7241  1.0806
 1652WAT    EPW 8415   6.246   6.933   2.550  0.3383  0.3502  0.0601
 1653WAT      O 8416  -1.494   2.436   3.537  0.4398 -0.1076  0.1340
 1653WAT     H1 8417  -1.436   2.362   3.558  0.7643  0.1362  0.1053
 1653WAT     H2 8418  -1.435   2.505   3.508 -0.0633 -1.1008 -3.7889
 1653WAT    EPW 8419  -1.478   2.435   3.536  0.4163 -0.2065 -0.3871
 1654WAT      O 8420   1.918   0.697   1.698 -0.6031 -0.5664  0.2514
 1654WAT     H1 8421   1.871   0.635   1.755 -0.7047 -1.2572 -0.5576
 1654WAT     H2 8422   1.876   0.687   1.612 -1.4853  1.5734  0.3780
 1654WAT    EPW 8423   1.906   0.687   1.694 -0.7328 -0.3753  0.1614
 1655WAT      O 8424   1.775   8.482   4.391  0.0473  0.0867 -0.2292
 1655WAT     H1 8425   1.679   8.472   4.386  0.0536  0.2084 -0.6547
 1655WAT     H2 8426   1.805   8.401   4.431 -0.4105  0.9005  1.9042
 1655WAT    EPW 8427   1.766   8.470   4.395 -0.0123  0.2103 -0.0041
 1656WAT      O 8428  -3.762   3.868   8.892  0.2141  0.0245 -0.6459
 1656WAT     H1 8429  -3.780   3.847   8.800 -0.9686  0.1555 -0.4581
 1656WAT     H2 8430  -3.741   3.783   8.932  1.7205  0.0980 -1.2321
 1656WAT    EPW 8431  -3.762   3.854   8.885  0.2569  0.0515 -0.6986
 1657WAT      O 8432  -0.540   8.163   0.347  0.3461  0.5143 -0.7104
 1657WAT     H1 8433  -0.511   8.180   0.436  1.5577  1.3375 -1.2309
 1657WAT     H2 8434  -0.635   8.157   0.353  0.4161  0.5306  0.6355
 1657WAT    EPW 8435  -0.548   8.165   0.359  0.5151  0.6251 -0.6015
 1658WAT      O 8436   0.316   9.434   6.777  0.0172 -0.4074  0.1958
 1658WAT     H1 8437   0.384   9.500   6.791  0.7548 -1.5705  2.7228
 1658WAT     H2 8438   0.334   9.398   6.690  2.2487 -0.2046  0.5186
 1658WAT    EPW 8439   0.328   9.438   6.767  0.4088 -0.5341  0.5720
 1659WAT      O 8440  -2.946   9.543   3.797  0.5118 -0.8384  0.1950
 1659WAT     H1 8441  -3.013   9.582   3.853  3.1911  0.9476  2.4313
 1659WAT     H2 8442  -2.907   9.617   3.751  0.6726 -1.8893 -1.4273
 1659WAT    EPW 8443  -2.950   9.558   3.798  0.8864 -0.7415  0.2761
 1660WAT      O 8444  -0.222   6.131   7.043 -0.2158 -0.3428  0.4124
 1660WAT     H1 8445  -0.286   6.138   6.973  0.4008 -1.3076 -0.2634
 1660WAT     H2 8446  -0.270   6.090   7.115 -0.6806  0.0874  0.3558
 1660WAT    EPW 8447  -0.237   6.127   7.044 -0.1958 -0.4134  0.3159
 1661WAT      O 8448  -2.360   9.824   5.157  0.5708 -0.1908 -0.3913
 1661WAT     H1 8449  -2.343   9.893   5.093  0.6729  0.8775  0.7536
 1661WAT     H2 8450  -2.308   9.848   5.234 -1.1871 -0.2584  0.8980
 1661WAT    EPW 8451  -2.351   9.836   5.159  0.3524 -0.0587 -0.0701
 1662WAT      O 8452   4.496   6.912   2.107  0.3265  0.1138 -0.7535
 1662WAT     H1 8453   4.529   6.822   2.099  3.1912  0.4777  3.3527
 1662WAT     H2 8454   4.469   6.936   2.019  2.2211 -3.7560 -2.6518
 1662WAT    EPW 8455   4.497   6.903   2.095  0.9542 -0.3488 -0.4623
 1663WAT      O 8456   5.606   3.859   6.482  0.3616  0.1897 -0.0246
 1663WAT     H1 8457   5.612   3.900   6.569  1.6991  2.1791 -0.9900
 1663WAT     H2 8458   5.513   3.857   6.463  0.1522  1.1337  0.8147
 1663WAT    EPW 8459   5.595   3.864   6.491  0.5102  0.5765 -0.0410
 1664WAT      O 8460   8.584   4.021   0.699 -0.7554 -0.1752 -0.0191
 1664WAT     H1 8461   8.622   4.064   0.776 -1.9226 -1.3699  1.2781
 1664WAT     H2 8462   8.660   3.986   0.652 -0.0468 -0.0430  0.9805
 1664WAT    EPW 8463   8.599   4.022   0.703 -0.8163 -0.3152  0.2838
 1665WAT      O 8464   5.814   7.107   3.594 -0.3962  1.0782  0.8661
 1665WAT     H1 8465   5.865   7.167   3.540 -0.4052  1.0790  0.8586
 1665WAT     H2 8466   5.867   7.028   3.599  0.0168  1.3987  1.6009
 1665WAT    EPW 8467   5.827   7.104   3.587 -0.3431  1.1206  0.9621
 1666WAT      O 8468   3.986   7.722  -0.028 -0.7553 -0.1358 -0.2234
 1666WAT     H1 8469   4.021   7.671   0.045  1.4598  1.0264 -0.3819
 1666WAT     H2 8470   3.986   7.813   0.004  1.7982  0.6440 -2.0664
 1666WAT    EPW 8471   3.991   7.728  -0.014 -0.1263  0.1203 -0.4873
 1667WAT      O 8472   2.695   7.795   5.355  0.0664 -0.1297 -0.0577
 1667WAT     H1 8473   2.713   7.708   5.390  0.9202 -0.9401 -2.3793
 1667WAT     H2 8474   2.771   7.847   5.379 -1.5127  0.8597  3.6028
 1667WAT    EPW 8475   2.707   7.790   5.363 -0.0293 -0.1059  0.1190
 1668WAT      O 8476  -5.212   0.802   8.769 -0.2802 -0.0559 -0.0429
 1668WAT     H1 8477  -5.155   0.853   8.827  0.0334 -1.5811  1.0644
 1668WAT     H2 8478  -5.299   0.839   8.782  0.1347  1.0302 -0.2623
 1668WAT    EPW 8479  -5.216   0.814   8.778 -0.1841 -0.1138  0.0739
 1669WAT      O 8480  -5.290   7.549   5.177 -0.2297  0.1034 -0.1781
 1669WAT     H1 8481  -5.312   7.524   5.266 -0.4119  1.0548  0.0531
 1669WAT     H2 8482  -5.201   7.516   5.163  0.3147  1.1108  0.8150
 1669WAT    EPW 8483  -5.281   7.542   5.187 -0.1819  0.3617 -0.0167
 1670WAT      O 8484  -0.650   6.920   3.621 -0.2807 -0.7838  0.2323
 1670WAT     H1 8485  -0.729   6.908   3.568 -0.3262  1.1592 -0.2049
 1670WAT     H2 8486  -0.588   6.962   3.561  0.4692 -0.6508  1.0846
 1670WAT    EPW 8487  -0.652   6.924   3.606 -0.1878 -0.5100  0.2871
 1671WAT      O 8488  -2.797   7.990   3.732  0.0419 -0.5429 -0.3062
 1671WAT     H1 8489  -2.873   7.993   3.791 -2.0253  1.3439 -2.8780
 1671WAT     H2 8490  -2.829   7.944   3.654  0.9847  1.6892 -2.0955
 1671WAT    EPW 8491  -2.811   7.984   3.730 -0.1065  0.0002 -0.8814
 1672WAT      O 8492   5.059   1.320   3.552 -0.4792 -0.1637 -0.4414
 1672WAT     H1 8493   5.107   1.393   3.590 -1.1610  0.6258 -1.0662
 1672WAT     H2 8494   5.019   1.277   3.628  0.6282 -0.4296  0.0161
 1672WAT    EPW 8495   5.060   1.324   3.567 -0.4232 -0.0947 -0.4636
 1673WAT      O 8496   5.241   2.678   2.638 -0.3048 -0.3794  0.2452
 1673WAT     H1 8497   5.178   2.625   2.590  0.7126  0.2265 -1.9011
 1673WAT     H2 8498   5.267   2.624   2.712 -2.9622 -0.8140  0.9862
 1673WAT    EPW 8499   5.236   2.664   2.642 -0.5209 -0.3568  0.0598
 1674WAT      O 8500  -0.512   8.346   6.918  0.4153 -0.0271 -0.2370
 1674WAT     H1 8501  -0.561   8.421   6.884 -0.1430 -0.5123 -0.5442
 1674WAT     H2 8502  -0.456   8.319   6.845 -0.6182 -0.9303 -0.7355
 1674WAT    EPW 8503  -0.511   8.352   6.904  0.2054 -0.2103 -0.3433
 1675WAT      O 8504   2.158   5.635   7.067  0.0549 -0.4333 -0.3720
 1675WAT     H1 8505   2.138   5.671   7.153  2.8079 -1.4568  0.8236
 1675WAT     H2 8506   2.074   5.605   7.033 -1.1974  0.5472  1.6848
 1675WAT    EPW 8507   2.145   5.636   7.074  0.2528 -0.4389  0.0572
 1676WAT      O 8508  -0.604   6.372   3.554  0.2950 -0.1045  0.3490
 1676WAT     H1 8509  -0.632   6.442   3.614 -1.7270 -0.9777  0.5321
 1676WAT     H2 8510  -0.571   6.303   3.612  0.8172  0.0912  0.2813
 1676WAT    EPW 8511  -0.603   6.372   3.570  0.0972 -0.1938  0.3643
 1677WAT      O 8512   1.328   6.449   6.676 -0.0976  0.1183 -0.3284
 1677WAT     H1 8513   1.358   6.421   6.590 -1.8144  0.7162 -1.1708
 1677WAT     H2 8514   1.322   6.369   6.727 -1.1938 -0.5606 -1.4738
 1677WAT    EPW 8515   1.331   6.435   6.671 -0.4686  0.1078 -0.5906
 1678WAT      O 8516  -1.558   6.371   7.402  0.1486  0.1292 -0.2355
 1678WAT     H1 8517  -1.623   6.355   7.333 -0.9956  0.2882  0.7822
 1678WAT     H2 8518  -1.479   6.327   7.370 -0.0148  1.0918 -2.1475
 1678WAT    EPW 8519  -1.556   6.363   7.389 -0.0239  0.2770 -0.3531
 1679WAT      O 8520  -0.737   5.825   3.870 -0.0696  0.3919  0.3112
 1679WAT     H1 8521  -0.781   5.798   3.950  1.8691 -1.2003  0.9420
 1679WAT     H2 8522  -0.803   5.873   3.821 -3.3962 -3.9517 -0.0401
 1679WAT    EPW 8523  -0.751   5.827   3.874 -0.2527 -0.3910  0.3481
 1680WAT      O 8524  -0.258   6.436   1.787 -0.5411  0.7385  0.6279
 1680WAT     H1 8525  -0.294   6.349   1.800 -1.3052  0.9359 -0.0631
 1680WAT     H2 8526  -0.328   6.495   1.817 -0.5625  1.1221 -0.1553
 1680WAT    EPW 8527  -0.272   6.433   1.793 -0.6447  0.8149  0.4334
 1681WAT      O 8528  -3.170   0.833   5.276 -0.0840  0.6175  0.2282
 1681WAT     H1 8529  -3.167   0.885   5.195  1.6353  1.2889  0.6798
 1681WAT     H2 8530  -3.195   0.745   5.246  0.3311  0.8965 -1.0301
 1681WAT    EPW 8531  -3.173   0.828   5.261  0.1975  0.7428  0.1218
 1682WAT      O 8532   5.810   3.895   5.435 -0.6450  0.1149  0.1185
 1682WAT     H1 8533   5.863   3.842   5.495  0.0065  0.9144  0.2629
 1682WAT     H2 8534   5.865   3.971   5.415 -1.8231  1.0913  0.4640
 1682WAT    EPW 8535   5.825   3.898   5.440 -0.7145  0.3492  0.1829
 1683WAT      O 8536  -0.242   2.533   3.754  0.0331 -0.2540 -0.0263
 1683WAT     H1 8537  -0.170   2.527   3.690  0.6199 -2.2526  0.7422
 1683WAT     H2 8538  -0.238   2.623   3.785  1.8957 -0.1526 -0.3977
 1683WAT    EPW 8539  -0.232   2.544   3.750  0.3561 -0.5041  0.0261
 1684WAT      O 8540  -4.564   9.542   3.163  0.4011  0.3645 -0.5218
 1684WAT     H1 8541  -4.519   9.464   3.131 -2.6590 -0.8851 -2.1665
 1684WAT     H2 8542  -4.577   9.525   3.256  1.1408 -0.3480 -0.5309
 1684WAT    EPW 8543  -4.559   9.529   3.171  0.0951  0.1054 -0.7401
 1685WAT      O 8544   4.443   4.349   4.524  1.3369  0.2291 -0.3714
 1685WAT     H1 8545   4.433   4.269   4.574  1.0823  1.6570  2.0078
 1685WAT     H2 8546   4.464   4.320   4.435  0.1065 -2.4417  0.1403
 1685WAT    EPW 8547   4.444   4.335   4.519  1.1411  0.0653  0.0098
 1686WAT      O 8548   0.696   0.293   7.908 -0.6737  0.6646  0.0355
 1686WAT     H1 8549   0.637   0.218   7.917  0.5282 -0.4988 -1.3085
 1686WAT     H2 8550   0.748   0.274   7.830 -0.1768  2.8167 -0.2349
 1686WAT    EPW 8551   0.695   0.281   7.899 -0.4496  0.7950 -0.1774
 1687WAT      O 8552   1.166   5.319   3.298 -0.1417  0.2777  0.3391
 1687WAT     H1 8553   1.185   5.411   3.312  0.8949  0.2710 -0.8239
 1687WAT     H2 8554   1.235   5.272   3.344  1.7255  0.2127 -2.2893
 1687WAT    EPW 8555   1.177   5.325   3.306  0.2414  0.2682 -0.1611
 1688WAT      O 8556   7.091   4.823   0.016 -0.3871  0.4462 -0.2528
 1688WAT     H1 8557   7.127   4.772   0.089 -0.0439  0.8180 -0.1580
 1688WAT     H2 8558   7.119   4.776  -0.062 -3.0613 -1.5181 -0.1434
 1688WAT    EPW 8559   7.100   4.810   0.015 -0.6945  0.2363 -0.2258
 1689WAT      O 8560  -2.728   2.923   4.773  0.0751 -0.1855  0.0611
 1689WAT     H1 8561  -2.664   2.991   4.755 -0.6040  0.8613  1.4402
 1689WAT     H2 8562  -2.791   2.930   4.701 -2.0700  3.2714  1.9794
 1689WAT    EPW 8563  -2.728   2.933   4.761 -0.2974  0.4085  0.4961
 1690WAT      O 8564   3.787   2.888   4.864 -0.4651 -0.8599 -0.0386
 1690WAT     H1 8565   3.780   2.835   4.944  2.2754  0.3148  1.0935
 1690WAT     H2 8566   3.854   2.844   4.813  1.5320  1.1388  0.7161
 1690WAT    EPW 8567   3.795   2.875   4.868  0.1599 -0.4413  0.2103
 1691WAT      O 8568  -0.918   3.137   1.819  0.1071 -0.0267 -0.0092
 1691WAT     H1 8569  -1.013   3.146   1.818  0.0611  0.4350  2.5095
 1691WAT     H2 8570  -0.886   3.218   1.780 -0.4805 -0.7411 -2.1084
 1691WAT    EPW 8571  -0.926   3.149   1.813  0.0236 -0.0600  0.0461
 1692WAT      O 8572  -0.908   8.459   5.125 -0.0051 -0.0193 -0.4080
 1692WAT     H1 8573  -0.870   8.459   5.037  1.4722  0.9757  0.1722
 1692WAT     H2 8574  -0.998   8.488   5.112  0.2759  0.4110 -1.5646
 1692WAT    EPW 8575  -0.915   8.463   5.112  0.2268  0.1683 -0.4840
 1693WAT      O 8576  -4.062   2.381   7.622 -0.8033 -0.2134 -0.9981
 1693WAT     H1 8577  -4.140   2.343   7.580 -0.7839  0.5419 -1.7395
 1693WAT     H2 8578  -4.030   2.446   7.560  0.6302 -0.7463 -0.8520
 1693WAT    EPW 8579  -4.068   2.384   7.609 -0.6115 -0.1839 -1.0765
 1694WAT      O 8580  -4.575   1.845   8.848 -0.3674  0.1555  0.1775
 1694WAT     H1 8581  -4.518   1.894   8.790 -1.3476  0.5714 -0.4636
 1694WAT     H2 8582  -4.527   1.839   8.930  0.4852  0.6933 -0.2723
 1694WAT    EPW 8583  -4.561   1.850   8.851 -0.3843  0.2812  0.0339
 1695WAT      O 8584   7.550   0.255   2.590  0.0785  1.0283  0.0751
 1695WAT     H1 8585   7.472   0.233   2.641 -0.1642 -1.5940 -1.2494
 1695WAT     H2 8586   7.606   0.303   2.652 -1.2313  0.1796  2.0295
 1695WAT    EPW 8587   7.547   0.259   2.605 -0.1264  0.5705  0.1581
 1696WAT      O 8588  -0.012   6.589   1.654  0.2240 -0.5660 -0.0816
 1696WAT     H1 8589   0.015   6.650   1.585  1.4910  0.2591  1.0922
 1696WAT     H2 8590  -0.088   6.630   1.695  0.5257 -0.1947  0.1181
 1696WAT    EPW 8591  -0.018   6.603   1.650  0.4309 -0.4082  0.0996
 1697WAT      O 8592   3.627   7.754   6.023  0.1763 -0.3713  0.0617
 1697WAT     H1 8593   3.678   7.791   5.951 -0.5033 -0.3628 -0.4162
 1697WAT     H2 8594   3.693   7.732   6.089  0.6480  1.3329  0.2058
 1697WAT    EPW 8595   3.643   7.756   6.022  0.1490 -0.1454  0.0179
 1698WAT      O 8596   3.066   5.551   0.544 -0.1673  0.0829 -0.0620
 1698WAT     H1 8597   2.971   5.562   0.535 -0.1712 -0.6055 -1.1102
 1698WAT     H2 8598   3.077   5.478   0.605 -0.2430  1.5650  1.8227
 1698WAT    EPW 8599   3.055   5.543   0.551 -0.1779  0.1874  0.0483
 1699WAT      O 8600  -3.831   7.815   2.631  0.1555  0.2999  0.2449
 1699WAT     H1 8601  -3.830   7.787   2.723  2.7042  1.0881  0.5464
 1699WAT     H2 8602  -3.787   7.900   2.632 -2.1871  1.6612 -1.4080
 1699WAT    EPW 8603  -3.825   7.823   2.644  0.1826  0.5836  0.0666
 1700WAT      O 8604  -0.040   5.574   8.924  0.0592 -0.8504 -0.1281
 1700WAT     H1 8605  -0.079   5.624   8.852 -0.0615  0.7856  1.0101
 1700WAT     H2 8606  -0.037   5.636   8.997  2.4607 -1.6929  0.5726
 1700WAT    EPW 8607  -0.045   5.589   8.924  0.3600 -0.7455  0.1149
 1701WAT      O 8608  -4.707   7.796   8.207  0.2955  0.2998 -0.9865
 1701WAT     H1 8609  -4.731   7.877   8.252  0.8051 -0.9300  1.7156
 1701WAT     H2 8610  -4.620   7.813   8.171  1.8615  0.0893  2.3504
 1701WAT    EPW 8611  -4.699   7.809   8.208  0.5696  0.1101 -0.1898
 1702WAT      O 8612   5.875   2.056   2.801  0.0465  0.8667  0.0720
 1702WAT     H1 8613   5.865   2.067   2.896 -1.7073  1.8722 -0.1951
 1702WAT     H2 8614   5.947   2.115   2.778  2.4415 -1.4324  1.1006
 1702WAT    EPW 8615   5.883   2.065   2.811  0.1309  0.6962  0.1725
 1703WAT      O 8616  -0.126   1.009   7.183  0.1218  0.3359  0.1232
 1703WAT     H1 8617  -0.044   0.990   7.138 -0.6905 -0.3322 -1.1439
 1703WAT     H2 8618  -0.189   0.947   7.144 -0.7139 -0.0009  1.9227
 1703WAT    EPW 8619  -0.123   0.998   7.172 -0.0956  0.2033  0.1936
 1704WAT      O 8620   2.712   2.655   1.329 -0.0034  0.1115 -0.1957
 1704WAT     H1 8621   2.722   2.649   1.234 -0.8943 -2.0013 -0.1957
 1704WAT     H2 8622   2.620   2.635   1.345  0.5708 -1.6281  1.2365
 1704WAT    EPW 8623   2.701   2.652   1.318 -0.0452 -0.3965 -0.0069
 1705WAT      O 8624  -2.445   7.069   4.419 -0.2979 -0.6108  0.5133
 1705WAT     H1 8625  -2.517   7.128   4.440 -1.5782 -0.7081 -2.9153
 1705WAT     H2 8626  -2.366   7.123   4.426 -1.1460  0.6752  0.3407
 1705WAT    EPW 8627  -2.444   7.084   4.422 -0.5786 -0.4542  0.0384
 1706WAT      O 8628   5.678   5.012   0.962  0.4536 -0.2177  0.5250
 1706WAT     H1 8629   5.594   5.053   0.980  1.1365  3.3401 -2.9121
 1706WAT     H2 8630   5.662   4.957   0.886  1.1540  0.5781 -0.2315
 1706WAT    EPW 8631   5.665   5.010   0.954  0.6361  0.3564 -0.0281
 1707WAT      O 8632   2.387   0.844   1.070  0.0759 -0.4826 -0.1033
 1707WAT     H1 8633   2.363   0.752   1.075  1.9952 -0.9939  0.3950
 1707WAT     H2 8634   2.328   0.887   1.133  1.0466 -1.8388  1.8475
 1707WAT    EPW 8635   2.376   0.838   1.079  0.4570 -0.7289  0.2197
 1708WAT      O 8636   0.663   3.535   6.082 -1.1467  0.1756 -0.0449
 1708WAT     H1 8637   0.592   3.501   6.029  1.5896 -3.6603 -1.6942
 1708WAT     H2 8638   0.715   3.588   6.022  0.2360 -1.5556 -0.4501
 1708WAT    EPW 8639   0.661   3.537   6.067 -0.6034 -0.5586 -0.3159
 1709WAT      O 8640  -5.455   8.946   5.999 -0.1044  0.3498  0.1244
 1709WAT     H1 8641  -5.487   9.026   6.041  2.8482  2.0427 -0.5353
 1709WAT     H2 8642  -5.396   8.907   6.064  1.5075  0.9159 -0.9326
 1709WAT    EPW 8643  -5.451   8.951   6.013  0.4978  0.6480 -0.1020
 1710WAT      O 8644   3.854   3.843   5.952  0.2059 -0.7592 -0.2329
 1710WAT     H1 8645   3.834   3.768   6.008  0.9147 -2.4669 -2.1247
 1710WAT     H2 8646   3.936   3.879   5.988 -0.5830 -0.3258  1.1892
 1710WAT    EPW 8647   3.862   3.838   5.964  0.1954 -0.9273 -0.2947
 1711WAT      O 8648  -1.065   7.178   2.775 -0.4694  0.9339 -0.3243
 1711WAT     H1 8649  -1.105   7.094   2.800  0.0950  0.4540 -0.9633
 1711WAT     H2 8650  -0.978   7.175   2.814 -0.0232  0.6988 -1.2983
 1711WAT    EPW 8651  -1.059   7.166   2.783 -0.3362  0.8395 -0.5370
 1712WAT      O 8652  -0.129   2.399   0.469  0.0547  0.5817  0.0611
 1712WAT     H1 8653  -0.073   2.361   0.536 -0.8755  1.5560  1.4444
 1712WAT     H2 8654  -0.169   2.324   0.426  0.0296 -0.0489  1.1567
 1712WAT    EPW 8655  -0.127   2.384   0.472 -0.0713  0.6269  0.3881
 1713WAT      O 8656  -1.947   9.495   1.541  0.1792  0.0980 -0.2502
 1713WAT     H1 8657  -1.870   9.525   1.493  0.8116  1.1456  1.3228
 1713WAT     H2 8658  -1.912   9.453   1.620 -0.7333  3.5055  2.2120
 1713WAT    EPW 8659  -1.932   9.493   1.545  0.1423  0.6857  0.2820
 1714WAT      O 8660  -2.147   2.718   3.279 -0.2926  0.3113 -0.2286
 1714WAT     H1 8661  -2.182   2.630   3.264 -1.3742  0.8719 -1.1749
 1714WAT     H2 8662  -2.063   2.718   3.234  0.4781 -0.7267  1.1448
 1714WAT    EPW 8663  -2.141   2.706   3.271 -0.3335  0.2483 -0.1724
 1715WAT      O 8664   0.714   2.768   7.923  0.1873 -0.0959 -0.0191
 1715WAT     H1 8665   0.720   2.852   7.969  0.2246  1.5833 -2.8317
 1715WAT     H2 8666   0.804   2.750   7.894 -0.2652  0.5373 -1.9827
 1715WAT    EPW 8667   0.727   2.777   7.925  0.1326  0.2091 -0.6490
 1716WAT      O 8668   5.601   7.063   0.336  0.4178  0.8817 -0.3082
 1716WAT     H1 8669   5.663   7.001   0.298 -3.2467 -0.3462 -5.2891
 1716WAT     H2 8670   5.603   7.138   0.277 -1.3515  1.7033  0.5834
 1716WAT    EPW 8671   5.610   7.065   0.323 -0.2990  0.8280 -0.8475
 1717WAT      O 8672  -3.561   7.714   8.113  0.6026  0.4321 -0.2258
 1717WAT     H1 8673  -3.518   7.664   8.182 -2.7337 -0.3786  1.4609
 1717WAT     H2 8674  -3.621   7.651   8.072 -1.0989  2.1035 -0.4512
 1717WAT    EPW 8675  -3.563   7.699   8.116 -0.0619  0.5455 -0.0329
 1718WAT      O 8676   8.460   0.322   1.881  0.2433  1.1438 -0.3250
 1718WAT     H1 8677   8.495   0.411   1.888  1.8873  0.3856  1.9977
 1718WAT     H2 8678   8.392   0.318   1.949 -1.1530  1.1239 -1.6529
 1718WAT    EPW 8679   8.455   0.334   1.891  0.2761  1.0412 -0.1938
 1719WAT      O 8680   0.091   2.270   4.174  0.4155 -0.0121 -0.5893
 1719WAT     H1 8681   0.060   2.361   4.173 -0.0533 -0.1417 -2.5310
 1719WAT     H2 8682   0.171   2.272   4.227 -0.9882  0.9973  1.6491
 1719WAT    EPW 8683   0.097   2.282   4.181  0.1685  0.1040 -0.5503
 1720WAT      O 8684   6.296   1.369   1.961 -0.0056  0.0008 -0.4010
 1720WAT     H1 8685   6.330   1.458   1.951  1.3066  0.0279  3.0663
 1720WAT     H2 8686   6.201   1.380   1.967  0.1286  1.1251 -0.2016
 1720WAT    EPW 8687   6.288   1.382   1.960  0.1853  0.1526  0.0826
 1721WAT      O 8688  -5.659   1.607   8.927  0.6989 -0.0524 -0.6259
 1721WAT     H1 8689  -5.728   1.664   8.892  0.8545  1.4854  1.3658
 1721WAT     H2 8690  -5.705   1.548   8.987  0.8979 -0.0537 -0.4717
 1721WAT    EPW 8691  -5.674   1.607   8.931  0.7455  0.1503 -0.3428
 1722WAT      O 8692   0.720   1.283   8.219 -0.2325  0.1997  0.1855
 1722WAT     H1 8693   0.653   1.300   8.153 -0.5019 -0.4335  0.2950
 1722WAT     H2 8694   0.673   1.288   8.302 -0.3694 -1.2695  0.2165
 1722WAT    EPW 8695   0.705   1.286   8.221 -0.2861 -0.0777  0.2036
 1723WAT      O 8696  -0.488   7.855   4.795  0.1424  0.0710 -0.3469
 1723WAT     H1 8697  -0.431   7.923   4.833 -2.1758  0.1667  3.5583
 1723WAT     H2 8698  -0.485   7.784   4.859  0.9565 -2.8506 -3.3696
 1723WAT    EPW 8699  -0.480   7.855   4.809 -0.0560 -0.3016 -0.2306
 1724WAT      O 8700  -2.000   4.841   6.884  0.1083 -0.0507 -0.9698
 1724WAT     H1 8701  -1.947   4.916   6.857  1.2571 -0.7657 -0.7716
 1724WAT     H2 8702  -1.943   4.790   6.941 -1.0946 -0.4160 -0.0533
 1724WAT    EPW 8703  -1.985   4.844   6.888  0.1011 -0.1931 -0.8228
 1725WAT      O 8704  -7.346   8.043   7.764  0.7510  0.2661  0.8720
 1725WAT     H1 8705  -7.369   8.066   7.673  0.0902  0.2686  1.0337
 1725WAT     H2 8706  -7.429   8.045   7.810  1.2496  1.5520  1.7685
 1725WAT    EPW 8707  -7.360   8.047   7.758  0.7298  0.4358  1.0116
 1726WAT      O 8708  -4.585   7.798   4.210  0.8377  1.2085  0.0293
 1726WAT     H1 8709  -4.638   7.778   4.288  1.4748 -1.1929 -0.0884
 1726WAT     H2 8710  -4.496   7.805   4.244  1.3502 -1.3337 -0.5842
 1726WAT    EPW 8711  -4.581   7.796   4.225  0.9892  0.5565 -0.0672
 1727WAT      O 8712   1.540   4.799   2.952  0.0922 -0.2497  0.0541
 1727WAT     H1 8713   1.482   4.818   2.879  1.6946  2.8989 -0.5776
 1727WAT     H2 8714   1.606   4.740   2.915 -0.6637 -0.9552 -0.2055
 1727WAT    EPW 8715   1.541   4.793   2.937  0.2039  0.0725 -0.0635
 1728WAT      O 8716   5.571   6.131   0.811  0.1599  0.0082  0.7569
 1728WAT     H1 8717   5.631   6.059   0.829 -1.5513 -1.8338 -0.5515
 1728WAT     H2 8718   5.616   6.183   0.744  1.4690  0.3053  1.8132
 1728WAT    EPW 8719   5.585   6.129   0.804  0.1068 -0.1955  0.7236
 1729WAT      O 8720   3.382   0.696   6.668 -0.2277 -0.4897  0.2918
 1729WAT     H1 8721   3.317   0.765   6.682 -0.1296 -0.4157  0.3862
 1729WAT     H2 8722   3.466   0.739   6.682 -0.2098 -0.9743  1.8674
 1729WAT    EPW 8723   3.384   0.711   6.672 -0.2124 -0.5438  0.5121
 1730WAT      O 8724   6.809   3.455   1.181  0.5138  0.1281  0.6961
 1730WAT     H1 8725   6.838   3.462   1.090 -1.6245 -0.8529 -0.1392
 1730WAT     H2 8726   6.771   3.367   1.188 -1.1647  0.8810  1.9431
 1730WAT    EPW 8727   6.808   3.444   1.170  0.0105  0.0981  0.7505
 1731WAT      O 8728  -3.128   7.870   2.663  0.1006 -0.0660  0.0627
 1731WAT     H1 8729  -3.045   7.825   2.677  1.9617  2.5876 -1.4750
 1731WAT     H2 8730  -3.130   7.940   2.728 -0.3386  0.6177 -0.6619
 1731WAT    EPW 8731  -3.117   7.874   2.673  0.2882  0.3743 -0.2356
 1732WAT      O 8732   1.980   1.339   1.460 -0.5645  0.3885 -0.1389
 1732WAT     H1 8733   2.006   1.429   1.443 -0.7816  0.1989 -1.6400
 1732WAT     H2 8734   1.884   1.342   1.465 -0.4996  0.4811  1.4851
 1732WAT    EPW 8735   1.971   1.351   1.458 -0.5846  0.3757 -0.1227
 1733WAT      O 8736   1.915   9.297   7.465  0.4209 -0.4025 -0.4562
 1733WAT     H1 8737   1.940   9.205   7.476 -2.2868 -1.0772  1.0401
 1733WAT     H2 8738   1.949   9.340   7.544  3.9260  0.5923 -2.2923
 1733WAT    EPW 8739   1.923   9.291   7.477  0.5261 -0.3600 -0.5009
 1734WAT      O 8740   4.729   7.352   3.739  0.6723  0.5490  0.0145
 1734WAT     H1 8741   4.651   7.297   3.747 -0.2451  1.4946 -1.8402
 1734WAT     H2 8742   4.734   7.397   3.824  0.5342 -1.1422  0.9812
 1734WAT    EPW 8743   4.719   7.351   3.752  0.5333  0.4508 -0.1026
 1735WAT      O 8744   1.944   7.628   1.942  0.0189  0.2032  0.8922
 1735WAT     H1 8745   1.939   7.540   1.980 -0.0334  0.7292  2.1691
 1735WAT     H2 8746   1.941   7.687   2.018 -0.1941  1.3180  0.0492
 1735WAT    EPW 8747   1.943   7.624   1.957 -0.0162  0.4199  0.9495
 1736WAT      O 8748   1.947   6.318   5.740  0.1221  0.3450 -0.3289
 1736WAT     H1 8749   1.963   6.237   5.692  3.3765  2.0151 -2.3706
 1736WAT     H2 8750   2.034   6.354   5.757 -1.1171  2.3892  2.5085
 1736WAT    EPW 8751   1.960   6.312   5.736  0.3879  0.8349 -0.2241
 1737WAT      O 8752   1.247   1.390   7.691  0.1966 -0.3189  0.2318
 1737WAT     H1 8753   1.173   1.330   7.681 -2.4328  2.1475  2.8133
 1737WAT     H2 8754   1.237   1.453   7.619 -1.6667  1.1947  1.6777
 1737WAT    EPW 8755   1.236   1.391   7.680 -0.3959  0.2060  0.7629
 1738WAT      O 8756  -4.911  10.044   8.493 -0.0323 -0.5017  0.0275
 1738WAT     H1 8757  -4.988  10.098   8.476 -1.3387 -2.4317 -0.5159
 1738WAT     H2 8758  -4.875  10.025   8.407  0.3763 -0.5276  0.2043
 1738WAT    EPW 8759  -4.917  10.048   8.480 -0.1507 -0.7596 -0.0210
 1739WAT      O 8760  -3.191   1.457   8.787 -0.4544  0.5291 -0.3048
 1739WAT     H1 8761  -3.131   1.405   8.840 -0.1170  2.4685  1.3399
 1739WAT     H2 8762  -3.153   1.455   8.699  1.2007  0.4343  0.3751
 1739WAT    EPW 8763  -3.178   1.450   8.782 -0.1917  0.7725  0.0019
 1740WAT      O 8764   4.106   4.608   6.839 -0.3117  0.1820 -0.4858
 1740WAT     H1 8765   4.055   4.646   6.910 -0.1051 -1.4861  0.6017
 1740WAT     H2 8766   4.196   4.632   6.859 -0.0629 -1.6003  0.7475
 1740WAT    EPW 8767   4.111   4.616   6.851 -0.2515 -0.2730 -0.1798
 1741WAT      O 8768   0.433   3.063   7.301  0.2282  0.0646  0.0083
 1741WAT     H1 8769   0.402   3.095   7.385  0.3284  0.8434 -0.2438
 1741WAT     H2 8770   0.427   3.139   7.243 -2.2490 -1.0418 -1.3566
 1741WAT    EPW 8771   0.428   3.077   7.304 -0.0853  0.0216 -0.2050
 1742WAT      O 8772   0.563   4.105   5.876 -0.0895  0.3578  0.1019
 1742WAT     H1 8773   0.517   4.129   5.795 -0.1942  1.9614  0.6056
 1742WAT     H2 8774   0.554   4.182   5.932  0.7253 -0.4084  1.3231
 1742WAT    EPW 8775   0.556   4.118   5.873  0.0041  0.4685  0.3293
 1743WAT      O 8776  -3.452   6.012   5.108 -0.9151 -0.0771 -0.1244
 1743WAT     H1 8777  -3.463   5.955   5.032 -0.7952  1.4431 -1.3321
 1743WAT     H2 8778  -3.414   6.093   5.072 -0.9767  0.7295  1.5360
 1743WAT    EPW 8779  -3.448   6.015   5.093 -0.9073  0.2296 -0.0646
 1744WAT      O 8780   2.042   8.929   6.045  0.5204  0.7855  0.2005
 1744WAT     H1 8781   2.102   8.855   6.035 -1.1560 -0.4313 -1.7364
 1744WAT     H2 8782   1.997   8.935   5.960 -1.2837  2.3332  1.1872
 1744WAT    EPW 8783   2.044   8.920   6.032  0.0613  0.8292  0.0751
 1745WAT      O 8784  -3.971   8.989   6.398  0.3529  0.0790 -0.4687
 1745WAT     H1 8785  -4.028   8.983   6.321 -1.4582  2.6587  0.5293
 1745WAT     H2 8786  -3.997   8.916   6.453 -0.6335  0.0755 -0.9061
 1745WAT    EPW 8787  -3.982   8.979   6.395 -0.0161  0.4187 -0.3948
 1746WAT      O 8788  -2.130   5.499   4.429 -0.4174 -0.5586  0.0105
 1746WAT     H1 8789  -2.166   5.411   4.424  1.3028 -1.3801  1.2758
 1746WAT     H2 8790  -2.092   5.505   4.516  0.7396  0.9371 -0.5552
 1746WAT    EPW 8791  -2.130   5.488   4.440 -0.0379 -0.4697  0.1028
 1747WAT      O 8792  -1.322   5.629   3.624  0.2578  0.6753 -0.9910
 1747WAT     H1 8793  -1.391   5.592   3.569 -3.0536  2.0026  1.8760
 1747WAT     H2 8794  -1.326   5.723   3.606  0.4919  0.8868  0.0240
 1747WAT    EPW 8795  -1.332   5.637   3.614 -0.1481  0.8783 -0.4791
 1748WAT      O 8796  -0.057   3.495   5.588 -0.1336  0.5483  0.3821
 1748WAT     H1 8797  -0.078   3.433   5.518 -0.1139  1.1410 -0.1622
 1748WAT     H2 8798  -0.134   3.552   5.592  0.8061  1.9594 -0.7678
 1748WAT    EPW 8799  -0.070   3.494   5.579 -0.0071  0.8126  0.1583
 1749WAT      O 8800  -3.001   8.459   5.607 -0.2978 -0.1317  0.0496
 1749WAT     H1 8801  -2.919   8.502   5.628 -0.5474  1.6299 -2.1645
 1749WAT     H2 8802  -3.013   8.394   5.676  2.6088 -0.0181  0.7877
 1749WAT    EPW 8803  -2.992   8.456   5.619  0.0526  0.1154 -0.1452
 1750WAT      O 8804  -7.261   6.781   8.209 -0.3857 -0.1965  0.9153
 1750WAT     H1 8805  -7.259   6.862   8.158 -1.5040 -0.9707 -0.3971
 1750WAT     H2 8806  -7.168   6.760   8.223 -0.0730  0.8350  0.5505
 1750WAT    EPW 8807  -7.248   6.789   8.204 -0.4921 -0.1626  0.6943
 1751WAT      O 8808  -4.109   2.744   8.016  0.5549 -0.7037 -0.4709
 1751WAT     H1 8809  -4.131   2.681   7.947  0.5070 -0.6238 -0.5289
 1751WAT     H2 8810  -4.015   2.731   8.030  0.2747 -1.8290  0.5587
 1751WAT    EPW 8811  -4.100   2.734   8.009  0.5116 -0.8417 -0.3428
 1752WAT      O 8812  -4.571  10.175   2.270  0.2423 -0.4928  0.2687
 1752WAT     H1 8813  -4.657  10.184   2.309  0.0966 -3.0054  0.7035
 1752WAT     H2 8814  -4.548  10.263   2.240 -2.3043  0.2891  0.4298
 1752WAT    EPW 8815  -4.579  10.188   2.271 -0.1128 -0.7210  0.3473
 1753WAT      O 8816   4.325   7.474   4.641 -0.3947  0.0045  0.5291
 1753WAT     H1 8817   4.241   7.503   4.677 -1.1077 -1.0426 -0.2037
 1753WAT     H2 8818   4.352   7.402   4.699 -0.1715  0.1139  0.5632
 1753WAT    EPW 8819   4.317   7.468   4.654 -0.4592 -0.1192  0.4370
 1754WAT      O 8820   2.522   6.595   7.155 -0.0382 -0.3970 -0.1685
 1754WAT     H1 8821   2.456   6.538   7.116 -0.4662  0.2786 -0.4534
 1754WAT     H2 8822   2.473   6.650   7.217 -0.2762  1.9217 -2.2537
 1754WAT    EPW 8823   2.507   6.595   7.158 -0.1260 -0.0021 -0.4809
 1755WAT      O 8824  -2.461   7.646   2.633  0.0505  0.2317  0.6214
 1755WAT     H1 8825  -2.368   7.629   2.648  0.3658  1.8625  0.6470
 1755WAT     H2 8826  -2.473   7.738   2.655 -1.0456  0.7431 -1.7991
 1755WAT    EPW 8827  -2.450   7.656   2.638 -0.0525  0.5143  0.3054
 1756WAT      O 8828   0.566   7.955   2.940  0.1792 -0.1091  0.4156
 1756WAT     H1 8829   0.503   7.884   2.924 -0.0751 -0.1094  1.3666
 1756WAT     H2 8830   0.623   7.954   2.863  0.7531 -1.9494  0.8167
 1756WAT    EPW 8831   0.565   7.946   2.928  0.2213 -0.3517  0.5939
 1757WAT      O 8832   2.412   5.458   8.725 -0.1832  0.1772 -0.3489
 1757WAT     H1 8833   2.461   5.535   8.752  0.6067 -0.1886 -0.6951
 1757WAT     H2 8834   2.361   5.487   8.649  0.1018  0.3560 -0.4714
 1757WAT    EPW 8835   2.412   5.472   8.718 -0.0414  0.1528 -0.4110
 1758WAT      O 8836  -4.337   8.136   5.080  0.1305  0.2722 -0.4587
 1758WAT     H1 8837  -4.328   8.127   4.985 -1.0386  1.2919 -0.6860
 1758WAT     H2 8838  -4.350   8.046   5.111 -0.4683  0.0181 -1.3917
 1758WAT    EPW 8839  -4.338   8.123   5.071 -0.1025  0.3734 -0.6118
 1759WAT      O 8840  -0.232   0.918   3.586  0.0711  0.2307 -0.2440
 1759WAT     H1 8841  -0.263   0.986   3.645  1.0521  0.0279  0.5472
 1759WAT     H2 8842  -0.147   0.892   3.622 -1.0645 -2.7587  0.6339
 1759WAT    EPW 8843  -0.225   0.923   3.599  0.0507 -0.1903 -0.0238
 1760WAT      O 8844  -5.226   1.760   7.777 -0.3460  0.0102 -0.1565
 1760WAT     H1 8845  -5.251   1.726   7.863  0.4383  1.0386  0.5023
 1760WAT     H2 8846  -5.186   1.845   7.795  0.3207  0.0103 -1.4901
 1760WAT    EPW 8847  -5.224   1.766   7.791 -0.1547  0.1459 -0.2456
 1761WAT      O 8848   5.131   3.199   3.311 -0.1866  0.1886  0.7578
 1761WAT     H1 8849   5.138   3.139   3.237  2.6729  2.1117 -0.7326
 1761WAT     H2 8850   5.117   3.142   3.387 -2.9671 -1.8802 -1.1218
 1761WAT    EPW 8851   5.130   3.183   3.311 -0.1762  0.1694  0.3133
 1762WAT      O 8852   4.509   0.101   8.495 -0.5627 -0.4732  0.1029
 1762WAT     H1 8853   4.420   0.135   8.509  0.4249  3.3755 -1.4800
 1762WAT     H2 8854   4.538   0.071   8.581 -1.6380  3.2010  1.9338
 1762WAT    EPW 8855   4.501   0.102   8.508 -0.5744  0.5190  0.1359
 1763WAT      O 8856   0.158   4.918   7.075  0.2075  0.2351  0.3202
 1763WAT     H1 8857   0.213   4.987   7.111 -0.7285  2.3527 -1.9957
 1763WAT     H2 8858   0.082   4.916   7.132  0.1924  1.2451  0.3562
 1763WAT    EPW 8859   0.155   4.927   7.087  0.0820  0.6475  0.0196
 1764WAT      O 8860  -4.337   6.740   3.550 -0.0901  0.2452  0.6984
 1764WAT     H1 8861  -4.379   6.822   3.521 -0.7743 -0.5812 -0.7579
 1764WAT     H2 8862  -4.370   6.674   3.489  1.9038 -0.7886  0.6758
 1764WAT    EPW 8863  -4.347   6.742   3.538  0.0827  0.0000  0.5033
 1765WAT      O 8864   6.024   0.065   0.302  0.0824 -0.4814  0.6620
 1765WAT     H1 8865   6.020   0.017   0.385 -0.8693 -0.1151  0.8358
 1765WAT     H2 8866   6.055   0.152   0.325 -2.0826  0.2684  0.9591
 1765WAT    EPW 8867   6.028   0.070   0.316 -0.3285 -0.3342  0.7241
 1766WAT      O 8868  -4.603   8.881   4.085 -0.4314  0.1743  0.8068
 1766WAT     H1 8869  -4.544   8.946   4.048  0.8663 -1.3949 -0.0268
 1766WAT     H2 8870  -4.555   8.843   4.159 -0.6544 -0.6328  0.5557
 1766WAT    EPW 8871  -4.589   8.884   4.090 -0.2897 -0.1388  0.6638
 1767WAT      O 8872   8.686   5.692   0.367  0.2267 -0.0516 -0.7760
 1767WAT     H1 8873   8.647   5.771   0.406 -0.8318 -0.4524 -1.0019
 1767WAT     H2 8874   8.737   5.725   0.293  2.4259  0.7488  0.9741
 1767WAT    EPW 8875   8.687   5.707   0.362  0.3767  0.0010 -0.5749
 1768WAT      O 8876  -2.303   6.497   1.541  1.3611  0.3290  0.0854
 1768WAT     H1 8877  -2.239   6.510   1.471  3.3146 -2.3969  1.1870
 1768WAT     H2 8878  -2.358   6.425   1.510  0.8351  0.5576  0.4734
 1768WAT    EPW 8879  -2.302   6.490   1.528  1.5494 -0.0005  0.2819
 1769WAT      O 8880  -1.563   2.296   7.449  0.5776  0.3941 -0.3448
 1769WAT     H1 8881  -1.471   2.271   7.446  0.1521 -1.2152 -1.2627
 1769WAT     H2 8882  -1.562   2.392   7.456  2.2995  0.5065 -1.5780
 1769WAT    EPW 8883  -1.551   2.305   7.450  0.7486  0.1966 -0.6285
 1770WAT      O 8884   2.779   0.662   5.436  0.5448 -0.4794 -0.0849
 1770WAT     H1 8885   2.762   0.645   5.344  1.4430 -0.4688 -0.2558
 1770WAT     H2 8886   2.707   0.618   5.482 -0.1753 -0.0790 -0.8039
 1770WAT    EPW 8887   2.767   0.654   5.430  0.5683 -0.4252 -0.2022
 1771WAT      O 8888  -0.399   1.661   0.101 -0.6426  0.0371  0.2835
 1771WAT     H1 8889  -0.324   1.649   0.159 -0.6375  1.7606  0.6850
 1771WAT     H2 8890  -0.438   1.743   0.129  0.3748  1.9211 -3.2466
 1771WAT    EPW 8891  -0.394   1.670   0.113 -0.5078  0.5130 -0.1291
 1772WAT      O 8892  -0.504   9.394   3.676 -0.0408  0.3508  0.4410
 1772WAT     H1 8893  -0.513   9.312   3.725 -1.8468 -0.3058 -0.8726
 1772WAT     H2 8894  -0.576   9.392   3.613 -0.4633  3.2018  0.7074
 1772WAT    EPW 8895  -0.515   9.383   3.674 -0.3347  0.6404  0.3029
 1773WAT      O 8896   5.156   0.514   0.672  0.2084 -0.6147 -0.4566
 1773WAT     H1 8897   5.156   0.485   0.763  0.5553 -0.5708 -0.4418
 1773WAT     H2 8898   5.064   0.508   0.645  0.3092 -2.0045 -0.5451
 1773WAT    EPW 8899   5.144   0.510   0.681  0.2675 -0.7922 -0.4663
 1774WAT      O 8900   3.095   3.875   2.435  0.4514 -0.4343  0.3242
 1774WAT     H1 8901   3.170   3.824   2.468 -0.5044 -3.8524 -2.1499
 1774WAT     H2 8902   3.024   3.811   2.432 -1.0116  1.1561 -2.6427
 1774WAT    EPW 8903   3.096   3.860   2.439  0.1323 -0.6754 -0.3934
 1775WAT      O 8904   4.073   0.470   4.206  0.2346 -0.0244 -0.0030
 1775WAT     H1 8905   3.982   0.500   4.196 -0.2643 -1.4884 -0.1894
 1775WAT     H2 8906   4.065   0.375   4.216  1.7592 -0.1701  0.0288
 1775WAT    EPW 8907   4.060   0.461   4.206  0.3700 -0.2367 -0.0231
 1776WAT      O 8908   3.443   0.593   7.555 -0.1638 -0.6885 -0.8342
 1776WAT     H1 8909   3.365   0.622   7.507 -1.6989  0.1625  1.9593
 1776WAT     H2 8910   3.472   0.514   7.508 -2.9300 -1.2521 -1.7950
 1776WAT    EPW 8911   3.436   0.586   7.542 -0.7310 -0.6506 -0.5925
 1777WAT      O 8912   1.818   5.276   5.200 -0.2572 -0.7062  0.1407
 1777WAT     H1 8913   1.809   5.208   5.267 -0.9936 -2.2300 -1.4138
 1777WAT     H2 8914   1.746   5.336   5.217  0.8893  0.2047  2.0440
 1777WAT    EPW 8915   1.807   5.275   5.211 -0.2031 -0.7870  0.1867
 1778WAT      O 8916   3.582   1.709   1.364  0.0634  0.3961  0.4548
 1778WAT     H1 8917   3.601   1.727   1.456  1.6730  1.8412 -0.1012
 1778WAT     H2 8918   3.652   1.755   1.316  0.7321 -2.3108 -1.3954
 1778WAT    EPW 8919   3.594   1.718   1.370  0.3638  0.2296  0.1374
 1779WAT      O 8920   1.490   1.833   5.493 -0.8150  0.4822  0.0360
 1779WAT     H1 8921   1.463   1.850   5.583 -2.1403  0.9144 -0.4165
 1779WAT     H2 8922   1.474   1.916   5.448  2.4645  1.1989 -0.0469
 1779WAT    EPW 8923   1.484   1.847   5.499 -0.5573  0.6337 -0.0346
 1780WAT      O 8924  -5.489  10.190   8.426  0.0274  0.5960 -0.7864
 1780WAT     H1 8925  -5.445  10.273   8.442  0.9960 -0.1762  0.9433
 1780WAT     H2 8926  -5.435  10.146   8.360 -0.7209  1.4736 -2.0152
 1780WAT    EPW 8927  -5.476  10.195   8.420  0.0563  0.6099 -0.7205
 1781WAT      O 8928  -0.787   5.286   6.486 -0.0945  0.7448  0.4681
 1781WAT     H1 8929  -0.840   5.267   6.564  0.5155  0.8269  0.9095
 1781WAT     H2 8930  -0.753   5.201   6.459 -2.2349  0.3195 -1.1648
 1781WAT    EPW 8931  -0.790   5.272   6.493 -0.2964  0.6993  0.3109
 1782WAT      O 8932   7.701   0.169   1.407 -0.0369  0.5028 -0.3466
 1782WAT     H1 8933   7.638   0.169   1.336  0.4644 -1.5985 -0.8370
 1782WAT     H2 8934   7.786   0.180   1.364  0.1820  0.3650  0.0455
 1782WAT    EPW 8935   7.704   0.171   1.392  0.0582  0.2075 -0.3595
 1783WAT      O 8936   3.447   8.162   4.527  0.1563  0.4102 -0.2550
 1783WAT     H1 8937   3.532   8.124   4.550 -1.1129 -1.4955  1.6860
 1783WAT     H2 8938   3.466   8.253   4.504  2.7926 -0.1769 -0.6608
 1783WAT    EPW 8939   3.460   8.169   4.527  0.3365  0.0815 -0.0525
 1784WAT      O 8940   2.697   5.828   1.179 -0.5581  0.2200  0.0943
 1784WAT     H1 8941   2.639   5.890   1.222 -0.0521 -0.3919  1.7497
 1784WAT     H2 8942   2.675   5.743   1.218 -0.1568 -0.3839 -0.9602
 1784WAT    EPW 8943   2.687   5.825   1.190 -0.4385  0.0598  0.1734
 1785WAT      O 8944  -2.789   1.956   5.446 -0.2567 -0.3063  0.0068
 1785WAT     H1 8945  -2.839   2.037   5.449  0.3101  0.0354  1.1345
 1785WAT     H2 8946  -2.757   1.951   5.356 -1.1680  0.1720 -0.3567
 1785WAT    EPW 8947  -2.791   1.966   5.435 -0.3021 -0.1981  0.1078
 1786WAT      O 8948   2.147   2.579   1.781 -0.6268  0.3361 -0.3040
 1786WAT     H1 8949   2.092   2.575   1.860 -1.5883  0.4809 -0.9468
 1786WAT     H2 8950   2.208   2.651   1.798 -0.9421  0.4863  0.2390
 1786WAT    EPW 8951   2.147   2.588   1.794 -0.7951  0.3752 -0.3172
 1787WAT      O 8952  -0.091   7.030   1.219  0.4496 -0.6225  0.4957
 1787WAT     H1 8953  -0.017   7.020   1.159  1.8167  0.4171  1.8805
 1787WAT     H2 8954  -0.105   6.943   1.256 -0.4251 -1.2688 -1.2906
 1787WAT    EPW 8955  -0.083   7.017   1.216  0.5146 -0.5705  0.4428
 1788WAT      O 8956   3.638   1.377   1.956  0.7058 -0.0722 -0.1105
 1788WAT     H1 8957   3.615   1.342   2.042 -3.4015  0.2340 -0.8838
 1788WAT     H2 8958   3.661   1.468   1.972 -3.0340  0.8939  0.5166
 1788WAT    EPW 8959   3.638   1.384   1.969 -0.3293  0.0956 -0.1298
 1789WAT      O 8960   0.126   2.370   2.930 -0.6865  0.6970  0.0390
 1789WAT     H1 8961   0.047   2.394   2.979 -1.2235 -1.9853  0.6388
 1789WAT     H2 8962   0.101   2.385   2.838 -0.9131  2.3626  0.3284
 1789WAT    EPW 8963   0.112   2.375   2.924 -0.7872  0.5629  0.1562
 1790WAT      O 8964  -5.906   7.696   5.383  0.0545  0.2992  0.2260
 1790WAT     H1 8965  -5.842   7.644   5.335  0.1623 -0.0098  0.6957
 1790WAT     H2 8966  -5.930   7.767   5.323  0.0899 -0.1512 -0.3254
 1790WAT    EPW 8967  -5.901   7.698   5.369  0.0732  0.1991  0.2153
 1791WAT      O 8968   2.063   0.043   6.350 -0.2891  0.6444 -0.8040
 1791WAT     H1 8969   2.072  -0.032   6.409 -0.9008  1.0195 -0.2281
 1791WAT     H2 8970   2.056   0.004   6.262 -0.4984  0.0366 -0.5206
 1791WAT    EPW 8971   2.063   0.028   6.346 -0.3974  0.6142 -0.6907
 1792WAT      O 8972  -6.105   8.909   8.552  0.4121  0.3499 -0.1852
 1792WAT     H1 8973  -6.039   8.856   8.598 -0.5042 -1.8879 -1.2896
 1792WAT     H2 8974  -6.174   8.922   8.617  0.6211  0.1142  0.0876
 1792WAT    EPW 8975  -6.105   8.904   8.567  0.3188  0.0238 -0.2952
 1793WAT      O 8976  -3.406   6.273   4.657 -0.1247 -0.6650  0.5901
 1793WAT     H1 8977  -3.431   6.181   4.648 -0.1133 -0.5928 -0.2407
 1793WAT     H2 8978  -3.318   6.270   4.696  1.4988 -1.1733 -2.7962
 1793WAT    EPW 8979  -3.397   6.260   4.661  0.0910 -0.7224  0.0339
 1794WAT      O 8980   0.130   1.316   6.109  0.8634 -0.1757 -0.6767
 1794WAT     H1 8981   0.109   1.410   6.105  0.1649 -0.3768 -1.9697
 1794WAT     H2 8982   0.194   1.310   6.181 -0.4035  1.0258  0.6186
 1794WAT    EPW 8983   0.136   1.328   6.118  0.6042 -0.0437 -0.6764
 1795WAT      O 8984  -3.573   9.046   4.791 -0.8282  0.1168 -0.1914
 1795WAT     H1 8985  -3.610   8.965   4.756  1.4040  0.0191 -2.5969
 1795WAT     H2 8986  -3.579   9.108   4.718  0.6119  1.0743  0.4642
 1795WAT    EPW 8987  -3.579   9.044   4.777 -0.3438  0.2303 -0.4225
 1796WAT      O 8988  -4.393   9.477   7.332 -0.4114 -0.4677  0.4138
 1796WAT     H1 8989  -4.345   9.396   7.315 -0.2325 -0.3167  0.1978
 1796WAT     H2 8990  -4.445   9.458   7.411 -0.3128 -0.7653  0.4087
 1796WAT    EPW 8991  -4.394   9.464   7.340 -0.3748 -0.4864  0.3843
 1797WAT      O 8992   3.934   4.200   8.798 -0.0214  0.4087  0.9059
 1797WAT     H1 8993   3.906   4.233   8.884  0.2112  3.5577 -0.1191
 1797WAT     H2 8994   4.022   4.236   8.787  2.0293 -3.8373  1.2155
 1797WAT    EPW 8995   3.942   4.209   8.808  0.2798  0.2639  0.8116
 1798WAT      O 8996   3.552   1.119   5.428 -0.4846  0.0807 -0.4069
 1798WAT     H1 8997   3.549   1.056   5.356  0.3421 -0.3996 -0.0436
 1798WAT     H2 8998   3.645   1.142   5.435 -0.9059  2.4073 -1.4157
 1798WAT    EPW 8999   3.564   1.114   5.419 -0.4312  0.3242 -0.4921
 1799WAT      O 9000   3.031   3.516   4.165 -0.0105 -0.5110 -0.2800
 1799WAT     H1 9001   3.041   3.608   4.189 -1.0284 -0.1874 -1.0515
 1799WAT     H2 9002   3.048   3.468   4.247 -0.1455  0.3849  0.2858
 1799WAT    EPW 9003   3.035   3.522   4.179 -0.1625 -0.3501 -0.3071
 1800WAT      O 9004  -2.486   2.360   8.479  0.3654  0.4607  0.2811
 1800WAT     H1 9005  -2.401   2.359   8.522 -0.4784  1.0894  2.0577
 1800WAT     H2 9006  -2.468   2.390   8.390  2.3917 -2.5095 -0.4272
 1800WAT    EPW 9007  -2.473   2.364   8.473  0.5214  0.1518  0.4215
 1801WAT      O 9008  -0.532   2.371   2.579  0.1883  0.3438 -0.0120
 1801WAT     H1 9009  -0.617   2.332   2.556 -0.2582  1.9203 -1.1992
 1801WAT     H2 9010  -0.494   2.397   2.496  0.5020  2.3003  0.6964
 1801WAT    EPW 9011  -0.538   2.369   2.565  0.1708  0.8099 -0.0751
 1802WAT      O 9012  -1.826   9.768   3.399  0.1084  0.0609  0.0030
 1802WAT     H1 9013  -1.782   9.820   3.331 -1.1553 -0.7877 -1.5506
 1802WAT     H2 9014  -1.918   9.794   3.393 -0.0997 -0.3831  1.0791
 1802WAT    EPW 9015  -1.832   9.778   3.389 -0.0858 -0.1097 -0.0601
 1803WAT      O 9016  -3.314   8.055   6.691  0.4261 -0.3562  0.2094
 1803WAT     H1 9017  -3.235   8.005   6.710  1.5465  1.2385 -0.0610
 1803WAT     H2 9018  -3.284   8.128   6.636 -1.2416  0.2410  0.0244
 1803WAT    EPW 9019  -3.299   8.058   6.686  0.3539 -0.0672  0.1495
 1804WAT      O 9020  -0.429   9.227   7.760 -0.0978 -0.1586 -0.4525
 1804WAT     H1 9021  -0.400   9.263   7.677 -1.0984 -0.7371 -1.0783
 1804WAT     H2 9022  -0.460   9.303   7.810  0.5944  0.1988 -0.5570
 1804WAT    EPW 9023  -0.429   9.242   7.756 -0.1385 -0.1879 -0.5488
 1805WAT      O 9024  -1.957   3.270   2.143  0.4230 -0.6145 -0.3160
 1805WAT     H1 9025  -1.928   3.179   2.153  0.0086 -0.8591 -1.2157
 1805WAT     H2 9026  -1.948   3.288   2.049 -1.9799 -0.6151 -0.6275
 1805WAT    EPW 9027  -1.952   3.260   2.132  0.0514 -0.6468 -0.4758
 1806WAT      O 9028   0.620   0.565   8.963  0.1322  1.1084  0.1024
 1806WAT     H1 9029   0.597   0.530   8.877  0.0837 -0.8394  0.8567
 1806WAT     H2 9030   0.561   0.640   8.975  0.3734  1.6222 -1.6721
 1806WAT    EPW 9031   0.609   0.570   8.954  0.1576  0.9193 -0.0319
 1807WAT      O 9032  -2.310   5.098   3.742  0.0122  0.1090  0.6974
 1807WAT     H1 9033  -2.294   5.107   3.836  2.0680  2.4585  0.2387
 1807WAT     H2 9034  -2.307   5.003   3.726  0.3485 -0.3009  2.8789
 1807WAT    EPW 9035  -2.307   5.087   3.752  0.3277  0.3650  0.9246
 1808WAT      O 9036   4.925   0.870   5.428  0.4804 -0.0497 -0.0177
 1808WAT     H1 9037   4.966   0.784   5.419 -0.9998 -0.6366 -1.5062
 1808WAT     H2 9038   4.858   0.857   5.496  0.6517  0.0974  0.1817
 1808WAT    EPW 9039   4.922   0.857   5.436  0.3076 -0.1077 -0.1879
 1809WAT      O 9040   2.406   0.491   4.625 -0.1466  0.1384 -0.3299
 1809WAT     H1 9041   2.444   0.404   4.636  1.2680  0.6962 -0.6053
 1809WAT     H2 9042   2.338   0.496   4.693 -0.9517 -1.5302 -0.9593
 1809WAT    EPW 9043   2.402   0.480   4.635 -0.0663 -0.0081 -0.4494
 1810WAT      O 9044   0.426   5.719   1.297 -0.4760 -0.2491 -0.2391
 1810WAT     H1 9045   0.338   5.749   1.274 -1.6798 -1.8087  1.9154
 1810WAT     H2 9046   0.450   5.771   1.374 -0.4072 -1.2040  0.4027
 1810WAT    EPW 9047   0.418   5.730   1.304 -0.6257 -0.5808  0.1297
 1811WAT      O 9048  -4.598   9.882   6.909  0.4478  0.6214  0.0968
 1811WAT     H1 9049  -4.519   9.865   6.960 -0.5446 -3.7266  0.6180
 1811WAT     H2 9050  -4.663   9.910   6.974  0.4018 -0.3754  0.5008
 1811WAT    EPW 9051  -4.596   9.883   6.924  0.3107 -0.0839  0.2189
 1812WAT      O 9052   1.264   8.383   2.646  0.2376  0.0214 -0.6277
 1812WAT     H1 9053   1.182   8.338   2.664  0.8820  0.4322  4.8799
 1812WAT     H2 9054   1.238   8.470   2.615 -1.5512  0.2859  1.3941
 1812WAT    EPW 9055   1.250   8.388   2.644  0.0867  0.1101  0.3654
 1813WAT      O 9056   2.940   7.765   3.947 -0.0689  0.0524 -0.5779
 1813WAT     H1 9057   2.898   7.731   3.869  0.2724 -0.0482 -0.7202
 1813WAT     H2 9058   3.032   7.742   3.937  0.5434  2.6308 -1.5920
 1813WAT    EPW 9059   2.947   7.758   3.936  0.0569  0.3791 -0.7304
 1814WAT      O 9060   2.603  10.269   0.730 -0.0172 -0.6127 -0.0307
 1814WAT     H1 9061   2.569  10.181   0.717 -0.6426 -0.1327 -2.0162
 1814WAT     H2 9062   2.544  10.309   0.794 -1.3486 -0.8090 -1.1001
 1814WAT    EPW 9063   2.591  10.263   0.736 -0.2751 -0.5755 -0.4337
 1815WAT      O 9064   4.888   0.411   6.434 -0.3602 -0.6264 -0.0736
 1815WAT     H1 9065   4.891   0.338   6.372 -1.1575 -0.5504 -0.2103
 1815WAT     H2 9066   4.845   0.481   6.385 -0.8063 -0.4989  0.4951
 1815WAT    EPW 9067   4.883   0.411   6.419 -0.5243 -0.5995 -0.0167
 1816WAT      O 9068  -2.019   4.830   1.101  0.0445  0.1677 -0.0965
 1816WAT     H1 9069  -1.926   4.831   1.123  0.4685  0.5891 -1.7758
 1816WAT     H2 9070  -2.051   4.748   1.139  0.9687  0.2535  0.9258
 1816WAT    EPW 9071  -2.011   4.819   1.109  0.2224  0.2346 -0.1832
 1817WAT      O 9072  -2.807   5.793   4.186 -0.5007 -0.5120 -0.1430
 1817WAT     H1 9073  -2.749   5.817   4.258 -0.4387  0.8182 -0.6150
 1817WAT     H2 9074  -2.757   5.727   4.137  0.5292  0.4550 -0.4221
 1817WAT    EPW 9075  -2.793   5.787   4.189 -0.3567 -0.2089 -0.2422
 1818WAT      O 9076   1.602   0.750   2.588 -0.3772  0.3161 -0.4742
 1818WAT     H1 9077   1.631   0.818   2.648 -0.2446 -0.8302  0.8151
 1818WAT     H2 9078   1.524   0.786   2.545 -0.4496  1.1718  0.3538
 1818WAT    EPW 9079   1.596   0.764   2.590 -0.3693  0.2778 -0.1949
 1819WAT      O 9080  -4.956   3.341   7.621 -0.3062 -0.5505  0.0474
 1819WAT     H1 9081  -5.049   3.342   7.599 -0.4553  1.3966  0.5890
 1819WAT     H2 9082  -4.951   3.382   7.707  1.2967  2.1885 -1.2299
 1819WAT    EPW 9083  -4.967   3.346   7.629 -0.1144  0.0675 -0.0496
 1820WAT      O 9084   3.710   0.865   1.892  0.6087 -0.4289  0.5713
 1820WAT     H1 9085   3.725   0.877   1.985  1.6939 -0.9559  0.4837
 1820WAT     H2 9086   3.700   0.953   1.857  0.7513 -0.2015  1.0992
 1820WAT    EPW 9087   3.711   0.878   1.899  0.7707 -0.4684  0.6294
 1821WAT      O 9088  -3.959   1.702   8.109 -0.0889 -0.5365  0.0876
 1821WAT     H1 9089  -3.869   1.731   8.094 -0.0234 -1.3769 -1.2880
 1821WAT     H2 9090  -4.005   1.724   8.029 -0.5170 -2.3228 -0.1988
 1821WAT    EPW 9091  -3.953   1.709   8.097 -0.1367 -0.8829 -0.1316
 1822WAT      O 9092   1.026   8.113   8.818  0.5602  0.1358  0.3118
 1822WAT     H1 9093   0.978   8.193   8.841  2.0052  1.2953 -0.5376
 1822WAT     H2 9094   1.118   8.137   8.827  1.0891 -0.7515 -2.0759
 1822WAT    EPW 9095   1.031   8.127   8.822  0.8206  0.1717 -0.1154
 1823WAT      O 9096  -0.531   4.990   8.340  0.4738  0.2616  0.7075
 1823WAT     H1 9097  -0.495   4.941   8.266 -0.3919 -1.2438  1.2417
 1823WAT     H2 9098  -0.622   4.960   8.347  1.0293 -1.1168  3.5485
 1823WAT    EPW 9099  -0.539   4.979   8.331  0.4329 -0.1187  1.1530
 1824WAT      O 9100   0.931  10.250   5.235  0.0498  0.4999 -0.9510
 1824WAT     H1 9101   0.839  10.274   5.224 -0.9558 -2.4116  0.1400
 1824WAT     H2 9102   0.931  10.154   5.232  2.3634  0.1341  3.1034
 1824WAT    EPW 9103   0.918  10.240   5.234  0.2224  0.0682 -0.2723
 1825WAT      O 9104  -0.418   0.851   5.255 -0.0562  0.3556  0.0675
 1825WAT     H1 9105  -0.449   0.770   5.215  0.5219  0.0458  0.2261
 1825WAT     H2 9106  -0.497   0.895   5.286 -0.4341  0.1855 -0.6339
 1825WAT    EPW 9107  -0.432   0.846   5.254 -0.0298  0.2923 -0.0043
 1826WAT      O 9108   2.146  10.213   8.245 -0.6139  0.1714  0.2630
 1826WAT     H1 9109   2.075  10.278   8.239 -0.4089  0.3716  0.0047
 1826WAT     H2 9110   2.224  10.261   8.216 -0.3756 -0.0526  0.5344
 1826WAT    EPW 9111   2.147  10.228   8.241 -0.5555  0.1683  0.2646
 1827WAT      O 9112   6.424   1.357   1.317 -0.1480 -0.7882 -0.9287
 1827WAT     H1 9113   6.425   1.277   1.369  0.4502 -0.0726  0.2128
 1827WAT     H2 9114   6.349   1.407   1.349  1.4218  0.6047  0.8412
 1827WAT    EPW 9115   6.415   1.353   1.328  0.1380 -0.5101 -0.5447
 1828WAT      O 9116  -2.888   1.372   8.876  0.0074 -0.4145 -0.1246
 1828WAT     H1 9117  -2.819   1.403   8.934  1.5068 -0.4834 -1.7645
 1828WAT     H2 9118  -2.943   1.316   8.931 -0.1260  1.4843  1.7868
 1828WAT    EPW 9119  -2.886   1.369   8.891  0.1875 -0.1732 -0.0887
 1829WAT      O 9120   4.889   7.921   3.880 -0.2039 -0.3760  0.3494
 1829WAT     H1 9121   4.975   7.927   3.839 -0.4703 -2.7799 -0.7746
 1829WAT     H2 9122   4.883   7.831   3.912 -1.1323  0.6019  3.3011
 1829WAT    EPW 9123   4.899   7.910   3.879 -0.3614 -0.5639  0.5906
 1830WAT      O 9124   1.968   5.173   1.417  0.0747  0.7346  0.3861
 1830WAT     H1 9125   2.008   5.113   1.354 -0.0691 -0.8962  1.7834
 1830WAT     H2 9126   1.882   5.136   1.435  0.1980  1.0185  1.6937
 1830WAT    EPW 9127   1.962   5.161   1.411  0.0720  0.5569  0.7429
 1831WAT      O 9128  -0.992   4.648   8.843 -0.5665 -0.0357  0.0199
 1831WAT     H1 9129  -0.911   4.680   8.804 -0.8006  2.5968  1.4912
 1831WAT     H2 9130  -0.963   4.585   8.909  0.1467 -0.3818 -0.6074
 1831WAT    EPW 9131  -0.978   4.644   8.847 -0.5033  0.2658  0.1311
 1832WAT      O 9132   1.819   5.959   2.056 -0.6938 -0.0378 -0.3236
 1832WAT     H1 9133   1.877   6.016   2.006 -1.2632 -0.3605 -1.3803
 1832WAT     H2 9134   1.731   5.989   2.035 -0.9346  0.5087  1.3422
 1832WAT    EPW 9135   1.815   5.970   2.047 -0.8007 -0.0083 -0.2432
 1833WAT      O 9136  -0.219   4.010   7.896 -0.9746  0.1155  0.5223
 1833WAT     H1 9137  -0.284   3.983   7.831 -1.6484 -0.4939  1.4311
 1833WAT     H2 9138  -0.240   3.958   7.974  1.9135 -1.7412  0.2116
 1833WAT    EPW 9139  -0.230   3.999   7.898 -0.6825 -0.2099  0.6011
 1834WAT      O 9140   2.412   9.825   6.682  0.1969 -0.1560  0.2449
 1834WAT     H1 9141   2.339   9.885   6.666  0.4648 -0.2933 -1.7971
 1834WAT     H2 9142   2.471   9.873   6.741 -0.0007  1.2713 -0.6656
 1834WAT    EPW 9143   2.410   9.839   6.687  0.2062  0.0143 -0.1445
 1835WAT      O 9144   2.809  10.019   5.114  0.7592  0.1839 -0.3580
 1835WAT     H1 9145   2.865  10.028   5.036  0.5793  0.2189 -0.4841
 1835WAT     H2 9146   2.785   9.926   5.115  3.6328 -0.6629  1.6468
 1835WAT    EPW 9147   2.813  10.008   5.104  1.1144  0.0763 -0.1101
 1836WAT      O 9148  -3.023   6.569   8.283  0.4412  0.2763  0.4100
 1836WAT     H1 9149  -2.958   6.504   8.312  0.8459 -0.0665 -1.1994
 1836WAT     H2 9150  -3.085   6.518   8.231  0.6144  1.1296 -0.6563
 1836WAT    EPW 9151  -3.023   6.553   8.280  0.5174  0.3436  0.0572
 1837WAT      O 9152  -4.000   5.290   7.718  0.2566 -0.2665  0.0436
 1837WAT     H1 9153  -4.054   5.212   7.711  0.1140 -0.0498 -1.7542
 1837WAT     H2 9154  -4.063   5.362   7.724  0.3189 -0.0902 -1.1268
 1837WAT    EPW 9155  -4.016   5.289   7.718  0.2460 -0.2148 -0.3479
 1838WAT      O 9156  -5.423   9.160   7.094  0.3615 -0.6023  0.1554
 1838WAT     H1 9157  -5.448   9.114   7.174  1.2060  0.7624  1.2427
 1838WAT     H2 9158  -5.357   9.103   7.053 -0.5327 -1.6032  0.0814
 1838WAT    EPW 9159  -5.418   9.146   7.099  0.3550 -0.5541  0.2892
 1839WAT      O 9160   3.200   8.322   7.435  0.9932  0.4841 -0.4971
 1839WAT     H1 9161   3.148   8.272   7.372 -0.1811 -0.6069  1.2428
 1839WAT     H2 9162   3.275   8.265   7.454  1.6833  1.0893 -1.3571
 1839WAT    EPW 9163   3.203   8.308   7.429  0.9294  0.4201 -0.3812
 1840WAT      O 9164   3.458   0.026   3.610  0.1441 -0.6576 -0.4114
 1840WAT     H1 9165   3.427   0.021   3.700 -1.4937  0.0049 -0.8977
 1840WAT     H2 9166   3.426  -0.055   3.569 -0.3980 -0.2693 -0.7616
 1840WAT    EPW 9167   3.450   0.015   3.616 -0.1434 -0.5188 -0.5218
 1841WAT      O 9168  -2.817   0.707   8.007 -0.3434  0.2825  0.1408
 1841WAT     H1 9169  -2.725   0.686   7.989 -0.3857  0.3730 -0.1953
 1841WAT     H2 9170  -2.813   0.777   8.072 -0.1932 -0.3648  0.8497
 1841WAT    EPW 9171  -2.804   0.713   8.013 -0.3293  0.2091  0.1903
 1842WAT      O 9172   2.852   3.875   8.321  0.0124 -0.2426 -0.7174
 1842WAT     H1 9173   2.801   3.955   8.309 -2.4122 -1.8604 -2.1262
 1842WAT     H2 9174   2.845   3.855   8.414 -3.6300 -1.3131 -1.0645
 1842WAT    EPW 9175   2.844   3.883   8.331 -0.7877 -0.5972 -0.9489
 1843WAT      O 9176   2.023   1.164   5.367 -0.2219 -0.4443 -0.0808
 1843WAT     H1 9177   1.956   1.136   5.430 -0.9920 -1.8601 -1.4753
 1843WAT     H2 9178   2.024   1.259   5.375 -2.6112 -0.3490 -0.1897
 1843WAT    EPW 9179   2.014   1.173   5.376 -0.6386 -0.6184 -0.2789
 1844WAT      O 9180  -1.658   5.474   6.333  0.0698  0.6323 -0.2228
 1844WAT     H1 9181  -1.731   5.494   6.275  0.2840  1.8697 -0.0899
 1844WAT     H2 9182  -1.686   5.397   6.382 -1.1803  1.1534 -0.1023
 1844WAT    EPW 9183  -1.671   5.467   6.331 -0.0668  0.8640 -0.1893
 1845WAT      O 9184   5.015   2.170   5.179  0.3299 -0.0534 -0.1775
 1845WAT     H1 9185   5.019   2.256   5.220  0.5113 -0.1095 -0.0768
 1845WAT     H2 9186   4.944   2.125   5.225  0.4485 -0.0717 -0.0120
 1845WAT    EPW 9187   5.006   2.176   5.190  0.3693 -0.0633 -0.1423
 1846WAT      O 9188  -1.215   3.663   4.489 -0.4545  0.0702  0.6094
 1846WAT     H1 9189  -1.236   3.579   4.531 -0.3877 -0.1414  0.2204
 1846WAT     H2 9190  -1.126   3.652   4.457 -0.8215 -0.0938 -0.3867
 1846WAT    EPW 9191  -1.206   3.650   4.490 -0.4941  0.0207  0.4268
 1847WAT      O 9192  -3.388   5.912   3.485  0.1221 -0.1405 -0.4526
 1847WAT     H1 9193  -3.329   5.986   3.498 -0.2498  0.3698 -1.5176
 1847WAT     H2 9194  -3.391   5.900   3.390 -4.9142  2.8326 -1.0783
 1847WAT    EPW 9195  -3.381   5.920   3.474 -0.5912  0.3190 -0.6756
 1848WAT      O 9196   5.364   8.433   2.695 -1.3012  0.2071  0.4068
 1848WAT     H1 9197   5.353   8.419   2.789 -1.0362  0.2164  0.4398
 1848WAT     H2 9198   5.443   8.487   2.687 -2.3752  1.8114  0.2816
 1848WAT    EPW 9199   5.373   8.438   2.706 -1.4079  0.4201  0.3946
 1849WAT      O 9200  -0.916   0.444   4.526  0.1842 -0.0444 -0.3475
 1849WAT     H1 9201  -0.995   0.407   4.486 -1.6406  1.1696  1.8947
 1849WAT     H2 9202  -0.879   0.372   4.577 -0.5292 -0.1640  0.0214
 1849WAT    EPW 9203  -0.922   0.430   4.527 -0.1506  0.0999 -0.0031
 1850WAT      O 9204  -0.299   8.523   6.918 -0.1307  0.1277 -0.9946
 1850WAT     H1 9205  -0.311   8.616   6.936  1.9166  0.5806 -1.6507
 1850WAT     H2 9206  -0.383   8.483   6.940 -0.6026  1.8969  0.7729
 1850WAT    EPW 9207  -0.312   8.530   6.923  0.0771  0.4206 -0.8483
 1851WAT      O 9208   6.092   5.907   4.406 -0.3003  0.2982  0.5783
 1851WAT     H1 9209   6.164   5.968   4.391  0.1470 -0.4713 -0.6314
 1851WAT     H2 9210   6.089   5.895   4.501 -0.2451  1.9869  0.8136
 1851WAT    EPW 9211   6.101   5.913   4.416 -0.2341  0.4194  0.4499
 1852WAT      O 9212   2.783   7.769   3.681  0.4616 -0.0453  0.5867
 1852WAT     H1 9213   2.807   7.730   3.597 -0.4921 -0.6929  0.5971
 1852WAT     H2 9214   2.714   7.712   3.715 -0.3402  1.1377  1.0308
 1852WAT    EPW 9215   2.777   7.756   3.675  0.2301  0.0253  0.6466
 1853WAT      O 9216   1.027   5.839   5.676 -0.7226  0.6121 -0.3679
 1853WAT     H1 9217   1.065   5.771   5.620  1.2542  0.7518  0.7098
 1853WAT     H2 9218   1.078   5.917   5.655 -0.0896  0.7135  1.4221
 1853WAT    EPW 9219   1.039   5.840   5.666 -0.3784  0.6440  0.0105
 1854WAT      O 9220   3.390   6.035   5.394  0.0094  0.6632  0.2891
 1854WAT     H1 9221   3.343   6.055   5.313  0.0816 -0.0197  0.0699
 1854WAT     H2 9222   3.462   6.098   5.396  0.4063  0.2596 -0.5316
 1854WAT    EPW 9223   3.393   6.046   5.384  0.0713  0.5198  0.1516
 1855WAT      O 9224  -2.184   3.529   2.510  0.0284 -0.1093 -0.1941
 1855WAT     H1 9225  -2.097   3.515   2.546 -0.1884  0.3949  0.5370
 1855WAT     H2 9226  -2.204   3.447   2.464 -0.0925 -1.2061  1.6848
 1855WAT    EPW 9227  -2.175   3.516   2.508 -0.0161 -0.1875  0.1501
 1856WAT      O 9228   0.730   5.088   4.115  0.2688 -1.3505  0.4340
 1856WAT     H1 9229   0.790   5.162   4.120  1.1004 -2.0418  1.3460
 1856WAT     H2 9230   0.716   5.063   4.207 -1.5039 -1.1564  0.2531
 1856WAT    EPW 9231   0.736   5.094   4.128  0.1447 -1.4160  0.5302
 1857WAT      O 9232   0.205   3.395   8.954 -0.3936 -0.7182  0.6675
 1857WAT     H1 9233   0.160   3.393   8.870 -2.6380 -0.3144  1.7704
 1857WAT     H2 9234   0.294   3.423   8.934 -1.6796  2.4641 -1.2647
 1857WAT    EPW 9235   0.210   3.398   8.941 -0.8592 -0.2452  0.5584
 1858WAT      O 9236   4.924   0.692   1.658 -0.3587  0.1832  0.2204
 1858WAT     H1 9237   4.937   0.652   1.744  0.4190 -1.1260 -0.4899
 1858WAT     H2 9238   4.829   0.691   1.646 -0.6520  2.0427  1.7988
 1858WAT    EPW 9239   4.913   0.687   1.668 -0.2949  0.2558  0.3349
 1859WAT      O 9240   2.262   8.869   7.061  0.4094  0.2283  0.0421
 1859WAT     H1 9241   2.179   8.825   7.042  0.4959 -0.2733  0.7754
 1859WAT     H2 9242   2.314   8.803   7.107  2.0032 -0.1752 -2.1634
 1859WAT    EPW 9243   2.258   8.854   7.064  0.6310  0.1092 -0.1521
 1860WAT      O 9244  -0.520   3.485   3.506 -0.6630 -0.2198 -0.5768
 1860WAT     H1 9245  -0.572   3.564   3.520 -1.1882  0.1731 -3.8759
 1860WAT     H2 9246  -0.553   3.422   3.571 -2.2058  1.3726  0.2574
 1860WAT    EPW 9247  -0.531   3.487   3.516 -0.9357  0.0421 -0.9019
 1861WAT      O 9248   5.346   6.868   0.348  0.0190  0.0063 -0.2311
 1861WAT     H1 9249   5.357   6.948   0.399  0.1228  0.6606 -1.2495
 1861WAT     H2 9250   5.381   6.798   0.404 -0.9937  0.5117  1.0880
 1861WAT    EPW 9251   5.352   6.869   0.362 -0.1009  0.1595 -0.1914
 1862WAT      O 9252   4.220   6.831   5.585 -0.3007 -0.2976 -0.3903
 1862WAT     H1 9253   4.299   6.782   5.608 -0.7394 -0.0714  1.7488
 1862WAT     H2 9254   4.207   6.891   5.658 -1.9732  0.2766 -1.1217
 1862WAT    EPW 9255   4.229   6.832   5.597 -0.5791 -0.1922 -0.2046
 1863WAT      O 9256   3.835   6.345   3.031  0.1967 -0.5504 -0.5309
 1863WAT     H1 9257   3.741   6.345   3.046  0.1859 -0.3850 -0.5932
 1863WAT     H2 9258   3.873   6.347   3.119  0.1266  1.3154 -0.5046
 1863WAT    EPW 9259   3.828   6.345   3.045  0.1861 -0.2825 -0.5356
 1864WAT      O 9260  -4.262   3.231   6.266 -0.5620  0.1222  0.0546
 1864WAT     H1 9261  -4.278   3.323   6.245  0.5599  0.9582  2.4085
 1864WAT     H2 9262  -4.283   3.224   6.359 -1.6925 -2.3239 -0.2963
 1864WAT    EPW 9263  -4.267   3.242   6.276 -0.5631 -0.0902  0.3188
 1865WAT      O 9264  -6.074   7.958   5.790  0.1855  0.4120  0.2214
 1865WAT     H1 9265  -6.044   7.920   5.872 -1.3893 -2.0689 -0.2312
 1865WAT     H2 9266  -6.140   8.022   5.815 -0.5380 -0.5736  0.9496
 1865WAT    EPW 9267  -6.079   7.961   5.804 -0.1175 -0.0453  0.2577
 1866WAT      O 9268   7.547   6.453   0.068 -0.3759  0.8892  0.3690
 1866WAT     H1 9269   7.569   6.379   0.011 -1.1841  0.4188  0.6550
 1866WAT     H2 9270   7.494   6.415   0.138 -0.5988  1.7024  0.6552
 1866WAT    EPW 9271   7.543   6.438   0.070 -0.5119  0.9344  0.4445
 1867WAT      O 9272  -2.493  10.214   1.333  0.0270  0.5991 -0.4484
 1867WAT     H1 9273  -2.452  10.300   1.343 -0.5463  0.8589 -0.2621
 1867WAT     H2 9274  -2.512  10.207   1.240  1.6555 -0.0816 -0.7661
 1867WAT    EPW 9275  -2.490  10.225   1.322  0.1662  0.5436 -0.4658
 1868WAT      O 9276  -0.820   5.149   3.094  0.2339  0.1993  0.0048
 1868WAT     H1 9277  -0.793   5.104   3.015 -0.9159 -0.7221  0.1109
 1868WAT     H2 9278  -0.909   5.179   3.076  0.0002  0.0824  0.8918
 1868WAT    EPW 9279  -0.828   5.147   3.081  0.0514  0.0625  0.1358
 1869WAT      O 9280   3.040   7.073   6.841  0.1345  0.1019 -0.4687
 1869WAT     H1 9281   3.050   7.020   6.920  1.8570 -0.4034 -0.9844
 1869WAT     H2 9282   3.009   7.158   6.872  0.2026 -0.2797  0.6747
 1869WAT    EPW 9283   3.037   7.077   6.855  0.3706 -0.0150 -0.3860
 1870WAT      O 9284   2.217   2.405   1.132  0.1066 -0.4419 -0.7851
 1870WAT     H1 9285   2.276   2.442   1.197 -0.1273  0.0995 -0.8744
 1870WAT     H2 9286   2.266   2.409   1.050 -0.4775  1.1450 -1.0930
 1870WAT    EPW 9287   2.231   2.410   1.130 -0.0013 -0.1611 -0.8374
 1871WAT      O 9288  -1.961   1.415   6.591  0.8168  0.3720  0.1397
 1871WAT     H1 9289  -1.970   1.352   6.519  1.2207  0.6965 -0.2003
 1871WAT     H2 9290  -1.868   1.437   6.592  0.4918  1.9022 -0.5693
 1871WAT    EPW 9291  -1.950   1.410   6.581  0.8272  0.6167  0.0014
 1872WAT      O 9292   3.731   9.320   4.696  0.0070  0.3037 -0.7088
 1872WAT     H1 9293   3.807   9.340   4.750  1.4006 -0.2067 -2.3939
 1872WAT     H2 9294   3.691   9.405   4.678 -2.1771  0.3366  3.2923
 1872WAT    EPW 9295   3.735   9.334   4.701 -0.0973  0.2408 -0.4034
 1873WAT      O 9296   3.001   8.156   4.642 -0.1758  0.0548  0.1546
 1873WAT     H1 9297   3.037   8.215   4.709  0.7570  0.0466 -0.3232
 1873WAT     H2 9298   2.909   8.149   4.664  0.1026  0.0793  1.4257
 1873WAT    EPW 9299   2.994   8.163   4.654 -0.0160  0.0567  0.2592
 1874WAT      O 9300  -2.224   8.202   5.648 -0.0517  0.4086  0.0626
 1874WAT     H1 9301  -2.240   8.146   5.724 -0.7490  2.5391  1.5879
 1874WAT     H2 9302  -2.275   8.162   5.577  2.4899 -2.9903 -0.0762
 1874WAT    EPW 9303  -2.233   8.189   5.648  0.1916  0.2413  0.2456
 1875WAT      O 9304   1.063   8.563   8.110 -1.1235 -0.5667 -0.2728
 1875WAT     H1 9305   1.065   8.470   8.087 -0.1024 -0.8353  0.8149
 1875WAT     H2 9306   1.137   8.575   8.169 -2.4701  0.4905  1.3112
 1875WAT    EPW 9307   1.073   8.553   8.115 -1.1663 -0.4625  0.0796
 1876WAT      O 9308   3.925  10.328   0.455 -0.3365  0.1833 -0.3522
 1876WAT     H1 9309   3.852  10.323   0.517  0.7058  2.5427  1.1962
 1876WAT     H2 9310   3.929  10.420   0.430  0.5463 -0.3579 -2.4489
 1876WAT    EPW 9311   3.916  10.340   0.460 -0.0827  0.4230 -0.4245
 1877WAT      O 9312   0.930   8.181   3.239  0.5528  0.0793  1.2697
 1877WAT     H1 9313   0.974   8.097   3.228  2.2025  0.8295  1.8462
 1877WAT     H2 9314   0.895   8.202   3.152 -0.6721 -1.5913  1.3230
 1877WAT    EPW 9315   0.931   8.173   3.226  0.6088 -0.0420  1.3528
 1878WAT      O 9316  -0.426   4.530   6.570  0.1077 -0.1613 -0.1670
 1878WAT     H1 9317  -0.459   4.462   6.511  0.2568  0.4623 -0.9770
 1878WAT     H2 9318  -0.381   4.592   6.513  0.4073  0.3649  0.6242
 1878WAT    EPW 9319  -0.424   4.529   6.555  0.1669 -0.0095 -0.1695
 1879WAT      O 9320   5.857   8.544   2.213 -0.0565  0.4985 -0.7156
 1879WAT     H1 9321   5.827   8.614   2.154 -1.2952 -0.5941 -1.4430
 1879WAT     H2 9322   5.814   8.564   2.297  0.5175  1.2297 -0.5830
 1879WAT    EPW 9323   5.847   8.556   2.216 -0.1440  0.4511 -0.7941
 1880WAT      O 9324   2.215   7.335   6.776 -0.7728 -0.0337  0.2645
 1880WAT     H1 9325   2.189   7.288   6.856 -1.5029  2.7035  1.7569
 1880WAT     H2 9326   2.155   7.303   6.709 -0.0873 -2.4742  0.7309
 1880WAT    EPW 9327   2.204   7.325   6.778 -0.7787  0.0052  0.5229
 1881WAT      O 9328   2.496   2.538   6.925  0.0093  0.2589  0.0891
 1881WAT     H1 9329   2.487   2.450   6.963  2.4207  1.0520  2.8726
 1881WAT     H2 9330   2.519   2.523   6.834 -1.1502 -1.9382  0.0891
 1881WAT    EPW 9331   2.498   2.525   6.918  0.1744  0.0738  0.4563
 1882WAT      O 9332   1.810   7.725   8.008  0.0141  0.4334 -0.0368
 1882WAT     H1 9333   1.870   7.717   8.082 -0.6468 -0.4644  0.4244
 1882WAT     H2 9334   1.736   7.775   8.043 -1.6380 -2.4155  0.8280
 1882WAT    EPW 9335   1.808   7.731   8.023 -0.2910 -0.0608  0.1378
 1883WAT      O 9336  -0.738   3.489   7.494 -0.5953 -0.0968 -0.1734
 1883WAT     H1 9337  -0.829   3.481   7.523 -1.1153  0.6927 -1.4903
 1883WAT     H2 9338  -0.721   3.583   7.495 -0.2365 -0.1362 -1.1902
 1883WAT    EPW 9339  -0.748   3.500   7.498 -0.6165  0.0021 -0.4814
 1884WAT      O 9340  -0.999  10.089   2.365 -0.1802  0.0367  0.2259
 1884WAT     H1 9341  -1.032  10.068   2.278  0.5750 -2.6272  0.5201
 1884WAT     H2 9342  -0.996  10.006   2.411  0.1406  1.2654  2.5885
 1884WAT    EPW 9343  -1.003  10.075   2.359 -0.0383 -0.1526  0.5763
 1885WAT      O 9344   0.072   7.622   8.605 -0.1817  0.4792  0.1470
 1885WAT     H1 9345   0.086   7.656   8.516  0.4019 -1.2153 -0.4472
 1885WAT     H2 9346   0.034   7.696   8.653  2.2728  2.4129 -0.6850
 1885WAT    EPW 9347   0.069   7.637   8.599  0.2190  0.5107 -0.0415
 1886WAT      O 9348  -1.172   0.963   7.673 -0.0463 -0.6900 -0.2115
 1886WAT     H1 9349  -1.134   1.047   7.699  2.1483 -0.8148 -2.4996
 1886WAT     H2 9350  -1.241   0.986   7.611  1.8701 -0.4441 -2.4195
 1886WAT    EPW 9351  -1.176   0.977   7.668  0.4959 -0.6740 -0.8044
 1887WAT      O 9352  -6.270   8.228   8.932  0.3104 -0.1105  0.6905
 1887WAT     H1 9353  -6.195   8.256   8.880 -1.3955  0.3414 -1.6688
 1887WAT     H2 9354  -6.243   8.143   8.968  1.4020 -0.7335 -1.4308
 1887WAT    EPW 9355  -6.257   8.220   8.930  0.2294 -0.1330  0.0992
 1888WAT      O 9356   4.294   8.851   2.650  0.4014 -0.4826 -0.6576
 1888WAT     H1 9357   4.386   8.826   2.655  0.9258  1.1062 -1.4764
 1888WAT     H2 9358   4.296   8.944   2.628 -1.4137 -0.4200 -0.7244
 1888WAT    EPW 9359   4.307   8.860   2.648  0.2313 -0.2651 -0.7744
 1889WAT      O 9360   3.760   7.235   4.661  0.8431 -0.0120 -0.3497
 1889WAT     H1 9361   3.852   7.222   4.638  0.4966 -2.5207 -0.6290
 1889WAT     H2 9362   3.741   7.167   4.725 -1.3456 -1.0383 -1.9534
 1889WAT    EPW 9363   3.770   7.225   4.666  0.5088 -0.4785 -0.5980
 1890WAT      O 9364  -0.512   2.367   0.298  0.2867  0.4954 -0.2175
 1890WAT     H1 9365  -0.533   2.450   0.340  0.8975  1.3215 -1.4443
 1890WAT     H2 9366  -0.448   2.326   0.356  0.0176  0.9078  0.3789
 1890WAT    EPW 9367  -0.506   2.373   0.311  0.3318  0.6588 -0.3006
 1891WAT      O 9368   2.605   2.560   4.615  0.5589 -0.5599  0.2410
 1891WAT     H1 9369   2.528   2.535   4.564 -0.1327  0.3748  0.7926
 1891WAT     H2 9370   2.617   2.653   4.595 -1.3276  0.6150  3.6543
 1891WAT    EPW 9371   2.596   2.569   4.605  0.2189 -0.2816  0.7641
 1892WAT      O 9372  -0.916   2.916   0.203  0.6137 -0.4440  0.2848
 1892WAT     H1 9373  -1.007   2.945   0.198  0.8171  0.3233  0.8033
 1892WAT     H2 9374  -0.888   2.906   0.112  0.7224  1.6487  0.0268
 1892WAT    EPW 9375  -0.924   2.919   0.191  0.6548 -0.0668  0.3191
 1893WAT      O 9376  -3.263   2.501   6.494 -0.9357  0.2462  0.2727
 1893WAT     H1 9377  -3.248   2.542   6.579 -1.6033  1.8962 -0.3657
 1893WAT     H2 9378  -3.177   2.499   6.453  0.1392 -3.7182  2.2044
 1893WAT    EPW 9379  -3.250   2.506   6.500 -0.8819 -0.0590  0.4435
 1894WAT      O 9380  -1.045   9.115   5.528  0.2179 -0.3647  0.0638
 1894WAT     H1 9381  -1.035   9.036   5.581 -2.9933 -1.3945 -0.6569
 1894WAT     H2 9382  -1.030   9.085   5.438  0.7777  0.2725 -0.0623
 1894WAT    EPW 9383  -1.042   9.100   5.523 -0.1318 -0.4163 -0.0477
 1895WAT      O 9384  -4.688  10.020   4.326 -0.4442  0.2422  0.5898
 1895WAT     H1 9385  -4.748  10.057   4.262 -1.3448 -1.5987  0.3001
 1895WAT     H2 9386  -4.743   9.992   4.399  0.3677  0.7394  1.4254
 1895WAT    EPW 9387  -4.703  10.021   4.327 -0.4559  0.0648  0.6618
 1896WAT      O 9388   3.480   7.502   1.539  0.8592  0.4518  0.3611
 1896WAT     H1 9389   3.529   7.524   1.460  2.1587 -2.3167  0.2713
 1896WAT     H2 9390   3.535   7.534   1.611  0.7917  0.9610  0.1876
 1896WAT    EPW 9391   3.494   7.509   1.538  1.0216  0.1540  0.3263
 1897WAT      O 9392   3.453  10.118   4.403 -0.6481  0.0339  0.7138
 1897WAT     H1 9393   3.426  10.033   4.436  0.7425  0.0041  1.8438
 1897WAT     H2 9394   3.503  10.157   4.474 -0.4281  1.3950 -0.1451
 1897WAT    EPW 9395   3.456  10.112   4.417 -0.4356  0.2098  0.7493
 1898WAT      O 9396   3.554  10.253   0.167 -0.1547 -0.8224 -0.3482
 1898WAT     H1 9397   3.580  10.226   0.255 -2.4269 -1.5449  0.1805
 1898WAT     H2 9398   3.623  10.313   0.139  2.2377 -2.9349  0.6417
 1898WAT    EPW 9399   3.566  10.258   0.175 -0.1388 -1.1959 -0.1479
 1899WAT      O 9400  -6.191   8.897   5.911  0.5875  0.4374  0.0907
 1899WAT     H1 9401  -6.142   8.927   5.988  1.1468  1.5725 -0.6782
 1899WAT     H2 9402  -6.132   8.833   5.870  0.4428  0.1030  0.3935
 1899WAT    EPW 9403  -6.177   8.892   5.916  0.6421  0.5431  0.0291
 1900WAT      O 9404  -0.109   5.721   2.084  0.9833 -0.4302  0.4256
 1900WAT     H1 9405  -0.136   5.723   2.176 -1.4329 -0.1769 -0.2152
 1900WAT     H2 9406  -0.114   5.629   2.060 -1.6592 -0.1841 -0.2519
 1900WAT    EPW 9407  -0.113   5.709   2.093  0.3161 -0.3643  0.2518
 1901WAT      O 9408   5.085   8.994   1.283  0.9029 -0.5293  0.3179
 1901WAT     H1 9409   5.060   8.902   1.287  2.6724 -1.1908 -1.8071
 1901WAT     H2 9410   5.050   9.025   1.200 -0.1627  0.9356  1.2655
 1901WAT    EPW 9411   5.077   8.986   1.273  0.9956 -0.4230  0.1626
 1902WAT      O 9412  -2.062   7.655   8.210 -0.5061 -0.2749  0.4713
 1902WAT     H1 9413  -2.005   7.723   8.174 -3.8204  1.4118 -2.0542
 1902WAT     H2 9414  -2.104   7.616   8.134 -1.6248 -2.5228  2.1228
 1902WAT    EPW 9415  -2.060   7.659   8.196 -1.0908 -0.3490  0.3567
 1903WAT      O 9416   4.539   3.030   0.124 -0.3359 -0.0750  0.0316
 1903WAT     H1 9417   4.630   3.033   0.093  0.4046  0.4290  2.0875
 1903WAT     H2 9418   4.526   2.939   0.152 -0.0220  0.1307  0.8854
 1903WAT    EPW 9419   4.549   3.019   0.124 -0.1967  0.0187  0.4154
 1904WAT      O 9420   6.512   2.143   4.466 -0.0205 -0.0028  0.5850
 1904WAT     H1 9421   6.555   2.164   4.383  1.4479 -0.5404  1.1842
 1904WAT     H2 9422   6.494   2.229   4.505 -0.9321  0.2615 -0.3702
 1904WAT    EPW 9423   6.515   2.157   4.460  0.0527 -0.0389  0.5379
 1905WAT      O 9424  -1.751   6.795   8.212 -0.1145  0.3560  0.5140
 1905WAT     H1 9425  -1.801   6.808   8.132 -0.1849 -1.5290  0.2156
 1905WAT     H2 9426  -1.659   6.800   8.184 -0.1356  0.3335  0.4413
 1905WAT    EPW 9427  -1.745   6.797   8.198 -0.1265  0.1044  0.4649
 1906WAT      O 9428   5.156   6.645   5.024 -0.4137 -0.9085  0.0315
 1906WAT     H1 9429   5.249   6.667   5.027 -0.2206 -1.6618 -0.2170
 1906WAT     H2 9430   5.152   6.553   5.052 -1.1694 -0.6480  0.8257
 1906WAT    EPW 9431   5.168   6.635   5.028 -0.4878 -0.9737  0.1035
 1907WAT      O 9432   0.216   7.449   5.023  0.1165 -0.1729  0.3262
 1907WAT     H1 9433   0.265   7.516   5.070  0.4759 -0.1116 -0.1276
 1907WAT     H2 9434   0.198   7.381   5.088  0.3974  0.0206  0.6051
 1907WAT    EPW 9435   0.220   7.449   5.038  0.2010 -0.1392  0.3033
 1908WAT      O 9436   3.611   2.656   8.342 -0.2796 -0.5759  0.2875
 1908WAT     H1 9437   3.584   2.595   8.411  3.3546 -1.5005  1.1269
 1908WAT     H2 9438   3.650   2.730   8.390  1.2370 -0.6848 -0.7205
 1908WAT    EPW 9439   3.613   2.658   8.358  0.3998 -0.7123  0.2656
 1909WAT      O 9440  -2.304   8.684   1.567 -0.7279  0.5779 -0.4115
 1909WAT     H1 9441  -2.394   8.680   1.601 -0.5264  1.3632  0.2354
 1909WAT     H2 9442  -2.251   8.714   1.641  0.1168 -0.1060 -0.7199
 1909WAT    EPW 9443  -2.309   8.688   1.581 -0.5898  0.5913 -0.3669
 1910WAT      O 9444   5.831   0.629   3.270  0.1856 -0.0588  0.1481
 1910WAT     H1 9445   5.818   0.722   3.287 -0.6976  0.0661 -1.0790
 1910WAT     H2 9446   5.922   0.622   3.242 -0.0774  0.6526 -0.9704
 1910WAT    EPW 9447   5.841   0.640   3.268  0.0343  0.0515 -0.1613
 1911WAT      O 9448   5.086   2.115   6.751 -0.1772 -0.1407 -0.2860
 1911WAT     H1 9449   5.099   2.208   6.731 -0.7612  0.1177  0.4881
 1911WAT     H2 9450   5.174   2.078   6.757  0.0564  0.3814 -0.4874
 1911WAT    EPW 9451   5.099   2.122   6.749 -0.2236 -0.0378 -0.2105
 1912WAT      O 9452  -0.470   4.436   1.185 -0.4666  0.2070  0.2628
 1912WAT     H1 9453  -0.509   4.418   1.270 -1.6071 -1.5725 -0.5932
 1912WAT     H2 9454  -0.544   4.445   1.126  0.2240  3.1146 -0.3185
 1912WAT    EPW 9455  -0.485   4.435   1.189 -0.5259  0.3557  0.0733
 1913WAT      O 9456  -0.662   6.637   3.397  0.7559 -0.0335 -0.0057
 1913WAT     H1 9457  -0.636   6.592   3.317  1.2626  0.2472  0.0021
 1913WAT     H2 9458  -0.692   6.723   3.368  3.0160  0.9075  0.3027
 1913WAT    EPW 9459  -0.663   6.643   3.383  1.1208  0.1278  0.0360
 1914WAT      O 9460  -0.249   5.405   2.988 -0.2121 -0.4559 -0.1433
 1914WAT     H1 9461  -0.205   5.486   2.962  0.4375 -0.2645  1.4445
 1914WAT     H2 9462  -0.191   5.335   2.957 -0.8914 -0.3697 -1.7313
 1914WAT    EPW 9463  -0.236   5.406   2.980 -0.2160 -0.4191 -0.1434
 1915WAT      O 9464   0.389   4.830   6.449  0.0931 -0.3839 -0.1097
 1915WAT     H1 9465   0.484   4.817   6.447  0.4051  1.4658  0.4694
 1915WAT     H2 9466   0.378   4.924   6.434 -1.6485 -0.5647 -0.1144
 1915WAT    EPW 9467   0.400   4.841   6.447 -0.0955 -0.1636 -0.0341
 1916WAT      O 9468   1.955   5.081   3.252 -0.0802  0.4070  0.1938
 1916WAT     H1 9469   1.984   5.099   3.341  1.2198 -2.3727  0.4424
 1916WAT     H2 9470   1.878   5.025   3.263 -2.8731  3.7929 -0.5148
 1916WAT    EPW 9471   1.949   5.076   3.265 -0.2771  0.4869  0.1332
 1917WAT      O 9472  -2.002   3.556   4.528  0.4698 -0.0119 -0.4769
 1917WAT     H1 9473  -2.089   3.578   4.493  0.8840  1.3462 -0.7003
 1917WAT     H2 9474  -1.955   3.639   4.528  1.4723 -0.5661  0.5192
 1917WAT    EPW 9475  -2.008   3.570   4.523  0.6566  0.0941 -0.3753
 1918WAT      O 9476   1.540   2.177   6.301 -0.3473 -0.5668 -0.2078
 1918WAT     H1 9477   1.508   2.088   6.315  0.7545 -1.0043 -0.3984
 1918WAT     H2 9478   1.564   2.207   6.389  0.2275 -0.8351 -0.2687
 1918WAT    EPW 9479   1.539   2.169   6.315 -0.1261 -0.6599 -0.2408
 1919WAT      O 9480  -6.292   7.262   6.686 -0.2245  0.5356  0.4192
 1919WAT     H1 9481  -6.233   7.263   6.762  0.8060  2.9397 -0.3209
 1919WAT     H2 9482  -6.264   7.185   6.636  1.1768  0.6614  0.9476
 1919WAT    EPW 9483  -6.281   7.252   6.689  0.0963  0.8693  0.3912
 1920WAT      O 9484   1.529   4.390   1.378  0.9519 -0.0988 -0.9750
 1920WAT     H1 9485   1.531   4.345   1.294  1.2783  0.6070 -1.3558
 1920WAT     H2 9486   1.450   4.357   1.421  1.6184 -1.6847 -0.8669
 1920WAT    EPW 9487   1.519   4.379   1.373  1.0828 -0.2151 -1.0110
 1921WAT      O 9488   2.889   3.861   4.760  0.3331 -0.3360 -0.3080
 1921WAT     H1 9489   2.839   3.943   4.764  0.3579 -0.3792  1.6998
 1921WAT     H2 9490   2.846   3.804   4.823 -0.6180 -2.4716 -2.7321
 1921WAT    EPW 9491   2.877   3.864   4.769  0.2110 -0.6233 -0.3629
 1922WAT      O 9492   7.083   2.684   1.526 -0.7000  0.2829  0.0762
 1922WAT     H1 9493   7.038   2.721   1.602  0.5256 -2.6081  2.3921
 1922WAT     H2 9494   7.026   2.706   1.452 -4.4149 -0.6531  2.3717
 1922WAT    EPW 9495   7.070   2.692   1.526 -1.0283 -0.2217  0.6844
 1923WAT      O 9496  -0.614   4.781   5.690  0.2980 -0.1523  0.3926
 1923WAT     H1 9497  -0.680   4.746   5.750 -1.5629 -0.5655 -1.7507
 1923WAT     H2 9498  -0.574   4.853   5.739 -0.0369 -1.3856  2.6525
 1923WAT    EPW 9499  -0.617   4.786   5.705  0.0084 -0.3693  0.4079
 1924WAT      O 9500   6.431   2.103   1.398  0.2287  0.6028  0.2568
 1924WAT     H1 9501   6.386   2.146   1.471 -1.5246  2.4572 -1.7463
 1924WAT     H2 9502   6.428   2.010   1.418 -1.0576  0.9934  2.0726
 1924WAT    EPW 9503   6.425   2.097   1.410 -0.1721  0.8990  0.2320
 1925WAT      O 9504  -5.478   5.732   7.928  0.3163  0.3545 -0.3897
 1925WAT     H1 9505  -5.485   5.646   7.886  3.0370 -0.2124  0.1670
 1925WAT     H2 9506  -5.553   5.781   7.894 -0.1703 -1.5734 -2.3092
 1925WAT    EPW 9507  -5.489   5.727   7.918  0.6111  0.0255 -0.5693
 1926WAT      O 9508   0.859   3.214   6.851  0.5619  0.3393 -0.2971
 1926WAT     H1 9509   0.867   3.292   6.906  2.6651  0.7561 -1.1053
 1926WAT     H2 9510   0.939   3.213   6.798 -0.7895 -0.6973 -2.4909
 1926WAT    EPW 9511   0.870   3.224   6.851  0.6610  0.2576 -0.6928
 1927WAT      O 9512  -3.033   3.791   8.031  0.1422 -0.2519 -0.0785
 1927WAT     H1 9513  -2.938   3.783   8.017  0.2789 -2.9153  1.5677
 1927WAT     H2 9514  -3.072   3.741   7.960 -0.4653  4.2495 -3.3374
 1927WAT    EPW 9515  -3.025   3.783   8.020  0.0800 -0.0095 -0.2913
 1928WAT      O 9516  -5.549   7.893   4.909  0.4134 -0.4852  0.4104
 1928WAT     H1 9517  -5.520   7.806   4.937  1.3751 -0.8087 -1.3849
 1928WAT     H2 9518  -5.606   7.875   4.834  2.8802  0.4202 -1.8465
 1928WAT    EPW 9519  -5.553   7.879   4.902  0.8657 -0.4084 -0.1240
 1929WAT      O 9520   5.129   8.834   1.961 -0.3347  0.2495  1.1285
 1929WAT     H1 9521   5.206   8.879   1.927  1.0520 -1.9825  1.1323
 1929WAT     H2 9522   5.125   8.752   1.912 -3.9239  1.0672 -0.3309
 1929WAT    EPW 9523   5.138   8.829   1.950 -0.6254  0.0629  0.9364
 1930WAT      O 9524  -3.553  10.275   3.440  0.2244  0.1714  0.1966
 1930WAT     H1 9525  -3.613  10.276   3.366  0.3219 -0.2851  0.1066
 1930WAT     H2 9526  -3.466  10.268   3.400  0.3390  0.7751  0.3273
 1930WAT    EPW 9527  -3.549  10.274   3.425  0.2525  0.1907  0.2021
 1931WAT      O 9528  -1.646   2.499   1.982 -0.1798 -0.0103  0.2765
 1931WAT     H1 9529  -1.683   2.569   1.929  0.5741  1.5657  1.7408
 1931WAT     H2 9530  -1.565   2.536   2.018 -0.3289 -1.2250  1.9923
 1931WAT    EPW 9531  -1.640   2.513   1.980 -0.1001  0.0373  0.6959
 1932WAT      O 9532   4.407   4.764   0.130 -0.6577 -0.4193 -0.5647
 1932WAT     H1 9533   4.333   4.773   0.070 -1.1871  1.0086  0.2361
 1932WAT     H2 9534   4.469   4.832   0.103  0.4631 -1.6848 -1.3109
 1932WAT    EPW 9535   4.405   4.774   0.119 -0.5798 -0.3979 -0.5575
 1933WAT      O 9536   1.533   0.813   2.948 -0.1163  0.1395  0.5439
 1933WAT     H1 9537   1.450   0.778   2.916  1.1479 -1.0058 -1.7132
 1933WAT     H2 9538   1.549   0.767   3.031 -0.7681 -1.1380 -0.0223
 1933WAT    EPW 9539   1.524   0.802   2.955 -0.0356 -0.1800  0.1715
 1934WAT      O 9540   0.792   2.446   6.170 -0.4189  0.6775  0.3812
 1934WAT     H1 9541   0.706   2.455   6.211 -0.7900  2.7851 -0.7159
 1934WAT     H2 9542   0.776   2.461   6.077  1.0543  0.5268  0.0836
 1934WAT    EPW 9543   0.779   2.450   6.163 -0.2736  0.9357  0.1972
 1935WAT      O 9544   5.058   2.949   5.768 -0.5548  0.4762 -0.7570
 1935WAT     H1 9545   4.989   2.924   5.707 -0.8809 -2.9144  0.7793
 1935WAT     H2 9546   5.013   2.962   5.852  0.5265 -1.2506  0.1467
 1935WAT    EPW 9547   5.043   2.947   5.771 -0.4551 -0.1988 -0.4351
 1936WAT      O 9548   5.417   2.220   3.211  0.5494 -0.1841  0.4009
 1936WAT     H1 9549   5.352   2.150   3.208  0.1792 -0.1905  4.0331
 1936WAT     H2 9550   5.373   2.295   3.172 -2.0381 -0.0325  3.2750
 1936WAT    EPW 9551   5.403   2.221   3.205  0.1595 -0.1650  1.2590
 1937WAT      O 9552   6.188   3.355   4.421 -0.1452 -0.8817  0.2004
 1937WAT     H1 9553   6.208   3.437   4.467 -1.4886  0.0533 -0.7816
 1937WAT     H2 9554   6.105   3.373   4.375 -0.3791 -2.7384 -0.1920
 1937WAT    EPW 9555   6.179   3.368   4.421 -0.3536 -1.0033  0.0193
 1938WAT      O 9556  -2.771   3.396   4.618  0.7203  0.2601  0.0227
 1938WAT     H1 9557  -2.801   3.486   4.629 -2.2541 -0.5321 -0.8807
 1938WAT     H2 9558  -2.761   3.363   4.707  1.0341  1.2164  0.3516
 1938WAT    EPW 9559  -2.773   3.404   4.631  0.3693  0.2819 -0.0532
 1939WAT      O 9560   0.495   3.596   8.609  0.2562  0.6544 -0.3595
 1939WAT     H1 9561   0.557   3.528   8.638 -1.6675 -0.5544  1.2016
 1939WAT     H2 9562   0.412   3.550   8.601 -1.0288  2.7361  0.3160
 1939WAT    EPW 9563   0.492   3.581   8.612 -0.1670  0.7694 -0.0644
 1940WAT      O 9564   3.766   9.083   6.405  0.1616  0.8462 -0.3840
 1940WAT     H1 9565   3.699   9.125   6.459  0.6155  2.6363 -1.1746
 1940WAT     H2 9566   3.725   9.001   6.377 -1.0704  1.1349  0.4978
 1940WAT    EPW 9567   3.752   9.077   6.408  0.0590  1.1201 -0.3722
 1941WAT      O 9568  -1.704   4.069   2.110  0.1302 -0.0122 -0.0511
 1941WAT     H1 9569  -1.687   4.037   2.022 -0.3993 -1.2818  0.2823
 1941WAT     H2 9570  -1.796   4.097   2.109 -0.1050 -0.7422  0.2843
 1941WAT    EPW 9571  -1.714   4.069   2.098  0.0294 -0.2759  0.0372
 1942WAT      O 9572  -0.865   5.149   7.533 -0.7219 -0.1330 -0.1802
 1942WAT     H1 9573  -0.777   5.156   7.570 -0.9341  0.2466  0.2567
 1942WAT     H2 9574  -0.922   5.131   7.607 -1.2413  1.3007 -0.1974
 1942WAT    EPW 9575  -0.861   5.148   7.547 -0.8184  0.1061 -0.1249
 1943WAT      O 9576  -1.495   4.222   0.094  0.2029  0.3825  0.2323
 1943WAT     H1 9577  -1.402   4.242   0.084  0.4179 -0.6534 -0.0035
 1943WAT     H2 9578  -1.497   4.127   0.110 -0.9666 -0.1494 -2.5820
 1943WAT    EPW 9579  -1.483   4.212   0.095  0.0771  0.1757 -0.1700
 1944WAT      O 9580  -2.581   2.427   8.767  0.6261 -0.5324  0.4280
 1944WAT     H1 9581  -2.597   2.426   8.673 -1.6792  0.0020  0.7519
 1944WAT     H2 9582  -2.518   2.497   8.780  0.2169  0.0588 -0.6377
 1944WAT    EPW 9583  -2.575   2.436   8.756  0.2680 -0.3840  0.3304
 1945WAT      O 9584  -1.176   1.784   7.047 -0.0320  0.2769 -0.0091
 1945WAT     H1 9585  -1.123   1.858   7.017 -0.5545 -0.5447 -3.3510
 1945WAT     H2 9586  -1.266   1.811   7.028 -0.2317 -1.1206 -1.1960
 1945WAT    EPW 9587  -1.181   1.797   7.040 -0.1272 -0.0158 -0.6065
 1946WAT      O 9588   4.378   3.643   8.205 -0.4393 -0.4375  0.1161
 1946WAT     H1 9589   4.365   3.614   8.295  0.5680 -2.0644 -0.2142
 1946WAT     H2 9590   4.418   3.729   8.212  1.4903 -1.3857  1.2833
 1946WAT    EPW 9591   4.381   3.651   8.218 -0.0520 -0.7771  0.2265
 1947WAT      O 9592  -0.115   5.902   6.120 -0.9302 -0.4065 -0.3564
 1947WAT     H1 9593  -0.076   5.930   6.203 -1.4239 -1.3483  0.2061
 1947WAT     H2 9594  -0.056   5.937   6.053 -0.4726  0.2815  0.3891
 1947WAT    EPW 9595  -0.102   5.910   6.122 -0.9350 -0.4401 -0.1838
 1948WAT      O 9596   3.876   0.662   5.582 -0.3231 -0.1270 -0.1625
 1948WAT     H1 9597   3.802   0.628   5.531  0.8213 -1.7300 -0.8429
 1948WAT     H2 9598   3.900   0.589   5.639 -1.4017  1.5221  2.6007
 1948WAT    EPW 9599   3.869   0.648   5.583 -0.3145 -0.1209  0.1123
 1949WAT      O 9600  -5.593   3.931   8.972 -0.5063 -0.4159 -0.4976
 1949WAT     H1 9601  -5.658   3.966   8.911  0.6432 -1.2781 -2.3009
 1949WAT     H2 9602  -5.625   3.844   8.994 -2.1977  0.7356  2.2190
 1949WAT    EPW 9603  -5.606   3.924   8.967 -0.5778 -0.3777 -0.3771
 1950WAT      O 9604  -5.735   9.248   8.341  0.1954  0.6980 -0.2413
 1950WAT     H1 9605  -5.702   9.245   8.431  0.0558 -0.0620 -0.2088
 1950WAT     H2 9606  -5.808   9.185   8.340 -0.9810  2.0089 -0.4249
 1950WAT    EPW 9607  -5.740   9.239   8.353  0.0219  0.7706 -0.2613
 1951WAT      O 9608  -4.747   6.865   5.139  0.4949 -0.0819  0.1556
 1951WAT     H1 9609  -4.708   6.947   5.110 -0.3730  0.6515  1.0094
 1951WAT     H2 9610  -4.752   6.811   5.060  2.1992  0.2054 -0.1809
 1951WAT    EPW 9611  -4.743   6.868   5.125  0.6053  0.0527  0.2239
 1952WAT      O 9612   4.536   9.073   1.930 -0.0738 -0.0689  0.1062
 1952WAT     H1 9613   4.556   9.086   2.022  0.9334 -1.3578  0.0898
 1952WAT     H2 9614   4.581   9.145   1.886 -0.0143  0.1778  0.5642
 1952WAT    EPW 9615   4.545   9.084   1.936  0.0668 -0.2069  0.1644
 1953WAT      O 9616   8.187   4.760   0.880  1.0097  0.1423  0.0557
 1953WAT     H1 9617   8.247   4.831   0.858 -0.4948  1.5888  0.4231
 1953WAT     H2 9618   8.133   4.796   0.950 -1.8842 -0.1907 -1.8576
 1953WAT    EPW 9619   8.188   4.774   0.887  0.4296  0.2892 -0.1482
 1954WAT      O 9620  -1.649   3.893   5.957 -0.7062  0.1694  0.0331
 1954WAT     H1 9621  -1.675   3.861   5.871 -2.8069 -1.3386  1.1338
 1954WAT     H2 9622  -1.730   3.894   6.008  0.7203 -0.7019  2.4837
 1954WAT    EPW 9623  -1.663   3.889   5.953 -0.7952 -0.1444  0.5016
 1955WAT      O 9624   4.305   1.939   4.808 -0.2522  0.2754  0.3435
 1955WAT     H1 9625   4.215   1.939   4.776 -0.1124 -0.3751 -0.0520
 1955WAT     H2 9626   4.352   1.880   4.750  0.0848 -0.6629  1.5349
 1955WAT    EPW 9627   4.300   1.931   4.796 -0.1891  0.0659  0.4485
 1956WAT      O 9628  -2.174   9.783   3.219 -0.6877 -0.0885 -0.5701
 1956WAT     H1 9629  -2.126   9.854   3.178  1.5822 -0.2741  1.5123
 1956WAT     H2 9630  -2.151   9.788   3.312 -1.2065 -2.9316 -0.1764
 1956WAT    EPW 9631  -2.165   9.793   3.226 -0.4568 -0.4878 -0.2435
 1957WAT      O 9632   6.218   6.526   2.209 -0.3919  0.7606  0.3656
 1957WAT     H1 9633   6.255   6.571   2.285 -1.4557 -0.2290  1.5293
 1957WAT     H2 9634   6.165   6.456   2.247  1.5147 -1.7815 -1.3374
 1957WAT    EPW 9635   6.216   6.523   2.224 -0.2809  0.2947  0.2944
 1958WAT      O 9636   0.596   8.382   6.814 -0.2487 -0.1216 -0.1826
 1958WAT     H1 9637   0.676   8.382   6.867  0.6181 -2.2613 -1.3832
 1958WAT     H2 9638   0.620   8.428   6.733 -1.8284  3.9863  1.3835
 1958WAT    EPW 9639   0.609   8.388   6.811 -0.3428  0.1383 -0.1345
 1959WAT      O 9640   7.091   9.479   0.362  0.0526 -0.1555 -1.0328
 1959WAT     H1 9641   7.178   9.443   0.380  0.1090  0.6544  0.4235
 1959WAT     H2 9642   7.042   9.405   0.327  1.0161 -0.8903 -0.8851
 1959WAT    EPW 9643   7.096   9.464   0.359  0.1874 -0.1459 -0.8212
 1960WAT      O 9644   4.384   4.343   2.041  0.4074  0.2827  0.4744
 1960WAT     H1 9645   4.359   4.359   1.950 -0.6961  1.9662  1.0266
 1960WAT     H2 9646   4.360   4.251   2.056  2.6661 -0.7556 -1.5171
 1960WAT    EPW 9647   4.377   4.333   2.031  0.5596  0.3676  0.2844
 1961WAT      O 9648   1.636   0.230   6.968  0.9698  0.0147 -0.0959
 1961WAT     H1 9649   1.656   0.311   6.921 -0.2993  1.8446  2.2560
 1961WAT     H2 9650   1.707   0.222   7.032  0.0692  0.4395  0.9971
 1961WAT    EPW 9651   1.648   0.240   6.970  0.6836  0.3121  0.3583
 1962WAT      O 9652   1.667   5.452   0.402  0.4081 -0.2285  0.2146
 1962WAT     H1 9653   1.681   5.485   0.491 -1.1203  0.6638  0.1608
 1962WAT     H2 9654   1.638   5.528   0.353  0.8513 -0.8023 -0.9647
 1962WAT    EPW 9655   1.665   5.466   0.408  0.2650 -0.1864  0.0520
 1963WAT      O 9656  -2.422   9.139   6.827 -0.1596 -0.2450 -0.1363
 1963WAT     H1 9657  -2.420   9.128   6.922 -0.0558  1.4768  0.0861
 1963WAT     H2 9658  -2.456   9.228   6.814 -1.6174 -0.9696 -1.7509
 1963WAT    EPW 9659  -2.426   9.149   6.837 -0.3381 -0.1135 -0.3200
 1964WAT      O 9660  -5.734   8.916   8.368  0.2020 -0.6105  0.0608
 1964WAT     H1 9661  -5.703   8.932   8.458  1.5230  0.5733 -0.5561
 1964WAT     H2 9662  -5.825   8.945   8.368  0.7288  1.2110  0.5836
 1964WAT    EPW 9663  -5.742   8.922   8.380  0.4458 -0.2141  0.0486
 1965WAT      O 9664   3.380   0.064   5.187 -0.3307 -0.7107  0.2556
 1965WAT     H1 9665   3.439   0.140   5.185  0.4836 -1.3357 -0.2388
 1965WAT     H2 9666   3.295   0.101   5.212  0.2479  0.2209  0.9415
 1965WAT    EPW 9667   3.377   0.079   5.190 -0.1469 -0.6703  0.2809
 1966WAT      O 9668   8.512   4.388   1.309 -0.8879 -0.6861  0.2165
 1966WAT     H1 9669   8.485   4.448   1.240 -1.2658 -0.1620  0.8028
 1966WAT     H2 9670   8.474   4.425   1.389  1.9454  0.3948  1.2032
 1966WAT    EPW 9671   8.504   4.401   1.311 -0.5641 -0.4745  0.4240
 1967WAT      O 9672   2.621  10.157   0.418 -0.1963  0.4997 -0.1311
 1967WAT     H1 9673   2.564  10.169   0.495 -1.1580 -2.5696 -0.2170
 1967WAT     H2 9674   2.668  10.076   0.436  1.9609  1.3676 -1.4588
 1967WAT    EPW 9675   2.619  10.148   0.431 -0.0386  0.2093 -0.3175
 1968WAT      O 9676  -2.098   0.402   4.760  0.3224 -0.4622 -0.1952
 1968WAT     H1 9677  -2.031   0.435   4.701 -1.7758  0.4197 -2.2608
 1968WAT     H2 9678  -2.181   0.423   4.717 -1.3376 -1.0411  2.4364
 1968WAT    EPW 9679  -2.100   0.409   4.747 -0.1733 -0.4222 -0.1204
 1969WAT      O 9680   0.873   2.174   7.192 -0.0129  0.4427  0.0804
 1969WAT     H1 9681   0.936   2.105   7.173 -2.1487 -2.0977  1.4661
 1969WAT     H2 9682   0.907   2.218   7.270 -0.2426 -1.3711  1.2450
 1969WAT    EPW 9683   0.886   2.171   7.200 -0.3249 -0.1315  0.4168
 1970WAT      O 9684   3.685   6.018   5.225 -0.5056  0.3384 -0.3591
 1970WAT     H1 9685   3.766   5.987   5.265  0.1609  1.4593 -0.8124
 1970WAT     H2 9686   3.665   5.953   5.158  0.7554  0.7136 -1.1461
 1970WAT    EPW 9687   3.693   6.005   5.221 -0.2514  0.5360 -0.5226
 1971WAT      O 9688   4.248   7.077   0.266  0.0736  0.3901 -0.6685
 1971WAT     H1 9689   4.187   7.057   0.337  1.0374  2.4855  0.8271
 1971WAT     H2 9690   4.332   7.045   0.297  0.2258 -0.1314 -1.5953
 1971WAT    EPW 9691   4.251   7.070   0.279  0.2208  0.5977 -0.5935
 1972WAT      O 9692   0.940   8.963   1.800  0.2139 -0.0903 -0.1543
 1972WAT     H1 9693   1.005   9.007   1.855 -0.4196  0.7415 -0.0533
 1972WAT     H2 9694   0.990   8.929   1.726  0.7647  0.5831 -0.0999
 1972WAT    EPW 9695   0.955   8.964   1.798  0.2030  0.1082 -0.1338
 1973WAT      O 9696   5.122  -0.007   8.740 -0.0171  0.1732 -0.4174
 1973WAT     H1 9697   5.083  -0.024   8.825 -0.9648  1.4889 -0.5475
 1973WAT     H2 9698   5.074   0.070   8.707  0.5151 -0.1337 -2.0004
 1973WAT    EPW 9699   5.110   0.001   8.747 -0.0720  0.3061 -0.6437
 1974WAT      O 9700  -2.292   2.520   2.339 -0.7713  0.2904 -0.5610
 1974WAT     H1 9701  -2.350   2.594   2.355  0.0950  0.6287  1.2939
 1974WAT     H2 9702  -2.269   2.527   2.247 -1.8259  1.4932 -0.7631
 1974WAT    EPW 9703  -2.296   2.531   2.329 -0.7961  0.4936 -0.3431
 1975WAT      O 9704  -1.414   3.746   3.092 -0.1589  0.6057  0.3730
 1975WAT     H1 9705  -1.492   3.692   3.107  0.7736 -1.1860 -0.9191
 1975WAT     H2 9706  -1.449   3.830   3.064 -1.6542  0.6449  2.1151
 1975WAT    EPW 9707  -1.429   3.750   3.090 -0.2331  0.3746  0.4324
 1976WAT      O 9708   2.610   3.750   4.041  0.0554 -0.6749 -0.4584
 1976WAT     H1 9709   2.695   3.712   4.063  0.3676  0.1135 -0.2689
 1976WAT     H2 9710   2.632   3.826   3.987 -0.3539  1.1664  1.8133
 1976WAT    EPW 9711   2.624   3.755   4.036  0.0426 -0.3281 -0.1338
 1977WAT      O 9712  -2.437  10.325   7.466 -0.9467 -0.5883  0.0706
 1977WAT     H1 9713  -2.352  10.285   7.483 -0.2516  0.8556  0.1593
 1977WAT     H2 9714  -2.474  10.341   7.553 -1.8804 -2.3030  0.0306
 1977WAT    EPW 9715  -2.431  10.322   7.480 -0.9782 -0.6242  0.0770
 1978WAT      O 9716   4.404   7.660   0.697 -0.0872 -1.0564  0.4411
 1978WAT     H1 9717   4.402   7.754   0.714 -0.2691 -0.7356 -1.1520
 1978WAT     H2 9718   4.496   7.640   0.682 -0.2172 -0.7789 -0.8519
 1978WAT    EPW 9719   4.416   7.670   0.697 -0.1283 -0.9773  0.0604
 1979WAT      O 9720  -0.375   6.686   7.220 -0.6206  0.6842  0.2509
 1979WAT     H1 9721  -0.341   6.596   7.215  0.9607  1.2866 -0.8694
 1979WAT     H2 9722  -0.432   6.694   7.144 -1.5096  0.3768  0.8643
 1979WAT    EPW 9723  -0.378   6.675   7.209 -0.5293  0.7231  0.1841
 1980WAT      O 9724   6.108   0.980   2.390 -0.6063 -0.2473  0.6543
 1980WAT     H1 9725   6.100   0.917   2.319  1.2886 -0.3274  0.4573
 1980WAT     H2 9726   6.052   0.945   2.460 -2.1070 -0.4228 -0.5799
 1980WAT    EPW 9727   6.100   0.967   2.390 -0.5543 -0.2810  0.4655
 1981WAT      O 9728  -4.253   6.458   6.113  0.5717 -0.1641 -0.2319
 1981WAT     H1 9729  -4.240   6.376   6.162  0.0046  0.2276  0.6155
 1981WAT     H2 9730  -4.283   6.430   6.027  1.8041 -0.8839 -0.4515
 1981WAT    EPW 9731  -4.255   6.443   6.108  0.6595 -0.2074 -0.1490
 1982WAT      O 9732   1.847   6.055   2.327 -0.0843 -0.2206  0.3146
 1982WAT     H1 9733   1.826   6.146   2.347  2.6832  0.3019  1.2940
 1982WAT     H2 9734   1.866   6.055   2.233  2.6982  0.9625  0.7655
 1982WAT    EPW 9735   1.847   6.067   2.317  0.6477  0.0043  0.5033
 1983WAT      O 9736   0.578   5.116   4.677  0.0226 -0.0229  0.2423
 1983WAT     H1 9737   0.643   5.138   4.611 -0.2945  1.7592  0.4844
 1983WAT     H2 9738   0.627   5.112   4.759  0.3737 -1.9993 -0.0183
 1983WAT    EPW 9739   0.593   5.118   4.680  0.0271 -0.0486  0.2401
 1984WAT      O 9740  -4.915   9.101   3.189 -0.5951 -0.1474  0.0512
 1984WAT     H1 9741  -4.846   9.137   3.244 -0.9143  1.5758 -0.5769
 1984WAT     H2 9742  -4.986   9.166   3.196 -0.4934  0.3623 -2.6369
 1984WAT    EPW 9743  -4.915   9.114   3.197 -0.6239  0.1469 -0.3862
 1985WAT      O 9744  -6.496  10.263   4.764 -0.2033  0.3317 -0.3897
 1985WAT     H1 9745  -6.507  10.236   4.855 -2.0277  0.2468 -0.5984
 1985WAT     H2 9746  -6.402  10.279   4.755  0.0250  0.2691  1.4757
 1985WAT    EPW 9747  -6.485  10.262   4.775 -0.4139  0.3119 -0.1712
 1986WAT      O 9748   2.719   1.715   7.871 -0.3129  0.7668 -0.6368
 1986WAT     H1 9749   2.654   1.701   7.803 -0.1423  0.3251 -0.7141
 1986WAT     H2 9750   2.734   1.809   7.872 -2.4720  1.1593  0.8115
 1986WAT    EPW 9751   2.713   1.725   7.862 -0.5751  0.7603 -0.4559
 1987WAT      O 9752   3.549   0.455   5.517 -0.1130  0.2082 -0.1144
 1987WAT     H1 9753   3.580   0.366   5.535 -0.6029  0.5740  3.0120
 1987WAT     H2 9754   3.455   0.452   5.536 -0.0159  1.5183  0.7030
 1987WAT    EPW 9755   3.541   0.443   5.522 -0.1647  0.4293  0.4058
 1988WAT      O 9756   2.010   2.455   3.697  0.6904 -0.5892 -0.3911
 1988WAT     H1 9757   1.942   2.388   3.683 -0.3666  0.0870  1.1605
 1988WAT     H2 9758   1.970   2.536   3.666  0.4487 -0.0581  1.2021
 1988WAT    EPW 9759   1.996   2.457   3.691  0.5191 -0.4299  0.0236
 1989WAT      O 9760  -5.740   1.963   8.689  0.3236 -0.0315  0.3456
 1989WAT     H1 9761  -5.830   1.930   8.684  1.3157 -2.9216 -0.0549
 1989WAT     H2 9762  -5.723   1.999   8.602 -0.9105  2.1224  0.9132
 1989WAT    EPW 9763  -5.750   1.963   8.677  0.2918 -0.1285  0.3676
 1990WAT      O 9764   2.804   6.537   6.139  0.1185  0.7335  0.1468
 1990WAT     H1 9765   2.794   6.566   6.049 -0.3026  0.0359 -0.0396
 1990WAT     H2 9766   2.899   6.534   6.153  0.2280 -0.3075 -0.6666
 1990WAT    EPW 9767   2.815   6.540   6.129  0.0774  0.5043  0.0148
 1991WAT      O 9768  -2.273   8.074   3.659  0.3939 -0.1323  0.0665
 1991WAT     H1 9769  -2.247   8.163   3.683 -4.0118  1.1114  1.0045
 1991WAT     H2 9770  -2.314   8.082   3.574 -1.0975 -0.9994  0.6601
 1991WAT    EPW 9771  -2.275   8.087   3.651 -0.3837 -0.0825  0.2686
 1992WAT      O 9772   0.594   1.459   2.113 -0.2439  0.9863 -0.5846
 1992WAT     H1 9773   0.646   1.489   2.187 -1.7878 -0.2048  1.0763
 1992WAT     H2 9774   0.511   1.505   2.121 -1.3252 -0.9356 -0.0814
 1992WAT    EPW 9775   0.590   1.469   2.124 -0.5902  0.5757 -0.2992
 1993WAT      O 9776   1.282   4.906   4.249 -0.4450 -0.6107 -0.5505
 1993WAT     H1 9777   1.337   4.922   4.325  1.7259 -3.7282 -1.2546
 1993WAT     H2 9778   1.339   4.862   4.187 -2.5522  0.3535 -3.3964
 1993WAT    EPW 9779   1.296   4.902   4.251 -0.4366 -0.8948 -1.0188
 1994WAT      O 9780  -1.197   4.605   6.406 -0.2837 -0.5595  0.2221
 1994WAT     H1 9781  -1.219   4.570   6.492 -2.4628  0.7656  0.2662
 1994WAT     H2 9782  -1.185   4.526   6.352  4.9895 -1.6400  2.3679
 1994WAT    EPW 9783  -1.199   4.590   6.410  0.1244 -0.5274  0.5107
 1995WAT      O 9784   4.700   5.120   1.159  0.2803  0.0491 -0.3715
 1995WAT     H1 9785   4.710   5.065   1.081  1.5045  0.1017 -0.2719
 1995WAT     H2 9786   4.737   5.205   1.133 -1.1003  0.6888 -0.3494
 1995WAT    EPW 9787   4.706   5.124   1.145  0.2599  0.1404 -0.3554
 1996WAT      O 9788  -0.978   1.542   6.328 -0.1664  0.3877 -0.0455
 1996WAT     H1 9789  -0.930   1.602   6.272  1.7190  2.8472  3.7484
 1996WAT     H2 9790  -0.911   1.503   6.384 -2.0311 -0.3260  1.8079
 1996WAT    EPW 9791  -0.963   1.545   6.328 -0.1637  0.6179  0.6993
 1997WAT      O 9792   1.476   1.654   2.472  0.0200  0.1446  0.2592
 1997WAT     H1 9793   1.420   1.689   2.403 -0.4015  2.6997  1.7449
 1997WAT     H2 9794   1.561   1.639   2.430 -1.0698 -1.3856 -1.4617
 1997WAT    EPW 9795   1.480   1.657   2.458 -0.1794  0.2798  0.2282
 1998WAT      O 9796  -2.863   8.886   2.237  0.0054  0.3863 -0.2575
 1998WAT     H1 9797  -2.840   8.813   2.180 -2.7411 -2.1508  1.5916
 1998WAT     H2 9798  -2.957   8.897   2.226  0.1353  3.0083  0.3821
 1998WAT    EPW 9799  -2.872   8.878   2.228 -0.3396  0.3977  0.0708
 1999WAT      O 9800  -0.073   0.065   1.197  0.6341  0.5478 -0.2733
 1999WAT     H1 9801  -0.060  -0.030   1.193 -2.1851  0.0218  0.9194
 1999WAT     H2 9802   0.004   0.098   1.244  0.6827 -1.4197  1.1277
 1999WAT    EPW 9803  -0.061   0.057   1.203  0.2688  0.2193  0.0688
 2000WAT      O 9804   5.144   4.696   0.852 -0.0433  0.1930 -0.1830
 2000WAT     H1 9805   5.215   4.737   0.901  0.4652  0.5220 -1.1800
 2000WAT     H2 9806   5.168   4.707   0.760 -1.0888 -0.2238 -0.5221
 2000WAT    EPW 9807   5.156   4.703   0.847 -0.1140  0.1814 -0.3592
 2001WAT      O 9808  -1.219   7.294   3.870 -0.1276 -0.2461 -0.0988
 2001WAT     H1 9809  -1.182   7.210   3.842 -3.1397 -0.9730 -2.3674
 2001WAT     H2 9810  -1.200   7.354   3.798  0.9033  0.7610  0.9579
 2001WAT    EPW 9811  -1.211   7.291   3.857 -0.3889 -0.2091 -0.2587
 2002WAT      O 9812   5.603   4.147   6.213 -0.4287 -0.2825 -0.4794
 2002WAT     H1 9813   5.649   4.082   6.159  0.5442  0.2236 -0.2941
 2002WAT     H2 9814   5.673   4.191   6.261 -1.0744  0.8388 -0.5342
 2002WAT    EPW 9815   5.618   4.145   6.212 -0.3855 -0.0677 -0.4621
 2003WAT      O 9816  -2.265   2.291   7.604  0.0523 -0.1262  0.5167
 2003WAT     H1 9817  -2.207   2.270   7.531 -2.9046 -2.8160 -1.3002
 2003WAT     H2 9818  -2.305   2.375   7.581 -0.2403 -0.5546 -0.5690
 2003WAT    EPW 9819  -2.263   2.299   7.592 -0.3763 -0.5374  0.1340
 2004WAT      O 9820  -0.987   4.586   2.057 -0.6025 -0.0399 -0.9827
 2004WAT     H1 9821  -0.916   4.639   2.021 -0.6837  1.0384  0.3775
 2004WAT     H2 9822  -1.062   4.646   2.061 -1.6331 -1.1525 -2.3954
 2004WAT    EPW 9823  -0.988   4.601   2.052 -0.7491 -0.0443 -0.9897
 2005WAT      O 9824  -0.134   7.895   1.412 -0.4644  0.4045 -0.0631
 2005WAT     H1 9825  -0.083   7.851   1.480  0.5874  1.4135 -0.1629
 2005WAT     H2 9826  -0.074   7.902   1.338 -1.5972 -0.6740 -1.1191
 2005WAT    EPW 9827  -0.119   7.890   1.411 -0.4751  0.3953 -0.2156
 2006WAT      O 9828   5.239   7.914   4.418  0.2204 -0.1303 -1.0743
 2006WAT     H1 9829   5.311   7.926   4.357 -0.0791 -1.6362 -1.7549
 2006WAT     H2 9830   5.227   8.000   4.458  2.6677  0.0597 -0.6183
 2006WAT    EPW 9831   5.247   7.927   4.415  0.5038 -0.3037 -1.1039
 2007WAT      O 9832   0.328   7.991   7.507 -0.5712 -0.1460  0.0126
 2007WAT     H1 9833   0.319   8.004   7.412  0.4900  0.3273 -0.0378
 2007WAT     H2 9834   0.376   7.909   7.515  1.4235  0.9767  0.0520
 2007WAT    EPW 9835   0.333   7.982   7.495 -0.1682  0.0646  0.0112
 2008WAT      O 9836   1.918   6.115   8.756 -0.3022 -0.1953  0.6398
 2008WAT     H1 9837   1.998   6.062   8.756  0.2526  0.5965 -0.0692
 2008WAT     H2 9838   1.949   6.205   8.768 -1.2772 -0.0716  2.4654
 2008WAT    EPW 9839   1.933   6.120   8.757 -0.3576 -0.0744  0.7873
 2009WAT      O 9840   4.607   0.394   4.803  0.4420 -0.2548 -0.3216
 2009WAT     H1 9841   4.654   0.413   4.722  0.7610 -3.4122 -1.0187
 2009WAT     H2 9842   4.534   0.337   4.776 -1.4127  1.2145  1.2543
 2009WAT    EPW 9843   4.603   0.389   4.789  0.2396 -0.4774 -0.2058
 2010WAT      O 9844  -1.140   2.474   5.524  0.0075  0.4922 -0.0850
 2010WAT     H1 9845  -1.141   2.415   5.599  0.6498 -0.3267 -0.7035
 2010WAT     H2 9846  -1.165   2.419   5.450 -2.5672  1.7004 -0.2282
 2010WAT    EPW 9847  -1.143   2.459   5.524 -0.2474  0.5436 -0.1855
 2011WAT      O 9848  -2.257   7.449   5.559  0.4372 -0.0729 -0.0754
 2011WAT     H1 9849  -2.168   7.427   5.531 -0.5222 -1.3452 -2.4732
 2011WAT     H2 9850  -2.290   7.369   5.600  1.3492  1.3621  3.9034
 2011WAT    EPW 9851  -2.250   7.435   5.560  0.4309 -0.0515  0.1330
 2012WAT      O 9852   7.225   0.656   1.536  0.4830 -0.3657 -0.7472
 2012WAT     H1 9853   7.311   0.661   1.579  0.6978  0.0451 -1.2072
 2012WAT     H2 9854   7.198   0.748   1.527 -0.8814 -0.5344  1.0911
 2012WAT    EPW 9855   7.233   0.669   1.540  0.3314 -0.3338 -0.5654
 2013WAT      O 9856   1.445   4.622   1.759 -0.1535  0.5984 -0.2403
 2013WAT     H1 9857   1.447   4.713   1.730  0.2198  0.4043 -0.8445
 2013WAT     H2 9858   1.359   4.590   1.732  1.0135 -0.2757 -3.4339
 2013WAT    EPW 9859   1.434   4.629   1.751  0.0497  0.4573 -0.7412
 2014WAT      O 9860  -3.418   7.937   3.330 -1.0078  0.7572 -0.1926
 2014WAT     H1 9861  -3.487   7.883   3.293 -0.3098  1.6154 -2.9926
 2014WAT     H2 9862  -3.463   8.014   3.364 -1.5872  0.5044 -0.3740
 2014WAT    EPW 9863  -3.433   7.940   3.330 -0.9922  0.8371 -0.5858
 2015WAT      O 9864  -2.615   8.883   6.682 -0.2978 -0.0967 -0.0914
 2015WAT     H1 9865  -2.527   8.901   6.651 -1.0765  1.6293 -1.4903
 2015WAT     H2 9866  -2.645   8.966   6.719 -0.6555 -1.1949  2.2397
 2015WAT    EPW 9867  -2.607   8.896   6.682 -0.4475 -0.0138  0.0315
 2016WAT      O 9868  -2.848   1.118   4.441  0.4947 -0.2136  0.5801
 2016WAT     H1 9869  -2.925   1.093   4.391 -0.1470  0.1627  1.3641
 2016WAT     H2 9870  -2.864   1.209   4.466  2.0069  0.4711 -0.7525
 2016WAT    EPW 9871  -2.860   1.127   4.438  0.6095 -0.0736  0.5078
 2017WAT      O 9872  -5.460   9.605   3.894 -0.0364 -0.4384  0.0770
 2017WAT     H1 9873  -5.387   9.582   3.835 -0.3514 -0.6147 -0.2475
 2017WAT     H2 9874  -5.532   9.627   3.835  0.0598  0.7772  0.3879
 2017WAT    EPW 9875  -5.460   9.605   3.879 -0.0651 -0.3014  0.0751
 2018WAT      O 9876   3.126   3.255   0.120  0.5110 -0.6233  0.0390
 2018WAT     H1 9877   3.050   3.313   0.117  2.7221  2.6704  1.6454
 2018WAT     H2 9878   3.181   3.285   0.047  1.7529 -0.6173  0.9551
 2018WAT    EPW 9879   3.123   3.267   0.110  0.9664 -0.1880  0.3717
 2019WAT      O 9880  -3.475   1.882   7.424 -0.6930 -1.0139  0.1401
 2019WAT     H1 9881  -3.431   1.924   7.351  0.4004 -3.4849 -0.7249
 2019WAT     H2 9882  -3.436   1.922   7.502 -0.3203  0.1097 -0.5955
 2019WAT    EPW 9883  -3.464   1.893   7.425 -0.4995 -1.1916 -0.0708
 2020WAT      O 9884  -3.681   0.165   7.160 -0.0883  0.2531 -0.4185
 2020WAT     H1 9885  -3.703   0.258   7.169 -2.2938 -0.3157  1.2369
 2020WAT     H2 9886  -3.586   0.162   7.165  0.2398  2.5750 -2.7797
 2020WAT    EPW 9887  -3.672   0.177   7.162 -0.3358  0.4843 -0.5119
 2021WAT      O 9888  -1.013   8.043   5.408  0.3704  0.2902 -0.6087
 2021WAT     H1 9889  -0.954   8.094   5.354 -0.2272  0.4703 -1.1020
 2021WAT     H2 9890  -1.093   8.034   5.356  0.0210 -0.0975 -0.0302
 2021WAT    EPW 9891  -1.016   8.048   5.394  0.2455  0.2627 -0.5975
 2022WAT      O 9892  -2.742   3.620   6.527  0.2238 -0.6708 -0.7135
 2022WAT     H1 9893  -2.721   3.565   6.451 -0.6023 -2.1187  0.0682
 2022WAT     H2 9894  -2.658   3.636   6.569  0.5157 -0.9995 -1.1652
 2022WAT    EPW 9895  -2.728   3.615   6.522  0.1534 -0.9052 -0.6702
 2023WAT      O 9896  -1.911   3.765   1.896  0.1464  0.3754  0.1173
 2023WAT     H1 9897  -1.932   3.846   1.851  0.6392 -0.1460 -1.0813
 2023WAT     H2 9898  -1.816   3.768   1.909  0.3475 -0.5285 -1.0069
 2023WAT    EPW 9899  -1.901   3.776   1.892  0.2379  0.1873 -0.1891
 2024WAT      O 9900  -1.614   8.002   6.033  0.4329 -0.3454  0.5762
 2024WAT     H1 9901  -1.596   7.908   6.034  1.5055 -0.1478  1.4174
 2024WAT     H2 9902  -1.528   8.043   6.040  0.0897  0.7314 -0.8842
 2024WAT    EPW 9903  -1.600   7.995   6.034  0.5291 -0.1776  0.4945
 2025WAT      O 9904   4.687   3.695   8.003 -0.3150  0.0802 -0.0028
 2025WAT     H1 9905   4.707   3.628   7.938 -2.9035 -0.6055 -0.1756
 2025WAT     H2 9906   4.671   3.774   7.952 -2.4247 -0.4765 -0.2829
 2025WAT    EPW 9907   4.688   3.697   7.988 -0.9346 -0.0836 -0.0625
 2026WAT      O 9908   4.202   7.326   3.996 -0.5577  0.1275 -0.3798
 2026WAT     H1 9909   4.194   7.352   3.905  3.3877  4.1360  0.0418
 2026WAT     H2 9910   4.287   7.283   4.001  0.6557  2.4910  1.6326
 2026WAT    EPW 9911   4.212   7.324   3.985  0.1228  0.9680 -0.0589
 2027WAT      O 9912   0.205   3.653   0.015 -0.6683  0.1973  0.0501
 2027WAT     H1 9913   0.135   3.718   0.022 -1.1030 -0.3689  1.2855
 2027WAT     H2 9914   0.243   3.649   0.103  0.7574  0.3024 -0.5377
 2027WAT    EPW 9915   0.200   3.661   0.028 -0.5376  0.1365  0.1355
 2028WAT      O 9916   3.675   8.452   3.749  0.8895 -0.2217 -0.5938
 2028WAT     H1 9917   3.665   8.543   3.780 -1.1521  0.1143 -2.0145
 2028WAT     H2 9918   3.759   8.424   3.786  1.4898  2.1549  0.0867
 2028WAT    EPW 9919   3.685   8.460   3.758  0.6994  0.1364 -0.6914
 2029WAT      O 9920  -3.407   6.015   8.996  0.1745  0.3084 -0.4066
 2029WAT     H1 9921  -3.315   5.998   9.017  0.1117  1.0745  0.6017
 2029WAT     H2 9922  -3.413   5.999   8.902  1.6346  1.4157 -0.7415
 2029WAT    EPW 9923  -3.395   6.011   8.986  0.3587  0.5553 -0.3176
 2030WAT      O 9924   5.583   6.902   4.243 -0.5319  0.2788 -0.2612
 2030WAT     H1 9925   5.658   6.960   4.225 -0.3291  0.7287  1.8016
 2030WAT     H2 9926   5.597   6.871   4.332 -1.8438 -1.1650 -0.5088
 2030WAT    EPW 9927   5.595   6.906   4.253 -0.6783  0.1478 -0.0217
 2031WAT      O 9928   4.887   6.351   0.580  0.4067 -0.7230 -0.2250
 2031WAT     H1 9929   4.966   6.405   0.580 -0.4277  0.5376  0.4358
 2031WAT     H2 9930   4.888   6.307   0.665 -0.4010  0.5475  0.4719
 2031WAT    EPW 9931   4.898   6.353   0.591  0.1903 -0.3893 -0.0459
 2032WAT      O 9932   1.550   0.107   6.648  0.1033  0.3992  0.2018
 2032WAT     H1 9933   1.510   0.182   6.603  0.7103  0.3346 -0.4514
 2032WAT     H2 9934   1.565   0.043   6.579 -1.7435 -0.9422  0.9630
 2032WAT    EPW 9935   1.547   0.109   6.633 -0.0603  0.2138  0.2160
 2033WAT      O 9936   2.390   6.673   2.807 -0.5774 -0.1171 -0.6873
 2033WAT     H1 9937   2.387   6.628   2.722 -0.0803  0.4551 -1.0123
 2033WAT     H2 9938   2.471   6.644   2.847 -0.3089  0.3935 -0.8506
 2033WAT    EPW 9939   2.400   6.663   2.801 -0.4764  0.0257 -0.7516
 2034WAT      O 9940   3.879   4.843   5.288  0.0133 -0.4019 -0.3147
 2034WAT     H1 9941   3.839   4.844   5.375 -0.0865 -3.5260 -0.1993
 2034WAT     H2 9942   3.815   4.796   5.234 -0.5821  2.6822 -2.5201
 2034WAT    EPW 9943   3.865   4.837   5.293 -0.0783 -0.4072 -0.5903
 2035WAT      O 9944  -0.141   9.559   1.104  0.6456  0.0999 -0.2869
 2035WAT     H1 9945  -0.160   9.483   1.049  1.3474 -0.7307  0.5893
 2035WAT     H2 9946  -0.050   9.549   1.129  0.1220 -0.0493  1.7649
 2035WAT    EPW 9947  -0.132   9.548   1.100  0.6691 -0.0291  0.0993
 2036WAT      O 9948  -3.506   3.171   7.348  0.4174 -0.4391 -0.2343
 2036WAT     H1 9949  -3.564   3.115   7.401 -1.3970  3.4147  2.3562
 2036WAT     H2 9950  -3.556   3.189   7.269  0.0610 -0.7425 -0.0840
 2036WAT    EPW 9951  -3.520   3.166   7.345  0.1311  0.0292  0.1271
 2037WAT      O 9952  -4.111  10.166   4.939  0.4389  0.2010 -0.6275
 2037WAT     H1 9953  -4.074  10.078   4.930  0.1585  0.2171 -2.3754
 2037WAT     H2 9954  -4.124  10.195   4.849 -1.5881  1.1505 -0.0761
 2037WAT    EPW 9955  -4.108  10.158   4.926  0.1347  0.3281 -0.7851
 2038WAT      O 9956  -0.328   1.616   1.637 -0.4309 -0.2457 -0.5249
 2038WAT     H1 9957  -0.420   1.630   1.662 -0.4805 -0.2255 -0.7185
 2038WAT     H2 9958  -0.278   1.642   1.715 -0.5983 -0.4233 -0.3569
 2038WAT    EPW 9959  -0.334   1.621   1.651 -0.4595 -0.2665 -0.5282
 2039WAT      O 9960   1.542   5.450   3.344 -0.3173  0.0354  0.2581
 2039WAT     H1 9961   1.462   5.499   3.323 -0.6803 -0.6091  0.1262
 2039WAT     H2 9962   1.583   5.501   3.414  0.0858  1.3504 -0.8728
 2039WAT    EPW 9963   1.537   5.463   3.350 -0.3120  0.1237  0.0917
 2040WAT      O 9964   4.312   3.720   1.354 -0.2241  0.0128  0.7705
 2040WAT     H1 9965   4.278   3.682   1.273  1.9462  1.8448 -1.1481
 2040WAT     H2 9966   4.290   3.813   1.348  2.0917  0.6285  1.0478
 2040WAT    EPW 9967   4.305   3.727   1.343  0.3676  0.3357  0.5541
 2041WAT      O 9968  -2.430   3.787   2.198 -0.2619 -0.4362 -0.5313
 2041WAT     H1 9969  -2.451   3.728   2.271 -1.7533 -0.4662 -0.9677
 2041WAT     H2 9970  -2.507   3.842   2.188  0.1606 -0.0421 -1.7249
 2041WAT    EPW 9971  -2.443   3.786   2.206 -0.4028 -0.3881 -0.7461
 2042WAT      O 9972   5.200   6.097   1.593 -0.1468 -0.6299  0.5490
 2042WAT     H1 9973   5.229   6.168   1.536 -0.8009 -1.1833 -0.4896
 2042WAT     H2 9974   5.229   6.017   1.549 -1.7501 -1.1184  0.3462
 2042WAT    EPW 9975   5.208   6.095   1.580 -0.4447 -0.7672  0.3852
 2043WAT      O 9976   4.102   7.623   4.768 -0.0206  0.0315  0.8395
 2043WAT     H1 9977   4.064   7.536   4.767  1.6892 -0.7687  1.5525
 2043WAT     H2 9978   4.157   7.625   4.847 -0.9719  2.1924  1.5413
 2043WAT    EPW 9979   4.104   7.612   4.778  0.0792  0.2108  1.0262
 2044WAT      O 9980  -0.446   7.527   5.463  0.5066 -0.5625 -1.2565
 2044WAT     H1 9981  -0.380   7.575   5.514  1.2859  0.7287 -3.3456
 2044WAT     H2 9982  -0.530   7.559   5.497  0.9974  0.2405 -0.7616
 2044WAT    EPW 9983  -0.449   7.538   5.474  0.6741 -0.2866 -1.4668
 2045WAT      O 9984  -5.236   7.065   7.089 -0.5378  0.3040  0.0823
 2045WAT     H1 9985  -5.305   7.000   7.088 -2.7322  2.4400 -2.0935
 2045WAT     H2 9986  -5.236   7.102   7.000  4.3330 -0.3932 -0.4749
 2045WAT    EPW 9987  -5.245   7.062   7.077 -0.1848  0.4935 -0.2782
 2046WAT      O 9988   0.924   0.633   7.422 -0.2545  0.5118  0.3999
 2046WAT     H1 9989   0.948   0.546   7.455  0.2675  0.0549 -1.1259
 2046WAT     H2 9990   0.843   0.654   7.470 -2.7522 -2.6009 -1.9601
 2046WAT    EPW 9991   0.916   0.624   7.433 -0.5151  0.0409 -0.1125
 2047WAT      O 9992  -4.559   8.256   3.803  0.4084 -0.3768  0.6418
 2047WAT     H1 9993  -4.646   8.218   3.799  0.6727 -1.3617  3.0023
 2047WAT     H2 9994  -4.574   8.350   3.811 -0.4745 -0.6053  1.8913
 2047WAT    EPW 9995  -4.572   8.264   3.803  0.3271 -0.5369  1.1179
 2048WAT      O 9996  -0.511   5.077   2.205  0.3764 -0.3124  0.1023
 2048WAT     H1 9997  -0.604   5.064   2.190  0.7139 -1.3549 -1.3157
 2048WAT     H2 9998  -0.469   5.052   2.122  2.0456 -1.6277  1.2558
 2048WAT    EPW 9999  -0.517   5.072   2.192  0.6410 -0.6232  0.0674
 2049WAT      O10000   4.420   2.781   1.654 -0.5589 -0.3333  0.4093
 2049WAT     H110001   4.408   2.876   1.646 -0.6297 -0.1242  2.4113
 2049WAT     H210002   4.495   2.771   1.712  0.7751 -1.5710 -1.4019
 2049WAT    EPW10003   4.428   2.793   1.661 -0.3927 -0.4689  0.4345
 2050WAT      O10004   2.498   8.928   8.024  0.0250 -0.1227  0.0303
 2050WAT     H110005   2.516   8.884   7.942  0.4234 -0.9974  0.5762
 2050WAT     H210006   2.582   8.965   8.051  0.3825 -1.5539  1.0237
 2050WAT    EPW10007   2.512   8.927   8.017  0.1248 -0.4268  0.2332
 2051WAT      O10008   5.224   3.362   6.923 -0.1711 -0.2106 -0.3838
 2051WAT     H110009   5.181   3.406   6.997 -1.7417 -0.7245 -0.9516
 2051WAT     H210010   5.221   3.269   6.945  0.1318 -0.3003 -0.7136
 2051WAT    EPW10011   5.218   3.356   6.936 -0.3383 -0.2900 -0.5023
 2052WAT      O10012   2.700   0.829   7.344 -1.4065  0.2711  0.7470
 2052WAT     H110013   2.739   0.905   7.301  0.2509  1.1881  3.6058
 2052WAT     H210014   2.631   0.801   7.284 -0.0998  2.1358 -1.8481
 2052WAT    EPW10015   2.696   0.835   7.330 -1.0155  0.6380  0.7815
 2053WAT      O10016   7.076   6.770   1.976  0.7685  0.0449  0.1177
 2053WAT     H110017   7.128   6.840   1.936  0.9781  0.2263  0.6962
 2053WAT     H210018   7.116   6.757   2.062 -1.0378  1.2541  1.2271
 2053WAT    EPW10019   7.088   6.778   1.982  0.5579  0.2284  0.3402
 2054WAT      O10020   5.240   2.753   6.747  0.5181  0.4932 -0.7294
 2054WAT     H110021   5.326   2.789   6.771  0.0537  1.9846 -1.1590
 2054WAT     H210022   5.231   2.773   6.653 -0.1979  0.1641 -0.7372
 2054WAT    EPW10023   5.250   2.761   6.738  0.3624  0.6466 -0.7870
 2055WAT      O10024  -6.158   5.184   8.008 -0.1942 -0.4138  0.2703
 2055WAT     H110025  -6.227   5.141   8.059 -1.1936  0.5401 -0.2413
 2055WAT     H210026  -6.110   5.236   8.073 -1.1082  0.3554  0.3480
 2055WAT    EPW10027  -6.161   5.185   8.024 -0.4466 -0.1864  0.2131
 2056WAT      O10028   1.146   7.284   2.108  0.3247 -0.7938 -0.7257
 2056WAT     H110029   1.218   7.252   2.162  1.5312 -1.1298 -2.4563
 2056WAT     H210030   1.092   7.206   2.091 -1.0175 -0.3743  1.3185
 2056WAT    EPW10031   1.149   7.269   2.113  0.3068 -0.7827 -0.6844
 2057WAT      O10032   4.397   6.241   3.910 -0.2768  0.4252 -0.0470
 2057WAT     H110033   4.322   6.184   3.894 -0.5603  0.9091 -0.5159
 2057WAT     H210034   4.389   6.309   3.842 -0.4241  1.4842  1.0045
 2057WAT    EPW10035   4.386   6.243   3.899 -0.3338  0.6289  0.0298
 2058WAT      O10036   7.153   2.499   2.839 -0.0714  0.1907 -0.2155
 2058WAT     H110037   7.108   2.483   2.922  2.7169 -0.5263  1.2851
 2058WAT     H210038   7.135   2.591   2.819 -1.9676 -0.0030  0.3537
 2058WAT    EPW10039   7.145   2.509   2.847  0.0463  0.0706  0.0575
 2059WAT      O10040   0.528   5.415   1.010 -0.3271  0.1431  0.5385
 2059WAT     H110041   0.466   5.343   0.993  1.6848 -1.1771 -1.8049
 2059WAT     H210042   0.572   5.389   1.091 -0.1103 -0.9492  0.0924
 2059WAT    EPW10043   0.525   5.402   1.019 -0.0331 -0.1750  0.1706
 2060WAT      O10044  -1.543   6.539   8.047 -0.1118 -0.3359 -0.2236
 2060WAT     H110045  -1.546   6.480   8.122 -0.7298 -0.8486 -0.6335
 2060WAT     H210046  -1.486   6.495   7.984  2.7254  1.3795  0.9457
 2060WAT    EPW10047  -1.536   6.526   8.049  0.1808 -0.1774 -0.1235
 2061WAT      O10048   2.825   3.379   6.455  0.8611  0.0354  0.3311
 2061WAT     H110049   2.850   3.411   6.542 -0.1073  1.8546 -0.0101
 2061WAT     H210050   2.756   3.439   6.427 -0.2295 -1.7217 -0.8782
 2061WAT    EPW10051   2.819   3.391   6.463  0.5896  0.0436  0.1266
 2062WAT      O10052   2.080   5.242   3.053 -0.1684  0.1053  0.6777
 2062WAT     H110053   2.047   5.232   2.963  0.7079 -0.3314  0.3864
 2062WAT     H210054   2.040   5.169   3.101  1.2765 -1.1678  0.0375
 2062WAT    EPW10055   2.070   5.231   3.047  0.1379 -0.1202  0.5549
 2063WAT      O10056   2.502   8.693   0.673 -0.8394  0.0035  0.1909
 2063WAT     H110057   2.584   8.661   0.712 -0.7802 -0.9487 -0.6406
 2063WAT     H210058   2.520   8.693   0.578 -1.4791  0.7475  0.0630
 2063WAT    EPW10059   2.515   8.688   0.665 -0.9160 -0.0238  0.0644
 2064WAT      O10060  -2.161   2.278   6.282  0.3834  0.5685 -0.1293
 2064WAT     H110061  -2.226   2.209   6.268  1.8740 -0.8540 -0.3720
 2064WAT     H210062  -2.154   2.321   6.197  0.6456 -0.0899 -0.4488
 2064WAT    EPW10063  -2.169   2.274   6.269  0.6145  0.2941 -0.2036
 2065WAT      O10064   3.793   8.758   0.217 -0.1523  0.2671  0.6306
 2065WAT     H110065   3.856   8.828   0.202  2.3639 -1.7124  1.2118
 2065WAT     H210066   3.803   8.700   0.142 -0.3859 -0.7021  1.3258
 2065WAT    EPW10067   3.803   8.759   0.205  0.1488 -0.1216  0.7989
 2066WAT      O10068   4.934   3.260   0.354  0.0062  0.0669  0.0870
 2066WAT     H110069   4.908   3.350   0.374 -1.8013 -0.6918  1.3549
 2066WAT     H210070   4.958   3.263   0.261 -2.7745  1.2982 -0.6758
 2066WAT    EPW10071   4.934   3.272   0.344 -0.5989  0.1292  0.1536
 2067WAT      O10072   1.792   3.596   8.816 -0.4917 -0.5225 -0.6620
 2067WAT     H110073   1.702   3.619   8.836  0.3197  1.2563  1.4298
 2067WAT     H210074   1.821   3.545   8.892  0.7240  0.4865 -0.3969
 2067WAT    EPW10075   1.784   3.593   8.829 -0.2244 -0.1549 -0.3514
 2068WAT      O10076   1.963   9.278   2.393  0.6187 -0.1432  0.1384
 2068WAT     H110077   1.877   9.274   2.350  0.4081  1.0387  0.3970
 2068WAT     H210078   2.018   9.324   2.330  0.7926 -0.0365  0.3674
 2068WAT    EPW10079   1.959   9.284   2.379  0.6138  0.0267  0.2028
 2069WAT      O10080   2.707   5.825   2.163 -0.2069 -0.0733  0.2905
 2069WAT     H110081   2.727   5.733   2.176 -2.9539 -0.7242  0.4219
 2069WAT     H210082   2.672   5.854   2.248  3.1037  1.9207  1.1683
 2069WAT    EPW10083   2.705   5.817   2.176 -0.1324  0.1040  0.4237
 2070WAT      O10084   2.270   0.880   3.795 -0.8511  0.7372  0.5335
 2070WAT     H110085   2.341   0.820   3.816 -1.6666 -1.3155 -2.0194
 2070WAT     H210086   2.190   0.831   3.817 -1.5443  0.6723 -1.8307
 2070WAT    EPW10087   2.268   0.866   3.801 -1.0502  0.4579 -0.1150
 2071WAT      O10088  -1.653   7.262   5.319 -0.0535 -0.4058 -0.1012
 2071WAT     H110089  -1.582   7.224   5.267  1.7547  2.4681  0.0291
 2071WAT     H210090  -1.609   7.320   5.380 -2.5361  1.3625  0.1598
 2071WAT    EPW10091  -1.638   7.264   5.320 -0.1425  0.2065 -0.0496
 2072WAT      O10092   3.442   5.487   8.177 -0.6140  0.1160 -0.5568
 2072WAT     H110093   3.442   5.392   8.189  1.4992  0.0413 -0.8183
 2072WAT     H210094   3.417   5.500   8.085 -1.1734 -0.1477 -0.4485
 2072WAT    EPW10095   3.439   5.476   8.166 -0.4090  0.0715 -0.5774
 2073WAT      O10096   2.848   2.391   7.312 -0.2621  0.7305 -0.2928
 2073WAT     H110097   2.899   2.472   7.305 -1.1089  1.3365  0.3577
 2073WAT     H210098   2.771   2.406   7.257 -1.4822  1.2353  1.4558
 2073WAT    EPW10099   2.845   2.404   7.304 -0.5347  0.8770  0.0238
 2074WAT      O10100   0.443   0.026   6.380  0.4147 -0.2912  0.4192
 2074WAT     H110101   0.366  -0.032   6.379  1.0597 -1.1507 -0.5227
 2074WAT     H210102   0.424   0.089   6.450 -1.5497  0.0660 -0.3533
 2074WAT    EPW10103   0.430   0.027   6.389  0.2407 -0.3574  0.1931
 2075WAT      O10104   2.560   9.278   2.002 -0.2142 -0.4776 -0.5494
 2075WAT     H110105   2.617   9.274   2.079 -1.6541  2.5731  0.8574
 2075WAT     H210106   2.609   9.330   1.939  0.0254 -1.0004 -0.7987
 2075WAT    EPW10107   2.574   9.285   2.004 -0.3724 -0.1445 -0.3966
 2076WAT      O10108   5.987   7.764   0.206 -0.2549 -0.1532 -0.0889
 2076WAT     H110109   6.052   7.707   0.164 -1.8671 -0.2950 -2.5912
 2076WAT     H210110   6.020   7.853   0.191 -0.5392 -0.2253 -1.2762
 2076WAT    EPW10111   6.000   7.768   0.198 -0.5050 -0.1814 -0.5755
 2077WAT      O10112   0.077   0.035   4.717  0.5868 -0.4622  0.2453
 2077WAT     H110113   0.013   0.051   4.647  0.2904 -2.1722  0.0716
 2077WAT     H210114   0.139  -0.028   4.678  2.6611  1.4204  0.2627
 2077WAT    EPW10115   0.077   0.029   4.702  0.8213 -0.4394  0.2248
 2078WAT      O10116   3.824   4.788   3.552  0.1940  1.2272  0.2246
 2078WAT     H110117   3.867   4.703   3.548  1.0896  1.7013 -2.9736
 2078WAT     H210118   3.889   4.846   3.591  1.5448  1.3595 -2.0342
 2078WAT    EPW10119   3.838   4.784   3.556  0.4903  1.3072 -0.4952
 2079WAT      O10120   2.993   2.111   2.060  0.1851  0.3092  0.3928
 2079WAT     H110121   2.911   2.160   2.060  0.8438  1.4319  0.0898
 2079WAT     H210122   2.966   2.020   2.075 -0.9834  0.8633  1.9511
 2079WAT    EPW10123   2.979   2.105   2.062  0.1179  0.5302  0.5584
 2080WAT      O10124   5.990   4.876   5.399  0.1032  0.2102 -0.3613
 2080WAT     H110125   5.986   4.801   5.459 -0.9990  1.6413  1.4632
 2080WAT     H210126   5.911   4.867   5.346 -1.2811  1.2488  1.4212
 2080WAT    EPW10127   5.979   4.865   5.400 -0.2246  0.5360  0.1147
 2081WAT      O10128  -4.397   7.856   3.472  0.3082  0.5729 -0.5964
 2081WAT     H110129  -4.462   7.909   3.518  1.8793  2.3857 -0.3624
 2081WAT     H210130  -4.449   7.805   3.410 -1.6895 -0.6667  1.8993
 2081WAT    EPW10131  -4.412   7.856   3.470  0.2518  0.6485 -0.2364
 2082WAT      O10132   3.037   5.125   1.733 -0.5458  0.8293 -0.2814
 2082WAT     H110133   3.084   5.101   1.653  1.3406 -2.8625  1.7111
 2082WAT     H210134   2.946   5.102   1.715  0.4753 -4.7956 -0.0603
 2082WAT    EPW10135   3.031   5.119   1.720 -0.1624 -0.3994  0.0106
 2083WAT      O10136   2.781   4.954   1.404  0.2494  0.7471  0.3248
 2083WAT     H110137   2.868   4.969   1.365  0.3340  1.7907  0.8829
 2083WAT     H210138   2.792   4.874   1.455  0.1293 -0.6800 -1.7528
 2083WAT    EPW10139   2.794   4.945   1.406  0.2446  0.6964  0.1244
 2084WAT      O10140   3.594   4.776   4.550 -0.0602 -0.0219  0.0957
 2084WAT     H110141   3.547   4.774   4.633 -0.2096  1.6726  0.0845
 2084WAT     H210142   3.679   4.814   4.571 -0.4152  1.2564 -0.6346
 2084WAT    EPW10143   3.599   4.781   4.564 -0.1267  0.3703 -0.0021
 2085WAT      O10144   6.626   0.586   6.376  0.3421 -0.5994 -0.0780
 2085WAT     H110145   6.547   0.565   6.425  0.6285 -0.4249  0.4779
 2085WAT     H210146   6.648   0.505   6.329 -0.3486 -0.5428 -0.5070
 2085WAT    EPW10147   6.619   0.572   6.376  0.2890 -0.5690 -0.0610
 2086WAT      O10148   1.395   2.980   4.177 -0.4029  0.0265 -0.5119
 2086WAT     H110149   1.404   2.924   4.100 -1.4658  1.3399 -1.6733
 2086WAT     H210150   1.320   3.036   4.156 -1.7058 -0.5905  2.1603
 2086WAT    EPW10151   1.386   2.980   4.164 -0.7149  0.1184 -0.3126
 2087WAT      O10152  -4.210   4.061   8.486  0.7420 -0.5149  0.8929
 2087WAT     H110153  -4.190   4.078   8.394  0.7704 -1.1492  0.7773
 2087WAT     H210154  -4.273   4.129   8.510 -0.3281 -1.1632  0.0100
 2087WAT    EPW10155  -4.216   4.072   8.477  0.6049 -0.6843  0.7610
 2088WAT      O10156   6.533   3.458   4.551  0.5536  0.7415  0.0597
 2088WAT     H110157   6.496   3.477   4.464  0.1830 -3.3065 -0.8361
 2088WAT     H210158   6.628   3.464   4.539  0.5908 -1.5235 -1.2039
 2088WAT    EPW10159   6.541   3.462   4.538  0.5097 -0.0911 -0.2253
 2089WAT      O10160   1.962   1.339   7.267 -0.6605  0.4230  0.5742
 2089WAT     H110161   2.029   1.362   7.203 -1.0121  1.4400  0.5471
 2089WAT     H210162   2.001   1.268   7.319 -0.3031 -0.2726 -0.6238
 2089WAT    EPW10163   1.976   1.333   7.266 -0.6598  0.4654  0.4125
 2090WAT      O10164  -5.596  10.125   5.015 -0.0894 -0.0841 -0.2247
 2090WAT     H110165  -5.598  10.184   5.090 -0.2224 -0.2420 -0.1037
 2090WAT     H210166  -5.685  10.089   5.011  0.1129 -0.6073 -0.0336
 2090WAT    EPW10167  -5.608  10.128   5.024 -0.0803 -0.1736 -0.1836
 2091WAT      O10168   5.164   3.482   3.327  0.5593 -0.0860 -0.2311
 2091WAT     H110169   5.164   3.395   3.289 -1.7122  0.1468 -0.9085
 2091WAT     H210170   5.188   3.540   3.255  0.0403  0.0179 -0.3239
 2091WAT    EPW10171   5.167   3.478   3.313  0.1915 -0.0415 -0.3327
 2092WAT      O10172  -4.251   3.256   8.169  0.1667  0.1512  0.0346
 2092WAT     H110173  -4.343   3.277   8.186  0.0576  0.5424 -1.0001
 2092WAT     H210174  -4.203   3.331   8.203  0.0981  0.0247  0.4189
 2092WAT    EPW10175  -4.257   3.268   8.176  0.1433  0.1861 -0.0510
 2093WAT      O10176   4.341   5.949   3.174 -0.0303 -0.5989 -0.6300
 2093WAT     H110177   4.250   5.974   3.156  0.5008  1.1157 -1.0395
 2093WAT     H210178   4.357   5.982   3.262 -0.2527 -2.3108  0.1083
 2093WAT    EPW10179   4.331   5.956   3.183  0.0103 -0.5987 -0.5866
 2094WAT      O10180   3.636   3.000   7.157 -0.1593  0.4175  0.6187
 2094WAT     H110181   3.682   2.920   7.129 -1.2828 -0.2807  0.6840
 2094WAT     H210182   3.556   3.000   7.106 -0.4645  1.1752  1.0835
 2094WAT    EPW10183   3.632   2.989   7.147 -0.3477  0.4253  0.6886
 2095WAT      O10184   5.357   2.833   1.933  0.1878 -0.0200 -0.3092
 2095WAT     H110185   5.346   2.810   1.840 -2.0111  0.7976 -0.3156
 2095WAT     H210186   5.418   2.767   1.967  0.5999 -0.6794 -2.1904
 2095WAT    EPW10187   5.364   2.821   1.925 -0.0479  0.0007 -0.5582
 2096WAT      O10188   1.089   5.931   4.547 -0.1696  0.6312  0.0552
 2096WAT     H110189   1.026   5.980   4.495 -0.3981 -1.5862 -1.9302
 2096WAT     H210190   1.037   5.890   4.616 -1.2683 -1.9155 -2.0868
 2096WAT    EPW10191   1.074   5.932   4.549 -0.3446  0.0029 -0.4892
 2097WAT      O10192   4.702   6.787   5.110 -0.4766 -0.2471 -0.0051
 2097WAT     H110193   4.768   6.734   5.066 -0.3932 -0.3303  0.2201
 2097WAT     H210194   4.749   6.833   5.179 -0.1196  1.7720 -1.5166
 2097WAT    EPW10195   4.717   6.786   5.114 -0.4184  0.0083 -0.1750
 2098WAT      O10196   3.420   5.766   1.251  0.3727 -0.1477 -0.2444
 2098WAT     H110197   3.513   5.783   1.263  0.6152 -1.2624 -0.4234
 2098WAT     H210198   3.392   5.831   1.186  0.3834  1.9555  1.7232
 2098WAT    EPW10199   3.429   5.777   1.244  0.4060 -0.0172 -0.0085
 2099WAT      O10200   4.649   9.616   0.863 -0.1203 -1.1537  0.1691
 2099WAT     H110201   4.714   9.555   0.898 -0.1452 -0.9355  0.5959
 2099WAT     H210202   4.604   9.650   0.940 -0.5182 -1.0536 -0.1049
 2099WAT    EPW10203   4.651   9.612   0.878 -0.1760 -1.1115  0.1893
 2100WAT      O10204   0.308   8.299   6.854  0.0284 -0.6104  0.6250
 2100WAT     H110205   0.400   8.303   6.825  0.3593 -0.6365  1.6479
 2100WAT     H210206   0.308   8.343   6.939 -1.0969  0.2421  0.1981
 2100WAT    EPW10207   0.320   8.305   6.861 -0.0764 -0.5016  0.7038
 2101WAT      O10208   0.743   7.623   4.535 -0.3485  0.4109  0.2188
 2101WAT     H110209   0.819   7.566   4.548  0.6438  2.1119  2.6323
 2101WAT     H210210   0.668   7.568   4.556 -0.0495 -1.6051 -3.1564
 2101WAT    EPW10211   0.743   7.608   4.539 -0.1782  0.3693  0.0918
 2102WAT      O10212  -5.780   3.507   8.777 -0.2715  0.4005  0.0725
 2102WAT     H110213  -5.687   3.499   8.758 -0.1173 -1.0620  1.2836
 2102WAT     H210214  -5.790   3.596   8.811  0.6865  0.5400  0.0032
 2102WAT    EPW10215  -5.769   3.518   8.779 -0.1245  0.2260  0.2232
 2103WAT      O10216  -2.605   7.474   3.010 -0.1416 -0.2370  0.0927
 2103WAT     H110217  -2.604   7.455   3.104  0.4983  0.4974  0.2501
 2103WAT     H210218  -2.574   7.393   2.969 -0.0819 -0.4426  0.5365
 2103WAT    EPW10219  -2.601   7.461   3.017 -0.0492 -0.1671  0.1720
 2104WAT      O10220   1.797   8.413   6.830 -0.5316  0.4055 -0.3061
 2104WAT     H110221   1.858   8.452   6.893 -2.7867  1.8736  1.1406
 2104WAT     H210222   1.807   8.465   6.751  1.8610 -1.0297 -1.0290
 2104WAT    EPW10223   1.806   8.425   6.828 -0.5134  0.4096 -0.2108
 2105WAT      O10224  -2.663   9.460   6.442 -0.0625  0.4966 -0.0710
 2105WAT     H110225  -2.701   9.372   6.441 -0.6945  0.7629 -0.1222
 2105WAT     H210226  -2.686   9.495   6.527 -0.6557  0.9635 -0.4139
 2105WAT    EPW10227  -2.671   9.453   6.453 -0.2240  0.5932 -0.1230
 2106WAT      O10228   1.839   6.094   4.829  0.1430 -0.4263  0.6878
 2106WAT     H110229   1.894   6.167   4.800  0.4522 -1.2812 -1.0762
 2106WAT     H210230   1.835   6.102   4.924  0.8193  1.4079  0.5961
 2106WAT    EPW10231   1.846   6.105   4.837  0.2730 -0.2971  0.4432
 2107WAT      O10232   4.078   2.302   7.006 -0.0824  0.0232  0.3252
 2107WAT     H110233   4.030   2.246   6.944 -0.2612  0.2541  0.2576
 2107WAT     H210234   4.030   2.384   7.007 -0.8974 -0.4458  1.8509
 2107WAT    EPW10235   4.065   2.305   6.998 -0.2134 -0.0082  0.5178
 2108WAT      O10236  -1.115   9.244   7.331  0.0376  0.0163  0.1996
 2108WAT     H110237  -1.063   9.165   7.344 -0.9325 -1.0217 -1.6779
 2108WAT     H210238  -1.101   9.266   7.239 -0.1774  1.7086  0.5448
 2108WAT    EPW10239  -1.107   9.237   7.320 -0.1187  0.1030 -0.0024
 2109WAT      O10240   1.665   8.566   2.700  0.6349 -0.1232 -0.0579
 2109WAT     H110241   1.630   8.653   2.717 -2.7579 -1.7563  2.4968
 2109WAT     H210242   1.606   8.528   2.636  0.5303 -1.3655  0.7422
 2109WAT    EPW10243   1.653   8.573   2.694  0.1736 -0.5021  0.3844
 2110WAT      O10244   6.425   1.071   3.081  0.5533 -0.1244  0.5117
 2110WAT     H110245   6.497   1.056   3.141 -0.4710 -3.0033  1.1771
 2110WAT     H210246   6.365   0.999   3.097 -2.1611  1.7378 -0.5297
 2110WAT    EPW10247   6.426   1.060   3.091  0.0601 -0.2585  0.4622
 2111WAT      O10248   2.527   2.692   0.981  0.1678 -0.5240  0.8867
 2111WAT     H110249   2.546   2.602   0.954  2.3046 -0.5374  2.2025
 2111WAT     H210250   2.440   2.687   1.022 -0.0921 -1.8034  0.2388
 2111WAT    EPW10251   2.518   2.679   0.983  0.4154 -0.6945  0.9748
 2112WAT      O10252   6.494   4.758   1.916 -0.2206 -0.0115 -0.3791
 2112WAT     H110253   6.417   4.774   1.861 -0.4279  0.1629 -0.0409
 2112WAT     H210254   6.473   4.678   1.964 -1.2851  1.3983  1.6099
 2112WAT    EPW10255   6.481   4.750   1.915 -0.3884  0.1974 -0.0721
 2113WAT      O10256  -5.811   9.638   7.218 -0.0050  0.2520  0.4594
 2113WAT     H110257  -5.822   9.638   7.123  2.5949 -2.0899  0.0265
 2113WAT     H210258  -5.852   9.556   7.246  0.9476 -0.0351  1.0618
 2113WAT    EPW10259  -5.818   9.627   7.209  0.4635 -0.0944  0.4816
 2114WAT      O10260   1.390   7.405   5.701  0.6108 -0.3953  0.5187
 2114WAT     H110261   1.381   7.317   5.740  1.0241 -0.7505 -0.1809
 2114WAT     H210262   1.419   7.389   5.612 -0.4849  0.4152 -0.0057
 2114WAT    EPW10263   1.392   7.391   5.695  0.5207 -0.3350  0.3574
 2115WAT      O10264   0.201   0.686   6.604 -0.4435  0.5517  0.3254
 2115WAT     H110265   0.221   0.655   6.515  1.3588  0.7407  0.6199
 2115WAT     H210266   0.161   0.772   6.591 -2.9939 -0.6476 -0.3793
 2115WAT    EPW10267   0.199   0.693   6.590 -0.5422  0.4185  0.2713
 2116WAT      O10268   7.743   3.963   2.637 -0.7162 -0.0497  0.2259
 2116WAT     H110269   7.671   3.917   2.678 -0.5492  0.5037  1.1819
 2116WAT     H210270   7.730   4.055   2.662  0.9487 -0.0900  1.4460
 2116WAT    EPW10271   7.732   3.969   2.646 -0.4745  0.0179  0.5130
 2117WAT      O10272  -7.071   9.070   7.994  0.0049 -0.6392  0.0801
 2117WAT     H110273  -7.015   9.062   7.918 -1.5014 -0.2914 -1.1092
 2117WAT     H210274  -7.039   9.148   8.040  1.7423 -1.5934  0.5588
 2117WAT    EPW10275  -7.059   9.079   7.990  0.0353 -0.7191 -0.0136
 2118WAT      O10276  -1.821   0.749   5.526  0.2790  0.5195 -0.2532
 2118WAT     H110277  -1.895   0.751   5.465  0.6669 -0.5702 -0.7974
 2118WAT     H210278  -1.778   0.834   5.514 -0.1295  0.6457 -0.8846
 2118WAT    EPW10279  -1.825   0.761   5.516  0.2763  0.3924 -0.4082
 2119WAT      O10280  -4.118   6.375   5.314 -0.2448  0.3024 -0.3054
 2119WAT     H110281  -4.191   6.362   5.254 -0.2381 -1.9524  0.0751
 2119WAT     H210282  -4.056   6.430   5.266 -1.0718  0.1190 -1.6243
 2119WAT    EPW10283  -4.119   6.381   5.300 -0.3529 -0.0191 -0.4289
 2120WAT      O10284  -3.760   9.543   6.626 -0.1220  1.0057 -0.8974
 2120WAT     H110285  -3.818   9.472   6.652 -1.8519  3.0898  1.3516
 2120WAT     H210286  -3.689   9.542   6.690 -0.9731  2.2128  0.0895
 2120WAT    EPW10287  -3.758   9.533   6.638 -0.4625  1.4396 -0.4706
 2121WAT      O10288  -0.562  10.205   0.432 -0.0121 -0.0497  0.4203
 2121WAT     H110289  -0.475  10.165   0.425  0.5485  1.0816  0.7209
 2121WAT     H210290  -0.589  10.221   0.342 -1.8992 -4.4017 -0.0400
 2121WAT    EPW10291  -0.554  10.202   0.420 -0.1870 -0.4745  0.3992
 2122WAT      O10292   3.357   2.724   1.603 -0.0330 -1.2426 -0.1992
 2122WAT     H110293   3.431   2.738   1.543  2.0478 -3.5134  1.6001
 2122WAT     H210294   3.375   2.782   1.676 -0.5171 -1.1839 -0.1266
 2122WAT    EPW10295   3.369   2.733   1.604  0.1776 -1.5343  0.0477
 2123WAT      O10296  -2.107   5.812   8.857  0.2732  0.1561  0.0384
 2123WAT     H110297  -2.018   5.848   8.858 -0.1930  1.3856  0.1235
 2123WAT     H210298  -2.157   5.874   8.911 -1.0214  0.5652 -1.5777
 2123WAT    EPW10299  -2.102   5.825   8.865  0.0410  0.3724 -0.1636
 2124WAT      O10300  -2.994   3.812   5.185 -0.1499  0.1868  0.0733
 2124WAT     H110301  -3.063   3.821   5.120 -0.8445 -1.4282  0.5200
 2124WAT     H210302  -3.022   3.738   5.239  2.3682 -1.1413 -0.2918
 2124WAT    EPW10303  -3.007   3.803   5.184  0.0905 -0.2015  0.0842
 2125WAT      O10304   7.461   1.177   3.274 -0.7346 -0.6908  0.3639
 2125WAT     H110305   7.383   1.226   3.249 -1.0894 -1.7024 -0.5823
 2125WAT     H210306   7.442   1.087   3.249  0.6666 -0.9866  0.2858
 2125WAT    EPW10307   7.449   1.172   3.267 -0.5965 -0.8633  0.2288
 2126WAT      O10308   0.074   6.474   5.196  0.0678 -0.6777  0.2387
 2126WAT     H110309   0.045   6.490   5.107 -1.3835 -1.1389  0.6085
 2126WAT     H210310   0.126   6.552   5.219  1.7903 -1.2362 -1.5019
 2126WAT    EPW10311   0.077   6.486   5.187  0.1036 -0.8123  0.0579
 2127WAT      O10312  -3.457   5.064   7.632 -0.5110 -0.0302  0.5208
 2127WAT     H110313  -3.397   5.134   7.605 -1.9099  1.2257  0.5454
 2127WAT     H210314  -3.477   5.085   7.723 -2.3114  0.5806  0.0168
 2127WAT    EPW10315  -3.451   5.076   7.641 -0.9329  0.2160  0.4575
 2128WAT      O10316  -2.754   0.730   6.484  0.3529  0.1481 -0.2886
 2128WAT     H110317  -2.707   0.754   6.404  0.3238  0.1325 -0.3103
 2128WAT     H210318  -2.844   0.758   6.468  0.7008  1.7994  0.4366
 2128WAT    EPW10319  -2.760   0.737   6.471  0.3949  0.3638 -0.1960
 2129WAT      O10320   0.695   2.468   6.652 -0.0212  0.3844  0.7670
 2129WAT     H110321   0.610   2.502   6.624  0.1338 -1.7758 -2.9531
 2129WAT     H210322   0.757   2.502   6.587  1.0290 -2.3349  0.2352
 2129WAT    EPW10323   0.692   2.477   6.640  0.1378 -0.2592  0.2062
 2130WAT      O10324  -0.818   3.421   4.851 -0.4627 -0.2991 -0.5619
 2130WAT     H110325  -0.863   3.405   4.769 -1.1968 -2.1423  0.1492
 2130WAT     H210326  -0.742   3.363   4.849 -0.3221 -0.1419 -0.0511
 2130WAT    EPW10327  -0.814   3.412   4.840 -0.5410 -0.5214 -0.4008
 2131WAT      O10328  -2.079   7.941   6.568  0.5107  0.0402  0.1997
 2131WAT     H110329  -2.161   7.905   6.532  0.9220  0.6491 -1.4629
 2131WAT     H210330  -2.033   7.865   6.603 -0.3366 -0.4520  0.2846
 2131WAT    EPW10331  -2.084   7.927   6.568  0.4531  0.0556 -0.0086
 2132WAT      O10332   3.590   3.188   1.787  0.2611 -0.0630  0.2309
 2132WAT     H110333   3.535   3.124   1.832  1.2486 -1.0095  0.1262
 2132WAT     H210334   3.632   3.138   1.717  1.4745  0.5510  0.4951
 2132WAT    EPW10335   3.589   3.173   1.784  0.5513 -0.1068  0.2519
 2133WAT      O10336   2.367  10.181   0.107 -0.3272  0.7290 -0.2077
 2133WAT     H110337   2.289  10.142   0.067 -0.8906  1.7364 -0.1157
 2133WAT     H210338   2.421  10.208   0.032 -0.6526  1.1701 -0.2884
 2133WAT    EPW10339   2.364  10.180   0.091 -0.4444  0.9198 -0.2062
 2134WAT      O10340  -5.697   6.316   7.942  0.2444  0.0132  0.0574
 2134WAT     H110341  -5.617   6.369   7.943 -0.3039  0.8681 -0.3193
 2134WAT     H210342  -5.701   6.280   7.854  0.4712 -0.4369  0.2285
 2134WAT    EPW10343  -5.687   6.318   7.930  0.2019  0.0665  0.0303
 2135WAT      O10344   3.688   9.692   3.640 -0.0023 -0.3544  0.0862
 2135WAT     H110345   3.702   9.694   3.735 -0.4918  0.9586  0.1460
 2135WAT     H210346   3.615   9.631   3.628  0.2462 -0.7427  0.5244
 2135WAT    EPW10347   3.680   9.684   3.651 -0.0341 -0.2327  0.1519
 2136WAT      O10348   4.754   9.261   2.719  0.2835  0.1563 -0.6337
 2136WAT     H110349   4.833   9.207   2.710  0.7784  0.4923  1.2322
 2136WAT     H210350   4.704   9.218   2.788  0.1490  1.4460  0.0971
 2136WAT    EPW10351   4.758   9.248   2.727  0.3309  0.3710 -0.2911
 2137WAT      O10352   0.204   7.040   4.155  0.4966  0.2498 -0.6191
 2137WAT     H110353   0.231   6.957   4.115 -1.6366 -0.4342 -0.7598
 2137WAT     H210354   0.183   7.016   4.245 -2.2786  0.0887 -1.2261
 2137WAT    EPW10355   0.205   7.026   4.162 -0.1508  0.1385 -0.7176
 2138WAT      O10356   1.831   5.996   4.310  0.0609 -0.0139  0.2860
 2138WAT     H110357   1.878   6.059   4.365  0.7176  0.7569 -1.1232
 2138WAT     H210358   1.797   5.932   4.373 -3.2124  3.2272  2.2621
 2138WAT    EPW10359   1.832   5.996   4.326 -0.2843  0.5152  0.3610
 2139WAT      O10360  -0.935   5.618   0.645  0.2608 -0.0705 -0.3380
 2139WAT     H110361  -1.009   5.615   0.585  0.5960 -1.0861 -0.7263
 2139WAT     H210362  -0.881   5.543   0.620  0.1773 -0.8095  1.5246
 2139WAT    EPW10363  -0.937   5.607   0.634  0.2940 -0.3016 -0.1436
 2140WAT      O10364   1.444   7.646   3.388  0.1479  0.2909 -0.1254
 2140WAT     H110365   1.457   7.583   3.317 -1.4519  0.9326 -1.0262
 2140WAT     H210366   1.418   7.726   3.344 -1.3070  0.5792  1.2117
 2140WAT    EPW10367   1.443   7.648   3.373 -0.2550  0.4134 -0.0679
 2141WAT      O10368   2.661   1.228   7.856  0.1098  0.0915  0.1981
 2141WAT     H110369   2.590   1.223   7.792  1.5745  0.7913 -1.5579
 2141WAT     H210370   2.676   1.137   7.883 -3.4979  0.0878  3.1404
 2141WAT    EPW10371   2.653   1.215   7.851 -0.1729  0.1833  0.3545
 2142WAT      O10372  -0.063   4.974   8.599  0.9678  0.5485 -0.6827
 2142WAT     H110373  -0.002   4.900   8.598  0.2041 -0.1478  0.7971
 2142WAT     H210374  -0.149   4.934   8.609  0.7171  1.6352  2.7725
 2142WAT    EPW10375  -0.066   4.959   8.600  0.8340  0.5999 -0.0319
 2143WAT      O10376  -1.291   3.045   7.051 -0.1848  0.5548  0.1737
 2143WAT     H110377  -1.204   3.050   7.011  0.5958 -3.9006  0.7152
 2143WAT     H210378  -1.273   3.052   7.145 -0.0822 -1.6009  0.3770
 2143WAT    EPW10379  -1.277   3.047   7.058 -0.0683 -0.3172  0.2718
 2144WAT      O10380   3.954   5.597   0.882  0.4514 -0.1642  0.0686
 2144WAT     H110381   4.010   5.534   0.928 -2.7507 -2.2007  1.5501
 2144WAT     H210382   3.875   5.603   0.936 -1.7068  0.8007 -2.9058
 2144WAT    EPW10383   3.951   5.589   0.895 -0.2555 -0.3054 -0.1283
 2145WAT      O10384   5.277   5.172   4.071  0.3506  0.5855  0.0679
 2145WAT     H110385   5.325   5.255   4.076  1.1653  0.2177 -1.2397
 2145WAT     H210386   5.311   5.120   4.144  3.2172 -0.2716 -1.7358
 2145WAT    EPW10387   5.288   5.176   4.081  0.8359  0.4239 -0.3424
 2146WAT      O10388   1.608   8.639   5.440  1.0192 -0.6943  0.0052
 2146WAT     H110389   1.549   8.641   5.364 -0.1710 -1.6725  0.8539
 2146WAT     H210390   1.642   8.728   5.446 -0.3485 -0.0935 -0.5579
 2146WAT    EPW10391   1.604   8.651   5.431  0.6819 -0.7439  0.0429
 2147WAT      O10392  -0.102   7.164   5.490  0.0859  0.5924 -0.7426
 2147WAT     H110393  -0.010   7.184   5.474  0.1417  1.3017  0.3352
 2147WAT     H210394  -0.136   7.137   5.405  0.8418  2.1827 -1.6075
 2147WAT    EPW10395  -0.094   7.163   5.477  0.1930  0.8957 -0.7143
 2148WAT      O10396   5.768   1.919   5.801 -0.0397  0.1711  0.8771
 2148WAT     H110397   5.695   1.965   5.841 -0.8984 -1.7450  1.6381
 2148WAT     H210398   5.828   1.902   5.874  1.2646  1.8150  0.2446
 2148WAT    EPW10399   5.767   1.923   5.816  0.0191  0.1352  0.8941
 2149WAT      O10400   9.408   0.762   1.109 -0.0615  0.2762 -0.2756
 2149WAT     H110401   9.418   0.821   1.035 -2.9725 -0.2156 -1.1937
 2149WAT     H210402   9.433   0.676   1.075  1.6703  0.4943  0.3181
 2149WAT    EPW10403   9.413   0.758   1.095 -0.2174  0.2401 -0.3183
 2150WAT      O10404   3.784   5.647   1.867 -0.5924  0.6570  0.2799
 2150WAT     H110405   3.825   5.706   1.804 -1.2596 -1.1668 -1.9517
 2150WAT     H210406   3.857   5.595   1.902 -0.3757  0.8800  0.1623
 2150WAT    EPW10407   3.799   5.648   1.864 -0.6518  0.4461 -0.0299
 2151WAT      O10408  -1.404   6.080   0.042 -0.6214 -0.0077 -0.3703
 2151WAT     H110409  -1.326   6.132   0.024 -0.7925  0.0532 -0.9642
 2151WAT     H210410  -1.372   6.005   0.092  0.4083 -1.7657 -3.4161
 2151WAT    EPW10411  -1.390   6.077   0.046 -0.5082 -0.2315 -0.8504
 2152WAT      O10412   0.170   7.265   6.618  0.0745  0.5261 -0.9527
 2152WAT     H110413   0.082   7.237   6.594 -0.8007  0.8505  1.5814
 2152WAT     H210414   0.158   7.355   6.650  0.5082 -0.6882  3.1503
 2152WAT    EPW10415   0.157   7.273   6.619  0.0162  0.4089 -0.0775
 2153WAT      O10416  -5.565   4.973   8.807 -0.6025 -0.3892  0.5734
 2153WAT     H110417  -5.580   5.003   8.897  1.8087  2.9145  0.0543
 2153WAT     H210418  -5.479   4.932   8.810  1.5842  3.5598 -0.7439
 2153WAT    EPW10419  -5.556   4.972   8.820  0.0038  0.5674  0.3314
 2154WAT      O10420   5.405   3.724   3.785 -0.3900  0.0171 -0.6836
 2154WAT     H110421   5.387   3.778   3.707  2.5707  2.4535  0.1192
 2154WAT     H210422   5.351   3.763   3.853 -1.3266 -0.7079 -0.9954
 2154WAT    EPW10423   5.395   3.736   3.784 -0.1228  0.2428 -0.6188
 2155WAT      O10424   1.390   0.350   2.819 -0.0914 -0.0590 -0.3289
 2155WAT     H110425   1.462   0.404   2.787 -1.3028  1.2610 -0.9098
 2155WAT     H210426   1.382   0.281   2.753 -0.1799  0.5252 -0.9406
 2155WAT    EPW10427   1.398   0.348   2.806 -0.2628  0.1922 -0.4861
 2156WAT      O10428   5.456   2.430   4.290  0.4687 -0.2003 -0.0910
 2156WAT     H110429   5.542   2.408   4.327 -0.4648 -0.4036  2.0906
 2156WAT     H210430   5.394   2.379   4.341 -1.1550  1.7807  0.0127
 2156WAT    EPW10431   5.459   2.420   4.301  0.1314  0.0341  0.2103
 2157WAT      O10432   4.288   5.368   2.595  0.5603  0.0553  0.6961
 2157WAT     H110433   4.221   5.430   2.566 -1.2110 -2.5678 -1.3561
 2157WAT     H210434   4.281   5.368   2.690 -1.1396  1.1559  0.6130
 2157WAT    EPW10435   4.278   5.376   2.603  0.1023 -0.1457  0.4145
 2158WAT      O10436   2.120   4.097   4.290  0.1351  0.6142  0.1267
 2158WAT     H110437   2.209   4.064   4.289  0.4033  1.2753 -1.2916
 2158WAT     H210438   2.073   4.040   4.351  0.9080 -1.4311 -1.0983
 2158WAT    EPW10439   2.125   4.086   4.298  0.2724  0.4318 -0.2217
 2159WAT      O10440   1.221   0.366   2.524 -0.3266 -0.2613  0.1825
 2159WAT     H110441   1.246   0.283   2.565  1.9002  0.2384 -0.0471
 2159WAT     H210442   1.284   0.430   2.558  1.1524  0.3559 -3.2547
 2159WAT    EPW10443   1.232   0.364   2.534  0.1622 -0.1140 -0.3011
 2160WAT      O10444   7.411   9.035   0.673  0.7075  0.2716 -0.4270
 2160WAT     H110445   7.316   9.048   0.664  0.4717 -2.0186 -2.6167
 2160WAT     H210446   7.425   8.947   0.638  3.9254  1.3436 -2.2111
 2160WAT    EPW10447   7.400   9.025   0.667  1.1008  0.1111 -0.9512
 2161WAT      O10448  -3.350   4.139   4.001 -0.4936  0.0907  0.3545
 2161WAT     H110449  -3.356   4.206   3.933  0.5869  0.3657  0.5090
 2161WAT     H210450  -3.267   4.157   4.045 -0.2973 -1.2068  0.5569
 2161WAT    EPW10451  -3.340   4.151   3.998 -0.3251 -0.0441  0.4015
 2162WAT      O10452   7.436   1.266   2.777 -0.2795  0.0808 -0.6707
 2162WAT     H110453   7.355   1.312   2.751  0.1813  1.0709 -0.4224
 2162WAT     H210454   7.484   1.331   2.828 -0.5522 -1.3771  1.5521
 2162WAT    EPW10455   7.432   1.281   2.780 -0.2546  0.0191 -0.3448
 2163WAT      O10456   0.029   1.936   3.974  0.7407  0.1742 -0.3017
 2163WAT     H110457   0.112   1.890   3.967  1.3600  1.2329 -0.0653
 2163WAT     H210458   0.030   1.977   4.060 -0.2916 -0.2851 -0.0525
 2163WAT    EPW10459   0.040   1.935   3.984  0.6862  0.2533 -0.2377
 2164WAT      O10460  -4.829   9.466   8.571  0.3903  0.1786 -0.7200
 2164WAT     H110461  -4.913   9.462   8.526 -0.4277  1.0573  0.6691
 2164WAT     H210462  -4.772   9.410   8.519 -1.0488 -0.4589 -1.6853
 2164WAT    EPW10463  -4.833   9.458   8.558  0.0925  0.2103 -0.6642
 2165WAT      O10464  -2.431   7.732   1.126 -0.3091  0.4215  0.2442
 2165WAT     H110465  -2.375   7.773   1.060  0.7343 -0.8964  0.2611
 2165WAT     H210466  -2.430   7.639   1.103 -1.9165  0.2624  0.6926
 2165WAT    EPW10467  -2.423   7.725   1.114 -0.3836  0.2265  0.3056
 2166WAT      O10468  -0.930   4.739   6.383 -1.1280 -0.5277  0.6280
 2166WAT     H110469  -1.021   4.712   6.399 -0.9771 -1.6425 -0.2656
 2166WAT     H210470  -0.931   4.775   6.295 -0.3794 -2.3305 -0.1807
 2166WAT    EPW10471  -0.942   4.740   6.374 -1.0094 -0.9124  0.4034
 2167WAT      O10472  -3.944   2.622   6.709 -0.6004  0.0764 -0.0319
 2167WAT     H110473  -4.019   2.681   6.710 -0.0329  0.8043  0.1547
 2167WAT     H210474  -3.897   2.640   6.791  0.8009  0.9807 -0.9933
 2167WAT    EPW10475  -3.948   2.632   6.720 -0.3407  0.2917 -0.1342
 2168WAT      O10476  -0.746   9.955   2.939  0.5206 -0.2595 -0.1599
 2168WAT     H110477  -0.812   9.918   2.996  0.6835 -2.2411 -1.1528
 2168WAT     H210478  -0.793   9.978   2.859  0.4696  1.5814  0.3409
 2168WAT    EPW10479  -0.761   9.953   2.936  0.5353 -0.2780 -0.2248
 2169WAT      O10480   0.085   7.048   0.990  0.2116 -0.8199 -0.7446
 2169WAT     H110481   0.120   7.005   0.911  2.1020  0.1988 -0.5251
 2169WAT     H210482   0.157   7.045   1.052 -0.5163  0.3493  0.1892
 2169WAT    EPW10483   0.099   7.042   0.987  0.3649 -0.5314 -0.5924
 2170WAT      O10484  -3.016   5.192   8.592 -0.0182  0.1783 -0.8197
 2170WAT     H110485  -2.945   5.128   8.589  1.5959  1.8038  0.3035
 2170WAT     H210486  -2.972   5.275   8.613 -2.5147  0.7975  2.7348
 2170WAT    EPW10487  -3.001   5.195   8.594 -0.1346  0.4745 -0.2027
 2171WAT      O10488  -0.636   6.219   4.845 -0.3372  0.2337 -0.1870
 2171WAT     H110489  -0.701   6.282   4.812  0.1118  0.4640 -0.6362
 2171WAT     H210490  -0.686   6.138   4.857 -0.6930  0.3831 -0.6232
 2171WAT    EPW10491  -0.651   6.217   4.842 -0.3249  0.2837 -0.3037
 2172WAT      O10492   2.565   6.337   3.042  0.4748 -0.2727  0.1561
 2172WAT     H110493   2.652   6.342   3.082  0.0868 -0.3445  1.0295
 2172WAT     H210494   2.551   6.244   3.026 -0.7243 -0.6959  3.0114
 2172WAT    EPW10495   2.574   6.326   3.046  0.2656 -0.3378  0.6478
 2173WAT      O10496  -0.740   1.054   1.080 -0.4774  0.1010 -0.5724
 2173WAT     H110497  -0.689   1.086   1.154 -1.5794 -0.7838  0.6023
 2173WAT     H210498  -0.751   1.130   1.023  1.0752  0.5974 -0.2571
 2173WAT    EPW10499  -0.734   1.068   1.082 -0.4179  0.0498 -0.3759
 2174WAT      O10500  -2.153   9.323   3.210 -0.9159 -0.4535  0.5942
 2174WAT     H110501  -2.245   9.297   3.223 -1.4078 -0.0954 -1.6723
 2174WAT     H210502  -2.158   9.418   3.193 -0.2394 -0.5573 -0.2441
 2174WAT    EPW10503  -2.166   9.332   3.209 -0.8916 -0.4196  0.1848
 2175WAT      O10504  -0.563   3.687   0.447  0.3909 -0.2257 -0.1586
 2175WAT     H110505  -0.552   3.669   0.354  2.4021 -1.2070  0.2072
 2175WAT     H210506  -0.479   3.725   0.474 -0.5269  1.0267  1.0563
 2175WAT    EPW10507  -0.551   3.690   0.439  0.5351 -0.1900  0.0499
 2176WAT      O10508  -1.695  10.355   2.195  0.5212  0.1238  0.4054
 2176WAT     H110509  -1.719  10.438   2.236 -0.4676  1.4510 -2.5797
 2176WAT     H210510  -1.776  10.305   2.192  0.8758 -0.5191  1.2051
 2176WAT    EPW10511  -1.709  10.360   2.200  0.4376  0.2141  0.1171
 2177WAT      O10512  -4.864   2.484   7.028  0.7485 -0.3781  0.5968
 2177WAT     H110513  -4.923   2.512   7.098  0.1052 -0.3287  0.0438
 2177WAT     H210514  -4.799   2.554   7.022 -0.2820  0.5526 -0.1147
 2177WAT    EPW10515  -4.863   2.497   7.037  0.5279 -0.2489  0.4299
 2178WAT      O10516  -3.927   8.004   7.614 -0.7001 -0.1616  0.4318
 2178WAT     H110517  -3.925   7.944   7.688 -1.4362  0.4851  0.9896
 2178WAT     H210518  -3.907   8.089   7.651  2.1182 -0.2647 -0.6288
 2178WAT    EPW10519  -3.924   8.007   7.629 -0.4255 -0.0901  0.3655
 2179WAT      O10520  -2.330   3.162   8.334 -0.1420  0.2046  0.1533
 2179WAT     H110521  -2.354   3.217   8.408  0.7665  1.1784 -0.2621
 2179WAT     H210522  -2.275   3.217   8.279  0.0469 -0.8294 -0.7340
 2179WAT    EPW10523  -2.326   3.176   8.336  0.0027  0.1967 -0.0181
 2180WAT      O10524   0.513   3.394   8.127 -0.0187  0.2958  0.1609
 2180WAT     H110525   0.436   3.340   8.109  0.0827  0.3482 -0.4544
 2180WAT     H210526   0.492   3.440   8.208 -1.6624  2.1902 -1.2263
 2180WAT    EPW10527   0.500   3.393   8.135 -0.2221  0.5525 -0.1030
 2181WAT      O10528  -0.325   6.638   8.376 -0.1166 -0.7025 -0.8681
 2181WAT     H110529  -0.334   6.678   8.290 -0.5965  0.6481 -0.2261
 2181WAT     H210530  -0.416   6.624   8.405  0.0250 -0.4367 -0.2806
 2181WAT    EPW10531  -0.338   6.641   8.368 -0.1612 -0.4895 -0.7062
 2182WAT      O10532   4.572   2.276   7.988  0.2094  0.5320  0.7253
 2182WAT     H110533   4.589   2.232   8.071  0.3495  0.8702  0.8784
 2182WAT     H210534   4.478   2.267   7.974  0.4069 -0.8388  0.1708
 2182WAT    EPW10535   4.562   2.269   7.997  0.2539  0.3959  0.6723
 2183WAT      O10536   5.713   6.221   1.414 -0.1250 -0.4435  0.7638
 2183WAT     H110537   5.706   6.304   1.366  1.1728 -1.2611 -0.9527
 2183WAT     H210538   5.634   6.173   1.389 -0.1860 -0.2745  0.6297
 2183WAT    EPW10539   5.702   6.225   1.404  0.0381 -0.5291  0.5197
 2184WAT      O10540   5.306   6.251   2.912 -0.0253 -0.3808 -0.2115
 2184WAT     H110541   5.217   6.232   2.943  0.3281 -1.7872  0.0209
 2184WAT     H210542   5.361   6.187   2.957  1.5191  2.0969  1.6878
 2184WAT    EPW10543   5.302   6.240   2.922  0.2248 -0.2396  0.0696
 2185WAT      O10544   5.778   1.031   5.310 -0.1459 -0.7466  0.1229
 2185WAT     H110545   5.828   1.106   5.340  1.4329 -0.9965 -1.7327
 2185WAT     H210546   5.813   0.957   5.360  1.4774 -0.9381 -1.2363
 2185WAT    EPW10547   5.789   1.031   5.321  0.2766 -0.8048 -0.3009
 2186WAT      O10548   5.144   5.394   1.726 -0.1993 -0.1101  0.4263
 2186WAT     H110549   5.072   5.339   1.694 -0.3379 -0.4389  1.2613
 2186WAT     H210550   5.222   5.356   1.687 -0.3790 -0.3928  0.3389
 2186WAT    EPW10551   5.145   5.382   1.717 -0.2415 -0.1910  0.5249
 2187WAT      O10552  -5.571   5.924   6.656 -0.3632  0.2879  0.3799
 2187WAT     H110553  -5.509   5.964   6.718 -0.4547 -1.2635  1.5256
 2187WAT     H210554  -5.590   5.994   6.594  1.0200  1.4042  1.1361
 2187WAT    EPW10555  -5.565   5.939   6.656 -0.1929  0.2303  0.6309
 2188WAT      O10556   0.159   2.126   1.651  0.5479 -0.4203 -0.0742
 2188WAT     H110557   0.179   2.171   1.733  2.0335 -1.0542 -0.0435
 2188WAT     H210558   0.064   2.129   1.644  0.3283 -0.9193  2.0215
 2188WAT    EPW10559   0.149   2.132   1.661  0.7149 -0.5697  0.2063
 2189WAT      O10560   2.551   9.953   0.785  0.8283  0.8184  0.0003
 2189WAT     H110561   2.540   9.981   0.876  0.2395  1.9533 -0.3931
 2189WAT     H210562   2.568   9.859   0.790  2.9886  1.2161  1.4009
 2189WAT    EPW10563   2.552   9.945   0.797  1.0356  1.0204  0.1332
 2190WAT      O10564   5.509   3.080   5.729 -0.0511 -0.2692  0.5626
 2190WAT     H110565   5.455   3.157   5.744 -0.7652 -0.5717 -0.3774
 2190WAT     H210566   5.592   3.115   5.696 -0.2852  0.0979  0.3684
 2190WAT    EPW10567   5.513   3.095   5.727 -0.1760 -0.2607  0.4129
 2191WAT      O10568   1.421   1.552   5.728  0.1381 -0.0935 -0.4899
 2191WAT     H110569   1.460   1.575   5.812 -1.3517  0.0575  0.1872
 2191WAT     H210570   1.351   1.490   5.750 -0.8333  0.5974 -1.5173
 2191WAT    EPW10571   1.417   1.547   5.742 -0.1865  0.0176 -0.5362
 2192WAT      O10572   3.667   2.036   8.177  0.0742  0.3180 -0.5283
 2192WAT     H110573   3.607   2.045   8.251 -0.0728  0.3350 -0.6485
 2192WAT     H210574   3.611   2.046   8.100  0.0716 -0.6362 -0.6541
 2192WAT    EPW10575   3.651   2.039   8.177  0.0545  0.1944 -0.5608
 2193WAT      O10576  -0.887   9.818   3.158  0.2345  0.0342 -0.2140
 2193WAT     H110577  -0.905   9.745   3.099 -1.5674 -0.0822  0.4083
 2193WAT     H210578  -0.974   9.849   3.184  0.9664  2.0074  0.0301
 2193WAT    EPW10579  -0.901   9.813   3.154  0.0934  0.2794 -0.0998
 2194WAT      O10580  -0.657   9.108   7.448 -0.4867 -0.6516 -0.2445
 2194WAT     H110581  -0.630   9.032   7.499  1.0138  0.9442  1.4622
 2194WAT     H210582  -0.659   9.076   7.357  0.0544 -2.7156  0.4108
 2194WAT    EPW10583  -0.654   9.094   7.443 -0.2174 -0.7133  0.0670
 2195WAT      O10584  -3.054   1.600   4.570 -0.2062 -0.1045 -0.0998
 2195WAT     H110585  -3.040   1.520   4.520 -0.9158  1.4872 -3.0782
 2195WAT     H210586  -2.977   1.654   4.553 -0.5423  0.5530  0.3830
 2195WAT    EPW10587  -3.042   1.597   4.561 -0.3442  0.1922 -0.4292
 2196WAT      O10588   4.104   5.921   6.964  0.3113 -0.2102  1.1981
 2196WAT     H110589   4.138   5.913   6.875 -1.3465  0.7408  0.4481
 2196WAT     H210590   4.011   5.899   6.956  0.8891 -4.4600  3.4655
 2196WAT    EPW10591   4.096   5.917   6.951  0.1688 -0.6454  1.3983
 2197WAT      O10592   6.461   8.327   1.491  0.1130 -0.7608  0.0716
 2197WAT     H110593   6.488   8.372   1.411 -0.6542  0.8195  0.6596
 2197WAT     H210594   6.408   8.254   1.460 -0.8204  0.2799 -0.8542
 2197WAT    EPW10595   6.458   8.323   1.476 -0.1113 -0.4153  0.0271
 2198WAT      O10596  -2.476   2.415   8.202  0.2713  0.7606  0.2273
 2198WAT     H110597  -2.523   2.386   8.124 -2.0342  0.1311  1.7135
 2198WAT     H210598  -2.427   2.492   8.174  1.7736 -1.0196 -2.4471
 2198WAT    EPW10599  -2.476   2.421   8.188  0.1653  0.4427  0.0706
 2199WAT      O10600  -3.015   4.979   4.039  0.3277  0.0647  0.1156
 2199WAT     H110601  -2.941   4.922   4.016  1.3557  1.7098 -0.8232
 2199WAT     H210602  -3.043   5.017   3.956  0.6813  2.1061  0.8660
 2199WAT    EPW10603  -3.009   4.976   4.025  0.5100  0.5507  0.0908
 2200WAT      O10604   7.015   4.609   3.727 -0.3576  0.2212  0.7930
 2200WAT     H110605   7.019   4.568   3.813  0.5180 -0.1782  0.5698
 2200WAT     H210606   7.078   4.681   3.731 -0.0791  0.0062  0.3894
 2200WAT    EPW10607   7.024   4.613   3.739 -0.2055  0.1402  0.7104
 2201WAT      O10608   1.304  10.214   2.343 -0.2888 -0.6779  0.1202
 2201WAT     H110609   1.229  10.190   2.398 -0.9966 -0.1997 -0.6190
 2201WAT     H210610   1.377  10.163   2.379 -1.5605 -3.4667 -0.9546
 2201WAT    EPW10611   1.304  10.204   2.355 -0.5499 -0.9828 -0.1191
 2202WAT      O10612   3.650   2.966   1.189  0.7395  0.3356  0.5451
 2202WAT     H110613   3.687   2.991   1.104  0.9625 -1.0471  0.2137
 2202WAT     H210614   3.566   3.012   1.192  1.2163  1.2719  0.0630
 2202WAT    EPW10615   3.644   2.976   1.178  0.8317  0.2767  0.4378
 2203WAT      O10616  -1.786   7.591   1.734  0.1115 -0.3536 -0.1740
 2203WAT     H110617  -1.850   7.528   1.703  0.4931 -1.2278  0.7735
 2203WAT     H210618  -1.777   7.573   1.828 -0.4761  1.7419  0.3367
 2203WAT    EPW10619  -1.793   7.581   1.742  0.0843 -0.1926  0.0184
 2204WAT      O10620   9.454   0.168   2.376 -0.0912 -0.2032  0.5427
 2204WAT     H110621   9.470   0.234   2.444  3.0832 -0.7705  0.4948
 2204WAT     H210622   9.366   0.135   2.395 -0.9070  2.4445  1.8914
 2204WAT    EPW10623   9.444   0.172   2.388  0.2198  0.0712  0.7142
 2205WAT      O10624  -4.362   9.301   8.683 -0.6042 -0.1817 -0.7800
 2205WAT     H110625  -4.370   9.205   8.687  0.9901 -0.4008 -1.8250
 2205WAT     H210626  -4.290   9.322   8.743  0.7020  0.0583 -2.3649
 2205WAT    EPW10627  -4.353   9.291   8.691 -0.2217 -0.1793 -1.1268
 2206WAT      O10628  -3.872   6.415   5.826  1.0681 -0.1066 -0.1456
 2206WAT     H110629  -3.925   6.366   5.888  0.4229  0.6267 -0.1165
 2206WAT     H210630  -3.794   6.360   5.813  0.8298 -0.6484  0.6702
 2206WAT    EPW10631  -3.868   6.401   5.832  0.9515 -0.0813 -0.0341
 2207WAT      O10632   3.860   2.686   5.615  0.5811  0.0600 -0.0541
 2207WAT     H110633   3.873   2.706   5.708  1.0013  1.2661 -0.3444
 2207WAT     H210634   3.945   2.655   5.585  0.1476 -1.4186  0.2031
 2207WAT    EPW10635   3.873   2.685   5.623  0.5795  0.0241 -0.0584
 2208WAT      O10636   1.569   4.202   4.779  0.7567  0.5298 -0.1025
 2208WAT     H110637   1.640   4.222   4.840  1.9943 -1.9155 -0.6113
 2208WAT     H210638   1.614   4.176   4.698 -0.7495 -0.3029 -0.7124
 2208WAT    EPW10639   1.584   4.201   4.776  0.7213  0.0975 -0.2499
 2209WAT      O10640   1.034   9.666   3.226  0.2157 -0.9614 -0.8128
 2209WAT     H110641   1.010   9.608   3.154 -1.7617 -0.0010 -0.9921
 2209WAT     H210642   1.072   9.743   3.183 -0.7717 -0.4791 -0.8618
 2209WAT    EPW10643   1.036   9.669   3.211 -0.1754 -0.7710 -0.8428
 2210WAT      O10644   0.873   8.601   4.090  0.4757 -0.5310 -0.2703
 2210WAT     H110645   0.966   8.588   4.107  1.1382  3.7372  0.5400
 2210WAT     H210646   0.830   8.576   4.172  1.3870  0.8301  0.6692
 2210WAT    EPW10647   0.879   8.596   4.103  0.6833  0.2117 -0.0396
 2211WAT      O10648   1.484   8.311   1.403  0.6184  0.9943  0.2264
 2211WAT     H110649   1.509   8.221   1.426 -2.6457 -0.2011 -0.3379
 2211WAT     H210650   1.500   8.361   1.483 -0.0773 -0.6825  1.4797
 2211WAT    EPW10651   1.490   8.306   1.416  0.0960  0.6156  0.3173
 2212WAT      O10652   1.911   8.991   6.284  0.5173  0.1656  0.0534
 2212WAT     H110653   1.963   8.995   6.364 -0.5775 -2.0363  0.9743
 2212WAT     H210654   1.972   8.959   6.217  1.0498  0.4849  0.3785
 2212WAT    EPW10655   1.926   8.987   6.286  0.4432 -0.0830  0.2177
 2213WAT      O10656  -2.727   0.274   5.965 -0.4727 -0.4072  0.2531
 2213WAT     H110657  -2.712   0.224   5.885 -0.9303 -0.7735  0.3926
 2213WAT     H210658  -2.733   0.365   5.937 -1.0379 -0.5765 -0.1760
 2213WAT    EPW10659  -2.726   0.280   5.951 -0.6076 -0.4779  0.2151
 2214WAT      O10660   4.256   7.835   3.221  0.9539 -0.3461  0.2985
 2214WAT     H110661   4.223   7.753   3.184 -1.7196  1.6820 -2.2659
 2214WAT     H210662   4.340   7.848   3.177  1.1265 -1.4040  0.2811
 2214WAT    EPW10663   4.263   7.826   3.210  0.6239 -0.2182 -0.0421
 2215WAT      O10664   3.178  10.294   0.580 -0.0553 -0.6712  0.7496
 2215WAT     H110665   3.204  10.359   0.645  1.0557 -0.0727 -0.2462
 2215WAT     H210666   3.094  10.326   0.546  0.1041 -0.1744  0.8118
 2215WAT    EPW10667   3.170  10.307   0.584  0.1123 -0.5269  0.6264
 2216WAT      O10668   1.920   4.146   3.441 -0.4084  0.8823 -0.2236
 2216WAT     H110669   1.934   4.215   3.376  0.1194 -0.3237 -1.4214
 2216WAT     H210670   2.007   4.110   3.457 -0.8550 -0.4783 -0.7382
 2216WAT    EPW10671   1.933   4.150   3.435 -0.3976  0.5438 -0.4494
 2217WAT      O10672   1.058   8.770   3.640 -0.2010 -0.0121 -0.1445
 2217WAT     H110673   1.098   8.684   3.629 -0.1199 -0.4568  2.7852
 2217WAT     H210674   1.117   8.831   3.594  0.5279 -1.3203 -0.9927
 2217WAT    EPW10675   1.071   8.767   3.632 -0.0941 -0.2432  0.1301
 2218WAT      O10676   5.240   1.590   0.060  0.2119  1.1861 -0.6064
 2218WAT     H110677   5.223   1.626   0.147  1.0831 -0.1302  0.1419
 2218WAT     H210678   5.334   1.602   0.047  0.4881 -0.5781 -0.4192
 2218WAT    EPW10679   5.250   1.597   0.070  0.3633  0.7797 -0.4830
 2219WAT      O10680  -2.960   7.651   8.217  0.1332  0.0682  0.0063
 2219WAT     H110681  -2.951   7.707   8.294  3.1276 -0.6474  0.3233
 2219WAT     H210682  -2.876   7.659   8.171 -0.1210 -2.4448 -1.1096
 2219WAT    EPW10683  -2.947   7.659   8.221  0.4946 -0.3576 -0.0992
 2220WAT      O10684  -4.004   2.238   6.185 -0.0746  0.2441 -0.6989
 2220WAT     H110685  -4.047   2.309   6.232  0.3717  0.9645 -1.3502
 2220WAT     H210686  -3.910   2.255   6.196  0.0687  1.1130 -2.7668
 2220WAT    EPW10687  -3.997   2.249   6.193  0.0031  0.4537 -1.0574
 2221WAT      O10688  -5.550   7.167   7.640 -0.4354  0.2307 -0.2955
 2221WAT     H110689  -5.485   7.136   7.703  0.3411  1.4862 -0.4303
 2221WAT     H210690  -5.501   7.174   7.557 -1.0733 -0.0274 -0.7005
 2221WAT    EPW10691  -5.535   7.164   7.637 -0.4172  0.3622 -0.3669
 2222WAT      O10692  -1.170   7.630   8.478  0.2472  0.3022 -0.7483
 2222WAT     H110693  -1.217   7.583   8.548  1.5814  0.0331  0.0090
 2222WAT     H210694  -1.078   7.609   8.493  0.7924  2.2202 -1.1094
 2222WAT    EPW10695  -1.164   7.621   8.489  0.4951  0.5195 -0.6957
 2223WAT      O10696   4.185   3.668   1.100  0.6205 -0.6337 -0.0941
 2223WAT     H110697   4.235   3.690   1.021  1.9933 -2.2243  0.2744
 2223WAT     H210698   4.099   3.642   1.067  0.4404  0.8242 -0.8604
 2223WAT    EPW10699   4.180   3.667   1.085  0.7777 -0.6512 -0.1466
 2224WAT      O10700   3.474  10.031   6.154 -0.8452 -0.9651  0.7538
 2224WAT     H110701   3.470  10.088   6.231 -0.9992 -0.3868  0.3269
 2224WAT     H210702   3.461  10.090   6.080 -1.7458 -1.6593  0.3391
 2224WAT    EPW10703   3.472  10.046   6.155 -0.9842 -0.9804  0.6428
 2225WAT      O10704   2.413   4.497   8.137 -0.0248  0.1464  0.8988
 2225WAT     H110705   2.501   4.532   8.145 -0.5629  1.4276  1.5530
 2225WAT     H210706   2.357   4.562   8.180 -1.5261  0.3689 -1.2167
 2225WAT    EPW10707   2.417   4.510   8.144 -0.2939  0.3448  0.7062
 2226WAT      O10708   4.199   9.137   3.369 -0.6009  0.1182  0.9687
 2226WAT     H110709   4.109   9.135   3.339 -0.2990 -1.9355  0.0521
 2226WAT     H210710   4.209   9.056   3.420  0.8637  0.0388  0.5946
 2226WAT    EPW10711   4.189   9.126   3.372 -0.3681 -0.1631  0.7985
 2227WAT      O10712  -0.718   4.077   7.033 -0.1071  0.2613 -0.6544
 2227WAT     H110713  -0.691   4.012   7.098  0.7571  0.1720 -1.0888
 2227WAT     H210714  -0.814   4.073   7.034 -0.1367  0.7718  1.1171
 2227WAT    EPW10715  -0.728   4.068   7.042  0.0030  0.3169 -0.4780
 2228WAT      O10716  -2.795   6.357   8.589  0.3119 -0.7379 -0.1124
 2228WAT     H110717  -2.871   6.338   8.534 -0.2051  0.0875  0.2982
 2228WAT     H210718  -2.749   6.273   8.597 -1.3963 -1.6184  0.9211
 2228WAT    EPW10719  -2.799   6.343   8.582  0.0184 -0.7451  0.0777
 2229WAT      O10720   1.210   0.115   3.483  0.7126 -0.4627  0.9817
 2229WAT     H110721   1.175   0.027   3.497 -1.1143  0.0273 -0.1744
 2229WAT     H210722   1.132   0.171   3.481  1.6774  0.8993 -0.2894
 2229WAT    EPW10723   1.195   0.111   3.485  0.5989 -0.2184  0.6615
 2230WAT      O10724   0.898   1.714   2.411 -0.3771 -0.2058 -0.0792
 2230WAT     H110725   0.839   1.656   2.364  1.1381 -1.5203 -0.4521
 2230WAT     H210726   0.972   1.727   2.351  0.0939  0.7566  0.6655
 2230WAT    EPW10727   0.900   1.708   2.397 -0.1151 -0.2523 -0.0302
 2231WAT      O10728   2.671   2.584   6.204  0.0777 -0.0160 -0.0070
 2231WAT     H110729   2.703   2.500   6.171  0.9248  0.7102 -1.1090
 2231WAT     H210730   2.740   2.647   6.181 -0.8383  1.0935  0.1834
 2231WAT    EPW10731   2.684   2.582   6.197  0.0687  0.2261 -0.1273
 2232WAT      O10732   1.083   3.749   1.823 -0.1618  0.0257 -0.5215
 2232WAT     H110733   1.119   3.834   1.849  2.2646 -1.2421  0.6168
 2232WAT     H210734   0.999   3.744   1.870  1.2077  0.4544  2.1942
 2232WAT    EPW10735   1.077   3.760   1.833  0.3389 -0.0850 -0.0132
 2233WAT      O10736   2.309   4.953   3.755  0.0971 -0.1602 -0.7927
 2233WAT     H110737   2.220   4.964   3.789 -0.2171 -1.8287 -0.9905
 2233WAT     H210738   2.362   5.013   3.807 -0.5897 -1.6462  1.8244
 2233WAT    EPW10739   2.304   4.962   3.766 -0.0350 -0.5760 -0.4735
 2234WAT      O10740   2.559   7.376   0.677 -0.1720  0.2042  0.4409
 2234WAT     H110741   2.497   7.346   0.611  0.0592 -0.6443  0.5995
 2234WAT     H210742   2.616   7.437   0.630 -0.9506  0.7879  0.2335
 2234WAT    EPW10743   2.559   7.380   0.662 -0.2441  0.1693  0.4345
 2235WAT      O10744   5.302   8.895   2.857  0.5249 -0.1795 -0.0334
 2235WAT     H110745   5.303   8.862   2.947 -1.4382 -3.1965 -0.9650
 2235WAT     H210746   5.228   8.956   2.854  1.1577  0.6415  0.5619
 2235WAT    EPW10747   5.292   8.899   2.868  0.3495 -0.4687 -0.0777
 2236WAT      O10748   0.815   0.331   4.618 -0.8071 -0.5569  0.5029
 2236WAT     H110749   0.897   0.289   4.646 -1.2411 -0.7277  1.5731
 2236WAT     H210750   0.820   0.332   4.522  1.4203  1.4117  0.5755
 2236WAT    EPW10751   0.826   0.325   4.609 -0.5705 -0.3197  0.6537
 2237WAT      O10752   4.035   3.300   6.347  0.1142 -0.0642  0.3168
 2237WAT     H110753   4.044   3.374   6.407  3.4754 -1.2869  1.5555
 2237WAT     H210754   4.057   3.336   6.261  1.4623  0.4442  0.8564
 2237WAT    EPW10755   4.039   3.315   6.344  0.7355 -0.1584  0.5512
 2238WAT      O10756   1.727   7.587   6.529 -0.7473  0.4114 -0.3106
 2238WAT     H110757   1.665   7.538   6.583  0.1059  0.0669  0.3798
 2238WAT     H210758   1.798   7.525   6.512 -1.1042  0.4197 -2.0672
 2238WAT    EPW10759   1.728   7.572   6.534 -0.6818  0.3669 -0.4513
 2239WAT      O10760  -1.400   9.723   0.421 -0.0652  0.1869  0.3360
 2239WAT     H110761  -1.412   9.653   0.357  0.8693 -0.0031  0.3579
 2239WAT     H210762  -1.305   9.729   0.433 -0.2090 -0.8290  2.8163
 2239WAT    EPW10763  -1.389   9.714   0.414  0.0391  0.0277  0.6661
 2240WAT      O10764  -1.555   4.833   6.052 -0.2242  0.0727 -0.2804
 2240WAT     H110765  -1.494   4.776   6.099 -1.9624 -1.3111  0.4296
 2240WAT     H210766  -1.500   4.884   5.993  1.7164 -0.3150  1.0951
 2240WAT    EPW10767  -1.540   4.832   6.050 -0.1975 -0.1609 -0.0055
 2241WAT      O10768  -1.299   2.815   7.795  0.3198 -0.8072  0.0402
 2241WAT     H110769  -1.204   2.813   7.784  0.2406 -1.9680 -0.5866
 2241WAT     H210770  -1.319   2.741   7.851 -0.3154 -1.2782 -0.7851
 2241WAT    EPW10771  -1.289   2.805   7.801  0.2255 -1.0225 -0.1512
 2242WAT      O10772  -3.036   2.280   6.916 -0.6252 -1.2993 -0.0490
 2242WAT     H110773  -2.978   2.340   6.963 -0.9400  0.4869 -1.8479
 2242WAT     H210774  -3.048   2.207   6.977 -0.5186  0.5822  2.3743
 2242WAT    EPW10775  -3.030   2.278   6.930 -0.6528 -0.8155  0.0334
 2243WAT      O10776  -6.168   9.403   8.598  0.0271 -0.0346  0.1716
 2243WAT     H110777  -6.129   9.463   8.534  0.7571  0.8393  1.3958
 2243WAT     H210778  -6.211   9.336   8.544  2.5789 -0.6454 -1.2762
 2243WAT    EPW10779  -6.168   9.402   8.582  0.4601  0.0000  0.1421
 2244WAT      O10780   1.575   0.677   6.707 -0.0016  0.1832  0.8009
 2244WAT     H110781   1.530   0.754   6.671  1.6516  0.1085 -1.6943
 2244WAT     H210782   1.523   0.652   6.782 -4.2437  0.0233 -1.8560
 2244WAT    EPW10783   1.562   0.684   6.712 -0.3431  0.1523  0.1216
 2245WAT      O10784   1.761   6.302   2.430 -0.0421 -0.3349 -0.2822
 2245WAT     H110785   1.688   6.240   2.431  1.0469 -1.6844 -1.0783
 2245WAT     H210786   1.739   6.365   2.361 -0.5628 -0.5826 -0.3437
 2245WAT    EPW10787   1.749   6.302   2.421  0.0329 -0.5455 -0.3953
 2246WAT      O10788  -0.026   7.437   1.591  0.1173 -0.2047  0.2160
 2246WAT     H110789  -0.024   7.426   1.496 -1.5548  1.5949 -0.0976
 2246WAT     H210790  -0.115   7.411   1.616  0.0373  0.8189  1.0604
 2246WAT    EPW10791  -0.037   7.432   1.582 -0.1138  0.1676  0.2860
 2247WAT      O10792  -2.018   1.940   3.521  0.4234 -0.2601 -0.3668
 2247WAT     H110793  -1.968   1.881   3.466 -0.4380  0.3695 -1.8880
 2247WAT     H210794  -1.959   2.013   3.539  0.6317 -0.3598 -0.6529
 2247WAT    EPW10795  -2.004   1.942   3.516  0.3372 -0.1903 -0.6051
 2248WAT      O10796   5.329   4.878   4.604  0.5373  0.1593 -0.0324
 2248WAT     H110797   5.268   4.943   4.568  1.7607  2.4301  1.7561
 2248WAT     H210798   5.405   4.929   4.633  1.5690 -2.0752  1.5174
 2248WAT    EPW10799   5.331   4.894   4.603  0.8347  0.1640  0.4079
 2249WAT      O10800   1.201   7.887   7.339 -0.6397 -0.4180 -0.5221
 2249WAT     H110801   1.162   7.939   7.410  0.0215 -1.0193  0.2996
 2249WAT     H210802   1.262   7.828   7.383 -1.6322 -2.1720 -1.3715
 2249WAT    EPW10803   1.204   7.886   7.354 -0.6834 -0.7286 -0.5260
 2250WAT      O10804  -0.226   1.661   5.286 -0.0226  0.5893 -0.0814
 2250WAT     H110805  -0.255   1.580   5.328  0.9707  0.0361 -0.4316
 2250WAT     H210806  -0.183   1.632   5.206  1.4104  1.3656  0.3718
 2250WAT    EPW10807  -0.224   1.647   5.281  0.2974  0.6188 -0.0677
 2251WAT      O10808  -0.021   5.154   1.927  0.0109 -0.4525 -0.6125
 2251WAT     H110809  -0.108   5.147   1.888 -1.1280 -0.4580  1.7245
 2251WAT     H210810  -0.000   5.064   1.955  0.5467 -0.3683 -0.7357
 2251WAT    EPW10811  -0.030   5.141   1.926 -0.0687 -0.4423 -0.3206
 2252WAT      O10812   4.567   8.338   4.300 -0.2579 -0.0277 -0.3996
 2252WAT     H110813   4.655   8.301   4.311 -0.9523 -1.5817  0.3336
 2252WAT     H210814   4.565   8.369   4.210  0.4207 -1.8161 -1.0814
 2252WAT    EPW10815   4.578   8.337   4.290 -0.2601 -0.4687 -0.3927
 2253WAT      O10816   2.138   9.848   7.200 -0.0493  0.2918 -0.3531
 2253WAT     H110817   2.068   9.794   7.239  1.4326 -1.0036  0.6668
 2253WAT     H210818   2.185   9.883   7.276  0.1148  1.5530 -1.0276
 2253WAT    EPW10819   2.135   9.845   7.215  0.1678  0.2875 -0.3073
 2254WAT      O10820   1.200   6.129   3.362  0.3049 -0.8971 -0.4317
 2254WAT     H110821   1.246   6.046   3.350 -1.4089 -1.5603 -3.0546
 2254WAT     H210822   1.192   6.166   3.274  0.1688  1.6240  0.5460
 2254WAT    EPW10823   1.205   6.123   3.349  0.0609 -0.6521 -0.6487
 2255WAT      O10824  -2.122   5.594   0.554  0.2065  0.4896  0.0851
 2255WAT     H110825  -2.197   5.633   0.510 -0.7692 -2.2237 -0.9103
 2255WAT     H210826  -2.047   5.622   0.502 -0.7580 -1.2743 -2.5188
 2255WAT    EPW10827  -2.122   5.603   0.541 -0.0495 -0.1011 -0.3897
 2256WAT      O10828  -6.079   9.698   6.279 -0.0585  0.1009 -0.6101
 2256WAT     H110829  -5.990   9.732   6.265  0.1947 -0.2594  0.0658
 2256WAT     H210830  -6.126   9.720   6.199  0.1671  1.8103 -0.3190
 2256WAT    EPW10831  -6.073   9.705   6.267  0.0045  0.2789 -0.4826
 2257WAT      O10832   9.186   1.603   0.600 -0.7820  0.5164  0.2030
 2257WAT     H110833   9.157   1.684   0.557  2.6799  0.2859 -3.0811
 2257WAT     H210834   9.175   1.536   0.533 -0.7775 -1.1866  1.8551
 2257WAT    EPW10835   9.180   1.605   0.585 -0.3247  0.2614 -0.0122
 2258WAT      O10836  -3.901   8.957   2.542 -0.2206  0.4075  0.3460
 2258WAT     H110837  -3.991   8.936   2.566 -0.1971  1.0659  1.0413
 2258WAT     H210838  -3.892   9.050   2.560  0.6947  0.2854  0.5900
 2258WAT    EPW10839  -3.912   8.966   2.547 -0.0967  0.4778  0.4698
 2259WAT      O10840   1.679   3.930   1.672 -0.7158 -0.6159 -0.4350
 2259WAT     H110841   1.719   4.016   1.663  0.6082 -1.2032 -0.4070
 2259WAT     H210842   1.681   3.893   1.584 -0.9143 -0.7824 -0.3723
 2259WAT    EPW10843   1.684   3.936   1.659 -0.5674 -0.7154 -0.4231
 2260WAT      O10844   7.186   6.009   2.571 -0.1449  0.1597 -0.0849
 2260WAT     H110845   7.178   5.918   2.600 -0.9420  0.2251 -0.0793
 2260WAT     H210846   7.261   6.009   2.512 -1.0774 -0.8172 -1.3282
 2260WAT    EPW10847   7.195   5.997   2.567 -0.3729  0.0393 -0.2482
 2261WAT      O10848  -4.963  10.185   3.444  1.3457 -0.2170 -0.2005
 2261WAT     H110849  -4.895  10.196   3.378  0.3468  0.7679 -1.0802
 2261WAT     H210850  -5.005  10.270   3.451  2.8251  0.4229  3.3320
 2261WAT    EPW10851  -4.959  10.197   3.436  1.4091 -0.0024  0.1494
 2262WAT      O10852   6.662   9.794   1.043 -0.7271 -0.2183  0.5360
 2262WAT     H110853   6.623   9.866   1.092  0.6222  1.1072 -0.2673
 2262WAT     H210854   6.746   9.778   1.086 -0.5366 -0.5676  0.0411
 2262WAT    EPW10855   6.668   9.801   1.055 -0.5240 -0.0896  0.3648
 2263WAT      O10856   3.104   2.859   2.700  0.1042  0.1446 -0.1812
 2263WAT     H110857   3.108   2.765   2.684 -1.3895 -0.0224  0.2212
 2263WAT     H210858   3.014   2.883   2.676  0.0311  1.1981  1.0517
 2263WAT    EPW10859   3.093   2.850   2.695 -0.1025  0.2615  0.0345
 2264WAT      O10860   2.895   8.128   2.707 -0.7235 -0.3172  0.0595
 2264WAT     H110861   2.904   8.033   2.703  1.2127 -0.2553  1.4110
 2264WAT     H210862   2.840   8.144   2.784  0.5329 -0.3373  0.9953
 2264WAT    EPW10863   2.889   8.118   2.717 -0.3024 -0.3119  0.3612
 2265WAT      O10864   7.066   6.174   2.768 -0.2793  0.4210 -0.8518
 2265WAT     H110865   7.088   6.121   2.692  1.0045  0.6802 -0.6794
 2265WAT     H210866   7.125   6.250   2.763  1.4538 -0.6399  1.5632
 2265WAT    EPW10867   7.077   6.177   2.757  0.1185  0.3154 -0.5107
 2266WAT      O10868  -1.016   6.668   3.579 -0.0501  0.2374 -0.2219
 2266WAT     H110869  -1.024   6.726   3.655 -1.9006  1.0296 -0.9553
 2266WAT     H210870  -1.026   6.580   3.615 -1.0107  0.6110  0.4551
 2266WAT    EPW10871  -1.019   6.664   3.594 -0.4209  0.3910 -0.2294
 2267WAT      O10872  -1.803  -0.014   6.069 -0.2874 -0.7724  0.0426
 2267WAT     H110873  -1.805   0.055   6.003 -0.4541 -1.1754 -0.3718
 2267WAT     H210874  -1.718  -0.002   6.112  0.7042 -1.7176 -1.5461
 2267WAT    EPW10875  -1.792  -0.003   6.066 -0.1786 -0.9502 -0.2215
 2268WAT      O10876   1.243   4.902   1.892  0.1545 -0.1360  0.1326
 2268WAT     H110877   1.149   4.905   1.874 -0.0733 -3.3762  0.2169
 2268WAT     H210878   1.259   4.978   1.948 -2.6900 -0.2339  1.2526
 2268WAT    EPW10879   1.233   4.913   1.897 -0.2508 -0.5763  0.2914
 2269WAT      O10880   4.960   3.701   4.905  0.3022  0.5568  0.0929
 2269WAT     H110881   4.961   3.621   4.958 -0.4477 -0.0802 -0.8288
 2269WAT     H210882   5.038   3.749   4.933  1.3113 -0.9470 -0.0115
 2269WAT    EPW10883   4.971   3.697   4.916  0.3362  0.2744 -0.0424
 2270WAT      O10884  -0.175   1.147   7.870 -0.4187  0.1384 -0.3851
 2270WAT     H110885  -0.097   1.120   7.919 -1.9990  2.0850  3.6520
 2270WAT     H210886  -0.199   1.069   7.819  1.6371 -2.0318  1.7122
 2270WAT    EPW10887  -0.168   1.133   7.870 -0.3560  0.1089  0.4239
 2271WAT      O10888   5.648   2.047   3.955 -0.1848  0.1202  0.2099
 2271WAT     H110889   5.571   2.083   3.911 -1.5344 -0.8521  1.6729
 2271WAT     H210890   5.716   2.046   3.887 -1.8372 -0.2973 -1.5302
 2271WAT    EPW10891   5.647   2.052   3.940 -0.5808 -0.0631  0.1732
 2272WAT      O10892  -0.256   1.131   5.805 -0.3925 -0.2974  0.0779
 2272WAT     H110893  -0.284   1.191   5.874 -2.9590 -0.8171 -0.3955
 2272WAT     H210894  -0.278   1.044   5.839 -1.1635 -0.5906 -1.1084
 2272WAT    EPW10895  -0.263   1.128   5.819 -0.8327 -0.4046 -0.1411
 2273WAT      O10896   4.209   3.841   0.163 -0.5090  0.2884 -0.2769
 2273WAT     H110897   4.294   3.815   0.200 -1.2753 -1.7469  0.1968
 2273WAT     H210898   4.168   3.893   0.232  0.0617  0.7011 -0.2407
 2273WAT    EPW10899   4.215   3.845   0.177 -0.5348  0.0745 -0.2096
 2274WAT      O10900   5.460   5.868   3.264  0.2192 -0.1271 -0.0321
 2274WAT     H110901   5.546   5.910   3.255 -0.4062  1.1055 -0.5919
 2274WAT     H210902   5.412   5.925   3.324 -0.0341 -1.1182  0.7258
 2274WAT    EPW10903   5.465   5.881   3.271  0.1032 -0.0954 -0.0060
 2275WAT      O10904  -1.320   5.433   3.026  0.2416  0.3335  0.0044
 2275WAT     H110905  -1.242   5.380   3.041 -1.3552 -1.8847  1.1158
 2275WAT     H210906  -1.337   5.476   3.110 -0.1002  0.2918 -0.0427
 2275WAT    EPW10907  -1.312   5.432   3.039 -0.0141  0.0355  0.1448
 2276WAT      O10908   3.242   2.945   3.245 -0.7139 -0.4935  0.1179
 2276WAT     H110909   3.277   2.923   3.158  1.3246  0.8341  0.5359
 2276WAT     H210910   3.272   2.875   3.302  2.5669  1.1827  0.7111
 2276WAT    EPW10911   3.251   2.933   3.241 -0.0124 -0.0973  0.2513
 2277WAT      O10912   0.543   1.778   1.329 -0.0585 -0.5469  0.4925
 2277WAT     H110913   0.592   1.720   1.388 -1.8799 -1.3114  1.3080
 2277WAT     H210914   0.554   1.865   1.366  1.3786 -0.5527  0.1598
 2277WAT    EPW10915   0.551   1.782   1.341 -0.1092 -0.6484  0.5562
 2278WAT      O10916  -3.307   8.685   8.654  0.4629  0.0857 -0.0564
 2278WAT     H110917  -3.288   8.592   8.663  0.9105  0.3665  2.6280
 2278WAT     H210918  -3.244   8.716   8.589  1.8899 -1.0694  0.7165
 2278WAT    EPW10919  -3.296   8.677   8.646  0.7102 -0.0296  0.3996
 2279WAT      O10920  -2.024   2.588   3.681  0.3624  0.3387  0.4895
 2279WAT     H110921  -1.935   2.555   3.667  1.2050  2.0662  1.4892
 2279WAT     H210922  -2.027   2.672   3.636 -0.4072  0.7809  1.3170
 2279WAT    EPW10923  -2.012   2.594   3.673  0.3721  0.6249  0.7304
 2280WAT      O10924   1.658   4.349   4.447 -0.2006  0.1744  0.2551
 2280WAT     H110925   1.678   4.389   4.362  0.5301 -1.1133 -0.2106
 2280WAT     H210926   1.568   4.318   4.438 -0.6750  1.4485  0.5262
 2280WAT    EPW10927   1.649   4.350   4.434 -0.1668  0.1729  0.2296
 2281WAT      O10928   1.937   2.529   4.507  0.1129 -0.3377  0.5823
 2281WAT     H110929   1.999   2.456   4.501  1.3971  0.8263 -2.1391
 2281WAT     H210930   1.853   2.491   4.484  0.8987 -0.8944 -1.5964
 2281WAT    EPW10931   1.934   2.514   4.504  0.3859 -0.2576 -0.0641
 2282WAT      O10932  -1.572   7.360   7.067 -0.2524 -0.6154 -0.6155
 2282WAT     H110933  -1.608   7.407   6.993  1.1512  1.1890 -0.2230
 2282WAT     H210934  -1.601   7.410   7.144 -1.0173 -1.9933  0.0316
 2282WAT    EPW10935  -1.580   7.373   7.067 -0.1681 -0.5593 -0.4785
 2283WAT      O10936  -6.645   6.573   8.133  0.2454  0.4494  0.0436
 2283WAT     H110937  -6.567   6.576   8.188 -0.7166  2.3395  1.4548
 2283WAT     H210938  -6.717   6.592   8.194 -1.1510  0.0874 -1.4422
 2283WAT    EPW10939  -6.645   6.576   8.149 -0.0658  0.6509  0.0339
 2284WAT      O10940   1.809   8.066   7.761 -0.6835 -0.7028  0.1264
 2284WAT     H110941   1.803   8.129   7.833 -0.5532  0.3522 -0.7568
 2284WAT     H210942   1.763   7.988   7.793  0.5492 -0.7712  1.8529
 2284WAT    EPW10943   1.802   8.064   7.774 -0.5037 -0.5732  0.2375
 2285WAT      O10944   1.204   0.371   2.069 -0.5039  0.4174  0.3352
 2285WAT     H110945   1.260   0.385   2.145  1.1162 -0.5280 -0.6242
 2285WAT     H210946   1.226   0.444   2.010 -2.8995  2.0607  1.3383
 2285WAT    EPW10947   1.215   0.383   2.071 -0.6062  0.5094  0.3409
 2286WAT      O10948  -1.411   7.869   6.371  0.1746  0.4070  0.3413
 2286WAT     H110949  -1.457   7.805   6.317  0.5621  0.0646  0.4161
 2286WAT     H210950  -1.319   7.858   6.348  0.2303  1.0952  0.1867
 2286WAT    EPW10951  -1.405   7.859   6.360  0.2330  0.4528  0.3309
 2287WAT      O10952   4.492   1.606   8.981 -0.3364  0.2388  0.3501
 2287WAT     H110953   4.512   1.520   8.942 -2.7750  0.2892 -1.2859
 2287WAT     H210954   4.399   1.619   8.960 -0.3045  2.7922  1.5543
 2287WAT    EPW10955   4.482   1.596   8.973 -0.6540  0.5822  0.2933
 2288WAT      O10956  -0.293   1.145   6.505 -0.4801  0.8477 -0.1487
 2288WAT     H110957  -0.352   1.184   6.441 -2.0048  1.0924  1.3415
 2288WAT     H210958  -0.213   1.197   6.499 -0.3612  0.5150 -2.2019
 2288WAT    EPW10959  -0.290   1.157   6.496 -0.6655  0.8361 -0.2229
 2289WAT      O10960  -2.030   6.772   1.421 -0.0659 -0.9304  0.5618
 2289WAT     H110961  -1.953   6.766   1.478  0.2265 -0.4808  0.2138
 2289WAT     H210962  -2.017   6.703   1.356 -0.0524 -0.9856  0.6233
 2289WAT    EPW10963  -2.018   6.762   1.420 -0.0255 -0.8786  0.5240
 2290WAT      O10964  -5.322   8.327   8.529  0.3510  0.2949 -0.0955
 2290WAT     H110965  -5.291   8.332   8.619  0.3351  0.1516 -0.0805
 2290WAT     H210966  -5.256   8.275   8.484  0.2532  0.1893 -0.1175
 2290WAT    EPW10967  -5.309   8.321   8.535  0.3359  0.2623 -0.0963
 2291WAT      O10968   3.706   4.304   3.636  0.6393  0.0445  0.0795
 2291WAT     H110969   3.648   4.231   3.613  2.3105 -1.8206  1.4728
 2291WAT     H210970   3.789   4.284   3.592  0.7596  1.8599 -0.6301
 2291WAT    EPW10971   3.709   4.292   3.627  0.8756  0.0381  0.1695
 2292WAT      O10972  -2.672   2.063   3.798  0.5294  0.4632 -0.8283
 2292WAT     H110973  -2.722   2.030   3.873 -1.4544  2.2962 -1.2361
 2292WAT     H210974  -2.608   2.123   3.836  1.1290 -0.4093 -0.4396
 2292WAT    EPW10975  -2.670   2.066   3.813  0.3469  0.5898 -0.8309
 2293WAT      O10976   7.186   4.109   2.098 -0.5600 -0.3188 -0.1079
 2293WAT     H110977   7.149   4.070   2.020 -0.8181  0.3009 -0.2999
 2293WAT     H210978   7.124   4.089   2.168  0.2492 -1.9108  0.2087
 2293WAT    EPW10979   7.173   4.101   2.097 -0.4871 -0.4470 -0.0914
 2294WAT      O10980  -5.971   4.308   8.912 -0.2149  0.1199 -0.1539
 2294WAT     H110981  -5.968   4.219   8.946 -2.9901  0.9122  2.7197
 2294WAT     H210982  -5.881   4.341   8.921  0.1953 -1.3770  1.9205
 2294WAT    EPW10983  -5.959   4.301   8.918 -0.5269  0.0269  0.4988
 2295WAT      O10984   2.408   1.557   5.346 -0.8973  0.3296  0.8560
 2295WAT     H110985   2.395   1.627   5.282 -0.6532  0.1917  0.6546
 2295WAT     H210986   2.497   1.572   5.379 -1.1976  0.6892  1.5142
 2295WAT    EPW10987   2.418   1.568   5.342 -0.9046  0.3589  0.9160
 2296WAT      O10988   4.492   5.640   4.851 -0.1663  0.0384 -0.4522
 2296WAT     H110989   4.437   5.632   4.773 -0.8245 -0.9954  0.0866
 2296WAT     H210990   4.454   5.577   4.913 -0.9876  2.3194  1.4785
 2296WAT    EPW10991   4.480   5.630   4.849 -0.3612  0.2029 -0.1264
 2297WAT      O10992  -0.629   0.108   8.646  0.0705 -0.6840  0.2107
 2297WAT     H110993  -0.712   0.064   8.629 -0.6131  1.4481 -2.6926
 2297WAT     H210994  -0.564   0.037   8.643 -1.4554 -2.2103  1.2185
 2297WAT    EPW10995  -0.631   0.093   8.643 -0.2209 -0.6041 -0.0391
 2298WAT      O10996   2.529   3.107   3.820  0.1934  0.0172  1.5167
 2298WAT     H110997   2.495   3.139   3.737  1.2888  0.6619  1.2909
 2298WAT     H210998   2.605   3.054   3.795 -1.0985 -2.1558  1.9353
 2298WAT    EPW10999   2.535   3.104   3.806  0.1675 -0.1843  1.5421
 2299WAT      O11000   3.564   0.899   6.484 -0.0951  0.0950 -0.3227
 2299WAT     H111001   3.637   0.896   6.423  0.7320  0.3947  0.6354
 2299WAT     H211002   3.526   0.811   6.480  0.3886 -0.0991 -0.7229
 2299WAT    EPW11003   3.568   0.887   6.475  0.0778  0.1089 -0.2489
 2300WAT      O11004   1.807   6.852   1.436  0.4409 -1.0356 -0.1176
 2300WAT     H111005   1.789   6.833   1.344  0.4452 -0.3657 -0.2630
 2300WAT     H211006   1.797   6.947   1.443  0.4283 -1.0827  0.5768
 2300WAT    EPW11007   1.803   6.862   1.425  0.4398 -0.9534 -0.0452
 2301WAT      O11008   5.090   9.308   3.487 -0.0920 -0.2735 -0.1444
 2301WAT     H111009   5.054   9.241   3.429 -1.0631  2.0680 -2.4446
 2301WAT     H211010   5.122   9.260   3.563 -1.7246 -3.1915 -1.1748
 2301WAT    EPW11011   5.090   9.293   3.489 -0.4354 -0.3495 -0.5838
 2302WAT      O11012   1.638   1.869   1.624  0.1862  0.6606  0.8099
 2302WAT     H111013   1.630   1.878   1.529  0.4123  1.0150  0.8198
 2302WAT     H211014   1.695   1.794   1.636  0.0569  0.5391  0.6666
 2302WAT    EPW11015   1.645   1.861   1.613  0.1990  0.6912  0.7923
 2303WAT      O11016  -0.242   6.565   4.812  0.0230 -0.6867 -0.3040
 2303WAT     H111017  -0.330   6.595   4.792  0.4346  1.7927  1.1279
 2303WAT     H211018  -0.191   6.645   4.821  2.0534 -1.9876  0.5062
 2303WAT    EPW11019  -0.247   6.579   4.811  0.3451 -0.5314 -0.0083
 2304WAT      O11020   2.915   0.461   2.575  0.5503 -0.1256 -0.0681
 2304WAT     H111021   2.844   0.437   2.516 -0.1298  0.7152  0.3875
 2304WAT     H211022   2.966   0.526   2.527 -0.5370  1.2611  0.5677
 2304WAT    EPW11023   2.912   0.466   2.561  0.3171  0.1682  0.0758
 2305WAT      O11024  -1.658   5.829   8.315  0.1558 -1.3069  0.0257
 2305WAT     H111025  -1.708   5.891   8.368  0.5074 -2.9091  2.3595
 2305WAT     H211026  -1.716   5.752   8.308  0.8750 -1.8294 -0.2804
 2305WAT    EPW11027  -1.672   5.827   8.321  0.2971 -1.5869  0.2928
 2306WAT      O11028  -2.835   7.789   2.665  0.0915  0.5193 -0.3018
 2306WAT     H111029  -2.804   7.713   2.615  0.4304  0.1198  0.4943
 2306WAT     H211030  -2.774   7.795   2.738 -1.1024  0.3406  0.7380
 2306WAT    EPW11031  -2.823   7.780   2.668 -0.0213  0.4430 -0.0597
 2307WAT      O11032   1.536   7.025   2.396 -0.3772 -0.2460  0.2132
 2307WAT     H111033   1.460   7.001   2.449  0.7896 -1.2262  1.5093
 2307WAT     H211034   1.606   7.040   2.459  0.7690 -0.2728 -0.9963
 2307WAT    EPW11035   1.535   7.024   2.411 -0.0721 -0.3788  0.2247
 2308WAT      O11036   1.888   7.011   7.771  0.0746 -0.4446 -0.2528
 2308WAT     H111037   1.962   7.017   7.830 -0.0855 -1.0230  0.0176
 2308WAT     H211038   1.850   7.099   7.770  0.0261 -0.4472  0.5837
 2308WAT    EPW11039   1.893   7.023   7.778  0.0471 -0.5209 -0.1070
 2309WAT      O11040   5.735   1.645   0.795  0.1717  0.2595 -0.0493
 2309WAT     H111041   5.727   1.677   0.885  0.2689  2.4690 -0.7673
 2309WAT     H211042   5.829   1.648   0.776  0.2534 -1.1477  0.0803
 2309WAT    EPW11043   5.746   1.650   0.804  0.1953  0.3653 -0.1269
 2310WAT      O11044  -1.160   6.231   2.400  0.3052  0.4324  0.3844
 2310WAT     H111045  -1.099   6.193   2.464  0.7758 -0.0476 -0.3386
 2310WAT     H211046  -1.233   6.170   2.397 -0.8903  1.6682  2.2383
 2310WAT    EPW11047  -1.161   6.218   2.408  0.2096  0.5322  0.5335
 2311WAT      O11048   2.744   2.568   7.083  0.0846  0.3698  0.7536
 2311WAT     H111049   2.658   2.570   7.042 -0.8515  0.4206  2.6636
 2311WAT     H211050   2.793   2.638   7.039 -1.0959  0.8721  0.1971
 2311WAT    EPW11051   2.739   2.577   7.072 -0.1945  0.4427  0.9320
 2312WAT      O11052   4.427   7.670   1.104 -0.3314 -0.6209  0.6673
 2312WAT     H111053   4.486   7.606   1.063 -0.8969  0.6093 -2.3783
 2312WAT     H211054   4.485   7.739   1.135  0.0369 -0.1366 -0.9534
 2312WAT    EPW11055   4.443   7.671   1.102 -0.3574 -0.3948  0.0519
 2313WAT      O11056   6.192   2.456   5.425  0.0054 -0.6880  0.1085
 2313WAT     H111057   6.283   2.430   5.415  0.0848 -0.7425  0.8619
 2313WAT     H211058   6.143   2.374   5.419 -0.0665 -0.5772 -0.9909
 2313WAT    EPW11059   6.197   2.442   5.423  0.0062 -0.6804  0.0629
 2314WAT      O11060   3.907   7.961   0.098  0.5507  0.6741  0.4161
 2314WAT     H111061   3.962   7.944   0.175 -0.0321  0.3506  0.7684
 2314WAT     H211062   3.841   8.023   0.128 -0.4389 -0.3988  0.5419
 2314WAT    EPW11063   3.906   7.967   0.112  0.3433  0.4897  0.4791
 2315WAT      O11064  -3.284  10.216   4.294 -0.0066 -0.4103  0.4577
 2315WAT     H111065  -3.245  10.296   4.329  0.4755 -0.2225 -0.4776
 2315WAT     H211066  -3.211  10.155   4.285 -0.0718 -0.3602 -0.4727
 2315WAT    EPW11067  -3.269  10.218   4.298  0.0484 -0.3786  0.2115
 2316WAT      O11068  -2.115   8.938   3.261 -0.1496 -0.7207 -0.5523
 2316WAT     H111069  -2.148   8.851   3.240 -1.5874  0.0410 -1.5641
 2316WAT     H211070  -2.022   8.923   3.282  0.3253 -2.1483 -3.2532
 2316WAT    EPW11071  -2.107   8.924   3.261 -0.2766 -0.8082 -1.0420
 2317WAT      O11072  -5.114   8.286   6.574  0.2851 -0.6734  0.2127
 2317WAT     H111073  -5.110   8.366   6.626 -0.7398 -0.4089 -0.0871
 2317WAT     H211074  -5.050   8.228   6.614 -0.6757 -0.5815  1.9812
 2317WAT    EPW11075  -5.105   8.289   6.586  0.0231 -0.6261  0.4065
 2318WAT      O11076   5.808   3.891   4.053 -0.3048  0.1323 -0.6209
 2318WAT     H111077   5.882   3.833   4.034  0.2729  0.5352  0.3242
 2318WAT     H211078   5.845   3.958   4.110 -0.8936  1.6044 -1.9107
 2318WAT    EPW11079   5.823   3.892   4.058 -0.3064  0.3796 -0.6664
 2319WAT      O11080  -2.852   6.569   8.759 -0.1869  0.0862 -0.1653
 2319WAT     H111081  -2.769   6.617   8.750  1.4368 -2.3161  0.8647
 2319WAT     H211082  -2.845   6.497   8.697 -1.8394  0.1907 -0.5250
 2319WAT    EPW11083  -2.840   6.566   8.750 -0.1907 -0.2167 -0.0768
 2320WAT      O11084   2.119   3.566   0.821  0.0964  0.2678  0.2513
 2320WAT     H111085   2.030   3.595   0.800  0.1478  0.6526  0.5507
 2320WAT     H211086   2.107   3.490   0.877 -0.0476 -1.1196 -1.5897
 2320WAT    EPW11087   2.106   3.560   0.826  0.0842  0.1355  0.0480
 2321WAT      O11088   5.793   3.295   4.210  0.2794  0.5944  0.0173
 2321WAT     H111089   5.864   3.286   4.146  1.8783 -1.1206  1.9012
 2321WAT     H211090   5.775   3.388   4.212 -0.0412  0.7027 -3.0878
 2321WAT    EPW11091   5.800   3.306   4.202  0.4480  0.3825 -0.1435
 2322WAT      O11092  -1.586   6.805   0.528  0.9832  0.0445 -0.1992
 2322WAT     H111093  -1.507   6.856   0.547  1.0792  0.1285 -0.8052
 2322WAT     H211094  -1.617   6.776   0.613  0.9089  1.1340  0.1600
 2322WAT    EPW11095  -1.580   6.808   0.541  0.9860  0.1993 -0.2318
 2323WAT      O11096  -0.514   8.001   5.321 -0.1189 -0.2433  0.4390
 2323WAT     H111097  -0.465   7.948   5.257 -1.4553 -1.2059  0.1805
 2323WAT     H211098  -0.446   8.035   5.380  0.8617 -1.7369  0.2388
 2323WAT    EPW11099  -0.498   7.999   5.320 -0.1658 -0.5670  0.3784
 2324WAT      O11100  -2.214   4.468   7.800 -0.1254  0.1050 -0.4173
 2324WAT     H111101  -2.273   4.539   7.774 -0.4772  0.3879  1.0875
 2324WAT     H211102  -2.237   4.396   7.742 -0.8821  0.6963 -0.8786
 2324WAT    EPW11103  -2.225   4.468   7.789 -0.2717  0.2203 -0.2797
 2325WAT      O11104  -1.571   5.896   5.380  0.3826  0.1846 -0.0402
 2325WAT     H111105  -1.532   5.982   5.361  0.3805  0.6473  1.8110
 2325WAT     H211106  -1.658   5.917   5.414  0.3606 -0.5452  0.3613
 2325WAT    EPW11107  -1.577   5.910   5.382  0.3794  0.1493  0.2570
 2326WAT      O11108  -7.318   9.612   8.017  0.0407  0.0771 -0.4694
 2326WAT     H111109  -7.353   9.608   7.928 -1.3741  0.1405  0.0471
 2326WAT     H211110  -7.394   9.594   8.072  1.2706 -1.8405  0.6808
 2326WAT    EPW11111  -7.333   9.609   8.012  0.0162 -0.1674 -0.2494
 2327WAT      O11112   1.096   7.390   8.030 -0.3610 -0.2168 -0.3890
 2327WAT     H111113   1.179   7.412   7.989 -1.3071  2.4637 -1.0686
 2327WAT     H211114   1.034   7.454   7.995 -2.2943 -0.9001  1.5518
 2327WAT    EPW11115   1.098   7.401   8.020 -0.7408  0.0467 -0.2227
 2328WAT      O11116   9.573   1.825   0.600  0.1705 -0.4826  0.0449
 2328WAT     H111117   9.633   1.764   0.557  2.3572  0.4738  1.5539
 2328WAT     H211118   9.610   1.911   0.584 -0.2176  0.0621  1.8453
 2328WAT    EPW11119   9.586   1.828   0.593  0.4077 -0.2846  0.4814
 2329WAT      O11120  -3.088   9.867   2.801  0.7168 -0.6382  0.3459
 2329WAT     H111121  -3.101   9.830   2.713  3.9818  0.4760 -0.7608
 2329WAT     H211122  -3.060   9.957   2.785  1.6764 -0.4881  2.5446
 2329WAT    EPW11123  -3.086   9.874   2.787  1.2740 -0.4716  0.4900
 2330WAT      O11124   1.432   3.936   8.126 -0.2019  0.0978  0.0380
 2330WAT     H111125   1.392   3.883   8.196 -1.1490  1.0995  0.2788
 2330WAT     H211126   1.515   3.964   8.163  1.0983 -2.4547 -0.6662
 2330WAT    EPW11127   1.438   3.932   8.140 -0.1553 -0.1068 -0.0229
 2331WAT      O11128  -5.411   5.371   6.191 -0.2837 -0.0741  0.3030
 2331WAT     H111129  -5.401   5.280   6.162  1.2026 -0.3076  1.3916
 2331WAT     H211130  -5.337   5.417   6.151 -1.1435  0.7244 -0.4069
 2331WAT    EPW11131  -5.400   5.365   6.182 -0.2010  0.0005  0.3529
 2332WAT      O11132   3.701   4.148   2.406 -0.1285  0.3817 -0.1329
 2332WAT     H111133   3.726   4.070   2.455  1.9111  0.0448 -1.5868
 2332WAT     H211134   3.784   4.190   2.384 -1.1321  2.3006 -0.4576
 2332WAT    EPW11135   3.715   4.143   2.410  0.0081  0.5901 -0.3674
 2333WAT      O11136  -0.151   6.525   7.271  0.8731  0.4758  0.5266
 2333WAT     H111137  -0.094   6.598   7.295  0.3599  0.7944  0.8127
 2333WAT     H211138  -0.094   6.463   7.226  1.4624  0.7437  0.8922
 2333WAT    EPW11139  -0.136   6.526   7.268  0.8832  0.5531  0.6125
 2334WAT      O11140   2.846   8.296   8.474  0.6993 -0.4474 -0.2394
 2334WAT     H111141   2.910   8.253   8.418  1.2879 -0.6351  0.5548
 2334WAT     H211142   2.842   8.386   8.441  1.5780 -0.3626 -0.1466
 2334WAT    EPW11143   2.854   8.302   8.462  0.8930 -0.4606 -0.1225
 2335WAT      O11144   6.102   1.081   0.966 -0.2334 -0.1809  0.0604
 2335WAT     H111145   6.154   1.097   1.045 -0.5493  0.4229  0.1523
 2335WAT     H211146   6.037   1.015   0.994 -1.4370  1.2546  0.8114
 2335WAT    EPW11147   6.100   1.074   0.980 -0.4339  0.0881  0.1716
 2336WAT      O11148  -1.490   1.738   3.972  0.0594 -0.1524  0.3282
 2336WAT     H111149  -1.416   1.694   3.930 -1.5263  0.5280 -3.6270
 2336WAT     H211150  -1.521   1.676   4.038  2.8171 -1.3221  0.6486
 2336WAT    EPW11151  -1.484   1.724   3.975  0.2140 -0.2170 -0.1513
 2337WAT      O11152  -0.233   7.794   7.613 -0.5474  0.1491 -0.2991
 2337WAT     H111153  -0.279   7.870   7.577  0.5392  0.0262 -2.0594
 2337WAT     H211154  -0.239   7.727   7.545 -2.1186 -1.6631  1.5070
 2337WAT    EPW11155  -0.240   7.795   7.599 -0.6113 -0.1063 -0.2933
 2338WAT      O11156   1.725   3.488   1.576  0.9821 -0.5101  0.4677
 2338WAT     H111157   1.719   3.444   1.661  1.3302 -1.1257  0.1805
 2338WAT     H211158   1.649   3.546   1.574  1.0987 -0.3117  1.2987
 2338WAT    EPW11159   1.714   3.490   1.587  1.0434 -0.5651  0.5395
 2339WAT      O11160   3.737   9.846   4.172  0.7399 -0.8517 -0.8791
 2339WAT     H111161   3.760   9.917   4.232  3.1568 -1.3263 -1.1449
 2339WAT     H211162   3.749   9.883   4.085 -1.4666 -0.5724 -1.1228
 2339WAT    EPW11163   3.742   9.860   4.169  0.7677 -0.8774 -0.9463
 2340WAT      O11164   0.165   7.984   0.018  0.1448 -0.6038  0.5548
 2340WAT     H111165   0.187   8.055   0.079  1.2930  0.1132 -0.6365
 2340WAT     H211166   0.232   7.918   0.034  0.7449 -0.2036 -0.2349
 2340WAT    EPW11167   0.177   7.985   0.028  0.3754 -0.4566  0.2935
 2341WAT      O11168   3.653   0.836   3.962 -0.4837  0.1515 -0.5985
 2341WAT     H111169   3.615   0.778   3.897 -0.5402 -1.0987  0.4996
 2341WAT     H211170   3.587   0.843   4.030  0.4996 -0.5829  0.4769
 2341WAT    EPW11171   3.640   0.829   3.963 -0.3614 -0.1102 -0.3119
 2342WAT      O11172  -3.096   8.214   6.712 -1.3436  0.0490  0.1023
 2342WAT     H111173  -3.133   8.238   6.797  1.0240  2.2957  0.6411
 2342WAT     H211174  -3.046   8.291   6.686  0.0477 -1.5121 -2.1495
 2342WAT    EPW11175  -3.094   8.227   6.720 -0.8478  0.1392 -0.1235
 2343WAT      O11176   0.182   7.641   5.891  0.3643 -0.7104 -0.0112
 2343WAT     H111177   0.129   7.713   5.926  0.7371 -1.1939  1.6637
 2343WAT     H211178   0.261   7.642   5.945  0.2025 -2.6294  0.3336
 2343WAT    EPW11179   0.186   7.651   5.903  0.3921 -1.0276  0.2551
 2344WAT      O11180  -0.147   8.716   2.905 -0.1579  0.1674 -0.2668
 2344WAT     H111181  -0.241   8.731   2.897  0.1973  2.1397 -1.3641
 2344WAT     H211182  -0.118   8.693   2.817  0.1648 -2.2138  0.3971
 2344WAT    EPW11183  -0.156   8.715   2.892 -0.0685  0.1135 -0.3239
 2345WAT      O11184   4.090  10.125   2.341  0.2932 -0.0856  0.8167
 2345WAT     H111185   4.094  10.126   2.245  2.2683 -1.4082  0.8338
 2345WAT     H211186   4.075  10.216   2.365 -0.6966  0.2062 -0.7323
 2345WAT    EPW11187   4.088  10.137   2.332  0.4230 -0.2213  0.6146
 2346WAT      O11188   7.042   2.755   3.554  0.1807 -0.1198  0.5449
 2346WAT     H111189   6.984   2.801   3.494  0.6166 -1.3252 -0.8667
 2346WAT     H211190   7.095   2.824   3.595 -1.2489  0.8658  0.8248
 2346WAT    EPW11191   7.041   2.770   3.552  0.0498 -0.1488  0.3957
 2347WAT      O11192   7.132   4.378   0.551  0.3152 -0.5305 -0.6725
 2347WAT     H111193   7.113   4.287   0.532  0.3504 -0.5815 -0.4738
 2347WAT     H211194   7.065   4.428   0.505  1.7247 -0.5152 -2.8254
 2347WAT    EPW11195   7.121   4.373   0.543  0.5057 -0.5352 -0.9303
 2348WAT      O11196  -1.826   9.076   5.660  0.0546 -0.3480 -0.2298
 2348WAT     H111197  -1.774   9.069   5.579  2.1862 -1.3542  1.1091
 2348WAT     H211198  -1.839   9.170   5.672  4.2076  0.3090  0.7955
 2348WAT    EPW11199  -1.821   9.087   5.651  0.8835 -0.3939  0.0820
 2349WAT      O11200   8.524   1.619   1.714 -0.0295  0.0914 -0.5713
 2349WAT     H111201   8.458   1.617   1.645  0.7228 -0.6645 -1.2877
 2349WAT     H211202   8.477   1.652   1.791 -1.0401  0.3126 -1.2642
 2349WAT    EPW11203   8.509   1.623   1.715 -0.0634  0.0209 -0.7572
 2350WAT      O11204  -0.684   7.234   7.910  0.7948 -0.0206  0.5001
 2350WAT     H111205  -0.604   7.181   7.913  1.6559  1.1490 -0.5299
 2350WAT     H211206  -0.730   7.205   7.832  0.6278 -0.1368  0.6432
 2350WAT    EPW11207  -0.679   7.224   7.900  0.8863  0.1185  0.3834
 2351WAT      O11208   0.724   7.079   7.261  0.1371 -0.3808 -0.6395
 2351WAT     H111209   0.738   7.172   7.277 -0.2387 -0.3044 -0.7406
 2351WAT     H211210   0.797   7.036   7.304 -0.1439 -0.0918  0.1448
 2351WAT    EPW11211   0.735   7.086   7.269  0.0505 -0.3326 -0.5496
 2352WAT      O11212   0.878   0.563   8.777  0.1986 -0.0633  0.1442
 2352WAT     H111213   0.919   0.518   8.851  2.5372  0.7579 -0.5527
 2352WAT     H211214   0.919   0.525   8.700 -1.4597 -0.1878 -0.7079
 2352WAT    EPW11215   0.889   0.552   8.777  0.2883  0.0286 -0.0601
 2353WAT      O11216  -3.387   9.561   3.914 -0.3011 -0.1273  0.0161
 2353WAT     H111217  -3.358   9.470   3.912  0.6467  0.0848  2.1243
 2353WAT     H211218  -3.377   9.591   3.824  0.8793 -1.6441 -0.3994
 2353WAT    EPW11219  -3.382   9.553   3.902 -0.0204 -0.2995  0.2394
 2354WAT      O11220   6.590   1.103   4.407  0.3684 -0.2532 -0.1883
 2354WAT     H111221   6.590   1.009   4.426 -0.8898 -0.6668 -1.9041
 2354WAT     H211222   6.639   1.110   4.325  1.0228  0.6839  0.2747
 2354WAT    EPW11223   6.596   1.091   4.399  0.2887 -0.1841 -0.3536
 2355WAT      O11224   5.581   2.690   6.217 -0.3596  0.0728 -0.1704
 2355WAT     H111225   5.533   2.623   6.169 -0.6863 -0.6530  1.1266
 2355WAT     H211226   5.670   2.686   6.181  0.2370 -2.6006  1.3018
 2355WAT    EPW11227   5.587   2.681   6.206 -0.3240 -0.3755  0.1950
 2356WAT      O11228   2.111   0.102   3.910 -0.5946  0.0815 -0.2094
 2356WAT     H111229   2.193   0.142   3.880  0.9197 -2.4526  0.2856
 2356WAT     H211230   2.116   0.106   4.005 -0.8990 -0.3238 -0.1740
 2356WAT    EPW11231   2.123   0.108   3.918 -0.4350 -0.3062 -0.1394
 2357WAT      O11232  -2.550   2.849   6.977 -0.0753 -0.7910  0.7775
 2357WAT     H111233  -2.479   2.902   7.012 -0.9515 -1.0510  3.1507
 2357WAT     H211234  -2.628   2.902   6.990 -0.5720 -1.3931  0.2842
 2357WAT    EPW11235  -2.551   2.863   6.984 -0.2564 -0.9047  1.0254
 2358WAT      O11236  -5.800   6.909   8.526 -0.1429 -0.0255  0.3603
 2358WAT     H111237  -5.861   6.944   8.591 -0.2646  1.0339 -0.2860
 2358WAT     H211238  -5.762   6.832   8.567 -0.1036  0.6987  1.7537
 2358WAT    EPW11239  -5.803   6.904   8.540 -0.1535  0.2096  0.4592
 2359WAT      O11240  -2.268   9.241   8.860 -0.2926  0.6611 -0.3860
 2359WAT     H111241  -2.249   9.147   8.861 -0.6813  0.5574  1.9544
 2359WAT     H211242  -2.333   9.251   8.790  1.7201 -0.3253 -2.5407
 2359WAT    EPW11243  -2.274   9.230   8.851 -0.0784  0.5174 -0.3610
 2360WAT      O11244   0.407   3.976   0.283 -0.0090  0.2813  0.3050
 2360WAT     H111245   0.446   4.029   0.352  0.2509  0.3477  0.1056
 2360WAT     H211246   0.440   3.888   0.298 -1.7133 -0.1902  1.6331
 2360WAT    EPW11247   0.416   3.971   0.294 -0.1995  0.2279  0.4539
 2361WAT      O11248  -2.643   5.685   7.448  0.0481 -0.3684  0.3531
 2361WAT     H111249  -2.715   5.652   7.393 -1.1381  0.0274  1.6030
 2361WAT     H211250  -2.596   5.746   7.392 -0.3751 -0.9035 -0.6134
 2361WAT    EPW11251  -2.646   5.689   7.434 -0.1642 -0.3865  0.3908
 2362WAT      O11252   2.544   8.416   8.305 -0.4983  0.1510 -0.2564
 2362WAT     H111253   2.542   8.472   8.227 -2.8002  0.8923  0.2681
 2362WAT     H211254   2.527   8.328   8.272  0.6721  0.1162 -0.8091
 2362WAT    EPW11255   2.542   8.412   8.291 -0.6477  0.2441 -0.2604
 2363WAT      O11256   5.918   3.597   5.694  0.1391 -0.7861  0.3397
 2363WAT     H111257   5.951   3.685   5.715 -1.4750 -0.9340  4.3106
 2363WAT     H211258   5.827   3.611   5.668  0.0782 -1.2477  0.2984
 2363WAT    EPW11259   5.910   3.611   5.693 -0.0820 -0.8665  0.8581
 2364WAT      O11260   0.998   0.898   4.091  0.5388  0.0462 -0.4207
 2364WAT     H111261   0.948   0.870   4.167  0.6101 -1.6717 -0.9477
 2364WAT     H211262   0.956   0.979   4.062 -0.3017  0.0089  0.6641
 2364WAT    EPW11263   0.986   0.905   4.097  0.4373 -0.1853 -0.3471
 2365WAT      O11264  -3.014   7.550   5.854  0.0112 -0.2224 -0.1029
 2365WAT     H111265  -3.001   7.503   5.936  1.5726 -0.0186 -0.2084
 2365WAT     H211266  -3.056   7.486   5.796  0.4101 -0.8956  0.3395
 2365WAT    EPW11267  -3.018   7.536   5.857  0.2699 -0.2842 -0.0587
 2366WAT      O11268  -3.587   8.051   3.816 -0.2711  0.2325 -0.2500
 2366WAT     H111269  -3.598   8.030   3.909  2.3765  1.3667  0.4049
 2366WAT     H211270  -3.493   8.063   3.805 -0.1995 -1.8808 -3.5746
 2366WAT    EPW11271  -3.576   8.050   3.827  0.0875  0.1035 -0.6021
 2367WAT      O11272   6.527   0.616   3.929 -0.3372  0.4869  0.0582
 2367WAT     H111273   6.471   0.644   4.001 -1.2412 -0.3383 -0.2984
 2367WAT     H211274   6.548   0.525   3.949 -0.9098  0.1271 -0.8836
 2367WAT    EPW11275   6.522   0.607   3.941 -0.5319  0.3307 -0.1131
 2368WAT      O11276   1.343   0.231   3.725 -0.2084 -0.5682 -0.1662
 2368WAT     H111277   1.307   0.180   3.653 -0.3537  0.3381 -0.7548
 2368WAT     H211278   1.366   0.315   3.686 -0.5528  0.0483  0.9081
 2368WAT    EPW11279   1.341   0.235   3.710 -0.2730 -0.3673 -0.1020
 2369WAT      O11280  -1.666   2.934   5.891 -0.3294  0.5263  0.7770
 2369WAT     H111281  -1.660   3.022   5.853  0.4740  0.0956 -0.1483
 2369WAT     H211282  -1.676   2.876   5.815  2.4854 -0.4836  1.0377
 2369WAT    EPW11283  -1.666   2.938   5.876  0.1478  0.3363  0.6893
 2370WAT      O11284  -1.487   8.032   3.231  0.3647 -0.3434 -0.2452
 2370WAT     H111285  -1.452   8.002   3.314  0.8857  1.6373  0.3064
 2370WAT     H211286  -1.504   7.952   3.181 -0.8623 -1.6364  2.0881
 2370WAT    EPW11287  -1.485   8.018   3.235  0.2716 -0.2527  0.1353
 2371WAT      O11288  -3.759   9.797   8.589 -1.0853 -0.0258 -0.2359
 2371WAT     H111289  -3.703   9.733   8.633  2.1470  1.3184 -2.0167
 2371WAT     H211290  -3.782   9.756   8.506  0.2548  0.6933 -0.9967
 2371WAT    EPW11291  -3.754   9.783   8.584 -0.4822  0.2460 -0.5708
 2372WAT      O11292   4.089   9.097   0.939  0.0926  0.0591  0.4801
 2372WAT     H111293   4.034   9.164   0.980  0.0145  0.6042 -0.4732
 2372WAT     H211294   4.048   9.014   0.963  0.9729  0.2154  2.8678
 2372WAT    EPW11295   4.077   9.095   0.948  0.1986  0.1516  0.6692
 2373WAT      O11296   4.605   5.953   2.591  0.0742  0.6599 -0.2067
 2373WAT     H111297   4.532   5.890   2.593  0.7722 -0.2362 -1.6496
 2373WAT     H211298   4.563   6.038   2.602 -1.1057  0.0955 -0.1595
 2373WAT    EPW11299   4.590   5.956   2.593  0.0105  0.4673 -0.3908
 2374WAT      O11300  -0.586   6.999   8.821 -1.1539 -0.4610  0.4456
 2374WAT     H111301  -0.571   6.929   8.757 -0.5998  1.0594 -1.1465
 2374WAT     H211302  -0.649   7.057   8.779  1.3580  2.1099 -0.0295
 2374WAT    EPW11303  -0.593   6.997   8.807 -0.7496  0.0784  0.1731
 2375WAT      O11304  -1.755   8.605   7.739  0.1700  0.1582  0.7327
 2375WAT     H111305  -1.773   8.684   7.687  0.0673  0.8290  1.7703
 2375WAT     H211306  -1.833   8.551   7.729  0.2847  0.1249 -0.0721
 2375WAT    EPW11307  -1.768   8.608   7.731  0.1715  0.2422  0.7632
 2376WAT      O11308   4.860   2.148   1.129 -0.1794 -0.0258  0.8415
 2376WAT     H111309   4.945   2.181   1.159 -0.1665  1.5300 -0.7222
 2376WAT     H211310   4.809   2.227   1.111 -0.5760 -0.7958 -1.9415
 2376WAT    EPW11311   4.865   2.163   1.131 -0.2301  0.0778  0.2682
 2377WAT      O11312   1.228   3.096   1.504 -0.0820 -0.1005 -0.0652
 2377WAT     H111313   1.164   3.165   1.522 -1.5964 -1.3455 -0.4693
 2377WAT     H211314   1.303   3.142   1.466 -1.1114  1.2971 -0.4707
 2377WAT    EPW11315   1.230   3.111   1.501 -0.4175 -0.0803 -0.1720
 2378WAT      O11316  -4.079   1.755   8.359 -0.0274 -0.2729 -0.6273
 2378WAT     H111317  -4.061   1.728   8.268  1.7877  2.9524 -1.3732
 2378WAT     H211318  -3.996   1.743   8.404 -1.1258 -2.6207  0.9496
 2378WAT    EPW11319  -4.066   1.750   8.353  0.0672 -0.1572 -0.5174
 2379WAT      O11320   0.206   8.651   7.581 -0.8467  0.1638  0.1200
 2379WAT     H111321   0.224   8.725   7.639 -0.6519  0.2616 -0.0631
 2379WAT     H211322   0.176   8.692   7.499  0.5352  0.1001 -0.4359
 2379WAT    EPW11323   0.204   8.666   7.578 -0.6387  0.1678  0.0226
 2380WAT      O11324   1.704   0.657   0.225 -0.5148 -0.6043 -0.0768
 2380WAT     H111325   1.725   0.717   0.296 -1.8713 -0.9102  0.6250
 2380WAT     H211326   1.737   0.572   0.255 -0.3602 -0.5808 -0.1801
 2380WAT    EPW11327   1.711   0.653   0.238 -0.6733 -0.6416  0.0021
 2381WAT      O11328  -2.414   9.828   2.681  0.5191 -0.5510  0.3997
 2381WAT     H111329  -2.407   9.923   2.670 -3.1501 -0.3601 -2.4230
 2381WAT     H211330  -2.378   9.792   2.599 -0.3167 -1.4080  0.3939
 2381WAT    EPW11331  -2.408   9.836   2.668 -0.0751 -0.6390  0.0267
 2382WAT      O11332   6.990   0.077   0.061  0.3345  0.0989 -0.0625
 2382WAT     H111333   6.926   0.051   0.127  0.8598  0.4985  0.6138
 2382WAT     H211334   7.063   0.017   0.074  0.4240  0.1517 -0.3159
 2382WAT    EPW11335   6.991   0.066   0.072  0.4158  0.1586 -0.0067
 2383WAT      O11336  -0.740   8.003   8.819 -0.3173  0.4053 -0.6110
 2383WAT     H111337  -0.661   7.948   8.812  0.7305  1.2143  3.1375
 2383WAT     H211338  -0.796   7.971   8.748  1.0324 -4.1726  0.0083
 2383WAT    EPW11339  -0.737   7.991   8.808 -0.0010 -0.0920 -0.0353
 2384WAT      O11340   2.990  10.019   4.894 -0.7807  0.1556 -0.0983
 2384WAT     H111341   3.058   9.970   4.849 -0.1183  1.3004 -0.3705
 2384WAT     H211342   2.923  10.035   4.827  0.3499  2.1393 -0.8544
 2384WAT    EPW11343   2.990  10.015   4.879 -0.5443  0.5684 -0.2339
 2385WAT      O11344  -3.349   8.068   8.733  0.2057 -0.1874  0.5439
 2385WAT     H111345  -3.374   8.132   8.667 -0.2274 -0.7309  0.1754
 2385WAT     H211346  -3.268   8.030   8.700 -1.2981 -2.2695 -0.9920
 2385WAT    EPW11347  -3.342   8.071   8.720 -0.0497 -0.5341  0.2923
 2386WAT      O11348   0.894   1.894   3.262  0.4993 -0.1887  0.1636
 2386WAT     H111349   0.848   1.977   3.271  0.9559 -0.0205  1.0395
 2386WAT     H211350   0.955   1.892   3.336 -0.7260 -2.0712  1.1971
 2386WAT    EPW11351   0.896   1.905   3.273  0.3979 -0.4148  0.4154
 2387WAT      O11352   1.452   3.087   1.269 -0.4893 -0.0108  0.1085
 2387WAT     H111353   1.397   3.136   1.208 -0.7797  2.3986  2.1072
 2387WAT     H211354   1.540   3.122   1.254 -0.5750  0.6536  1.0610
 2387WAT    EPW11355   1.457   3.098   1.259 -0.5389  0.3946  0.4978
 2388WAT      O11356   0.331   9.526   5.507 -0.5031 -0.7265  0.3200
 2388WAT     H111357   0.295   9.584   5.575 -0.1851 -0.2562  0.0896
 2388WAT     H211358   0.291   9.441   5.525 -2.0228 -0.1482 -0.1454
 2388WAT    EPW11359   0.321   9.522   5.519 -0.6616 -0.5879  0.2282
 2389WAT      O11360   3.974   0.580   4.611  0.7141  0.2471 -0.2634
 2389WAT     H111361   3.953   0.498   4.565  2.0144 -0.6219  0.6431
 2389WAT     H211362   3.895   0.634   4.599  0.2485 -0.6962 -1.8053
 2389WAT    EPW11363   3.961   0.576   4.604  0.8241  0.0081 -0.3471
 2390WAT      O11364  -4.671   2.620   8.944 -0.2941  0.2981 -0.0598
 2390WAT     H111365  -4.737   2.683   8.972  0.9827  2.0490 -0.7402
 2390WAT     H211366  -4.593   2.644   8.995  0.7482  0.5438 -1.7076
 2390WAT    EPW11367  -4.669   2.631   8.955  0.0117  0.5615 -0.3669
 2391WAT      O11368   3.424   0.264   8.491  0.6490  0.5049  0.0506
 2391WAT     H111369   3.464   0.339   8.447  3.7011 -0.6082  0.6817
 2391WAT     H211370   3.410   0.294   8.581  0.5412  0.7102 -0.0320
 2391WAT    EPW11371   3.427   0.278   8.497  1.0374  0.3852  0.1230
 2392WAT      O11372   3.129   4.574   5.995 -0.1301  0.1512  0.3642
 2392WAT     H111373   3.067   4.502   5.993  0.1429 -0.0716 -0.4426
 2392WAT     H211374   3.215   4.532   5.988  0.0248  0.5595 -0.2220
 2392WAT    EPW11375   3.132   4.559   5.994 -0.0737  0.1757  0.1805
 2393WAT      O11376   2.388   5.967   8.118  0.2791  0.1335  0.3827
 2393WAT     H111377   2.381   6.061   8.134 -1.7815 -0.0101  0.5907
 2393WAT     H211378   2.390   5.959   8.023  3.0645  0.4635  0.3208
 2393WAT    EPW11379   2.388   5.978   8.108  0.3747  0.1581  0.4020
 2394WAT      O11380   2.709   9.634   1.310  0.4573 -0.3596  1.0505
 2394WAT     H111381   2.646   9.682   1.364 -0.7891 -0.1179 -0.5342
 2394WAT     H211382   2.688   9.542   1.325 -1.6870 -0.2790 -0.9448
 2394WAT    EPW11383   2.698   9.628   1.319  0.0101 -0.3171  0.5782
 2395WAT      O11384   2.368   8.662   0.145  0.0792  0.1742 -0.7561
 2395WAT     H111385   2.417   8.580   0.153  0.2335  0.3682  0.6299
 2395WAT     H211386   2.364   8.679   0.051 -0.7897 -1.9047 -1.1479
 2395WAT    EPW11387   2.374   8.653   0.134 -0.0150 -0.0744 -0.6250
 2396WAT      O11388  -1.214   9.692   6.225  0.4625 -0.1793 -0.0029
 2396WAT     H111389  -1.143   9.661   6.169 -0.4667 -1.5645 -0.4558
 2396WAT     H211390  -1.175   9.765   6.275  1.6045  0.4213 -1.6803
 2396WAT    EPW11391  -1.199   9.698   6.224  0.4905 -0.2828 -0.2837
 2397WAT      O11392   3.042   4.935   8.710  0.4078 -0.3528  0.2191
 2397WAT     H111393   3.126   4.892   8.692 -0.6339 -2.7707  0.8504
 2397WAT     H211394   2.992   4.927   8.629  0.3087 -0.0323  0.2450
 2397WAT    EPW11395   3.047   4.928   8.697  0.2574 -0.6294  0.3057
 2398WAT      O11396   1.387   0.689   3.676 -0.1020  0.1355 -0.2329
 2398WAT     H111397   1.392   0.783   3.662  0.7294  0.1975  0.4415
 2398WAT     H211398   1.472   0.665   3.713 -0.0223 -1.0046 -1.0958
 2398WAT    EPW11399   1.399   0.698   3.679  0.0182 -0.0067 -0.2577
 2399WAT      O11400   0.150   0.081   1.363 -0.5083  0.6532 -0.2008
 2399WAT     H111401   0.172  -0.008   1.335 -0.2444  0.5776  0.2339
 2399WAT     H211402   0.160   0.079   1.458 -2.4606  0.5947  0.0408
 2399WAT    EPW11403   0.154   0.069   1.372 -0.7310  0.6355 -0.1116
 2400WAT      O11404   1.316   1.725   2.237  0.0891 -0.3285 -0.1673
 2400WAT     H111405   1.275   1.802   2.278 -2.1723 -0.8677 -1.2589
 2400WAT     H211406   1.374   1.761   2.170 -1.2783  0.4717 -0.9715
 2400WAT    EPW11407   1.318   1.740   2.234 -0.3895 -0.2941 -0.4175
 2401WAT      O11408   1.044   0.079   4.142  0.8974  0.0441  0.5865
 2401WAT     H111409   1.108   0.140   4.105  2.3247 -1.2750  0.7832
 2401WAT     H211410   0.977   0.070   4.074  0.9226  1.3832  0.3465
 2401WAT    EPW11411   1.043   0.086   4.128  1.0889  0.0467  0.5808
 2402WAT      O11412   5.863   2.993   2.019 -0.3256 -0.6796 -0.3262
 2402WAT     H111413   5.792   3.022   1.962 -0.3637  0.9594  0.5197
 2402WAT     H211414   5.826   2.921   2.070 -1.1252 -0.3446 -0.4306
 2402WAT    EPW11415   5.849   2.987   2.018 -0.4361 -0.4191 -0.2284
 2403WAT      O11416  -1.508   9.886   4.535  0.2020  0.7122 -0.3688
 2403WAT     H111417  -1.515   9.799   4.495  0.3477 -0.0227  1.1233
 2403WAT     H211418  -1.419   9.889   4.570 -1.2087 -0.5862  3.9066
 2403WAT    EPW11419  -1.497   9.875   4.534  0.0351  0.4439  0.3917
 2404WAT      O11420  -0.230   5.976   1.569 -0.1562  0.4054 -0.4461
 2404WAT     H111421  -0.218   6.051   1.511 -1.4709  1.5111  0.6345
 2404WAT     H211422  -0.160   5.987   1.635 -3.1696  3.7327  2.6753
 2404WAT    EPW11423  -0.219   5.988   1.570 -0.7271  0.9902  0.1081
 2405WAT      O11424   8.244   4.182   1.248 -0.8832 -0.3329  0.7243
 2405WAT     H111425   8.272   4.175   1.339 -1.1540  1.7309  1.0193
 2405WAT     H211426   8.155   4.218   1.253 -0.9554 -0.3314 -0.3454
 2405WAT    EPW11427   8.236   4.186   1.261 -0.9284 -0.0606  0.6221
 2406WAT      O11428   3.295   6.448   5.624 -0.2166  0.5045  0.2370
 2406WAT     H111429   3.253   6.364   5.604  0.3637  0.0989  0.6903
 2406WAT     H211430   3.372   6.425   5.677  1.2085  1.1080 -1.4481
 2406WAT    EPW11431   3.300   6.434   5.628  0.0479  0.5307  0.0744
 2407WAT      O11432   6.563   9.221   1.624 -0.2743 -0.4900 -0.1571
 2407WAT     H111433   6.491   9.167   1.655  0.8205 -1.8444  0.1133
 2407WAT     H211434   6.521   9.299   1.588 -1.7927 -0.6356  1.1858
 2407WAT    EPW11435   6.548   9.224   1.624 -0.3302 -0.6881  0.0557
 2408WAT      O11436  -2.062   8.052   1.787 -0.0194  0.3865  0.0535
 2408WAT     H111437  -1.987   7.997   1.765  0.5352  0.8970  0.6236
 2408WAT     H211438  -2.137   8.007   1.750  0.4336 -0.6981  0.4305
 2408WAT    EPW11439  -2.062   8.039   1.779  0.1135  0.3109  0.1784
 2409WAT      O11440  -1.609  10.285   4.223 -0.9355 -0.1099  0.4002
 2409WAT     H111441  -1.661  10.327   4.291 -0.6083 -0.2301  0.7325
 2409WAT     H211442  -1.632  10.192   4.230 -1.6553  0.0070 -0.3290
 2409WAT    EPW11443  -1.619  10.278   4.233 -0.9873 -0.1106  0.3479
 2410WAT      O11444   5.820   1.746   1.086 -0.0722  0.1329 -0.4565
 2410WAT     H111445   5.856   1.742   1.174  0.1668 -0.2312 -0.5685
 2410WAT     H211446   5.734   1.786   1.097 -0.4618 -0.8142  0.0820
 2410WAT    EPW11447   5.813   1.751   1.099 -0.0920 -0.0400 -0.4002
 2411WAT      O11448  -2.503   8.020   7.758  0.6151 -0.4714  0.2784
 2411WAT     H111449  -2.430   8.082   7.758  0.1028  0.1474  0.8760
 2411WAT     H211450  -2.548   8.037   7.840 -2.3298  1.7212 -1.5819
 2411WAT    EPW11451  -2.499   8.031   7.769  0.1590 -0.1001  0.1121
 2412WAT      O11452   0.050   9.234   7.877 -0.2508  0.9283  0.1956
 2412WAT     H111453   0.062   9.288   7.798  1.0508  0.4181  0.0148
 2412WAT     H211454  -0.025   9.179   7.858  2.1861 -1.9072 -2.3488
 2412WAT    EPW11455   0.042   9.234   7.864  0.2423  0.4864 -0.1638
 2413WAT      O11456   2.721   4.746   6.012 -0.9309  0.3388 -0.2984
 2413WAT     H111457   2.637   4.791   6.013 -1.6995 -0.9890 -1.8223
 2413WAT     H211458   2.703   4.661   5.971  0.5281 -1.2586  2.1009
 2413WAT    EPW11459   2.708   4.741   6.007 -0.8398 -0.0470 -0.1831
 2414WAT      O11460   2.920   0.615   1.434 -0.1366 -0.6924 -0.2168
 2414WAT     H111461   2.920   0.644   1.343 -1.2762  1.8664  0.4936
 2414WAT     H211462   2.838   0.651   1.470  1.8626  1.4398  2.6609
 2414WAT    EPW11463   2.909   0.623   1.427 -0.0232 -0.0737  0.2564
 2415WAT      O11464   5.294   8.348   4.108  0.7743 -0.2617 -0.0724
 2415WAT     H111465   5.223   8.409   4.131 -0.2269 -1.7128  0.8177
 2415WAT     H211466   5.368   8.405   4.089 -0.2233  1.2648  0.3883
 2415WAT    EPW11467   5.294   8.364   4.109  0.5109 -0.2518  0.1059
 2416WAT      O11468  -1.758   4.635   3.010  0.6335 -0.4659 -0.4632
 2416WAT     H111469  -1.791   4.723   2.988 -1.1321 -0.4759  1.7745
 2416WAT     H211470  -1.837   4.583   3.022  1.5045 -1.3828  1.9084
 2416WAT    EPW11471  -1.773   4.640   3.008  0.5156 -0.5884  0.1447
 2417WAT      O11472   1.196   9.907   2.214 -0.9170 -0.3377  0.1764
 2417WAT     H111473   1.189  10.000   2.237 -0.4764 -0.2721  0.0556
 2417WAT     H211474   1.281   9.881   2.247  0.1858  0.0112 -2.1771
 2417WAT    EPW11475   1.206   9.916   2.221 -0.7135 -0.2828 -0.1500
 2418WAT      O11476   0.469   1.925   8.785  0.7991 -0.5306 -0.2792
 2418WAT     H111477   0.502   1.917   8.696 -1.6041  1.3837 -1.4528
 2418WAT     H211478   0.501   2.011   8.814 -1.5649  0.6347 -0.8499
 2418WAT    EPW11479   0.478   1.936   8.777  0.1703 -0.1245 -0.5088
 2419WAT      O11480  -4.636   7.697   6.286  0.3739 -0.8434 -0.1582
 2419WAT     H111481  -4.702   7.717   6.220  0.2407 -0.6833  0.0225
 2419WAT     H211482  -4.651   7.762   6.355  2.6562  1.2254 -1.4340
 2419WAT    EPW11483  -4.646   7.708   6.287  0.6576 -0.5493 -0.3026
 2420WAT      O11484   0.162   8.153   5.729  0.2370 -0.2181 -0.6093
 2420WAT     H111485   0.186   8.225   5.670 -3.4910  0.8585 -1.0976
 2420WAT     H211486   0.143   8.195   5.812  0.9545 -1.1201  0.0340
 2420WAT    EPW11487   0.163   8.168   5.732 -0.1601 -0.1950 -0.5889
 2421WAT      O11488   8.010   0.864   2.361  0.1024 -0.5199 -0.4523
 2421WAT     H111489   7.935   0.827   2.316  0.3691 -0.5745 -0.8541
 2421WAT     H211490   8.001   0.959   2.350 -0.1484 -0.5025 -0.1115
 2421WAT    EPW11491   7.999   0.872   2.354  0.1047 -0.5249 -0.4603
 2422WAT      O11492   1.872   1.181   2.506 -0.1816 -0.3571 -0.4515
 2422WAT     H111493   1.964   1.206   2.498  0.0058 -1.4221 -1.9516
 2422WAT     H211494   1.824   1.255   2.470  0.3272 -1.5135 -3.9054
 2422WAT    EPW11495   1.878   1.194   2.500 -0.0897 -0.6501 -1.1050
 2423WAT      O11496   4.745   7.682   0.423  0.2012 -0.2183 -0.0411
 2423WAT     H111497   4.690   7.606   0.403  0.7331 -0.6772  0.2162
 2423WAT     H211498   4.712   7.751   0.366 -1.5649 -0.0735  1.0693
 2423WAT    EPW11499   4.733   7.681   0.413  0.0384 -0.2599  0.1393
 2424WAT      O11500  -0.570   3.078   3.273 -0.1887 -0.2410  0.0629
 2424WAT     H111501  -0.597   3.163   3.308  3.1202  0.6339  0.8566
 2424WAT     H211502  -0.595   3.016   3.342  1.3762  0.7570  1.6168
 2424WAT    EPW11503  -0.577   3.081   3.287  0.4541  0.0061  0.3725
 2425WAT      O11504   0.921   8.272   8.401  0.4380 -0.7950  0.1899
 2425WAT     H111505   0.931   8.291   8.308 -1.3635 -1.7382 -0.2312
 2425WAT     H211506   0.931   8.177   8.407 -1.8814 -1.0712  0.5482
 2425WAT    EPW11507   0.924   8.262   8.389 -0.1055 -0.9565  0.1822
 2426WAT      O11508   0.394   4.677   2.923  0.6574 -0.4127 -1.0005
 2426WAT     H111509   0.306   4.714   2.917  0.4765 -0.8221 -0.8856
 2426WAT     H211510   0.389   4.595   2.874  1.0666 -0.2711 -1.2863
 2426WAT    EPW11511   0.381   4.671   2.916  0.6875 -0.4480 -1.0231
 2427WAT      O11512   6.662   1.100   3.228 -0.1132  0.1240  0.9152
 2427WAT     H111513   6.665   1.023   3.285  0.8931  0.0371  0.7580
 2427WAT     H211514   6.721   1.079   3.156 -0.8722  0.5008  0.1601
 2427WAT    EPW11515   6.670   1.087   3.226 -0.0806  0.1622  0.7949
 2428WAT      O11516  -1.242   5.928   7.994 -0.3413 -0.5506 -0.1236
 2428WAT     H111517  -1.174   5.970   8.047 -0.4070 -0.6166  0.0112
 2428WAT     H211518  -1.243   5.979   7.913 -0.6510 -0.0888  0.1687
 2428WAT    EPW11519  -1.233   5.940   7.990 -0.3908 -0.4983 -0.0672
 2429WAT      O11520  -1.714   8.985   7.704 -0.4529  0.0285 -1.2254
 2429WAT     H111521  -1.805   8.963   7.682 -1.0509  2.1291 -1.0509
 2429WAT     H211522  -1.689   9.049   7.637 -0.5599  2.6337  1.0577
 2429WAT    EPW11523  -1.723   8.991   7.692 -0.5459  0.6495 -0.9015
 2430WAT      O11524  -7.176   9.665   6.387  0.2452 -0.1096  0.2600
 2430WAT     H111525  -7.093   9.709   6.402 -0.3079  1.6258 -1.3723
 2430WAT     H211526  -7.238   9.736   6.369 -1.6368 -1.3437  1.5156
 2430WAT    EPW11527  -7.173   9.680   6.387 -0.0761 -0.0434  0.2105
 2431WAT      O11528  -0.655   9.867   6.426  0.5895  0.0033 -0.6824
 2431WAT     H111529  -0.609   9.926   6.366 -0.0193  0.9666 -0.2284
 2431WAT     H211530  -0.696   9.926   6.490 -1.2269 -0.8372 -1.0332
 2431WAT    EPW11531  -0.654   9.883   6.427  0.2697  0.0196 -0.6688
 2432WAT      O11532  -1.688   1.393   6.380 -0.2763 -0.2598  0.3273
 2432WAT     H111533  -1.639   1.460   6.426 -1.7509 -0.8266  2.9364
 2432WAT     H211534  -1.628   1.319   6.374 -0.5386 -0.8401  3.1958
 2432WAT    EPW11535  -1.674   1.392   6.385 -0.5054 -0.4110  1.0498
 2433WAT      O11536   2.722   1.175   2.766  0.4043  0.4548 -0.3915
 2433WAT     H111537   2.657   1.105   2.764  1.4080 -0.4949 -0.9000
 2433WAT     H211538   2.684   1.241   2.824  0.3227 -1.4058  1.8239
 2433WAT    EPW11539   2.709   1.174   2.774  0.5260  0.0841 -0.1663
 2434WAT      O11540   5.768   7.761   1.091  0.6461  0.4705 -0.1580
 2434WAT     H111541   5.768   7.750   1.186 -0.5069 -0.1044 -0.2180
 2434WAT     H211542   5.746   7.853   1.078  0.4943  0.4747  0.1252
 2434WAT    EPW11543   5.765   7.772   1.102  0.4740  0.3953 -0.1286
 2435WAT      O11544  -2.855   8.616   6.414 -0.3020 -0.7955 -0.0768
 2435WAT     H111545  -2.884   8.680   6.479 -0.7202 -1.5347  0.4753
 2435WAT     H211546  -2.765   8.641   6.395 -0.5796  0.1955 -0.1713
 2435WAT    EPW11547  -2.847   8.628   6.420 -0.3937 -0.7625 -0.0167
 2436WAT      O11548   5.188   8.253   3.849 -0.1440 -1.0305  0.6443
 2436WAT     H111549   5.283   8.239   3.853  0.1237  0.6823  1.0439
 2436WAT     H211550   5.178   8.348   3.843 -1.8715 -1.0497  2.2491
 2436WAT    EPW11551   5.199   8.263   3.849 -0.3364 -0.8073  0.9087
 2437WAT      O11552  -2.369   4.264   8.229  0.1541  0.4754 -0.6889
 2437WAT     H111553  -2.364   4.279   8.134 -0.4938  0.0486 -0.8008
 2437WAT     H211554  -2.432   4.329   8.260  2.4536  2.5337 -0.0814
 2437WAT    EPW11555  -2.377   4.274   8.220  0.3719  0.6909 -0.6237
 2438WAT      O11556   3.339   9.879   0.699 -0.1291 -0.4168  0.0814
 2438WAT     H111557   3.361   9.788   0.678 -1.7876 -0.8487  0.0968
 2438WAT     H211558   3.411   9.930   0.662  1.5441 -1.8013  1.2349
 2438WAT    EPW11559   3.351   9.873   0.692 -0.1272 -0.6561  0.2356
 2439WAT      O11560  -1.079   7.379   0.989  0.2063  1.0506 -0.1650
 2439WAT     H111561  -1.133   7.436   1.043 -0.3760  0.8530 -0.5258
 2439WAT     H211562  -1.073   7.423   0.905  0.3082  0.8957 -0.2401
 2439WAT    EPW11563  -1.085   7.392   0.985  0.1429  1.0040 -0.2225
 2440WAT      O11564   8.391   2.489   1.084 -0.2109  0.0404 -0.6860
 2440WAT     H111565   8.441   2.419   1.128  0.1866  0.4406 -0.4923
 2440WAT     H211566   8.454   2.531   1.026 -0.9809 -1.1336 -2.4507
 2440WAT    EPW11567   8.406   2.485   1.082 -0.2604 -0.0618 -0.8932
 2441WAT      O11568   0.928   1.118   3.235  0.5555 -0.9321  0.0396
 2441WAT     H111569   0.888   1.032   3.221 -0.0402 -0.6729  0.0985
 2441WAT     H211570   0.866   1.179   3.195  0.2825 -0.4216  1.2001
 2441WAT    EPW11571   0.914   1.115   3.228  0.4409 -0.8306  0.2004
 2442WAT      O11572   5.164   4.314   4.583 -0.7189  0.1127  0.2199
 2442WAT     H111573   5.073   4.330   4.610 -1.5513 -2.8523 -0.4370
 2442WAT     H211574   5.210   4.292   4.663 -0.6865  1.0410  0.4720
 2442WAT    EPW11575   5.158   4.313   4.597 -0.8242 -0.1559  0.1667
 2443WAT      O11576   0.023   0.426   1.115 -0.7915  0.5342 -0.0613
 2443WAT     H111577   0.064   0.504   1.151 -0.6523 -0.7892  2.9264
 2443WAT     H211578   0.080   0.354   1.142 -2.0967 -0.8236 -0.7593
 2443WAT    EPW11579   0.036   0.427   1.123 -0.9453  0.1806  0.2407
 2444WAT      O11580   4.054   7.902   1.350  0.1952 -0.5569  0.0141
 2444WAT     H111581   3.965   7.923   1.379 -0.3099 -4.5330  2.0394
 2444WAT     H211582   4.108   7.973   1.384 -1.7150 -0.0769  2.2946
 2444WAT    EPW11583   4.050   7.914   1.358 -0.1233 -1.0180  0.5820
 2445WAT      O11584  -0.358   3.782   1.338 -0.0982 -0.3231  0.1731
 2445WAT     H111585  -0.395   3.846   1.278  1.5058 -2.4891 -3.4308
 2445WAT     H211586  -0.434   3.744   1.383 -1.2468  2.2021  0.5354
 2445WAT    EPW11587  -0.373   3.785   1.336 -0.0381 -0.2757 -0.2545
 2446WAT      O11588   6.970   6.853   2.481 -0.4244  0.0489  0.1465
 2446WAT     H111589   7.065   6.858   2.492 -0.4190 -1.2047  0.9825
 2446WAT     H211590   6.935   6.915   2.544 -0.1855 -1.3982  1.7794
 2446WAT    EPW11591   6.978   6.862   2.491 -0.3922 -0.3073  0.4721
 2447WAT      O11592  -0.105   0.759   2.482  0.2275 -0.4226  0.4226
 2447WAT     H111593  -0.122   0.851   2.462 -0.7044 -0.2953  1.6283
 2447WAT     H211594  -0.033   0.734   2.425  1.0231  1.2792  0.6262
 2447WAT    EPW11595  -0.098   0.768   2.472  0.2095 -0.1814  0.6084
 2448WAT      O11596  -0.402   6.799   6.265  0.4886  0.1010 -0.0331
 2448WAT     H111597  -0.350   6.719   6.270 -0.8188 -0.7312  0.6490
 2448WAT     H211598  -0.439   6.798   6.177  4.1449  2.4121 -1.8890
 2448WAT    EPW11599  -0.400   6.788   6.254  0.7984  0.2959 -0.1879
 2449WAT      O11600   0.045   4.446   6.671  0.4982 -0.0488 -0.2214
 2449WAT     H111601   0.099   4.432   6.749  2.7725  0.2237 -1.6336
 2449WAT     H211602   0.043   4.542   6.661  0.9305 -0.1017 -0.9141
 2449WAT    EPW11603   0.052   4.457   6.680  0.8552 -0.0198 -0.4992
 2450WAT      O11604   5.354   8.064   0.558  0.6317  0.0630  0.0864
 2450WAT     H111605   5.342   8.071   0.464 -0.3581  1.9125  0.3083
 2450WAT     H211606   5.265   8.065   0.594  1.0008 -0.4105  1.0500
 2450WAT    EPW11607   5.340   8.065   0.550  0.5500  0.2446  0.2427
 2451WAT      O11608   4.108   6.257   0.012  0.2687 -0.2411  0.2429
 2451WAT     H111609   4.094   6.257   0.107 -3.3117 -0.3625 -0.1390
 2451WAT     H211610   4.128   6.349  -0.008 -0.2931  0.0630  0.9958
 2451WAT    EPW11611   4.109   6.269   0.022 -0.2778 -0.2170  0.2919
 2452WAT      O11612  -1.344   5.955   5.608 -0.2806  0.0251  0.0741
 2452WAT     H111613  -1.370   5.866   5.583 -0.4484  0.0704  0.0906
 2452WAT     H211614  -1.285   5.983   5.538 -1.1585  0.3466 -0.5415
 2452WAT    EPW11615  -1.339   5.947   5.596 -0.4185  0.0734 -0.0052
 2453WAT      O11616  -5.329   2.007   8.033  0.6744  0.1097  0.5603
 2453WAT     H111617  -5.241   1.972   8.032  0.4114 -0.5802  1.0054
 2453WAT     H211618  -5.317   2.102   8.035  1.3907  0.0874 -1.1331
 2453WAT    EPW11619  -5.316   2.015   8.033  0.7343  0.0159  0.3958
 2454WAT      O11620   1.151   5.168   5.061  0.4446 -0.5556  0.0793
 2454WAT     H111621   1.118   5.117   4.987  3.7749 -0.0991 -1.9295
 2454WAT     H211622   1.217   5.226   5.022 -0.1041  2.2134  2.9366
 2454WAT    EPW11623   1.156   5.169   5.046  0.8115 -0.1302  0.1910
 2455WAT      O11624  -0.785   9.719   0.150  0.1293 -0.4985  0.4839
 2455WAT     H111625  -0.756   9.696   0.238 -0.8606  0.5649  1.1215
 2455WAT     H211626  -0.861   9.663   0.135  0.6987 -1.1590  0.0210
 2455WAT    EPW11627  -0.791   9.709   0.160  0.0738 -0.4454  0.5070
 2456WAT      O11628  -0.862   3.566   2.961  0.0746  0.2712 -0.0929
 2456WAT     H111629  -0.780   3.572   3.008 -0.1364 -1.3767  0.5515
 2456WAT     H211630  -0.906   3.649   2.978 -0.4181 -0.5881  3.4466
 2456WAT    EPW11631  -0.857   3.578   2.969 -0.0182 -0.0595  0.4590
 2457WAT      O11632   0.452   8.092   3.529 -0.2585  0.0307 -0.1714
 2457WAT     H111633   0.433   7.998   3.527 -1.6352  0.2983 -2.0009
 2457WAT     H211634   0.504   8.108   3.450 -1.0963  1.0030 -0.5456
 2457WAT    EPW11635   0.457   8.082   3.518 -0.5505  0.1945 -0.4621
 2458WAT      O11636   6.610   3.345   5.163 -0.1561 -0.4461  0.4644
 2458WAT     H111637   6.550   3.277   5.132  0.1319 -0.6918  0.4336
 2458WAT     H211638   6.672   3.297   5.218  1.9879 -0.8045 -2.0542
 2458WAT    EPW11639   6.611   3.329   5.166  0.1645 -0.5258  0.1283
 2459WAT      O11640   0.513   4.308   7.451  0.4732 -0.4339 -0.3349
 2459WAT     H111641   0.487   4.231   7.401  2.0677 -0.8794 -0.5372
 2459WAT     H211642   0.566   4.360   7.389  1.9097 -0.6666  0.6420
 2459WAT    EPW11643   0.517   4.305   7.436  0.8730 -0.5236 -0.2327
 2460WAT      O11644  -0.289   1.817   4.790  0.4819  0.2494 -0.6514
 2460WAT     H111645  -0.282   1.725   4.763 -0.6919  0.3753 -1.4645
 2460WAT     H211646  -0.382   1.836   4.787  0.5102  0.9462  1.4034
 2460WAT    EPW11647  -0.300   1.807   4.786  0.3308  0.3579 -0.4876
 2461WAT      O11648  -3.455   2.009   8.168 -0.7716  0.3559  0.1496
 2461WAT     H111649  -3.517   1.956   8.118 -0.7569  2.1667 -1.9633
 2461WAT     H211650  -3.510   2.069   8.219 -0.7679 -0.7526  1.5016
 2461WAT    EPW11651  -3.471   2.010   8.168 -0.7693  0.4486  0.0496
 2462WAT      O11652   2.672   4.558   8.212 -0.3711 -0.1581 -0.0705
 2462WAT     H111653   2.741   4.498   8.240 -0.6112  0.0128  0.9048
 2462WAT     H211654   2.715   4.615   8.147 -0.1918 -1.4906 -1.1576
 2462WAT    EPW11655   2.687   4.558   8.207 -0.3792 -0.3114 -0.0854
 2463WAT      O11656   3.824   9.690   3.037  0.2082  0.2218 -0.2708
 2463WAT     H111657   3.861   9.674   2.950  1.5258 -2.4696  0.6781
 2463WAT     H211658   3.895   9.669   3.098 -1.3200 -0.0936  1.5154
 2463WAT    EPW11659   3.838   9.685   3.034  0.1804 -0.1750  0.0900
 2464WAT      O11660   0.303   5.009   7.457 -0.0303  0.2999 -0.4845
 2464WAT     H111661   0.224   5.059   7.434  0.2570  0.9162 -0.1511
 2464WAT     H211662   0.272   4.942   7.518 -0.8160 -1.3692 -2.5947
 2464WAT    EPW11663   0.288   5.007   7.462 -0.0961  0.1612 -0.7188
 2465WAT      O11664  -0.607   5.602   0.753 -0.1314 -0.4762  0.4604
 2465WAT     H111665  -0.528   5.652   0.733  0.4135  0.4692  4.2632
 2465WAT     H211666  -0.581   5.511   0.742  1.3361 -0.1549  1.0133
 2465WAT    EPW11667  -0.594   5.597   0.749  0.1340 -0.3090  1.0349
 2466WAT      O11668  -2.820  10.111   6.169  0.1294 -0.0198  0.4395
 2466WAT     H111669  -2.891  10.128   6.107 -1.2847  0.7173  2.1844
 2466WAT     H211670  -2.763  10.188   6.164  0.0681 -0.0008  0.0227
 2466WAT    EPW11671  -2.822  10.123   6.160 -0.0652  0.0801  0.6149
 2467WAT      O11672   1.001   9.532   0.432  0.3557  0.1769  0.1209
 2467WAT     H111673   1.015   9.463   0.367  1.2119 -0.6050  1.1173
 2467WAT     H211674   1.021   9.491   0.516 -1.2931  1.0078  0.9607
 2467WAT    EPW11675   1.005   9.518   0.434  0.2511  0.1831  0.3631
 2468WAT      O11676  -0.823  10.158   4.357 -0.2610  0.6638 -0.1428
 2468WAT     H111677  -0.779  10.194   4.279  0.9381 -1.5329 -0.5617
 2468WAT     H211678  -0.916  10.166   4.337  0.0192 -0.0922 -1.9721
 2468WAT    EPW11679  -0.830  10.164   4.344 -0.0659  0.2742 -0.4394
 2469WAT      O11680  -3.090   0.448   5.385  0.7190  0.2060 -0.2970
 2469WAT     H111681  -3.129   0.490   5.308  0.2006 -1.4282 -0.9635
 2469WAT     H211682  -3.143   0.369   5.399  0.6672  0.5564  1.8883
 2469WAT    EPW11683  -3.102   0.443   5.377  0.6437  0.0367 -0.0968
 2470WAT      O11684   2.226   4.961   2.459 -0.3063 -0.3215  0.1347
 2470WAT     H111685   2.263   4.954   2.371 -0.8420 -0.2512 -0.0955
 2470WAT     H211686   2.196   4.873   2.481 -0.7499 -0.2079 -0.0076
 2470WAT    EPW11687   2.227   4.949   2.450 -0.4355 -0.2973  0.0856
 2471WAT      O11688  -0.233   6.198   6.202 -0.2402 -0.2068  0.1420
 2471WAT     H111689  -0.168   6.268   6.201  1.0221 -1.3319  0.2726
 2471WAT     H211690  -0.193   6.128   6.151 -1.6956 -0.6616 -0.4224
 2471WAT    EPW11691  -0.220   6.198   6.195 -0.2657 -0.4153  0.0851
 2472WAT      O11692  -4.945   7.267   8.753  0.0536  0.2207 -0.2615
 2472WAT     H111693  -4.970   7.176   8.740  0.9479  0.0028 -0.5548
 2472WAT     H211694  -4.920   7.273   8.845 -0.2704  0.2336 -0.1755
 2472WAT    EPW11695  -4.945   7.256   8.763  0.1287  0.1934 -0.2885
 2473WAT      O11696   1.663   3.980   8.858 -0.0914 -0.2562 -0.4459
 2473WAT     H111697   1.603   3.943   8.922 -1.3376  0.0364 -1.3928
 2473WAT     H211698   1.646   4.075   8.860  0.6504 -0.1182 -0.4187
 2473WAT    EPW11699   1.653   3.988   8.866 -0.1580 -0.1994 -0.5670
 2474WAT      O11700   1.240   3.233   4.376  0.2230  0.2252  0.7723
 2474WAT     H111701   1.204   3.299   4.435  0.5222  1.2214 -0.1278
 2474WAT     H211702   1.324   3.209   4.415 -0.4019 -0.5037  1.7208
 2474WAT    EPW11703   1.246   3.239   4.389  0.1801  0.2605  0.7787
 2475WAT      O11704  -1.154   2.672   8.647 -0.5391 -0.2476  0.1844
 2475WAT     H111705  -1.150   2.766   8.632 -1.6340 -0.2612 -0.3032
 2475WAT     H211706  -1.092   2.656   8.718  0.1700  0.7326 -0.2014
 2475WAT    EPW11707  -1.145   2.682   8.654 -0.5900 -0.1202  0.0691
 2476WAT      O11708  -4.167   9.625   5.310  0.5049 -0.1070 -0.4623
 2476WAT     H111709  -4.194   9.534   5.323  0.3067  0.0129 -0.0155
 2476WAT     H211710  -4.109   9.622   5.234  1.8425 -0.8624  0.5449
 2476WAT    EPW11711  -4.163   9.612   5.301  0.6552 -0.1912 -0.2706
 2477WAT      O11712   0.485   2.496   3.347 -0.3980 -0.6218 -0.3248
 2477WAT     H111713   0.578   2.487   3.368 -0.1954 -2.1414 -1.6579
 2477WAT     H211714   0.444   2.417   3.383 -1.8091  1.4503  3.0330
 2477WAT    EPW11715   0.492   2.484   3.355 -0.5574 -0.5491 -0.0578
 2478WAT      O11716   3.458   8.209   7.511  0.1207 -0.2911 -0.0707
 2478WAT     H111717   3.420   8.147   7.574 -1.3292  0.6674  0.0316
 2478WAT     H211718   3.496   8.153   7.443  3.0711 -1.4534  2.2724
 2478WAT    EPW11719   3.458   8.193   7.510  0.3185 -0.3181  0.2518
 2479WAT      O11720  -0.982   9.507   5.130 -0.0276  0.2542 -0.0126
 2479WAT     H111721  -0.896   9.499   5.172  0.8544 -0.0662 -1.7953
 2479WAT     H211722  -1.011   9.595   5.153  0.0029 -0.1904  1.9428
 2479WAT    EPW11723  -0.974   9.517   5.138  0.0927  0.1531  0.0103
 2480WAT      O11724   1.351   2.481   0.413 -0.4853 -0.2982 -0.4682
 2480WAT     H111725   1.258   2.502   0.402 -0.1943  0.3254 -1.9544
 2480WAT     H211726   1.375   2.435   0.332  0.4999 -0.4590 -0.0942
 2480WAT    EPW11727   1.342   2.478   0.401 -0.3170 -0.2372 -0.6149
 2481WAT      O11728   0.711   6.467   7.163  0.6132 -0.0291  0.2742
 2481WAT     H111729   0.616   6.454   7.164  0.3046  1.8520  2.3137
 2481WAT     H211730   0.722   6.557   7.133  1.7094  0.0107  0.7573
 2481WAT    EPW11731   0.700   6.477   7.159  0.7171  0.2246  0.6070
 2482WAT      O11732   6.962   1.766   0.099  0.5760 -0.3318  0.4223
 2482WAT     H111733   6.906   1.737   0.028 -1.2691  1.5205  1.0128
 2482WAT     H211734   6.950   1.700   0.168  0.8297 -1.0706 -0.2246
 2482WAT    EPW11735   6.953   1.754   0.099  0.3660 -0.1850  0.4148
 2483WAT      O11736  -7.072   9.077   7.691 -0.6063  0.7758  0.0777
 2483WAT     H111737  -7.075   9.063   7.596 -2.1491  3.1669 -0.3021
 2483WAT     H211738  -6.985   9.048   7.716 -1.2207 -3.0735 -1.4475
 2483WAT    EPW11739  -7.061   9.071   7.681 -0.8910  0.5832 -0.1733
 2484WAT      O11740  -1.478   4.985   0.981  0.3088 -0.1899 -0.2744
 2484WAT     H111741  -1.456   5.062   0.929 -1.2940  0.5781  0.1093
 2484WAT     H211742  -1.573   4.990   0.991  0.3090 -1.6288  0.7002
 2484WAT    EPW11743  -1.488   4.996   0.975  0.0974 -0.2785 -0.0952
 2485WAT      O11744   5.313   0.984   6.913 -0.0653 -0.5434  0.1804
 2485WAT     H111745   5.275   0.996   6.826  1.4827  0.4064 -0.4136
 2485WAT     H211746   5.270   1.051   6.967 -1.7117 -1.7435  0.4253
 2485WAT    EPW11747   5.302   0.995   6.909 -0.0782 -0.5765  0.1345
 2486WAT      O11748   2.773   8.449   6.064 -0.0333  0.0574  0.3439
 2486WAT     H111749   2.768   8.377   6.127 -2.1965  0.9934  1.3382
 2486WAT     H211750   2.729   8.416   5.986 -0.0788 -0.0648  0.4213
 2486WAT    EPW11751   2.767   8.435   6.062 -0.3246  0.1650  0.4852
 2487WAT      O11752   1.225   6.594   3.719 -1.0659 -0.2862  0.3597
 2487WAT     H111753   1.197   6.604   3.628 -0.9276  1.4948  0.4840
 2487WAT     H211754   1.307   6.544   3.714 -0.9418 -0.0100 -0.5110
 2487WAT    EPW11755   1.232   6.589   3.706 -1.0314 -0.0148  0.2612
 2488WAT      O11756   2.004   5.141   6.318  0.1067 -0.0751  0.0348
 2488WAT     H111757   2.070   5.095   6.370 -1.5065 -0.8520  1.5298
 2488WAT     H211758   1.925   5.088   6.330 -1.0788  1.4779 -0.6833
 2488WAT    EPW11759   2.002   5.128   6.326 -0.2624  0.0274  0.1373
 2489WAT      O11760   2.872   7.790   4.606 -0.0230 -0.1391  0.1907
 2489WAT     H111761   2.791   7.840   4.611  0.4233  0.6267 -0.1510
 2489WAT     H211762   2.845   7.699   4.621 -0.7119  0.2897  1.7522
 2489WAT    EPW11763   2.858   7.784   4.609 -0.0551  0.0186  0.3517
 2490WAT      O11764   3.859   3.171   5.658 -0.5414  0.6952 -0.1621
 2490WAT     H111765   3.783   3.122   5.689  0.8554  0.1162  2.6862
 2490WAT     H211766   3.931   3.141   5.712  1.2653  2.9040 -1.1486
 2490WAT    EPW11767   3.858   3.161   5.669 -0.1190  0.9102  0.0834
 2491WAT      O11768  -5.547   3.899   8.503 -0.1979  0.1947 -0.1482
 2491WAT     H111769  -5.517   3.904   8.594  0.9825  2.6636 -0.5715
 2491WAT     H211770  -5.478   3.943   8.453  1.0814 -4.2000 -2.8259
 2491WAT    EPW11771  -5.534   3.905   8.508  0.1266 -0.0592 -0.5569
 2492WAT      O11772   0.716   4.584   0.584  0.8613 -0.2682 -0.0282
 2492WAT     H111773   0.772   4.662   0.574 -1.8894  2.3154  2.5266
 2492WAT     H211774   0.639   4.604   0.530  0.2756 -1.4363  0.3541
 2492WAT    EPW11775   0.713   4.597   0.576  0.4213 -0.0813  0.3592
 2493WAT      O11776   1.056   9.081   3.731  0.3860  0.1878  0.1858
 2493WAT     H111777   0.997   9.076   3.807  0.4387 -0.7012  0.1839
 2493WAT     H211778   1.062   9.174   3.712 -1.3817  0.2800 -0.0925
 2493WAT    EPW11779   1.049   9.093   3.739  0.1598  0.0825  0.1489
 2494WAT      O11780   5.354   2.394   2.476 -0.1141  0.0310  0.0758
 2494WAT     H111781   5.413   2.441   2.417  0.9221 -1.8457 -0.4796
 2494WAT     H211782   5.404   2.386   2.557 -0.3401  0.0386  0.2152
 2494WAT    EPW11783   5.369   2.399   2.479 -0.0072 -0.2155  0.0209
 2495WAT      O11784   0.133   5.086   2.526  0.7350  0.0781  0.3471
 2495WAT     H111785   0.163   5.012   2.580  2.7494 -0.7954 -1.7750
 2495WAT     H211786   0.173   5.070   2.441 -2.0945  1.5346 -1.3657
 2495WAT    EPW11787   0.142   5.074   2.522  0.6275  0.1552 -0.1588
 2496WAT      O11788  -0.646   8.081   1.776 -0.4202  0.7345  0.1970
 2496WAT     H111789  -0.646   7.986   1.793  0.5438  0.5911 -0.4965
 2496WAT     H211790  -0.563   8.112   1.812 -1.2493  1.5434  1.4804
 2496WAT    EPW11791  -0.635   8.072   1.783 -0.4024  0.8221  0.2748
 2497WAT      O11792  -1.608   6.366   6.247  0.0344 -0.2364  0.6309
 2497WAT     H111793  -1.640   6.385   6.335 -3.0081 -0.8579 -0.2139
 2497WAT     H211794  -1.582   6.274   6.250 -1.4898 -0.6959  0.5747
 2497WAT    EPW11795  -1.609   6.356   6.259 -0.5680 -0.3793  0.5121
 2498WAT      O11796  -0.374   2.826   6.850  0.1489  0.8186 -0.4526
 2498WAT     H111797  -0.329   2.752   6.810 -1.1904  0.1093 -0.7345
 2498WAT     H211798  -0.460   2.827   6.807 -0.7285  1.0725  1.2471
 2498WAT    EPW11799  -0.380   2.817   6.839 -0.1435  0.7585 -0.2656
 2499WAT      O11800   3.379   2.375   8.422 -0.9997  0.7776  0.3218
 2499WAT     H111801   3.291   2.368   8.458 -0.7416 -0.2529  0.7877
 2499WAT     H211802   3.427   2.428   8.485 -1.3740  1.6841 -0.1330
 2499WAT    EPW11803   3.374   2.381   8.435 -1.0149  0.7612  0.3238
 2500WAT      O11804  -5.069   1.583   8.365  0.2470  0.4399  0.3530
 2500WAT     H111805  -5.076   1.664   8.414 -1.1469  0.3539  0.3427
 2500WAT     H211806  -4.983   1.587   8.322  0.6381  1.4018  1.2013
 2500WAT    EPW11807  -5.058   1.594   8.366  0.1149  0.5555  0.4635
 2501WAT      O11808   6.835   4.374   0.262 -1.0827 -0.4862 -0.2237
 2501WAT     H111809   6.789   4.457   0.256  0.1477  0.3543  1.3730
 2501WAT     H211810   6.926   4.396   0.242 -0.9354 -1.6972 -1.0103
 2501WAT    EPW11811   6.841   4.388   0.258 -0.9010 -0.5352 -0.1169
 2502WAT      O11812   0.444   8.820   5.831 -0.3865 -0.1321 -0.5522
 2502WAT     H111813   0.486   8.748   5.878 -0.3859  1.3427  1.8578
 2502WAT     H211814   0.431   8.786   5.742  0.0100 -2.9068  0.3620
 2502WAT    EPW11815   0.448   8.806   5.825 -0.3341 -0.3037 -0.1137
 2503WAT      O11816   0.464   1.819   3.712  0.1451  0.4814  0.3086
 2503WAT     H111817   0.530   1.816   3.643  0.6440 -0.4331  0.8076
 2503WAT     H211818   0.390   1.771   3.677  0.2929  0.2560  0.3033
 2503WAT    EPW11819   0.463   1.812   3.699  0.2304  0.3311  0.3736
 2504WAT      O11820  -1.439   8.825   0.595 -0.5471 -0.5264  0.4650
 2504WAT     H111821  -1.471   8.752   0.650  2.6992 -1.0488  1.8876
 2504WAT     H211822  -1.352   8.798   0.568  0.2355  2.2880 -0.1237
 2504WAT    EPW11823  -1.432   8.812   0.599 -0.0157 -0.2236  0.5750
 2505WAT      O11824   0.835   0.549   6.759 -0.1358  0.1203  0.0102
 2505WAT     H111825   0.925   0.581   6.749 -0.3719  1.0850  0.8483
 2505WAT     H211826   0.831   0.516   6.849  0.0829 -2.2994 -0.7922
 2505WAT    EPW11827   0.846   0.549   6.769 -0.1381 -0.0716  0.0148
 2506WAT      O11828   5.056   4.477   4.206 -0.0306 -0.5963 -0.1019
 2506WAT     H111829   5.096   4.563   4.200 -0.9162  0.0061  1.8949
 2506WAT     H211830   5.128   4.418   4.229  0.1313  0.0672  1.1308
 2506WAT    EPW11831   5.071   4.480   4.208 -0.1261 -0.4294  0.3242
 2507WAT      O11832  -5.472   5.391   6.864 -0.4104 -0.0308 -0.1067
 2507WAT     H111833  -5.563   5.413   6.845 -0.5157 -1.4992 -1.5310
 2507WAT     H211834  -5.421   5.464   6.828 -1.0236  1.2206  1.4660
 2507WAT    EPW11835  -5.477   5.403   6.856 -0.5052 -0.0594 -0.0870
 2508WAT      O11836   1.769   8.747   0.311  0.3715  0.1963 -0.4290
 2508WAT     H111837   1.799   8.806   0.380  1.5471 -0.2605 -0.5307
 2508WAT     H211838   1.788   8.793   0.230  0.2197  0.1583 -0.4880
 2508WAT    EPW11839   1.775   8.761   0.309  0.5066  0.1311 -0.4502
 2509WAT      O11840   6.549   2.259   2.735  0.4128 -0.2647 -0.1869
 2509WAT     H111841   6.566   2.241   2.827 -0.2056 -0.6984 -0.1522
 2509WAT     H211842   6.551   2.354   2.728 -2.8090  0.0121  0.9465
 2509WAT    EPW11843   6.552   2.269   2.746 -0.0937 -0.2854 -0.0328
 2510WAT      O11844  -1.183   1.504   4.771 -0.3287  0.6056 -0.1913
 2510WAT     H111845  -1.126   1.478   4.843 -2.4238 -0.5413  1.1422
 2510WAT     H211846  -1.131   1.567   4.721  2.6221 -1.4432  0.0776
 2510WAT    EPW11847  -1.169   1.509   4.774 -0.2158  0.1841  0.0203
 2511WAT      O11848   0.859   4.248   0.929 -0.2911 -0.3620  0.2169
 2511WAT     H111849   0.796   4.298   0.981 -0.3882 -1.3536  1.0876
 2511WAT     H211850   0.808   4.213   0.856 -0.6068 -0.6139  0.5567
 2511WAT    EPW11851   0.844   4.250   0.926 -0.3455 -0.5260  0.3766
 2512WAT      O11852   0.284   7.584   8.941  0.1969 -0.3153  0.0981
 2512WAT     H111853   0.352   7.572   8.874  2.7707 -0.9558  2.6304
 2512WAT     H211854   0.251   7.672   8.925  1.7595  0.1053 -1.1506
 2512WAT    EPW11855   0.289   7.594   8.930  0.7425 -0.3443  0.2670
 2513WAT      O11856   0.899   7.298   8.756  0.0602  0.5334  1.0272
 2513WAT     H111857   0.807   7.274   8.769 -0.0976  0.3646 -0.2932
 2513WAT     H211858   0.896   7.388   8.724  0.3449  0.4780  0.8423
 2513WAT    EPW11859   0.886   7.306   8.754  0.0769  0.5040  0.8283
 2514WAT      O11860   1.343   5.090   2.082  0.5977 -0.3763 -0.4581
 2514WAT     H111861   1.354   5.046   2.166 -0.1395  1.9297  0.9267
 2514WAT     H211862   1.344   5.184   2.103 -4.3136  0.3623 -2.2809
 2514WAT    EPW11863   1.345   5.097   2.096 -0.1473  0.0255 -0.5158
 2515WAT      O11864  -0.408   8.328   3.703 -0.3666 -0.1113  0.2535
 2515WAT     H111865  -0.316   8.353   3.706 -0.3499  0.2086 -1.8355
 2515WAT     H211866  -0.453   8.404   3.665 -1.0218 -1.3512 -1.5914
 2515WAT    EPW11867  -0.402   8.341   3.699 -0.4508 -0.2327 -0.2652
 2516WAT      O11868   7.065   0.822   5.313 -0.4803 -0.9301  0.2239
 2516WAT     H111869   7.036   0.839   5.224 -0.5208 -0.0707  0.3923
 2516WAT     H211870   7.036   0.732   5.331  0.0384 -1.3261 -0.8186
 2516WAT    EPW11871   7.057   0.812   5.304 -0.4172 -0.8690  0.1085
 2517WAT      O11872   1.846   6.800   8.420  0.7703 -0.0652 -0.9128
 2517WAT     H111873   1.888   6.795   8.506 -1.4629 -3.1057  0.1777
 2517WAT     H211874   1.784   6.872   8.428  0.3506 -0.5276  0.1781
 2517WAT    EPW11875   1.843   6.809   8.432  0.4204 -0.5274 -0.6247
 2518WAT      O11876   4.041   5.798   4.012 -0.1728  0.2811  0.6061
 2518WAT     H111877   3.991   5.738   4.069 -2.9636 -2.0434 -3.7545
 2518WAT     H211878   3.992   5.880   4.015  0.1301  0.4413  1.9727
 2518WAT    EPW11879   4.028   5.801   4.020 -0.5009 -0.0043  0.2115
 2519WAT      O11880  -3.529   4.969   7.210  0.1137  0.2394 -0.4406
 2519WAT     H111881  -3.482   4.936   7.133 -0.4101  2.2271 -1.6803
 2519WAT     H211882  -3.618   4.986   7.179  0.6138  3.8766 -0.3010
 2519WAT    EPW11883  -3.535   4.967   7.196  0.1105  0.9813 -0.5856
 2520WAT      O11884  -5.963   9.378   7.292  0.3505  0.1385  0.1581
 2520WAT     H111885  -6.048   9.340   7.314  0.4316  1.6180  3.5606
 2520WAT     H211886  -5.922   9.313   7.235 -1.7512 -2.1332  1.0661
 2520WAT    EPW11887  -5.969   9.365   7.287  0.0839  0.0343  0.7265
 2521WAT      O11888  -3.137   9.701   8.014  0.2414 -0.4598 -0.1731
 2521WAT     H111889  -3.189   9.675   8.089  0.8677  1.5755  1.0301
 2521WAT     H211890  -3.048   9.710   8.048  0.9215 -1.2946 -1.6046
 2521WAT    EPW11891  -3.132   9.699   8.028  0.4135 -0.3014 -0.2031
 2522WAT      O11892   6.789   2.989   3.610 -0.1131  0.0015  0.1940
 2522WAT     H111893   6.820   2.916   3.663  0.4970 -0.8651 -1.2742
 2522WAT     H211894   6.778   3.061   3.672 -0.4327 -1.2391  1.6303
 2522WAT    EPW11895   6.792   2.989   3.625 -0.0751 -0.2764  0.1898
 2523WAT      O11896  -3.854   7.434   6.562  0.2392 -0.3050  0.9521
 2523WAT     H111897  -3.906   7.513   6.548 -0.6956 -0.7217  1.8604
 2523WAT     H211898  -3.843   7.430   6.657 -0.2803 -1.5884  0.9855
 2523WAT    EPW11899  -3.860   7.444   6.573  0.0476 -0.5291  1.0765
 2524WAT      O11900   0.913   3.327   0.777 -0.3731 -0.0470 -0.9256
 2524WAT     H111901   0.850   3.266   0.737 -2.9687  2.4504 -0.9540
 2524WAT     H211902   0.923   3.295   0.867 -2.6878  0.1431 -0.5459
 2524WAT    EPW11903   0.906   3.315   0.784 -1.0208  0.3076 -0.8792
 2525WAT      O11904  -0.598   4.783   5.401  0.3393 -0.2283 -0.3588
 2525WAT     H111905  -0.593   4.706   5.343  2.2229  0.2422 -0.8751
 2525WAT     H211906  -0.623   4.747   5.486 -2.3322 -0.9538 -1.3634
 2525WAT    EPW11907  -0.601   4.768   5.405  0.2354 -0.2620 -0.5596
 2526WAT      O11908   7.359   5.976   0.260 -0.1667 -0.6042  0.2657
 2526WAT     H111909   7.341   5.888   0.293  2.4073 -0.7300  1.6535
 2526WAT     H211910   7.448   5.994   0.290 -1.2177  3.1802  1.6215
 2526WAT    EPW11911   7.368   5.967   0.269  0.0343 -0.1216  0.6276
 2527WAT      O11912   2.064   0.315   1.446  0.6659 -0.0314  0.7954
 2527WAT     H111913   2.091   0.225   1.464 -2.0206 -1.0207  0.3855
 2527WAT     H211914   2.076   0.360   1.530  4.0247 -0.1107  0.4946
 2527WAT    EPW11915   2.069   0.309   1.460  0.7546 -0.1724  0.7017
 2528WAT      O11916  -1.838   1.926   5.336 -0.3833  0.6734  0.2107
 2528WAT     H111917  -1.924   1.891   5.360 -0.0112  0.0110  0.6197
 2528WAT     H211918  -1.792   1.850   5.300  0.1665  0.9331  0.3690
 2528WAT    EPW11919  -1.844   1.911   5.335 -0.2617  0.6202  0.2854
 2529WAT      O11920  -0.377   2.374   2.315 -0.4035 -0.1874 -0.2881
 2529WAT     H111921  -0.312   2.327   2.366 -0.3859  1.2320  1.0689
 2529WAT     H211922  -0.331   2.399   2.234  0.5296  0.2024  0.3474
 2529WAT    EPW11923  -0.362   2.371   2.311 -0.2781  0.0511 -0.0254
 2530WAT      O11924  -3.556   8.807   4.623  0.4390  0.6411 -0.4769
 2530WAT     H111925  -3.462   8.797   4.608  0.8601 -0.8970  2.5539
 2530WAT     H211926  -3.594   8.724   4.595  0.2515  0.5401  0.0697
 2530WAT    EPW11927  -3.549   8.795   4.617  0.4698  0.4249 -0.0050
 2531WAT      O11928   3.288   7.133   1.804 -0.3268  0.3467 -0.2710
 2531WAT     H111929   3.235   7.210   1.823 -0.0527 -0.0341  2.4114
 2531WAT     H211930   3.378   7.164   1.810 -0.2075 -0.2271  1.2528
 2531WAT    EPW11931   3.293   7.147   1.807 -0.2749  0.2210  0.2838
 2532WAT      O11932   4.820   8.894   0.039  0.2271 -1.0564 -0.4224
 2532WAT     H111933   4.888   8.828   0.049  0.7960 -0.3270  0.6944
 2532WAT     H211934   4.837   8.934  -0.047  2.8952  0.9139  0.8787
 2532WAT    EPW11935   4.831   8.891   0.029  0.6540 -0.7005 -0.1035
 2533WAT      O11936   8.879   1.147   2.741 -0.1331  0.6079  0.2206
 2533WAT     H111937   8.812   1.210   2.714 -2.3755 -2.2662 -1.5506
 2533WAT     H211938   8.829   1.075   2.781  1.5882 -2.3881 -2.5793
 2533WAT    EPW11939   8.863   1.146   2.743 -0.2022 -0.1664 -0.3823
 2534WAT      O11940   1.799   2.906   6.059  0.6466 -0.2019 -0.4225
 2534WAT     H111941   1.848   2.884   6.138  3.3838 -1.8158 -2.4173
 2534WAT     H211942   1.791   2.824   6.012 -0.9192  0.7165 -1.8794
 2534WAT    EPW11943   1.804   2.893   6.064  0.8011 -0.2936 -0.8776
 2535WAT      O11944   4.921   4.615   7.038  0.2089  0.2940  0.1276
 2535WAT     H111945   4.919   4.521   7.018  0.7877  0.4400 -0.6546
 2535WAT     H211946   5.013   4.636   7.049 -0.0337  0.1772  3.4167
 2535WAT    EPW11947   4.933   4.605   7.037  0.2532  0.2978  0.4582
 2536WAT      O11948   5.528   1.742   6.402 -0.1018 -0.6156 -0.0478
 2536WAT     H111949   5.598   1.684   6.433  1.9879  1.1564 -1.0956
 2536WAT     H211950   5.447   1.698   6.426  1.3670 -2.8547  1.1463
 2536WAT    EPW11951   5.527   1.729   6.409  0.3674 -0.6772 -0.0286
 2537WAT      O11952  -0.886   2.571   4.463  0.7053  0.2618  0.6807
 2537WAT     H111953  -0.940   2.608   4.532 -0.2623  1.1495 -0.5034
 2537WAT     H211954  -0.924   2.604   4.382  2.0149 -0.4542 -0.2792
 2537WAT    EPW11955  -0.898   2.580   4.461  0.7505  0.2844  0.3979
 2538WAT      O11956   0.874   8.297   3.644  0.1793 -0.6192 -0.0347
 2538WAT     H111957   0.839   8.366   3.587  1.0110 -2.3023 -2.7841
 2538WAT     H211958   0.797   8.264   3.690 -0.7078  0.2635 -0.8133
 2538WAT    EPW11959   0.859   8.302   3.642  0.1720 -0.7243 -0.5001
 2539WAT      O11960  -3.364   3.063   6.311 -0.2801 -0.5359 -0.1162
 2539WAT     H111961  -3.302   3.115   6.259 -0.3943  0.9348  1.1417
 2539WAT     H211962  -3.444   3.061   6.258 -0.2489  0.5501 -0.2407
 2539WAT    EPW11963  -3.366   3.070   6.297 -0.2910 -0.1986  0.0331
 2540WAT      O11964   0.541   2.013   5.268 -0.3907 -0.8067  0.9044
 2540WAT     H111965   0.607   2.066   5.313 -1.3193  0.7713  0.4734
 2540WAT     H211966   0.470   2.074   5.248 -0.3881 -1.5761 -1.9900
 2540WAT    EPW11967   0.540   2.028   5.271 -0.5128 -0.7001  0.4659
 2541WAT      O11968  -3.124   0.810   7.008 -0.0612 -0.4896  0.0514
 2541WAT     H111969  -3.087   0.726   7.034  1.0496 -0.2210 -0.6101
 2541WAT     H211970  -3.053   0.854   6.961 -0.7553  0.6555  0.0465
 2541WAT    EPW11971  -3.110   0.805   7.005 -0.0063 -0.3032 -0.0365
 2542WAT      O11972   0.271   0.702   0.835 -0.4940  0.0134 -0.6109
 2542WAT     H111973   0.343   0.753   0.870 -0.8420  0.5930 -0.7292
 2542WAT     H211974   0.254   0.740   0.749 -0.1611 -0.8893 -1.0903
 2542WAT    EPW11975   0.278   0.714   0.828 -0.4959 -0.0292 -0.6897
 2543WAT      O11976   3.439   4.812   0.949 -0.4550 -0.1997 -1.1981
 2543WAT     H111977   3.448   4.796   0.855 -0.0372 -0.6874 -1.0770
 2543WAT     H211978   3.527   4.798   0.984 -0.2268  1.5803 -0.9622
 2543WAT    EPW11979   3.452   4.808   0.941 -0.3698 -0.0291 -1.1510
 2544WAT      O11980   0.851   8.286   8.096  0.3031 -0.3838  0.3085
 2544WAT     H111981   0.790   8.213   8.108  1.1977 -0.9619  1.6042
 2544WAT     H211982   0.796   8.359   8.068 -0.9393 -0.9784  1.1114
 2544WAT    EPW11983   0.836   8.286   8.094  0.2572 -0.5388  0.5856
 2545WAT      O11984  -7.040   8.697   7.035  0.5696 -0.3417 -0.5985
 2545WAT     H111985  -6.948   8.712   7.013  1.0013 -1.2047  0.5267
 2545WAT     H211986  -7.082   8.680   6.951  1.6381 -0.8882 -1.0405
 2545WAT    EPW11987  -7.034   8.696   7.021  0.7675 -0.5274 -0.5083
 2546WAT      O11988   1.880   9.232   3.545  0.5117  0.8060  0.1915
 2546WAT     H111989   1.903   9.273   3.629  2.1376  2.0909 -0.8101
 2546WAT     H211990   1.790   9.203   3.556  0.7881  0.6206  2.4948
 2546WAT    EPW11991   1.871   9.234   3.557  0.7626  0.9508  0.3633
 2547WAT      O11992   1.638   0.068   4.683  0.0609  0.4964 -0.4238
 2547WAT     H111993   1.662   0.158   4.662  2.6932  0.5086  1.9285
 2547WAT     H211994   1.648   0.020   4.601 -1.8138  2.3353 -1.8240
 2547WAT    EPW11995   1.643   0.074   4.670  0.1608  0.7406 -0.2983
 2548WAT      O11996  -4.290   6.749   7.151  0.0475 -0.3468 -0.5110
 2548WAT     H111997  -4.227   6.706   7.208  0.7395  1.2869  0.0114
 2548WAT     H211998  -4.263   6.725   7.063  1.6917  0.6489 -0.3181
 2548WAT    EPW11999  -4.278   6.740   7.147  0.3555  0.0002 -0.4168
 2549WAT      O12000   3.509   7.876   5.739 -0.1265 -0.3907  0.0483
 2549WAT     H112001   3.473   7.789   5.755 -2.0636  0.4488  0.4979
 2549WAT     H212002   3.433   7.934   5.742  1.3094  1.5413  1.4811
 2549WAT    EPW12003   3.494   7.872   5.741 -0.1925 -0.0253  0.2966
 2550WAT      O12004   0.093   8.253   0.906  0.2265 -0.1180 -0.1036
 2550WAT     H112005   0.125   8.166   0.882 -1.0816 -0.1009 -2.1547
 2550WAT     H212006   0.152   8.281   0.975  1.1661 -2.3109  0.0820
 2550WAT    EPW12007   0.105   8.245   0.912  0.1779 -0.4053 -0.3497
 2551WAT      O12008   0.250   6.315   2.285 -0.2468  0.5819 -0.3308
 2551WAT     H112009   0.275   6.242   2.228 -0.9473  0.6408 -0.7228
 2551WAT     H212010   0.309   6.308   2.360 -0.0604 -0.1731 -0.5395
 2551WAT    EPW12011   0.261   6.304   2.287 -0.3146  0.4900 -0.4101
 2552WAT      O12012   3.841   1.138   2.136  1.0743  0.3753  0.0843
 2552WAT     H112013   3.895   1.216   2.123  1.3446  0.6516  2.4982
 2552WAT     H212014   3.904   1.066   2.140  0.9319  0.1921 -0.7902
 2552WAT    EPW12015   3.856   1.139   2.135  1.0911  0.3876  0.2874
 2553WAT      O12016  -1.956   3.753   4.085 -0.2139 -0.0344  0.2053
 2553WAT     H112017  -1.935   3.833   4.134 -2.4173 -0.5572  2.1575
 2553WAT     H212018  -1.872   3.709   4.075  0.9118  2.0439 -0.0944
 2553WAT    EPW12019  -1.942   3.758   4.090 -0.3561  0.1707  0.4232
 2554WAT      O12020   1.279   2.059   1.072 -0.1174 -0.3149 -0.7562
 2554WAT     H112021   1.225   2.033   1.146 -0.3134 -1.1423 -1.1755
 2554WAT     H212022   1.369   2.044   1.102 -0.1959 -0.6269 -0.6722
 2554WAT    EPW12023   1.284   2.053   1.086 -0.1535 -0.4652 -0.8004
 2555WAT      O12024   1.433   2.808   3.958 -0.4405 -0.5564 -0.4948
 2555WAT     H112025   1.416   2.842   3.871 -0.4381  4.4912  1.1821
 2555WAT     H212026   1.527   2.788   3.958 -0.0111  1.3175 -1.1542
 2555WAT    EPW12027   1.443   2.810   3.947 -0.3836  0.3564 -0.3606
 2556WAT      O12028   3.363   8.979   5.563 -0.0599  0.2419  0.7937
 2556WAT     H112029   3.441   9.034   5.557 -0.5067  0.9656  1.4476
 2556WAT     H212030   3.292   9.035   5.531 -0.5449  0.1074  1.6061
 2556WAT    EPW12031   3.364   8.994   5.558 -0.1827  0.3200  0.9871
 2557WAT      O12032   3.835   7.128   1.813 -0.3615  0.0314  0.0892
 2557WAT     H112033   3.886   7.209   1.818 -0.0196 -0.2091  0.5730
 2557WAT     H212034   3.821   7.103   1.904 -0.6040 -0.3727 -0.0565
 2557WAT    EPW12035   3.840   7.135   1.826 -0.3483 -0.0536  0.1338
 2558WAT      O12036   1.529   9.241   6.296 -0.1773  0.6648 -0.1691
 2558WAT     H112037   1.582   9.161   6.302  0.3153  1.0066  0.1122
 2558WAT     H212038   1.593   9.311   6.288 -0.5227  1.2362  1.6992
 2558WAT    EPW12039   1.544   9.239   6.296 -0.1579  0.7849  0.1144
 2559WAT      O12040  -4.197   2.950   7.583 -0.3817 -0.0620 -0.1271
 2559WAT     H112041  -4.262   2.896   7.537  0.1263  1.2055 -2.4627
 2559WAT     H212042  -4.132   2.887   7.614 -0.7008 -0.9941 -1.2495
 2559WAT    EPW12043  -4.197   2.935   7.581 -0.3567 -0.0178 -0.5834
 2560WAT      O12044  -1.407   6.426   6.646  0.2638 -0.7190  0.0945
 2560WAT     H112045  -1.406   6.495   6.580  0.4601  0.0876  0.9308
 2560WAT     H212046  -1.499   6.420   6.673  0.2882 -0.6141  0.2003
 2560WAT    EPW12047  -1.419   6.434   6.641  0.2929 -0.5989  0.2186
 2561WAT      O12048  -6.027   8.707   5.484 -0.7666  0.4771  0.2730
 2561WAT     H112049  -6.002   8.698   5.576 -1.2488 -2.1878  0.2352
 2561WAT     H212050  -5.971   8.645   5.438 -1.1745  1.0936 -1.1055
 2561WAT    EPW12051  -6.016   8.698   5.490 -0.8841  0.2065  0.0863
 2562WAT      O12052  -1.732   3.743   2.447  0.4962 -0.7829 -0.4937
 2562WAT     H112053  -1.686   3.692   2.513  1.0896  2.8100  2.1260
 2562WAT     H212054  -1.825   3.735   2.472  0.8026  1.5399  1.7113
 2562WAT    EPW12055  -1.738   3.735   2.459  0.6149 -0.0027  0.1427
 2563WAT      O12056   5.046   0.972   7.509 -0.4055  0.1461 -0.3079
 2563WAT     H112057   5.120   0.941   7.561 -2.1456  2.1336  3.7380
 2563WAT     H212058   4.981   0.902   7.514 -0.9139  0.6864  1.1172
 2563WAT    EPW12059   5.047   0.959   7.516 -0.7021  0.4795  0.4137
 2564WAT      O12060   2.278   9.596   4.481 -0.0935  0.0946 -0.2478
 2564WAT     H112061   2.369   9.622   4.466  0.9172 -2.9840 -0.2778
 2564WAT     H212062   2.285   9.510   4.522 -3.0247 -0.1113  0.0175
 2564WAT    EPW12063   2.291   9.588   4.484 -0.3469 -0.3386 -0.2170
 2565WAT      O12064   3.788   6.819   5.788  0.7433  0.0024 -0.5516
 2565WAT     H112065   3.771   6.739   5.837 -2.6728  0.6843 -0.3616
 2565WAT     H212066   3.854   6.795   5.724  1.7541 -2.2119  1.1994
 2565WAT    EPW12067   3.794   6.805   5.786  0.4259 -0.1996 -0.2956
 2566WAT      O12068   0.882   1.042   7.110 -0.7802  0.5459  0.3387
 2566WAT     H112069   0.871   0.974   7.176  1.9612  1.0031  1.4037
 2566WAT     H212070   0.830   1.011   7.036 -1.0308 -1.8233  1.3861
 2566WAT    EPW12071   0.874   1.029   7.109 -0.4517  0.2937  0.6175
 2567WAT      O12072   2.494   8.822   5.177 -0.1813 -0.2289  0.5335
 2567WAT     H112073   2.438   8.823   5.099  2.0414  0.3450 -1.1649
 2567WAT     H212074   2.442   8.864   5.245 -1.4386  1.2634 -1.2531
 2567WAT    EPW12075   2.480   8.828   5.176 -0.0540  0.0439  0.0739
 2568WAT      O12076   2.684   1.117   4.105 -0.2202 -0.1264 -0.1934
 2568WAT     H112077   2.631   1.168   4.167 -2.4411 -0.1186 -1.9698
 2568WAT     H212078   2.629   1.109   4.027  1.5716 -2.0227 -1.3746
 2568WAT    EPW12079   2.670   1.123   4.103 -0.2768 -0.3755 -0.5836
 2569WAT      O12080  -2.991   9.496   1.547  0.3043 -0.3204 -0.5639
 2569WAT     H112081  -3.038   9.484   1.630  2.9696 -0.5284  1.0246
 2569WAT     H212082  -2.979   9.590   1.540  1.6829 -0.4042  0.3046
 2569WAT    EPW12083  -2.996   9.507   1.557  0.8377 -0.3586 -0.2399
 2570WAT      O12084   1.711   0.845   6.907  0.8093  0.1533 -0.2667
 2570WAT     H112085   1.769   0.782   6.950 -1.6015 -1.6661  0.5678
 2570WAT     H212086   1.675   0.796   6.833 -0.5854  0.7639 -0.0164
 2570WAT    EPW12087   1.714   0.830   6.903  0.3073 -0.0061 -0.1237
 2571WAT      O12088  -2.609   8.365   7.341  0.8972 -0.4159  0.6200
 2571WAT     H112089  -2.536   8.378   7.281  0.5598 -0.2040  0.2558
 2571WAT     H212090  -2.569   8.367   7.428  1.7095 -2.8145  0.3717
 2571WAT    EPW12091  -2.594   8.367   7.345  0.9599 -0.7043  0.5391
 2572WAT      O12092   3.605   9.452   0.091 -0.0697 -0.1750 -0.2583
 2572WAT     H112093   3.583   9.480   0.003  0.0438  0.6929 -0.0183
 2572WAT     H212094   3.536   9.389   0.115 -0.8396  0.5752 -0.4690
 2572WAT    EPW12095   3.593   9.447   0.083 -0.1562  0.0386 -0.2544
 2573WAT      O12096   1.616   0.845   6.061 -0.0238 -0.2205 -0.4963
 2573WAT     H112097   1.677   0.853   6.135 -0.1509  2.0621 -0.5668
 2573WAT     H212098   1.626   0.927   6.013 -2.4241 -0.2020 -1.0794
 2573WAT    EPW12099   1.625   0.857   6.064 -0.3572  0.0830 -0.5825
 2574WAT      O12100  -0.425   1.492   0.621 -0.1790  0.4247 -0.0608
 2574WAT     H112101  -0.486   1.436   0.573  1.2663 -1.0125 -0.3010
 2574WAT     H212102  -0.462   1.497   0.709 -0.0234 -1.4931  0.1605
 2574WAT    EPW12103  -0.438   1.485   0.626  0.0322 -0.0178 -0.0633
 2575WAT      O12104   2.836   0.623   5.776  0.1980 -0.4318  0.4113
 2575WAT     H112105   2.759   0.594   5.729  0.1989  1.5983 -0.9622
 2575WAT     H212106   2.814   0.609   5.868 -0.8218 -2.1034 -0.0441
 2575WAT    EPW12107   2.823   0.618   5.782  0.0637 -0.3845  0.1700
 2576WAT      O12108  -5.591   8.008   8.970 -0.1907  0.2118 -0.1598
 2576WAT     H112109  -5.589   7.965   8.885  3.3209  0.8686 -0.5558
 2576WAT     H212110  -5.646   7.952   9.025 -1.2415 -1.0610 -2.3839
 2576WAT    EPW12111  -5.598   7.995   8.966  0.1338  0.1307 -0.5054
 2577WAT      O12112  -2.140   0.938   7.275 -0.2981 -0.3293  0.2336
 2577WAT     H112113  -2.172   0.859   7.317 -0.6139  0.1267  0.8661
 2577WAT     H212114  -2.168   1.009   7.332  0.4320  0.2037 -0.0457
 2577WAT    EPW12115  -2.148   0.937   7.288 -0.2435 -0.1988  0.2801
 2578WAT      O12116  -0.474   0.028   5.429 -0.3981  0.2457 -0.7730
 2578WAT     H112117  -0.463  -0.044   5.367  1.2451 -0.0641 -0.1919
 2578WAT     H212118  -0.566   0.025   5.453 -0.3576 -1.7701 -0.6853
 2578WAT    EPW12119  -0.485   0.018   5.424 -0.1760 -0.0615 -0.6847
 2579WAT      O12120  -3.237   9.881   5.991  0.4420 -0.0826  0.2047
 2579WAT     H112121  -3.305   9.889   6.058 -0.8981  1.7108 -1.2586
 2579WAT     H212122  -3.179   9.956   6.008 -0.3759  0.8795 -1.0738
 2579WAT    EPW12123  -3.238   9.892   6.002  0.1574  0.2809 -0.1571
 2580WAT      O12124  -0.102   5.648   5.092  0.3841  0.0684 -1.1369
 2580WAT     H112125  -0.069   5.734   5.065 -1.8440  1.1192 -0.7352
 2580WAT     H212126  -0.181   5.668   5.142  0.8110 -2.1508  0.5443
 2580WAT    EPW12127  -0.108   5.662   5.095  0.1465 -0.0858 -0.8619
 2581WAT      O12128  -5.087   7.531   8.702  0.2682  0.5268  0.2240
 2581WAT     H112129  -5.086   7.439   8.729  1.8018  0.7067  0.9471
 2581WAT     H212130  -5.150   7.572   8.761 -2.0010 -0.3547 -1.4340
 2581WAT    EPW12131  -5.095   7.524   8.714  0.1712  0.4342  0.1006
 2582WAT      O12132  -2.258   1.531   5.958 -0.0475  0.4350 -0.0122
 2582WAT     H112133  -2.329   1.483   6.000  1.0992 -0.1453  1.3684
 2582WAT     H212134  -2.271   1.622   5.984 -1.1262  0.5973 -1.0372
 2582WAT    EPW12135  -2.269   1.537   5.967 -0.0385  0.3799  0.0348
 2583WAT      O12136   0.271   1.158   1.590  0.1558 -0.5614  0.1166
 2583WAT     H112137   0.285   1.239   1.638 -0.2097  0.5305 -1.5501
 2583WAT     H212138   0.179   1.162   1.563  0.2931 -1.2472 -0.4730
 2583WAT    EPW12139   0.261   1.169   1.593  0.1258 -0.5079 -0.1810
 2584WAT      O12140   4.964   3.869   4.468  0.6732  0.2052 -0.3857
 2584WAT     H112141   4.981   3.951   4.423  0.9721  2.9654  4.1236
 2584WAT     H212142   5.047   3.846   4.510 -0.6308  0.8913  2.9188
 2584WAT    EPW12143   4.977   3.877   4.468  0.5405  0.6598  0.6449
 2585WAT      O12144  -4.029   0.378   6.656  0.2835 -0.5047  0.5841
 2585WAT     H112145  -4.001   0.422   6.736 -2.2900 -0.3643  1.5044
 2585WAT     H212146  -4.034   0.449   6.591 -0.1171 -0.1368  1.0098
 2585WAT    EPW12147  -4.026   0.393   6.658 -0.1087 -0.4377  0.7615
 2586WAT      O12148   1.112   8.981   0.035  0.6088 -0.5713  0.0449
 2586WAT     H112149   1.052   9.055   0.047  3.6020  1.9374  0.9372
 2586WAT     H212150   1.116   8.968  -0.059  0.0632  0.4695 -0.1316
 2586WAT    EPW12151   1.105   8.989   0.024  0.9316 -0.1030  0.1393
 2587WAT      O12152  -3.275  10.280   4.613 -0.3320 -0.0196  0.1801
 2587WAT     H112153  -3.247  10.347   4.551 -1.7996 -1.7487 -2.5155
 2587WAT     H212154  -3.209  10.210   4.604 -0.1908 -0.0212  1.1109
 2587WAT    EPW12155  -3.262  10.279   4.604 -0.5069 -0.2475 -0.0525
 2588WAT      O12156   6.513   1.501   4.733  0.1774  0.3338 -0.6376
 2588WAT     H112157   6.592   1.555   4.732 -0.1735  0.8646 -1.8420
 2588WAT     H212158   6.476   1.514   4.821  1.0156  0.6845 -0.3266
 2588WAT    EPW12159   6.518   1.510   4.744  0.2415  0.4501 -0.7555
 2589WAT      O12160   2.039   2.143   2.941  0.0525 -0.1399 -0.8995
 2589WAT     H112161   2.122   2.096   2.938  0.2503  0.2509 -1.7299
 2589WAT     H212162   2.009   2.132   3.031 -0.3103 -2.5111 -1.2692
 2589WAT    EPW12163   2.046   2.136   2.953  0.0308 -0.4010 -1.0577
 2590WAT      O12164   6.828   0.314   2.500  0.1511 -0.4822  0.0322
 2590WAT     H112165   6.749   0.297   2.551  0.6339 -0.3331  0.8407
 2590WAT     H212166   6.819   0.258   2.423  0.1896 -1.9906  1.0764
 2590WAT    EPW12167   6.816   0.304   2.496  0.2198 -0.6615  0.2766
 2591WAT      O12168  -6.443   6.219   7.593 -0.2523 -0.5291  0.4827
 2591WAT     H112169  -6.476   6.235   7.504 -1.1835 -0.7239  0.7789
 2591WAT     H212170  -6.437   6.305   7.633  2.0682 -0.2068 -0.3730
 2591WAT    EPW12171  -6.447   6.232   7.586 -0.0689 -0.5124  0.4086
 2592WAT      O12172   4.748   3.546   2.878 -0.0103 -0.1657 -0.5472
 2592WAT     H112173   4.752   3.630   2.923  1.4501 -0.0890 -0.7700
 2592WAT     H212174   4.772   3.566   2.787  1.3665 -0.9332 -0.3934
 2592WAT    EPW12175   4.752   3.560   2.872  0.3641 -0.2569 -0.5562
 2593WAT      O12176   0.567   3.402   0.822 -0.8182  0.1202 -0.5598
 2593WAT     H112177   0.607   3.420   0.737  0.5487 -1.3591 -0.2992
 2593WAT     H212178   0.564   3.487   0.866  1.3507  0.4457 -0.9244
 2593WAT    EPW12179   0.572   3.415   0.817 -0.3518 -0.0319 -0.5735
 2594WAT      O12180   6.943   7.238   1.701  0.7136  0.2352 -0.4908
 2594WAT     H112181   6.853   7.258   1.675 -0.4448 -0.3271  2.6497
 2594WAT     H212182   6.966   7.159   1.653 -0.9811 -0.3352 -0.4053
 2594WAT    EPW12183   6.935   7.231   1.692  0.3374  0.0858 -0.0653
 2595WAT      O12184  -0.509   3.392   7.192 -0.3018  0.3324  0.1921
 2595WAT     H112185  -0.519   3.366   7.101 -0.3250 -0.3748  0.3881
 2595WAT     H212186  -0.592   3.367   7.233  0.0689 -0.2636  0.6060
 2595WAT    EPW12187  -0.521   3.385   7.186 -0.2560  0.1606  0.2723
 2596WAT      O12188   0.447   7.938   0.307  0.4739 -0.2801  0.0211
 2596WAT     H112189   0.493   7.992   0.371  0.1446 -3.2859  3.0404
 2596WAT     H212190   0.356   7.939   0.335 -0.7036  1.9097 -3.2239
 2596WAT    EPW12191   0.441   7.946   0.319  0.2752 -0.3877 -0.0086
 2597WAT      O12192   2.907   2.160   7.107  0.2400  0.1015  0.1307
 2597WAT     H112193   2.954   2.199   7.181 -0.8728  0.7523  0.5270
 2597WAT     H212194   2.830   2.120   7.146 -0.2533  0.2682 -0.6497
 2597WAT    EPW12195   2.903   2.160   7.122  0.0281  0.2093  0.0799
 2598WAT      O12196  -4.729   4.293   7.000  0.0078  0.5078 -0.3565
 2598WAT     H112197  -4.707   4.214   6.950 -0.0887  0.4507 -0.3071
 2598WAT     H212198  -4.677   4.286   7.080 -0.1953  0.3676 -0.2359
 2598WAT    EPW12199  -4.719   4.281   7.004 -0.0317  0.4818 -0.3340
 2599WAT      O12200  -0.567   6.562   2.733 -0.2103  0.5815 -0.1465
 2599WAT     H112201  -0.631   6.566   2.662 -0.4774  0.6521  0.0968
 2599WAT     H212202  -0.492   6.516   2.695 -2.2646 -4.3569  0.9365
 2599WAT    EPW12203  -0.566   6.557   2.719 -0.5165 -0.0606  0.0285
 2600WAT      O12204   5.624   6.760   4.482  0.5327  0.0413  0.2966
 2600WAT     H112205   5.705   6.746   4.433  1.2867  0.8471  1.2726
 2600WAT     H212206   5.651   6.811   4.559 -0.8327 -0.0389  0.8544
 2600WAT    EPW12207   5.639   6.765   4.486  0.4520  0.1369  0.4990
 2601WAT      O12208  -6.207   6.804   8.353  0.3375  0.4091  0.1923
 2601WAT     H112209  -6.269   6.874   8.335  0.1176  0.1240 -0.1738
 2601WAT     H212210  -6.258   6.724   8.349  0.5128  0.2466  0.9903
 2601WAT    EPW12211  -6.222   6.803   8.350  0.3314  0.3502  0.2489
 2602WAT      O12212   9.028   2.192   0.601 -0.3968  0.0449  0.5945
 2602WAT     H112213   9.101   2.137   0.573  1.5155  1.3589  2.6288
 2602WAT     H212214   8.956   2.130   0.614  0.7188 -1.5131 -0.2500
 2602WAT    EPW12215   9.028   2.176   0.599  0.0029  0.0126  0.7515
 2603WAT      O12216  -0.294  10.171   3.394  0.1072  0.4582 -0.0737
 2603WAT     H112217  -0.318  10.248   3.342  1.1201 -0.3619 -1.8314
 2603WAT     H212218  -0.377  10.127   3.411 -0.6333  2.3878  1.8399
 2603WAT    EPW12219  -0.308  10.175   3.389  0.1431  0.6046 -0.0533
 2604WAT      O12220   2.065   3.950   7.783  0.2193 -0.0676  0.0951
 2604WAT     H112221   2.137   4.002   7.819  0.7242  0.0582 -1.0333
 2604WAT     H212222   2.017   4.011   7.727  1.0774 -0.8811 -1.5977
 2604WAT    EPW12223   2.068   3.965   7.780  0.3991 -0.1583 -0.2770
 2605WAT      O12224   5.100   9.550   3.289 -0.2677  0.0677 -0.3737
 2605WAT     H112225   5.075   9.501   3.367  0.6707 -1.6395 -1.0890
 2605WAT     H212226   5.060   9.636   3.301  1.4113  0.5746  2.9382
 2605WAT    EPW12227   5.092   9.555   3.301  0.0777 -0.0906 -0.0312
 2606WAT      O12228   4.566  10.325   1.157  0.0843  0.1836  0.0334
 2606WAT     H112229   4.656  10.356   1.153  0.2695 -0.4567 -1.4758
 2606WAT     H212230   4.574  10.230   1.170 -0.3228 -0.0435 -1.2447
 2606WAT    EPW12231   4.579  10.316   1.158  0.0553  0.0696 -0.3342
 2607WAT      O12232  -3.618   6.625   2.559  0.6093  0.7141 -0.6316
 2607WAT     H112233  -3.539   6.667   2.525  1.3325 -1.3396 -1.6448
 2607WAT     H212234  -3.600   6.531   2.551 -2.2838  0.1628 -1.7431
 2607WAT    EPW12235  -3.605   6.618   2.554  0.3231  0.3705 -0.9118
 2608WAT      O12236   3.596   6.598   5.474  0.1160 -0.4623  0.0247
 2608WAT     H112237   3.621   6.532   5.539  2.9295  1.0252  0.6147
 2608WAT     H212238   3.533   6.553   5.418  0.2281 -2.9267  1.6948
 2608WAT    EPW12239   3.591   6.583   5.475  0.5019 -0.5913  0.3228
 2609WAT      O12240   2.534   7.867   3.510  0.1486 -0.6658 -0.6707
 2609WAT     H112241   2.594   7.893   3.579 -0.9735  0.1588  0.0293
 2609WAT     H212242   2.462   7.823   3.556 -0.5105 -0.2970 -1.3183
 2609WAT    EPW12243   2.532   7.865   3.525 -0.0864 -0.5083 -0.6639
 2610WAT      O12244   0.969   9.393   6.705 -0.5000  0.3302  0.3218
 2610WAT     H112245   0.967   9.467   6.766  0.0295 -0.7817  1.7460
 2610WAT     H212246   0.902   9.333   6.737 -1.1037  0.2675 -0.9700
 2610WAT    EPW12247   0.960   9.395   6.717 -0.5097  0.1755  0.3393
 2611WAT      O12248  -1.924   4.602   8.825 -0.0544  0.0673  0.1475
 2611WAT     H112249  -1.901   4.511   8.809 -1.9497 -0.8350  1.9792
 2611WAT     H212250  -1.983   4.598   8.901 -1.2201  2.6860 -0.5237
 2611WAT    EPW12251  -1.929   4.590   8.833 -0.4581  0.2935  0.3004
 2612WAT      O12252   2.781   3.600   5.651  0.1311 -0.1904 -0.8583
 2612WAT     H112253   2.844   3.672   5.661 -1.6472  1.4247 -0.8043
 2612WAT     H212254   2.723   3.629   5.581 -1.6218 -0.7925  0.2926
 2612WAT    EPW12255   2.782   3.614   5.643 -0.3346 -0.0569 -0.6993
 2613WAT      O12256   1.631   9.202   7.865  0.8399 -0.2607 -0.3331
 2613WAT     H112257   1.688   9.275   7.891 -0.2200  0.6275 -0.4331
 2613WAT     H212258   1.636   9.141   7.938  0.1264  0.8847  0.7212
 2613WAT    EPW12259   1.639   9.204   7.878  0.6060  0.0076 -0.2074
 2614WAT      O12260   1.236   7.355   5.010  0.0718  0.4570 -0.2355
 2614WAT     H112261   1.207   7.330   4.922 -0.6993  1.6736 -0.3503
 2614WAT     H212262   1.159   7.344   5.065  1.0610 -2.3609  0.8037
 2614WAT    EPW12263   1.222   7.350   5.006  0.1006  0.2458 -0.1135
 2615WAT      O12264   8.054   3.546   1.870 -0.1431 -0.1273 -0.0707
 2615WAT     H112265   8.019   3.559   1.959  2.0117  0.2409  0.7767
 2615WAT     H212266   8.034   3.628   1.825 -0.2330  0.1443  0.4487
 2615WAT    EPW12267   8.046   3.559   1.876  0.1292 -0.0428  0.1096
 2616WAT      O12268   0.810   1.378   7.756 -0.2538  0.1874 -0.0472
 2616WAT     H112269   0.850   1.446   7.702 -0.8477  0.3028 -0.3503
 2616WAT     H212270   0.754   1.329   7.695 -0.4064 -0.1072  0.3241
 2616WAT    EPW12271   0.808   1.380   7.741 -0.3523  0.1637 -0.0381
 2617WAT      O12272   0.984   2.952   7.485  0.0510 -0.7540  0.3904
 2617WAT     H112273   1.077   2.975   7.477 -0.2499  0.3562 -0.2062
 2617WAT     H212274   0.940   3.013   7.425 -0.8988 -2.4755 -0.7263
 2617WAT    EPW12275   0.991   2.963   7.476 -0.1140 -0.8346  0.1645
 2618WAT      O12276   1.143   4.867   6.240 -0.3418  0.0996 -0.2558
 2618WAT     H112277   1.058   4.829   6.263  0.6253 -1.8775  0.2301
 2618WAT     H212278   1.127   4.910   6.156 -1.6143 -1.0548 -0.6468
 2618WAT    EPW12279   1.130   4.868   6.232 -0.3822 -0.3133 -0.2432
 2619WAT      O12280  -2.271   3.131   7.875 -0.3053 -0.7467  0.4521
 2619WAT     H112281  -2.279   3.226   7.882 -1.5257 -0.2222 -4.2649
 2619WAT     H212282  -2.345   3.096   7.923 -0.1978  0.6811  1.7260
 2619WAT    EPW12283  -2.282   3.139   7.882 -0.4520 -0.4892 -0.0019
 2620WAT      O12284  -4.101  10.359   0.792  0.1698  0.0477  0.2156
 2620WAT     H112285  -4.104  10.276   0.841  1.2475 -1.5712 -2.2445
 2620WAT     H212286  -4.175  10.354   0.733  1.1736  0.0086 -1.0931
 2620WAT    EPW12287  -4.111  10.347   0.791  0.4444 -0.1712 -0.2815
 2621WAT      O12288   2.259   5.187   0.484 -0.2202  0.1257 -0.2121
 2621WAT     H112289   2.262   5.260   0.421  2.3029 -0.1308 -0.4960
 2621WAT     H212290   2.259   5.229   0.570  1.8642  0.5316 -0.3647
 2621WAT    EPW12291   2.259   5.202   0.487  0.3875  0.1454 -0.2697
 2622WAT      O12292   3.514   6.376   1.344  0.0232  0.2715  0.3781
 2622WAT     H112293   3.463   6.339   1.273  1.4548  0.7374 -0.9651
 2622WAT     H212294   3.592   6.321   1.350 -1.0542 -1.1828  3.2007
 2622WAT    EPW12295   3.518   6.364   1.336  0.0700  0.1411  0.5732
 2623WAT      O12296  -6.965   8.891   8.610 -0.4042 -0.3272 -0.1144
 2623WAT     H112297  -6.925   8.823   8.664  0.8649  0.3492 -0.1511
 2623WAT     H212298  -7.034   8.846   8.561 -1.1059 -1.1166  1.4920
 2623WAT    EPW12299  -6.969   8.876   8.611 -0.3295 -0.3424  0.0930
 2624WAT      O12300   5.335   8.081   0.267 -0.2543 -0.4834  0.3927
 2624WAT     H112301   5.358   8.130   0.188  0.6770  1.0038  1.5235
 2624WAT     H212302   5.296   8.000   0.235 -2.0071  1.0417 -1.5787
 2624WAT    EPW12303   5.333   8.077   0.252 -0.3626 -0.0863  0.2818
 2625WAT      O12304   5.975   5.674   2.459  0.2455  0.4517 -0.5646
 2625WAT     H112305   6.042   5.606   2.471  1.4837  1.5631 -1.0429
 2625WAT     H212306   6.004   5.724   2.384 -1.3288  0.7574 -1.0031
 2625WAT    EPW12307   5.988   5.671   2.451  0.2012  0.6387 -0.6856
 2626WAT      O12308  -5.793  10.372   6.477 -0.4940  0.8685  0.0319
 2626WAT     H112309  -5.847  10.298   6.505 -0.1775  0.8548  0.6143
 2626WAT     H212310  -5.844  10.414   6.407 -0.5763 -0.0255 -0.4528
 2626WAT    EPW12311  -5.807  10.368   6.471 -0.4630  0.7486  0.0448
 2627WAT      O12312   2.745   7.176   1.952  0.6196 -0.4430 -0.1144
 2627WAT     H112313   2.756   7.213   1.864  1.0588 -0.6054 -0.1310
 2627WAT     H212314   2.770   7.084   1.942  1.5979 -0.2405  0.3799
 2627WAT    EPW12315   2.750   7.169   1.939  0.8066 -0.4377 -0.0514
 2628WAT      O12316  -1.790   6.296   5.055  0.2006 -0.8597  0.2278
 2628WAT     H112317  -1.821   6.212   5.022 -0.5283  0.0009 -1.4556
 2628WAT     H212318  -1.870   6.344   5.078  0.4983 -0.0755 -0.3080
 2628WAT    EPW12319  -1.805   6.292   5.054  0.1437 -0.6428 -0.0648
 2629WAT      O12320  -0.219   9.038   3.582  0.4160  0.9486 -0.2332
 2629WAT     H112321  -0.137   9.041   3.631  1.0234  2.9758 -1.2951
 2629WAT     H212322  -0.272   8.973   3.630  2.0426  0.6999  1.3567
 2629WAT    EPW12323  -0.215   9.030   3.595  0.7106  1.1835 -0.1636
 2630WAT      O12324   3.644   4.376   0.830 -0.0659  0.1505 -0.1425
 2630WAT     H112325   3.573   4.399   0.770  0.7245  1.9069 -0.4592
 2630WAT     H212326   3.651   4.451   0.889  1.4738 -0.0249 -0.0762
 2630WAT    EPW12327   3.635   4.389   0.830  0.2415  0.3591 -0.1755
 2631WAT      O12328  -1.971   9.951   3.062 -0.9388 -0.0313 -0.0944
 2631WAT     H112329  -2.007   9.993   2.984 -1.3564 -0.9832 -0.4190
 2631WAT     H212330  -1.949   9.862   3.034 -1.3125 -0.4575  0.9298
 2631WAT    EPW12331  -1.972   9.945   3.048 -1.0432 -0.2131 -0.0023
 2632WAT      O12332   1.226   0.039   8.215  0.1007  0.6295  0.2394
 2632WAT     H112333   1.312   0.082   8.215  0.5820 -0.2429  1.9887
 2632WAT     H212334   1.180   0.079   8.289 -0.9963  1.0223 -0.6307
 2632WAT    EPW12335   1.231   0.050   8.225  0.0195  0.5663  0.3557
 2633WAT      O12336  -4.304   9.823   6.807  0.1595 -0.1493 -0.1439
 2633WAT     H112337  -4.375   9.778   6.762 -1.5855  3.5935 -1.5853
 2633WAT     H212338  -4.325   9.814   6.900 -0.5919 -1.4623 -0.4144
 2633WAT    EPW12339  -4.316   9.816   6.813 -0.1698  0.1712 -0.3695
 2634WAT      O12340  -2.094   5.739   4.326 -0.0239 -0.6052  0.1579
 2634WAT     H112341  -2.051   5.734   4.241 -2.1960 -2.3142 -0.9456
 2634WAT     H212342  -2.102   5.648   4.354  0.4793 -0.0692  2.1377
 2634WAT    EPW12343  -2.089   5.727   4.318 -0.2440 -0.7601  0.2735
 2635WAT      O12344   0.036   8.827   1.120  0.9704  0.2174 -0.8941
 2635WAT     H112345   0.015   8.734   1.108  0.8482  0.1382 -0.0994
 2635WAT     H212346   0.012   8.868   1.037  0.4976 -0.3693 -1.0489
 2635WAT    EPW12347   0.030   8.820   1.107  0.8920  0.1292 -0.8097
 2636WAT      O12348   4.082   0.614   0.609  0.7907 -0.5300  0.3513
 2636WAT     H112349   4.105   0.661   0.690  1.6970  0.0429 -0.2226
 2636WAT     H212350   4.017   0.670   0.566 -1.1857 -1.7531  1.5712
 2636WAT    EPW12351   4.077   0.628   0.614  0.6495 -0.6157  0.4365
 2637WAT      O12352  -3.153   3.347   5.526  0.3936 -0.1435 -0.0874
 2637WAT     H112353  -3.147   3.261   5.569  2.5318  0.3242  0.6852
 2637WAT     H212354  -3.239   3.347   5.484  0.1239 -2.4501  0.3358
 2637WAT    EPW12355  -3.163   3.336   5.526  0.6400 -0.3861  0.0703
 2638WAT      O12356   1.072   2.910   1.362 -1.2109 -0.1175  0.0929
 2638WAT     H112357   1.052   2.825   1.401  0.9756 -1.5606 -1.6592
 2638WAT     H212358   1.142   2.946   1.418  1.5183 -1.9288 -1.8783
 2638WAT    EPW12359   1.079   2.903   1.375 -0.5625 -0.5467 -0.3982
 2639WAT      O12360   6.909   7.963   1.962 -0.2253  0.1410  0.6459
 2639WAT     H112361   6.957   8.022   2.020  1.2473 -0.2288 -0.1409
 2639WAT     H212362   6.934   7.875   1.991  1.2569 -0.0561 -1.0573
 2639WAT    EPW12363   6.919   7.959   1.973  0.1645  0.0663  0.3175
 2640WAT      O12364  -5.621   6.093   6.433 -0.1412 -0.2005 -0.1153
 2640WAT     H112365  -5.564   6.126   6.364  0.4848 -2.7287 -0.9386
 2640WAT     H212366  -5.704   6.074   6.390  0.1969 -1.6200 -0.2069
 2640WAT    EPW12367  -5.624   6.095   6.419 -0.0138 -0.7212 -0.2360
 2641WAT      O12368  -3.506   7.339   7.103 -0.2415  0.3788 -0.1085
 2641WAT     H112369  -3.509   7.345   7.008  1.7198  0.9214 -0.1735
 2641WAT     H212370  -3.542   7.422   7.134  0.3145  0.7424 -0.4172
 2641WAT    EPW12371  -3.511   7.350   7.095  0.0905  0.4983 -0.1576
 2642WAT      O12372   2.678   4.723   7.691  0.9630 -0.7509  0.4585
 2642WAT     H112373   2.607   4.717   7.628 -1.6124 -1.2881  3.1899
 2642WAT     H212374   2.696   4.817   7.699  1.4810 -0.6905 -1.1505
 2642WAT    EPW12375   2.671   4.735   7.684  0.6917 -0.8137  0.6065
 2643WAT      O12376  -4.277   9.880   4.913  0.3610 -1.1545 -0.3752
 2643WAT     H112377  -4.194   9.867   4.959  1.2165 -0.8194 -1.7537
 2643WAT     H212378  -4.254   9.932   4.835 -1.4121  0.5109  0.1059
 2643WAT    EPW12379  -4.263   9.885   4.908  0.2401 -0.8907 -0.4933
 2644WAT      O12380   6.266   2.921   3.887 -0.4430 -0.9195 -0.2838
 2644WAT     H112381   6.352   2.923   3.930 -0.3154 -2.6183 -0.3849
 2644WAT     H212382   6.277   2.861   3.814 -1.0011  0.9915 -2.0220
 2644WAT    EPW12383   6.279   2.913   3.883 -0.4997 -0.8916 -0.5264
 2645WAT      O12384  -0.620   9.437   3.222 -0.6649  0.0794  0.4721
 2645WAT     H112385  -0.599   9.453   3.129 -1.5778  0.4707  0.3170
 2645WAT     H212386  -0.713   9.413   3.221 -0.4091 -0.9789  1.1842
 2645WAT    EPW12387  -0.629   9.436   3.209 -0.7516 -0.0086  0.5456
 2646WAT      O12388  -0.860   7.493   3.679  0.1005  0.0196 -0.6714
 2646WAT     H112389  -0.799   7.471   3.609 -1.7126 -2.0163 -1.7186
 2646WAT     H212390  -0.934   7.534   3.635 -0.8670 -0.8780  0.0829
 2646WAT    EPW12391  -0.862   7.495   3.664 -0.2663 -0.3674 -0.7099
 2647WAT      O12392  -4.450   8.180   3.344 -0.0380  0.4003 -0.3726
 2647WAT     H112393  -4.384   8.152   3.280  0.0913  0.7227 -0.3801
 2647WAT     H212394  -4.407   8.170   3.429  0.1369  0.9151 -0.3951
 2647WAT    EPW12395  -4.435   8.175   3.346  0.0021  0.5107 -0.3765
 2648WAT      O12396   4.379   8.919   2.215  0.2855  0.3974  0.5661
 2648WAT     H112397   4.394   9.000   2.263  1.4071  1.3927 -1.3391
 2648WAT     H212398   4.318   8.870   2.270  0.3753  2.0636  2.2677
 2648WAT    EPW12399   4.373   8.923   2.229  0.4454  0.7486  0.5392
 2649WAT      O12400  -4.698   4.984   5.494 -0.0713  0.0805 -0.5815
 2649WAT     H112401  -4.683   4.898   5.454 -0.8114  0.3110 -1.3940
 2649WAT     H212402  -4.614   5.029   5.489  0.2484 -0.4970 -0.4074
 2649WAT    EPW12403  -4.685   4.979   5.488 -0.1268  0.0346 -0.6657
 2650WAT      O12404   0.091   7.904   3.426  0.3420 -0.1046 -0.1094
 2650WAT     H112405   0.076   7.919   3.333 -2.0158  1.8977  0.4835
 2650WAT     H212406   0.010   7.864   3.457 -0.4162  2.5101  1.6434
 2650WAT    EPW12407   0.078   7.901   3.418 -0.0690  0.5043  0.2000
 2651WAT      O12408  -4.251   2.515   5.965 -0.2368 -0.0073  0.7088
 2651WAT     H112409  -4.291   2.601   5.950 -0.1563 -0.1931 -0.8190
 2651WAT     H212410  -4.163   2.523   5.928 -0.4274 -0.8996  0.0328
 2651WAT    EPW12411  -4.245   2.528   5.958 -0.2513 -0.1496  0.4179
 2652WAT      O12412  -1.828   7.150   2.706 -0.2898 -0.5999  0.1114
 2652WAT     H112413  -1.879   7.133   2.785 -2.7537 -1.1287 -1.4867
 2652WAT     H212414  -1.885   7.204   2.651  1.2622 -0.3836 -1.3872
 2652WAT    EPW12415  -1.842   7.155   2.709 -0.4101 -0.6411 -0.2971
 2653WAT      O12416   2.340   0.205   0.198 -0.0607 -0.2197 -0.4301
 2653WAT     H112417   2.401   0.225   0.269 -0.9333 -0.6992  0.4859
 2653WAT     H212418   2.254   0.203   0.240 -0.4398 -2.0386 -1.1891
 2653WAT    EPW12419   2.336   0.207   0.213 -0.2257 -0.5228 -0.4094
 2654WAT      O12420   2.712   6.933   2.691  0.4280 -0.0420  0.0693
 2654WAT     H112421   2.776   7.004   2.698  0.7135  0.2843 -3.7696
 2654WAT     H212422   2.632   6.968   2.730  1.0497  1.7689 -0.1985
 2654WAT    EPW12423   2.710   6.947   2.697  0.5476  0.2398 -0.4723
 2655WAT      O12424  -3.782   7.716   2.000  0.1491 -0.1174 -0.1212
 2655WAT     H112425  -3.717   7.651   2.028  2.4623  1.5171 -1.3613
 2655WAT     H212426  -3.761   7.794   2.052 -1.5175  0.1628  0.1710
 2655WAT    EPW12427  -3.770   7.717   2.011  0.2345  0.1354 -0.2463
 2656WAT      O12428   5.833   8.236   2.262 -0.0871  0.6186 -0.0269
 2656WAT     H112429   5.914   8.272   2.297  0.7332  0.5478 -1.7626
 2656WAT     H212430   5.805   8.299   2.195 -0.6600 -0.0948 -0.4778
 2656WAT    EPW12431   5.840   8.249   2.258 -0.0544  0.5150 -0.3153
 2657WAT      O12432   3.605   3.930   1.062  0.2154 -0.1633  0.6529
 2657WAT     H112433   3.686   3.970   1.030 -0.3352  0.8527  0.4743
 2657WAT     H212434   3.549   4.005   1.083 -1.8641 -0.7414 -2.2149
 2657WAT    EPW12435   3.608   3.945   1.061 -0.1315 -0.1054  0.2511
 2658WAT      O12436   6.377   6.575   3.330 -0.2798  0.2717  0.1889
 2658WAT     H112437   6.327   6.645   3.372 -0.0673  0.3789  0.2604
 2658WAT     H212438   6.327   6.555   3.251 -1.8640 -1.3961  1.5207
 2658WAT    EPW12439   6.364   6.581   3.325 -0.4609  0.0658  0.3740
 2659WAT      O12440   1.376   0.126   8.795  0.2403  0.4458  0.6802
 2659WAT     H112441   1.386   0.061   8.725  2.2610 -0.4721  1.7166
 2659WAT     H212442   1.455   0.115   8.849  0.4573  3.4936  1.1529
 2659WAT    EPW12443   1.388   0.116   8.793  0.5354  0.7267  0.8798
 2660WAT      O12444   4.173   5.607   2.483  0.1201 -0.5274 -0.4494
 2660WAT     H112445   4.082   5.634   2.494  0.4302  0.9763 -1.3976
 2660WAT     H212446   4.192   5.623   2.391  2.5260  3.1979  0.4760
 2660WAT    EPW12447   4.163   5.613   2.472  0.4785  0.1624 -0.4524
 2661WAT      O12448   0.167   0.651   1.242 -0.3863 -0.6327  0.6959
 2661WAT     H112449   0.146   0.707   1.167  1.2928 -1.8635 -0.7840
 2661WAT     H212450   0.121   0.691   1.316 -1.9025  0.7760 -0.9317
 2661WAT    EPW12451   0.158   0.664   1.242 -0.3648 -0.6092  0.2859
 2662WAT      O12452   6.449   4.966   1.099  0.1873 -0.0164 -0.9010
 2662WAT     H112453   6.422   5.008   1.181 -0.7557  1.1485 -1.7705
 2662WAT     H212454   6.470   4.876   1.124 -0.0428  0.3268  0.6240
 2662WAT    EPW12455   6.448   4.960   1.114  0.0327  0.1826 -0.8146
 2663WAT      O12456  -6.006   5.756   8.923 -0.4389  0.4561 -0.9824
 2663WAT     H112457  -6.004   5.696   8.997  2.9512 -0.3548 -1.5557
 2663WAT     H212458  -6.099   5.769   8.905 -1.5154  1.1734  3.6844
 2663WAT    EPW12459  -6.018   5.750   8.930 -0.1338  0.4439 -0.4425
 2664WAT      O12460  -0.207   1.459   2.660 -0.5474  0.7870  0.8121
 2664WAT     H112461  -0.288   1.443   2.611  1.0174 -1.5911 -1.2209
 2664WAT     H212462  -0.162   1.375   2.661  1.5303  1.8048  2.7012
 2664WAT    EPW12463  -0.212   1.446   2.654 -0.0670  0.6076  0.7932
 2665WAT      O12464   1.246   4.649   6.938 -0.9206  0.5859 -0.3930
 2665WAT     H112465   1.226   4.597   6.860  0.8681 -0.6519 -0.0924
 2665WAT     H212466   1.321   4.605   6.977 -2.1752  0.7476  2.4440
 2665WAT    EPW12467   1.253   4.636   6.933 -0.8501  0.4439  0.0207
 2666WAT      O12468  -0.029   5.881   4.956 -0.1852 -0.3103 -0.6456
 2666WAT     H112469  -0.002   5.896   4.865  0.6910  3.4164  0.0577
 2666WAT     H212470  -0.113   5.925   4.963  0.9566  1.7628  0.8911
 2666WAT    EPW12471  -0.036   5.888   4.945  0.0809  0.4544 -0.3502
 2667WAT      O12472   0.981   4.075   2.458 -0.7963  0.7389  0.2349
 2667WAT     H112473   1.007   4.066   2.366 -4.4041 -2.4325 -0.7253
 2667WAT     H212474   0.914   4.143   2.457 -0.4082  1.1316  0.6650
 2667WAT    EPW12475   0.976   4.083   2.445 -1.2209  0.3724  0.1650
 2668WAT      O12476   0.408   1.121   8.264  0.3885 -0.0111  0.2698
 2668WAT     H112477   0.427   1.172   8.185  0.8722  0.4021  0.6454
 2668WAT     H212478   0.482   1.062   8.274 -0.2860 -0.9884 -0.3014
 2668WAT    EPW12479   0.420   1.120   8.255  0.3633 -0.0855  0.2441
 2669WAT      O12480  -0.313   3.422   6.292 -0.1318  0.0024 -0.8245
 2669WAT     H112481  -0.396   3.379   6.272 -1.4748  1.8326  0.4654
 2669WAT     H212482  -0.248   3.371   6.245 -2.0155 -1.3064 -2.1711
 2669WAT    EPW12483  -0.316   3.409   6.283 -0.5574  0.0712 -0.8321
 2670WAT      O12484   0.258   7.720   7.864  0.1586 -0.3069 -0.3538
 2670WAT     H112485   0.173   7.719   7.819  0.0512 -1.6770 -0.1748
 2670WAT     H212486   0.282   7.628   7.871  2.5993  0.1166 -2.1265
 2670WAT    EPW12487   0.250   7.708   7.859  0.4663 -0.4318 -0.5639
 2671WAT      O12488   3.185   4.057   0.668 -0.1097  0.0331 -0.5802
 2671WAT     H112489   3.095   4.064   0.634  0.2006 -1.9822 -1.9488
 2671WAT     H212490   3.179   3.992   0.738  0.2317  0.1552 -0.4357
 2671WAT    EPW12491   3.172   4.050   0.672 -0.0237 -0.2165 -0.7417
 2672WAT      O12492  -0.419   0.591   7.170  0.0035  0.2885 -0.3404
 2672WAT     H112493  -0.382   0.679   7.164  1.0050 -0.1351 -0.5798
 2672WAT     H212494  -0.343   0.533   7.165 -0.1710 -0.5437  3.6731
 2672WAT    EPW12495  -0.404   0.595   7.168  0.1126  0.1229  0.1574
 2673WAT      O12496   5.442   5.150   0.917  0.3488 -0.5434  0.5128
 2673WAT     H112497   5.364   5.153   0.861 -0.1235  2.0536  1.1625
 2673WAT     H212498   5.409   5.119   1.001  0.4450 -1.4576  0.2193
 2673WAT    EPW12499   5.427   5.146   0.921  0.2992 -0.3214  0.5597
 2674WAT      O12500   5.240   0.982   3.828  0.0968  0.0300 -0.1882
 2674WAT     H112501   5.333   0.963   3.819  0.2663  1.0748 -0.8183
 2674WAT     H212502   5.237   1.074   3.853 -0.7257 -0.4235  1.5249
 2674WAT    EPW12503   5.252   0.992   3.830  0.0105  0.1080 -0.0453
 2675WAT      O12504   4.282   9.134   4.378 -0.1869  0.6295 -0.3460
 2675WAT     H112505   4.193   9.167   4.387 -1.0783 -0.8905 -2.5859
 2675WAT     H212506   4.318   9.182   4.303  0.6180  0.6402  0.0295
 2675WAT    EPW12507   4.275   9.145   4.369 -0.1981  0.4306 -0.5918
 2676WAT      O12508   1.418   8.411   5.587  0.8371 -0.8709  0.2436
 2676WAT     H112509   1.489   8.435   5.527  0.2687  0.6048  0.1326
 2676WAT     H212510   1.358   8.360   5.532  1.2857 -1.2268  0.0722
 2676WAT    EPW12511   1.420   8.407   5.572  0.8214 -0.7229  0.2062
 2677WAT      O12512  -1.626   9.252   0.640 -0.7030  0.7292  0.0481
 2677WAT     H112513  -1.691   9.303   0.688 -1.9817 -1.0976  0.3700
 2677WAT     H212514  -1.591   9.191   0.705  1.1366  1.4507 -0.2055
 2677WAT    EPW12515  -1.630   9.250   0.655 -0.6290  0.5836  0.0572
 2678WAT      O12516   5.298   2.215   7.639  0.1101  0.6205  0.3807
 2678WAT     H112517   5.225   2.258   7.684  1.0300  2.4291  0.2504
 2678WAT     H212518   5.286   2.239   7.547 -0.1394 -0.6256  0.0749
 2678WAT    EPW12519   5.287   2.224   7.632  0.1986  0.6946  0.3233
 2679WAT      O12520  -3.596   7.464   3.560 -0.5754  0.2561  0.3742
 2679WAT     H112521  -3.564   7.382   3.597 -0.3407  1.0471  2.0452
 2679WAT     H212522  -3.625   7.441   3.472  2.1845 -1.0238 -0.3086
 2679WAT    EPW12523  -3.596   7.450   3.553 -0.1804  0.1919  0.5046
 2680WAT      O12524  -7.435   9.976   7.992 -0.0219  0.4324  0.6054
 2680WAT     H112525  -7.492   9.906   8.023  0.4186 -0.4908 -0.5792
 2680WAT     H212526  -7.465   9.994   7.903  1.3611  0.0797  0.0388
 2680WAT    EPW12527  -7.446   9.969   7.984  0.2186  0.2642  0.3746
 2681WAT      O12528   6.828   0.697   1.342 -0.7581  0.0914  0.4742
 2681WAT     H112529   6.852   0.612   1.306 -0.8217 -0.8087  2.4261
 2681WAT     H212530   6.790   0.677   1.428 -0.3598  2.1196  1.1743
 2681WAT    EPW12531   6.826   0.683   1.349 -0.7138  0.2402  0.8240
 2682WAT      O12532   5.864   7.538   3.288  0.4030 -0.6962 -0.3720
 2682WAT     H112533   5.790   7.557   3.345 -0.3553  0.2860 -1.6194
 2682WAT     H212534   5.903   7.623   3.269 -1.2985 -0.5017 -3.7719
 2682WAT    EPW12535   5.860   7.551   3.293  0.0787 -0.5410 -0.9849
 2683WAT      O12536  -3.391   8.407   2.513 -0.5579  0.3966 -0.0221
 2683WAT     H112537  -3.368   8.405   2.421 -2.2673  0.6929 -0.4896
 2683WAT     H212538  -3.407   8.499   2.532 -1.6448  0.1859  0.1656
 2683WAT    EPW12539  -3.390   8.419   2.504 -0.9267  0.4082 -0.0590
 2684WAT      O12540   2.268   5.547   0.532 -0.4283  0.0516 -1.0092
 2684WAT     H112541   2.236   5.553   0.442  1.4636 -1.2705 -1.8456
 2684WAT     H212542   2.318   5.628   0.544 -0.1908 -0.0397 -1.3643
 2684WAT    EPW12543   2.271   5.559   0.522 -0.1475 -0.1349 -1.1663
 2685WAT      O12544   1.669   6.607   7.585  0.3847 -0.1369  0.0631
 2685WAT     H112545   1.617   6.630   7.508  0.8365  1.2321  0.1407
 2685WAT     H212546   1.651   6.677   7.648  1.3220 -0.3483  0.5777
 2685WAT    EPW12547   1.659   6.619   7.583  0.5680  0.0157  0.1414
 2686WAT      O12548   2.920   3.484   1.756  0.0933 -0.8111  0.5766
 2686WAT     H112549   2.951   3.561   1.710  0.4101 -1.3917 -0.2007
 2686WAT     H212550   2.926   3.507   1.849  2.9780 -0.9044  0.5007
 2686WAT    EPW12551   2.925   3.497   1.762  0.5155 -0.8999  0.4640
 2687WAT      O12552   7.929   0.095   0.803 -0.3784 -0.9763  0.1331
 2687WAT     H112553   7.861   0.127   0.862  0.9618  1.6522  0.3918
 2687WAT     H212554   7.919   0.148   0.724  2.3901  0.7304  0.8296
 2687WAT    EPW12555   7.918   0.106   0.801  0.1636 -0.4045  0.2591
 2688WAT      O12556  -0.705   6.010   1.538  0.6200 -0.1631 -0.0314
 2688WAT     H112557  -0.612   6.014   1.557  0.8042  0.1619 -0.9755
 2688WAT     H212558  -0.741   6.090   1.576  0.6062 -0.5940  0.8943
 2688WAT    EPW12559  -0.698   6.021   1.546  0.6425 -0.1769 -0.0339
 2689WAT      O12560   1.972   8.688   5.432 -0.1334 -0.3951 -0.3457
 2689WAT     H112561   1.892   8.737   5.452  0.1314  0.6416 -1.6988
 2689WAT     H212562   2.019   8.683   5.516  0.2836  2.5510 -0.2996
 2689WAT    EPW12563   1.968   8.694   5.446 -0.0435  0.1302 -0.5181
 2690WAT      O12564   5.871   6.722   4.332  0.5589  1.0829  0.2121
 2690WAT     H112565   5.858   6.653   4.267  1.3532 -0.2593  1.4344
 2690WAT     H212566   5.960   6.753   4.315  1.3377 -0.2998  1.5546
 2690WAT    EPW12567   5.881   6.717   4.321  0.7665  0.7236  0.5503
 2691WAT      O12568  -1.917   5.605   7.884 -0.3095 -0.2404 -0.7157
 2691WAT     H112569  -1.844   5.551   7.851  2.3039  1.7351  1.3603
 2691WAT     H212570  -1.891   5.695   7.865 -2.7389  0.5216 -0.7501
 2691WAT    EPW12571  -1.904   5.610   7.877 -0.2852  0.1206 -0.4466
 2692WAT      O12572   4.977   0.855   4.927 -0.4260  0.3018  0.0525
 2692WAT     H112573   4.935   0.937   4.901  1.7567  1.4534 -0.0233
 2692WAT     H212574   5.023   0.876   5.008 -1.3402 -1.3832  1.0687
 2692WAT    EPW12575   4.978   0.868   4.934 -0.2587  0.2315  0.1767
 2693WAT      O12576   3.413   7.436   4.628  0.3065  0.5124 -0.0016
 2693WAT     H112577   3.457   7.378   4.567  3.6430  1.5857  1.1686
 2693WAT     H212578   3.431   7.524   4.596 -1.3133  1.0400  0.4066
 2693WAT    EPW12579   3.421   7.440   4.616  0.5329  0.7234  0.2067
 2694WAT      O12580  -1.552   0.781   4.139 -0.0679  0.0266 -0.0266
 2694WAT     H112581  -1.581   0.766   4.049  0.0412  0.7164 -0.1755
 2694WAT     H212582  -1.522   0.871   4.140 -0.4207  0.1393  0.7983
 2694WAT    EPW12583  -1.552   0.791   4.127 -0.1001  0.1325  0.0625
 2695WAT      O12584   5.064   1.503   8.062 -0.4129 -0.8089  0.4118
 2695WAT     H112585   5.098   1.440   8.125 -1.4726  0.0748  1.9405
 2695WAT     H212586   4.979   1.468   8.036 -1.2768  0.2207  1.7231
 2695WAT    EPW12587   5.057   1.490   8.067 -0.6666 -0.5565  0.7863
 2696WAT      O12588  -0.851   3.804   6.353  0.5604  0.0856  0.0310
 2696WAT     H112589  -0.946   3.792   6.341  0.8045 -0.9083 -1.1142
 2696WAT     H212590  -0.843   3.844   6.439 -0.7940 -2.0740  1.2689
 2696WAT    EPW12591  -0.863   3.807   6.362  0.4140 -0.3302  0.0434
 2697WAT      O12592   0.878   1.890   8.320 -0.1176 -0.5551  0.4810
 2697WAT     H112593   0.860   1.927   8.234 -0.1617 -1.1471  0.2262
 2697WAT     H212594   0.935   1.815   8.302  2.0236  0.8180  1.2049
 2697WAT    EPW12595   0.883   1.885   8.306  0.1590 -0.4521  0.5431
 2698WAT      O12596   2.231   5.862   6.590  0.2880 -0.3590  0.6791
 2698WAT     H112597   2.178   5.907   6.656  0.0605 -1.4979  1.3022
 2698WAT     H212598   2.321   5.887   6.610  0.0572  1.1916 -0.0738
 2698WAT    EPW12599   2.236   5.871   6.602  0.2276 -0.3049  0.6618
 2699WAT      O12600  -3.253  10.261   7.190  0.5134  0.9355  0.9864
 2699WAT     H112601  -3.172  10.214   7.213 -0.1990 -0.9379 -0.0479
 2699WAT     H212602  -3.314  10.191   7.166 -1.3464  2.3252  1.5195
 2699WAT    EPW12603  -3.250  10.245   7.190  0.1740  0.8717  0.9203
 2700WAT      O12604   1.308   6.147   8.092 -0.0471 -0.0141 -0.0407
 2700WAT     H112605   1.398   6.115   8.086  0.7143  2.1270 -2.8503
 2700WAT     H212606   1.313   6.219   8.155  0.5344  0.7657 -0.9307
 2700WAT    EPW12607   1.321   6.153   8.099  0.1300  0.3712 -0.5288
 2701WAT      O12608   4.530   0.700   0.300  0.5537 -0.3087  0.3452
 2701WAT     H112609   4.510   0.757   0.374  1.0246 -0.8317  0.8775
 2701WAT     H212610   4.518   0.611   0.333 -0.3690 -0.5347 -0.5370
 2701WAT    EPW12611   4.525   0.696   0.314  0.4940 -0.4075  0.2991
 2702WAT      O12612   2.936   5.151   4.068  0.3610 -0.0111 -0.0715
 2702WAT     H112613   2.960   5.103   3.988  1.0229  0.5445 -0.2131
 2702WAT     H212614   2.947   5.243   4.045  0.3008  0.1641  0.5831
 2702WAT    EPW12615   2.940   5.156   4.054  0.4404  0.0854 -0.0038
 2703WAT      O12616   3.541   1.651   7.396 -0.6662  0.5108  0.0442
 2703WAT     H112617   3.516   1.587   7.462  0.5280  0.3829  0.4035
 2703WAT     H212618   3.534   1.604   7.313 -0.5584  0.1449  0.2398
 2703WAT    EPW12619   3.537   1.636   7.394 -0.4945  0.4457  0.1173
 2704WAT      O12620   3.418   3.776   7.881  0.1675 -0.2453  0.5289
 2704WAT     H112621   3.423   3.870   7.896  1.7831  0.0413 -1.4358
 2704WAT     H212622   3.338   3.763   7.829 -1.1699 -0.2777  2.4943
 2704WAT    EPW12623   3.408   3.786   7.876  0.2042 -0.2117  0.5291
 2705WAT      O12624  -3.091   6.383   1.584  0.6779  1.0452 -0.5060
 2705WAT     H112625  -3.097   6.287   1.588  2.9837  0.6762 -3.1220
 2705WAT     H212626  -3.081   6.409   1.676  0.0574 -1.1866  0.2786
 2705WAT    EPW12627  -3.090   6.373   1.597  0.9001  0.7021 -0.7476
 2706WAT      O12628  -7.131   8.455   7.882  0.3217  0.0440  0.5233
 2706WAT     H112629  -7.156   8.401   7.808 -1.6872  1.1997  0.2789
 2706WAT     H212630  -7.039   8.434   7.898  0.4134 -1.2138 -1.4112
 2706WAT    EPW12631  -7.122   8.445   7.875  0.0689  0.0300  0.2358
 2707WAT      O12632   0.701   1.850   0.860  0.7152 -0.0096  0.5879
 2707WAT     H112633   0.785   1.847   0.905  0.8696 -1.6992  0.2244
 2707WAT     H212634   0.716   1.807   0.776  0.7497  4.0501 -1.7791
 2707WAT    EPW12635   0.714   1.844   0.855  0.7401  0.3030  0.2278
 2708WAT      O12636   1.896   1.149   1.117  0.3048 -0.4398  0.1105
 2708WAT     H112637   1.865   1.239   1.109 -0.7927 -0.9393 -2.3336
 2708WAT     H212638   1.842   1.111   1.186 -0.8042  0.2008 -0.3781
 2708WAT    EPW12639   1.885   1.156   1.125  0.0138 -0.4212 -0.2763
 2709WAT      O12640   5.860   2.495   4.905  0.2042  0.3900  0.0782
 2709WAT     H112641   5.774   2.457   4.891  0.1698  1.0633 -1.9028
 2709WAT     H212642   5.909   2.473   4.826  1.2915  1.4476  0.4193
 2709WAT    EPW12643   5.855   2.487   4.892  0.3433  0.6183 -0.1380
 2710WAT      O12644   8.055   2.269   0.574  0.1776 -0.1048  0.5106
 2710WAT     H112645   7.960   2.278   0.569  0.2914  0.7824 -0.4703
 2710WAT     H212646   8.088   2.349   0.533  1.3403 -1.4935 -1.4472
 2710WAT    EPW12647   8.047   2.281   0.568  0.3457 -0.1711  0.1230
 2711WAT      O12648  -5.353   2.510   8.625 -0.6418  0.0900  0.0779
 2711WAT     H112649  -5.392   2.439   8.573 -1.0623 -0.1045  0.6588
 2711WAT     H212650  -5.391   2.500   8.712  0.6000 -0.0355  0.6331
 2711WAT    EPW12651  -5.363   2.499   8.630 -0.5336  0.0478  0.2275
 2712WAT      O12652   1.203   3.691   5.422 -0.2465  0.0347 -0.2959
 2712WAT     H112653   1.275   3.629   5.419  0.3759  0.5404  2.1768
 2712WAT     H212654   1.124   3.636   5.426  0.1569 -0.5409 -0.2018
 2712WAT    EPW12655   1.202   3.675   5.422 -0.1111  0.0255  0.0427
 2713WAT      O12656   5.709   5.847   0.316  0.2646  0.4121 -0.6511
 2713WAT     H112657   5.694   5.941   0.303  0.3117  0.0682 -4.1267
 2713WAT     H212658   5.804   5.839   0.323  0.2524  0.5951 -0.1879
 2713WAT    EPW12659   5.719   5.858   0.316  0.2692  0.3910 -1.0484
 2714WAT      O12660   2.712   2.954   7.991  0.5338  0.2116 -0.7009
 2714WAT     H112661   2.776   2.900   8.038  0.2531  0.3191 -0.1993
 2714WAT     H212662   2.746   3.043   7.999  0.1330  0.3143 -0.1275
 2714WAT    EPW12663   2.725   2.958   7.998  0.4439  0.2393 -0.5593
 2715WAT      O12664  -4.134   7.834   6.175 -0.4370 -0.2107 -0.3874
 2715WAT     H112665  -4.105   7.886   6.099  0.2636 -0.7454 -0.4996
 2715WAT     H212666  -4.052   7.799   6.212 -0.9512 -1.9488 -0.8271
 2715WAT    EPW12667  -4.119   7.836   6.170 -0.4125 -0.5105 -0.4601
 2716WAT      O12668   4.832   2.699   6.284 -0.2689 -0.3238  0.1267
 2716WAT     H112669   4.787   2.664   6.207  1.2416  0.1092 -0.9940
 2716WAT     H212670   4.922   2.713   6.255 -0.3166  2.5896  1.1154
 2716WAT    EPW12671   4.838   2.696   6.270 -0.0761  0.1175  0.1094
 2717WAT      O12672   2.262   2.996   7.844 -0.3173  0.0184 -0.9832
 2717WAT     H112673   2.199   3.007   7.916 -0.4930  0.7484 -1.2453
 2717WAT     H212674   2.344   3.031   7.879 -0.3889  0.3203 -1.1154
 2717WAT    EPW12675   2.265   3.002   7.858 -0.3499  0.1545 -1.0350
 2718WAT      O12676  -4.359   8.367   8.823  0.3714  0.0221  0.9492
 2718WAT     H112677  -4.352   8.294   8.762  1.5804  1.6834 -1.0494
 2718WAT     H212678  -4.342   8.328   8.909 -0.0206 -2.1808  0.0931
 2718WAT    EPW12679  -4.356   8.352   8.826  0.4792 -0.0491  0.5727
 2719WAT      O12680   4.550   5.055   5.178 -0.1107 -0.4365 -0.4560
 2719WAT     H112681   4.469   5.004   5.177  0.2906 -1.0796 -0.8810
 2719WAT     H212682   4.594   5.032   5.096  0.5886 -0.2380 -0.1472
 2719WAT    EPW12683   4.545   5.046   5.167  0.0346 -0.4952 -0.4716
 2720WAT      O12684   6.203   4.060   2.940  0.4073  0.4039 -0.0991
 2720WAT     H112685   6.229   4.039   3.030  0.3847  2.3620  0.4071
 2720WAT     H212686   6.109   4.074   2.945  0.3104 -0.0478 -0.5636
 2720WAT    EPW12687   6.194   4.059   2.953  0.3915  0.6025 -0.0936
 2721WAT      O12688   2.849   7.940   1.823 -0.2701 -0.1946 -0.9370
 2721WAT     H112689   2.901   7.893   1.888 -1.6829 -2.7255 -1.5041
 2721WAT     H212690   2.889   8.027   1.818  1.2289 -0.6320  1.6799
 2721WAT    EPW12691   2.861   7.945   1.831 -0.2587 -0.5865 -0.6666
 2722WAT      O12692   3.036   1.113   5.408 -0.1423  0.1764 -0.2736
 2722WAT     H112693   3.096   1.043   5.434 -1.8430 -1.6904 -1.1543
 2722WAT     H212694   2.949   1.076   5.419 -1.3430  3.3229  2.5330
 2722WAT    EPW12695   3.033   1.099   5.413 -0.5249  0.3452 -0.0196
 2723WAT      O12696  -0.490  10.285   8.381 -0.1140  0.4692  0.0695
 2723WAT     H112697  -0.501  10.359   8.440 -1.1510  0.2941  0.1163
 2723WAT     H212698  -0.564  10.227   8.401  0.7262 -0.6264  0.0969
 2723WAT    EPW12699  -0.502  10.287   8.391 -0.1399  0.3014  0.0792
 2724WAT      O12700  -4.869  10.393   2.705 -0.1016  0.0650 -0.5158
 2724WAT     H112701  -4.790  10.339   2.702  0.0023  0.2625 -1.4530
 2724WAT     H212702  -4.939  10.331   2.726  0.1967 -0.2171 -0.3322
 2724WAT    EPW12703  -4.868  10.377   2.708 -0.0486  0.0539 -0.6152
 2725WAT      O12704   0.306   4.679   1.914  0.1590 -0.2000  0.7319
 2725WAT     H112705   0.222   4.641   1.942 -0.2787  0.5648  0.4810
 2725WAT     H212706   0.318   4.648   1.825 -1.0124  1.5209 -0.0787
 2725WAT    EPW12707   0.296   4.670   1.906 -0.0532  0.1280  0.5919
 2726WAT      O12708  -1.533   3.976   0.255  0.5507  0.4094 -0.3495
 2726WAT     H112709  -1.444   3.977   0.290  0.0906 -1.0097  0.9887
 2726WAT     H212710  -1.589   3.991   0.332 -0.3678  1.2907 -1.1642
 2726WAT    EPW12711  -1.529   3.978   0.270  0.3688  0.3384 -0.2804
 2727WAT      O12712  -6.801  10.365   6.993 -0.5652 -0.0953 -0.4729
 2727WAT     H112713  -6.734  10.327   7.049 -0.4739  0.4036 -0.2445
 2727WAT     H212714  -6.773  10.343   6.904  0.1093  0.4407 -0.4027
 2727WAT    EPW12715  -6.789  10.357   6.988 -0.4642  0.0410 -0.4334
 2728WAT      O12716  -6.749   5.793   7.683  0.4735  0.2283 -0.5705
 2728WAT     H112717  -6.719   5.881   7.662  1.0954  0.5588  1.5490
 2728WAT     H212718  -6.783   5.799   7.772  0.1701 -1.5889 -0.5266
 2728WAT    EPW12719  -6.750   5.805   7.692  0.5155  0.0322 -0.2851
 2729WAT      O12720   3.489  10.092   2.552 -0.6256 -0.0950 -0.2080
 2729WAT     H112721   3.544  10.028   2.598 -0.5146 -0.6125 -1.0387
 2729WAT     H212722   3.400  10.056   2.559 -0.8884  0.7638  1.1727
 2729WAT    EPW12723   3.485  10.079   2.559 -0.6456 -0.0496 -0.1354
 2730WAT      O12724   1.001   6.923   6.521  0.2287 -0.3131 -0.2327
 2730WAT     H112725   0.977   6.839   6.483 -0.7526 -0.5559  0.8580
 2730WAT     H212726   0.940   6.935   6.593 -0.2458  1.7664 -0.9084
 2730WAT    EPW12727   0.990   6.913   6.525  0.0366 -0.0708 -0.1779
 2731WAT      O12728  -2.066   1.141   7.539  0.5580 -0.1235 -0.2994
 2731WAT     H112729  -2.149   1.185   7.562 -0.3610 -2.0258  0.2279
 2731WAT     H212730  -2.029   1.114   7.623  0.5885 -1.2256 -0.6570
 2731WAT    EPW12731  -2.072   1.144   7.553  0.4407 -0.5198 -0.2770
 2732WAT      O12732   5.134   9.871   2.975  0.2467  0.3192  0.3843
 2732WAT     H112733   5.068   9.809   3.007  1.8263 -0.8747  1.4659
 2732WAT     H212734   5.108   9.955   3.014 -0.9362  0.0061  0.3281
 2732WAT    EPW12735   5.122   9.874   2.985  0.2992  0.1206  0.5195
 2733WAT      O12736  -3.726   4.956   4.682  0.0244  0.5321 -0.4121
 2733WAT     H112737  -3.785   5.009   4.735 -0.4827 -0.3790 -0.0521
 2733WAT     H212738  -3.773   4.875   4.666  1.4713 -0.5754  0.6079
 2733WAT    EPW12739  -3.740   4.953   4.687  0.1483  0.2661 -0.2301
 2734WAT      O12740  -0.074   6.680   4.109 -0.3131  0.2671  0.3829
 2734WAT     H112741  -0.041   6.614   4.049  1.9836  1.2688  0.4159
 2734WAT     H212742  -0.050   6.647   4.196 -2.2299 -0.4274  0.7041
 2734WAT    EPW12743  -0.067   6.667   4.113 -0.2630  0.3076  0.4299
 2735WAT      O12744   3.188   9.639   6.688  0.2694  0.2360 -0.0649
 2735WAT     H112745   3.228   9.585   6.756  0.3183  0.5986  0.1945
 2735WAT     H212746   3.262   9.676   6.640  0.2398 -0.5618 -0.7569
 2735WAT    EPW12747   3.203   9.637   6.691  0.2719  0.1788 -0.1221
 2736WAT      O12748   0.698   0.880   6.303 -0.5358  0.1862 -0.9436
 2736WAT     H112749   0.776   0.934   6.320  0.8967 -1.8904 -0.5139
 2736WAT     H212750   0.629   0.943   6.286  1.2836  2.1509 -1.5565
 2736WAT    EPW12751   0.699   0.896   6.303 -0.1069  0.1715 -0.9677
 2737WAT      O12752  -1.550   9.008   8.457  0.1910 -0.6695 -0.1051
 2737WAT     H112753  -1.572   8.958   8.536  0.3282 -2.8229 -1.3818
 2737WAT     H212754  -1.456   9.023   8.464 -0.0395  0.5703  0.8726
 2737WAT    EPW12755  -1.540   9.003   8.469  0.1787 -0.7901 -0.1450
 2738WAT      O12756   9.141   2.444   0.807 -0.3170 -0.6483 -0.1416
 2738WAT     H112757   9.096   2.385   0.868  0.5350 -1.4969 -0.2988
 2738WAT     H212758   9.091   2.525   0.810 -1.6304 -1.4338 -0.0427
 2738WAT    EPW12759   9.129   2.447   0.815 -0.3781 -0.8639 -0.1493
 2739WAT      O12760   1.546   5.898   8.329 -0.5443 -0.4307 -0.1831
 2739WAT     H112761   1.558   5.939   8.244  1.9464  0.2075  0.4043
 2739WAT     H212762   1.531   5.806   8.310  0.2449 -0.3447 -1.3097
 2739WAT    EPW12763   1.546   5.891   8.316 -0.1117 -0.3355 -0.2542
 2740WAT      O12764  -4.382   9.438   1.876 -0.3994 -0.1632 -0.2920
 2740WAT     H112765  -4.449   9.384   1.834 -0.5638  0.4333 -0.8182
 2740WAT     H212766  -4.389   9.418   1.969 -0.5596 -0.9275 -0.4666
 2740WAT    EPW12767  -4.392   9.429   1.882 -0.4420 -0.1850 -0.3845
 2741WAT      O12768  -4.593   9.234   7.987 -0.2804  0.0102  0.0421
 2741WAT     H112769  -4.622   9.149   8.021  1.8592  0.9313  4.9223
 2741WAT     H212770  -4.670   9.290   7.995 -0.8885 -0.7264 -0.4260
 2741WAT    EPW12771  -4.607   9.230   7.992 -0.0784  0.0343  0.6239
 2742WAT      O12772  -1.724   4.846   7.180 -0.2689 -0.5959 -0.2729
 2742WAT     H112773  -1.698   4.779   7.243 -0.6393  0.2016  0.7633
 2742WAT     H212774  -1.806   4.814   7.143 -2.1008  0.5654  2.4144
 2742WAT    EPW12775  -1.731   4.833   7.184 -0.5594 -0.3374  0.2182
 2743WAT      O12776  -6.316   9.364   4.956  0.8924 -0.5546  0.4510
 2743WAT     H112777  -6.250   9.328   4.896  1.5640  0.6913  0.4225
 2743WAT     H212778  -6.283   9.343   5.043  1.7189  0.6852  0.4583
 2743WAT    EPW12779  -6.303   9.356   4.960  1.0900 -0.2270  0.4482
 2744WAT      O12780   4.019   3.474   4.544 -0.5450 -0.7671 -0.5095
 2744WAT     H112781   3.925   3.491   4.538 -0.4264  1.1475  1.4923
 2744WAT     H212782   4.028   3.419   4.622  0.1297  1.3499  0.9897
 2744WAT    EPW12783   4.007   3.469   4.554 -0.4406 -0.2353 -0.0477
 2745WAT      O12784  -2.125   9.810   6.132  0.4394 -1.0517 -0.1565
 2745WAT     H112785  -2.104   9.735   6.076 -1.0049 -1.1341 -0.6265
 2745WAT     H212786  -2.040   9.837   6.168  1.3563 -1.3190 -1.9683
 2745WAT    EPW12787  -2.111   9.804   6.129  0.3699 -1.0977 -0.4573
 2746WAT      O12788   2.910   4.879   6.989  0.5938  0.1275 -0.2539
 2746WAT     H112789   2.940   4.964   7.023 -1.1843  0.1910  1.3102
 2746WAT     H212790   2.981   4.818   7.010 -0.0779  0.3043  3.1320
 2746WAT    EPW12791   2.923   4.882   6.996  0.2707  0.1590  0.3989
 2747WAT      O12792   4.711   2.275   6.849 -1.1396 -0.5901  0.1140
 2747WAT     H112793   4.749   2.313   6.928 -1.4442  1.9707 -0.8710
 2747WAT     H212794   4.700   2.183   6.870 -1.8226  0.0898  3.2772
 2747WAT    EPW12795   4.715   2.268   6.862 -1.2698 -0.1626  0.4013
 2748WAT      O12796   3.806  10.064   2.343  0.0018 -0.1311 -0.3150
 2748WAT     H112797   3.771  10.153   2.340  0.9754  0.3146  0.8804
 2748WAT     H212798   3.901  10.076   2.347  0.0800 -1.1621  1.6373
 2748WAT    EPW12799   3.814  10.078   2.343  0.1405 -0.2084  0.1001
 2749WAT      O12800   0.009   1.245   2.600  0.2903 -0.1645 -0.5083
 2749WAT     H112801   0.057   1.258   2.682 -0.7252  2.1921 -0.2083
 2749WAT     H212802   0.064   1.287   2.534 -0.3779  0.7393 -0.4978
 2749WAT    EPW12803   0.023   1.252   2.602  0.0683  0.2655 -0.4673
 2750WAT      O12804   4.240  10.268   0.460 -0.5865 -0.2459 -0.5671
 2750WAT     H112805   4.285  10.217   0.528  0.2389  0.6365 -0.4301
 2750WAT     H212806   4.196  10.202   0.406 -1.2220 -0.9793  0.7740
 2750WAT    EPW12807   4.240  10.253   0.462 -0.5612 -0.2265 -0.3722
 2751WAT      O12808   0.901   5.975   6.319 -0.5691  0.3583  0.2848
 2751WAT     H112809   0.986   6.000   6.283  0.5018 -1.4815  1.3799
 2751WAT     H212810   0.866   6.056   6.357 -0.4460  1.6754 -2.2428
 2751WAT    EPW12811   0.908   5.989   6.320 -0.4116  0.2892  0.0961
 2752WAT      O12812   5.928   5.458   3.827 -1.0942  0.0172 -0.0619
 2752WAT     H112813   5.944   5.451   3.921  0.5108 -0.4784 -0.3261
 2752WAT     H212814   5.913   5.551   3.812 -0.9971  0.1549  0.6419
 2752WAT    EPW12815   5.928   5.469   3.837 -0.8700 -0.0300 -0.0041
 2753WAT      O12816   0.839   3.296   3.430 -0.8720 -0.2064 -0.4181
 2753WAT     H112817   0.867   3.285   3.521 -0.6708  0.4183 -0.4020
 2753WAT     H212818   0.743   3.292   3.434 -0.8374 -1.1548 -0.3147
 2753WAT    EPW12819   0.830   3.294   3.442 -0.8409 -0.2490 -0.4023
 2754WAT      O12820   3.177   4.577   2.265  0.0106  0.0108 -0.7829
 2754WAT     H112821   3.231   4.503   2.239  0.3215  0.9510 -2.9720
 2754WAT     H212822   3.187   4.581   2.361  1.6220 -1.4979 -0.8404
 2754WAT    EPW12823   3.186   4.568   2.274  0.2642 -0.0641 -1.0792
 2755WAT      O12824   1.815   2.210   6.239 -0.4755 -0.0675 -0.2612
 2755WAT     H112825   1.841   2.148   6.307 -1.2425  3.7857  3.9855
 2755WAT     H212826   1.719   2.207   6.239 -0.5009  0.5350 -0.5463
 2755WAT    EPW12827   1.805   2.201   6.248 -0.5800  0.5202  0.2613
 2756WAT      O12828  -2.199   6.443   3.595 -0.2974 -0.4711  0.0088
 2756WAT     H112829  -2.166   6.447   3.685  1.1267  0.9989 -0.5269
 2756WAT     H212830  -2.230   6.353   3.585 -0.2548 -0.7342  1.8740
 2756WAT    EPW12831  -2.199   6.431   3.606 -0.1040 -0.3119  0.1842
 2757WAT      O12832   0.713   8.391   3.942  0.1942 -0.0218  0.0901
 2757WAT     H112833   0.714   8.391   3.847  1.9179 -0.6612  0.0771
 2757WAT     H212834   0.781   8.454   3.967  0.1303 -0.2540  0.8923
 2757WAT    EPW12835   0.722   8.400   3.933  0.4131 -0.1369  0.1941
 2758WAT      O12836   5.760   5.041   3.888 -0.5593  0.3075 -0.5029
 2758WAT     H112837   5.749   5.013   3.797 -0.1163  0.5718 -0.6430
 2758WAT     H212838   5.692   5.107   3.902 -2.4094 -1.6410  0.1976
 2758WAT    EPW12839   5.749   5.046   3.878 -0.7448  0.0854 -0.4289
 2759WAT      O12840  -1.475  10.117   3.327  0.3570  0.1298 -0.9655
 2759WAT     H112841  -1.517  10.203   3.335  1.2714  0.4966  0.2452
 2759WAT     H212842  -1.544  10.059   3.296 -1.2832  0.5667  1.5502
 2759WAT    EPW12843  -1.489  10.121   3.324  0.2612  0.2356 -0.4740
 2760WAT      O12844  -1.711   6.121   3.850  0.5005  0.9640  0.5293
 2760WAT     H112845  -1.667   6.199   3.816  1.5455  0.3893  0.5096
 2760WAT     H212846  -1.689   6.052   3.787 -0.8804  0.7692  0.2389
 2760WAT    EPW12847  -1.702   6.122   3.837  0.4562  0.8624  0.4885
 2761WAT      O12848   0.177   7.874   5.470  0.0408 -0.2502  0.2430
 2761WAT     H112849   0.213   7.831   5.547 -2.5362 -3.9650 -0.3733
 2761WAT     H212850   0.088   7.898   5.495 -1.1384 -2.2715 -1.6486
 2761WAT    EPW12851   0.170   7.872   5.483 -0.4546 -1.0066 -0.0877
 2762WAT      O12852  -6.820   6.717   8.839  0.0385 -0.2237  0.2950
 2762WAT     H112853  -6.760   6.647   8.815  1.2890  0.8744  0.1393
 2762WAT     H212854  -6.886   6.674   8.894  0.8127 -1.4922  0.2653
 2762WAT    EPW12855  -6.821   6.702   8.843  0.3057 -0.2463  0.2708
 2763WAT      O12856  -1.153   0.285   6.450  0.1420  0.6297  0.4506
 2763WAT     H112857  -1.186   0.242   6.529 -0.6821  0.6574  0.1351
 2763WAT     H212858  -1.119   0.369   6.481 -1.9953  1.5219  0.5418
 2763WAT    EPW12859  -1.153   0.291   6.465 -0.2486  0.7510  0.4213
 2764WAT      O12860   0.999   3.146   4.917 -0.3065  0.6067 -0.3981
 2764WAT     H112861   1.053   3.108   4.987  0.0698  1.3132 -0.2942
 2764WAT     H212862   0.910   3.138   4.949 -0.6663 -3.3041 -1.8199
 2764WAT    EPW12863   0.995   3.140   4.930 -0.3043  0.1841 -0.5720
 2765WAT      O12864   6.254   6.434   3.914  0.3537  0.3450  0.0865
 2765WAT     H112865   6.203   6.435   3.995 -2.5859  0.9152 -1.6325
 2765WAT     H212866   6.275   6.342   3.900  0.6971  0.2135  1.3383
 2765WAT    EPW12867   6.250   6.422   3.923  0.0112  0.4027  0.0248
 2766WAT      O12868   0.075   9.798   1.040  0.1231  0.3395  0.1366
 2766WAT     H112869   0.010   9.832   1.102 -0.3333  1.9692 -1.1548
 2766WAT     H212870   0.031   9.802   0.955  0.7053 -1.9136 -0.3217
 2766WAT    EPW12871   0.060   9.803   1.037  0.1397  0.2570 -0.0942
 2767WAT      O12872   1.751   6.268   6.476  0.3257 -0.6921  0.4515
 2767WAT     H112873   1.757   6.213   6.398  0.2218 -2.0198  1.3472
 2767WAT     H212874   1.842   6.284   6.501  0.4804  1.9378 -1.3631
 2767WAT    EPW12875   1.764   6.263   6.469  0.3324 -0.5202  0.3304
 2768WAT      O12876  -6.452  10.144   8.506 -0.9319  0.5342  0.0321
 2768WAT     H112877  -6.451  10.239   8.514 -1.1951  0.3706  2.8345
 2768WAT     H212878  -6.544  10.120   8.522 -0.7646 -0.2162 -0.1277
 2768WAT    EPW12879  -6.464  10.153   8.509 -0.9444  0.4134  0.3805
 2769WAT      O12880   1.783   0.295   5.691 -0.3585 -0.0929  0.0819
 2769WAT     H112881   1.836   0.337   5.758  0.1418 -0.0029 -0.3653
 2769WAT     H212882   1.786   0.355   5.616 -0.6923 -0.3181 -0.1193
 2769WAT    EPW12883   1.790   0.309   5.690 -0.3365 -0.1107 -0.0036
 2770WAT      O12884  -3.315   0.442   5.595 -0.0851 -0.4196  0.7507
 2770WAT     H112885  -3.379   0.396   5.541 -0.8091  1.2501  0.1003
 2770WAT     H212886  -3.232   0.397   5.578 -0.5406 -0.7615 -0.7522
 2770WAT    EPW12887  -3.313   0.430   5.585 -0.2407 -0.2444  0.4668
 2771WAT      O12888  -0.408   1.863   3.902 -0.6210  0.5799  0.3679
 2771WAT     H112889  -0.497   1.829   3.904  0.0061 -1.1971 -0.2295
 2771WAT     H212890  -0.412   1.939   3.843 -1.9325  1.2362  1.2572
 2771WAT    EPW12891  -0.420   1.869   3.894 -0.7113  0.4321  0.4063
 2772WAT      O12892  -3.496   8.673   7.732 -0.0023 -0.0282  0.0354
 2772WAT     H112893  -3.579   8.709   7.699 -0.2218  0.4877  1.1111
 2772WAT     H212894  -3.523   8.608   7.797  0.4487  0.4986  0.7494
 2772WAT    EPW12895  -3.511   8.669   7.736  0.0283  0.1097  0.2716
 2773WAT      O12896   0.242   5.715   8.708 -0.1797  0.5951  0.0569
 2773WAT     H112897   0.295   5.756   8.777 -0.9488  0.1905  0.9058
 2773WAT     H212898   0.153   5.746   8.724 -0.6682 -0.8468  0.3127
 2773WAT    EPW12899   0.237   5.724   8.720 -0.3456  0.3514  0.2027
 2774WAT      O12900   4.195   9.320   2.167  0.1961  0.0948 -0.8948
 2774WAT     H112901   4.167   9.298   2.256  0.3972  2.3555 -0.2149
 2774WAT     H212902   4.140   9.266   2.111 -0.0152 -1.3050  0.5877
 2774WAT    EPW12903   4.184   9.310   2.172  0.1948  0.2084 -0.6096
 2775WAT      O12904  -1.407   0.298   7.052 -0.1644  0.3866 -0.8313
 2775WAT     H112905  -1.440   0.238   6.985 -1.9377  1.9741 -1.4562
 2775WAT     H212906  -1.473   0.294   7.121  0.5835  0.3522 -0.1048
 2775WAT    EPW12907  -1.420   0.289   7.052 -0.2996  0.5914 -0.8178
 2776WAT      O12908   2.899   3.889   4.090  0.3652  0.4153 -0.5219
 2776WAT     H112909   2.939   3.894   4.003  1.3320  4.1873 -0.0572
 2776WAT     H212910   2.965   3.847   4.145  1.1081  0.9180 -1.0090
 2776WAT    EPW12911   2.913   3.884   4.086  0.5908  0.9792 -0.5248
 2777WAT      O12912  -4.555   9.792   6.267  0.3695 -0.2088 -0.4614
 2777WAT     H112913  -4.532   9.816   6.357 -1.0171 -0.9590  0.1440
 2777WAT     H212914  -4.556   9.874   6.219 -0.9962  0.5381  0.7526
 2777WAT    EPW12915  -4.552   9.806   6.273  0.0064 -0.2093 -0.2215
 2778WAT      O12916   4.009   4.830   8.513  0.1742  0.4542 -0.2005
 2778WAT     H112917   4.074   4.881   8.562  0.5532 -1.3287  1.2917
 2778WAT     H212918   3.969   4.893   8.453  2.4911  1.8700 -0.3951
 2778WAT    EPW12919   4.012   4.845   8.512  0.5298  0.4055 -0.0296
 2779WAT      O12920   4.317   2.398   3.244 -0.2971 -0.3286  0.0291
 2779WAT     H112921   4.356   2.357   3.321  2.3964 -0.1952 -1.1534
 2779WAT     H212922   4.377   2.469   3.221 -1.6506  0.3983 -1.5049
 2779WAT    EPW12923   4.330   2.402   3.251 -0.1204 -0.2151 -0.3290
 2780WAT      O12924   5.031  10.071   3.138 -0.1688 -0.1655  0.0552
 2780WAT     H112925   5.103  10.130   3.162  0.1090 -0.9585  1.2493
 2780WAT     H212926   4.966  10.128   3.097 -0.0983  1.0630  1.5760
 2780WAT    EPW12927   5.032  10.086   3.136 -0.1228 -0.1078  0.4133
 2781WAT      O12928   2.337   3.145   6.306 -0.3130  1.3066 -0.1289
 2781WAT     H112929   2.264   3.114   6.252  0.0228  0.3979 -0.0775
 2781WAT     H212930   2.304   3.225   6.347 -1.0158  1.3145 -0.6843
 2781WAT    EPW12931   2.323   3.151   6.304 -0.3614  1.1879 -0.1955
 2782WAT      O12932   4.790   5.432   4.578 -0.4195 -0.0121  0.2909
 2782WAT     H112933   4.831   5.370   4.518  0.9561  0.9648  0.1589
 2782WAT     H212934   4.719   5.471   4.528 -1.7389 -1.9030  0.5928
 2782WAT    EPW12935   4.786   5.429   4.564 -0.4120 -0.1326  0.3130
 2783WAT      O12936   5.416   5.360   3.689  0.2729  0.3419  0.0593
 2783WAT     H112937   5.362   5.312   3.626  0.5075 -0.2847  0.3297
 2783WAT     H212938   5.503   5.364   3.648  0.3209  0.3039  0.1581
 2783WAT    EPW12939   5.420   5.354   3.675  0.3104  0.2544  0.1079
 2784WAT      O12940   3.294   6.670   1.018  0.0096  0.7574  0.2307
 2784WAT     H112941   3.353   6.597   1.039 -2.3389 -1.0782  0.8625
 2784WAT     H212942   3.317   6.737   1.082  1.4476  0.1569  0.3967
 2784WAT    EPW12943   3.305   6.669   1.029 -0.1105  0.4361  0.3359
 2785WAT      O12944   3.570   4.479   0.437 -0.3137  0.5226  0.0330
 2785WAT     H112945   3.643   4.536   0.416 -2.5897  3.7841  0.2987
 2785WAT     H212946   3.518   4.528   0.500 -3.1596 -1.2282 -0.7381
 2785WAT    EPW12947   3.572   4.493   0.442 -0.9893  0.7217 -0.0336
 2786WAT      O12948   2.166   5.182   7.338  0.4086 -0.1075  0.4857
 2786WAT     H112949   2.191   5.273   7.318 -0.0093 -0.2524 -0.7496
 2786WAT     H212950   2.142   5.145   7.253 -0.5191 -1.0467  1.1469
 2786WAT    EPW12951   2.166   5.189   7.324  0.2311 -0.2503  0.4101
 2787WAT      O12952  -1.382   0.818   2.399  0.1696  0.7122 -0.6564
 2787WAT     H112953  -1.370   0.817   2.304 -0.5339  2.7849 -0.8197
 2787WAT     H212954  -1.401   0.910   2.420  1.5891  0.5567  1.6631
 2787WAT    EPW12955  -1.383   0.830   2.389  0.2640  0.9651 -0.3721
 2788WAT      O12956  -4.766   8.703   3.884 -0.2810  0.1512  0.1061
 2788WAT     H112957  -4.811   8.763   3.824 -2.2966 -0.2523  1.1229
 2788WAT     H212958  -4.708   8.759   3.935  0.7790  0.6312 -1.5549
 2788WAT    EPW12959  -4.765   8.718   3.883 -0.4072  0.1612  0.0212
 2789WAT      O12960  -0.133   3.843   4.681  0.3675 -0.7219  0.4861
 2789WAT     H112961  -0.218   3.831   4.640  0.2234 -1.5389  1.0161
 2789WAT     H212962  -0.080   3.886   4.614 -1.0624  1.8280  0.8541
 2789WAT    EPW12963  -0.137   3.847   4.667  0.1599 -0.4934  0.6046
 2790WAT      O12964   3.274   0.482   4.830 -0.1511 -0.3300  0.3497
 2790WAT     H112965   3.233   0.400   4.855  1.2038 -1.2232 -0.2557
 2790WAT     H212966   3.211   0.549   4.856 -1.2598 -1.5435  0.8968
 2790WAT    EPW12967   3.260   0.480   4.837 -0.1186 -0.6079  0.3421
 2791WAT      O12968   1.592   4.871   6.441 -0.1222 -0.3022 -0.0165
 2791WAT     H112969   1.678   4.913   6.434 -0.1826 -0.3446 -1.2939
 2791WAT     H212970   1.535   4.924   6.385 -1.8926  1.9465  3.5296
 2791WAT    EPW12971   1.596   4.884   6.433 -0.3636 -0.0112  0.2828
 2792WAT      O12972   3.731   5.268   5.034 -0.3100  0.0318  0.6261
 2792WAT     H112973   3.801   5.324   5.068 -0.7199 -1.3275  4.2523
 2792WAT     H212974   3.659   5.327   5.016  1.2036  1.2853 -1.7655
 2792WAT    EPW12975   3.731   5.283   5.036 -0.1644  0.0179  0.7887
 2793WAT      O12976   1.006   2.817   0.140  0.4757  0.4413  0.3654
 2793WAT     H112977   0.986   2.858   0.224  2.6753 -0.1122  1.2406
 2793WAT     H212978   0.942   2.747   0.132  0.6978  0.0093  1.9739
 2793WAT    EPW12979   0.995   2.813   0.150  0.7951  0.3113  0.6930
 2794WAT      O12980   3.910   3.362   5.914 -0.6184  0.0180  0.6446
 2794WAT     H112981   3.876   3.272   5.903 -0.4593 -0.3611  2.8156
 2794WAT     H212982   3.956   3.380   5.832 -1.7093 -1.3999 -0.3450
 2794WAT    EPW12983   3.911   3.352   5.901 -0.7412 -0.2189  0.8006
 2795WAT      O12984   0.252   4.054   2.882 -0.0009 -0.1329  0.9399
 2795WAT     H112985   0.208   4.138   2.894 -1.5341 -0.7836  0.1144
 2795WAT     H212986   0.227   4.003   2.960  0.0963 -0.1664  0.9486
 2795WAT    EPW12987   0.243   4.059   2.894 -0.1903 -0.2232  0.8322
 2796WAT      O12988   0.729   9.151   2.802 -0.1588 -0.1267  0.0123
 2796WAT     H112989   0.659   9.086   2.811 -1.3946  1.2423  0.6932
 2796WAT     H212990   0.747   9.180   2.891 -0.5175  1.3416 -0.3608
 2796WAT    EPW12991   0.722   9.146   2.815 -0.3691  0.2475  0.0529
 2797WAT      O12992   6.343   7.934   0.216  1.1777 -0.0454  0.1446
 2797WAT     H112993   6.321   7.848   0.252  1.6766 -1.4755 -2.6673
 2797WAT     H212994   6.284   7.995   0.260 -0.3681 -2.0677  1.0168
 2797WAT    EPW12995   6.333   7.931   0.227  1.0395 -0.5007 -0.1113
 2798WAT      O12996   1.497   2.616   6.863 -0.1230 -0.6729 -0.0341
 2798WAT     H112997   1.578   2.612   6.812 -0.0568 -1.3146  0.1177
 2798WAT     H212998   1.525   2.616   6.954 -0.3031 -1.3649  0.0268
 2798WAT    EPW12999   1.511   2.615   6.868 -0.1380 -0.8488 -0.0060
 2799WAT      O13000   6.054   7.241   1.992 -0.8167  0.4060  0.1162
 2799WAT     H113001   6.108   7.165   2.014  0.7681  1.0507 -1.3292
 2799WAT     H213002   6.020   7.272   2.076  1.5883  0.3402  1.1794
 2799WAT    EPW13003   6.056   7.235   2.006 -0.2904  0.4823  0.0658
 2800WAT      O13004  -3.479   4.943   6.014 -0.2523  0.1926 -0.6375
 2800WAT     H113005  -3.570   4.914   6.014 -0.6415  1.1474 -3.3398
 2800WAT     H213006  -3.479   5.024   6.065 -0.8903  0.0910 -0.4674
 2800WAT    EPW13007  -3.491   4.950   6.021 -0.3879  0.3052 -0.9716
 2801WAT      O13008   1.005   3.567   7.724  0.4114  0.4383  0.0779
 2801WAT     H113009   1.044   3.631   7.666 -0.1466  3.9426  3.1630
 2801WAT     H213010   1.071   3.554   7.793 -0.7773  0.3778  1.2482
 2801WAT    EPW13011   1.019   3.574   7.726  0.1811  0.8925  0.6392
 2802WAT      O13012  -2.312   8.266   3.267 -0.0070 -0.7974  0.6615
 2802WAT     H113013  -2.401   8.246   3.296  0.1812 -0.7837  1.2598
 2802WAT     H213014  -2.301   8.359   3.285  0.8370 -1.2109  2.5702
 2802WAT    EPW13015  -2.322   8.275   3.273  0.1291 -0.8502  0.9922
 2803WAT      O13016  -6.523   9.405   6.392  0.1378  0.2087  0.3986
 2803WAT     H113017  -6.550   9.314   6.383  0.1945  0.2955 -0.7623
 2803WAT     H213018  -6.480   9.409   6.478 -0.7258 -0.6293  0.8946
 2803WAT    EPW13019  -6.521   9.393   6.402  0.0312  0.1097  0.3109
 2804WAT      O13020  -7.983   7.879   8.927  0.3149  0.1407  0.1642
 2804WAT     H113021  -7.980   7.972   8.903 -0.4149  0.1690  0.1773
 2804WAT     H213022  -8.060   7.871   8.984 -0.3261 -0.6886 -0.7905
 2804WAT    EPW13023  -7.993   7.890   8.932  0.1342  0.0350  0.0401
 2805WAT      O13024   4.366   1.977   2.456  0.2243 -0.7141  0.2083
 2805WAT     H113025   4.303   1.957   2.386 -0.4918 -0.7500  0.8555
 2805WAT     H213026   4.367   1.899   2.511 -0.4488 -0.0691  1.1569
 2805WAT    EPW13027   4.358   1.964   2.454  0.0410 -0.6338  0.4188
 2806WAT      O13028   5.310   1.149   5.971 -0.1497  0.0391  0.6108
 2806WAT     H113029   5.262   1.207   5.912  2.5799  1.4335 -0.3989
 2806WAT     H213030   5.401   1.177   5.964  0.8464 -2.3217  2.5599
 2806WAT    EPW13031   5.315   1.160   5.962  0.3417 -0.0883  0.7348
 2807WAT      O13032  -5.049   8.892   7.130  0.0817 -0.2142  0.4460
 2807WAT     H113033  -5.096   8.818   7.091  0.4971  0.5800 -1.6960
 2807WAT     H213034  -4.972   8.904   7.074 -0.1706  2.0332  0.4925
 2807WAT    EPW13035  -5.045   8.884   7.117  0.1030  0.1864  0.1695
 2808WAT      O13036   4.532   9.700   2.749 -0.4159  0.2138 -0.2328
 2808WAT     H113037   4.547   9.774   2.807 -0.8995  0.5089 -0.4793
 2808WAT     H213038   4.611   9.646   2.757 -1.1410 -0.6267  1.9997
 2808WAT    EPW13039   4.544   9.703   2.758 -0.5753  0.1416  0.0291
 2809WAT      O13040   5.035   7.530   4.519 -0.4618 -0.1886 -0.3721
 2809WAT     H113041   5.006   7.575   4.598 -0.0104 -0.3756 -0.0959
 2809WAT     H213042   4.982   7.451   4.515  1.3907 -1.6236  1.2946
 2809WAT    EPW13043   5.024   7.526   4.528 -0.1581 -0.4027 -0.1159
 2810WAT      O13044  -0.984   2.097   4.515 -0.6502 -0.0176 -0.1539
 2810WAT     H113045  -0.891   2.110   4.532 -0.1968 -0.3528 -2.1281
 2810WAT     H213046  -1.026   2.176   4.549  0.3317  0.1226  0.7864
 2810WAT    EPW13047  -0.978   2.109   4.522 -0.4608 -0.0433 -0.2902
 2811WAT      O13048   6.122   0.336   4.253 -0.0489 -0.1088 -0.7536
 2811WAT     H113049   6.048   0.285   4.286 -0.0393 -0.3788 -1.1417
 2811WAT     H213050   6.092   0.427   4.257 -0.8597 -0.2887 -2.0095
 2811WAT    EPW13051   6.108   0.341   4.258 -0.1547 -0.1681 -0.9704
 2812WAT      O13052  -2.154   5.963   4.777  0.5009  0.2554 -0.4241
 2812WAT     H113053  -2.226   6.021   4.751  0.0536 -0.9261 -1.9791
 2812WAT     H213054  -2.110   5.940   4.695  1.8799 -0.0661  0.3639
 2812WAT    EPW13055  -2.158   5.968   4.763  0.6237  0.0572 -0.5255
 2813WAT      O13056   4.325   4.028   0.754 -0.3671 -0.9713 -0.3711
 2813WAT     H113057   4.365   3.945   0.782  1.1148  0.0580  0.7350
 2813WAT     H213058   4.380   4.059   0.683  1.3950  0.7926  1.6091
 2813WAT    EPW13059   4.337   4.021   0.749  0.0606 -0.6030  0.0360
 2814WAT      O13060   1.742   7.343   1.275  0.4818 -0.5276  0.6017
 2814WAT     H113061   1.763   7.286   1.201  2.0894  1.7267 -0.7934
 2814WAT     H213062   1.673   7.296   1.322  2.2951 -4.0212  0.1016
 2814WAT    EPW13063   1.735   7.329   1.271  0.9331 -0.6912  0.3517
 2815WAT      O13064  -6.767   7.316   7.884 -0.3187  0.4766 -0.3382
 2815WAT     H113065  -6.770   7.262   7.805  0.3180 -0.8526  0.5168
 2815WAT     H213066  -6.793   7.257   7.955  2.8166  0.4903  1.0029
 2815WAT    EPW13067  -6.771   7.301   7.883  0.1788  0.3033 -0.0484
 2816WAT      O13068   1.016   6.158   6.947 -0.2003 -0.3757 -0.1903
 2816WAT     H113069   1.018   6.215   7.024  0.9046 -0.4389 -0.1678
 2816WAT     H213070   0.942   6.191   6.896 -0.1363  0.4951  0.2637
 2816WAT    EPW13071   1.006   6.170   6.951 -0.0462 -0.2694 -0.1276
 2817WAT      O13072  -5.474   8.239   8.162  0.1655  0.0842  0.2918
 2817WAT     H113073  -5.509   8.305   8.103  3.1950  0.4034 -1.3355
 2817WAT     H213074  -5.458   8.285   8.244 -0.3927  0.6277  0.1000
 2817WAT    EPW13075  -5.477   8.254   8.165  0.4916  0.1979  0.0520
 2818WAT      O13076  -6.205   6.419   6.991 -0.4188  0.9174 -0.1733
 2818WAT     H113077  -6.228   6.501   7.035  3.2264  0.7311  2.5556
 2818WAT     H213078  -6.172   6.445   6.905 -1.3091  2.0662 -0.1770
 2818WAT    EPW13079  -6.204   6.433   6.986 -0.0556  1.0443  0.1864
 2819WAT      O13080   3.798   2.749   6.602 -0.0592 -0.1041  0.1311
 2819WAT     H113081   3.778   2.797   6.682  1.3222 -0.2449  0.5798
 2819WAT     H213082   3.864   2.803   6.558 -1.9156  0.7772 -1.7140
 2819WAT    EPW13083   3.804   2.763   6.607 -0.1218 -0.0063 -0.0529
 2820WAT      O13084  -3.433   5.591   4.920 -0.2365 -0.2716  0.3360
 2820WAT     H113085  -3.396   5.526   4.861 -1.9301  0.4131 -1.5841
 2820WAT     H213086  -3.375   5.589   4.997  1.6135 -1.7278 -0.9963
 2820WAT    EPW13087  -3.420   5.582   4.923 -0.2158 -0.3734 -0.0930
 2821WAT      O13088   2.541   4.772   5.268  0.2780  0.3541 -0.0463
 2821WAT     H113089   2.486   4.802   5.340 -0.2047  1.8832 -1.0029
 2821WAT     H213090   2.480   4.758   5.195  1.1121  2.2648 -1.1867
 2821WAT    EPW13091   2.526   4.774   5.268  0.3244  0.8078 -0.3228
 2822WAT      O13092   4.144   0.402   8.363 -0.2217 -0.0735 -0.6762
 2822WAT     H113093   4.225   0.440   8.329  1.2685  1.6676  4.0045
 2822WAT     H213094   4.090   0.477   8.387 -1.1679 -1.0997  0.5820
 2822WAT    EPW13095   4.147   0.417   8.362 -0.1500  0.0208  0.1073
 2823WAT      O13096   4.978   7.415   3.894 -0.3312  0.2284 -1.0588
 2823WAT     H113097   4.929   7.403   3.976 -2.2625  0.6948 -2.0713
 2823WAT     H213098   4.952   7.340   3.841 -0.3830  0.7789 -1.8176
 2823WAT    EPW13099   4.968   7.404   3.898 -0.5927  0.3626 -1.2925
 2824WAT      O13100  -5.234   4.206   6.651  0.2154  0.3820  0.4607
 2824WAT     H113101  -5.253   4.300   6.655  1.0559  0.6086 -0.5807
 2824WAT     H213102  -5.140   4.201   6.639  0.2257 -0.6224  0.8271
 2824WAT    EPW13103  -5.224   4.218   6.650  0.3273  0.2794  0.3717
 2825WAT      O13104   5.615   2.955   4.082 -0.6928 -0.9766  0.4406
 2825WAT     H113105   5.639   2.878   4.134 -0.3179 -0.4576  1.0379
 2825WAT     H213106   5.699   2.986   4.047 -0.6310  0.1074  1.5112
 2825WAT    EPW13107   5.629   2.949   4.084 -0.6354 -0.7652  0.6604
 2826WAT      O13108  -4.471   8.339   7.052  0.1186 -0.6070  0.4166
 2826WAT     H113109  -4.552   8.376   7.087  1.1197 -0.6430  3.0303
 2826WAT     H213110  -4.431   8.410   7.002 -2.3770 -1.1874 -2.6936
 2826WAT    EPW13111  -4.476   8.353   7.050 -0.0784 -0.6886  0.3514
 2827WAT      O13112   7.265   5.384   0.397 -0.5535 -0.9841  0.3723
 2827WAT     H113113   7.249   5.319   0.329  1.8729 -2.0399  0.7121
 2827WAT     H213114   7.196   5.369   0.461 -0.2086 -3.0883  0.3132
 2827WAT    EPW13115   7.254   5.373   0.396 -0.1879 -1.4007  0.4093
 2828WAT      O13116   3.532   6.314   6.312 -1.1650 -0.2132  0.1572
 2828WAT     H113117   3.585   6.362   6.377  2.1049 -2.9574 -0.1943
 2828WAT     H213118   3.485   6.249   6.364 -2.6398  0.8567  0.2243
 2828WAT    EPW13119   3.533   6.312   6.327 -0.9283 -0.4339  0.1194
 2829WAT      O13120  -8.156   9.077   8.439 -0.1082  0.2106  0.7208
 2829WAT     H113121  -8.218   9.145   8.413 -1.6899 -2.1161 -2.2732
 2829WAT     H213122  -8.070   9.111   8.413 -1.0200  0.5583 -2.1920
 2829WAT    EPW13123  -8.153   9.090   8.432 -0.4373 -0.0505 -0.0582
 2830WAT      O13124  -0.560   2.361   1.054 -0.0394  0.0021  1.0289
 2830WAT     H113125  -0.654   2.365   1.040 -0.0147  0.0574  0.8811
 2830WAT     H213126  -0.531   2.286   1.003 -0.4744 -2.0851  3.6416
 2830WAT    EPW13127  -0.568   2.352   1.046 -0.0935 -0.2660  1.3540
 2831WAT      O13128   6.516   3.144   4.556 -1.1492 -0.3061  0.0389
 2831WAT     H113129   6.426   3.119   4.532 -0.9963 -1.5385  0.6661
 2831WAT     H213130   6.517   3.240   4.550 -3.1922 -0.0407  2.2524
 2831WAT    EPW13131   6.504   3.154   4.552 -1.3986 -0.4337  0.4134
 2832WAT      O13132  -1.020   7.449   8.049 -0.2942  0.0180 -0.7655
 2832WAT     H113133  -0.956   7.414   8.111 -1.0204 -1.2476 -0.7157
 2832WAT     H213134  -1.069   7.373   8.019 -2.2783  1.0502 -0.2638
 2832WAT    EPW13135  -1.018   7.435   8.053 -0.6517 -0.0126 -0.6928
 2833WAT      O13136  -0.743   6.544   4.847  0.0206 -0.2203  0.8183
 2833WAT     H113137  -0.777   6.504   4.767 -1.5431  0.7136  0.9586
 2833WAT     H213138  -0.666   6.593   4.819 -0.6999  0.3778 -0.2076
 2833WAT    EPW13139  -0.738   6.545   4.833 -0.2807 -0.0184  0.7017
 2834WAT      O13140   3.516   3.168   2.276  0.1370 -0.6051  0.3284
 2834WAT     H113141   3.443   3.106   2.279 -1.4559  1.0663 -1.2810
 2834WAT     H213142   3.515   3.202   2.187 -0.0354  2.7629  1.4464
 2834WAT    EPW13143   3.506   3.164   2.265 -0.0958  0.0595  0.2636
 2835WAT      O13144   4.163   6.188   6.852  0.4803 -0.4271 -0.2623
 2835WAT     H113145   4.067   6.186   6.844  0.5272 -1.2792 -0.6617
 2835WAT     H213146   4.185   6.103   6.891  1.0436 -0.0556  0.2506
 2835WAT    EPW13147   4.153   6.177   6.856  0.5608 -0.4907 -0.2475
 2836WAT      O13148   6.872   8.170   1.459 -0.3440 -0.1339  0.0765
 2836WAT     H113149   6.821   8.198   1.383  1.6387 -0.2516 -1.3794
 2836WAT     H213150   6.936   8.240   1.473  0.3118 -0.8305  0.6651
 2836WAT    EPW13151   6.873   8.183   1.451  0.0041 -0.2413 -0.0379
 2837WAT      O13152   1.550   5.380   6.695  0.0723 -0.0708  0.6244
 2837WAT     H113153   1.511   5.366   6.781  1.2209 -2.2201  0.8700
 2837WAT     H213154   1.502   5.320   6.638 -2.3816  3.0313 -0.9100
 2837WAT    EPW13155   1.538   5.370   6.699 -0.0999  0.0548  0.4544
 2838WAT      O13156   4.870   0.395   0.526 -0.4512  0.1357 -0.1559
 2838WAT     H113157   4.861   0.480   0.484 -1.9527 -0.5136 -1.2670
 2838WAT     H213158   4.864   0.414   0.620 -2.5632  1.1175 -0.4275
 2838WAT    EPW13159   4.868   0.409   0.533 -0.9277  0.1796 -0.3383
 2839WAT      O13160  -0.046   9.650   4.629 -0.2471  0.1870 -0.0261
 2839WAT     H113161   0.027   9.650   4.568  1.1807 -1.2297  1.5896
 2839WAT     H213162  -0.017   9.595   4.702 -2.6345  0.1968  1.0293
 2839WAT    EPW13163  -0.033   9.643   4.631 -0.3737  0.0010  0.3259
 2840WAT      O13164   6.730   6.298   2.628  0.1085 -0.0182 -0.3711
 2840WAT     H113165   6.716   6.204   2.641 -1.8935 -0.0074 -2.0161
 2840WAT     H213166   6.757   6.329   2.714  1.5862 -2.1880  0.0542
 2840WAT    EPW13167   6.732   6.289   2.641  0.0393 -0.3030 -0.5320
 2841WAT      O13168  -3.197   6.923   8.677 -0.3133 -0.2058  0.3444
 2841WAT     H113169  -3.144   6.993   8.641  1.1680 -1.1214  0.6647
 2841WAT     H213170  -3.232   6.959   8.759 -0.8594  0.6732 -0.2592
 2841WAT    EPW13171  -3.195   6.937   8.683 -0.1901 -0.2105  0.3071
 2842WAT      O13172   2.457   1.387   6.226  0.2048  0.1575  0.5039
 2842WAT     H113173   2.463   1.361   6.134  0.5486  2.6286 -0.2546
 2842WAT     H213174   2.512   1.324   6.272  0.4556 -0.8244 -1.0593
 2842WAT    EPW13175   2.465   1.376   6.220  0.2832  0.3540  0.1976
 2843WAT      O13176   0.072   2.701   6.035  0.0206 -0.7869  0.3210
 2843WAT     H113177   0.124   2.680   5.957 -1.0843 -0.3028 -0.5672
 2843WAT     H213178   0.024   2.620   6.054  0.7440 -1.0962  0.8799
 2843WAT    EPW13179   0.073   2.687   6.027 -0.0297 -0.7639  0.2775
 2844WAT      O13180   1.980   0.949   7.081 -0.0182  0.0065 -0.6605
 2844WAT     H113181   2.063   0.906   7.058 -1.0403 -1.7246 -1.2970
 2844WAT     H213182   1.946   0.896   7.153  0.1255  1.6258  0.6489
 2844WAT    EPW13183   1.986   0.936   7.088 -0.1341 -0.0082 -0.5717
 2845WAT      O13184  -1.474   3.872   2.662 -0.5143 -0.1013 -0.0232
 2845WAT     H113185  -1.533   3.929   2.611  1.6892  0.5416 -2.0313
 2845WAT     H213186  -1.421   3.933   2.713  1.8605 -0.2099 -2.1816
 2845WAT    EPW13187  -1.475   3.888   2.662  0.0896 -0.0308 -0.5728
 2846WAT      O13188   4.121   2.718   1.765  0.4988 -0.8246 -0.3316
 2846WAT     H113189   4.114   2.776   1.690  0.9942  0.3167  0.4765
 2846WAT     H213190   4.183   2.650   1.738 -1.1613 -1.8299 -1.7920
 2846WAT    EPW13191   4.128   2.717   1.752  0.3452 -0.8066 -0.4176
 2847WAT      O13192   1.707   3.486   4.275  0.7720  0.1902 -1.0010
 2847WAT     H113193   1.642   3.469   4.207  0.6619 -1.3685 -0.5401
 2847WAT     H213194   1.655   3.506   4.353  0.7988 -1.4384 -0.5349
 2847WAT    EPW13195   1.691   3.486   4.276  0.7610 -0.2302 -0.8788
 2848WAT      O13196   1.801   5.919   5.597  0.4103  0.4549 -0.2387
 2848WAT     H113197   1.798   5.838   5.547 -0.9192  0.8144 -0.8096
 2848WAT     H213198   1.720   5.965   5.573 -0.0028  0.9138  1.8084
 2848WAT    EPW13199   1.790   5.915   5.587  0.1804  0.5627 -0.0439
 2849WAT      O13200  -2.296   3.540   2.765 -0.4751 -0.3917  0.2677
 2849WAT     H113201  -2.249   3.558   2.684  0.6308  0.7617  1.1198
 2849WAT     H213202  -2.302   3.444   2.768  0.1252 -0.4800 -0.8175
 2849WAT    EPW13203  -2.290   3.530   2.755 -0.2502 -0.2512  0.2369
 2850WAT      O13204  -2.932   2.850   7.143 -0.7338  0.0710  0.3499
 2850WAT     H113205  -2.914   2.924   7.086 -1.1911 -1.3136 -1.7129
 2850WAT     H213206  -2.845   2.815   7.164 -0.5836 -0.5526 -1.1665
 2850WAT    EPW13207  -2.918   2.855   7.138 -0.7743 -0.1938 -0.1223
 2851WAT      O13208  -0.844   7.175   8.805  0.3075 -0.0258  0.4670
 2851WAT     H113209  -0.927   7.222   8.800 -0.1487 -0.9209 -1.2795
 2851WAT     H213210  -0.797   7.217   8.877 -0.2755  2.7072 -0.6452
 2851WAT    EPW13211  -0.849   7.187   8.814  0.1704  0.2167  0.0901
 2852WAT      O13212  -1.050   7.456   0.709  0.7796  0.5707  0.3186
 2852WAT     H113213  -1.080   7.510   0.635 -1.2079  1.7519  1.8730
 2852WAT     H213214  -1.108   7.380   0.708  0.0614  1.0843  1.2070
 2852WAT    EPW13215  -1.061   7.453   0.699  0.4227  0.7944  0.6408
 2853WAT      O13216   0.875   3.626   8.764  0.6229  0.2093 -0.1058
 2853WAT     H113217   0.945   3.567   8.791 -0.1891 -0.5613  0.4007
 2853WAT     H213218   0.916   3.687   8.704  1.5182 -0.8073 -0.5540
 2853WAT    EPW13219   0.890   3.626   8.760  0.6339 -0.0265 -0.0982
 2854WAT      O13220   4.682   6.370   3.715  0.9352  0.5436  0.5217
 2854WAT     H113221   4.588   6.385   3.723  0.4989 -0.8945 -1.2592
 2854WAT     H213222   4.700   6.300   3.777  0.9873  1.2896  1.3650
 2854WAT    EPW13223   4.672   6.363   3.724  0.8845  0.4523  0.3979
 2855WAT      O13224   5.470   5.855   1.226  0.1893 -0.9183 -0.2355
 2855WAT     H113225   5.509   5.941   1.242  0.6379 -1.0377 -0.6751
 2855WAT     H213226   5.425   5.834   1.308 -2.7152  1.1599 -1.1336
 2855WAT    EPW13227   5.469   5.864   1.239 -0.1347 -0.6599 -0.4119
 2856WAT      O13228   2.406   1.798   1.310  0.4613 -0.2374  0.1376
 2856WAT     H113229   2.496   1.794   1.342  0.3261 -1.6444  0.4095
 2856WAT     H213230   2.370   1.711   1.329 -1.2094  0.5516  0.7737
 2856WAT    EPW13231   2.413   1.786   1.317  0.2230 -0.3189  0.2573
 2857WAT      O13232   8.156   5.278   1.078 -0.3139  0.1349  0.4885
 2857WAT     H113233   8.192   5.356   1.119 -1.8273  1.7341 -1.0380
 2857WAT     H213234   8.180   5.286   0.986 -2.8758  0.3408 -0.2342
 2857WAT    EPW13235   8.164   5.289   1.071 -0.8512  0.3731  0.1919
 2858WAT      O13236   6.611   1.146   2.111 -0.5524 -0.3529  0.5142
 2858WAT     H113237   6.540   1.196   2.151  0.8004  2.0513  0.0999
 2858WAT     H213238   6.665   1.117   2.185 -1.4629 -1.4798  0.7699
 2858WAT    EPW13239   6.609   1.149   2.126 -0.4940 -0.1845  0.4933
 2859WAT      O13240   5.127   3.150   5.595 -0.2052 -0.8348 -0.5934
 2859WAT     H113241   5.089   3.224   5.644  0.8975 -1.0237  0.5838
 2859WAT     H213242   5.125   3.077   5.657  0.1659 -1.3878 -1.2287
 2859WAT    EPW13243   5.122   3.150   5.610 -0.0110 -0.9327 -0.5219
 2860WAT      O13244   0.470  -0.009   2.031  0.5517 -0.4642 -0.1246
 2860WAT     H113245   0.409  -0.005   2.104  2.3441  0.4808  1.4294
 2860WAT     H213246   0.462   0.077   1.988  0.7699 -0.3419  0.0767
 2860WAT    EPW13247   0.461   0.003   2.035  0.8169 -0.3235  0.1069
 2861WAT      O13248  -7.642   9.833   8.040  0.2943  0.2377 -0.4291
 2861WAT     H113249  -7.633   9.740   8.057  0.0215  0.7520  3.4219
 2861WAT     H213250  -7.727   9.841   7.997  0.0731 -1.2722 -0.3205
 2861WAT    EPW13251  -7.652   9.822   8.037  0.2289  0.1068  0.0930
 2862WAT      O13252   4.010  10.321   4.454  0.9104  0.2077  0.2211
 2862WAT     H113253   3.954  10.353   4.383 -0.4919 -2.8907 -0.2428
 2862WAT     H213254   3.959  10.335   4.533  1.1849  0.8871  0.2897
 2862WAT    EPW13255   3.996  10.327   4.455  0.7615 -0.1116  0.1688
 2863WAT      O13256   9.488   0.537   2.074 -0.2060 -0.7262  0.5236
 2863WAT     H113257   9.521   0.453   2.041 -0.7182 -0.8612  0.3484
 2863WAT     H213258   9.476   0.522   2.168 -1.8382 -1.3873  0.2574
 2863WAT    EPW13259   9.491   0.524   2.082 -0.4888 -0.8312  0.4654
 2864WAT      O13260   7.063   1.058   2.097  0.5473 -0.7605  0.4124
 2864WAT     H113261   6.998   1.081   2.163 -0.5489 -1.6696 -0.3069
 2864WAT     H213262   7.018   1.071   2.014  1.6194 -0.4764 -0.1398
 2864WAT    EPW13263   7.049   1.063   2.095  0.5441 -0.8429  0.2447
 2865WAT      O13264  -5.012  10.026   8.890  0.1205  0.3698  0.1981
 2865WAT     H113265  -4.941  10.058   8.834 -0.4888  0.3838 -0.5797
 2865WAT     H213266  -5.059   9.964   8.836 -0.7766  0.7397  0.5329
 2865WAT    EPW13267  -5.009  10.022   8.876 -0.0784  0.4206  0.1392
 2866WAT      O13268  -0.630   6.520   5.103 -1.0583 -0.6383  0.6375
 2866WAT     H113269  -0.534   6.519   5.097 -0.9481  0.0033  1.9305
 2866WAT     H213270  -0.660   6.516   5.012  0.2078  0.5868  0.1287
 2866WAT    EPW13271  -0.621   6.519   5.090 -0.8767 -0.3920  0.7408
 2867WAT      O13272   0.168   2.140   7.792  0.4846  0.2742 -0.3277
 2867WAT     H113273   0.241   2.171   7.738  1.1194  0.0364  0.3623
 2867WAT     H213274   0.201   2.059   7.831  0.7567  1.3652  1.8515
 2867WAT    EPW13275   0.182   2.133   7.790  0.6042  0.3867  0.0508
 2868WAT      O13276   7.179   2.482   0.264 -0.5154  0.1824 -0.3842
 2868WAT     H113277   7.121   2.476   0.187 -1.4547 -0.9526  0.3720
 2868WAT     H213278   7.264   2.451   0.233 -1.2756 -1.8148 -0.6205
 2868WAT    EPW13279   7.182   2.477   0.250 -0.7396 -0.2308 -0.3156
 2869WAT      O13280   1.310   5.606   0.438  0.4317  0.6049  0.3690
 2869WAT     H113281   1.252   5.681   0.450 -1.9674 -1.1421  0.4353
 2869WAT     H213282   1.353   5.621   0.354 -0.3833  1.8084  0.1485
 2869WAT    EPW13283   1.308   5.618   0.429  0.0077  0.5331  0.3486
 2870WAT      O13284  -2.744   1.406   4.679  0.5518  0.5706 -0.5781
 2870WAT     H113285  -2.821   1.357   4.708  0.7758  0.8312  0.5021
 2870WAT     H213286  -2.677   1.338   4.666  0.3225  0.4061 -0.8964
 2870WAT    EPW13287  -2.745   1.390   4.681  0.5511  0.5832 -0.4776
 2871WAT      O13288  -1.053   6.311   6.480  0.1000 -0.4757 -0.4173
 2871WAT     H113289  -1.023   6.230   6.438 -0.8409 -0.8386 -0.4106
 2871WAT     H213290  -1.023   6.381   6.422  0.8115 -0.8292 -0.4903
 2871WAT    EPW13291  -1.045   6.309   6.467  0.0697 -0.5701 -0.4261
 2872WAT      O13292   2.786   4.371   0.292  0.6686 -0.0117 -0.5325
 2872WAT     H113293   2.720   4.441   0.292  0.2100 -0.4250 -1.2925
 2872WAT     H213294   2.867   4.415   0.267  0.5228  0.3635 -0.3627
 2872WAT    EPW13295   2.788   4.386   0.289  0.5889 -0.0167 -0.6103
 2873WAT      O13296   1.786   4.517   2.308  0.3373  0.6242 -0.3055
 2873WAT     H113297   1.874   4.485   2.326 -0.1948  0.4804  2.4651
 2873WAT     H213298   1.778   4.597   2.360 -1.4499  0.1008  0.3193
 2873WAT    EPW13299   1.796   4.523   2.317  0.0314  0.5362  0.1423
 2874WAT      O13300  -3.621   1.187   6.586 -0.3476  0.0884  0.4549
 2874WAT     H113301  -3.587   1.277   6.589  1.4143 -0.5256 -0.0136
 2874WAT     H213302  -3.680   1.182   6.661 -0.9641  1.8070  0.1326
 2874WAT    EPW13303  -3.624   1.198   6.597 -0.1965  0.2341  0.3507
 2875WAT      O13304   0.528   4.718   6.103  0.4992 -0.1363  0.9825
 2875WAT     H113305   0.505   4.809   6.120  1.9735  0.3666  0.3998
 2875WAT     H213306   0.594   4.697   6.168  0.7286 -0.5453  0.6196
 2875WAT    EPW13307   0.533   4.727   6.114  0.7239 -0.1240  0.8578
 2876WAT      O13308   2.330   8.097   4.977  0.3194  0.7380  0.3332
 2876WAT     H113309   2.245   8.055   4.986  1.3511 -1.7164 -0.3348
 2876WAT     H213310   2.388   8.044   5.032  1.6917  1.3220 -0.5042
 2876WAT    EPW13311   2.327   8.084   4.986  0.6365  0.4916  0.1347
 2877WAT      O13312   1.321   8.401   3.459  0.2186 -0.5927  0.3721
 2877WAT     H113313   1.340   8.314   3.495  0.8080 -1.4331 -1.8175
 2877WAT     H213314   1.225   8.401   3.450 -0.0585 -0.0076  2.6341
 2877WAT    EPW13315   1.311   8.389   3.463  0.2597 -0.6266  0.3816
 2878WAT      O13316   1.270   6.205   6.848 -0.3387  0.7954  0.7548
 2878WAT     H113317   1.177   6.185   6.861  0.1865 -1.4284  1.5609
 2878WAT     H213318   1.309   6.192   6.934  0.6609  2.2695  0.5523
 2878WAT    EPW13319   1.263   6.201   6.861 -0.1375  0.6964  0.8345
 2879WAT      O13320  -2.063   3.687   4.755 -0.3877  0.1864 -0.3522
 2879WAT     H113321  -2.056   3.782   4.742  0.7856  0.2550  0.5636
 2879WAT     H213322  -2.038   3.649   4.671  3.3235  0.6622  0.3443
 2879WAT    EPW13323  -2.059   3.695   4.742  0.2565  0.2582 -0.1392
 2880WAT      O13324   2.269   0.761   6.502 -0.3275 -0.3402  0.5444
 2880WAT     H113325   2.275   0.855   6.487  5.2259 -0.2003  1.5458
 2880WAT     H213326   2.266   0.722   6.415  0.3777  0.7435  0.0218
 2880WAT    EPW13327   2.269   0.768   6.489  0.4981 -0.1788  0.6077
 2881WAT      O13328  -0.625   9.454   0.662  0.1721 -0.3025 -0.3026
 2881WAT     H113329  -0.597   9.378   0.611 -0.6628 -1.3197  0.7033
 2881WAT     H213330  -0.581   9.443   0.747  1.0232  1.0112 -0.5558
 2881WAT    EPW13331  -0.616   9.442   0.667  0.1743 -0.2632 -0.2033
 2882WAT      O13332   4.575   4.003   1.320 -0.5291  0.7609  0.2623
 2882WAT     H113333   4.561   3.954   1.239  0.0415 -0.4208  0.8571
 2882WAT     H213334   4.536   4.089   1.303 -3.1277 -0.4130 -0.2387
 2882WAT    EPW13335   4.568   4.008   1.307 -0.7966  0.4504  0.2746
 2883WAT      O13336  -2.686   4.262   5.045  0.3692 -0.4536 -0.0438
 2883WAT     H113337  -2.713   4.173   5.021  0.3140 -0.5315  0.3074
 2883WAT     H213338  -2.636   4.250   5.125  0.4907 -0.1816 -0.0794
 2883WAT    EPW13339  -2.683   4.248   5.052  0.3780 -0.4280 -0.0019
 2884WAT      O13340   6.370   0.059   3.454  0.4183  0.2225 -0.6702
 2884WAT     H113341   6.353   0.134   3.511 -1.7171  0.6299 -1.7315
 2884WAT     H213342   6.420  -0.002   3.509  2.0120  2.2660  0.2889
 2884WAT    EPW13343   6.374   0.060   3.469  0.3469  0.5458 -0.6837
 2885WAT      O13344   2.192   0.447   2.320  0.6805  0.7748 -0.2695
 2885WAT     H113345   2.277   0.488   2.300  0.8899 -0.0633 -1.1548
 2885WAT     H213346   2.213   0.357   2.342 -0.0262  0.3956 -1.0855
 2885WAT    EPW13347   2.206   0.441   2.320  0.6149  0.6143 -0.4939
 2886WAT      O13348   2.056   5.302   0.208 -0.7509 -0.2844  0.1505
 2886WAT     H113349   1.963   5.284   0.189 -1.1605  1.4529  0.3497
 2886WAT     H213350   2.100   5.285   0.125 -1.6803  1.5368 -0.7786
 2886WAT    EPW13351   2.049   5.298   0.194 -0.9276  0.1848  0.0542
 2887WAT      O13352  -3.016   4.794   8.228  0.4899 -0.1695 -0.8344
 2887WAT     H113353  -3.091   4.750   8.269  0.3025 -2.2720 -3.1768
 2887WAT     H213354  -2.965   4.829   8.302 -2.0223  0.0899  0.8892
 2887WAT    EPW13355  -3.019   4.793   8.243  0.1338 -0.4125 -0.9160
 2888WAT      O13356   0.366   7.824   4.622 -0.0782 -1.2113  0.0391
 2888WAT     H113357   0.301   7.894   4.629  0.2254 -0.9012 -0.1991
 2888WAT     H213358   0.450   7.868   4.637  0.2487 -1.2487 -1.4704
 2888WAT    EPW13359   0.368   7.839   4.625  0.0050 -1.1754 -0.1915
 2889WAT      O13360  -6.092   9.773   7.486 -0.0295 -0.5935  0.7361
 2889WAT     H113361  -6.051   9.813   7.563  2.0070 -1.3320  0.1133
 2889WAT     H213362  -6.144   9.701   7.521  0.2190 -0.4118  1.4927
 2889WAT    EPW13363  -6.094   9.769   7.500  0.2718 -0.6671  0.7536
 2890WAT      O13364   1.261   1.632   5.460  0.2469  0.5515 -0.3277
 2890WAT     H113365   1.350   1.665   5.445  0.9625 -0.2343  1.7559
 2890WAT     H213366   1.239   1.662   5.548 -1.8967  1.3543 -1.0541
 2890WAT    EPW13367   1.270   1.640   5.470  0.0585  0.5537 -0.1488
 2891WAT      O13368  -0.382   2.331   5.110  0.3945  0.8028 -0.5221
 2891WAT     H113369  -0.375   2.414   5.157  1.2413 -0.0222  0.8446
 2891WAT     H213370  -0.472   2.330   5.078  0.1413  1.8936  0.0954
 2891WAT    EPW13371  -0.393   2.342   5.112  0.4728  0.8379 -0.2604
 2892WAT      O13372  -5.976   7.290   5.592 -0.4872  0.6766 -0.6554
 2892WAT     H113373  -5.975   7.306   5.497  2.4028 -0.7061 -0.9715
 2892WAT     H213374  -5.885   7.266   5.613 -1.6027 -1.8517  1.9518
 2892WAT    EPW13375  -5.964   7.289   5.582 -0.2532  0.1607 -0.3531
 2893WAT      O13376   4.230   4.682   8.111 -0.3339 -0.4057  0.4213
 2893WAT     H113377   4.321   4.708   8.128 -0.1519  0.1850 -1.2256
 2893WAT     H213378   4.209   4.621   8.181  1.3595 -0.5958  0.8165
 2893WAT    EPW13379   4.239   4.677   8.122 -0.0863 -0.3529  0.2556
 2894WAT      O13380   3.558   4.019   3.581 -0.1583  0.0753 -0.2229
 2894WAT     H113381   3.529   3.997   3.492 -0.1553 -2.3967  0.3135
 2894WAT     H213382   3.480   4.055   3.623  0.3394  3.3365 -1.7316
 2894WAT    EPW13383   3.544   4.021   3.575 -0.0923  0.1793 -0.3512
 2895WAT      O13384   7.364   1.985   3.309  0.5692 -0.7710  0.4906
 2895WAT     H113385   7.349   1.932   3.388  0.4046  0.1189  1.0662
 2895WAT     H213386   7.446   2.032   3.328  0.0445  0.1467  0.5237
 2895WAT    EPW13387   7.373   1.984   3.322  0.4783 -0.5326  0.5710
 2896WAT      O13388   2.703   0.113   8.445  0.8455 -0.0106 -0.1518
 2896WAT     H113389   2.772   0.122   8.379  0.0924  0.6671 -0.8535
 2896WAT     H213390   2.651   0.039   8.415 -0.0885  0.9184 -0.8782
 2896WAT    EPW13391   2.705   0.105   8.432  0.6230  0.2013 -0.3400
 2897WAT      O13392  -0.186   8.538   0.951 -0.0939  0.5539 -0.4087
 2897WAT     H113393  -0.249   8.596   0.909 -2.4012 -1.1950  0.4010
 2897WAT     H213394  -0.171   8.468   0.886 -0.2163  0.1513 -0.0104
 2897WAT    EPW13395  -0.192   8.536   0.937 -0.4144  0.2704 -0.2494
 2898WAT      O13396  -0.656   6.464   2.196 -0.0890 -0.6459 -0.5967
 2898WAT     H113397  -0.657   6.385   2.249 -0.9779 -1.1679 -1.3605
 2898WAT     H213398  -0.732   6.514   2.228 -1.4136 -1.5394 -2.1566
 2898WAT    EPW13399  -0.666   6.460   2.207 -0.3810 -0.8328 -0.9032
 2899WAT      O13400   1.085   4.795   3.085 -0.2644  0.1852  0.2705
 2899WAT     H113401   1.078   4.864   3.150 -0.4051 -0.2892  0.7637
 2899WAT     H213402   1.175   4.763   3.094 -0.2645  0.1611  0.1861
 2899WAT    EPW13403   1.096   4.800   3.095 -0.2830  0.1197  0.3244
 2900WAT      O13404   4.086   1.594   5.718 -1.0456  0.3042  0.1043
 2900WAT     H113405   4.134   1.638   5.648  0.9737  0.9198  1.7546
 2900WAT     H213406   4.017   1.654   5.742 -0.0694  1.3280  0.4246
 2900WAT    EPW13407   4.083   1.607   5.712 -0.6504  0.5203  0.3645
 2901WAT      O13408  -0.003  10.096   2.167  0.6721  0.3181  1.0722
 2901WAT     H113409  -0.027  10.040   2.093 -0.4058  0.6353  1.1733
 2901WAT     H213410   0.041  10.037   2.228  1.7598  0.0902  0.1098
 2901WAT    EPW13411  -0.000  10.081   2.165  0.6734  0.3295  0.9586
 2902WAT      O13412  -2.886   2.287   4.917 -0.6293  0.1443  0.2575
 2902WAT     H113413  -2.869   2.260   4.827 -3.3088 -3.2362  0.5389
 2902WAT     H213414  -2.973   2.326   4.914 -0.7253  0.0544  1.3530
 2902WAT    EPW13415  -2.895   2.288   4.905 -0.9954 -0.3134  0.4389
 2903WAT      O13416  -1.050   3.070   6.903  0.5247 -0.2398 -1.0180
 2903WAT     H113417  -0.980   3.052   6.966  0.0143  1.3052  0.0481
 2903WAT     H213418  -1.005   3.115   6.831  0.8947 -0.8146 -1.1561
 2903WAT    EPW13419  -1.035   3.074   6.902  0.5062 -0.1118 -0.8957
 2904WAT      O13420   5.894   3.593   4.207  0.1235 -0.9647 -0.3738
 2904WAT     H113421   5.960   3.662   4.198 -0.0830 -0.7492 -0.2648
 2904WAT     H213422   5.843   3.619   4.284 -2.1084  0.6180 -2.2064
 2904WAT    EPW13423   5.896   3.606   4.216 -0.1981 -0.7275 -0.6013
 2905WAT      O13424   4.597   2.017   4.885 -0.3179  0.5384 -0.1814
 2905WAT     H113425   4.687   1.987   4.889 -0.0482  1.3744  0.4142
 2905WAT     H213426   4.544   1.938   4.895  0.3423  0.0140 -0.8037
 2905WAT    EPW13427   4.602   2.003   4.887 -0.1953  0.5795 -0.1848
 2906WAT      O13428   5.315   7.410   2.731 -0.1035  0.7678  0.0393
 2906WAT     H113429   5.388   7.455   2.690  0.3840 -0.9355 -1.0299
 2906WAT     H213430   5.320   7.436   2.824  2.6731 -0.3440  0.2713
 2906WAT    EPW13431   5.325   7.420   2.738  0.3269  0.3965 -0.0712
 2907WAT      O13432   0.653   4.306   4.183  0.0249  0.4969  1.0206
 2907WAT     H113433   0.635   4.242   4.114  1.7266  0.4286  0.5854
 2907WAT     H213434   0.605   4.274   4.259  1.1902 -1.6164  0.9588
 2907WAT    EPW13435   0.644   4.293   4.184  0.4030  0.2091  0.9551
 2908WAT      O13436  -1.148   1.444   4.273  0.4514 -0.2336  0.4778
 2908WAT     H113437  -1.227   1.392   4.283  1.8621 -2.8071 -0.7844
 2908WAT     H213438  -1.081   1.396   4.321  1.6535  0.8920  0.0059
 2908WAT    EPW13439  -1.149   1.431   4.281  0.7960 -0.4246  0.2491
 2909WAT      O13440  -1.889   7.145   7.464 -0.0171 -0.8873 -0.3846
 2909WAT     H113441  -1.902   7.050   7.463  1.0429 -1.1028 -2.8326
 2909WAT     H213442  -1.795   7.156   7.481 -0.1432 -0.2744 -0.0518
 2909WAT    EPW13443  -1.878   7.134   7.466  0.1060 -0.8349 -0.6635
 2910WAT      O13444   0.314   9.625   4.520 -0.2117  0.0209 -0.2351
 2910WAT     H113445   0.385   9.581   4.566 -0.0693  1.0286  0.5556
 2910WAT     H213446   0.286   9.695   4.580  0.5967  1.9819 -2.0055
 2910WAT    EPW13447   0.320   9.629   4.534 -0.0863  0.4125 -0.3645
 2911WAT      O13448   3.712   8.760   4.208  0.5004  0.1452  0.4812
 2911WAT     H113449   3.627   8.794   4.181  1.1329  0.0269 -1.8676
 2911WAT     H213450   3.771   8.834   4.199  0.6701  0.2552  2.2157
 2911WAT    EPW13451   3.708   8.774   4.203  0.6062  0.1445  0.4003
 2912WAT      O13452  -3.155   7.656   1.490 -0.1374 -0.0530  0.4893
 2912WAT     H113453  -3.165   7.751   1.478 -0.3047 -0.2720 -1.3013
 2912WAT     H213454  -3.077   7.647   1.545  0.3736  1.1025 -0.0074
 2912WAT    EPW13455  -3.146   7.668   1.496 -0.0920  0.0706  0.1877
 2913WAT      O13456  -0.481   0.014   5.902 -0.0703  0.3151 -0.8369
 2913WAT     H113457  -0.443   0.072   5.836 -1.4143  0.4702 -1.5101
 2913WAT     H213458  -0.490   0.070   5.980  0.2310  0.5221 -0.9501
 2913WAT    EPW13459  -0.477   0.029   5.904 -0.2078  0.3628 -0.9406
 2914WAT      O13460  -3.203   5.355   6.398 -0.3154 -0.2790 -0.2828
 2914WAT     H113461  -3.290   5.394   6.407  1.7676  4.8450  1.3061
 2914WAT     H213462  -3.174   5.382   6.311  0.4970  0.0678  0.0880
 2914WAT    EPW13463  -3.211   5.363   6.388  0.0664  0.4427 -0.0243
 2915WAT      O13464  -0.715   2.262   5.799  0.9186 -0.7000 -0.0797
 2915WAT     H113465  -0.658   2.193   5.766  2.2757 -0.6183  1.9008
 2915WAT     H213466  -0.655   2.329   5.832 -0.3664  0.8388 -0.7289
 2915WAT    EPW13467  -0.699   2.262   5.799  0.9281 -0.4861  0.0961
 2916WAT      O13468   4.028   3.613   7.055 -0.2865 -0.9563  0.8229
 2916WAT     H113469   4.057   3.702   7.036 -0.4724 -0.9854  0.3825
 2916WAT     H213470   4.101   3.574   7.103  0.5885 -1.1431 -0.5836
 2916WAT    EPW13471   4.041   3.619   7.059 -0.1957 -0.9848  0.5796
 2917WAT      O13472   5.748   3.393   3.118  0.2126 -0.7651 -0.3830
 2917WAT     H113473   5.697   3.335   3.061 -0.1565 -0.6611 -0.1663
 2917WAT     H213474   5.690   3.408   3.193 -0.2090  0.8795 -1.0019
 2917WAT    EPW13475   5.733   3.387   3.121  0.1082 -0.5344 -0.4361
 2918WAT      O13476   0.083   5.143   1.097 -0.7443 -0.5524 -0.1181
 2918WAT     H113477   0.037   5.088   1.160  0.0866 -0.1320  0.8902
 2918WAT     H213478   0.088   5.090   1.018 -1.8114 -1.0920  0.1574
 2918WAT    EPW13479   0.078   5.129   1.095 -0.7754 -0.5679  0.0513
 2919WAT      O13480  -1.188   1.375   2.175  0.3836 -0.6835  0.6175
 2919WAT     H113481  -1.128   1.339   2.240  0.7813  0.4665  0.9127
 2919WAT     H213482  -1.191   1.308   2.106  1.8151 -0.8785  0.7092
 2919WAT    EPW13483  -1.181   1.361   2.174  0.6249 -0.5575  0.6685
 2920WAT      O13484   3.711   6.702   6.671  1.2275  0.2253  0.0787
 2920WAT     H113485   3.761   6.669   6.745  1.3811  0.9423  0.3019
 2920WAT     H213486   3.724   6.797   6.673  0.4283  0.3558 -0.2745
 2920WAT    EPW13487   3.719   6.710   6.681  1.1423  0.3369  0.0615
 2921WAT      O13488   5.212   5.993   1.181 -0.0520  0.0442 -0.2688
 2921WAT     H113489   5.298   5.955   1.202 -0.3434  0.4101  1.9050
 2921WAT     H213490   5.150   5.921   1.196 -0.3600  0.5797  1.1985
 2921WAT    EPW13491   5.215   5.978   1.186 -0.1311  0.1628  0.2115
 2922WAT      O13492  -1.498   4.838   1.397  0.1779 -0.0837 -0.3415
 2922WAT     H113493  -1.556   4.900   1.441  0.0231  0.3029 -1.0589
 2922WAT     H213494  -1.414   4.884   1.391  0.1782 -0.1053 -0.5083
 2922WAT    EPW13495  -1.494   4.853   1.402  0.1575 -0.0355 -0.4581
 2923WAT      O13496  -5.182   7.771   7.094 -0.5671 -0.1104 -0.7447
 2923WAT     H113497  -5.112   7.708   7.079 -0.3645  0.1676 -0.9679
 2923WAT     H213498  -5.255   7.740   7.040  0.2481  1.0418 -2.5944
 2923WAT    EPW13499  -5.182   7.759   7.085 -0.4330  0.0782 -1.0180
 2924WAT      O13500  -5.292   9.777   5.455  0.1028 -0.5626 -0.4480
 2924WAT     H113501  -5.377   9.738   5.477 -0.0821 -0.0594 -0.2519
 2924WAT     H213502  -5.279   9.755   5.363 -0.8206  0.3713 -0.8332
 2924WAT    EPW13503  -5.302   9.769   5.446 -0.0434 -0.3729 -0.4730
 2925WAT      O13504  -0.492   9.551   4.144 -0.5320 -0.7971 -0.2997
 2925WAT     H113505  -0.406   9.557   4.186  0.1358 -1.8338 -1.4419
 2925WAT     H213506  -0.520   9.642   4.134  1.0912 -0.3554 -1.2019
 2925WAT    EPW13507  -0.484   9.564   4.148 -0.2299 -0.8755 -0.5691
 2926WAT      O13508   3.278   1.687   1.894  0.0715 -0.4547 -0.2247
 2926WAT     H113509   3.222   1.721   1.824 -0.9892  1.1965  1.3328
 2926WAT     H213510   3.295   1.763   1.951  2.5642 -1.2787  0.2631
 2926WAT    EPW13511   3.273   1.702   1.893  0.2602 -0.3456  0.0451
 2927WAT      O13512  -1.598   8.677   0.783 -1.2610  0.1232 -0.0932
 2927WAT     H113513  -1.588   8.589   0.820 -1.5303  0.3715  0.6005
 2927WAT     H213514  -1.570   8.735   0.853 -0.3080  0.5810 -0.8341
 2927WAT    EPW13515  -1.593   8.673   0.797 -1.1709  0.2165 -0.0994
 2928WAT      O13516   6.642   7.812   1.700 -0.0203  1.0956 -0.0746
 2928WAT     H113517   6.703   7.777   1.636 -0.3345  0.1702  0.1225
 2928WAT     H213518   6.659   7.906   1.700 -0.6361  1.2611 -2.1886
 2928WAT    EPW13519   6.652   7.820   1.691 -0.1431  0.9954 -0.3273
 2929WAT      O13520  -0.541   5.016   8.900 -0.3841 -0.2684 -0.1417
 2929WAT     H113521  -0.451   5.047   8.894 -0.7312  0.7579 -0.2509
 2929WAT     H213522  -0.533   4.922   8.916  0.7009 -0.5217 -1.8698
 2929WAT    EPW13523  -0.528   5.007   8.901 -0.2868 -0.1664 -0.3843
 2930WAT      O13524   1.544   3.163   0.794 -0.2969  0.0514 -0.4772
 2930WAT     H113525   1.516   3.244   0.752 -1.4578  0.4926  1.0850
 2930WAT     H213526   1.464   3.125   0.829  0.3021 -1.5552 -0.7714
 2930WAT    EPW13527   1.530   3.169   0.793 -0.3710 -0.1024 -0.3100
 2931WAT      O13528   1.500   0.611   4.639 -0.3926 -0.4402 -0.7946
 2931WAT     H113529   1.580   0.641   4.682  1.0990 -1.7755 -2.4826
 2931WAT     H213530   1.453   0.563   4.707  0.5585 -0.1728  0.0765
 2931WAT    EPW13531   1.505   0.608   4.654 -0.0705 -0.5811 -0.9022
 2932WAT      O13532  -3.308   5.059   4.178 -0.3819 -0.5061  0.2013
 2932WAT     H113533  -3.307   5.066   4.274 -3.9125 -1.5119  0.4492
 2932WAT     H213534  -3.399   5.080   4.154 -0.2654 -2.7977 -2.6722
 2932WAT    EPW13535  -3.320   5.063   4.188 -0.8322 -0.9410 -0.1450
 2933WAT      O13536   7.743   1.246   3.225 -0.1020 -0.0454  1.0647
 2933WAT     H113537   7.741   1.341   3.238 -0.1647  0.3052 -1.1259
 2933WAT     H213538   7.651   1.220   3.224 -0.0782 -0.2237  2.0342
 2933WAT    EPW13539   7.731   1.255   3.227 -0.1070 -0.0226  0.9036
 2934WAT      O13540  -0.009   4.741   8.167 -0.2932 -1.4130 -0.0754
 2934WAT     H113541  -0.057   4.771   8.090 -0.5668  2.1150  1.2558
 2934WAT     H213542   0.064   4.689   8.132 -1.2619 -1.2164 -2.5614
 2934WAT    EPW13543  -0.006   4.738   8.153 -0.4570 -0.9220 -0.2275
 2935WAT      O13544  -4.498   6.878   8.518 -0.0741  0.3634 -0.1201
 2935WAT     H113545  -4.442   6.954   8.529 -1.7664  1.3115  3.5447
 2935WAT     H213546  -4.445   6.805   8.550  0.2288  0.6878  0.1280
 2935WAT    EPW13547  -4.484   6.878   8.524 -0.2575  0.5312  0.3963
 2936WAT      O13548  -3.495   9.396   7.811  0.1320 -0.4059 -0.4524
 2936WAT     H113549  -3.518   9.402   7.904  1.1138 -0.8654 -0.1686
 2936WAT     H213550  -3.538   9.316   7.781  1.2120 -1.1999  0.0468
 2936WAT    EPW13551  -3.503   9.386   7.820  0.4039 -0.5713 -0.3490
 2937WAT      O13552  -1.908   1.970   6.286  0.8007  0.4801  0.1940
 2937WAT     H113553  -1.993   1.926   6.278  0.9050  0.2358  0.4113
 2937WAT     H213554  -1.874   1.971   6.196 -0.1715  2.1035 -0.1992
 2937WAT    EPW13555  -1.915   1.964   6.273  0.6862  0.6620  0.1707
 2938WAT      O13556   7.722   1.810   0.399  0.0243 -0.4149  0.7552
 2938WAT     H113557   7.745   1.797   0.491 -1.0235 -0.0240  1.0949
 2938WAT     H213558   7.645   1.755   0.385  1.0214 -1.6028 -0.3083
 2938WAT    EPW13559   7.715   1.801   0.409  0.0176 -0.5200  0.6598
 2939WAT      O13560  -1.006   8.326   7.913  0.5726 -0.1773  0.0073
 2939WAT     H113561  -1.077   8.379   7.948 -1.8772 -1.7045 -2.2170
 2939WAT     H213562  -0.963   8.383   7.849 -1.5462 -0.4362 -1.7993
 2939WAT    EPW13563  -1.010   8.340   7.909 -0.0300 -0.4125 -0.5245
 2940WAT      O13564   5.524  10.295   0.548 -0.3322 -0.0651  0.0583
 2940WAT     H113565   5.516  10.390   0.545  0.7689  0.1314  1.6968
 2940WAT     H213566   5.618  10.280   0.562 -0.8846 -1.2063  3.3402
 2940WAT    EPW13567   5.536  10.305   0.549 -0.2596 -0.1893  0.7073
 2941WAT      O13568  -4.389   8.357   3.020  0.6387 -0.2669 -0.5648
 2941WAT     H113569  -4.374   8.404   3.102  1.8928  0.9639 -1.4699
 2941WAT     H213570  -4.477   8.320   3.030  0.3519  0.7251  0.9014
 2941WAT    EPW13571  -4.399   8.358   3.032  0.7663  0.0267 -0.4908
 2942WAT      O13572  -0.451   5.080   0.907 -0.4396  0.3966  0.4050
 2942WAT     H113573  -0.547   5.083   0.903 -0.7094 -2.0963  2.1199
 2942WAT     H213574  -0.433   5.026   0.985  2.2160 -2.5359 -1.9747
 2942WAT    EPW13575  -0.462   5.073   0.917 -0.1249 -0.3190  0.3173
 2943WAT      O13576  -3.293   3.166   5.234 -0.8649 -0.4952  0.0818
 2943WAT     H113577  -3.225   3.220   5.194 -1.0574  2.0479  2.8179
 2943WAT     H213578  -3.342   3.130   5.160  1.9327 -0.4694 -1.9370
 2943WAT    EPW13579  -3.290   3.168   5.219 -0.5213 -0.1564  0.1764
 2944WAT      O13580   3.536   1.843   0.580  0.2537 -0.1809  0.6137
 2944WAT     H113581   3.455   1.893   0.589  0.0179 -0.2982 -0.6770
 2944WAT     H213582   3.512   1.768   0.526  1.4700  0.4030 -0.7947
 2944WAT    EPW13583   3.522   1.840   0.574  0.3830 -0.1193  0.2577
 2945WAT      O13584   2.252   7.946   0.910 -0.1593  0.0955  0.3777
 2945WAT     H113585   2.301   7.933   0.828  0.7475  3.1462  0.3400
 2945WAT     H213586   2.313   7.922   0.979 -0.0866 -0.1290  0.2364
 2945WAT    EPW13587   2.266   7.941   0.908 -0.0302  0.4683  0.3541
 2946WAT      O13588  -0.298   8.655   3.511  0.2749  0.3760  0.0486
 2946WAT     H113589  -0.206   8.662   3.538 -0.7682  1.7796  3.7860
 2946WAT     H213590  -0.303   8.707   3.430  2.4021  1.9288  0.8221
 2946WAT    EPW13591  -0.286   8.663   3.504  0.4179  0.7663  0.6436
 2947WAT      O13592  -6.050   9.595   5.206  0.8313 -0.1767  0.2824
 2947WAT     H113593  -6.040   9.616   5.298  0.1679  0.9447  0.1069
 2947WAT     H213594  -6.077   9.503   5.205 -0.2434  0.1100  1.2586
 2947WAT    EPW13595  -6.052   9.585   5.218  0.6020  0.0095  0.3881
 2948WAT      O13596   1.989   0.775   8.044  0.2111  0.1105 -0.6908
 2948WAT     H113597   1.930   0.817   8.108 -0.1763 -3.1770  1.3911
 2948WAT     H213598   2.074   0.774   8.088  0.5840  0.1606 -1.4098
 2948WAT    EPW13599   1.992   0.781   8.059  0.2093 -0.3164 -0.5112
 2949WAT      O13600  -3.247   4.390   4.203 -0.0128 -0.2362  0.1243
 2949WAT     H113601  -3.228   4.396   4.109  1.1645 -1.6742  0.2272
 2949WAT     H213602  -3.201   4.464   4.242  1.9199 -1.2145 -0.1554
 2949WAT    EPW13603  -3.238   4.400   4.196  0.3973 -0.5550  0.1009
 2950WAT      O13604  -0.041   5.569   5.849  0.0342 -0.1094  0.6563
 2950WAT     H113605  -0.129   5.602   5.834  0.0001  0.5589  2.1362
 2950WAT     H213606  -0.018   5.524   5.768 -1.4986  0.0612  0.0938
 2950WAT    EPW13607  -0.049   5.567   5.836 -0.1725  0.0012  0.7772
 2951WAT      O13608  -2.183   1.208   8.713  0.6139  0.5349  0.5888
 2951WAT     H113609  -2.260   1.266   8.715  0.6437  0.6101 -0.1483
 2951WAT     H213610  -2.160   1.197   8.805 -1.7698 -1.4983  1.0573
 2951WAT    EPW13611  -2.190   1.214   8.726  0.3035  0.2766  0.5531
 2952WAT      O13612   3.052   7.124   3.011 -0.1915 -0.6416 -0.2398
 2952WAT     H113613   3.012   7.053   3.060  0.9915 -1.1922 -0.0233
 2952WAT     H213614   3.109   7.081   2.948  0.4813  0.1020 -0.1640
 2952WAT    EPW13615   3.054   7.109   3.009  0.0533 -0.6161 -0.2012
 2953WAT      O13616   1.796   2.131   1.608  0.8641 -0.5736 -0.3420
 2953WAT     H113617   1.875   2.095   1.568  2.7719  0.0057  2.6014
 2953WAT     H213618   1.743   2.054   1.630  0.9087 -1.0103 -1.6909
 2953WAT    EPW13619   1.799   2.116   1.606  1.1216 -0.5548 -0.1317
 2954WAT      O13620   6.414   5.110   3.546  0.0690 -0.5415  0.0685
 2954WAT     H113621   6.380   5.175   3.609  0.5508 -1.5632  1.4385
 2954WAT     H213622   6.338   5.085   3.494 -0.9215 -1.3526  1.7852
 2954WAT    EPW13623   6.400   5.116   3.548  0.0019 -0.7834  0.4756
 2955WAT      O13624   0.409   3.685   3.136 -0.3362  0.0152  0.0301
 2955WAT     H113625   0.420   3.643   3.051  1.7529  0.4415  0.0401
 2955WAT     H213626   0.382   3.614   3.194 -1.1574 -0.4001 -0.8374
 2955WAT    EPW13627   0.407   3.670   3.132 -0.1690  0.0166 -0.0830
 2956WAT      O13628   3.825   0.070   6.055 -0.2007  0.1883 -0.6913
 2956WAT     H113629   3.755   0.016   6.018  0.4244 -0.7821 -0.5002
 2956WAT     H213630   3.789   0.102   6.138 -0.0459 -1.2377 -0.0275
 2956WAT    EPW13631   3.811   0.067   6.061 -0.0978 -0.1278 -0.5784
 2957WAT      O13632   9.162   1.432   1.438 -0.2174 -0.5334  0.0840
 2957WAT     H113633   9.155   1.361   1.502 -0.7978 -1.8976 -1.4141
 2957WAT     H213634   9.106   1.404   1.365  1.6631  0.1398 -1.7350
 2957WAT    EPW13635   9.154   1.419   1.437 -0.0463 -0.6246 -0.3535
 2958WAT      O13636   2.572   0.434   3.894  0.3750  0.1062  0.1895
 2958WAT     H113637   2.482   0.413   3.868 -0.4664  1.5867  1.6817
 2958WAT     H213638   2.626   0.369   3.849 -1.4907 -1.2021 -0.2817
 2958WAT    EPW13639   2.567   0.422   3.885  0.0179  0.1289  0.3241
 2959WAT      O13640  -0.609   5.300   6.821  0.0262 -0.5417  0.3781
 2959WAT     H113641  -0.630   5.381   6.774 -1.1128 -1.5261 -0.8827
 2959WAT     H213642  -0.653   5.310   6.906 -2.0351 -0.7472 -0.6083
 2959WAT    EPW13643  -0.617   5.312   6.826 -0.3960 -0.6986  0.0815
 2960WAT      O13644   2.697   2.845   5.062  0.9452  0.2865  0.1685
 2960WAT     H113645   2.643   2.796   5.124  0.5264  1.0388  0.4080
 2960WAT     H213646   2.707   2.931   5.102  0.5590  0.8242 -0.8645
 2960WAT    EPW13647   2.691   2.850   5.075  0.8391  0.4567  0.0639
 2961WAT      O13648   0.849   3.950   8.924  0.1577 -0.3582  0.6765
 2961WAT     H113649   0.851   3.881   8.990  2.1161 -3.0968 -1.9427
 2961WAT     H213650   0.758   3.955   8.897 -0.1938 -1.1937  1.6321
 2961WAT    EPW13651   0.838   3.942   8.929  0.3697 -0.8296  0.4568
 2962WAT      O13652   2.168   0.287   6.289  0.8025  0.5992  0.4917
 2962WAT     H113653   2.162   0.329   6.375 -0.3601  1.3006  0.0992
 2962WAT     H213654   2.145   0.196   6.306 -2.2862  1.2783  0.5689
 2962WAT    EPW13655   2.164   0.280   6.303  0.2418  0.7813  0.4504
 2963WAT      O13656  -6.678  10.199   8.666 -0.5282 -0.0762 -0.0455
 2963WAT     H113657  -6.654  10.262   8.734 -0.8359  0.9955 -0.8971
 2963WAT     H213658  -6.680  10.114   8.711  0.2755  0.4595  1.0442
 2963WAT    EPW13659  -6.675  10.196   8.681 -0.4628  0.1359 -0.0138
 2964WAT      O13660  -3.287   8.629   4.533 -0.0515  0.0671  0.1068
 2964WAT     H113661  -3.247   8.679   4.604  0.9881  0.8086 -0.9495
 2964WAT     H213662  -3.230   8.553   4.521  1.9007  1.7058 -2.1625
 2964WAT    EPW13663  -3.274   8.626   4.541  0.3431  0.3815 -0.3319
 2965WAT      O13664  -1.005   5.409   7.518 -0.2644  0.1007 -0.6804
 2965WAT     H113665  -1.004   5.322   7.478 -0.0268 -0.0431 -0.3741
 2965WAT     H213666  -1.012   5.392   7.612  1.8158  0.3224 -0.4281
 2965WAT    EPW13667  -1.006   5.395   7.525  0.0413  0.1109 -0.6065
 2966WAT      O13668  -0.189   5.334   1.535  0.5813  0.5258  0.0240
 2966WAT     H113669  -0.216   5.420   1.566 -0.6613  0.9297 -1.9528
 2966WAT     H213670  -0.142   5.352   1.453 -1.6144 -0.6998 -1.6272
 2966WAT    EPW13671  -0.186   5.347   1.528  0.1278  0.4177 -0.4545
 2967WAT      O13672  -1.304   0.317   5.294 -0.2535  0.2857 -0.7918
 2967WAT     H113673  -1.322   0.349   5.382 -0.4857  1.6852 -1.3205
 2967WAT     H213674  -1.363   0.242   5.283 -0.1456  0.0343  0.2635
 2967WAT    EPW13675  -1.314   0.311   5.304 -0.2699  0.4372 -0.7224
 2968WAT      O13676  -2.015   0.874   6.651 -0.5550 -0.5233 -0.0716
 2968WAT     H113677  -2.089   0.933   6.668  1.0000  1.6867 -0.6462
 2968WAT     H213678  -1.977   0.859   6.738 -0.8472 -0.5431  0.0564
 2968WAT    EPW13679  -2.020   0.880   6.665 -0.3884 -0.2345 -0.1304
 2969WAT      O13680   3.508   3.580   0.711  1.3388 -0.0080 -0.7879
 2969WAT     H113681   3.506   3.503   0.654  2.4664  0.9621 -2.2082
 2969WAT     H213682   3.581   3.563   0.771  1.9575  0.1795 -1.4711
 2969WAT    EPW13683   3.518   3.567   0.712  1.5690  0.1447 -1.0653
 2970WAT      O13684  -2.229   5.015   7.849  0.5121 -0.3481  0.4474
 2970WAT     H113685  -2.192   4.976   7.769  3.1600 -1.0175  1.8867
 2970WAT     H213686  -2.195   5.104   7.850 -1.0162  0.2750 -0.0319
 2970WAT    EPW13687  -2.220   5.021   7.839  0.6598 -0.3541  0.5739
 2971WAT      O13688   0.271   4.079   3.983  0.0228 -0.0286  0.3858
 2971WAT     H113689   0.346   4.136   3.967 -1.6395  2.0539 -0.4498
 2971WAT     H213690   0.253   4.088   4.077  0.4601 -0.1125  0.4803
 2971WAT    EPW13691   0.278   4.087   3.993 -0.1387  0.2348  0.2881
 2972WAT      O13692   2.124   8.363   5.743 -0.0787  0.0847  0.2536
 2972WAT     H113693   2.130   8.268   5.750  2.2279  0.0574 -0.9057
 2972WAT     H213694   2.165   8.384   5.659 -1.5781  2.0459 -0.0681
 2972WAT    EPW13695   2.130   8.353   5.733  0.0278  0.3395  0.0579
 2973WAT      O13696   2.443   6.202   1.545  0.1573 -0.3644  0.6440
 2973WAT     H113697   2.489   6.228   1.465 -0.4710 -1.2011 -0.0083
 2973WAT     H213698   2.414   6.284   1.584  0.6667  0.0634  0.1322
 2973WAT    EPW13699   2.445   6.216   1.540  0.1417 -0.4184  0.4904
 2974WAT      O13700   1.963   4.763   3.060  0.2114  0.2029  0.0532
 2974WAT     H113701   2.021   4.809   3.121 -0.1778  0.4797  0.2198
 2974WAT     H213702   1.967   4.815   2.980 -0.1854  0.5081  0.2239
 2974WAT    EPW13703   1.971   4.776   3.058  0.1078  0.2797  0.0976
 2975WAT      O13704  -0.694   9.266   0.979 -0.0439  0.4695  0.2909
 2975WAT     H113705  -0.691   9.209   0.902  1.7049 -0.2297  0.8059
 2975WAT     H213706  -0.621   9.235   1.033 -0.6783  1.5261  1.8104
 2975WAT    EPW13707  -0.684   9.254   0.976  0.1031  0.5169  0.5592
 2976WAT      O13708  -0.760   5.661   0.376  0.1825 -0.6837 -0.7578
 2976WAT     H113709  -0.840   5.713   0.384 -0.3175 -1.3946 -1.0588
 2976WAT     H213710  -0.694   5.712   0.424 -0.7362 -0.7009  0.6008
 2976WAT    EPW13711  -0.762   5.675   0.384 -0.0046 -0.7796 -0.6183
 2977WAT      O13712  -2.675   1.333   8.088  0.8721  0.4298  0.2263
 2977WAT     H113713  -2.715   1.299   8.168  0.7815 -0.4567 -0.1762
 2977WAT     H213714  -2.749   1.348   8.029  1.0938 -1.4121 -0.5948
 2977WAT    EPW13715  -2.691   1.330   8.091  0.8893  0.0699  0.0648
 2978WAT      O13716   3.145   8.668   6.199  0.4690 -0.3208  0.2079
 2978WAT     H113717   3.145   8.609   6.274  1.2799 -0.0404  0.4456
 2978WAT     H213718   3.053   8.689   6.184  0.3660  0.7316  2.0172
 2978WAT    EPW13719   3.133   8.663   6.207  0.5624 -0.1445  0.4780
 2979WAT      O13720  -5.713   6.333   7.188 -0.1103  0.5551 -0.2797
 2979WAT     H113721  -5.740   6.418   7.221 -0.3556  0.4503 -0.2078
 2979WAT     H213722  -5.629   6.316   7.230 -1.1813 -0.3367  1.6290
 2979WAT    EPW13723  -5.706   6.342   7.198 -0.2837  0.4239 -0.0188
 2980WAT      O13724  -2.496   9.716   1.458  0.1707 -0.6461 -0.1628
 2980WAT     H113725  -2.419   9.761   1.423  0.7176 -0.8390  0.7522
 2980WAT     H213726  -2.482   9.715   1.553 -0.0899 -2.2850 -0.1197
 2980WAT    EPW13727  -2.484   9.722   1.466  0.2085 -0.8879 -0.0364
 2981WAT      O13728   8.116   5.421   1.476 -0.2296 -0.1727  0.2279
 2981WAT     H113729   8.100   5.358   1.547 -1.8353 -0.1893 -0.1205
 2981WAT     H213730   8.118   5.506   1.519  0.7251 -0.3289  0.5297
 2981WAT    EPW13731   8.114   5.424   1.491 -0.3157 -0.1957  0.2218
 2982WAT      O13732   3.353   1.863   5.905  0.7774  0.2745  0.7681
 2982WAT     H113733   3.314   1.799   5.964  2.0683 -1.2130  0.0622
 2982WAT     H213734   3.425   1.816   5.862  1.2415  1.9517 -0.3831
 2982WAT    EPW13735   3.357   1.848   5.907  1.0087  0.2995  0.5231
 2983WAT      O13736   2.050   4.930   0.801  0.3807 -0.7121  0.3394
 2983WAT     H113737   2.069   4.899   0.713 -3.9138 -1.7457 -0.4290
 2983WAT     H213738   2.066   4.854   0.857  1.6484 -0.5108  0.2726
 2983WAT    EPW13739   2.055   4.916   0.797 -0.0185 -0.8221  0.2293
 2984WAT      O13740  -5.411   7.873   8.320  0.5465  0.1221  0.3980
 2984WAT     H113741  -5.470   7.798   8.321 -0.6916  1.0474  0.1601
 2984WAT     H213742  -5.338   7.845   8.265 -0.3511 -0.5974 -0.4869
 2984WAT    EPW13743  -5.409   7.860   8.313  0.2649  0.1493  0.2499
 2985WAT      O13744   3.376   0.533   3.462 -1.0157  0.2486 -0.0120
 2985WAT     H113745   3.369   0.437   3.466  0.6552  0.1099  0.3219
 2985WAT     H213746   3.358   0.562   3.551 -2.4868  0.3393 -0.3244
 2985WAT    EPW13747   3.373   0.524   3.474 -0.9893  0.2423 -0.0092
 2986WAT      O13748   3.269   7.599   7.200  0.0378  0.4372 -0.2608
 2986WAT     H113749   3.241   7.602   7.108 -0.1618 -1.7235 -0.3235
 2986WAT     H213750   3.199   7.645   7.247 -1.1244 -0.5382 -0.9614
 2986WAT    EPW13751   3.256   7.605   7.194 -0.1417  0.0236 -0.3614
 2987WAT      O13752   5.555   9.719   0.396 -0.5343 -0.1215 -0.0311
 2987WAT     H113753   5.591   9.808   0.389 -0.2969 -0.2431 -0.3799
 2987WAT     H213754   5.557   9.699   0.489 -3.8762  1.6030  0.5880
 2987WAT    EPW13755   5.560   9.728   0.407 -0.9437  0.0901  0.0045
 2988WAT      O13756   4.458   9.914   1.939  0.4611  0.6314 -0.4387
 2988WAT     H113757   4.408   9.862   1.875 -0.0766 -0.5517  0.8887
 2988WAT     H213758   4.400   9.921   2.015  1.5720  0.9101  0.4124
 2988WAT    EPW13759   4.444   9.908   1.940  0.5367  0.5121 -0.1513
 2989WAT      O13760   0.842   0.036   2.310  0.4463 -0.1247  0.1954
 2989WAT     H113761   0.829  -0.042   2.256 -1.0821  0.5541 -0.4751
 2989WAT     H213762   0.893   0.095   2.255  0.3671 -0.0997  0.1484
 2989WAT    EPW13763   0.847   0.033   2.296  0.2343 -0.0319  0.1007
 2990WAT      O13764  -0.648   8.537   5.636 -0.5058  0.5460  0.3164
 2990WAT     H113765  -0.622   8.497   5.553  2.2762  2.1250  0.3016
 2990WAT     H213766  -0.739   8.564   5.621 -0.1916  0.5254 -2.1273
 2990WAT    EPW13767  -0.657   8.535   5.623 -0.0975  0.7515 -0.0079
 2991WAT      O13768  -3.620   8.075   8.080  0.4677 -0.1618  0.2828
 2991WAT     H113769  -3.689   8.089   8.145 -0.7890 -0.1383 -1.0012
 2991WAT     H213770  -3.587   7.987   8.099  1.6259  0.6460  2.2659
 2991WAT    EPW13771  -3.625   8.065   8.091  0.4547 -0.0525  0.3753
 2992WAT      O13772   2.577   9.515   7.086 -0.1728  0.2390 -0.3638
 2992WAT     H113773   2.504   9.455   7.070 -0.3605  0.7421 -1.5306
 2992WAT     H213774   2.628   9.513   7.005  0.6343  0.5467  0.1202
 2992WAT    EPW13775   2.574   9.507   7.073 -0.0912  0.3457 -0.4537
 2993WAT      O13776  -6.612   6.646   7.467 -0.8434  0.5797  0.0191
 2993WAT     H113777  -6.594   6.627   7.375 -1.8439  2.7040 -0.6806
 2993WAT     H213778  -6.541   6.704   7.494  0.0434 -0.8653  0.9592
 2993WAT    EPW13779  -6.600   6.651   7.459 -0.8585  0.6692  0.0508
 2994WAT      O13780  -4.471   7.717   3.922 -0.2159 -0.3140 -0.2520
 2994WAT     H113781  -4.530   7.774   3.971  0.6695 -0.1903  0.6880
 2994WAT     H213782  -4.386   7.725   3.966 -0.2004 -2.8751  0.3942
 2994WAT    EPW13783  -4.468   7.725   3.934 -0.0970 -0.6356 -0.0427
 2995WAT      O13784   6.223   5.850   1.342  0.8531  0.1419 -0.2903
 2995WAT     H113785   6.233   5.826   1.434  0.8519  0.3501 -0.2353
 2995WAT     H213786   6.134   5.822   1.320  1.0408 -0.3915 -0.3779
 2995WAT    EPW13787   6.212   5.843   1.351  0.8776  0.0989 -0.2946
 2996WAT      O13788   0.452   8.362   1.877 -0.5825  0.4858  0.8604
 2996WAT     H113789   0.446   8.454   1.850 -0.4992  0.1291 -0.4422
 2996WAT     H213790   0.442   8.313   1.795 -2.1686 -0.7104  1.7128
 2996WAT    EPW13791   0.450   8.368   1.863 -0.7807  0.2809  0.8011
 2997WAT      O13792   0.440   3.906   5.133 -0.1812 -0.1778  0.3957
 2997WAT     H113793   0.387   3.965   5.186 -1.9891  0.3166 -1.7885
 2997WAT     H213794   0.383   3.831   5.116 -0.2098  0.2943 -1.9066
 2997WAT    EPW13795   0.425   3.904   5.138 -0.4234 -0.0504 -0.1962
 2998WAT      O13796  -0.985   4.293   4.066 -0.4330  0.9247  0.3716
 2998WAT     H113797  -0.985   4.379   4.109  0.8138  1.2541 -0.2146
 2998WAT     H213798  -0.896   4.260   4.080 -0.6233  0.1448 -0.2077
 2998WAT    EPW13799  -0.973   4.300   4.073 -0.2936  0.8655  0.2179
 2999WAT      O13800  -4.517   3.299   8.280  0.0766 -0.0690 -0.0142
 2999WAT     H113801  -4.604   3.283   8.243  0.1073 -1.2465  0.3890
 2999WAT     H213802  -4.533   3.336   8.366 -0.0941 -1.8590  0.7772
 2999WAT    EPW13803  -4.530   3.302   8.286  0.0584 -0.4605  0.1435
 3000WAT      O13804  -4.138   9.622   6.432  0.5604 -0.8763 -0.2285
 3000WAT     H113805  -4.104   9.669   6.508  0.6046 -0.5866 -0.4232
 3000WAT     H213806  -4.204   9.562   6.468  0.3784 -0.5409  0.0091
 3000WAT    EPW13807  -4.142   9.620   6.447  0.5422 -0.7939 -0.2229
 3001WAT      O13808  -6.976   9.088   7.256  1.0006 -0.7765 -0.1276
 3001WAT     H113809  -6.997   9.174   7.219 -1.4001 -0.8805  0.7953
 3001WAT     H213810  -6.900   9.105   7.312 -0.8946  1.3853  2.0181
 3001WAT    EPW13811  -6.969   9.102   7.259  0.4339 -0.5050  0.2770
 3002WAT      O13812  -1.033   1.126   3.015 -0.5498 -0.2712  0.3778
 3002WAT     H113813  -1.040   1.218   2.989  1.5655 -1.1547 -4.3427
 3002WAT     H213814  -1.124   1.095   3.019 -1.2278  1.5913  0.2026
 3002WAT    EPW13815  -1.046   1.134   3.012 -0.3603 -0.1421 -0.2680
 3003WAT      O13816   5.583   0.340   6.557  0.0834 -0.3630 -0.0693
 3003WAT     H113817   5.567   0.287   6.634 -0.7717 -0.5612 -0.3707
 3003WAT     H213818   5.542   0.425   6.577 -0.4127 -0.5147 -0.4161
 3003WAT    EPW13819   5.575   0.344   6.570 -0.0947 -0.4092 -0.1547
 3004WAT      O13820   0.395   0.318   2.220 -0.0651  0.1892  0.0005
 3004WAT     H113821   0.429   0.405   2.242  0.4646 -0.1729  0.6714
 3004WAT     H213822   0.444   0.292   2.142  0.5574  0.0629  0.4201
 3004WAT    EPW13823   0.406   0.326   2.213  0.0869  0.1248  0.1444
 3005WAT      O13824  -4.372   7.632   7.791  0.3457 -0.1813  0.9463
 3005WAT     H113825  -4.409   7.561   7.843  0.1703  1.2172  2.8462
 3005WAT     H213826  -4.438   7.650   7.725  0.4177 -1.7897  0.3855
 3005WAT    EPW13827  -4.385   7.625   7.789  0.3321 -0.2089  1.1232
 3006WAT      O13828  -2.462   5.128   2.079 -0.0909 -0.9150  0.1052
 3006WAT     H113829  -2.416   5.201   2.121 -0.4940 -1.0442  0.7862
 3006WAT     H213830  -2.419   5.050   2.114  0.5840 -1.0164 -0.9024
 3006WAT    EPW13831  -2.450   5.128   2.089 -0.0551 -0.9453  0.0622
 3007WAT      O13832   2.844   0.282   5.170  0.1407 -0.2576 -0.2426
 3007WAT     H113833   2.757   0.304   5.203  0.9712  0.3783  1.6617
 3007WAT     H213834   2.903   0.301   5.243  1.7531 -1.8554 -1.0510
 3007WAT    EPW13835   2.840   0.288   5.184  0.4629 -0.3845 -0.0982
 3008WAT      O13836   6.517   9.043   2.069  0.1467  0.3195 -0.4232
 3008WAT     H113837   6.584   9.079   2.010 -1.2890  1.4051 -1.4692
 3008WAT     H213838   6.436   9.086   2.042 -0.8699 -0.4354  1.2596
 3008WAT    EPW13839   6.515   9.054   2.058 -0.1769  0.3629 -0.3393
 3009WAT      O13840  -3.111   1.990   4.118  0.1391  0.8060 -0.5242
 3009WAT     H113841  -3.184   2.051   4.123 -0.9333 -0.4070 -0.8011
 3009WAT     H213842  -3.057   2.011   4.194 -1.3300  0.7299  0.6014
 3009WAT    EPW13843  -3.113   2.001   4.128 -0.1961  0.6360 -0.4120
 3010WAT      O13844  -3.531   9.156   6.090 -0.1884 -0.3072  0.5500
 3010WAT     H113845  -3.601   9.187   6.148 -1.4583 -0.5676 -0.7941
 3010WAT     H213846  -3.566   9.168   6.002  0.0637 -3.5909 -0.1052
 3010WAT    EPW13847  -3.545   9.162   6.086 -0.3227 -0.7744  0.2863
 3011WAT      O13848  -2.620   4.755   8.457 -0.3643  0.0097  0.6918
 3011WAT     H113849  -2.535   4.710   8.462 -0.5495 -0.2404  2.8120
 3011WAT     H213850  -2.683   4.685   8.443 -0.2450  0.2147 -1.0626
 3011WAT    EPW13851  -2.617   4.740   8.456 -0.3730  0.0036  0.7401
 3012WAT      O13852   5.782   8.287   1.952 -1.2564 -0.3573  0.0802
 3012WAT     H113853   5.844   8.220   1.926  0.2078  0.4789  1.2650
 3012WAT     H213854   5.774   8.344   1.875 -0.6099 -0.5189 -0.1070
 3012WAT    EPW13855   5.789   8.286   1.939 -0.9780 -0.2680  0.2117
 3013WAT      O13856   0.495   9.423   8.441 -0.3007 -0.2112  0.2308
 3013WAT     H113857   0.430   9.450   8.376 -1.8317 -0.0718  1.7384
 3013WAT     H213858   0.456   9.347   8.484  1.1173 -0.9120  0.3460
 3013WAT    EPW13859   0.481   9.417   8.439 -0.3156 -0.2851  0.4449
 3014WAT      O13860   0.664   2.218   6.518 -0.3241 -0.2479  0.0645
 3014WAT     H113861   0.654   2.303   6.561  0.1840  1.8486 -3.5734
 3014WAT     H213862   0.574   2.191   6.497 -0.4337 -0.2286  0.4973
 3014WAT    EPW13863   0.651   2.225   6.521 -0.2715  0.0312 -0.3583
 3015WAT      O13864  -4.253   4.999   8.204 -0.0273 -0.2322 -0.1708
 3015WAT     H113865  -4.307   5.075   8.184  0.6108  0.0660 -0.7647
 3015WAT     H213866  -4.275   4.978   8.295 -1.6002 -0.4994 -0.5748
 3015WAT    EPW13867  -4.263   5.006   8.214 -0.1504 -0.2279 -0.3023
 3016WAT      O13868  -2.024   8.003   8.243 -0.1497 -0.1085  0.0000
 3016WAT     H113869  -2.100   7.952   8.214  1.8937 -3.8623  0.7186
 3016WAT     H213870  -1.953   7.974   8.187  1.3702  1.2930  1.1127
 3016WAT    EPW13871  -2.025   7.993   8.232  0.3202 -0.4187  0.2418
 3017WAT      O13872   3.313   9.447   0.603 -0.5592  0.0622  0.2582
 3017WAT     H113873   3.224   9.446   0.639  0.2700  0.8420  2.4845
 3017WAT     H213874   3.332   9.540   0.590 -0.1455 -0.1173 -0.4766
 3017WAT    EPW13875   3.304   9.459   0.606 -0.3953  0.1411  0.4549
 3018WAT      O13876  -0.660   9.094   4.101  0.5767 -0.0501  0.0404
 3018WAT     H113877  -0.678   9.107   4.008  1.2135 -0.9318 -0.2217
 3018WAT     H213878  -0.619   9.177   4.129  0.0372  0.3567 -0.3663
 3018WAT    EPW13879  -0.657   9.107   4.092  0.5896 -0.1125 -0.0477
 3019WAT      O13880  -1.682   3.073   2.215 -0.3021 -0.1803 -0.0895
 3019WAT     H113881  -1.659   3.166   2.221 -1.0291  0.0485 -0.5563
 3019WAT     H213882  -1.607   3.026   2.250 -0.0336  0.5998  0.3940
 3019WAT    EPW13883  -1.669   3.079   2.220 -0.3626 -0.0473 -0.0874
 3020WAT      O13884  -3.303   5.029   8.262  0.5239  0.2793  0.2253
 3020WAT     H113885  -3.366   5.099   8.244  0.0942  0.5173  2.3545
 3020WAT     H213886  -3.356   4.949   8.267  0.7691  0.0659 -0.4968
 3020WAT    EPW13887  -3.318   5.028   8.260  0.4996  0.2825  0.4106
 3021WAT      O13888  -4.297   0.276   8.835 -0.1206  0.3072 -0.3788
 3021WAT     H113889  -4.226   0.253   8.774 -1.2295  3.0080 -2.9232
 3021WAT     H213890  -4.258   0.343   8.892 -0.1921  0.7727 -0.8640
 3021WAT    EPW13891  -4.282   0.282   8.835 -0.2761  0.7248 -0.7787
 3022WAT      O13892  -4.890   5.173   6.807  0.0517 -0.1438 -0.1836
 3022WAT     H113893  -4.848   5.255   6.781  1.3754 -0.5647  0.5325
 3022WAT     H213894  -4.950   5.153   6.735 -0.1476  1.3446 -0.4554
 3022WAT    EPW13895  -4.892   5.181   6.794  0.1998 -0.0031 -0.1252
 3023WAT      O13896   2.684   2.467   7.839 -0.4740 -0.2326 -0.3925
 3023WAT     H113897   2.647   2.437   7.757 -0.8885  1.4484 -0.8575
 3023WAT     H213898   2.612   2.461   7.902 -0.3001 -1.0395 -0.2660
 3023WAT    EPW13899   2.670   2.462   7.837 -0.5057 -0.1173 -0.4370
 3024WAT      O13900  -5.668   4.646   8.594 -0.3991  0.5955 -0.1962
 3024WAT     H113901  -5.726   4.721   8.583 -0.9165  0.6235  2.2316
 3024WAT     H213902  -5.726   4.570   8.587 -1.0780  0.6451  3.2919
 3024WAT    EPW13903  -5.683   4.646   8.592 -0.5569  0.6058  0.5841
 3025WAT      O13904   0.780   6.071   6.010  0.0706 -0.5995 -0.1449
 3025WAT     H113905   0.856   6.049   6.064  0.1309  0.3846  0.1794
 3025WAT     H213906   0.718   6.000   6.026  1.7314 -2.6297 -2.0796
 3025WAT    EPW13907   0.782   6.059   6.019  0.2976 -0.7374 -0.3574
 3026WAT      O13908  -4.239  10.006   7.389  0.2988  0.7742 -0.0453
 3026WAT     H113909  -4.169  10.063   7.419  0.9007  1.5030 -2.5996
 3026WAT     H213910  -4.301  10.063   7.344 -1.2064 -0.0744  0.8263
 3026WAT    EPW13911  -4.238  10.021   7.387  0.1798  0.7582 -0.2673
 3027WAT      O13912   4.195   1.548   8.862  0.1388 -0.3540 -0.2084
 3027WAT     H113913   4.177   1.507   8.946  1.9890 -3.8368 -1.3032
 3027WAT     H213914   4.166   1.638   8.872  0.8458 -0.4224  4.3453
 3027WAT    EPW13915   4.189   1.554   8.874  0.4759 -0.8224  0.2480
 3028WAT      O13916   6.431   0.786   2.359  0.2902 -0.2079  0.1298
 3028WAT     H113917   6.446   0.714   2.420  3.9895 -0.9498 -1.3970
 3028WAT     H213918   6.457   0.864   2.407  0.9661 -0.4979  0.2436
 3028WAT    EPW13919   6.436   0.787   2.373  0.8671 -0.3440 -0.0565
 3029WAT      O13920  -0.376   6.721   0.522  0.3203  0.6050 -0.2917
 3029WAT     H113921  -0.455   6.683   0.483  0.6847  0.8895 -1.3437
 3029WAT     H213922  -0.381   6.697   0.614 -0.0262 -1.0442 -0.7034
 3029WAT    EPW13923  -0.387   6.713   0.529  0.3227  0.4251 -0.4848
 3030WAT      O13924   1.645  10.094   4.421  0.7082 -0.0732 -0.3369
 3030WAT     H113925   1.600  10.177   4.437  1.3993 -0.3090  3.9583
 3030WAT     H213926   1.583  10.042   4.371 -0.0917  2.5894 -2.4081
 3030WAT    EPW13927   1.631  10.098   4.416  0.6939  0.2470 -0.0434
 3031WAT      O13928   6.381   0.902   2.774  0.5719 -0.0691 -0.0662
 3031WAT     H113929   6.461   0.868   2.813  0.2951  0.5272  1.0722
 3031WAT     H213930   6.311   0.861   2.825  0.2116  1.1906  0.4973
 3031WAT    EPW13931   6.382   0.892   2.786  0.4880  0.1757  0.1583
 3032WAT      O13932   2.543   3.758   5.380  0.3572 -0.0528 -0.4222
 3032WAT     H113933   2.502   3.708   5.309  0.2970 -1.9682  0.8958
 3032WAT     H213934   2.634   3.769   5.353 -0.2184  1.4701 -1.9180
 3032WAT    EPW13935   2.549   3.753   5.367  0.2732 -0.1045 -0.4458
 3033WAT      O13936   1.780   5.573   1.707  1.2724  0.0599  0.1916
 3033WAT     H113937   1.757   5.661   1.678 -1.1270 -0.8882 -1.0381
 3033WAT     H213938   1.787   5.579   1.802 -2.7558  0.8587  0.5710
 3033WAT    EPW13939   1.778   5.585   1.716  0.4247  0.0403  0.0795
 3034WAT      O13940  -0.658   5.219   0.284  0.6230  0.3409  0.1630
 3034WAT     H113941  -0.583   5.174   0.322 -1.1789 -1.5364  1.7700
 3034WAT     H213942  -0.682   5.285   0.349 -1.6114 -1.9416  1.8553
 3034WAT    EPW13943  -0.651   5.222   0.297  0.0906 -0.2079  0.5981
 3035WAT      O13944   1.333   9.277   4.607 -0.5562  0.3980  0.8786
 3035WAT     H113945   1.256   9.221   4.619 -1.2992  0.8710 -1.2198
 3035WAT     H213946   1.403   9.217   4.582 -0.7018  0.1583  1.0417
 3035WAT    EPW13947   1.332   9.261   4.606 -0.6734  0.4287  0.6235
 3036WAT      O13948   2.599   3.834   7.269 -0.2514  0.0435 -0.6720
 3036WAT     H113949   2.564   3.904   7.325 -1.5480 -1.8894  1.0681
 3036WAT     H213950   2.534   3.825   7.199 -1.3595 -0.9800  0.4434
 3036WAT    EPW13951   2.586   3.842   7.267 -0.5685 -0.3464 -0.2954
 3037WAT      O13952   2.756   3.520   4.124 -0.1896  0.0925 -0.6676
 3037WAT     H113953   2.728   3.475   4.044 -0.1560 -1.8715  0.3718
 3037WAT     H213954   2.851   3.525   4.117  0.1951 -3.0969  0.6455
 3037WAT    EPW13955   2.765   3.515   4.113 -0.1343 -0.5872 -0.3576
 3038WAT      O13956   6.333   6.673   2.669 -0.3285  0.7307  0.3931
 3038WAT     H113957   6.313   6.750   2.617 -4.1908 -0.2663  0.0883
 3038WAT     H213958   6.363   6.608   2.606 -1.4393  0.6535 -0.0755
 3038WAT    EPW13959   6.334   6.674   2.654 -0.9844  0.5891  0.2910
 3039WAT      O13960   2.155   1.986   7.199  0.0819 -0.2354  0.5466
 3039WAT     H113961   2.190   1.997   7.110 -0.3627 -1.1444  0.2379
 3039WAT     H213962   2.165   1.892   7.216  0.4080 -0.0244  1.5724
 3039WAT    EPW13963   2.161   1.975   7.189  0.0663 -0.3275  0.6411
 3040WAT      O13964   9.557   0.529   1.005  0.6188  0.8927 -0.3891
 3040WAT     H113965   9.609   0.591   0.953  0.9113 -0.8500 -2.2973
 3040WAT     H213966   9.611   0.511   1.081  1.9606  0.6130 -1.3713
 3040WAT    EPW13967   9.571   0.535   1.008  0.8345  0.6259 -0.7703
 3041WAT      O13968   5.581   8.103   1.978  0.2344  0.8478  0.8159
 3041WAT     H113969   5.650   8.163   1.950  0.6846  0.4635  1.0839
 3041WAT     H213970   5.625   8.042   2.038  0.8554 -2.4241 -2.5853
 3041WAT    EPW13971   5.596   8.103   1.982  0.3757  0.3657  0.4026
 3042WAT      O13972   2.096   5.986   3.404  0.4830 -0.0467 -0.0313
 3042WAT     H113973   2.168   6.045   3.379 -0.0059  0.5410 -0.0860
 3042WAT     H213974   2.035   6.042   3.451 -1.5473  0.3209 -2.8105
 3042WAT    EPW13975   2.097   6.001   3.407  0.1507  0.0792 -0.4051
 3043WAT      O13976   2.996   6.515   4.116  0.2906 -0.0619  0.0725
 3043WAT     H113977   3.020   6.426   4.142  0.6361  0.4274  1.5184
 3043WAT     H213978   3.052   6.571   4.169 -1.4932  1.0646  0.8727
 3043WAT    EPW13979   3.006   6.510   4.127  0.1010  0.1512  0.3686
 3044WAT      O13980   5.997   6.155   0.144 -0.5811 -0.0134  0.3716
 3044WAT     H113981   6.042   6.158   0.229  1.7437 -1.3408 -0.7337
 3044WAT     H213982   6.010   6.066   0.113 -1.1026  0.5359 -1.5408
 3044WAT    EPW13983   6.005   6.144   0.151 -0.3433 -0.1161 -0.0264
 3045WAT      O13984   0.312   2.412   0.830  0.1364  0.2719 -0.2612
 3045WAT     H113985   0.331   2.318   0.828 -3.0850 -0.4970 -1.4256
 3045WAT     H213986   0.318   2.436   0.922  0.6450 -1.1862  0.1107
 3045WAT    EPW13987   0.315   2.403   0.842 -0.2214 -0.0219 -0.3657
 3046WAT      O13988   2.135   6.933   7.510  0.6884  0.0740 -0.2756
 3046WAT     H113989   2.047   6.968   7.518  0.3197 -0.7617 -0.5822
 3046WAT     H213990   2.124   6.850   7.465  1.7207  0.3488 -1.0740
 3046WAT    EPW13991   2.122   6.927   7.505  0.7758  0.0000 -0.4213
 3047WAT      O13992   0.504   4.694   3.799 -0.5317  0.6868  0.7734
 3047WAT     H113993   0.431   4.657   3.750  0.8237 -0.9966 -0.0351
 3047WAT     H213994   0.504   4.647   3.882 -0.7792  1.1908  1.0668
 3047WAT    EPW13995   0.494   4.683   3.804 -0.3856  0.5312  0.7055
 3048WAT      O13996   6.051   4.806   0.016 -0.0307 -1.0717  0.1072
 3048WAT     H113997   6.132   4.812  -0.034 -0.0033  2.5145  0.3121
 3048WAT     H213998   6.080   4.789   0.106  0.1716 -3.2032 -0.2962
 3048WAT    EPW13999   6.066   4.804   0.022 -0.0005 -0.8798  0.0810
 3049WAT      O14000  -2.226   8.127   8.599 -0.2688  0.4333  0.8751
 3049WAT     H114001  -2.228   8.195   8.531  0.2474  1.8270  2.1880
 3049WAT     H214002  -2.202   8.047   8.553  1.7863  1.6763 -0.3432
 3049WAT    EPW14003  -2.223   8.126   8.584  0.0703  0.7811  0.8874
 3050WAT      O14004  -0.866   5.692   4.082 -0.2424  0.6467  0.6170
 3050WAT     H114005  -0.895   5.609   4.045 -1.2527  1.8388 -1.4371
 3050WAT     H214006  -0.917   5.702   4.162 -0.6440 -0.3472  0.4937
 3050WAT    EPW14007  -0.876   5.682   4.088 -0.4286  0.6728  0.3297
 3051WAT      O14008   7.785   6.250   0.915  0.5358 -0.3884 -0.4989
 3051WAT     H114009   7.705   6.267   0.865  1.2006 -0.3923 -1.6028
 3051WAT     H214010   7.820   6.169   0.879 -0.3544 -1.9303  1.8437
 3051WAT    EPW14011   7.779   6.242   0.904  0.5062 -0.5922 -0.3355
 3052WAT      O14012  -3.434   0.995   6.346  0.4345 -0.1218  0.3415
 3052WAT     H114013  -3.529   0.993   6.333  0.5423 -1.2859 -0.4228
 3052WAT     H214014  -3.406   1.076   6.304  0.3046 -1.9701 -3.8386
 3052WAT    EPW14015  -3.443   1.005   6.339  0.4315 -0.5190 -0.3104
 3053WAT      O14016   5.412   1.057   8.018  0.2330 -1.1660 -0.0206
 3053WAT     H114017   5.326   1.080   7.982 -0.1902 -0.9032  1.1268
 3053WAT     H214018   5.443   0.986   7.962 -0.7442 -1.2788 -0.4354
 3053WAT    EPW14019   5.405   1.050   8.006  0.0482 -1.1463  0.0763
 3054WAT      O14020   3.700   2.770   1.575  0.0282  0.6319 -0.2038
 3054WAT     H114021   3.760   2.736   1.641  2.1732  1.3697 -1.6673
 3054WAT     H214022   3.756   2.814   1.511 -1.8121 -0.7791 -3.0249
 3054WAT    EPW14023   3.715   2.771   1.575  0.0683  0.5431 -0.7689
 3055WAT      O14024   6.347   1.135   6.057  0.2471 -0.2776 -0.1474
 3055WAT     H114025   6.351   1.150   5.962  0.0115  2.2761  0.1842
 3055WAT     H214026   6.437   1.113   6.082  0.5103  0.0075 -0.8214
 3055WAT    EPW14027   6.359   1.134   6.048  0.2508  0.0969 -0.1926
 3056WAT      O14028   3.259   5.612   2.607  0.0710 -0.0924 -0.3119
 3056WAT     H114029   3.204   5.577   2.537  0.2685  1.8685 -1.5047
 3056WAT     H214030   3.291   5.695   2.574  3.6983 -1.0363  0.4034
 3056WAT    EPW14031   3.256   5.618   2.594  0.5754  0.0417 -0.3748
 3057WAT      O14032   6.243   7.225   3.463 -0.4231  0.0685  0.1433
 3057WAT     H114033   6.269   7.137   3.489 -1.6717 -0.5988 -0.7842
 3057WAT     H214034   6.297   7.283   3.518  1.5872 -1.2337 -0.3675
 3057WAT    EPW14035   6.253   7.221   3.474 -0.3226 -0.1912 -0.0464
 3058WAT      O14036  -0.539   6.777   7.461 -0.6518 -0.3574  0.5226
 3058WAT     H114037  -0.571   6.861   7.430  0.0249  0.5277  2.1137
 3058WAT     H214038  -0.480   6.746   7.392  0.4941  1.3354  0.6784
 3058WAT    EPW14039  -0.535   6.784   7.448 -0.4114 -0.0174  0.7529
 3059WAT      O14040  -3.015   5.239   4.172  0.3359  0.8024  0.2296
 3059WAT     H114041  -3.004   5.173   4.105 -1.3070 -1.9906  2.4836
 3059WAT     H214042  -2.927   5.254   4.206  0.5943 -1.4312  0.6740
 3059WAT    EPW14043  -3.002   5.233   4.168  0.1533  0.1395  0.5856
 3060WAT      O14044  -1.207   8.172   6.978  0.1704  0.0174 -0.8059
 3060WAT     H114045  -1.123   8.212   7.001  0.4814  0.1143 -2.0274
 3060WAT     H214046  -1.188   8.079   6.969 -0.0856 -0.1110 -0.0923
 3060WAT    EPW14047  -1.194   8.165   6.980  0.1776  0.0129 -0.8731
 3061WAT      O14048  -1.869   7.792   1.013  0.9302  0.4659 -0.1514
 3061WAT     H114049  -1.836   7.879   1.034 -1.5426  1.8913 -1.7088
 3061WAT     H214050  -1.823   7.767   0.933  0.6989  0.9339 -0.4332
 3061WAT    EPW14051  -1.858   7.800   1.006  0.5736  0.7157 -0.3940
 3062WAT      O14052   0.617   5.174   0.023  0.8638  0.2620  0.4318
 3062WAT     H114053   0.526   5.181  -0.006  0.6389 -2.6002  0.1659
 3062WAT     H214054   0.622   5.228   0.102 -1.5366 -0.7801  1.3865
 3062WAT    EPW14055   0.606   5.182   0.030  0.5175 -0.2530  0.5227
 3063WAT      O14056  -0.244   3.531   4.320  0.2073 -0.3506 -0.3623
 3063WAT     H114057  -0.306   3.543   4.248 -1.0980  0.0298  0.7777
 3063WAT     H214058  -0.164   3.501   4.278 -0.5819 -0.3462 -1.9444
 3063WAT    EPW14059  -0.242   3.529   4.305 -0.0689 -0.2999 -0.4206
 3064WAT      O14060   4.236   1.622   2.198 -0.3742 -0.1552 -0.2083
 3064WAT     H114061   4.282   1.541   2.219  0.8357  0.6117  0.2140
 3064WAT     H214062   4.302   1.676   2.154 -0.2932  1.6770  1.9935
 3064WAT    EPW14063   4.251   1.619   2.195 -0.2038  0.1876  0.1377
 3065WAT      O14064   2.750   2.766   1.623  0.1887  0.3899 -0.5266
 3065WAT     H114065   2.665   2.799   1.595 -0.3701 -0.2952  0.3288
 3065WAT     H214066   2.741   2.671   1.620  1.1011  0.3089 -0.9431
 3065WAT    EPW14067   2.738   2.758   1.619  0.2354  0.2888 -0.4687
 3066WAT      O14068   1.690   7.294   5.738 -0.3193 -0.2267  0.1244
 3066WAT     H114069   1.755   7.316   5.672  0.2858 -0.1263  0.7406
 3066WAT     H214070   1.634   7.371   5.744  0.8784  0.6137  1.1944
 3066WAT    EPW14071   1.692   7.307   5.730 -0.0815 -0.1028  0.3469
 3067WAT      O14072   5.762   2.937   3.256  0.2333 -0.3222 -0.2902
 3067WAT     H114073   5.704   2.970   3.188  2.3366 -0.6728 -2.3582
 3067WAT     H214074   5.771   3.010   3.318  1.1259  1.3727 -2.3155
 3067WAT    EPW14075   5.755   2.951   3.255  0.6282 -0.1448 -0.8301
 3068WAT      O14076  -0.788   4.997   5.970  0.3628  0.8439 -0.1451
 3068WAT     H114077  -0.755   4.975   6.057 -0.2523  0.9523  0.1235
 3068WAT     H214078  -0.874   4.955   5.966 -0.8853  3.1777  0.3902
 3068WAT    EPW14079  -0.795   4.988   5.981  0.1170  1.1661 -0.0391
 3069WAT      O14080  -0.185   3.081   8.616  0.1709 -0.4026  0.2234
 3069WAT     H114081  -0.139   3.165   8.612 -0.8314  0.1964  0.7653
 3069WAT     H214082  -0.121   3.017   8.584  1.8911  0.1672  2.2663
 3069WAT    EPW14083  -0.171   3.084   8.611  0.2656 -0.2484  0.5641
 3070WAT      O14084  -0.820   7.330   6.588 -0.5391  0.4925 -0.0674
 3070WAT     H114085  -0.727   7.345   6.604 -0.3526  1.1336 -1.5736
 3070WAT     H214086  -0.848   7.274   6.661  0.8855  0.7276  0.7051
 3070WAT    EPW14087  -0.811   7.325   6.600 -0.3266  0.6080 -0.1643
 3071WAT      O14088  -3.300   7.208   1.876 -0.4474 -0.1234  0.6351
 3071WAT     H114089  -3.380   7.213   1.823  1.0813  1.5780 -1.7332
 3071WAT     H214090  -3.301   7.289   1.928  0.7703  1.0977 -1.1411
 3071WAT    EPW14091  -3.311   7.220   1.876 -0.0852  0.2620  0.0885
 3072WAT      O14092  -0.493   6.323   8.792  0.0085 -0.6876 -0.3837
 3072WAT     H114093  -0.436   6.313   8.868 -0.0502  0.9862 -0.1025
 3072WAT     H214094  -0.520   6.414   8.793 -0.2813 -0.7170 -2.2191
 3072WAT    EPW14095  -0.489   6.334   8.802 -0.0374 -0.4709 -0.5889
 3073WAT      O14096  -6.338   6.430   8.602 -0.1133 -0.5480  0.3586
 3073WAT     H114097  -6.391   6.477   8.538  0.4159 -1.6646 -0.9618
 3073WAT     H214098  -6.258   6.483   8.609 -0.6739  0.2334  1.0649
 3073WAT    EPW14099  -6.334   6.443   8.595 -0.1173 -0.5922  0.2775
 3074WAT      O14100   0.505   1.244   8.029 -0.6193 -0.1104 -0.3296
 3074WAT     H114101   0.565   1.184   7.985 -2.3151 -1.1318 -1.3841
 3074WAT     H214102   0.423   1.236   7.979 -2.1009  0.0678  1.9361
 3074WAT    EPW14103   0.502   1.235   8.017 -1.0384 -0.2216 -0.1698
 3075WAT      O14104  -5.070   5.245   5.864 -0.6254  0.1114  0.2300
 3075WAT     H114105  -5.010   5.279   5.798 -2.0589  1.1808 -0.5819
 3075WAT     H214106  -5.041   5.285   5.946  0.8853 -0.8583  0.2058
 3075WAT    EPW14107  -5.059   5.255   5.866 -0.6154  0.1245  0.1199
 3076WAT      O14108   4.048  10.028   5.105  0.4237  0.1265 -0.2850
 3076WAT     H114109   4.132  10.073   5.105  0.2067  0.6024  1.7475
 3076WAT     H214110   4.055   9.964   5.176  0.2838 -2.3105 -2.3162
 3076WAT    EPW14111   4.060  10.025   5.114  0.3767 -0.1321 -0.2847
 3077WAT      O14112  -3.496   9.035   8.747  0.2673  0.5760  0.0659
 3077WAT     H114113  -3.489   9.130   8.744  1.2334  0.5017 -1.9241
 3077WAT     H214114  -3.549   9.017   8.824  0.4202  2.6939  0.7294
 3077WAT    EPW14115  -3.502   9.045   8.756  0.4148  0.8454 -0.1092
 3078WAT      O14116  -3.598  10.042   8.611 -0.3539  0.2154  0.4090
 3078WAT     H114117  -3.573  10.067   8.522  0.3623 -2.2161 -0.1647
 3078WAT     H214118  -3.669   9.979   8.600 -2.3007  2.0630  1.7549
 3078WAT    EPW14119  -3.604  10.037   8.598 -0.5162  0.1388  0.5102
 3079WAT      O14120  -7.854  10.292   8.219  0.0721 -0.2092  0.6081
 3079WAT     H114121  -7.871  10.198   8.226 -0.1121 -0.2032  0.2642
 3079WAT     H214122  -7.901  10.330   8.294 -2.2948 -0.0879 -0.8308
 3079WAT    EPW14123  -7.863  10.285   8.230 -0.2646 -0.1922  0.3729
 3080WAT      O14124  -6.025   9.170   4.945 -0.0302 -0.6338 -0.2168
 3080WAT     H114125  -6.056   9.260   4.934  1.8942  0.5684  2.8310
 3080WAT     H214126  -5.982   9.149   4.862  0.5636  1.7740 -0.5926
 3080WAT    EPW14127  -6.024   9.179   4.933  0.3021 -0.1578  0.1357
 3081WAT      O14128   0.744   2.735   3.849 -0.1511  0.5194  0.3443
 3081WAT     H114129   0.815   2.721   3.912  0.7182 -0.5911 -0.8074
 3081WAT     H214130   0.757   2.824   3.818  0.6889  0.3729  0.2393
 3081WAT    EPW14131   0.755   2.745   3.853  0.0743  0.3536  0.1785
 3082WAT      O14132   2.893   2.335   2.288  0.5583 -0.2603 -0.1856
 3082WAT     H114133   2.933   2.421   2.274 -1.5114  1.0388  1.3233
 3082WAT     H214134   2.967   2.278   2.312  1.8664  1.2658 -0.3936
 3082WAT    EPW14135   2.908   2.339   2.289  0.4579  0.1123 -0.0139
 3083WAT      O14136   2.440   7.412   3.947  0.3555  0.0730  0.3872
 3083WAT     H114137   2.354   7.437   3.979  0.1753 -0.0623  0.0164
 3083WAT     H214138   2.479   7.494   3.917  0.0044  0.0028 -0.2679
 3083WAT    EPW14139   2.434   7.426   3.947  0.2854  0.0458  0.2519
 3084WAT      O14140   1.075   5.312   6.479  0.1396 -0.6239  0.4823
 3084WAT     H114141   1.116   5.386   6.434 -0.0490 -0.4409  0.6136
 3084WAT     H214142   1.120   5.235   6.443 -1.8550 -0.7233 -2.1388
 3084WAT    EPW14143   1.086   5.311   6.468 -0.1483 -0.6130  0.1538
 3085WAT      O14144  -1.479   5.045   7.772  0.8582  0.4325  0.4929
 3085WAT     H114145  -1.426   4.985   7.719 -0.3508 -2.6993  2.5634
 3085WAT     H214146  -1.432   5.051   7.855  0.0834  1.0499  0.9014
 3085WAT    EPW14147  -1.466   5.038   7.776  0.5965  0.1011  0.8197
 3086WAT      O14148  -0.053   0.749   7.441  0.3485 -0.2205  0.3784
 3086WAT     H114149  -0.052   0.844   7.443  1.1664 -0.2293  1.1399
 3086WAT     H214150   0.008   0.725   7.371 -1.6768 -0.2000 -1.5114
 3086WAT    EPW14151  -0.045   0.758   7.432  0.1893 -0.2189  0.2296
 3087WAT      O14152  -4.514   0.557   8.034 -0.2149 -0.1705  0.1837
 3087WAT     H114153  -4.424   0.588   8.050 -0.1797 -0.5813  0.8080
 3087WAT     H214154  -4.570   0.621   8.077 -0.1380 -1.0018  1.5686
 3087WAT    EPW14155  -4.509   0.570   8.042 -0.2003 -0.3343  0.4487
 3088WAT      O14156  -3.155   2.723   8.219 -0.3617 -0.4388  0.2636
 3088WAT     H114157  -3.244   2.756   8.204 -0.6665 -1.1055  0.5589
 3088WAT     H214158  -3.128   2.763   8.302  0.2233  0.9795 -0.5650
 3088WAT    EPW14159  -3.163   2.733   8.228 -0.3247 -0.3396  0.1936
 3089WAT      O14160   7.223   0.560   5.297 -0.1892  0.1982  0.6781
 3089WAT     H114161   7.232   0.645   5.254  1.1215  0.5886  1.6580
 3089WAT     H214162   7.147   0.570   5.355  1.5908  1.7349  2.9347
 3089WAT    EPW14163   7.214   0.572   5.299  0.2184  0.4523  1.1048
 3090WAT      O14164   6.779   2.549   0.171  0.2364 -0.3467 -0.8913
 3090WAT     H114165   6.696   2.577   0.131  0.0543 -0.2594 -0.4567
 3090WAT     H214166   6.770   2.454   0.179 -0.4567 -0.1983  0.5314
 3090WAT    EPW14167   6.767   2.540   0.167  0.1206 -0.3155 -0.6464
 3091WAT      O14168   2.585   3.313   8.205 -0.2517 -0.7913  0.1370
 3091WAT     H114169   2.563   3.278   8.118 -0.7972 -1.0370  0.3676
 3091WAT     H214170   2.646   3.384   8.187 -0.6319 -0.6106 -0.4822
 3091WAT    EPW14171   2.590   3.318   8.191 -0.3737 -0.7999  0.0854
 3092WAT      O14172  -0.437   7.074   5.962  0.1242 -0.3264  0.0468
 3092WAT     H114173  -0.353   7.118   5.970 -1.1973  2.8163 -1.6667
 3092WAT     H214174  -0.444   7.050   5.869 -1.7783  1.6829 -0.4064
 3092WAT    EPW14175  -0.427   7.076   5.951 -0.3010  0.3531 -0.2391
 3093WAT      O14176   0.594   1.138   5.546 -0.4703  0.2708 -0.8789
 3093WAT     H114177   0.656   1.076   5.584  0.7271  2.2890  0.6543
 3093WAT     H214178   0.526   1.082   5.508  0.8478 -1.9807 -0.1756
 3093WAT    EPW14179   0.593   1.122   5.546 -0.1385  0.2400 -0.5839
 3094WAT      O14180   0.314   6.814   0.009  0.1908  0.2267 -0.1669
 3094WAT     H114181   0.373   6.831   0.083 -0.1367  1.0537 -0.0803
 3094WAT     H214182   0.367   6.762  -0.051  0.9170  0.6820  0.0554
 3094WAT    EPW14183   0.329   6.810   0.011  0.2434  0.3958 -0.1261
 3095WAT      O14184   3.337   8.562   4.100 -0.4884  0.0193 -0.2179
 3095WAT     H114185   3.334   8.606   4.184  3.5807 -0.3319  0.3065
 3095WAT     H214186   3.246   8.555   4.073 -1.8518  1.3182  3.4932
 3095WAT    EPW14187   3.325   8.567   4.107 -0.1316  0.1445  0.3407
 3096WAT      O14188  -1.038   4.199   6.921 -0.6555 -0.2186  0.2473
 3096WAT     H114189  -1.129   4.185   6.948 -0.2327  0.1741  1.9768
 3096WAT     H214190  -1.046   4.243   6.836 -2.0318 -2.2009 -0.7273
 3096WAT    EPW14191  -1.051   4.203   6.913 -0.7812 -0.4282  0.3471
 3097WAT      O14192   7.039   5.092   0.352  0.4843 -0.4259 -0.4067
 3097WAT     H114193   6.979   5.126   0.285  2.0041 -0.5060 -1.8944
 3097WAT     H214194   6.995   5.014   0.386 -1.9424  1.5672  1.3220
 3097WAT    EPW14195   7.025   5.086   0.347  0.3645 -0.1736 -0.3749
 3098WAT      O14196   3.047   6.765   1.509 -0.1985 -0.4443 -0.6320
 3098WAT     H114197   3.037   6.696   1.443  1.6685 -0.6137 -0.8099
 3098WAT     H214198   3.031   6.720   1.592  0.9425 -1.1260 -0.7509
 3098WAT    EPW14199   3.044   6.750   1.511  0.1982 -0.5565 -0.6711
 3099WAT      O14200   3.174   5.403   3.839  0.0644  0.1500  0.0931
 3099WAT     H114201   3.258   5.438   3.808  0.2392  0.3151  0.7416
 3099WAT     H214202   3.172   5.313   3.807  0.8320 -0.0930  0.7240
 3099WAT    EPW14203   3.185   5.396   3.831  0.1888  0.1397  0.2620
 3100WAT      O14204  -2.638  10.219   6.011 -0.3651  0.0079  0.0509
 3100WAT     H114205  -2.543  10.208   6.011 -0.4541 -1.3051 -2.0378
 3100WAT     H214206  -2.651  10.314   6.004  0.7922  0.1608 -0.2564
 3100WAT    EPW14207  -2.627  10.230   6.010 -0.2241 -0.1450 -0.2651
 3101WAT      O14208   3.736   7.961   4.007  0.2785  0.2583  0.4415
 3101WAT     H114209   3.690   7.971   3.924 -2.0256  0.8550  1.7062
 3101WAT     H214210   3.727   7.868   4.028 -1.3891  0.5442  1.1753
 3101WAT    EPW14211   3.729   7.950   3.999 -0.2453  0.3748  0.7051
 3102WAT      O14212   3.806   0.629   1.778 -0.5576 -0.6370 -0.0591
 3102WAT     H114213   3.781   0.704   1.832  2.2396  0.4044 -0.0822
 3102WAT     H214214   3.744   0.631   1.705 -0.6638  1.5470  0.0289
 3102WAT    EPW14215   3.794   0.639   1.776 -0.2027 -0.2116 -0.0505
 3103WAT      O14216   1.048   7.970   7.680 -0.4415 -0.1569  0.4668
 3103WAT     H114217   0.977   7.955   7.742 -0.8706 -1.3872 -0.2866
 3103WAT     H214218   1.050   8.065   7.667 -3.2614 -0.2097 -0.9749
 3103WAT    EPW14219   1.039   7.980   7.687 -0.8700 -0.3262  0.1774
 3104WAT      O14220   2.419   1.455   3.619  0.4903  0.0392 -0.0871
 3104WAT     H114221   2.370   1.420   3.693  1.1421 -1.1046 -0.1738
 3104WAT     H214222   2.474   1.524   3.656 -0.7491  0.9568  0.1073
 3104WAT    EPW14223   2.419   1.459   3.633  0.4128  0.0094 -0.0728
 3105WAT      O14224  -4.749   7.339   8.088 -0.5187 -0.8683  0.2502
 3105WAT     H114225  -4.810   7.364   8.157  0.8450 -0.1812  1.2643
 3105WAT     H214226  -4.720   7.252   8.112 -0.7570 -1.0145  0.0138
 3105WAT    EPW14227  -4.753   7.331   8.100 -0.3703 -0.7968  0.3529
 3106WAT      O14228   1.035   6.265   4.656 -0.6255 -0.2660  0.1169
 3106WAT     H114229   1.129   6.279   4.642 -0.7131  0.3164  0.0577
 3106WAT     H214230   1.002   6.351   4.682 -1.6048  0.2182 -2.4203
 3106WAT    EPW14231   1.043   6.278   4.658 -0.7662 -0.1252 -0.2255
 3107WAT      O14232  -4.487   5.556   8.156  0.6022 -0.8199 -0.2822
 3107WAT     H114233  -4.434   5.612   8.213 -0.6265 -1.6968  1.8683
 3107WAT     H214234  -4.465   5.467   8.184  0.4878 -1.3108 -1.7130
 3107WAT    EPW14235  -4.477   5.551   8.167  0.4251 -1.0002 -0.1874
 3108WAT      O14236   3.673   2.336   8.712 -0.2332  0.4674  0.1494
 3108WAT     H114237   3.713   2.406   8.764 -0.1848  2.4699 -2.3792
 3108WAT     H214238   3.748   2.290   8.674 -0.2513  1.1710 -0.7771
 3108WAT    EPW14239   3.688   2.339   8.714 -0.2292  0.8245 -0.3066
 3109WAT      O14240   4.578   5.789   1.390  0.2646  0.1114  0.9262
 3109WAT     H114241   4.672   5.802   1.379 -0.0983  2.5197 -0.0990
 3109WAT     H214242   4.558   5.829   1.475  0.0360  0.6189  0.6407
 3109WAT    EPW14243   4.588   5.796   1.400  0.1867  0.4959  0.7533
 3110WAT      O14244   0.032   7.386   0.644 -0.0852  0.4649  0.4927
 3110WAT     H114245   0.062   7.461   0.592 -0.8830 -0.1603 -0.9476
 3110WAT     H214246   0.112   7.352   0.684  0.0622  3.0519  2.5939
 3110WAT    EPW14247   0.047   7.392   0.642 -0.1710  0.7236  0.5799
 3111WAT      O14248   1.044   5.256  -0.019 -0.0872  0.8073  0.2705
 3111WAT     H114249   1.052   5.349  -0.040  2.1439  0.6367  0.0471
 3111WAT     H214250   1.068   5.250   0.073  1.5376  0.3177 -0.1421
 3111WAT    EPW14251   1.048   5.267  -0.010  0.4214  0.7203  0.1864
 3112WAT      O14252   0.191   9.099   7.311 -0.2137  0.0442 -0.0926
 3112WAT     H114253   0.239   9.082   7.230 -1.0845 -0.6667 -0.4777
 3112WAT     H214254   0.107   9.136   7.282  0.4539  2.2189  0.6080
 3112WAT    EPW14255   0.186   9.101   7.297 -0.2405  0.2375 -0.0510
 3113WAT      O14256   2.288   2.002   2.964  0.6360 -0.2087 -0.6992
 3113WAT     H114257   2.373   2.046   2.965  1.6348 -2.0282 -0.8238
 3113WAT     H214258   2.270   1.983   3.056 -0.3982  1.4804 -0.5137
 3113WAT    EPW14259   2.297   2.005   2.976  0.6313 -0.2259 -0.6911
 3114WAT      O14260   1.980   1.698   4.026  0.1827  0.4362  0.2836
 3114WAT     H114261   1.914   1.714   3.959  0.3966 -0.7778 -0.2426
 3114WAT     H214262   2.063   1.708   3.981  0.3269 -1.3320  0.0964
 3114WAT    EPW14263   1.982   1.701   4.011  0.2300  0.0429  0.1895
 3115WAT      O14264   0.307   7.238   4.888  0.4772  0.1116 -0.0777
 3115WAT     H114265   0.402   7.238   4.902  0.2782  0.0048  1.4779
 3115WAT     H214266   0.278   7.326   4.914  0.3626  0.8881 -2.5594
 3115WAT    EPW14267   0.316   7.249   4.893  0.4359  0.2000 -0.2000
 3116WAT      O14268   4.763   8.880   2.720  0.3910 -0.0597  0.1573
 3116WAT     H114269   4.830   8.943   2.695  1.0361 -0.2403  1.3586
 3116WAT     H214270   4.714   8.864   2.640  1.9758 -0.1553 -0.8229
 3116WAT    EPW14271   4.765   8.886   2.706  0.6850 -0.0963  0.1863
 3117WAT      O14272  10.373   0.188   0.887  0.6488  0.3159  0.0311
 3117WAT     H114273  10.396   0.096   0.876 -0.1429  0.1839 -0.6350
 3117WAT     H214274  10.381   0.225   0.799 -1.0554  0.3976 -0.1130
 3117WAT    EPW14275  10.377   0.181   0.874  0.3195  0.3093 -0.0758
 3118WAT      O14276  -7.273  10.356   8.173 -0.5316  0.3558  0.4852
 3118WAT     H114277  -7.218  10.279   8.189 -0.8939 -0.7201 -2.6629
 3118WAT     H214278  -7.351  10.341   8.227 -0.4867 -1.3950  0.1374
 3118WAT    EPW14279  -7.276  10.344   8.182 -0.5734 -0.0172  0.0243
 3119WAT      O14280   2.887   7.501   1.534 -0.1068 -0.4384 -0.1657
 3119WAT     H114281   2.880   7.425   1.592  1.6080  0.7184  1.7134
 3119WAT     H214282   2.979   7.503   1.509  0.0695  1.4093  0.4709
 3119WAT    EPW14283   2.898   7.491   1.539  0.1426 -0.0422  0.1661
 3120WAT      O14284   2.243   5.567   1.145 -0.4703  0.3254 -0.5750
 3120WAT     H114285   2.262   5.556   1.238  2.8356 -4.1366 -1.4186
 3120WAT     H214286   2.157   5.528   1.133  0.1352 -1.3942  0.3701
 3120WAT    EPW14287   2.234   5.561   1.156  0.0457 -0.4897 -0.5615
 3121WAT      O14288   7.390   5.258   1.649  0.1818  0.7578  0.8904
 3121WAT     H114289   7.382   5.288   1.740 -0.4579  1.9511  0.4654
 3121WAT     H214290   7.311   5.206   1.634 -0.4300  1.7417  0.6079
 3121WAT    EPW14291   7.379   5.255   1.659  0.0167  1.0450  0.7971
 3122WAT      O14292  -1.927   9.193   2.491  0.0737 -0.1534 -0.4993
 3122WAT     H114293  -1.990   9.162   2.556  1.0286  0.8729  0.9791
 3122WAT     H214294  -1.967   9.172   2.407 -0.9080 -2.1261  0.4031
 3122WAT    EPW14295  -1.941   9.186   2.489  0.0702 -0.2785 -0.1853
 3123WAT      O14296   3.469   7.697   2.540 -0.3715 -0.1832 -0.0750
 3123WAT     H114297   3.408   7.742   2.482  0.3271  0.2331 -0.4925
 3123WAT     H214298   3.530   7.652   2.482  0.2154  0.0758  0.3241
 3123WAT    EPW14299   3.469   7.697   2.525 -0.2018 -0.0942 -0.0775
 3124WAT      O14300  -4.703   5.693   5.444 -0.7313 -0.1249 -0.2803
 3124WAT     H114301  -4.677   5.683   5.353 -0.5566 -0.6708 -0.1712
 3124WAT     H214302  -4.766   5.622   5.459  1.2365 -1.7438  0.7711
 3124WAT    EPW14303  -4.708   5.683   5.434 -0.4489 -0.4106 -0.1271
 3125WAT      O14304   4.372   2.977   2.359 -0.3284  0.2682  0.0217
 3125WAT     H114305   4.368   2.963   2.264  2.8968 -0.4826 -0.1303
 3125WAT     H214306   4.392   3.071   2.368 -2.6153  0.7938  0.1194
 3125WAT    EPW14307   4.374   2.988   2.347 -0.2046  0.2385  0.0145
 3126WAT      O14308  -0.431   1.366   7.757  0.1307  0.0480  0.1537
 3126WAT     H114309  -0.408   1.438   7.816 -1.5391 -0.0652  0.9764
 3126WAT     H214310  -0.508   1.397   7.710  1.4703  0.1789 -2.1258
 3126WAT    EPW14311  -0.438   1.379   7.758  0.0871  0.0503 -0.0384
 3127WAT      O14312  -3.282   8.729   7.402 -0.1427 -0.1042 -0.3703
 3127WAT     H114313  -3.320   8.801   7.454  0.7145 -0.2569  0.4895
 3127WAT     H214314  -3.206   8.768   7.360 -1.8621  0.5487 -3.1053
 3127WAT    EPW14315  -3.277   8.744   7.403 -0.2564 -0.0386 -0.6175
 3128WAT      O14316  -2.413   2.631   4.406 -0.2954 -0.0279  0.0092
 3128WAT     H114317  -2.444   2.720   4.389 -0.3195 -0.3319 -1.6480
 3128WAT     H214318  -2.414   2.624   4.502 -0.6322  1.6226  0.1616
 3128WAT    EPW14319  -2.417   2.642   4.417 -0.3430  0.1497 -0.1893
 3129WAT      O14320   6.113   4.606   1.657 -0.1397  0.1692 -0.4074
 3129WAT     H114321   6.096   4.535   1.719  0.9641 -0.7875 -1.1585
 3129WAT     H214322   6.165   4.669   1.708  1.2916 -0.8957 -0.4842
 3129WAT    EPW14323   6.118   4.605   1.672  0.1945 -0.0973 -0.5165
 3130WAT      O14324   4.472   1.460   1.741 -0.1065 -0.0029 -0.2352
 3130WAT     H114325   4.391   1.442   1.692 -1.0736 -1.1820  1.6797
 3130WAT     H214326   4.501   1.544   1.707 -0.8358 -0.6317 -2.6376
 3130WAT    EPW14327   4.465   1.469   1.730 -0.3304 -0.2414 -0.2995
 3131WAT      O14328  -0.854   1.389   3.144 -0.3174 -0.4651  0.1267
 3131WAT     H114329  -0.927   1.386   3.082 -0.0377  1.1827 -0.3385
 3131WAT     H214330  -0.894   1.371   3.229 -0.6085 -3.3616 -0.5274
 3131WAT    EPW14331  -0.869   1.387   3.147 -0.3189 -0.6298 -0.0209
 3132WAT      O14332  -4.434   8.838   7.617 -0.1909 -0.4878  0.4396
 3132WAT     H114333  -4.349   8.851   7.659 -0.2696 -0.0583  0.4674
 3132WAT     H214334  -4.425   8.877   7.531  0.4565 -2.6779 -0.5679
 3132WAT    EPW14335  -4.421   8.845   7.611 -0.1159 -0.7200  0.3104
 3133WAT      O14336  -5.441  10.011   8.756 -0.0925 -0.0439  0.1785
 3133WAT     H114337  -5.419   9.919   8.743  0.5082  0.0438  0.5267
 3133WAT     H214338  -5.384  10.058   8.696 -0.7292  0.0814 -0.3365
 3133WAT    EPW14339  -5.430  10.005   8.747 -0.0970 -0.0157  0.1564
 3134WAT      O14340  -2.737   6.438   5.609 -0.4637 -0.2718 -0.1331
 3134WAT     H114341  -2.764   6.519   5.566  1.1729  1.0299  1.1412
 3134WAT     H214342  -2.819   6.396   5.636 -1.3678  2.1780  1.2634
 3134WAT    EPW14343  -2.751   6.443   5.607 -0.3669  0.2229  0.2193
 3135WAT      O14344  -3.908   6.091   8.921 -0.2168  0.1150  0.1645
 3135WAT     H114345  -3.954   6.106   8.838 -0.4514  2.5200  0.6486
 3135WAT     H214346  -3.976   6.100   8.988 -0.2298 -2.7918  0.6435
 3135WAT    EPW14347  -3.923   6.094   8.919 -0.2494  0.0489  0.2918
 3136WAT      O14348   0.909   1.778   5.359 -0.2562  0.4029 -0.5483
 3136WAT     H114349   0.905   1.685   5.381  1.8497  0.4204  0.1684
 3136WAT     H214350   0.824   1.798   5.320 -2.1732 -0.9520  2.5737
 3136WAT    EPW14351   0.897   1.768   5.357 -0.2313  0.2265 -0.0417
 3137WAT      O14352  -6.121   9.124   5.721  0.3192 -0.0848  0.0466
 3137WAT     H114353  -6.092   9.066   5.792  0.5695 -0.0563 -0.0346
 3137WAT     H214354  -6.188   9.073   5.675  2.1020 -1.2085 -1.4135
 3137WAT    EPW14355  -6.126   9.109   5.724  0.5872 -0.2294 -0.1566
 3138WAT      O14356   0.529   6.121   1.907  0.3075 -0.6618 -0.5035
 3138WAT     H114357   0.624   6.127   1.911  0.2309  0.5009 -0.1333
 3138WAT     H214358   0.512   6.032   1.875  1.4462 -2.2872  2.9337
 3138WAT    EPW14359   0.539   6.110   1.903  0.4476 -0.7229 -0.0013
 3139WAT      O14360   1.250   7.875   8.826 -0.1004 -0.2653 -0.0452
 3139WAT     H114361   1.273   7.808   8.890  0.4917 -0.8607 -0.8429
 3139WAT     H214362   1.159   7.895   8.843  0.0224 -0.4962  0.9017
 3139WAT    EPW14363   1.241   7.869   8.836 -0.0061 -0.3743 -0.0257
 3140WAT      O14364  -1.124   1.478   6.104 -0.2254 -0.7073 -0.1909
 3140WAT     H114365  -1.184   1.403   6.112  0.1343 -1.0958 -1.0300
 3140WAT     H214366  -1.072   1.475   6.184  0.5745 -2.0713 -0.7148
 3140WAT    EPW14367  -1.125   1.468   6.115 -0.0725 -0.9385 -0.3705
 3141WAT      O14368   2.099   6.351   0.064  0.2006 -0.8397 -0.6207
 3141WAT     H114369   2.030   6.285   0.059  1.5537 -2.4514  0.7639
 3141WAT     H214370   2.143   6.347  -0.021  0.2245 -1.6749 -0.5697
 3141WAT    EPW14371   2.096   6.342   0.052  0.3822 -1.1625 -0.4314
 3142WAT      O14372  -0.441   7.260   8.810 -0.3195  0.2698 -0.8098
 3142WAT     H114373  -0.453   7.169   8.835  0.0074  0.8306  1.6528
 3142WAT     H214374  -0.426   7.258   8.715 -0.0625 -2.2303 -0.7618
 3142WAT    EPW14375  -0.440   7.248   8.801 -0.2425  0.0138 -0.4783
 3143WAT      O14376  -1.876   9.565   7.302 -0.6123 -0.6933  0.2250
 3143WAT     H114377  -1.925   9.491   7.338 -0.2800 -0.6635  0.7510
 3143WAT     H214378  -1.870   9.546   7.208  0.4292 -1.9130  0.5105
 3143WAT    EPW14379  -1.881   9.552   7.294 -0.4311 -0.8502  0.3319
 3144WAT      O14380   3.295   6.235   3.057  0.1817 -0.1275 -0.2116
 3144WAT     H114381   3.262   6.285   3.132 -0.7063 -0.4049 -0.4008
 3144WAT     H214382   3.255   6.277   2.981 -0.5311 -1.0686 -0.3772
 3144WAT    EPW14383   3.285   6.248   3.057 -0.0296 -0.2882 -0.2583
 3145WAT      O14384   7.617   6.682   1.523 -1.0707  0.0824 -0.2226
 3145WAT     H114385   7.547   6.723   1.473 -1.6977 -1.6480 -0.8079
 3145WAT     H214386   7.673   6.640   1.457 -1.5658 -1.7008  0.4385
 3145WAT    EPW14387   7.615   6.682   1.508 -1.2187 -0.3810 -0.2126
 3146WAT      O14388  -2.158   9.783   2.821  0.0487 -0.1533  0.1162
 3146WAT     H114389  -2.227   9.752   2.763 -1.0013  1.6894  0.3066
 3146WAT     H214390  -2.198   9.855   2.869  1.8281  0.3490  0.9166
 3146WAT    EPW14391  -2.172   9.789   2.819  0.1448  0.1559  0.2469
 3147WAT      O14392  -3.919   2.880   6.301 -0.4333 -0.2663  0.6239
 3147WAT     H114393  -3.875   2.842   6.377  0.7340 -0.6905 -0.2271
 3147WAT     H214394  -3.968   2.955   6.336  0.0778 -0.4524  1.7833
 3147WAT    EPW14395  -3.919   2.885   6.316 -0.2120 -0.3468  0.6647
 3148WAT      O14396   1.887   9.002   0.465  0.3555 -0.1959  0.2275
 3148WAT     H114397   1.822   8.987   0.534 -2.4611  0.3053 -2.0910
 3148WAT     H214398   1.840   9.054   0.400  3.3839  0.8453 -1.3206
 3148WAT    EPW14399   1.872   9.007   0.466  0.3835  0.0076 -0.2825
 3149WAT      O14400   0.860   7.618   5.211 -0.6340  0.0584  0.2736
 3149WAT     H114401   0.916   7.655   5.279  0.9665 -0.9657 -0.4353
 3149WAT     H214402   0.800   7.561   5.259 -0.8613  0.8875  1.0088
 3149WAT    EPW14403   0.859   7.615   5.226 -0.4528  0.0327  0.2768
 3150WAT      O14404   1.890   5.634   5.816 -0.3219  0.1080  0.3678
 3150WAT     H114405   1.957   5.699   5.837  1.7401 -1.2853 -1.4905
 3150WAT     H214406   1.815   5.685   5.785  1.0301  1.6314 -0.5117
 3150WAT    EPW14407   1.889   5.649   5.815  0.1284  0.1252  0.0067
 3151WAT      O14408   3.086   7.955   5.628  0.0536  0.0668  0.3222
 3151WAT     H114409   3.132   7.879   5.663  0.3390  0.3612  0.5910
 3151WAT     H214410   3.021   7.919   5.567 -1.9724 -0.6203  2.7304
 3151WAT    EPW14411   3.083   7.940   5.624 -0.1760  0.0153  0.6754
 3152WAT      O14412   0.669   7.633   8.095  0.3032 -0.9234 -0.3153
 3152WAT     H114413   0.636   7.614   8.007 -0.6914 -0.3145 -0.0853
 3152WAT     H214414   0.685   7.547   8.133 -1.3242 -1.2471 -0.3291
 3152WAT    EPW14415   0.667   7.619   8.088 -0.0426 -0.8857 -0.2871
 3153WAT      O14416  -3.656   0.807   7.538  0.6161  0.3626 -0.2390
 3153WAT     H114417  -3.750   0.802   7.556  0.5589 -0.2563 -0.6665
 3153WAT     H214418  -3.616   0.822   7.624  0.2466 -1.0721  0.2184
 3153WAT    EPW14419  -3.663   0.809   7.552  0.5598  0.0917 -0.2348
 3154WAT      O14420  -1.345   4.071   5.421 -0.5397 -0.3019  0.3195
 3154WAT     H114421  -1.302   4.117   5.349 -0.6623  2.5289  1.9152
 3154WAT     H214422  -1.292   3.992   5.433  0.8128  0.2604 -1.3850
 3154WAT    EPW14423  -1.332   4.066   5.413 -0.3775  0.1457  0.3049
 3155WAT      O14424   3.050   0.242   0.952 -0.2339 -0.2002 -0.4346
 3155WAT     H114425   2.958   0.223   0.973 -0.2534  0.2596 -0.0716
 3155WAT     H214426   3.096   0.229   1.035 -0.2033  1.0081 -0.2492
 3155WAT    EPW14427   3.044   0.238   0.966 -0.2325  0.0198 -0.3623
 3156WAT      O14428   6.723   0.795   3.953 -0.0153  0.1789  0.0740
 3156WAT     H114429   6.656   0.728   3.959  1.1813 -0.9983  0.9872
 3156WAT     H214430   6.730   0.815   3.860 -2.1486  0.9202  0.0245
 3156WAT    EPW14431   6.715   0.789   3.942 -0.1388  0.1214  0.1879
 3157WAT      O14432   4.529   0.572   2.368 -0.1615  0.2495  0.1919
 3157WAT     H114433   4.597   0.504   2.372  0.5217  0.8685 -0.6244
 3157WAT     H214434   4.517   0.589   2.275 -2.2986 -0.6539  0.2409
 3157WAT    EPW14435   4.537   0.565   2.357 -0.3533  0.2120  0.0907
 3158WAT      O14436   5.790   6.162   3.735 -1.1520 -0.0429  0.1025
 3158WAT     H114437   5.732   6.132   3.665  0.5363  0.1391 -1.4559
 3158WAT     H214438   5.865   6.102   3.730 -0.6463  0.4690  1.2508
 3158WAT    EPW14439   5.793   6.150   3.725 -0.8626  0.0486  0.0484
 3159WAT      O14440  -0.394   9.304   6.594  0.0331 -0.2395 -1.1349
 3159WAT     H114441  -0.416   9.380   6.540 -2.9869 -0.2951 -0.1671
 3159WAT     H214442  -0.430   9.230   6.546 -2.1266 -0.3558  0.4868
 3159WAT    EPW14443  -0.402   9.304   6.581 -0.6501 -0.2623 -0.7932
 3160WAT      O14444  -4.604   7.457   8.552 -0.4452 -0.4033 -0.1887
 3160WAT     H114445  -4.530   7.445   8.494  1.6795  1.1667  1.9694
 3160WAT     H214446  -4.584   7.403   8.629 -1.7503 -0.2693  0.2809
 3160WAT    EPW14447  -4.592   7.448   8.555 -0.3371 -0.1786  0.1578
 3161WAT      O14448   3.233   6.757   2.344 -0.1199  0.4173 -0.1502
 3161WAT     H114449   3.176   6.689   2.309 -1.4055  1.4026 -0.0495
 3161WAT     H214450   3.178   6.803   2.408  0.2257  2.4664 -1.2674
 3161WAT    EPW14451   3.218   6.754   2.348 -0.2439  0.8175 -0.2843
 3162WAT      O14452   4.643   3.632   6.596  0.0638 -0.3552 -0.3107
 3162WAT     H114453   4.699   3.574   6.648  2.0524  1.6992  0.0129
 3162WAT     H214454   4.612   3.577   6.523  1.6363 -1.8728  0.0929
 3162WAT    EPW14455   4.646   3.617   6.593  0.5336 -0.2844 -0.2148
 3163WAT      O14456   2.406   8.316   8.742  0.7411 -0.0521  0.2256
 3163WAT     H114457   2.316   8.284   8.741  0.2370  1.3091 -0.7260
 3163WAT     H214458   2.410   8.374   8.819  0.9448 -0.4470  0.5195
 3163WAT    EPW14459   2.395   8.320   8.752  0.7015  0.0753  0.1392
 3164WAT      O14460   3.900   0.458   5.892  0.6024  0.1486  0.0255
 3164WAT     H114461   3.839   0.386   5.878 -0.5715  0.8560  1.2370
 3164WAT     H214462   3.961   0.425   5.958  0.3375  0.1038  0.2503
 3164WAT    EPW14463   3.900   0.444   5.899  0.4126  0.2360  0.2151
 3165WAT      O14464   6.836   3.758   3.318 -0.0119  0.0074  0.4083
 3165WAT     H114465   6.820   3.834   3.262 -1.8319 -0.9614 -0.4801
 3165WAT     H214466   6.868   3.691   3.258  0.3698 -0.3208  0.9707
 3165WAT    EPW14467   6.838   3.759   3.302 -0.2015 -0.1637  0.3654
 3166WAT      O14468   1.223   1.675   4.422  0.2099  0.1933  0.0185
 3166WAT     H114469   1.309   1.672   4.381  0.1457  1.3409 -0.2117
 3166WAT     H214470   1.166   1.624   4.364  0.4301  0.5997 -0.5501
 3166WAT    EPW14471   1.227   1.668   4.409  0.2305  0.3983 -0.0870
 3167WAT      O14472   6.592   1.624   2.425 -0.1166  0.4475 -0.0343
 3167WAT     H114473   6.609   1.547   2.370  0.6549  1.0525 -0.6663
 3167WAT     H214474   6.501   1.615   2.451 -0.8436  0.6620 -2.2642
 3167WAT    EPW14475   6.582   1.612   2.421 -0.1109  0.5556 -0.4117
 3168WAT      O14476  -6.662  10.215   5.990  0.0276 -0.1034 -0.4589
 3168WAT     H114477  -6.611  10.251   6.062 -0.8281 -0.4885  0.3720
 3168WAT     H214478  -6.716  10.288   5.960 -0.7700 -0.3340  0.3671
 3168WAT    EPW14479  -6.663  10.229   5.996 -0.1905 -0.1845 -0.2403
 3169WAT      O14480  -1.972   6.425   0.325 -0.2441 -0.1949 -0.1792
 3169WAT     H114481  -2.066   6.408   0.332 -0.4715  1.1032  0.2407
 3169WAT     H214482  -1.958   6.503   0.378  0.9600  0.0171 -0.7738
 3169WAT    EPW14483  -1.982   6.433   0.333 -0.1153  0.0043 -0.2022
 3170WAT      O14484  -1.858   9.137   6.838 -0.0643  0.0083 -0.0733
 3170WAT     H114485  -1.849   9.117   6.745  2.2675  2.8266 -0.6104
 3170WAT     H214486  -1.774   9.112   6.876 -0.6988 -0.3704  1.1189
 3170WAT    EPW14487  -1.846   9.131   6.831  0.1596  0.3304  0.0131
 3171WAT      O14488  -4.882  10.081   4.113 -0.0057 -0.6061 -0.0623
 3171WAT     H114489  -4.869  10.169   4.078 -0.7180 -0.6697 -0.4903
 3171WAT     H214490  -4.847  10.023   4.045 -0.6015 -0.6938 -0.3029
 3171WAT    EPW14491  -4.875  10.085   4.099 -0.1781 -0.6261 -0.1504
 3172WAT      O14492   2.055   6.066   0.351 -0.3526 -0.0849  0.2002
 3172WAT     H114493   2.088   6.154   0.367 -1.5531  0.5221 -0.6154
 3172WAT     H214494   1.966   6.067   0.385 -0.1255 -1.2271  0.8866
 3172WAT    EPW14495   2.048   6.077   0.358 -0.4810 -0.1557  0.1831
 3173WAT      O14496   3.391   7.762   3.744 -0.2249 -0.1928  0.0847
 3173WAT     H114497   3.435   7.684   3.712 -0.5816 -0.2632 -0.2426
 3173WAT     H214498   3.327   7.783   3.676 -0.4660  0.0982  0.3991
 3173WAT    EPW14499   3.388   7.755   3.731 -0.3036 -0.1636  0.0831
 3174WAT      O14500   3.166   3.469   1.061  0.2664 -0.0520  0.5445
 3174WAT     H114501   3.117   3.387   1.055 -2.2045  1.3959 -1.6765
 3174WAT     H214502   3.228   3.465   0.988  0.4402 -0.1145  0.6955
 3174WAT    EPW14503   3.168   3.458   1.050 -0.0366  0.1308  0.2714
 3175WAT      O14504  -2.252  10.060   8.835  0.0638  0.1831  0.5494
 3175WAT     H114505  -2.162  10.029   8.842 -0.3229 -0.9757  0.6934
 3175WAT     H214506  -2.298  10.016   8.907 -0.4464  1.4285  1.0219
 3175WAT    EPW14507  -2.246  10.050   8.846 -0.0545  0.1945  0.6304
 3176WAT      O14508  -4.489   9.279   3.376  0.3095  0.2684  0.4029
 3176WAT     H114509  -4.498   9.368   3.409  1.4889  0.0630  1.3405
 3176WAT     H214510  -4.398   9.255   3.396  0.6665 -0.3883 -1.7308
 3176WAT    EPW14511  -4.478   9.288   3.383  0.5121  0.1545  0.2452
 3177WAT      O14512  -0.178   1.621   0.265 -0.3747  0.2916 -0.5372
 3177WAT     H114513  -0.125   1.634   0.343  1.4368 -1.7656 -1.3088
 3177WAT     H214514  -0.116   1.589   0.199 -2.2404 -0.2740 -2.1081
 3177WAT    EPW14515  -0.163   1.618   0.267 -0.3819 -0.0543 -0.8462
 3178WAT      O14516   0.038  10.294   2.529 -0.4742  0.0955  0.0874
 3178WAT     H114517   0.115  10.324   2.481 -1.9584  3.6712 -0.4007
 3178WAT     H214518   0.035  10.199   2.515  2.4086  0.2004 -1.9222
 3178WAT    EPW14519   0.048  10.285   2.521 -0.2897  0.5808 -0.2420
 3179WAT      O14520  -2.152   1.551   7.360  0.2067 -0.6452  0.1773
 3179WAT     H114521  -2.244   1.532   7.340 -0.3993  0.4601  1.7315
 3179WAT     H214522  -2.141   1.523   7.451  1.2827 -0.3155  0.1628
 3179WAT    EPW14523  -2.163   1.545   7.369  0.2687 -0.4560  0.3805
 3180WAT      O14524   4.858   9.001   4.349 -0.0079 -0.4001 -0.1213
 3180WAT     H114525   4.823   8.927   4.299 -0.3841 -0.0197 -0.4322
 3180WAT     H214526   4.932   8.965   4.397  0.0984 -0.8734 -0.6257
 3180WAT    EPW14527   4.863   8.987   4.348 -0.0434 -0.4125 -0.2289
 3181WAT      O14528   2.980   4.590   4.323 -0.2170  0.5798  0.5023
 3181WAT     H114529   2.980   4.619   4.232 -0.4653  0.1612  0.3628
 3181WAT     H214530   3.070   4.561   4.339 -0.6790 -1.5972 -0.3711
 3181WAT    EPW14531   2.992   4.590   4.313 -0.3108  0.2375  0.3688
 3182WAT      O14532   2.018   6.956   6.951  0.9354 -0.2522  0.5838
 3182WAT     H114533   1.976   7.035   6.919 -0.9000 -0.7390  1.6433
 3182WAT     H214534   1.984   6.886   6.896 -0.5244 -0.7908  2.0953
 3182WAT    EPW14535   2.008   6.957   6.940  0.5007 -0.3874  0.9229
 3183WAT      O14536   4.524   4.610   5.028 -0.2660 -0.1269  0.2209
 3183WAT     H114537   4.497   4.652   5.110  0.2184 -0.2969  0.4673
 3183WAT     H214538   4.522   4.681   4.964  0.2402  0.2154  0.5729
 3183WAT    EPW14539   4.520   4.625   5.030 -0.1354 -0.1042  0.2999
 3184WAT      O14540  -0.697   5.302   8.497 -0.0457 -0.6198 -0.4773
 3184WAT     H114541  -0.755   5.229   8.519 -2.1143  0.6304 -1.4500
 3184WAT     H214542  -0.719   5.324   8.407  0.4799  1.2287 -0.2005
 3184WAT    EPW14543  -0.708   5.295   8.488 -0.2492 -0.2110 -0.5693
 3185WAT      O14544  -0.494   7.056   3.415 -0.5540  0.4529  0.2107
 3185WAT     H114545  -0.556   7.044   3.343 -0.9529 -1.3989  0.8124
 3185WAT     H214546  -0.515   7.143   3.450 -1.1641  0.8700 -1.1044
 3185WAT    EPW14547  -0.505   7.066   3.410 -0.6871  0.2637  0.1167
 3186WAT      O14548   1.262   4.378   2.320 -0.0488 -0.3625 -0.0581
 3186WAT     H114549   1.180   4.388   2.367  0.6958  0.0178  1.1930
 3186WAT     H214550   1.321   4.442   2.359  2.1487 -3.3963  2.0793
 3186WAT    EPW14551   1.259   4.388   2.331  0.3393 -0.7124  0.3887
 3187WAT      O14552  -4.198   7.836   2.820 -0.0342  0.2736  1.1732
 3187WAT     H114553  -4.106   7.852   2.842 -0.5128  1.2712  2.5534
 3187WAT     H214554  -4.216   7.896   2.747  0.9696 -1.5154 -0.6595
 3187WAT    EPW14555  -4.188   7.846   2.813  0.0350  0.1690  1.1134
 3188WAT      O14556   2.253   9.456   1.563  0.2207 -0.1322 -0.4679
 3188WAT     H114557   2.332   9.479   1.612  0.1734  1.1717 -0.9738
 3188WAT     H214558   2.187   9.442   1.631  1.1545 -2.5706  0.0435
 3188WAT    EPW14559   2.255   9.457   1.579  0.3376 -0.2823 -0.4671
 3189WAT      O14560   4.993   5.509   4.328 -0.6147  0.1025 -0.0429
 3189WAT     H114561   5.083   5.506   4.294 -0.1665  0.8394  1.0042
 3189WAT     H214562   4.967   5.417   4.335  0.6613 -0.2089  1.1066
 3189WAT    EPW14563   5.002   5.496   4.325 -0.3872  0.1588  0.2468
 3190WAT      O14564  -4.730   9.449   4.483  0.5571  0.0711  0.2544
 3190WAT     H114565  -4.636   9.459   4.465  0.4198  1.0381 -0.0004
 3190WAT     H214566  -4.773   9.482   4.404 -0.0017 -1.6220 -0.1867
 3190WAT    EPW14567  -4.723   9.455   4.470  0.4652 -0.0248  0.1626
 3191WAT      O14568  -4.361   9.103   5.087 -0.2591  0.0922  0.0243
 3191WAT     H114569  -4.283   9.049   5.073 -0.5453 -0.6724  1.1824
 3191WAT     H214570  -4.330   9.176   5.140 -0.6657 -1.3616  2.4260
 3191WAT    EPW14571  -4.347   9.106   5.092 -0.3507 -0.1998  0.4935
 3192WAT      O14572  -1.345   6.845   4.680 -0.1697  0.0321  0.2258
 3192WAT     H114573  -1.312   6.934   4.678  1.3784 -0.5090  0.0767
 3192WAT     H214574  -1.386   6.832   4.595 -1.0762  0.8220  0.5264
 3192WAT    EPW14575  -1.346   6.855   4.669 -0.0851  0.0651  0.2458
 3193WAT      O14576  -1.413   6.279   8.568 -0.2306  0.2065  0.5512
 3193WAT     H114577  -1.424   6.187   8.541 -0.9103  0.6369 -0.7429
 3193WAT     H214578  -1.501   6.316   8.561  0.3725  1.4442 -0.9213
 3193WAT    EPW14579  -1.426   6.272   8.563 -0.2407  0.4268  0.1860
 3194WAT      O14580   1.817   5.435   4.092  0.3126  0.6702 -0.2287
 3194WAT     H114581   1.816   5.387   4.175 -1.0351  2.0047  0.5778
 3194WAT     H214582   1.910   5.445   4.071  0.6469 -1.2526  0.1504
 3194WAT    EPW14583   1.829   5.430   4.100  0.1789  0.5927 -0.0722
 3195WAT      O14584  -1.935   8.448   6.509  0.3274  0.7781  0.3727
 3195WAT     H114585  -1.863   8.385   6.514 -0.5409 -0.2932 -0.0844
 3195WAT     H214586  -2.014   8.396   6.527 -0.2005  2.2907  2.8584
 3195WAT    EPW14587  -1.936   8.433   6.512  0.1432  0.8364  0.6404
 3196WAT      O14588  -4.058   2.063   8.922  0.2590 -0.0042  0.2693
 3196WAT     H114589  -4.081   2.081   8.831 -2.3946  0.7708  1.0045
 3196WAT     H214590  -4.064   1.968   8.930 -1.8718  0.0698  0.1235
 3196WAT    EPW14591  -4.062   2.053   8.911 -0.3722  0.1078  0.3471
 3197WAT      O14592   1.742   0.325   0.167 -0.1380  0.1112  0.8987
 3197WAT     H114593   1.761   0.372   0.086  1.7963 -0.6134  0.8751
 3197WAT     H214594   1.801   0.250   0.165  0.2089  0.2666  3.1313
 3197WAT    EPW14595   1.753   0.321   0.156  0.1628  0.0361  1.1900
 3198WAT      O14596   5.186   5.631   5.783 -0.7609 -0.0869  0.2086
 3198WAT     H114597   5.194   5.675   5.698  1.3520 -1.8984 -0.6438
 3198WAT     H214598   5.095   5.602   5.787 -1.5269  2.0683 -0.3203
 3198WAT    EPW14599   5.175   5.633   5.772 -0.5832 -0.0415  0.0265
 3199WAT      O14600  -4.114   9.320   8.824 -0.1704 -0.0087 -0.0174
 3199WAT     H114601  -4.058   9.282   8.756 -1.0487  3.1181 -2.7583
 3199WAT     H214602  -4.073   9.405   8.844 -1.0211 -0.0158  1.9832
 3199WAT    EPW14603  -4.101   9.327   8.818 -0.3984  0.4029 -0.1154
 3200WAT      O14604   2.450   9.239   0.300 -0.8246  0.6253  0.2391
 3200WAT     H114605   2.468   9.280   0.216 -0.1677 -0.1795 -0.0297
 3200WAT     H214606   2.441   9.146   0.280 -1.0723  0.4780  0.9955
 3200WAT    EPW14607   2.452   9.232   0.286 -0.7706  0.4997  0.3034
 3201WAT      O14608  -2.352   1.569   8.238  0.5365  0.1834 -0.0170
 3201WAT     H114609  -2.445   1.574   8.259  0.5355 -3.2083  1.5590
 3201WAT     H214610  -2.347   1.590   8.145 -2.3862 -2.6578 -1.0055
 3201WAT    EPW14611  -2.364   1.572   8.229  0.1509 -0.6386  0.0601
 3202WAT      O14612   2.057   2.607   8.691 -0.0300 -0.2512 -0.0927
 3202WAT     H114613   2.101   2.682   8.731 -0.7140 -0.0379  0.2763
 3202WAT     H214614   2.024   2.640   8.607 -3.1396  0.8773  1.4002
 3202WAT    EPW14615   2.058   2.621   8.685 -0.5302 -0.0741  0.1521
 3203WAT      O14616  -3.385   3.350   7.898  0.0794  0.6113 -0.3774
 3203WAT     H114617  -3.425   3.272   7.936  2.3955 -0.7155 -0.4899
 3203WAT     H214618  -3.363   3.405   7.973  0.3578  0.1618 -0.1228
 3203WAT    EPW14619  -3.388   3.347   7.913  0.4216  0.3771 -0.3586
 3204WAT      O14620  -2.373   6.945   2.525 -0.4061  0.7295 -0.2124
 3204WAT     H114621  -2.313   6.929   2.598  1.1332  1.8984 -1.1456
 3204WAT     H214622  -2.436   6.874   2.529 -0.0841  0.5043  1.9609
 3204WAT    EPW14623  -2.374   6.934   2.535 -0.1605  0.8540 -0.0489
 3205WAT      O14624  -0.244   8.779   6.229  0.2448  0.1002 -0.2565
 3205WAT     H114625  -0.304   8.719   6.185  1.0411 -1.3260  0.5080
 3205WAT     H214626  -0.284   8.794   6.315  2.0063 -2.8154  1.2432
 3205WAT    EPW14627  -0.257   8.773   6.235  0.5822 -0.4725  0.0422
 3206WAT      O14628   2.065   8.838   6.743  0.1601  0.3150  0.2669
 3206WAT     H114629   2.037   8.929   6.743 -2.3347 -0.3725  0.9500
 3206WAT     H214630   2.116   8.829   6.662  0.3397  2.2603  0.1226
 3206WAT    EPW14631   2.068   8.849   6.732 -0.1453  0.4811  0.3378
 3207WAT      O14632   4.660   0.750   8.443  0.2007  0.0014 -0.2585
 3207WAT     H114633   4.575   0.706   8.453 -1.5290  2.7020 -1.7482
 3207WAT     H214634   4.724   0.684   8.468 -2.3270 -2.0974  1.2179
 3207WAT    EPW14635   4.657   0.736   8.448 -0.3607  0.0807 -0.2604
 3208WAT      O14636  -3.638   3.989   5.194  0.3825  0.2688 -0.2981
 3208WAT     H114637  -3.588   4.061   5.232  2.5904 -0.7549 -1.0488
 3208WAT     H214638  -3.660   4.020   5.106 -2.3487  1.5747  0.7499
 3208WAT    EPW14639  -3.634   4.002   5.187  0.3135  0.3059 -0.2587
 3209WAT      O14640   3.455   4.095   4.463  0.1344 -0.2043  1.2206
 3209WAT     H114641   3.408   4.171   4.496  0.1633  0.2834  0.2008
 3209WAT     H214642   3.545   4.125   4.451 -0.6144  0.9682 -3.0498
 3209WAT    EPW14643   3.461   4.109   4.466  0.0396  0.0150  0.5226
 3210WAT      O14644   1.954   0.883   8.467 -0.2860 -0.0556 -0.4804
 3210WAT     H114645   2.025   0.895   8.404 -0.2721  1.2650 -0.2492
 3210WAT     H214646   1.884   0.941   8.436 -1.0544 -0.9070 -0.3906
 3210WAT    EPW14647   1.954   0.892   8.455 -0.3855  0.0063 -0.4382
 3211WAT      O14648   6.826   6.079   0.174  0.0357 -0.0118  0.5757
 3211WAT     H114649   6.761   6.148   0.160  0.9678  1.1259  1.5889
 3211WAT     H214650   6.901   6.106   0.122 -0.2348 -1.2738 -0.5218
 3211WAT    EPW14651   6.827   6.092   0.166  0.1230 -0.0281  0.5646
 3212WAT      O14652  -2.956   9.156   6.360  0.2067  0.8525 -0.6655
 3212WAT     H114653  -2.965   9.243   6.399 -0.6448  0.5018 -0.0531
 3212WAT     H214654  -3.015   9.157   6.284 -1.7004  0.0605  0.7134
 3212WAT    EPW14655  -2.965   9.167   6.355 -0.1571  0.7014 -0.4029
 3213WAT      O14656  -5.079   4.811   8.857 -0.4289 -0.1220  0.1484
 3213WAT     H114657  -5.023   4.873   8.811 -0.3775  1.0942  1.7696
 3213WAT     H214658  -5.022   4.768   8.921 -1.1470  0.6502  1.3582
 3213WAT    EPW14659  -5.064   4.814   8.859 -0.5169  0.1402  0.5221
 3214WAT      O14660  -3.414   1.220   6.204 -0.7262  0.5301  0.0883
 3214WAT     H114661  -3.351   1.201   6.135 -0.3183 -0.5975  0.7335
 3214WAT     H214662  -3.500   1.211   6.162 -0.4948 -0.6391 -0.1738
 3214WAT    EPW14663  -3.417   1.216   6.189 -0.6418  0.2272  0.1390
 3215WAT      O14664   0.602   6.677   6.808 -0.4262 -0.0968  0.4032
 3215WAT     H114665   0.615   6.764   6.846 -1.4517 -0.2540  1.1563
 3215WAT     H214666   0.643   6.683   6.721  2.2598  0.1645  1.6061
 3215WAT    EPW14667   0.609   6.690   6.801 -0.2072 -0.0830  0.6614
 3216WAT      O14668   4.848   0.017   2.730  0.1496  0.0063  0.2065
 3216WAT     H114669   4.917   0.054   2.675  1.2042  1.5291  2.4248
 3216WAT     H214670   4.889  -0.061   2.769 -0.5767 -1.0395 -1.0627
 3216WAT    EPW14671   4.863   0.011   2.728  0.1929  0.0692  0.3316
 3217WAT      O14672   3.358  10.056   1.657  0.3142  0.1862  0.0174
 3217WAT     H114673   3.365  10.150   1.674 -3.6138  0.7011 -0.3863
 3217WAT     H214674   3.407  10.015   1.728  1.7618  2.4823  0.4440
 3217WAT    EPW14675   3.366  10.063   1.669 -0.0130  0.5565  0.0204
 3218WAT      O14676   6.014   2.636   2.789  0.5982  0.0065  0.0050
 3218WAT     H114677   5.952   2.675   2.849 -0.5350  2.5773 -2.6205
 3218WAT     H214678   6.094   2.688   2.799  0.8101 -0.3416  0.1402
 3218WAT    EPW14679   6.017   2.648   2.798  0.4766  0.2996 -0.3235
 3219WAT      O14680  -3.665   1.505   6.335 -0.3714 -0.0287  0.4158
 3219WAT     H114681  -3.686   1.428   6.283  0.2490 -0.9205  1.4550
 3219WAT     H214682  -3.647   1.471   6.423  3.8699  0.7462  0.0499
 3219WAT    EPW14683  -3.665   1.490   6.340  0.2699 -0.0440  0.5045
 3220WAT      O14684   0.309   1.756   6.817 -0.0687  1.1962  0.1091
 3220WAT     H114685   0.309   1.823   6.886 -0.0287  0.4114  0.8787
 3220WAT     H214686   0.372   1.691   6.848 -1.7512 -0.3144  0.4642
 3220WAT    EPW14687   0.317   1.756   6.830 -0.2854  0.8935  0.2573
 3221WAT      O14688  -0.214   3.153   1.399  0.6353 -0.1542  0.2609
 3221WAT     H114689  -0.190   3.147   1.307  1.1380 -2.1416  0.4786
 3221WAT     H214690  -0.149   3.213   1.436  0.3190  0.8055 -0.6881
 3221WAT    EPW14691  -0.202   3.160   1.392  0.6599 -0.2898  0.1644
 3222WAT      O14692  -0.086   7.774   0.513  0.3948  0.1993  0.2818
 3222WAT     H114693  -0.127   7.852   0.477 -1.3587 -1.1110 -0.7190
 3222WAT     H214694  -0.065   7.721   0.436 -1.5018 -1.7423  1.0162
 3222WAT    EPW14695  -0.088   7.777   0.498 -0.0867 -0.2298  0.2467
 3223WAT      O14696  -0.281   3.840   7.013 -0.1354  0.0005 -0.0719
 3223WAT     H114697  -0.341   3.765   7.011 -1.2708  0.8663  0.4559
 3223WAT     H214698  -0.311   3.897   6.942 -0.0578  0.5244  0.3093
 3223WAT    EPW14699  -0.293   3.837   7.004 -0.2749  0.1839  0.0479
 3224WAT      O14700  -3.801   8.475   2.014 -0.3861  0.0077  0.0703
 3224WAT     H114701  -3.763   8.452   1.929 -1.3674 -1.0390 -0.1023
 3224WAT     H214702  -3.889   8.509   1.992  1.2955  5.4312  0.1211
 3224WAT    EPW14703  -3.808   8.477   2.000 -0.2936  0.5856  0.0543
 3225WAT      O14704   4.165   3.349   2.372 -0.0627 -0.4964 -0.2098
 3225WAT     H114705   4.120   3.372   2.453  2.0194  0.4132  0.7684
 3225WAT     H214706   4.214   3.428   2.348 -1.5295 -0.3151 -3.0695
 3225WAT    EPW14707   4.165   3.362   2.379  0.0184 -0.3525 -0.4580
 3226WAT      O14708   3.248   8.776   0.897  0.0439  0.1546 -0.0947
 3226WAT     H114709   3.300   8.748   0.972  1.6807 -3.1647 -2.2482
 3226WAT     H214710   3.171   8.719   0.899 -0.9395  1.4432  0.1143
 3226WAT    EPW14711   3.245   8.765   0.908  0.1301 -0.1130 -0.3512
 3227WAT      O14712   4.328   0.992   2.655  0.2281  0.2850  0.3219
 3227WAT     H114713   4.397   1.058   2.670  1.4904 -1.4906  3.2461
 3227WAT     H214714   4.321   0.946   2.739 -1.2406 -2.6979 -1.2868
 3227WAT    EPW14715   4.336   0.995   2.668  0.2010 -0.3426  0.4954
 3228WAT      O14716  -1.369   8.541   3.717 -0.3078 -1.0154  0.7792
 3228WAT     H114717  -1.444   8.600   3.725 -1.3375 -1.8352 -1.8187
 3228WAT     H214718  -1.322   8.573   3.640  1.8795 -0.7464  2.1355
 3228WAT    EPW14719  -1.373   8.553   3.708 -0.1552 -1.0881  0.6154
 3229WAT      O14720   1.064   0.937   5.150 -0.0530 -0.4931 -0.0941
 3229WAT     H114721   1.103   1.006   5.204 -0.3060  2.6624 -3.4855
 3229WAT     H214722   1.138   0.894   5.108  0.1234  1.0963 -1.5634
 3229WAT    EPW14723   1.079   0.941   5.151 -0.0631  0.1327 -0.7353
 3230WAT      O14724   4.203   3.027   4.615 -0.4659 -0.8052 -0.8107
 3230WAT     H114725   4.163   3.070   4.540  1.1380  0.3802 -1.0314
 3230WAT     H214726   4.286   2.993   4.583 -1.2719 -3.3967 -0.4128
 3230WAT    EPW14727   4.209   3.028   4.601 -0.3605 -0.9906 -0.7875
 3231WAT      O14728   4.492   0.655   6.108  0.7888 -0.1977 -0.1793
 3231WAT     H114729   4.520   0.614   6.190  0.3855  0.1809  0.1471
 3231WAT     H214730   4.467   0.581   6.052  0.2340 -0.4130  0.3431
 3231WAT    EPW14731   4.493   0.640   6.111  0.6623 -0.1762 -0.0672
 3232WAT      O14732   6.402   9.027   1.770  0.3488 -0.2195 -0.3439
 3232WAT     H114733   6.346   8.955   1.800 -1.7629  2.5843  3.2239
 3232WAT     H214734   6.491   8.999   1.794 -0.4530 -1.5374  1.3384
 3232WAT    EPW14735   6.407   9.013   1.777 -0.0353 -0.0234  0.3486
 3233WAT      O14736   4.299   3.326   2.979 -1.1253  0.7132  0.5361
 3233WAT     H114737   4.328   3.306   3.068  1.2927  0.4749 -0.2316
 3233WAT     H214738   4.379   3.347   2.931 -2.1902 -0.2137 -1.8644
 3233WAT    EPW14739   4.313   3.326   2.984 -0.9470  0.5596  0.1183
 3234WAT      O14740   0.927   9.405   4.875  0.3273  0.4732  0.0870
 3234WAT     H114741   1.012   9.444   4.852  0.4452  0.9413  1.2662
 3234WAT     H214742   0.895   9.368   4.793  1.3707  0.8698 -0.5176
 3234WAT    EPW14743   0.934   9.405   4.861  0.4805  0.5875  0.1628
 3235WAT      O14744   0.525  10.203   5.966 -0.1202  0.4235  0.4232
 3235WAT     H114745   0.522  10.212   5.870  2.6332  2.3132  0.4084
 3235WAT     H214746   0.440  10.165   5.988 -0.4487 -1.1643 -2.8433
 3235WAT    EPW14747   0.513  10.199   5.956  0.1996  0.4630 -0.0098
 3236WAT      O14748  -4.601   5.358   8.398 -0.6276 -0.6457  0.0784
 3236WAT     H114749  -4.659   5.366   8.322  0.0586  0.1601 -0.3787
 3236WAT     H214750  -4.649   5.401   8.469 -0.4770  0.3015 -0.3729
 3236WAT    EPW14751  -4.615   5.365   8.397 -0.5171 -0.4146 -0.0415
 3237WAT      O14752  -3.867   2.262   8.248 -0.6094 -0.4958 -0.2762
 3237WAT     H114753  -3.840   2.174   8.277 -3.0100 -0.9285  0.8996
 3237WAT     H214754  -3.808   2.321   8.295 -1.4402 -1.3954  2.0647
 3237WAT    EPW14755  -3.856   2.258   8.258 -1.0356 -0.6716  0.1874
 3238WAT      O14756  -0.756  10.045   6.599  0.5185  0.2304 -0.0870
 3238WAT     H114757  -0.837  10.058   6.550 -0.3303 -3.7811 -0.1125
 3238WAT     H214758  -0.780  10.058   6.690  0.2284  0.5561 -0.2095
 3238WAT    EPW14759  -0.770  10.048   6.604  0.3682 -0.2561 -0.1066
 3239WAT      O14760   1.976   6.817   8.681 -0.4666  0.3331  0.3000
 3239WAT     H114761   2.047   6.755   8.697  1.1415  2.6174  2.9419
 3239WAT     H214762   2.020   6.901   8.664 -2.5507  1.2518 -1.0056
 3239WAT    EPW14763   1.991   6.820   8.681 -0.5294  0.7555  0.4759
 3240WAT      O14764   2.386   7.525   4.694  0.1248 -0.1655  0.2354
 3240WAT     H114765   2.331   7.446   4.692  1.2128 -1.2547  4.2280
 3240WAT     H214766   2.421   7.527   4.783  4.0354  2.2056 -1.1114
 3240WAT    EPW14767   2.383   7.515   4.706  0.7842  0.0036  0.5846
 3241WAT      O14768   1.300   0.693   2.843 -0.3302  0.1307  0.1088
 3241WAT     H114769   1.207   0.707   2.863 -0.1465  0.8517  0.4709
 3241WAT     H214770   1.326   0.622   2.903 -0.3181  0.8473  0.9756
 3241WAT    EPW14771   1.291   0.685   2.854 -0.3043  0.3203  0.2708
 3242WAT      O14772   3.487   8.207   5.967 -0.1547 -0.4671 -0.1180
 3242WAT     H114773   3.476   8.162   5.883 -0.4763  1.5613 -1.2427
 3242WAT     H214774   3.485   8.300   5.944  3.5197  0.2012  1.6665
 3242WAT    EPW14775   3.485   8.214   5.953  0.2874 -0.1111 -0.0310
 3243WAT      O14776  -0.823   0.489   6.873  0.0649 -0.8827 -0.4661
 3243WAT     H114777  -0.732   0.491   6.904  0.0048 -2.5480 -0.1165
 3243WAT     H214778  -0.872   0.537   6.940  0.4449 -1.4972  0.2617
 3243WAT    EPW14779  -0.817   0.496   6.886  0.1071 -1.1834 -0.3240
 3244WAT      O14780  -1.677   9.756   2.592  0.2279  0.2696 -0.0320
 3244WAT     H114781  -1.604   9.797   2.639 -0.2159 -0.0310  0.9459
 3244WAT     H214782  -1.641   9.735   2.506  0.8558  1.4724 -0.0828
 3244WAT    EPW14783  -1.663   9.759   2.587  0.2522  0.3886  0.0902
 3245WAT      O14784  -0.358   2.285   2.833 -0.5249  0.9157  0.0325
 3245WAT     H114785  -0.387   2.358   2.778 -0.5455 -0.8632 -2.4845
 3245WAT     H214786  -0.263   2.280   2.817 -0.4932  0.5112  0.3484
 3245WAT    EPW14787  -0.349   2.294   2.824 -0.5234  0.6279 -0.2577
 3246WAT      O14788  -2.495  10.334   3.756 -0.0429 -0.0304 -0.2602
 3246WAT     H114789  -2.465  10.414   3.799 -3.2784 -0.4154  3.3307
 3246WAT     H214790  -2.588  10.348   3.740 -1.0524 -3.2951  1.6043
 3246WAT    EPW14791  -2.503  10.346   3.760 -0.6028 -0.5116  0.4592
 3247WAT      O14792   3.142   2.452   7.563 -0.2461 -0.2789  1.1035
 3247WAT     H114793   3.096   2.532   7.588  0.2904  0.7036 -0.8517
 3247WAT     H214794   3.106   2.429   7.478  0.5699 -1.3690  1.0309
 3247WAT    EPW14795   3.131   2.460   7.555 -0.0677 -0.2933  0.8361
 3248WAT      O14796  -0.651   0.061   8.927  0.0465  0.3743  0.3443
 3248WAT     H114797  -0.654   0.083   8.834  1.4975  0.3358  0.2658
 3248WAT     H214798  -0.559   0.067   8.950 -0.0574 -1.2699  1.3752
 3248WAT    EPW14799  -0.640   0.065   8.917  0.2242  0.1523  0.4702
 3249WAT      O14800  -0.790   9.945   2.107  0.1907  0.3183  0.2811
 3249WAT     H114801  -0.722   9.975   2.047  0.3028 -1.5023 -0.5565
 3249WAT     H214802  -0.744   9.936   2.191  0.4872  1.0593  0.2066
 3249WAT    EPW14803  -0.775   9.948   2.110  0.2446  0.1760  0.1608
 3250WAT      O14804   8.454   0.458   0.400 -0.1224  0.2666  0.3409
 3250WAT     H114805   8.456   0.476   0.494  0.6535 -0.0624  0.3889
 3250WAT     H214806   8.377   0.505   0.369 -0.2420  0.5842  1.0996
 3250WAT    EPW14807   8.444   0.467   0.409 -0.0358  0.2651  0.4473
 3251WAT      O14808   1.194   9.578   5.833  0.1836 -0.7950 -0.2069
 3251WAT     H114809   1.280   9.537   5.827 -0.2193 -1.4659 -1.9361
 3251WAT     H214810   1.154   9.538   5.910  1.5577 -0.1231  0.9067
 3251WAT    EPW14811   1.200   9.567   5.842  0.3117 -0.7949 -0.2880
 3252WAT      O14812  -1.773   4.129   3.506  0.3502  0.3539  0.1268
 3252WAT     H114813  -1.840   4.062   3.522 -0.5798  0.8669 -1.3730
 3252WAT     H214814  -1.784   4.192   3.577  0.2665 -0.3543  0.7468
 3252WAT    EPW14815  -1.783   4.128   3.517  0.2165  0.3281  0.0108
 3253WAT      O14816   1.745   8.456   5.173  0.2069  0.1340 -0.3397
 3253WAT     H114817   1.814   8.434   5.235  0.4232  0.1905 -0.5612
 3253WAT     H214818   1.763   8.403   5.096 -1.6072 -2.0379  0.6060
 3253WAT    EPW14819   1.756   8.446   5.171 -0.0039 -0.1450 -0.2444
 3254WAT      O14820   1.987   2.290   5.674  0.1585  0.7577  0.1442
 3254WAT     H114821   1.903   2.265   5.635 -0.6805  3.3997  0.0620
 3254WAT     H214822   2.049   2.291   5.601 -0.1912  0.7041 -0.1531
 3254WAT    EPW14823   1.984   2.287   5.659  0.0017  1.0991  0.0939
 3255WAT      O14824   0.304   9.652   3.788  0.3762  0.0751 -0.8169
 3255WAT     H114825   0.359   9.606   3.851 -0.9536 -0.5526 -0.0605
 3255WAT     H214826   0.215   9.624   3.809 -0.4288  2.4030 -0.8206
 3255WAT    EPW14827   0.300   9.642   3.799  0.0946  0.2995 -0.7178
 3256WAT      O14828   1.126   3.315   1.697  0.8305 -0.4936 -0.8182
 3256WAT     H114829   1.137   3.400   1.655 -0.5729 -0.3376 -0.9049
 3256WAT     H214830   1.215   3.284   1.712  1.4274  1.8729  1.0290
 3256WAT    EPW14831   1.139   3.322   1.694  0.7242 -0.1608 -0.5860
 3257WAT      O14832  -0.839   5.552   2.363  0.5062 -0.2494 -0.0539
 3257WAT     H114833  -0.777   5.499   2.313  0.3701 -0.5115  0.0567
 3257WAT     H214834  -0.831   5.520   2.453 -0.4040 -0.8627 -0.1846
 3257WAT    EPW14835  -0.829   5.541   2.368  0.3682 -0.3650 -0.0565
 3258WAT      O14836   5.211   4.551   3.626 -0.3409 -0.1029  0.2659
 3258WAT     H114837   5.115   4.549   3.621 -0.3686  1.1475 -0.2254
 3258WAT     H214838   5.238   4.582   3.540  0.3566  1.9480  1.1496
 3258WAT    EPW14839   5.202   4.555   3.614 -0.2527  0.3326  0.3176
 3259WAT      O14840  -5.801   8.562   4.671  0.1869 -0.2281  0.3851
 3259WAT     H114841  -5.706   8.568   4.659  0.1508  0.2679  0.3255
 3259WAT     H214842  -5.834   8.533   4.586  0.3297 -0.8741  0.5488
 3259WAT    EPW14843  -5.793   8.559   4.658  0.2007 -0.2480  0.3989
 3260WAT      O14844  -4.996   1.140   8.363 -0.1416  0.2154  0.3188
 3260WAT     H114845  -4.916   1.165   8.409 -0.2855  1.1162  0.0934
 3260WAT     H214846  -4.967   1.122   8.273 -0.4966  2.9895 -0.4589
 3260WAT    EPW14847  -4.982   1.141   8.357 -0.2074  0.7001  0.1869
 3261WAT      O14848  -5.090   9.745   3.934  0.0364  0.3324  0.4060
 3261WAT     H114849  -5.008   9.785   3.963  0.0568  0.3842  0.2808
 3261WAT     H214850  -5.158   9.797   3.976  0.0510 -1.9588  3.5652
 3261WAT    EPW14851  -5.088   9.758   3.943  0.0410  0.0372  0.8062
 3262WAT      O14852   2.503   1.945   2.611 -0.4811  0.7586 -0.3166
 3262WAT     H114853   2.541   1.983   2.690 -0.7556 -0.4258  0.4072
 3262WAT     H214854   2.578   1.924   2.556 -0.1922  0.2018  0.2767
 3262WAT    EPW14855   2.518   1.947   2.614 -0.4792  0.5290 -0.1429
 3263WAT      O14856   1.014   7.395   5.879 -0.1587  0.9345 -0.7581
 3263WAT     H114857   1.021   7.312   5.833 -0.3355  2.4248 -3.7099
 3263WAT     H214858   1.094   7.401   5.931  0.4395 -0.5293 -1.4595
 3263WAT    EPW14859   1.025   7.385   5.880 -0.1032  0.9379 -1.2398
 3264WAT      O14860   3.476   3.571   1.092  0.0006  0.1275 -0.7166
 3264WAT     H114861   3.566   3.559   1.061  0.6568  0.5231  0.9101
 3264WAT     H214862   3.434   3.624   1.025  0.3228 -1.7700 -2.5505
 3264WAT    EPW14863   3.482   3.576   1.079  0.1296 -0.0706 -0.7440
 3265WAT      O14864  -4.388   7.000   3.439  0.4427 -0.1636  0.1495
 3265WAT     H114865  -4.408   7.054   3.362 -0.1711 -1.3382 -0.5402
 3265WAT     H214866  -4.329   7.055   3.491  0.3956  0.8981 -0.8546
 3265WAT    EPW14867  -4.383   7.015   3.436  0.3557 -0.1786 -0.0739
 3266WAT      O14868  -5.754   9.383   5.232 -0.7658  0.0582  1.0757
 3266WAT     H114869  -5.764   9.317   5.164 -1.9212  0.8380  0.4652
 3266WAT     H214870  -5.786   9.464   5.193  0.8573  1.0721  1.7147
 3266WAT    EPW14871  -5.759   9.385   5.218 -0.7041  0.2947  1.0793
 3267WAT      O14872  -4.337   3.272   6.848  0.2534  0.5643  1.1210
 3267WAT     H114873  -4.261   3.298   6.900 -0.3862  1.9008  1.4501
 3267WAT     H214874  -4.376   3.355   6.820  0.0083 -0.1178 -0.6781
 3267WAT    EPW14875  -4.332   3.286   6.851  0.1366  0.6505  0.9270
 3268WAT      O14876  -4.912   1.503   7.901 -0.0888 -0.2899 -0.6200
 3268WAT     H114877  -4.873   1.587   7.928  1.0167 -0.9484 -0.0939
 3268WAT     H214878  -4.980   1.486   7.966  0.8480 -0.6208  0.3153
 3268WAT    EPW14879  -4.916   1.512   7.913  0.1807 -0.4205 -0.4272
 3269WAT      O14880  -5.330   1.853   8.628  0.3411 -0.8138 -0.4489
 3269WAT     H114881  -5.391   1.925   8.645  1.3352  0.2585 -1.3103
 3269WAT     H214882  -5.281   1.880   8.551  2.3007 -1.3971  0.5369
 3269WAT    EPW14883  -5.332   1.866   8.620  0.7305 -0.7493 -0.4330
 3270WAT      O14884   5.162   4.387   1.916 -0.1389 -0.0016 -0.2666
 3270WAT     H114885   5.109   4.445   1.862  1.7810  0.4936 -1.7237
 3270WAT     H214886   5.201   4.444   1.982  0.8799  0.2204 -1.0286
 3270WAT    EPW14887   5.161   4.402   1.918  0.2487  0.0930 -0.5593
 3271WAT      O14888   0.691   9.488   0.706  0.2369 -0.6425  0.3499
 3271WAT     H114889   0.645   9.569   0.727  1.0235  0.2179 -1.0482
 3271WAT     H214890   0.729   9.460   0.788 -1.8634 -0.8220  1.3291
 3271WAT    EPW14891   0.690   9.495   0.719  0.0636 -0.5527  0.2947
 3272WAT      O14892   3.137   6.698   4.283  0.0657 -0.0447  0.6117
 3272WAT     H114893   3.049   6.730   4.300 -0.2681  0.4570 -1.6887
 3272WAT     H214894   3.181   6.772   4.240  0.7645 -1.1075 -0.5755
 3272WAT    EPW14895   3.131   6.712   4.280  0.1138 -0.1187  0.1514
 3273WAT      O14896  -3.601   2.197   8.337 -0.0864 -0.7362 -0.3342
 3273WAT     H114897  -3.639   2.237   8.415 -2.1342 -0.3908 -1.4458
 3273WAT     H214898  -3.529   2.255   8.313  0.7588 -0.9887  1.3860
 3273WAT    EPW14899  -3.597   2.210   8.344 -0.2450 -0.7240 -0.2542
 3274WAT      O14900   0.623   0.122   4.588  0.0655 -0.3314  0.3610
 3274WAT     H114901   0.592   0.092   4.674  2.1407 -4.1100 -0.0069
 3274WAT     H214902   0.701   0.174   4.609 -0.8532  0.9042  0.8212
 3274WAT    EPW14903   0.629   0.125   4.602  0.2180 -0.6668  0.3729
 3275WAT      O14904  -0.314   4.862   8.534  0.0672  0.0062 -0.4369
 3275WAT     H114905  -0.332   4.825   8.620 -0.8486  0.1425 -0.5592
 3275WAT     H214906  -0.364   4.944   8.531 -1.0310 -0.6663 -1.5968
 3275WAT    EPW14907  -0.323   4.868   8.545 -0.1985 -0.0644 -0.6061
 3276WAT      O14908   6.589   1.128   6.167  0.2910 -0.0752  0.1322
 3276WAT     H114909   6.594   1.038   6.199  0.2504 -0.3580 -0.6538
 3276WAT     H214910   6.614   1.181   6.243 -0.8617 -0.6759  0.9793
 3276WAT    EPW14911   6.593   1.123   6.181  0.1338 -0.1917  0.1404
 3277WAT      O14912   6.003   8.045   0.261 -0.0256 -0.5834 -0.2200
 3277WAT     H114913   5.992   8.112   0.329 -0.0436 -1.3985  0.6110
 3277WAT     H214914   5.940   8.068   0.193  1.0783  1.1481 -0.7093
 3277WAT    EPW14915   5.993   8.057   0.261  0.1178 -0.4625 -0.1749
 3278WAT      O14916   6.130   6.380   0.881 -0.4313  0.7042 -0.5787
 3278WAT     H114917   6.109   6.313   0.945 -2.4068  0.6306 -1.2174
 3278WAT     H214918   6.205   6.427   0.918 -3.3400  2.7453  3.4546
 3278WAT    EPW14919   6.137   6.378   0.894 -1.0755  0.9639 -0.1310
 3279WAT      O14920   0.828   6.437   6.258  0.6604  0.1233  0.1271
 3279WAT     H114921   0.865   6.413   6.173  0.5524  1.0338 -0.1840
 3279WAT     H214922   0.842   6.532   6.265 -1.5882  0.5136 -0.0048
 3279WAT    EPW14923   0.835   6.446   6.248  0.3496  0.2947  0.0687
 3280WAT      O14924   5.456   1.128   2.740  0.2268 -0.5625  0.6440
 3280WAT     H114925   5.515   1.055   2.721 -1.1613 -1.5763  0.1043
 3280WAT     H214926   5.375   1.087   2.769 -1.3487  0.6477 -1.7356
 3280WAT    EPW14927   5.453   1.113   2.741 -0.1643 -0.5366  0.2589
 3281WAT      O14928  -0.741   6.027   7.246 -1.0166 -0.0478 -0.1663
 3281WAT     H114929  -0.803   6.003   7.315 -0.4146 -0.0096  0.4025
 3281WAT     H214930  -0.796   6.050   7.171 -1.7809  1.8447  0.9036
 3281WAT    EPW14931  -0.756   6.027   7.246 -1.0380  0.2069  0.0501
 3282WAT      O14932   4.938   3.620   6.305  0.2391  0.2863  0.0712
 3282WAT     H114933   5.014   3.564   6.323  0.5572  1.0836  1.3856
 3282WAT     H214934   4.974   3.691   6.251  0.9549  1.7631  2.3517
 3282WAT    EPW14935   4.953   3.622   6.300  0.3755  0.5863  0.5455
 3283WAT      O14936   0.682   3.489   5.662  0.1168  0.4300 -0.4641
 3283WAT     H114937   0.657   3.413   5.714 -1.3958  0.5315 -1.0051
 3283WAT     H214938   0.774   3.504   5.684 -0.5700  0.8203  2.6021
 3283WAT    EPW14939   0.691   3.481   5.672 -0.1733  0.4948 -0.1309
 3284WAT      O14940   1.559   7.837   4.980  0.1638 -0.7886  0.7524
 3284WAT     H114941   1.498   7.785   4.928  0.6455  1.4520 -2.4069
 3284WAT     H214942   1.646   7.811   4.948  0.6257 -0.7161  1.8913
 3284WAT    EPW14943   1.563   7.827   4.969  0.2882 -0.4835  0.4859
 3285WAT      O14944   1.646   2.620   4.981  0.9848  0.1897  0.2670
 3285WAT     H114945   1.629   2.709   4.950  1.6207  0.3653  0.4113
 3285WAT     H214946   1.676   2.573   4.904  2.5028  0.6092  0.5747
 3285WAT    EPW14947   1.648   2.626   4.967  1.2689  0.2682  0.3264
 3286WAT      O14948   0.181   0.818   8.484 -0.1086  0.0033 -0.2020
 3286WAT     H114949   0.197   0.866   8.403 -0.2182  3.3194  1.5806
 3286WAT     H214950   0.265   0.821   8.530 -0.5031 -0.3303  0.5452
 3286WAT    EPW14951   0.195   0.825   8.479 -0.1751  0.3967  0.1316
 3287WAT      O14952   0.360   6.536   1.164 -0.1822  0.0919 -0.1286
 3287WAT     H114953   0.361   6.495   1.250  1.0410  0.5762  0.1035
 3287WAT     H214954   0.347   6.464   1.103 -0.3431 -0.3437  0.4106
 3287WAT    EPW14955   0.358   6.521   1.167 -0.0421  0.0982 -0.0269
 3288WAT      O14956   4.996   4.284   6.677  0.4706  0.8568  0.5011
 3288WAT     H114957   4.958   4.338   6.607  1.3757  1.7287  0.6539
 3288WAT     H214958   4.959   4.321   6.757 -1.2611 -0.7033  0.4899
 3288WAT    EPW14959   4.986   4.296   6.678  0.3614  0.7660  0.5195
 3289WAT      O14960   4.207   7.734   5.354  0.1944 -0.9797 -0.6027
 3289WAT     H114961   4.235   7.691   5.435 -0.4796 -0.4070 -0.0571
 3289WAT     H214962   4.248   7.820   5.358  0.3628 -1.0364 -1.0034
 3289WAT    EPW14963   4.216   7.740   5.365  0.1276 -0.9117 -0.5836
 3290WAT      O14964  -0.122   8.156   3.847 -0.2624 -0.3281  0.0052
 3290WAT     H114965  -0.073   8.100   3.907 -0.2725  0.5097  0.8347
 3290WAT     H214966  -0.206   8.170   3.891 -0.6447 -0.4706 -0.6628
 3290WAT    EPW14967  -0.127   8.151   3.861 -0.3141 -0.2365  0.0265
 3291WAT      O14968  -0.899   0.655   5.246 -0.1555 -0.0243  0.7053
 3291WAT     H114969  -0.865   0.566   5.233 -0.7178 -0.2104  0.4888
 3291WAT     H214970  -0.993   0.644   5.252 -0.1012  0.2614  3.1372
 3291WAT    EPW14971  -0.907   0.642   5.245 -0.2225 -0.0111  0.9975
 3292WAT      O14972   5.018   1.692   5.960 -0.0828 -0.2606 -0.1744
 3292WAT     H114973   5.084   1.716   6.025 -2.2320  0.4219  1.9155
 3292WAT     H214974   4.979   1.776   5.932 -1.7089 -0.7223  0.5540
 3292WAT    EPW14975   5.021   1.706   5.965 -0.5805 -0.2314  0.1974
 3293WAT      O14976  -3.246   3.084   6.941  0.3526  0.1279 -0.5220
 3293WAT     H114977  -3.170   3.048   6.896 -0.3020 -1.3672 -0.4876
 3293WAT     H214978  -3.248   3.039   7.025 -0.5916  0.1273 -0.5373
 3293WAT    EPW14979  -3.236   3.074   6.946  0.1417 -0.0693 -0.5195
 3294WAT      O14980  -6.999   9.753   7.729 -0.0463 -0.0482 -0.3969
 3294WAT     H114981  -6.939   9.781   7.660  2.3569  2.8377  2.4736
 3294WAT     H214982  -7.023   9.835   7.774 -2.6603 -1.5924  1.2845
 3294WAT    EPW14983  -6.994   9.768   7.726 -0.0741  0.1287  0.2036
 3295WAT      O14984  -5.680   4.390   8.958 -0.7748  0.3154  0.4982
 3295WAT     H114985  -5.619   4.453   8.922 -1.3607 -0.7357 -2.6212
 3295WAT     H214986  -5.637   4.357   9.038  1.7230  1.1308 -0.4282
 3295WAT    EPW14987  -5.666   4.394   8.964 -0.5226  0.2842 -0.0353
 3296WAT      O14988  -0.884   4.333   8.720 -0.1427  0.0739 -0.3418
 3296WAT     H114989  -0.820   4.387   8.768  1.3391 -0.4623 -1.6277
 3296WAT     H214990  -0.947   4.307   8.787  0.7807  0.9149  0.9264
 3296WAT    EPW14991  -0.884   4.337   8.735  0.1745  0.1142 -0.3438
 3297WAT      O14992   3.137   5.168   3.694  0.0788  0.6105  0.4883
 3297WAT     H114993   3.074   5.215   3.639 -0.7644  1.0394  1.7744
 3297WAT     H214994   3.216   5.161   3.640 -0.3778  1.9220 -0.3958
 3297WAT    EPW14995   3.139   5.174   3.680 -0.0926  0.8402  0.5413
 3298WAT      O14996   7.904   5.068   1.328 -0.8427  0.5439 -0.4906
 3298WAT     H114997   7.909   5.115   1.412  0.7293  0.0638 -0.2928
 3298WAT     H214998   7.897   5.138   1.263  1.2883  1.1124 -0.1882
 3298WAT    EPW14999   7.904   5.084   1.331 -0.3543  0.5555 -0.4246
 3299WAT      O15000   4.345   3.381   4.547  0.8719 -0.1486  0.0314
 3299WAT     H115001   4.363   3.461   4.596  1.4657 -0.0402 -0.3499
 3299WAT     H215002   4.398   3.314   4.589  2.1989  0.1604 -1.0622
 3299WAT    EPW15003   4.354   3.383   4.559  1.1251 -0.0936 -0.1631
 3300WAT      O15004  -2.900   4.215   2.700  0.5887  0.7729  0.0512
 3300WAT     H115005  -2.935   4.158   2.768  2.4693 -1.5617 -0.8011
 3300WAT     H215006  -2.908   4.164   2.620  2.8653  1.4614 -0.6769
 3300WAT    EPW15007  -2.906   4.201   2.698  1.1371  0.5558 -0.1574
 3301WAT      O15008   3.117   4.694   4.825  0.1363  0.0484 -0.5656
 3301WAT     H115009   3.032   4.672   4.789  0.2144  0.8033 -1.2277
 3301WAT     H215010   3.142   4.617   4.876 -0.1510 -0.8765 -1.7901
 3301WAT    EPW15011   3.109   4.681   4.827  0.1087  0.0260 -0.8144
 3302WAT      O15012  -1.765   4.486   0.982 -0.4845  0.4338 -0.0810
 3302WAT     H115013  -1.834   4.504   0.919 -2.1617  1.0300  1.7937
 3302WAT     H215014  -1.731   4.572   1.007 -0.4704  0.2759  0.4722
 3302WAT    EPW15015  -1.769   4.500   0.977 -0.7039  0.4916  0.2393
 3303WAT      O15016   2.694   4.326   6.808  0.4525 -0.4986 -0.4229
 3303WAT     H115017   2.699   4.357   6.717 -0.5921 -0.6639 -0.5460
 3303WAT     H215018   2.699   4.406   6.860  1.0091 -0.3987 -0.6176
 3303WAT    EPW15019   2.695   4.341   6.803  0.3881 -0.5071 -0.4647
 3304WAT      O15020   4.125   7.960   2.184  0.4426  0.1580  0.5407
 3304WAT     H115021   4.215   7.982   2.162  0.3988  0.2948  0.4985
 3304WAT     H215022   4.133   7.895   2.254  0.6671 -2.7847 -1.9985
 3304WAT    EPW15023   4.138   7.954   2.190  0.4666 -0.2120  0.2003
 3305WAT      O15024   1.673   4.801   2.557  0.5152  0.1382 -0.3549
 3305WAT     H115025   1.682   4.782   2.464  2.5044  0.9064 -0.3694
 3305WAT     H215026   1.721   4.730   2.600  1.3389  0.8653 -0.0389
 3305WAT    EPW15027   1.680   4.789   2.551  0.8861  0.3355 -0.3152
 3306WAT      O15028  -0.683  10.229   1.311 -0.2413 -0.5586 -0.2298
 3306WAT     H115029  -0.737  10.155   1.339  0.2926 -0.2697  1.6796
 3306WAT     H215030  -0.745  10.300   1.298 -0.4743 -0.5846  0.6783
 3306WAT    EPW15031  -0.698  10.229   1.313 -0.2016 -0.5240  0.1419
 3307WAT      O15032   4.905   3.092   2.134  0.0462 -0.1559  0.2452
 3307WAT     H115033   4.962   3.083   2.211  0.0646 -3.9124 -0.0204
 3307WAT     H215034   4.834   3.149   2.164  2.4007  2.3684  1.4486
 3307WAT    EPW15035   4.903   3.098   2.148  0.3593 -0.3184  0.3688
 3308WAT      O15036  -1.947   0.538   6.843  0.8381  0.4121 -0.1214
 3308WAT     H115037  -1.910   0.451   6.828  1.8825  0.9635 -0.7692
 3308WAT     H215038  -2.003   0.554   6.766  1.1429  0.5749 -0.3093
 3308WAT    EPW15039  -1.950   0.529   6.831  1.0161  0.5063 -0.2317
 3309WAT      O15040   2.947   6.915   3.216  0.4904  0.1292 -0.1594
 3309WAT     H115041   2.927   6.840   3.272  2.2525  1.1021  1.9105
 3309WAT     H215042   2.945   6.990   3.275 -1.0651  1.7823 -2.1403
 3309WAT    EPW15043   2.944   6.915   3.231  0.5177  0.4756 -0.1476
 3310WAT      O15044   0.560   7.276   4.405 -0.3965  0.1572  0.1693
 3310WAT     H115045   0.514   7.246   4.327 -0.1742  0.6272 -0.1474
 3310WAT     H215046   0.642   7.227   4.405  0.7110  1.8852 -1.2468
 3310WAT    EPW15047   0.564   7.266   4.395 -0.2212  0.4470 -0.0594
 3311WAT      O15048   6.032   7.326   0.757  0.1416  0.1197  0.2089
 3311WAT     H115049   5.989   7.384   0.693  0.7824  4.9263  3.5873
 3311WAT     H215050   5.976   7.331   0.835  1.9324 -1.3368  1.6695
 3311WAT    EPW15051   6.019   7.334   0.759  0.4623  0.5615  0.8472
 3312WAT      O15052  -1.229   1.554   7.301  0.2448 -0.0675 -0.2257
 3312WAT     H115053  -1.262   1.475   7.344  0.8024  0.1655  0.6680
 3312WAT     H215054  -1.258   1.625   7.359  1.2359  0.2317 -0.0873
 3312WAT    EPW15055  -1.237   1.553   7.315  0.4490  0.0027 -0.0896
 3313WAT      O15056  -0.928   9.984   7.295  0.0364  0.1437 -0.4095
 3313WAT     H115057  -0.918  10.065   7.346  1.1783 -0.1004 -0.2228
 3313WAT     H215058  -0.866   9.923   7.335  1.0033 -0.0449 -2.0998
 3313WAT    EPW15059  -0.919   9.987   7.307  0.3145  0.0868 -0.6077
 3314WAT      O15060   2.962   1.380   5.800  0.3225  0.5740  0.6973
 3314WAT     H115061   2.891   1.359   5.740  0.8114  0.0791  0.2844
 3314WAT     H215062   2.972   1.302   5.854 -1.2504  1.6002  2.6142
 3314WAT    EPW15063   2.954   1.367   5.799  0.1794  0.6440  0.8955
 3315WAT      O15064  -2.473   6.277   1.438 -0.3816  0.6716 -0.5028
 3315WAT     H115065  -2.388   6.235   1.427 -0.0333  0.6919  1.7052
 3315WAT     H215066  -2.526   6.242   1.366  1.7054  1.3621 -2.5068
 3315WAT    EPW15067  -2.469   6.267   1.427 -0.0604  0.7653 -0.4759
 3316WAT      O15068   7.113   3.772   0.902 -0.4867  0.0141 -0.2726
 3316WAT     H115069   7.025   3.800   0.880 -0.1588  1.6983  0.4205
 3316WAT     H215070   7.103   3.726   0.986 -0.8185 -0.6601 -0.6714
 3316WAT    EPW15071   7.100   3.769   0.910 -0.4871  0.1473 -0.2338
 3317WAT      O15072   1.428   3.321   5.390  0.1503  0.2707 -0.3294
 3317WAT     H115073   1.440   3.295   5.299  3.7027 -2.9722  0.8215
 3317WAT     H215074   1.343   3.285   5.415  0.6181 -1.7790 -1.5248
 3317WAT    EPW15075   1.418   3.313   5.381  0.6806 -0.4272 -0.3355
 3318WAT      O15076   0.654  10.282   2.576 -0.8297  0.5063 -0.6880
 3318WAT     H115077   0.704  10.334   2.514  0.3510 -0.9962 -1.0548
 3318WAT     H215078   0.665  10.191   2.547 -2.7050  0.0082 -0.0009
 3318WAT    EPW15079   0.662  10.277   2.564 -0.9213  0.2427 -0.6458
 3319WAT      O15080  -4.420   9.377   6.148  0.2701 -0.4942 -0.3051
 3319WAT     H115081  -4.453   9.365   6.059  0.7106 -0.9918 -0.4004
 3319WAT     H215082  -4.359   9.451   6.141 -0.3805  0.0590 -0.2365
 3319WAT    EPW15083  -4.416   9.386   6.135  0.2425 -0.4864 -0.3085
 3320WAT      O15084  -2.014   8.734   5.499  0.4969  0.4011  0.5257
 3320WAT     H115085  -2.025   8.780   5.582 -2.0532  1.8355 -0.4968
 3320WAT     H215086  -1.939   8.778   5.458  0.4831  1.0871  1.2063
 3320WAT    EPW15087  -2.006   8.746   5.505  0.1587  0.6809  0.4807
 3321WAT      O15088   0.032   2.138   5.720 -0.8712 -0.1432  0.6722
 3321WAT     H115089  -0.040   2.100   5.670 -0.1797  0.6320 -0.9499
 3321WAT     H215090   0.077   2.062   5.758 -2.1906 -0.6591  1.2770
 3321WAT    EPW15091   0.028   2.123   5.719 -0.9540 -0.1090  0.5379
 3322WAT      O15092  -0.163   9.016   6.940  0.2122 -0.1249 -0.4616
 3322WAT     H115093  -0.093   9.023   7.004  2.1707  0.3717 -2.5320
 3322WAT     H215094  -0.196   9.106   6.931  0.5125 -0.0414 -0.7447
 3322WAT    EPW15095  -0.158   9.029   6.947  0.5101 -0.0482 -0.7720
 3323WAT      O15096  -2.977   1.360   5.054  0.4463 -0.6672 -0.3559
 3323WAT     H115097  -2.911   1.428   5.038 -0.3079  0.5577  1.4035
 3323WAT     H215098  -3.061   1.407   5.048 -0.1079 -1.4588  0.7535
 3323WAT    EPW15099  -2.980   1.376   5.051  0.2738 -0.6101  0.0224
 3324WAT      O15100  -1.558   2.455   6.427  0.0870  0.2320 -0.1208
 3324WAT     H115101  -1.603   2.391   6.372 -0.5631 -0.2307  0.9250
 3324WAT     H215102  -1.590   2.438   6.515  1.4340  0.6653  0.4859
 3324WAT    EPW15103  -1.568   2.444   6.431  0.1789  0.2280  0.0970
 3325WAT      O15104   5.734   7.741   0.720 -0.0327  1.0257 -0.2593
 3325WAT     H115105   5.638   7.741   0.719 -0.1550  0.6862  2.7445
 3325WAT     H215106   5.758   7.816   0.665 -2.0003  1.1363 -1.0534
 3325WAT    EPW15107   5.725   7.751   0.713 -0.3083  0.9954  0.0321
 3326WAT      O15108   2.625   6.138   7.418 -0.1766 -0.3545  0.3358
 3326WAT     H115109   2.677   6.202   7.467  1.1244  0.6119 -2.1494
 3326WAT     H215110   2.560   6.190   7.371  0.0743 -0.9852 -0.7361
 3326WAT    EPW15111   2.623   6.153   7.418  0.0280 -0.3102 -0.1333
 3327WAT      O15112  -2.608   3.074   8.802  0.1751 -0.1583  0.5618
 3327WAT     H115113  -2.672   3.138   8.770  1.4622  0.3979 -1.0565
 3327WAT     H215114  -2.652   3.031   8.875 -1.0513  1.9991  1.1827
 3327WAT    EPW15115  -2.622   3.077   8.807  0.1831  0.1996  0.4301
 3328WAT      O15116  -3.075   5.774   4.431 -1.0597 -0.2190  0.2080
 3328WAT     H115117  -3.028   5.715   4.372 -2.1706  1.4196 -2.5127
 3328WAT     H215118  -3.010   5.801   4.496  0.0649 -2.5683  0.1905
 3328WAT    EPW15119  -3.061   5.769   4.432 -1.0577 -0.3126 -0.1531
 3329WAT      O15120   6.345   7.311   2.479 -0.2799  0.5996 -0.1870
 3329WAT     H115121   6.363   7.309   2.573 -0.1161  1.9615 -0.1637
 3329WAT     H215122   6.396   7.385   2.447 -1.0476  0.7213 -1.1856
 3329WAT    EPW15123   6.354   7.320   2.488 -0.3598  0.7951 -0.3157
 3330WAT      O15124   3.664   8.476   6.404 -0.2662  0.2167 -0.1324
 3330WAT     H115125   3.737   8.528   6.438 -0.1512 -1.4610  2.3966
 3330WAT     H215126   3.589   8.536   6.409 -0.0569  0.3950  2.2817
 3330WAT    EPW15127   3.664   8.491   6.409 -0.2235  0.0191  0.5195
 3331WAT      O15128  -5.373  10.199   7.989  0.4045  0.2234  0.0300
 3331WAT     H115129  -5.343  10.133   7.927 -0.2648  0.8736 -1.0276
 3331WAT     H215130  -5.458  10.168   8.019 -0.6910  1.3582 -1.7427
 3331WAT    EPW15131  -5.380  10.186   7.985  0.1719  0.4587 -0.3436
 3332WAT      O15132  -1.307   9.620   2.860 -0.5167  0.3085  0.1411
 3332WAT     H115133  -1.298   9.617   2.956  0.4217  0.5167  0.0730
 3332WAT     H215134  -1.354   9.701   2.843  1.6554  1.6996  0.3199
 3332WAT    EPW15135  -1.312   9.630   2.871 -0.1064  0.5193  0.1557
 3333WAT      O15136  -2.259   8.539   7.689 -0.2862  0.1125 -0.1210
 3333WAT     H115137  -2.270   8.631   7.712 -3.0521 -0.0580 -0.4341
 3333WAT     H215138  -2.274   8.492   7.772 -1.6997 -0.1300 -0.4863
 3333WAT    EPW15139  -2.263   8.545   7.703 -0.8374  0.0577 -0.2105
 3334WAT      O15140   4.403   5.378   7.258  0.4325  0.0831  0.2653
 3334WAT     H115141   4.308   5.368   7.259  0.6549 -2.6735 -0.0637
 3334WAT     H215142   4.426   5.398   7.349 -0.3976  0.0976  0.4780
 3334WAT    EPW15143   4.394   5.380   7.270  0.3524 -0.2785  0.2501
 3335WAT      O15144   4.000   4.374   4.280 -0.2996  0.6978 -0.1499
 3335WAT     H115145   4.039   4.460   4.292 -1.2951  1.3328 -1.2321
 3335WAT     H215146   3.971   4.348   4.367  0.4555  1.2189  0.2689
 3335WAT    EPW15147   4.001   4.382   4.293 -0.3312  0.8502 -0.2372
 3336WAT      O15148   4.567   9.398   4.595 -0.2128  0.4646  0.0478
 3336WAT     H115149   4.658   9.413   4.571 -0.3545  3.3748  0.8397
 3336WAT     H215150   4.556   9.444   4.678 -1.7609 -2.2031  1.4786
 3336WAT    EPW15151   4.577   9.406   4.603 -0.4356  0.4964  0.3409
 3337WAT      O15152   2.355   0.268   6.063 -0.3152 -0.6154  0.5344
 3337WAT     H115153   2.291   0.253   6.133 -0.2446  0.5464  0.8581
 3337WAT     H215154   2.393   0.353   6.082 -0.2441 -0.2999 -0.8916
 3337WAT    EPW15155   2.351   0.277   6.075 -0.2965 -0.4206  0.3889
 3338WAT      O15156  -0.897   4.747   6.963 -0.0688  0.5244  0.2455
 3338WAT     H115157  -0.855   4.795   7.035  1.8688  2.4410 -1.9635
 3338WAT     H215158  -0.990   4.769   6.971 -0.0163  0.1856  2.4501
 3338WAT    EPW15159  -0.904   4.756   6.974  0.1937  0.7324  0.2449
 3339WAT      O15160   1.982   2.426   2.910  0.2221  0.2982 -0.3385
 3339WAT     H115161   1.887   2.423   2.920  0.0959  0.0357 -1.5027
 3339WAT     H215162   2.010   2.334   2.917  0.7588  0.6102  2.9731
 3339WAT    EPW15163   1.973   2.413   2.912  0.2761  0.3046 -0.0553
 3340WAT      O15164  -4.729   8.131   3.412  0.3879 -0.6687  0.2210
 3340WAT     H115165  -4.643   8.158   3.381 -0.0833 -0.1668 -0.6838
 3340WAT     H215166  -4.773   8.212   3.436  0.8926 -1.0633  2.7215
 3340WAT    EPW15167  -4.724   8.145   3.411  0.3924 -0.6542  0.4314
 3341WAT      O15168  -1.121   0.532   5.778  0.0725  0.4565 -0.3980
 3341WAT     H115169  -1.213   0.521   5.803  0.7658 -2.6309  1.2749
 3341WAT     H215170  -1.100   0.622   5.802 -1.8249  0.4195  1.6874
 3341WAT    EPW15171  -1.131   0.542   5.784 -0.0863  0.0444  0.0978
 3342WAT      O15172   1.763   3.812   2.060  0.4793  0.5789  0.0333
 3342WAT     H115173   1.722   3.735   2.020  0.1074 -0.5053  2.3147
 3342WAT     H215174   1.717   3.887   2.021 -0.2796 -0.4217 -1.0570
 3342WAT    EPW15175   1.751   3.812   2.050  0.3302  0.3039  0.1905
 3343WAT      O15176   2.114   3.045   7.611 -0.1144  0.3565 -0.6688
 3343WAT     H115177   2.184   3.035   7.675  0.1077  0.7740 -0.8430
 3343WAT     H215178   2.158   3.074   7.531 -0.1504 -1.8437 -1.5659
 3343WAT    EPW15179   2.129   3.048   7.609 -0.0899  0.1212 -0.8099
 3344WAT      O15180   4.635   1.534   6.364  0.7343  0.4558 -0.1804
 3344WAT     H115181   4.662   1.443   6.375  0.5512  0.5731  1.4843
 3344WAT     H215182   4.549   1.529   6.324 -0.2393 -0.2356  1.8587
 3344WAT    EPW15183   4.627   1.522   6.360  0.5815  0.3801  0.3080
 3345WAT      O15184  -0.182   6.087   0.768  0.0314  0.0662  0.5018
 3345WAT     H115185  -0.091   6.085   0.737 -0.6660  0.7324 -1.7409
 3345WAT     H215186  -0.229   6.137   0.702 -1.8495  0.4390  2.0346
 3345WAT    EPW15187  -0.176   6.093   0.755 -0.3087  0.2031  0.4082
 3346WAT      O15188  -2.507   1.974   4.996  0.2679 -0.2990 -0.0329
 3346WAT     H115189  -2.496   2.052   4.941  0.7725  0.0549  0.5547
 3346WAT     H215190  -2.569   1.920   4.948 -2.0983  1.5849  0.7298
 3346WAT    EPW15191  -2.513   1.977   4.982  0.0223 -0.0039  0.1454
 3347WAT      O15192  -2.609   5.718   8.184  0.5054 -0.6318  0.3015
 3347WAT     H115193  -2.586   5.713   8.091  1.1001 -0.2743  0.4257
 3347WAT     H215194  -2.543   5.663   8.227  1.4025  0.7166  0.7054
 3347WAT    EPW15195  -2.597   5.710   8.177  0.7021 -0.4070  0.3710
 3348WAT      O15196   0.396   2.156   0.692 -0.1103  0.6218  0.2660
 3348WAT     H115197   0.318   2.106   0.714 -0.3940  1.7453  2.0035
 3348WAT     H215198   0.462   2.126   0.755  0.6811  0.1793 -0.7447
 3348WAT    EPW15199   0.394   2.145   0.703 -0.0433  0.7117  0.3619
 3349WAT      O15200  -4.639   7.549   6.825  0.2691 -0.6208 -0.6023
 3349WAT     H115201  -4.700   7.616   6.794 -1.3731 -1.5822  0.4472
 3349WAT     H215202  -4.603   7.511   6.744  0.2195  0.6022 -1.2203
 3349WAT    EPW15203  -4.642   7.553   6.810  0.0460 -0.5860 -0.5455
 3350WAT      O15204   5.443   1.731   6.858 -0.4571  0.2932 -0.6561
 3350WAT     H115205   5.393   1.766   6.784  0.6064  0.9812 -1.0777
 3350WAT     H215206   5.533   1.760   6.841 -0.1369  0.1387  0.7225
 3350WAT    EPW15207   5.448   1.740   6.846 -0.2744  0.3636 -0.5300
 3351WAT      O15208   0.834   4.592   6.968 -0.3956 -0.1771  0.3764
 3351WAT     H115209   0.887   4.671   6.960 -0.1530 -0.3930 -0.1959
 3351WAT     H215210   0.757   4.609   6.914 -0.6386 -0.0906  0.7459
 3351WAT    EPW15211   0.831   4.604   6.959 -0.3957 -0.1941  0.3498
 3352WAT      O15212  -2.464   7.238   5.580  0.3919  0.1268 -0.1519
 3352WAT     H115213  -2.435   7.148   5.562  0.3085  0.4129 -1.9092
 3352WAT     H215214  -2.501   7.268   5.497 -2.0933  0.8790  1.1296
 3352WAT    EPW15215  -2.465   7.230   5.567  0.0530  0.2639 -0.2148
 3353WAT      O15216   4.427   0.217   7.035 -0.5765  1.0735 -0.5862
 3353WAT     H115217   4.439   0.185   6.945 -0.9462  0.0974 -0.2931
 3353WAT     H215218   4.409   0.139   7.086 -0.6936  1.6656  0.2926
 3353WAT    EPW15219   4.426   0.203   7.030 -0.6406  1.0229 -0.4315
 3354WAT      O15220   4.192   3.189   5.459  0.2187 -0.3621  0.6158
 3354WAT     H115221   4.189   3.284   5.450  2.4303 -0.2354  0.6541
 3354WAT     H215222   4.159   3.172   5.547  0.9935  0.4954  1.0831
 3354WAT    EPW15223   4.188   3.199   5.470  0.6125 -0.2323  0.6824
 3355WAT      O15224  -0.546   5.444   7.152  0.0972  0.1033  0.0362
 3355WAT     H115225  -0.599   5.520   7.131 -0.4738  0.0708  1.2931
 3355WAT     H215226  -0.520   5.456   7.243  2.0047 -0.0367 -0.4315
 3355WAT    EPW15227  -0.549   5.455   7.161  0.2735  0.0806  0.1404
 3356WAT      O15228  -0.605   2.811   5.678  0.0035 -0.4211 -0.0726
 3356WAT     H115229  -0.593   2.906   5.680 -0.6643 -0.2021 -2.6060
 3356WAT     H215230  -0.695   2.798   5.706 -0.0499 -0.2598 -0.1668
 3356WAT    EPW15231  -0.615   2.822   5.682 -0.0916 -0.3710 -0.4191
 3357WAT      O15232  -5.287   8.354   3.910 -0.2962  0.5782  0.2112
 3357WAT     H115233  -5.210   8.396   3.873 -0.9787  2.4663  0.7825
 3357WAT     H215234  -5.318   8.416   3.976 -1.4669 -0.8012  1.0241
 3357WAT    EPW15235  -5.281   8.368   3.914 -0.5405  0.6452  0.3939
 3358WAT      O15236  -1.094   4.836   4.943  0.0274  0.1507  0.4120
 3358WAT     H115237  -1.104   4.827   4.848 -2.5438  0.2851  0.5982
 3358WAT     H215238  -1.021   4.897   4.954  1.1336 -0.7635 -1.4187
 3358WAT    EPW15239  -1.086   4.843   4.932 -0.1658  0.0479  0.1950
 3359WAT      O15240  -1.499   6.525   0.798 -0.0514  0.8415 -0.3998
 3359WAT     H115241  -1.416   6.510   0.752 -0.0654 -0.9367  0.0642
 3359WAT     H215242  -1.492   6.615   0.830  2.1499  0.4292  0.5060
 3359WAT    EPW15243  -1.487   6.535   0.796  0.2371  0.5527 -0.2191
 3360WAT      O15244  -3.269  10.298   1.768 -0.3796  0.0346 -0.3651
 3360WAT     H115245  -3.229  10.303   1.855 -0.1654 -4.8638  0.1382
 3360WAT     H215246  -3.361  10.280   1.786 -0.7525  0.9632 -1.2576
 3360WAT    EPW15247  -3.276  10.296   1.782 -0.4004 -0.4892 -0.4165
 3361WAT      O15248  -1.917   4.650   7.088 -0.3054  0.2094 -0.2376
 3361WAT     H115249  -1.966   4.595   7.149  1.9836 -1.3093  0.3641
 3361WAT     H215250  -1.882   4.589   7.023  2.4826  0.8057  0.5589
 3361WAT    EPW15251  -1.919   4.634   7.087  0.3642  0.0877 -0.0532
 3362WAT      O15252  -2.959   5.973   5.563 -0.9967  0.5796 -0.3439
 3362WAT     H115253  -2.918   5.892   5.595  4.2488  2.6994 -0.7981
 3362WAT     H215254  -2.978   5.955   5.471 -0.1180 -0.1928 -0.3835
 3362WAT    EPW15255  -2.956   5.960   5.555 -0.1891  0.7572 -0.4091
 3363WAT      O15256  -0.062   2.305   1.071 -0.4099  0.3654  0.5181
 3363WAT     H115257  -0.019   2.390   1.079 -1.5723  0.8965  1.5554
 3363WAT     H215258  -0.153   2.326   1.047 -0.0781 -0.7404 -2.0213
 3363WAT    EPW15259  -0.069   2.319   1.069 -0.5194  0.2896  0.3200
 3364WAT      O15260   2.539   9.883   2.423 -0.5478  0.0434 -0.4064
 3364WAT     H115261   2.571   9.821   2.489  0.0269  0.2831 -0.4550
 3364WAT     H215262   2.584   9.965   2.444 -1.3089  0.4494 -0.3401
 3364WAT    EPW15263   2.549   9.886   2.434 -0.5724  0.1287 -0.4041
 3365WAT      O15264   5.469   2.425   1.041  0.0586  0.7428  0.0559
 3365WAT     H115265   5.523   2.346   1.037  0.1275  0.7964 -0.0999
 3365WAT     H215266   5.532   2.497   1.029  0.1245  0.8696  1.0250
 3365WAT    EPW15267   5.485   2.424   1.039  0.0763  0.7666  0.1631
 3366WAT      O15268  -0.205   7.243   6.802  0.0048 -0.1883 -0.0339
 3366WAT     H115269  -0.180   7.253   6.894 -1.3382  0.6390  0.2666
 3366WAT     H215270  -0.290   7.198   6.805 -0.6545  0.9756 -0.7934
 3366WAT    EPW15271  -0.213   7.238   6.815 -0.2593  0.0746 -0.0944
 3367WAT      O15272   0.953   5.938   3.235  0.0612  0.4283 -0.1197
 3367WAT     H115273   0.858   5.926   3.229  0.0814 -0.7192  1.2220
 3367WAT     H215274   0.967   5.968   3.325  0.8007  2.9358 -1.0065
 3367WAT    EPW15275   0.942   5.940   3.246  0.1614  0.6077 -0.0597
 3368WAT      O15276   0.632   5.838   7.746 -0.2344  0.1499 -0.2198
 3368WAT     H115277   0.657   5.851   7.655  0.7318  1.2774  0.1854
 3368WAT     H215278   0.536   5.834   7.744 -0.2015 -1.7104 -1.4819
 3368WAT    EPW15279   0.623   5.839   7.734 -0.1026  0.0534 -0.3328
 3369WAT      O15280  -1.779   4.680   8.400  0.3616 -0.5996 -0.3659
 3369WAT     H115281  -1.765   4.693   8.494 -0.2144 -0.0665 -0.3535
 3369WAT     H215282  -1.779   4.768   8.363  1.0212 -0.8253 -0.9371
 3369WAT    EPW15283  -1.777   4.693   8.408  0.3726 -0.5589 -0.4392
 3370WAT      O15284  -1.235   2.997   2.817 -0.3975  0.1417 -0.8302
 3370WAT     H115285  -1.324   2.962   2.827  0.2516 -0.8142  3.2795
 3370WAT     H215286  -1.187   2.925   2.775 -0.5263 -1.5480  1.6892
 3370WAT    EPW15287  -1.241   2.983   2.813 -0.3289 -0.2072  0.0441
 3371WAT      O15288  -1.444   2.774   5.966  0.5083 -0.1862  0.3413
 3371WAT     H115289  -1.398   2.826   6.032  1.3126 -1.2435  0.6552
 3371WAT     H215290  -1.523   2.824   5.946  1.1752  1.0630  0.7280
 3371WAT    EPW15291  -1.448   2.787   5.972  0.7023 -0.1608  0.4337
 3372WAT      O15292  -3.217   9.670   4.587 -0.5566  0.0160  0.1784
 3372WAT     H115293  -3.261   9.589   4.560 -0.8707 -0.1665  1.1911
 3372WAT     H215294  -3.168   9.645   4.665 -0.5369  0.7781  0.4121
 3372WAT    EPW15295  -3.216   9.656   4.593 -0.5955  0.0925  0.3428
 3373WAT      O15296  -2.162   2.485   5.254  0.2340 -0.4067 -0.2780
 3373WAT     H115297  -2.178   2.440   5.171  2.8827  1.3188 -1.8637
 3373WAT     H215298  -2.193   2.575   5.238 -1.3745 -0.5984  1.4702
 3373WAT    EPW15299  -2.168   2.491   5.241  0.3712 -0.2044 -0.2565
 3374WAT      O15300   4.774   7.969   2.100  0.2851 -0.0384 -0.2845
 3374WAT     H115301   4.691   7.969   2.148  0.3320  0.6647 -0.1886
 3374WAT     H215302   4.766   8.040   2.037  0.4607 -0.5699 -0.9197
 3374WAT    EPW15303   4.762   7.978   2.098  0.3142 -0.0157 -0.3557
 3375WAT      O15304   0.933   4.895   4.724 -0.2388 -0.7346 -0.3375
 3375WAT     H115305   0.852   4.858   4.758 -0.3841 -1.8122 -1.7784
 3375WAT     H215306   0.929   4.988   4.747 -1.8372 -0.7907 -0.3191
 3375WAT    EPW15307   0.922   4.903   4.732 -0.4688 -0.8841 -0.5250
 3376WAT      O15308  -2.363  10.156   8.114  0.7172 -0.6879  0.8836
 3376WAT     H115309  -2.401  10.230   8.161 -0.3234 -0.8196  0.2811
 3376WAT     H215310  -2.438  10.103   8.087  1.4740 -2.4577  2.0402
 3376WAT    EPW15311  -2.378  10.159   8.116  0.6797 -0.9384  0.9570
 3377WAT      O15312   2.619   1.253   4.943  0.0336 -0.2114 -0.0751
 3377WAT     H115313   2.627   1.162   4.974  0.4216 -0.2319 -0.2303
 3377WAT     H215314   2.548   1.289   4.995  0.7493 -0.2175  0.9432
 3377WAT    EPW15315   2.611   1.246   4.954  0.1791 -0.2149  0.0389
 3378WAT      O15316   0.291   5.154   0.538 -0.7832 -0.6762  0.0914
 3378WAT     H115317   0.371   5.113   0.505 -0.0360 -0.3338  1.4154
 3378WAT     H215318   0.267   5.100   0.613  0.0907  1.1251  1.7352
 3378WAT    EPW15319   0.298   5.141   0.543 -0.5694 -0.3936  0.4828
 3379WAT      O15320  -0.361   0.867   7.051 -0.2655 -0.1372 -0.0614
 3379WAT     H115321  -0.394   0.956   7.035 -0.9706 -0.2875  0.5053
 3379WAT     H215322  -0.426   0.810   7.009  0.4488 -0.3817 -0.8690
 3379WAT    EPW15323  -0.374   0.871   7.043 -0.2643 -0.1893 -0.0930
 3380WAT      O15324  -3.069   8.417   7.578 -0.3069 -0.3698  0.2622
 3380WAT     H115325  -3.076   8.324   7.601  0.7575 -0.3172  0.8774
 3380WAT     H215326  -2.976   8.437   7.589 -0.3264  0.4947 -0.9746
 3380WAT    EPW15327  -3.058   8.407   7.583 -0.1692 -0.2489  0.1802
 3381WAT      O15328  -0.083   8.885   8.200 -0.3381  0.2537 -0.0423
 3381WAT     H115329  -0.137   8.815   8.236 -2.0095  1.7747  0.4848
 3381WAT     H215330  -0.067   8.858   8.109 -1.5328 -0.4775 -0.0496
 3381WAT    EPW15331  -0.088   8.872   8.193 -0.7162  0.3576  0.0262
 3382WAT      O15332   2.805   5.673   4.961  0.1850  0.2827 -0.2464
 3382WAT     H115333   2.893   5.691   4.929  0.1436  1.7807  0.3873
 3382WAT     H215334   2.788   5.582   4.936  1.8932 -0.0285 -0.3908
 3382WAT    EPW15335   2.814   5.663   4.954  0.4050  0.4394 -0.1822
 3383WAT      O15336   2.780   5.134   8.068 -0.1136  0.1630  0.0983
 3383WAT     H115337   2.836   5.111   8.142  1.0587 -1.8971 -1.3133
 3383WAT     H215338   2.830   5.200   8.020 -0.4059  0.7288  0.5545
 3383WAT    EPW15339   2.794   5.139   8.072  0.0025 -0.0343 -0.0277
 3384WAT      O15340   3.370   2.503   8.140  0.6302 -0.6508 -0.2896
 3384WAT     H115341   3.395   2.591   8.114 -2.9724  0.3949 -0.7492
 3384WAT     H215342   3.447   2.468   8.184  2.4935  2.3540 -0.8982
 3384WAT    EPW15343   3.383   2.510   8.142  0.4008 -0.1167 -0.4306
 3385WAT      O15344   3.272   4.184   0.295 -0.1662 -0.8453 -0.1711
 3385WAT     H115345   3.278   4.248   0.366  1.9963 -0.1055 -0.9476
 3385WAT     H215346   3.283   4.099   0.339 -1.1618 -0.5867  0.6240
 3385WAT    EPW15347   3.274   4.181   0.310 -0.0122 -0.7138 -0.1687
 3386WAT      O15348  -0.198   3.203   7.970 -0.3937  0.1989  0.1166
 3386WAT     H115349  -0.235   3.118   7.947  1.2900 -1.6672  3.5361
 3386WAT     H215350  -0.268   3.247   8.018 -1.1823  0.7255 -1.4386
 3386WAT    EPW15351  -0.212   3.197   7.973 -0.2756  0.0222  0.3624
 3387WAT      O15352   1.051   0.739   5.979 -0.2361  0.3643  0.2435
 3387WAT     H115353   1.146   0.746   5.983 -0.0310 -1.7067  0.0778
 3387WAT     H215354   1.027   0.692   6.059 -1.0049 -0.0225 -0.2054
 3387WAT    EPW15355   1.060   0.734   5.990 -0.3105  0.0401  0.1624
 3388WAT      O15356   1.692   3.900   4.568 -0.6498 -0.2276  0.3093
 3388WAT     H115357   1.741   3.978   4.544 -0.6137 -0.0393  0.9881
 3388WAT     H215358   1.752   3.828   4.549 -0.7860 -0.1273 -0.5893
 3388WAT    EPW15359   1.707   3.901   4.562 -0.6630 -0.1897  0.2804
 3389WAT      O15360   6.890   6.362   2.386  0.2826  0.0010  0.6060
 3389WAT     H115361   6.863   6.454   2.393 -0.8578 -0.3508  1.0245
 3389WAT     H215362   6.831   6.315   2.445  1.0929 -0.9656  0.6853
 3389WAT    EPW15363   6.879   6.368   2.395  0.2391 -0.1731  0.6716
 3390WAT      O15364   2.114   0.033   0.575 -0.0989  0.2693 -0.2274
 3390WAT     H115365   2.127   0.104   0.638  1.0842  0.6121 -0.8248
 3390WAT     H215366   2.197  -0.015   0.577  0.2188  0.6746 -1.9770
 3390WAT    EPW15367   2.127   0.036   0.584  0.0989  0.3680 -0.5369
 3391WAT      O15368  -3.282   8.782   0.717  0.3715 -0.4158 -0.5604
 3391WAT     H115369  -3.291   8.729   0.796  0.9214  3.1361  2.1584
 3391WAT     H215370  -3.199   8.753   0.678  3.1016  1.1891  3.3672
 3391WAT    EPW15371  -3.272   8.771   0.722  0.8041  0.2642  0.3162
 3392WAT      O15372  10.007   1.585   0.304 -0.1250  0.2400 -0.4047
 3392WAT     H115373  10.078   1.642   0.334  1.6012 -1.2660 -1.4566
 3392WAT     H215374  10.045   1.535   0.231 -2.7359  0.4869 -2.0888
 3392WAT    EPW15375  10.021   1.586   0.298 -0.2418  0.0739 -0.7655
 3393WAT      O15376   4.802   3.662   1.088 -0.3308  0.6620  0.3259
 3393WAT     H115377   4.708   3.653   1.073  0.1165 -1.2670 -1.6641
 3393WAT     H215378   4.841   3.666   1.001  1.6020 -0.5315  1.0711
 3393WAT    EPW15379   4.795   3.661   1.075 -0.0169  0.2501  0.1618
 3394WAT      O15380   4.965   0.660   5.235 -0.4264 -0.2204  0.2484
 3394WAT     H115381   4.883   0.647   5.187  0.0190 -0.0658 -0.5837
 3394WAT     H215382   5.033   0.626   5.176  0.3270  1.7072 -0.0747
 3394WAT    EPW15383   4.963   0.654   5.221 -0.2685  0.0542  0.0961
 3395WAT      O15384  -2.576   7.894   6.790  0.4359 -0.2021  0.5373
 3395WAT     H115385  -2.585   7.843   6.710 -0.2754 -1.2104  1.2321
 3395WAT     H215386  -2.650   7.867   6.844  2.2681 -1.4459  2.5695
 3395WAT    EPW15387  -2.587   7.884   6.787  0.5838 -0.4992  0.8972
 3396WAT      O15388   3.484   5.414   4.995  0.5159  0.5565  0.3456
 3396WAT     H115389   3.437   5.336   5.024 -0.8595  0.8469 -0.9927
 3396WAT     H215390   3.448   5.485   5.047 -0.4074  0.7422 -0.5177
 3396WAT    EPW15391   3.473   5.413   5.005  0.2126  0.6194  0.0553
 3397WAT      O15392   8.261   5.549   1.185 -1.1829 -0.7989  0.3253
 3397WAT     H115393   8.325   5.585   1.247  0.2419 -4.9211  1.5733
 3397WAT     H215394   8.297   5.569   1.099 -0.4180  0.4942  0.9173
 3397WAT    EPW15395   8.274   5.557   1.182 -0.8941 -1.1721  0.5680
 3398WAT      O15396  -4.652   8.987   7.315 -0.1765 -0.3647  0.1689
 3398WAT     H115397  -4.701   8.918   7.358  1.0195 -0.0902  2.0691
 3398WAT     H215398  -4.571   8.944   7.285 -0.7531 -0.4300 -1.4052
 3398WAT    EPW15399  -4.648   8.972   7.317 -0.0947 -0.3371  0.2117
 3399WAT      O15400  -0.621   9.769   1.393  0.6590  0.1640  0.2640
 3399WAT     H115401  -0.594   9.772   1.301 -1.0396 -0.4834 -0.2972
 3399WAT     H215402  -0.689   9.836   1.400  1.9036  1.3631  1.4865
 3399WAT    EPW15403  -0.626   9.778   1.382  0.5991  0.2365  0.3513
 3400WAT      O15404   1.332  10.144   5.219 -0.2364 -0.5677  0.0024
 3400WAT     H115405   1.321  10.177   5.129  1.0346  1.0240  0.3621
 3400WAT     H215406   1.358  10.053   5.208  0.3091 -0.2842 -1.2950
 3400WAT    EPW15407   1.334  10.137   5.206  0.0032 -0.3204 -0.1214
 3401WAT      O15408   0.640   2.325   0.593 -0.2041 -0.0118  0.2434
 3401WAT     H115409   0.602   2.292   0.675 -2.1194  1.1273 -0.1161
 3401WAT     H215410   0.575   2.302   0.526 -0.0562  1.6324 -0.4977
 3401WAT    EPW15411   0.626   2.317   0.595 -0.4372  0.3554  0.0982
 3402WAT      O15412  -0.378   5.256   4.190 -0.2967 -0.7095 -0.2430
 3402WAT     H115413  -0.320   5.331   4.202 -0.9421  0.0636 -1.7578
 3402WAT     H215414  -0.330   5.197   4.132 -0.0077 -1.2398  0.5229
 3402WAT    EPW15415  -0.364   5.258   4.184 -0.3437 -0.6776 -0.3419
 3403WAT      O15416   6.103   6.828   1.214 -1.0542 -0.0681  0.6716
 3403WAT     H115417   6.116   6.736   1.193 -3.2954  0.0962 -2.1344
 3403WAT     H215418   6.061   6.864   1.135 -1.4452  3.0467  2.1660
 3403WAT    EPW15419   6.099   6.821   1.201 -1.4014  0.3645  0.4986
 3404WAT      O15420   4.987   7.211   2.063 -0.1021 -0.3602  0.4564
 3404WAT     H115421   4.905   7.191   2.017  0.0839  0.9494 -0.5054
 3404WAT     H215422   4.977   7.301   2.092  0.5880 -0.5374  1.2843
 3404WAT    EPW15423   4.975   7.220   2.060  0.0134 -0.2110  0.4388
 3405WAT      O15424   4.327   8.117   5.122  0.0588 -0.7039  0.2732
 3405WAT     H115425   4.325   8.101   5.028  1.3384 -0.2565  0.1449
 3405WAT     H215426   4.389   8.052   5.156 -0.6154 -1.0560  0.8576
 3405WAT    EPW15427   4.335   8.106   5.114  0.1388 -0.6914  0.3333
 3406WAT      O15428   0.857   1.050   3.857  0.1327  0.3669  0.6225
 3406WAT     H115429   0.805   1.128   3.840 -1.1293  0.1866  3.2485
 3406WAT     H215430   0.793   0.981   3.873  1.2232 -1.1911 -1.3252
 3406WAT    EPW15431   0.842   1.051   3.857  0.1101  0.1376  0.7119
 3407WAT      O15432  -7.218   7.984   7.482  0.5563 -0.8914 -0.2761
 3407WAT     H115433  -7.189   8.050   7.545  1.2687 -2.7995  1.5060
 3407WAT     H215434  -7.249   7.911   7.536  1.6408 -2.8187 -2.1279
 3407WAT    EPW15435  -7.219   7.983   7.497  0.7932 -1.3974 -0.2854
 3408WAT      O15436  -1.119   9.442   6.637  0.0324 -0.9409 -0.4088
 3408WAT     H115437  -1.196   9.498   6.645 -1.1587 -2.5017 -0.6104
 3408WAT     H215438  -1.049   9.502   6.610 -0.1096  1.2597  3.4075
 3408WAT    EPW15439  -1.120   9.457   6.635 -0.1434 -0.8564  0.0679
 3409WAT      O15440  -0.854   9.321   4.204  0.2563  0.0280  0.8362
 3409WAT     H115441  -0.862   9.353   4.114 -0.2839 -2.7270 -0.1674
 3409WAT     H215442  -0.759   9.311   4.217  0.6251  3.5575  1.8570
 3409WAT    EPW15443  -0.842   9.324   4.194  0.2337  0.1302  0.8383
 3410WAT      O15444   4.665   1.372   6.682 -0.6253  0.0926  0.3492
 3410WAT     H115445   4.627   1.382   6.770 -2.1319 -1.6421 -0.0640
 3410WAT     H215446   4.592   1.387   6.622 -0.4857 -2.3041 -0.4922
 3410WAT    EPW15447   4.650   1.376   6.686 -0.8056 -0.4523  0.1836
 3411WAT      O15448  -0.494   7.896   6.833 -0.0754 -0.5613  0.2679
 3411WAT     H115449  -0.425   7.927   6.892 -0.3312 -2.8930  1.8715
 3411WAT     H215450  -0.447   7.877   6.751  0.8535 -0.4328  0.7524
 3411WAT    EPW15451  -0.478   7.898   6.830  0.0134 -0.8519  0.5434
 3412WAT      O15452  -1.623   0.228   7.824  0.2769  0.2429 -0.4550
 3412WAT     H115453  -1.683   0.171   7.872 -1.1135  1.7548 -0.2858
 3412WAT     H215454  -1.537   0.189   7.836 -0.5124 -1.3342  0.3312
 3412WAT    EPW15455  -1.620   0.215   7.832 -0.0106  0.2343 -0.3288
 3413WAT      O15456   4.843   4.730   6.528  0.2583 -0.2356 -0.2615
 3413WAT     H115457   4.770   4.770   6.574 -1.1439 -3.5018  0.6619
 3413WAT     H215458   4.818   4.734   6.435  0.0987  0.8275 -0.1775
 3413WAT    EPW15459   4.830   4.736   6.522  0.0522 -0.5262 -0.1287
 3414WAT      O15460   2.899   6.992   7.741 -0.2772 -0.1474  0.2649
 3414WAT     H115461   2.953   7.066   7.768  0.6135 -0.0288 -1.6701
 3414WAT     H215462   2.956   6.916   7.752  0.0163 -0.1226 -0.9597
 3414WAT    EPW15463   2.914   6.992   7.746 -0.1210 -0.1283 -0.1516
 3415WAT      O15464  -1.597   2.405   7.923 -0.0203 -0.2743  0.1209
 3415WAT     H115465  -1.506   2.404   7.951 -0.1551  2.0385  0.8014
 3415WAT     H215466  -1.594   2.380   7.831  1.1208 -1.4749  0.4435
 3415WAT    EPW15467  -1.585   2.401   7.915  0.1125 -0.1277  0.2532
 3416WAT      O15468   3.849   2.281   3.621 -0.3181  0.6512 -0.0848
 3416WAT     H115469   3.814   2.371   3.617 -0.4960  0.7357  1.9705
 3416WAT     H215470   3.793   2.238   3.686 -0.0753 -0.8934 -0.8780
 3416WAT    EPW15471   3.837   2.287   3.629 -0.3096  0.4586  0.0818
 3417WAT      O15472  -3.986   2.792   5.217  0.0918 -0.4621  0.6628
 3417WAT     H115473  -4.070   2.748   5.230 -0.4778 -0.3028 -1.9744
 3417WAT     H215474  -4.004   2.858   5.150  2.0069  0.5966  1.1370
 3417WAT    EPW15475  -4.000   2.794   5.210  0.2693 -0.3016  0.3774
 3418WAT      O15476   8.215   4.822   0.194  0.0373 -0.0849 -0.1139
 3418WAT     H115477   8.261   4.858   0.270  1.5388  0.5816 -1.3007
 3418WAT     H215478   8.283   4.811   0.127 -1.2553 -0.5939 -1.3953
 3418WAT    EPW15479   8.230   4.825   0.195  0.0644 -0.0639 -0.4395
 3419WAT      O15480   5.524   3.860   4.123  0.1458 -0.2792 -1.2017
 3419WAT     H115481   5.607   3.834   4.084  0.3686  0.1089 -0.9903
 3419WAT     H215482   5.496   3.783   4.173  1.2189  0.1523  0.1092
 3419WAT    EPW15483   5.531   3.846   4.124  0.3166 -0.1711 -1.0009
 3420WAT      O15484  -1.277   8.869   8.679 -0.3291  0.3347  0.4812
 3420WAT     H115485  -1.290   8.863   8.774 -3.2208  0.4965  0.1897
 3420WAT     H215486  -1.189   8.835   8.664  0.1407  0.1633  3.1920
 3420WAT    EPW15487  -1.268   8.864   8.690 -0.6486  0.3333  0.8001
 3421WAT      O15488  -3.428   9.045   6.505 -0.1534 -0.1923 -0.2979
 3421WAT     H115489  -3.520   9.057   6.526 -0.0339  1.5968 -0.7088
 3421WAT     H215490  -3.428   9.008   6.417 -0.4761 -1.0045  0.0299
 3421WAT    EPW15491  -3.440   9.041   6.496 -0.1801 -0.0634 -0.3088
 3422WAT      O15492   3.902   0.864   6.891  0.1914  0.1465 -0.8990
 3422WAT     H115493   3.857   0.916   6.825  0.8934  0.5593 -1.0563
 3422WAT     H215494   3.990   0.851   6.857  1.1265  1.8347  0.6914
 3422WAT    EPW15495   3.908   0.869   6.878  0.4072  0.4236 -0.7100
 3423WAT      O15496   2.123   4.062   0.566 -0.2281  0.0359  0.2167
 3423WAT     H115497   2.214   4.037   0.550  0.0745  1.4594 -0.4424
 3423WAT     H215498   2.124   4.099   0.654 -0.7460 -2.4406  1.3411
 3423WAT    EPW15499   2.135   4.063   0.575 -0.2565 -0.1032  0.2781
 3424WAT      O15500  -0.458   4.621   7.206  0.2555 -0.0032 -0.0631
 3424WAT     H115501  -0.543   4.577   7.210 -0.5582  1.4948 -0.3063
 3424WAT     H215502  -0.413   4.579   7.133 -1.2805  0.8382 -1.5758
 3424WAT    EPW15503  -0.464   4.610   7.197 -0.0544  0.3054 -0.2944
 3425WAT      O15504   2.452   1.175   0.842 -0.0833  0.0517  0.3702
 3425WAT     H115505   2.482   1.179   0.751  0.4181 -0.3946  0.5118
 3425WAT     H215506   2.391   1.102   0.845 -0.2802  0.2142  0.3424
 3425WAT    EPW15507   2.448   1.166   0.830 -0.0432  0.0142  0.3852
 3426WAT      O15508   0.222   5.361   8.541 -0.4978 -0.1823 -0.0320
 3426WAT     H115509   0.292   5.423   8.520 -2.0293  1.6336  0.0434
 3426WAT     H215510   0.256   5.312   8.617  0.2150  1.4867  0.7694
 3426WAT    EPW15511   0.236   5.362   8.549 -0.6058  0.2773  0.0834
 3427WAT      O15512   6.393   1.297   2.227  0.4308 -0.6005  0.2888
 3427WAT     H115513   6.353   1.313   2.141 -1.1979  1.3010  1.3066
 3427WAT     H215514   6.322   1.261   2.280  0.5867  0.8940  1.5898
 3427WAT    EPW15515   6.378   1.294   2.223  0.2365 -0.1526  0.5945
 3428WAT      O15516   7.425   8.848   0.047  0.3309  0.3512  0.0733
 3428WAT     H115517   7.444   8.915  -0.019  2.7629 -1.2914 -1.0421
 3428WAT     H215518   7.372   8.783   0.001 -2.6911  1.7160  1.3587
 3428WAT    EPW15519   7.421   8.848   0.032  0.2531  0.3145  0.0958
 3429WAT      O15520  -0.917   8.648   0.403 -0.7206 -0.9363  0.3501
 3429WAT     H115521  -0.932   8.699   0.483 -0.4183 -0.1431 -0.0878
 3429WAT     H215522  -1.004   8.618   0.377 -1.1996  0.9515 -0.4171
 3429WAT    EPW15523  -0.931   8.651   0.410 -0.7440 -0.5827  0.1911
 3430WAT      O15524  -4.213   4.290   5.463  0.0044 -0.0966  0.1308
 3430WAT     H115525  -4.129   4.249   5.484 -0.1686  0.0052  1.0769
 3430WAT     H215526  -4.205   4.314   5.371  1.2558  0.4931  0.3671
 3430WAT    EPW15527  -4.201   4.288   5.453  0.1469 -0.0055  0.2866
 3431WAT      O15528  -3.169   4.800   7.127  0.0507 -0.7402  0.0243
 3431WAT     H115529  -3.143   4.710   7.104 -0.0205 -1.1571  1.4939
 3431WAT     H215530  -3.086   4.843   7.149 -0.1936 -1.6649  3.3167
 3431WAT    EPW15531  -3.154   4.794   7.127  0.0091 -0.9172  0.6523
 3432WAT      O15532  -4.953   2.811   6.786 -0.0313  0.6736 -0.0273
 3432WAT     H115533  -4.959   2.812   6.690 -0.1854 -0.2990 -0.0416
 3432WAT     H215534  -4.919   2.897   6.809  1.2842  0.4557 -1.0402
 3432WAT    EPW15535  -4.950   2.822   6.776  0.1218  0.5167 -0.1628
 3433WAT      O15536  -3.009   6.911   4.072  0.4316 -0.0281 -0.2169
 3433WAT     H115537  -3.041   6.927   3.983 -1.4333  3.3171  0.8949
 3433WAT     H215538  -3.060   6.836   4.102  1.6470 -1.7209 -2.1261
 3433WAT    EPW15539  -3.020   6.903   4.064  0.3458  0.1898 -0.3221
 3434WAT      O15540   5.147   2.428   3.387 -0.8573 -0.1819 -0.2160
 3434WAT     H115541   5.228   2.422   3.438 -0.1740  0.8436 -1.1215
 3434WAT     H215542   5.115   2.338   3.381  0.3107 -0.6313  0.0219
 3434WAT    EPW15543   5.154   2.416   3.393 -0.6132 -0.1059 -0.3041
 3435WAT      O15544   6.787   9.313   1.054  0.1319 -0.2509 -0.5719
 3435WAT     H115545   6.867   9.366   1.058  0.9175 -1.4417  0.0232
 3435WAT     H215546   6.743   9.343   0.975 -0.3582  2.5050  0.6440
 3435WAT    EPW15547   6.792   9.324   1.044  0.1709 -0.0448 -0.3330
 3436WAT      O15548  -3.801   8.259   7.530  0.0038  0.8968  0.3932
 3436WAT     H115549  -3.743   8.183   7.528  1.7501  2.1206  1.2687
 3436WAT     H215550  -3.742   8.333   7.516 -1.7484  2.0700 -1.1956
 3436WAT    EPW15551  -3.785   8.259   7.528  0.0031  1.2131  0.2990
 3437WAT      O15552   7.189   0.920   1.896  0.2893  0.4143  0.6957
 3437WAT     H115553   7.159   0.982   1.962 -3.0281 -1.1968  0.9208
 3437WAT     H215554   7.165   0.834   1.931 -0.9369 -0.5562 -2.2113
 3437WAT    EPW15555   7.182   0.917   1.909 -0.3099  0.0738  0.3420
 3438WAT      O15556  -4.495   2.817   8.710  0.0386  0.2514  0.1812
 3438WAT     H115557  -4.563   2.874   8.747  0.9037  1.6128 -0.2759
 3438WAT     H215558  -4.509   2.822   8.615  1.9364  2.1364 -0.0722
 3438WAT    EPW15559  -4.506   2.825   8.702  0.4029  0.6795  0.0873
 3439WAT      O15560  -5.504   5.065   8.019  0.6004 -0.3580 -0.3958
 3439WAT     H115561  -5.430   5.119   7.994  1.6773 -2.4203 -1.9145
 3439WAT     H215562  -5.532   5.101   8.104  1.7877  1.9454 -0.8963
 3439WAT    EPW15563  -5.498   5.077   8.027  0.8991 -0.3262 -0.6623
 3440WAT      O15564  -3.819   3.355   5.342  0.1024 -0.1212  0.4721
 3440WAT     H115565  -3.819   3.307   5.260 -0.9999  0.8025 -0.0954
 3440WAT     H215566  -3.741   3.409   5.339  1.0406 -1.3997  0.8615
 3440WAT    EPW15567  -3.809   3.356   5.331  0.0808 -0.1680  0.4485
 3441WAT      O15568  -0.708   9.516   1.431 -0.4289 -0.7274  0.3846
 3441WAT     H115569  -0.658   9.595   1.411 -0.5017 -1.2184 -1.9912
 3441WAT     H215570  -0.799   9.541   1.415 -0.4730 -1.1991 -0.1326
 3441WAT    EPW15571  -0.714   9.530   1.426 -0.4444 -0.8540  0.0029
 3442WAT      O15572   1.051   1.664   3.858 -0.3995 -0.2887  0.7069
 3442WAT     H115573   1.137   1.654   3.818 -0.3091 -1.4291  1.1611
 3442WAT     H215574   0.992   1.680   3.784 -0.0712 -1.2905  0.2090
 3442WAT    EPW15575   1.054   1.665   3.843 -0.3442 -0.5713  0.7011
 3443WAT      O15576  -3.769   5.097   8.817  0.3455  0.1788  1.0408
 3443WAT     H115577  -3.718   5.163   8.770  1.5913 -1.9506 -0.7375
 3443WAT     H215578  -3.825   5.057   8.751 -1.8023  0.6340  2.4484
 3443WAT    EPW15579  -3.770   5.101   8.802  0.2265 -0.0422  0.9918
 3444WAT      O15580   7.389   3.484   0.279 -0.1051 -0.2924  0.3517
 3444WAT     H115581   7.471   3.514   0.240  0.3223 -0.8881  0.7829
 3444WAT     H215582   7.346   3.435   0.208 -0.2700  0.3218  0.0132
 3444WAT    EPW15583   7.394   3.482   0.264 -0.0703 -0.2898  0.3639
 3445WAT      O15584   3.407   5.168   5.122  0.1893 -0.5251 -0.2316
 3445WAT     H115585   3.358   5.094   5.158  0.4837 -1.1405 -1.0722
 3445WAT     H215586   3.489   5.168   5.172 -0.2331 -0.1192  0.4777
 3445WAT    EPW15587   3.412   5.158   5.133  0.1725 -0.5527 -0.2489
 3446WAT      O15588   3.231   4.633   0.607 -0.5944 -0.7515  0.3912
 3446WAT     H115589   3.205   4.725   0.598  0.6994 -0.4231 -0.2260
 3446WAT     H215590   3.222   4.597   0.519  0.2291 -0.8416  0.3382
 3446WAT    EPW15591   3.227   4.641   0.594 -0.3152 -0.7200  0.3028
 3447WAT      O15592   0.349   0.131   1.605  0.1732  0.3803  0.4951
 3447WAT     H115593   0.374   0.049   1.647  0.4687  0.6909  0.9246
 3447WAT     H215594   0.415   0.194   1.633  0.8826  0.4049 -1.1004
 3447WAT    EPW15595   0.361   0.128   1.614  0.3058  0.4245  0.3413
 3448WAT      O15596   0.054   5.404   8.133 -0.1702 -0.1899 -0.0631
 3448WAT     H115597  -0.002   5.410   8.056  1.0963  1.4668 -0.9191
 3448WAT     H215598  -0.006   5.390   8.206 -1.6787  1.1800 -0.9895
 3448WAT    EPW15599   0.039   5.403   8.132 -0.2021  0.2096 -0.2985
 3449WAT      O15600   4.082   1.020   8.576 -0.1456  0.0429 -0.5029
 3449WAT     H115601   4.142   0.997   8.505 -0.0554  0.0454 -0.4277
 3449WAT     H215602   4.116   1.103   8.610 -1.4308  1.1672 -1.8468
 3449WAT    EPW15603   4.095   1.028   8.571 -0.3033  0.1915 -0.6704
 3450WAT      O15604   0.178   1.929   2.428  0.3948  0.3711  0.7495
 3450WAT     H115605   0.178   1.837   2.400 -1.9718  1.5649 -4.3119
 3450WAT     H215606   0.269   1.958   2.415  1.2370 -1.1747  2.6899
 3450WAT    EPW15607   0.190   1.921   2.423  0.1938  0.3247  0.3380
 3451WAT      O15608  -4.829   8.602   8.252  0.0636 -0.7374 -0.7501
 3451WAT     H115609  -4.829   8.698   8.263  0.0235 -0.8940  0.9192
 3451WAT     H215610  -4.737   8.578   8.261 -0.1536 -1.0301  0.8639
 3451WAT    EPW15611  -4.817   8.612   8.255  0.0296 -0.7968 -0.3171
 3452WAT      O15612  -1.556   9.516   6.134 -0.3059  0.0662  0.3504
 3452WAT     H115613  -1.534   9.553   6.220 -0.8151  1.3868 -0.0785
 3452WAT     H215614  -1.555   9.591   6.075 -3.7822 -0.1378 -0.1172
 3452WAT    EPW15615  -1.553   9.531   6.138 -0.8315  0.2131  0.2325
 3453WAT      O15616  -1.401   0.208   5.713  0.0112  0.0385 -0.6470
 3453WAT     H115617  -1.454   0.189   5.635 -1.0864 -0.7954  0.2672
 3453WAT     H215618  -1.392   0.123   5.756  0.7738  0.4606  0.0319
 3453WAT    EPW15619  -1.407   0.194   5.708 -0.0330 -0.0158 -0.4368
 3454WAT      O15620  -5.211   6.992   5.516 -0.3207 -0.1470 -0.6424
 3454WAT     H115621  -5.173   6.938   5.447 -1.5532 -1.6873 -0.1951
 3454WAT     H215622  -5.255   7.063   5.469  0.0737 -0.3605 -1.3538
 3454WAT    EPW15623  -5.212   6.994   5.501 -0.4315 -0.3781 -0.6773
 3455WAT      O15624   2.793   8.531   7.317  0.6251  0.0226  0.3719
 3455WAT     H115625   2.841   8.487   7.247  2.2639  0.8184  0.9363
 3455WAT     H215626   2.858   8.544   7.386 -0.0557  2.3566  0.6614
 3455WAT    EPW15627   2.808   8.527   7.317  0.7515  0.4358  0.4845
 3456WAT      O15628   1.433   7.015   1.992  0.6598 -0.3298 -0.5190
 3456WAT     H115629   1.484   7.095   2.005 -0.7673  0.3506  1.4555
 3456WAT     H215630   1.498   6.948   1.971  1.9326  1.2349 -1.7483
 3456WAT    EPW15631   1.448   7.017   1.991  0.6394 -0.0336 -0.4207
 3457WAT      O15632  -0.921   8.689   3.403  0.1318 -0.6834  0.6050
 3457WAT     H115633  -0.885   8.776   3.383 -1.8933  0.2195  0.6210
 3457WAT     H215634  -0.852   8.628   3.377  0.4666  0.7719 -2.4566
 3457WAT    EPW15635  -0.907   8.693   3.397 -0.0912 -0.3729  0.2033
 3458WAT      O15636   1.155   8.163   2.172  0.1538  0.6451  0.4041
 3458WAT     H115637   1.204   8.170   2.254  1.1621  0.0395 -0.1302
 3458WAT     H215638   1.173   8.075   2.140 -0.0522  0.9466 -0.5830
 3458WAT    EPW15639   1.163   8.153   2.179  0.2596  0.6051  0.2034
 3459WAT      O15640  -1.422   0.187   6.425 -0.2303 -0.4952 -0.3670
 3459WAT     H115641  -1.331   0.208   6.404  0.7074 -2.4977  1.3747
 3459WAT     H215642  -1.471   0.212   6.347  2.0695 -1.1667 -2.1230
 3459WAT    EPW15643  -1.417   0.193   6.412  0.1967 -0.8479 -0.3688
 3460WAT      O15644  -3.805   9.231   5.047 -0.1959 -0.0301  0.4866
 3460WAT     H115645  -3.790   9.324   5.033 -0.9289  0.7167  3.7879
 3460WAT     H215646  -3.842   9.200   4.965  2.1645  2.0211 -1.4929
 3460WAT    EPW15647  -3.808   9.239   5.035  0.0188  0.3390  0.6609
 3461WAT      O15648   2.633   9.906   4.775 -0.3120  0.2125 -0.1264
 3461WAT     H115649   2.578   9.926   4.850  0.9853 -0.2093  0.9663
 3461WAT     H215650   2.634   9.810   4.771  0.8236  0.1957  0.2536
 3461WAT    EPW15651   2.626   9.896   4.784  0.0089  0.1550  0.0679
 3462WAT      O15652   8.896   4.283   0.297 -0.4283  0.1665  0.2636
 3462WAT     H115653   8.831   4.298   0.366 -0.2104 -1.5953  0.8951
 3462WAT     H215654   8.970   4.338   0.323 -0.1430 -0.8548  1.7625
 3462WAT    EPW15655   8.897   4.292   0.310 -0.3624 -0.2005  0.5446
 3463WAT      O15656   2.340   7.266   5.406 -0.4970 -0.3907 -1.3478
 3463WAT     H115657   2.257   7.225   5.385 -1.5512  0.7412  0.3803
 3463WAT     H215658   2.368   7.307   5.325 -2.1217  0.0307 -1.7271
 3463WAT    EPW15659   2.333   7.266   5.393 -0.8503 -0.1860 -1.1699
 3464WAT      O15660   0.002   0.545   8.611  0.4884  0.2444 -0.1808
 3464WAT     H115661   0.085   0.586   8.633  1.1750 -0.3499 -1.4983
 3464WAT     H215662  -0.052   0.616   8.576  1.3166  0.2328 -1.5407
 3464WAT    EPW15663   0.006   0.560   8.609  0.6882  0.1644 -0.5341
 3465WAT      O15664  -8.177   9.442   8.796 -0.0240  0.3018 -0.5696
 3465WAT     H115665  -8.261   9.430   8.753 -0.0011 -1.5156 -0.1900
 3465WAT     H215666  -8.115   9.453   8.724 -0.2996 -0.4855 -0.9433
 3465WAT    EPW15667  -8.180   9.442   8.781 -0.0572 -0.0420 -0.5689
 3466WAT      O15668   3.244  10.350   3.867 -0.4333  0.9381  0.0369
 3466WAT     H115669   3.268  10.386   3.952 -1.7271  0.1853  0.7503
 3466WAT     H215670   3.259  10.256   3.876  0.0988  0.9318 -0.8203
 3466WAT    EPW15671   3.249  10.342   3.879 -0.5338  0.8378  0.0179
 3467WAT      O15672  -2.876   9.312   3.363  0.3261 -0.0262 -0.0736
 3467WAT     H115673  -2.903   9.239   3.307  4.6732 -2.1523  0.1846
 3467WAT     H215674  -2.863   9.385   3.302  1.9980 -1.3975 -1.4748
 3467WAT    EPW15675  -2.878   9.312   3.347  1.1201 -0.4873 -0.2245
 3468WAT      O15676  -2.691   2.789   5.362  0.1521  0.2087 -0.2042
 3468WAT     H115677  -2.783   2.814   5.354  0.5640  2.2111  0.8640
 3468WAT     H215678  -2.645   2.848   5.302  0.9863  1.0134  1.1846
 3468WAT    EPW15679  -2.697   2.800   5.353  0.3165  0.5789  0.1199
 3469WAT      O15680  -5.700   6.006   5.895 -0.4615 -0.7842  0.5644
 3469WAT     H115681  -5.606   6.020   5.910 -0.2783 -1.7602  0.4428
 3469WAT     H215682  -5.704   5.968   5.808 -1.1385  0.8308 -0.1373
 3469WAT    EPW15683  -5.688   6.002   5.886 -0.5267 -0.7000  0.4556
 3470WAT      O15684   3.702   4.332   1.671 -0.0740 -0.6833  0.3712
 3470WAT     H115685   3.728   4.425   1.670  0.5601 -0.7066  3.8972
 3470WAT     H215686   3.607   4.334   1.657 -0.0710  0.4971  0.3553
 3470WAT    EPW15687   3.693   4.345   1.669  0.0101 -0.5305  0.8342
 3471WAT      O15688   7.056   1.230   0.558  0.4282 -0.6144 -0.5366
 3471WAT     H115689   7.070   1.314   0.602 -1.6047 -1.6194  2.3483
 3471WAT     H215690   7.127   1.175   0.590  0.3318 -0.6745 -0.4245
 3471WAT    EPW15691   7.067   1.234   0.568  0.1473 -0.7548 -0.1414
 3472WAT      O15692   3.585   0.366   6.696  0.2677  0.1626  0.4026
 3472WAT     H115693   3.510   0.388   6.641 -0.1496 -0.6186  0.6382
 3472WAT     H215694   3.574   0.419   6.775 -0.5351 -0.6023  0.8192
 3472WAT    EPW15695   3.574   0.376   6.699  0.1068 -0.0413  0.4885
 3473WAT      O15696   2.414   6.724   0.346  0.1423  0.7076  0.0217
 3473WAT     H115697   2.461   6.750   0.425  0.5652 -0.3713  0.1337
 3473WAT     H215698   2.482   6.703   0.282 -0.1944  1.7144 -0.7042
 3473WAT    EPW15699   2.429   6.725   0.348  0.1537  0.6981 -0.0593
 3474WAT      O15700   1.057   4.936   5.740  0.6498  0.9720  0.4078
 3474WAT     H115701   1.111   4.937   5.661  0.6356  1.1943  0.4005
 3474WAT     H215702   1.048   4.844   5.762  0.2213  0.8783 -0.1486
 3474WAT    EPW15703   1.063   4.924   5.732  0.5915  0.9892  0.3335
 3475WAT      O15704   2.550   4.936   7.886  0.1231  0.1472 -0.4819
 3475WAT     H115705   2.629   4.979   7.852 -0.7145  1.3893 -0.9183
 3475WAT     H215706   2.505   4.904   7.808  0.0678 -0.3339 -0.2525
 3475WAT    EPW15707   2.554   4.938   7.871  0.0054  0.2475 -0.5093
 3476WAT      O15708   5.702   9.103   0.814 -0.1795 -0.0851 -0.2990
 3476WAT     H115709   5.691   9.112   0.719  2.1108 -1.6318 -0.7944
 3476WAT     H215710   5.795   9.082   0.825 -0.5795 -0.7837  2.2260
 3476WAT    EPW15711   5.713   9.101   0.803  0.0699 -0.3815 -0.0314
 3477WAT      O15712  -3.958   6.728   8.211 -0.5643  0.4008  0.0114
 3477WAT     H115713  -4.043   6.751   8.173 -2.2988 -1.8644  2.1652
 3477WAT     H215714  -3.933   6.647   8.165  1.4311  1.9743 -1.8642
 3477WAT    EPW15715  -3.966   6.720   8.200 -0.5299  0.3095  0.0482
 3478WAT      O15716  -0.044   3.017   5.098  0.6248 -0.2575 -0.3530
 3478WAT     H115717  -0.058   2.922   5.093  3.0008 -0.6221 -1.9893
 3478WAT     H215718   0.048   3.026   5.126 -0.1146  1.6419  1.7362
 3478WAT    EPW15719  -0.033   3.006   5.101  0.8406 -0.0551 -0.2933
 3479WAT      O15720   0.725   3.402   8.518  0.4888  0.1256  0.0377
 3479WAT     H115721   0.737   3.332   8.454  3.2743 -0.2348  0.8518
 3479WAT     H215722   0.811   3.441   8.528 -0.4450  1.9638  1.5842
 3479WAT    EPW15723   0.738   3.398   8.511  0.7331  0.3206  0.3490
 3480WAT      O15724  -4.340   9.104   3.996  0.0614  0.5512  0.5225
 3480WAT     H115725  -4.284   9.144   3.929  0.9820 -0.1341  0.8667
 3480WAT     H215726  -4.409   9.169   4.012  0.2040  0.9953 -0.6079
 3480WAT    EPW15727  -4.342   9.118   3.989  0.2015  0.5193  0.4188
 3481WAT      O15728   5.089   2.864   3.714 -0.5530  0.0560  0.0543
 3481WAT     H115729   5.044   2.852   3.797 -0.7280  1.7838  0.2551
 3481WAT     H215730   5.036   2.818   3.650 -1.4800  0.3362  0.6086
 3481WAT    EPW15731   5.076   2.857   3.717 -0.6983  0.3209  0.1540
 3482WAT      O15732   4.735   8.646   3.880  0.4813  0.5800 -0.1998
 3482WAT     H115733   4.684   8.720   3.847 -1.7265 -0.9285 -0.4641
 3482WAT     H215734   4.699   8.629   3.967 -0.1139 -1.0476 -0.7209
 3482WAT    EPW15735   4.723   8.653   3.887  0.1116  0.1664 -0.3035
 3483WAT      O15736   1.523   6.192   4.401  0.2313  0.1256 -0.0598
 3483WAT     H115737   1.481   6.166   4.319 -0.9136 -1.5201  0.9872
 3483WAT     H215738   1.554   6.110   4.439 -0.7837  0.6315  1.9612
 3483WAT    EPW15739   1.522   6.178   4.395 -0.0536 -0.0248  0.3448
 3484WAT      O15740   4.222   2.013   1.290  0.7396  0.2071 -0.2838
 3484WAT     H115741   4.206   2.060   1.371  0.2152 -0.5582  0.0735
 3484WAT     H215742   4.163   2.053   1.226 -0.4892 -0.6479  0.2832
 3484WAT    EPW15743   4.212   2.024   1.292  0.5083 -0.0066 -0.1619
 3485WAT      O15744   2.428   1.422   5.093 -0.0426 -0.1402 -0.2542
 3485WAT     H115745   2.461   1.487   5.031 -1.0463  1.6552  0.9961
 3485WAT     H215746   2.396   1.474   5.167  0.1781 -2.1377  1.3305
 3485WAT    EPW15747   2.428   1.438   5.094 -0.1459 -0.1668  0.1197
 3486WAT      O15748   6.532   2.283   4.963 -0.5055  0.4525 -0.5416
 3486WAT     H115749   6.546   2.378   4.957  1.3527  0.4202  1.7578
 3486WAT     H215750   6.616   2.245   4.938 -0.7141 -0.5167  0.1776
 3486WAT    EPW15751   6.545   2.291   4.959 -0.2882  0.3204 -0.1433
 3487WAT      O15752  -1.884   2.559   5.779 -0.4735 -0.5185 -0.3544
 3487WAT     H115753  -1.925   2.476   5.752 -0.6011 -0.7125  0.4278
 3487WAT     H215754  -1.849   2.541   5.866  1.0316 -0.2599 -0.8757
 3487WAT    EPW15755  -1.885   2.545   5.787 -0.2918 -0.5099 -0.3200
 3488WAT      O15756   1.412   9.317   1.970  0.1053  0.0369  0.1612
 3488WAT     H115757   1.504   9.344   1.968  0.1701 -0.2437 -1.1042
 3488WAT     H215758   1.412   9.238   2.024  0.5825  0.0900  0.2487
 3488WAT    EPW15759   1.424   9.310   1.977  0.1768  0.0067  0.0059
 3489WAT      O15760  -6.061   4.422   7.439 -0.0715 -0.0802 -0.2558
 3489WAT     H115761  -6.131   4.477   7.473 -1.0219  2.5861 -5.4763
 3489WAT     H215762  -6.105   4.358   7.383  1.4173 -3.1674  1.7985
 3489WAT    EPW15763  -6.076   4.421   7.436 -0.0005 -0.1359 -0.6733
 3490WAT      O15764  -1.619  10.014   1.718  0.0179 -0.3000  0.6173
 3490WAT     H115765  -1.674  10.077   1.671  0.2613 -0.1283  0.5555
 3490WAT     H215766  -1.620   9.936   1.663  0.2392 -0.1253  0.3576
 3490WAT    EPW15767  -1.626  10.012   1.704  0.0792 -0.2542  0.5749
 3491WAT      O15768  -3.400   7.549   4.771 -0.2324  0.2286 -0.0390
 3491WAT     H115769  -3.313   7.589   4.776  0.6278 -1.4929 -0.5610
 3491WAT     H215770  -3.458   7.614   4.811  1.1235  1.8391 -0.5373
 3491WAT    EPW15771  -3.396   7.563   4.777  0.0598  0.2139 -0.1736
 3492WAT      O15772   5.166   2.469   5.029  0.0229  0.2397 -0.1816
 3492WAT     H115773   5.259   2.484   5.013  0.4118 -0.5218  1.2366
 3492WAT     H215774   5.146   2.389   4.982  0.0975  0.3615 -0.4232
 3492WAT    EPW15775   5.175   2.461   5.021  0.0839  0.1553 -0.0265
 3493WAT      O15776  -0.039   4.719   3.298  0.2193  0.7360  0.5461
 3493WAT     H115777  -0.093   4.698   3.222  0.8524  1.5744 -0.1498
 3493WAT     H215778  -0.090   4.686   3.373  0.6628 -2.2560 -0.3660
 3493WAT    EPW15779  -0.053   4.712   3.298  0.3613  0.4518  0.3340
 3494WAT      O15780   0.390   0.851   0.005  0.5239  0.0304 -0.1681
 3494WAT     H115781   0.407   0.933  -0.043 -0.4785  0.3434 -0.0155
 3494WAT     H215782   0.445   0.858   0.084  0.1303  0.7572  0.0524
 3494WAT    EPW15783   0.400   0.863   0.009  0.3398  0.1675 -0.1189
 3495WAT      O15784   3.733   7.716   3.576  0.0870 -0.5414 -0.2675
 3495WAT     H115785   3.687   7.785   3.528 -0.1721 -1.1217 -0.8768
 3495WAT     H215786   3.808   7.760   3.616 -0.6461  0.3025  0.2327
 3495WAT    EPW15787   3.737   7.731   3.575 -0.0439 -0.5066 -0.2818
 3496WAT      O15788  -4.636   9.672   5.920  0.1855 -0.0191  0.3823
 3496WAT     H115789  -4.569   9.740   5.920 -0.5502  0.7598 -1.2853
 3496WAT     H215790  -4.613   9.616   5.994  1.8608  1.0062  0.6928
 3496WAT    EPW15791  -4.624   9.674   5.930  0.3095  0.2189  0.2031
 3497WAT      O15792  -1.286   8.867   8.344 -0.1381 -0.1693  0.3237
 3497WAT     H115793  -1.227   8.815   8.399 -0.2709  0.5017  1.1140
 3497WAT     H215794  -1.258   8.846   8.254  1.0605 -0.1598  0.6684
 3497WAT    EPW15795  -1.274   8.857   8.339  0.0024 -0.0796  0.4735
 3498WAT      O15796   1.773   4.788   5.428 -0.1553  0.2135 -1.1280
 3498WAT     H115797   1.791   4.707   5.380  1.3201  0.2759 -0.7175
 3498WAT     H215798   1.697   4.767   5.483  2.9442 -2.5618  2.6424
 3498WAT    EPW15799   1.765   4.775   5.429  0.4481 -0.1442 -0.5765
 3499WAT      O15800   6.614   6.803   0.394 -0.4359 -0.6817  0.2551
 3499WAT     H115801   6.658   6.789   0.310 -0.3180 -0.5021  0.2859
 3499WAT     H215802   6.652   6.737   0.452 -0.2329 -0.5538  0.2709
 3499WAT    EPW15803   6.625   6.793   0.390 -0.3936 -0.6413  0.2612
 3500WAT      O15804   2.694   5.918   4.294  0.6656 -0.1444  0.8759
 3500WAT     H115805   2.660   5.987   4.351  0.3934 -0.2917  0.8949
 3500WAT     H215806   2.783   5.904   4.325  0.1070 -1.1440  2.1583
 3500WAT    EPW15807   2.701   5.925   4.306  0.5561 -0.2956  1.0474
 3501WAT      O15808   3.870   9.425   2.058  0.1496  0.1862 -0.3855
 3501WAT     H115809   3.913   9.402   1.975  0.9883 -0.0047  0.0891
 3501WAT     H215810   3.891   9.352   2.116 -1.2993 -0.1815 -0.2867
 3501WAT    EPW15811   3.878   9.412   2.054  0.0691  0.1125 -0.3098
 3502WAT      O15812   3.725   7.796   4.672 -0.4520  0.6834 -0.4815
 3502WAT     H115813   3.650   7.772   4.617 -1.5260 -0.3246  1.3212
 3502WAT     H215814   3.800   7.754   4.630 -1.3449 -0.6452 -0.7954
 3502WAT    EPW15815   3.725   7.787   4.659 -0.7114  0.3750 -0.2851
 3503WAT      O15816  -1.149   1.287   7.894 -0.3598 -0.0593  0.6744
 3503WAT     H115817  -1.235   1.283   7.934  0.0797 -2.6093  1.5795
 3503WAT     H215818  -1.088   1.276   7.967  0.5494 -2.5217 -0.3506
 3503WAT    EPW15819  -1.152   1.285   7.909 -0.1819 -0.7204  0.6585
 3504WAT      O15820   7.043   5.067   0.757  0.5722  0.0498 -0.0799
 3504WAT     H115821   7.092   4.988   0.731  2.8633  1.6895 -1.1047
 3504WAT     H215822   7.087   5.098   0.836 -0.2982  0.3353  0.3025
 3504WAT    EPW15823   7.056   5.061   0.764  0.7596  0.3035 -0.1647
 3505WAT      O15824   3.352   1.522   1.358  0.4278  0.2081 -0.3924
 3505WAT     H115825   3.261   1.551   1.347 -0.0354 -0.7948  0.5480
 3505WAT     H215826   3.389   1.583   1.422 -0.5943 -1.2532  1.7210
 3505WAT    EPW15827   3.345   1.534   1.365  0.2320 -0.1169  0.0104
 3506WAT      O15828   3.963   2.783   3.757  0.2857 -0.5219  0.2766
 3506WAT     H115829   4.034   2.802   3.696  0.1789 -0.8903  0.0349
 3506WAT     H215830   3.888   2.832   3.724  0.0806 -1.1456 -0.1982
 3506WAT    EPW15831   3.963   2.792   3.745  0.2445 -0.6528  0.1820
 3507WAT      O15832  -4.107   9.208   8.540 -0.7922  0.3133  0.8227
 3507WAT     H115833  -4.152   9.211   8.456 -0.8477 -0.6035  0.8148
 3507WAT     H215834  -4.118   9.297   8.576 -1.1190  0.5908  0.0559
 3507WAT    EPW15835  -4.115   9.220   8.534 -0.8426  0.2289  0.7205
 3508WAT      O15836  -5.075   7.029   7.841 -0.2164 -0.3602 -0.8148
 3508WAT     H115837  -5.057   7.122   7.850  1.9437 -0.6793 -1.2330
 3508WAT     H215838  -5.059   7.010   7.748 -1.4282 -1.0057 -0.9106
 3508WAT    EPW15839  -5.070   7.039   7.830 -0.0913 -0.4876 -0.8826
 3509WAT      O15840  -1.793   7.498   6.179  0.8139  0.0871  0.3163
 3509WAT     H115841  -1.825   7.408   6.179 -0.9948  0.7009 -0.4574
 3509WAT     H215842  -1.732   7.502   6.105 -1.4799  0.2377 -1.6975
 3509WAT    EPW15843  -1.789   7.487   6.169  0.2728  0.1879 -0.0515
 3510WAT      O15844   1.947   6.693   4.608  0.1855  0.8375 -0.0311
 3510WAT     H115845   1.947   6.700   4.704 -0.8598  0.9036 -0.0308
 3510WAT     H215846   1.856   6.673   4.585  0.1858  1.9744 -1.0928
 3510WAT    EPW15847   1.935   6.691   4.618  0.0477  0.9959 -0.1709
 3511WAT      O15848  -3.718   3.365   8.257  0.3424 -0.4561  0.0970
 3511WAT     H115849  -3.632   3.334   8.228  0.2005 -1.1672  0.4306
 3511WAT     H215850  -3.718   3.352   8.351 -0.2183 -0.6722  0.0685
 3511WAT    EPW15851  -3.706   3.359   8.265  0.2497 -0.5784  0.1373
 3512WAT      O15852  -1.018   7.238   7.614 -0.0941  0.0303  0.7993
 3512WAT     H115853  -1.027   7.315   7.671 -0.9240 -0.0915  0.8441
 3512WAT     H215854  -0.966   7.269   7.540 -0.1087  0.5339  0.9957
 3512WAT    EPW15855  -1.012   7.253   7.612 -0.2054  0.0806  0.8311
 3513WAT      O15856  -2.177   8.140   3.974  0.3213  0.5772 -0.2473
 3513WAT     H115857  -2.130   8.126   3.893 -0.0028 -1.6976 -0.0921
 3513WAT     H215858  -2.183   8.054   4.015  0.0745  1.5622  1.9836
 3513WAT    EPW15859  -2.172   8.127   3.969  0.2460  0.4072  0.0674
 3514WAT      O15860   4.139   0.212   3.291  0.3952 -0.4761  0.1947
 3514WAT     H115861   4.094   0.237   3.371  0.8450 -0.3670  0.4132
 3514WAT     H215862   4.185   0.131   3.313  2.6755  0.8992  0.8531
 3514WAT    EPW15863   4.139   0.204   3.304  0.7553 -0.2803  0.3104
 3515WAT      O15864  -6.008   5.714   8.382 -0.2591 -0.0666 -0.1574
 3515WAT     H115865  -6.032   5.661   8.306 -2.2145  0.2582  0.1701
 3515WAT     H215866  -5.952   5.657   8.435  1.6154 -0.1009 -2.0719
 3515WAT    EPW15867  -6.004   5.699   8.379 -0.2699 -0.0281 -0.3667
 3516WAT      O15868  -0.740   8.688   4.462  0.3563 -0.4424  0.7637
 3516WAT     H115869  -0.647   8.680   4.443  0.3015 -0.9509  0.6920
 3516WAT     H215870  -0.768   8.599   4.484 -0.3184 -0.4804 -0.1734
 3516WAT    EPW15871  -0.732   8.676   4.462  0.2601 -0.5145  0.6306
 3517WAT      O15872  -3.509  10.317   2.687 -0.0311  0.7535 -1.1949
 3517WAT     H115873  -3.571  10.375   2.732  0.4385  1.1289 -1.0196
 3517WAT     H215874  -3.468  10.373   2.621  0.3778  0.6061 -1.0695
 3517WAT    EPW15875  -3.512  10.332   2.685  0.0848  0.7834 -1.1554
 3518WAT      O15876   1.928   3.562   0.143 -0.1765  0.3546  0.1084
 3518WAT     H115877   1.921   3.609   0.226  2.3241  0.4619  0.3420
 3518WAT     H215878   1.894   3.624   0.078 -0.4903  0.9825  0.8553
 3518WAT    EPW15879   1.923   3.577   0.145  0.1119  0.4516  0.2377
 3519WAT      O15880   1.585   5.640   6.657 -0.1121 -0.4944 -0.7621
 3519WAT     H115881   1.562   5.547   6.668 -1.9132 -0.1182 -1.0280
 3519WAT     H215882   1.550   5.663   6.571 -0.9133  0.7686 -0.1224
 3519WAT    EPW15883   1.578   5.631   6.647 -0.4553 -0.2780 -0.7131
 3520WAT      O15884  -1.664   1.610   5.723 -0.5591  0.1207  0.2589
 3520WAT     H115885  -1.576   1.608   5.758 -1.1776 -2.6270  2.0332
 3520WAT     H215886  -1.662   1.677   5.655  3.2647 -0.8274 -0.7871
 3520WAT    EPW15887  -1.652   1.618   5.719 -0.1364 -0.3668  0.3550
 3521WAT      O15888  -3.008   7.281   5.534  0.0848  0.3079  0.2648
 3521WAT     H115889  -3.067   7.205   5.537 -0.7431  0.9778  1.6724
 3521WAT     H215890  -2.924   7.244   5.507 -0.5078 -0.9729  0.0936
 3521WAT    EPW15891  -3.004   7.266   5.531 -0.1026  0.2277  0.4277
 3522WAT      O15892  -0.214   5.783   6.459 -0.2365 -0.5528 -0.6800
 3522WAT     H115893  -0.129   5.817   6.432  0.5033 -1.3110  0.5842
 3522WAT     H215894  -0.276   5.818   6.395  0.8317  1.0744 -0.8618
 3522WAT    EPW15895  -0.211   5.792   6.447  0.0020 -0.4382 -0.5372
 3523WAT      O15896  -3.898   8.723   5.619 -0.3857 -0.1670  0.2290
 3523WAT     H115897  -3.949   8.674   5.555  0.7224 -2.1400  0.7577
 3523WAT     H215898  -3.822   8.754   5.569 -0.7181  0.3999  0.0646
 3523WAT    EPW15899  -3.894   8.721   5.604 -0.2834 -0.3529  0.2773
 3524WAT      O15900  -0.347   9.959   7.955  0.0590 -0.7435  0.0950
 3524WAT     H115901  -0.423   9.951   8.012  0.7239 -0.9305  0.9782
 3524WAT     H215902  -0.375  10.019   7.886 -1.2439 -1.6964 -0.2224
 3524WAT    EPW15903  -0.360   9.966   7.953 -0.0251 -0.8936  0.1695
 3525WAT      O15904   1.097   8.609   5.858  0.0281  0.4872  0.0003
 3525WAT     H115905   1.093   8.542   5.926  0.1411  1.1774  0.6961
 3525WAT     H215906   1.078   8.562   5.777  0.1626 -0.3924  0.4737
 3525WAT    EPW15907   1.094   8.594   5.856  0.0607  0.4621  0.1545
 3526WAT      O15908   6.788   3.170   2.924  0.2720  0.2325  0.4705
 3526WAT     H115909   6.830   3.117   2.991  0.6309  1.0148  0.8654
 3526WAT     H215910   6.822   3.135   2.841  0.9764  0.2417  0.7503
 3526WAT    EPW15911   6.798   3.158   2.922  0.4122  0.3369  0.5596
 3527WAT      O15912  -1.337   9.206   6.814  0.1470  0.1110  0.2394
 3527WAT     H115913  -1.397   9.276   6.789  0.2411  0.3071  0.5544
 3527WAT     H215914  -1.289   9.186   6.733 -0.5561 -0.2689 -0.0924
 3527WAT    EPW15915  -1.339   9.213   6.800  0.0666  0.0868  0.2372
 3528WAT      O15916   3.498   6.186   7.943  1.0018  0.1380 -0.1181
 3528WAT     H115917   3.514   6.221   8.031 -1.1562 -2.2845  1.3936
 3528WAT     H215918   3.415   6.223   7.916 -0.0718 -1.7028  0.4451
 3528WAT    EPW15919   3.489   6.195   7.951  0.5757 -0.4244  0.1554
 3529WAT      O15920   2.233   2.438   0.386  0.9631 -0.5464 -0.1356
 3529WAT     H115921   2.316   2.410   0.347  1.0447 -0.2882 -0.1492
 3529WAT     H215922   2.168   2.418   0.319  0.4410 -4.2636  1.2371
 3529WAT    EPW15923   2.235   2.432   0.372  0.9049 -1.0027  0.0437
 3530WAT      O15924   1.488   9.955   0.595  0.6453 -0.2060 -0.6373
 3530WAT     H115925   1.486  10.038   0.643  1.0259  0.6388 -2.0134
 3530WAT     H215926   1.468   9.979   0.505 -0.1664 -1.7576 -0.9109
 3530WAT    EPW15927   1.485   9.969   0.590  0.5885 -0.2995 -0.8548
 3531WAT      O15928   2.702   0.847   8.911 -0.1262  0.2630 -1.3868
 3531WAT     H115929   2.648   0.915   8.870 -0.6378  0.7857  0.0757
 3531WAT     H215930   2.724   0.787   8.839 -0.5651  1.3834 -2.5003
 3531WAT    EPW15931   2.698   0.848   8.896 -0.2515  0.4797 -1.3404
 3532WAT      O15932   1.007   1.222   1.800  0.6724 -0.2888  0.2162
 3532WAT     H115933   0.981   1.262   1.716  0.7642  0.9615  0.7618
 3532WAT     H215934   0.949   1.263   1.864  2.5441  0.9831  1.1748
 3532WAT    EPW15935   0.996   1.233   1.797  0.9313  0.0438  0.4146
 3533WAT      O15936   2.542   2.366   4.819  0.5779  0.5552  0.3633
 3533WAT     H115937   2.587   2.442   4.780  3.5241  0.1476  2.6157
 3533WAT     H215938   2.610   2.299   4.825 -1.3080 -1.4046  0.7451
 3533WAT    EPW15939   2.557   2.367   4.815  0.7179  0.2429  0.7107
 3534WAT      O15940   5.510   0.453   2.221 -0.6669 -0.4233  0.3919
 3534WAT     H115941   5.510   0.542   2.255 -4.7433  0.6007 -1.6927
 3534WAT     H215942   5.481   0.461   2.130 -0.4252 -3.8270 -0.1326
 3534WAT    EPW15943   5.506   0.466   2.214 -1.1728 -0.7371  0.0478
 3535WAT      O15944   0.793   8.601   0.233  0.0927 -0.2539 -0.3568
 3535WAT     H115945   0.888   8.599   0.245  0.1457 -2.9814 -0.7225
 3535WAT     H215946   0.778   8.675   0.175  1.7608  1.3889  1.1598
 3535WAT    EPW15947   0.804   8.611   0.227  0.3197 -0.3972 -0.2050
 3536WAT      O15948   3.078   4.607   7.387  0.3789 -0.6658 -0.2636
 3536WAT     H115949   3.154   4.563   7.426  0.9387  0.0758 -0.5048
 3536WAT     H215950   3.088   4.594   7.293  0.8984  0.5074 -0.3874
 3536WAT    EPW15951   3.089   4.600   7.380  0.5212 -0.4132 -0.3116
 3537WAT      O15952  -1.662   9.945   5.197  0.0158  0.3179  0.4443
 3537WAT     H115953  -1.681   9.976   5.285 -0.7403  1.2130 -0.0125
 3537WAT     H215954  -1.639   9.853   5.208 -1.4115  0.0527  1.4264
 3537WAT    EPW15955  -1.662   9.937   5.210 -0.2722  0.4015  0.5136
 3538WAT      O15956   3.516   5.175   0.068 -0.0188  0.1330 -0.5249
 3538WAT     H115957   3.610   5.193   0.071  0.7632 -3.2386 -0.3882
 3538WAT     H215958   3.498   5.157  -0.024 -0.6908  1.2440 -0.6305
 3538WAT    EPW15959   3.526   5.175   0.056 -0.0043 -0.1655 -0.5208
 3539WAT      O15960   5.601   1.837   2.204  0.4850  0.9285  0.5011
 3539WAT     H115961   5.597   1.773   2.132  2.4550 -1.5631  2.3827
 3539WAT     H215962   5.640   1.915   2.165 -2.6367  1.4187 -2.0667
 3539WAT    EPW15963   5.606   1.839   2.190  0.3333  0.6645  0.4107
 3540WAT      O15964  -0.587   8.874   5.624  0.5933 -0.6912 -0.2157
 3540WAT     H115965  -0.527   8.812   5.665  1.2754 -0.9483 -1.5420
 3540WAT     H215966  -0.572   8.863   5.530  0.4103  1.1595 -0.5071
 3540WAT    EPW15967  -0.577   8.864   5.617  0.6591 -0.4811 -0.4292
 3541WAT      O15968   1.625   9.670   0.277 -0.5673  0.0509 -0.4537
 3541WAT     H115969   1.612   9.586   0.321  0.7809  0.8119  1.5680
 3541WAT     H215970   1.677   9.722   0.339  1.2616  1.3363 -2.8464
 3541WAT    EPW15971   1.630   9.666   0.291 -0.1482  0.3209 -0.5026
 3542WAT      O15972  -2.602   1.778   7.140  0.3000  0.0689 -0.8779
 3542WAT     H115973  -2.581   1.768   7.047 -1.4953  0.2972 -1.3534
 3542WAT     H215974  -2.675   1.717   7.154  0.3224  0.2933  0.3036
 3542WAT    EPW15975  -2.609   1.768   7.129  0.0662  0.1286 -0.7849
 3543WAT      O15976  -0.520   1.134   1.331 -0.2880  0.8012  0.5450
 3543WAT     H115977  -0.452   1.138   1.399 -2.0529  0.9114  2.4093
 3543WAT     H215978  -0.477   1.166   1.252  1.4542  2.1880  1.9686
 3543WAT    EPW15979  -0.505   1.139   1.330 -0.2910  0.9987  0.9786
 3544WAT      O15980  -1.785   0.095   7.973 -0.9251 -0.1178  0.4617
 3544WAT     H115981  -1.723   0.099   8.045  0.3265  1.8365 -0.6281
 3544WAT     H215982  -1.795   0.002   7.954 -0.1446 -0.5762  2.1725
 3544WAT    EPW15983  -1.778   0.084   7.980 -0.6571  0.0795  0.5438
 3545WAT      O15984   0.444   8.869   5.117  0.0329  0.5716 -0.2515
 3545WAT     H115985   0.527   8.907   5.089  0.7525  1.2015  2.4178
 3545WAT     H215986   0.462   8.776   5.128  0.5220  0.7534  0.6167
 3545WAT    EPW15987   0.457   8.862   5.115  0.1923  0.6785  0.2151
 3546WAT      O15988   2.432   4.418   4.632 -0.5893 -0.0480  0.8160
 3546WAT     H115989   2.393   4.499   4.665 -0.8598 -0.4889  1.6041
 3546WAT     H215990   2.466   4.374   4.710  3.7786  1.4560  0.0030
 3546WAT    EPW15991   2.431   4.423   4.647 -0.0489  0.0920  0.8128
 3547WAT      O15992   7.308   6.162   0.656 -0.1474 -0.0495 -0.0577
 3547WAT     H115993   7.247   6.228   0.624  1.1039  0.8501 -0.6650
 3547WAT     H215994   7.260   6.117   0.726 -0.2214  3.1431  2.1460
 3547WAT    EPW15995   7.294   6.165   0.661  0.0079  0.4902  0.1529
 3548WAT      O15996   6.404   0.204   2.640 -0.6388 -0.4597 -0.3901
 3548WAT     H115997   6.375   0.239   2.556 -0.6087 -0.7318 -0.5126
 3548WAT     H215998   6.341   0.136   2.661  0.8734 -2.2986 -1.5049
 3548WAT    EPW15999   6.392   0.200   2.632 -0.4351 -0.7381 -0.5534
 3549WAT      O16000  -2.450   1.170   8.378 -0.3467  0.4077  0.4834
 3549WAT     H116001  -2.391   1.174   8.302 -0.8693 -0.9969 -0.0236
 3549WAT     H216002  -2.534   1.203   8.345 -0.0804  1.6510  0.9956
 3549WAT    EPW16003  -2.453   1.175   8.363 -0.3805  0.3865  0.4840
 3550WAT      O16004   4.381   8.368   1.513  0.6246  0.4154  0.6656
 3550WAT     H116005   4.358   8.293   1.459  1.9646  1.2621 -1.2286
 3550WAT     H216006   4.400   8.438   1.450  3.9188  1.0050  2.0690
 3550WAT    EPW16007   4.381   8.368   1.497  1.2360  0.6046  0.6008
 3551WAT      O16008   2.259   6.091   5.949  0.4537  0.3554  0.4705
 3551WAT     H116009   2.229   6.007   5.985  2.1581  0.4129  2.2440
 3551WAT     H216010   2.315   6.066   5.875 -0.4245  0.0513 -0.1117
 3551WAT    EPW16011   2.263   6.076   5.944  0.5628  0.3231  0.6275
 3552WAT      O16012  -2.551   6.940   5.299  0.0591  0.3569 -0.6300
 3552WAT     H116013  -2.538   6.846   5.306  0.6516  0.3339 -1.7604
 3552WAT     H216014  -2.517   6.962   5.212  0.0773  1.6388 -0.3116
 3552WAT    EPW16015  -2.545   6.931   5.288  0.1396  0.5229 -0.7372
 3553WAT      O16016  -0.561   7.153   6.742 -0.3266  0.0108  0.0271
 3553WAT     H116017  -0.527   7.102   6.668 -1.3074 -0.0996 -0.3543
 3553WAT     H216018  -0.565   7.090   6.814  2.6796  0.5998  0.8410
 3553WAT    EPW16019  -0.557   7.138   6.742 -0.0594  0.0739  0.0839
 3554WAT      O16020   3.299   4.206   2.232  0.5526  0.0680 -0.0063
 3554WAT     H116021   3.366   4.262   2.192 -0.5398 -0.1255 -2.2763
 3554WAT     H216022   3.311   4.120   2.191 -2.2914  0.5281 -2.1618
 3554WAT    EPW16023   3.309   4.202   2.222  0.0335  0.1030 -0.5900
 3555WAT      O16024   4.311   3.959   6.783 -0.5329  0.0968 -0.3697
 3555WAT     H116025   4.317   3.976   6.689  1.3223 -2.4844 -0.8257
 3555WAT     H216026   4.389   4.001   6.820 -0.7520  0.2951 -0.1300
 3555WAT    EPW16027   4.322   3.967   6.775 -0.3171 -0.2174 -0.3982
 3556WAT      O16028   3.753   0.001   5.205  0.2225 -0.0092  0.3230
 3556WAT     H116029   3.673   0.048   5.183 -0.4718 -1.8763 -1.5298
 3556WAT     H216030   3.815   0.069   5.230 -1.7292  1.5521  1.2507
 3556WAT    EPW16031   3.751   0.016   5.206 -0.1264 -0.0495  0.2010
 3557WAT      O16032   0.834   6.487   2.885  0.3425  0.0575 -0.4032
 3557WAT     H116033   0.771   6.420   2.858 -0.4595  0.1679  1.1100
 3557WAT     H216034   0.794   6.570   2.858 -0.3198  0.1466  0.7821
 3557WAT    EPW16035   0.820   6.489   2.878  0.1494  0.0837 -0.0473
 3558WAT      O16036   3.672   9.273   5.228  0.3972 -0.4531 -0.2772
 3558WAT     H116037   3.672   9.364   5.199 -0.3008  0.1367  1.4184
 3558WAT     H216038   3.610   9.229   5.170 -1.7419  0.8978  0.8060
 3558WAT    EPW16039   3.663   9.279   5.217  0.0229 -0.1974  0.0892
 3559WAT      O16040  -2.497   6.623   5.670  0.4126 -0.2361 -0.3221
 3559WAT     H116041  -2.556   6.548   5.669 -0.6722  0.5733  0.3078
 3559WAT     H216042  -2.468   6.630   5.761 -1.8478  1.8263  0.3461
 3559WAT    EPW16043  -2.501   6.614   5.682 -0.0286  0.1428 -0.1509
 3560WAT      O16044  -3.943   5.390   6.486  0.7195 -0.0012  0.2970
 3560WAT     H116045  -3.969   5.325   6.551 -0.6213  0.5124  0.3264
 3560WAT     H216046  -3.988   5.361   6.406  1.1559  0.1821 -0.0126
 3560WAT    EPW16047  -3.953   5.377   6.484  0.6002  0.0906  0.2601
 3561WAT      O16048   4.414   3.245   2.396  0.0936  0.0736  0.1605
 3561WAT     H116049   4.437   3.252   2.489 -0.2328  0.7757  0.1986
 3561WAT     H216050   4.323   3.273   2.392  0.0227 -0.2198 -0.3379
 3561WAT    EPW16051   4.405   3.250   2.408  0.0410  0.1276  0.0998
 3562WAT      O16052  -3.121   5.810   2.005  0.1454  1.1066  0.9298
 3562WAT     H116053  -3.101   5.904   2.003  2.1122  0.7863  2.3957
 3562WAT     H216054  -3.066   5.776   2.076  1.1326 -1.5274 -0.9532
 3562WAT    EPW16055  -3.111   5.818   2.014  0.5350  0.7169  0.8749
 3563WAT      O16056   4.118   2.017   2.007 -0.0606 -0.3357  0.1533
 3563WAT     H116057   4.038   1.972   1.981  0.2192 -2.5065  2.5852
 3563WAT     H216058   4.155   2.051   1.925 -2.2446 -1.2729 -1.3111
 3563WAT    EPW16059   4.112   2.016   1.993 -0.3116 -0.7457  0.2809
 3564WAT      O16060  -2.799   6.069   4.415  0.4070 -0.2014 -0.4862
 3564WAT     H116061  -2.752   5.986   4.407 -1.7187 -1.3759 -2.0719
 3564WAT     H216062  -2.740   6.126   4.464  3.1723 -1.7139 -1.8252
 3564WAT    EPW16063  -2.785   6.066   4.420  0.4914 -0.5558 -0.8721
 3565WAT      O16064   0.281   1.809   1.584 -0.1056  0.1033  0.1034
 3565WAT     H116065   0.313   1.877   1.524  1.1027 -0.9515 -0.4823
 3565WAT     H216066   0.189   1.798   1.560 -1.0159  3.0949  1.7209
 3565WAT    EPW16067   0.273   1.817   1.573 -0.0663  0.3588  0.2395
 3566WAT      O16068   0.108   3.325   6.108  0.9889  0.0996 -0.0770
 3566WAT     H116069   0.202   3.341   6.109  0.5142  3.6000  1.0455
 3566WAT     H216070   0.080   3.350   6.019  1.1750 -2.0566 -0.8053
 3566WAT    EPW16071   0.117   3.330   6.096  0.9508  0.2769 -0.0248
 3567WAT      O16072   5.244   0.180   6.073  0.4242  0.2940 -0.1238
 3567WAT     H116073   5.279   0.244   6.012  1.5354 -0.9630 -0.8760
 3567WAT     H216074   5.239   0.099   6.022 -2.2810  0.0490  0.3738
 3567WAT    EPW16075   5.248   0.177   6.058  0.2139  0.0959 -0.1574
 3568WAT      O16076  -0.623  10.071   0.680  0.7632  0.5943  0.3663
 3568WAT     H116077  -0.617  10.125   0.601  1.0187  0.7996  0.5238
 3568WAT     H216078  -0.598   9.984   0.651 -0.8077  0.2840 -0.1481
 3568WAT    EPW16079  -0.619  10.067   0.666  0.5897  0.5808  0.3192
 3569WAT      O16080   3.048   2.605   1.786 -0.3320  0.1109  0.1984
 3569WAT     H116081   3.067   2.697   1.807  1.0794 -0.3370  1.0478
 3569WAT     H216082   3.100   2.587   1.708 -3.1283  0.8806 -2.0179
 3569WAT    EPW16083   3.057   2.615   1.778 -0.5147  0.1534  0.0181
 3570WAT      O16084   0.104   5.643   3.250  0.2996 -0.1243  0.7993
 3570WAT     H116085   0.178   5.583   3.257  1.2837  0.9581  0.0119
 3570WAT     H216086   0.027   5.587   3.240  1.2432 -1.2413 -0.3850
 3570WAT    EPW16087   0.103   5.628   3.250  0.5538 -0.1290  0.5392
 3571WAT      O16088  -6.950   8.693   8.229  0.0550 -0.8920 -0.0565
 3571WAT     H116089  -6.898   8.613   8.221 -1.7614 -2.1479  0.1024
 3571WAT     H216090  -6.964   8.720   8.138  2.0169  0.2205 -0.0822
 3571WAT    EPW16091  -6.945   8.686   8.216  0.0739 -0.9112 -0.0386
 3572WAT      O16092  -1.688   0.718   7.892 -0.7219  0.0152  0.0201
 3572WAT     H116093  -1.638   0.722   7.811  0.8293 -2.1175  0.7838
 3572WAT     H216094  -1.777   0.698   7.864 -0.1657 -0.9202 -1.1766
 3572WAT    EPW16095  -1.693   0.716   7.878 -0.4439 -0.3894 -0.0372
 3573WAT      O16096   2.935   5.056   6.567 -0.4726  0.1295  0.0585
 3573WAT     H116097   2.933   5.134   6.621 -3.8985  1.4102 -1.5918
 3573WAT     H216098   2.939   4.983   6.629  1.6452  1.5386  1.6862
 3573WAT    EPW16099   2.935   5.056   6.582 -0.6452  0.4842  0.0556
 3574WAT      O16100   3.322   1.197   2.892  0.1281 -0.3297  0.1442
 3574WAT     H116101   3.291   1.197   2.982 -1.8590  2.8602 -0.3693
 3574WAT     H216102   3.255   1.151   2.842  0.7982 -1.3295  0.1291
 3574WAT    EPW16103   3.309   1.191   2.897 -0.0457 -0.0408  0.0745
 3575WAT      O16104  -5.566   7.022   5.489 -0.3643  0.9024  0.2616
 3575WAT     H116105  -5.488   6.966   5.492  0.4528  2.0423  0.8801
 3575WAT     H216106  -5.584   7.044   5.580 -1.5840  0.4439  0.1490
 3575WAT    EPW16107  -5.558   7.018   5.501 -0.4172  0.9921  0.3283
 3576WAT      O16108  -2.687   2.543   7.416  0.1691  1.3030 -0.1230
 3576WAT     H116109  -2.665   2.615   7.357  1.2233  0.2902 -1.0297
 3576WAT     H216110  -2.783   2.544   7.421  0.0860  1.7618 -1.4174
 3576WAT    EPW16111  -2.697   2.553   7.409  0.2971  1.2300 -0.4134
 3577WAT      O16112   1.159   9.947   3.442  0.4476 -0.3794 -0.8274
 3577WAT     H116113   1.113   9.890   3.503 -1.6774  1.0573 -0.9935
 3577WAT     H216114   1.168  10.030   3.489 -3.0165  1.4278 -2.9765
 3577WAT    EPW16115   1.154   9.951   3.456 -0.2896  0.0482 -1.1328
 3578WAT      O16116   6.219   3.773   1.424  0.2599  0.0871  0.5393
 3578WAT     H116117   6.261   3.847   1.381 -0.0684 -0.0632 -0.0505
 3578WAT     H216118   6.262   3.696   1.388 -0.8560 -0.0929 -0.4719
 3578WAT    EPW16119   6.230   3.772   1.414  0.0694  0.0434  0.3282
 3579WAT      O16120   3.837   3.012   2.006  0.1188  0.4238  0.2643
 3579WAT     H116121   3.764   3.043   2.058 -1.3358 -0.0847 -1.3688
 3579WAT     H216122   3.907   2.997   2.069 -0.7503  2.1080  1.7267
 3579WAT    EPW16123   3.837   3.014   2.021 -0.1878  0.5788  0.2418
 3580WAT      O16124   2.962   2.361   5.163 -0.0992  0.7328 -0.9567
 3580WAT     H116125   3.047   2.377   5.204  0.3655  1.6480 -2.1812
 3580WAT     H216126   2.939   2.271   5.186  1.1071  0.5502 -0.4391
 3580WAT    EPW16127   2.970   2.352   5.171  0.1212  0.8295 -1.0498
 3581WAT      O16128  -1.924   8.901   1.090 -0.3467  0.2484  0.2859
 3581WAT     H116129  -1.942   8.891   0.996  0.8570  3.3865 -0.3968
 3581WAT     H216130  -1.998   8.951   1.124 -0.2277  0.0939  0.7872
 3581WAT    EPW16131  -1.936   8.906   1.082 -0.1722  0.6418  0.2620
 3582WAT      O16132   2.955   7.060   8.973  0.2012  0.2263 -0.2255
 3582WAT     H116133   2.897   7.077   9.047 -0.4519 -1.4398 -0.3162
 3582WAT     H216134   2.915   7.107   8.899 -1.6075 -1.6111 -0.5037
 3582WAT    EPW16135   2.942   7.068   8.973 -0.1235 -0.2357 -0.2742
 3583WAT      O16136  -3.954   3.406   5.799 -0.0445 -0.0287 -0.8710
 3583WAT     H116137  -3.880   3.403   5.860  0.3067  0.5705 -1.2498
 3583WAT     H216138  -3.930   3.345   5.729  1.1971  1.8139 -2.1630
 3583WAT    EPW16139  -3.941   3.398   5.798  0.1656  0.2933 -1.0915
 3584WAT      O16140  -1.836   8.361   4.805 -0.3694 -0.5863  0.5110
 3584WAT     H116141  -1.755   8.352   4.755 -0.1830 -0.5181  0.7965
 3584WAT     H216142  -1.905   8.363   4.739 -0.0635  0.3328  0.2142
 3584WAT    EPW16143  -1.834   8.360   4.790 -0.3045 -0.4563  0.5097
 3585WAT      O16144  -7.961   9.983   7.921  0.4480 -0.0198  0.1221
 3585WAT     H116145  -8.037  10.037   7.945  0.6828  0.2914  0.1671
 3585WAT     H216146  -7.912  10.037   7.860  0.5235 -0.3073 -0.0706
 3585WAT    EPW16147  -7.965   9.998   7.916  0.4890 -0.0167  0.1025
 3586WAT      O16148  -0.798   8.078   2.436  0.3853  0.4577 -0.1885
 3586WAT     H116149  -0.727   8.059   2.497 -0.0791 -0.5527  0.0502
 3586WAT     H216150  -0.761   8.142   2.376  1.5756 -0.1936 -0.1794
 3586WAT    EPW16151  -0.784   8.084   2.436  0.4811  0.2384 -0.1558
 3587WAT      O16152  -1.513   2.993   2.858  0.5590  0.3496  0.1034
 3587WAT     H116153  -1.494   3.064   2.919 -0.1297 -0.0042  0.7355
 3587WAT     H216154  -1.584   2.944   2.899  1.8101 -1.4268  0.2618
 3587WAT    EPW16155  -1.520   2.996   2.871  0.6332  0.0685  0.2077
 3588WAT      O16156  -5.347   5.480   7.323 -0.3554  0.2358  0.1988
 3588WAT     H116157  -5.269   5.444   7.282 -0.4683 -1.5910  1.4704
 3588WAT     H216158  -5.330   5.574   7.328  2.4433 -0.2353  1.7541
 3588WAT    EPW16159  -5.334   5.488   7.318 -0.0014 -0.0672  0.5717
 3589WAT      O16160   5.753   0.682   4.459 -0.0782  0.1306 -0.4628
 3589WAT     H116161   5.731   0.589   4.461  0.1490  0.0799  1.1763
 3589WAT     H216162   5.733   0.713   4.547  0.4313  1.5042 -0.8047
 3589WAT    EPW16163   5.748   0.674   4.471  0.0191  0.3051 -0.2918
 3590WAT      O16164   1.768   8.216   1.084  0.4564  0.0427  0.9487
 3590WAT     H116165   1.731   8.127   1.081  1.1357 -0.2560  1.2587
 3590WAT     H216166   1.766   8.245   0.993 -0.5316  0.0365  0.9512
 3590WAT    EPW16167   1.762   8.208   1.071  0.4157  0.0029  0.9899
 3591WAT      O16168  -4.700  10.320   3.981 -0.4486 -0.0754  1.3197
 3591WAT     H116169  -4.668  10.336   4.069 -0.7062  0.4543  1.3194
 3591WAT     H216170  -4.790  10.351   3.982 -0.3131  0.3522  0.7436
 3591WAT    EPW16171  -4.708  10.326   3.993 -0.4649  0.0505  1.2438
 3592WAT      O16172  -1.384   4.775   7.038  0.2169 -0.1186  0.0765
 3592WAT     H116173  -1.452   4.804   6.977 -1.4366 -1.6970  1.0637
 3592WAT     H216174  -1.302   4.801   6.996 -0.7911 -1.5356 -3.0622
 3592WAT    EPW16175  -1.383   4.783   7.024 -0.1342 -0.5136 -0.2074
 3593WAT      O16176   4.472   4.454   2.822  0.0250 -0.4041 -0.4322
 3593WAT     H116177   4.501   4.444   2.912  0.6217 -0.6567 -0.6527
 3593WAT     H216178   4.552   4.456   2.770 -0.0792  2.8331 -0.6960
 3593WAT    EPW16179   4.486   4.453   2.827  0.0899 -0.0103 -0.4960
 3594WAT      O16180   2.486   2.206   3.224  0.5344 -1.0762  0.4413
 3594WAT     H116181   2.449   2.289   3.253  2.5667 -0.2282  0.7881
 3594WAT     H216182   2.554   2.230   3.161  2.4705 -2.2800  1.9270
 3594WAT    EPW16183   2.490   2.220   3.220  1.0577 -1.1231  0.6829
 3595WAT      O16184  -0.462   5.137   8.615 -0.0418  0.5932  1.0516
 3595WAT     H116185  -0.392   5.201   8.627  1.0815 -0.4008  0.1711
 3595WAT     H216186  -0.522   5.177   8.552 -0.2232  1.4209  1.7430
 3595WAT    EPW16187  -0.461   5.151   8.608  0.0824  0.5713  1.0266
 3596WAT      O16188  -0.820   8.605   3.655  0.7299  0.3000  0.4417
 3596WAT     H116189  -0.860   8.623   3.570  0.7796  0.6026  0.4841
 3596WAT     H216190  -0.880   8.542   3.696 -0.7070  2.1444  1.2830
 3596WAT    EPW16191  -0.833   8.599   3.649  0.5469  0.5832  0.5583
 3597WAT      O16192   6.526   6.482   1.744  0.3759  0.2092  0.6151
 3597WAT     H116193   6.540   6.476   1.838  1.5994  0.8545  0.5018
 3597WAT     H216194   6.582   6.555   1.716  0.3966 -0.2607 -0.6673
 3597WAT    EPW16195   6.535   6.491   1.753  0.5398  0.2325  0.4311
 3598WAT      O16196   1.776   1.979   1.905 -0.7383 -0.0650 -0.4612
 3598WAT     H116197   1.748   2.066   1.876  0.5532  0.0161 -1.5628
 3598WAT     H216198   1.859   1.994   1.950  0.9861 -0.9479 -3.1012
 3598WAT    EPW16199   1.783   1.993   1.907 -0.3405 -0.1708 -0.9547
 3599WAT      O16200  -1.717   4.721   8.672 -0.4195 -0.2069 -0.3230
 3599WAT     H116201  -1.725   4.808   8.713  0.3885  0.6276 -1.8633
 3599WAT     H216202  -1.775   4.666   8.723  0.3475  0.8254  1.8056
 3599WAT    EPW16203  -1.725   4.725   8.684 -0.2118  0.0393 -0.2456
 3600WAT      O16204   3.552   2.977   6.702 -0.1610  0.2815  0.5955
 3600WAT     H116205   3.615   3.020   6.645 -1.9648  2.7681  0.3042
 3600WAT     H216206   3.517   2.905   6.649  1.9636 -0.8039  0.5895
 3600WAT    EPW16207   3.556   2.973   6.687 -0.1186  0.4662  0.5562
 3601WAT      O16208   0.905   2.959   8.079 -0.2087  0.0824 -0.2554
 3601WAT     H116209   0.961   2.976   8.003  0.4137 -0.6972  0.0195
 3601WAT     H216210   0.860   3.043   8.094 -0.1062  0.3405 -1.2776
 3601WAT    EPW16211   0.906   2.972   8.071 -0.1131  0.0136 -0.3543
 3602WAT      O16212  -2.884   2.311   4.110 -0.3205  0.3233 -0.0614
 3602WAT     H116213  -2.821   2.380   4.132  0.6710 -1.1960  2.3596
 3602WAT     H216214  -2.853   2.277   4.026  0.4227  1.4094 -0.2528
 3602WAT    EPW16215  -2.871   2.316   4.102 -0.0917  0.2662  0.2327
 3603WAT      O16216  -0.540  10.049   3.412 -0.7197 -0.4219  0.0149
 3603WAT     H116217  -0.607  10.090   3.358 -1.3296 -0.2111  0.9096
 3603WAT     H216218  -0.572  10.059   3.502  0.3890 -0.5397  0.4407
 3603WAT    EPW16219  -0.553  10.056   3.417 -0.6539 -0.4101  0.1889
 3604WAT      O16220   7.826   2.157   1.350 -0.2324 -0.2724 -0.2996
 3604WAT     H116221   7.902   2.128   1.298 -0.7919 -0.3134 -1.1172
 3604WAT     H216222   7.809   2.084   1.409  2.1229  0.8481  1.9580
 3604WAT    EPW16223   7.834   2.144   1.351  0.0043 -0.1301 -0.1097
 3605WAT      O16224   0.116   6.011   5.598 -0.5829  0.0461  0.0546
 3605WAT     H116225   0.200   6.005   5.553 -0.2087  0.8731  0.6070
 3605WAT     H216226   0.090   6.103   5.588 -1.0123 -0.0124  0.5856
 3605WAT    EPW16227   0.124   6.023   5.591 -0.5901  0.1473  0.1974
 3606WAT      O16228  -0.813   5.641   3.172  0.4482  0.6360  0.2646
 3606WAT     H116229  -0.860   5.691   3.106 -1.1337 -2.1404 -0.9008
 3606WAT     H216230  -0.882   5.595   3.221  1.5974 -4.4663 -2.1936
 3606WAT    EPW16231  -0.828   5.641   3.170  0.3911 -0.4029 -0.2133
 3607WAT      O16232  -0.111   7.843   4.738  0.1506 -0.1735  0.5128
 3607WAT     H116233  -0.073   7.860   4.825  0.2224 -0.2857  0.5029
 3607WAT     H216234  -0.050   7.783   4.696 -0.1449 -0.5313  0.5807
 3607WAT    EPW16235  -0.098   7.837   4.744  0.1211 -0.2353  0.5205
 3608WAT      O16236  -0.165   1.190   5.152  1.0208 -0.4605 -0.1123
 3608WAT     H116237  -0.198   1.254   5.089  1.7963 -0.5584 -0.6279
 3608WAT     H216238  -0.195   1.223   5.237 -0.1094 -0.3760 -0.5253
 3608WAT    EPW16239  -0.173   1.203   5.155  0.9740 -0.4623 -0.2348
 3609WAT      O16240   3.638   4.282   5.077 -0.0863  0.1777 -0.0347
 3609WAT     H116241   3.697   4.207   5.072  0.4754  0.6591 -3.6632
 3609WAT     H216242   3.550   4.244   5.075 -0.2003 -0.5248  5.0558
 3609WAT    EPW16243   3.634   4.267   5.076 -0.0273  0.1485  0.1581
 3610WAT      O16244   1.018   9.856   3.662 -0.3007  0.2413 -0.8134
 3610WAT     H116245   1.077   9.789   3.695 -0.3437  0.3997 -0.4205
 3610WAT     H216246   0.970   9.887   3.739  1.2608  2.3039 -0.5829
 3610WAT    EPW16247   1.019   9.851   3.676 -0.1004  0.5341 -0.7311
 3611WAT      O16248   1.349   2.627   1.808 -0.4518 -0.1109  0.0705
 3611WAT     H116249   1.380   2.568   1.877 -2.0546 -1.3147 -0.1760
 3611WAT     H216250   1.339   2.711   1.852  1.1882 -0.1655  0.6065
 3611WAT    EPW16251   1.351   2.630   1.823 -0.4469 -0.2770  0.1087
 3612WAT      O16252  -2.761   9.363   1.416 -0.4888  0.5913  0.2857
 3612WAT     H116253  -2.841   9.384   1.465  0.3388  1.2858  1.4003
 3612WAT     H216254  -2.790   9.306   1.345 -2.4696  3.2277 -1.2005
 3612WAT    EPW16255  -2.775   9.359   1.413 -0.6409  1.0309  0.2366
 3613WAT      O16256   1.459   5.713   2.003  0.0010 -0.1587  0.2221
 3613WAT     H116257   1.410   5.637   1.972  0.1024 -0.8285  1.6102
 3613WAT     H216258   1.550   5.682   2.011  0.0644  0.1317  0.6962
 3613WAT    EPW16259   1.465   5.699   2.000  0.0228 -0.2086  0.4678
 3614WAT      O16260  -3.602   8.035   5.547  0.1583 -0.1601  0.5328
 3614WAT     H116261  -3.675   8.096   5.538  1.1744  1.0067 -0.1256
 3614WAT     H216262  -3.536   8.068   5.486  2.2027  0.2381  2.8240
 3614WAT    EPW16263  -3.603   8.048   5.538  0.5621  0.0463  0.7479
 3615WAT      O16264   2.161   8.575   5.016  0.1802  0.1928  0.3704
 3615WAT     H116265   2.153   8.606   5.106 -0.3511  0.6828  0.1584
 3615WAT     H216266   2.129   8.648   4.962  3.5367  1.2313 -0.4276
 3615WAT    EPW16267   2.156   8.589   5.021  0.5528  0.3943  0.2372
 3616WAT      O16268  -4.602   2.132   6.926 -0.0315 -0.2418  0.4865
 3616WAT     H116269  -4.623   2.048   6.886  1.3213 -0.2258 -0.3236
 3616WAT     H216270  -4.673   2.148   6.988 -2.1113 -0.3819 -1.7260
 3616WAT    EPW16271  -4.614   2.123   6.929 -0.1273 -0.2581  0.0877
 3617WAT      O16272  -4.387   9.795   7.062 -0.8111  0.3562  1.2778
 3617WAT     H116273  -4.382   9.699   7.057 -0.9423  0.3810  0.6337
 3617WAT     H216274  -4.414   9.812   7.153  0.7551 -0.1397  1.8641
 3617WAT    EPW16275  -4.390   9.784   7.073 -0.6220  0.2942  1.2703
 3618WAT      O16276   6.907   0.999   5.771  0.4996  0.2676  0.1171
 3618WAT     H116277   6.891   1.018   5.678 -0.3688  0.1441  0.2331
 3618WAT     H216278   6.980   1.056   5.795  0.5448  0.5090 -0.5677
 3618WAT    EPW16279   6.915   1.009   5.762  0.3912  0.2831  0.0422
 3619WAT      O16280   1.443   8.898   6.950  0.1573 -0.6694 -0.2289
 3619WAT     H116281   1.457   8.990   6.929  0.8818 -0.9390 -0.9563
 3619WAT     H216282   1.404   8.899   7.038  0.4554  0.3060 -0.1014
 3619WAT    EPW16283   1.440   8.910   6.959  0.2922 -0.5765 -0.3080
 3620WAT      O16284  -4.413   4.316   5.657  0.0535  0.4592 -0.4464
 3620WAT     H116285  -4.375   4.279   5.578  2.2112  0.5687  0.4681
 3620WAT     H216286  -4.398   4.249   5.724  0.0091  1.1539  0.2736
 3620WAT    EPW16287  -4.406   4.302   5.656  0.3321  0.5653 -0.2310
 3621WAT      O16288  -2.621  10.090   3.882 -0.2871  0.3499  0.2354
 3621WAT     H116289  -2.548  10.142   3.849 -0.8766  2.0150  1.3911
 3621WAT     H216290  -2.688  10.155   3.904 -2.0902 -1.1061 -0.6507
 3621WAT    EPW16291  -2.620  10.106   3.880 -0.6027  0.3777  0.2708
 3622WAT      O16292   5.382   4.253   4.069  0.1182 -0.8611  0.0343
 3622WAT     H116293   5.341   4.170   4.048  0.6371 -1.6768  2.0409
 3622WAT     H216294   5.342   4.280   4.151 -0.7082  1.3794 -1.0201
 3622WAT    EPW16295   5.372   4.246   4.077  0.0777 -0.6731  0.1600
 3623WAT      O16296  -1.888   4.233   5.299  0.8089  0.3237  0.5369
 3623WAT     H116297  -1.884   4.322   5.263  1.4232  0.7156  1.5491
 3623WAT     H216298  -1.868   4.244   5.392  0.5755 -0.8401  0.7351
 3623WAT    EPW16299  -1.885   4.246   5.306  0.8591  0.2217  0.6964
 3624WAT      O16300   3.853   7.026   1.532 -0.4749 -0.4103 -0.2421
 3624WAT     H116301   3.793   7.060   1.465  0.1987 -0.3437 -0.8172
 3624WAT     H216302   3.814   7.055   1.615 -0.1978  1.3269 -0.6758
 3624WAT    EPW16303   3.840   7.034   1.534 -0.3495 -0.1724 -0.3752
 3625WAT      O16304  -7.415   8.527   8.751 -0.9367 -0.6335 -0.6928
 3625WAT     H116305  -7.502   8.536   8.713 -2.0250 -0.3992  1.6915
 3625WAT     H216306  -7.374   8.456   8.701 -2.7795 -1.2812 -1.3556
 3625WAT    EPW16307  -7.421   8.519   8.740 -1.3232 -0.6876 -0.4659
 3626WAT      O16308   1.668   1.762   0.913  0.3490  0.6959 -1.2429
 3626WAT     H116309   1.596   1.804   0.959 -0.1116 -2.3017  1.0983
 3626WAT     H216310   1.629   1.727   0.833 -1.2468 -1.8428  0.5007
 3626WAT    EPW16311   1.654   1.763   0.908  0.0778 -0.0343 -0.7041
 3627WAT      O16312   0.262   7.017   8.357 -0.5286 -0.1782  0.2813
 3627WAT     H116313   0.192   7.037   8.294 -0.7452 -0.6375  0.3702
 3627WAT     H216314   0.216   6.987   8.435 -0.2268 -0.8891  0.1947
 3627WAT    EPW16315   0.247   7.016   8.359 -0.5174 -0.3326  0.2818
 3628WAT      O16316   2.646   4.662   3.245  0.1383 -0.1940  0.9489
 3628WAT     H116317   2.570   4.700   3.289  1.6574  0.6245  3.0362
 3628WAT     H216318   2.620   4.657   3.153 -0.0824  6.8539  0.0697
 3628WAT    EPW16319   2.633   4.666   3.239  0.3095  0.8433  1.1084
 3629WAT      O16320   1.915   8.381   2.676  0.0241  0.1206  0.0765
 3629WAT     H116321   2.000   8.422   2.659 -0.2936  0.3902 -0.9140
 3629WAT     H216322   1.864   8.450   2.718 -0.6637  0.9622 -2.0007
 3629WAT    EPW16323   1.920   8.396   2.679 -0.1085  0.2670 -0.3281
 3630WAT      O16324  -1.998   4.597   3.147  0.3925  0.3536  0.1853
 3630WAT     H116325  -2.061   4.603   3.075  0.9354  2.3149 -0.1821
 3630WAT     H216326  -2.049   4.562   3.220 -1.2529  2.1496 -0.0162
 3630WAT    EPW16327  -2.013   4.593   3.147  0.2470  0.8495  0.1103
 3631WAT      O16328   2.245   2.748   2.305 -0.2853  0.3028  0.1520
 3631WAT     H116329   2.236   2.827   2.253 -0.0888  1.1663  1.3798
 3631WAT     H216330   2.235   2.778   2.396  0.0312 -1.0388  0.6525
 3631WAT    EPW16331   2.243   2.762   2.310 -0.2176  0.2397  0.3799
 3632WAT      O16332  -1.636   3.675   3.957  0.4612 -0.6650 -0.0929
 3632WAT     H116333  -1.574   3.746   3.973  1.2304 -0.8156 -2.0957
 3632WAT     H216334  -1.606   3.605   4.014  1.2950 -0.2442  0.0146
 3632WAT    EPW16335  -1.624   3.675   3.966  0.6726 -0.6293 -0.3428
 3633WAT      O16336   5.284   7.400   4.031  0.2339  0.6708 -0.2441
 3633WAT     H116337   5.193   7.390   4.004 -0.1329  0.4838  1.0066
 3633WAT     H216338   5.290   7.491   4.061 -0.1006  0.1148  1.6121
 3633WAT    EPW16339   5.273   7.411   4.031  0.1414  0.5727  0.1657
 3634WAT      O16340   0.965   1.703   4.784 -0.1880  0.7986 -0.4742
 3634WAT     H116341   0.903   1.630   4.772 -1.4138  1.8310 -0.6383
 3634WAT     H216342   1.001   1.690   4.872  0.2306 -0.4360 -0.7966
 3634WAT    EPW16343   0.962   1.692   4.794 -0.2944  0.7719 -0.5383
 3635WAT      O16344   5.041   2.422   5.270 -0.3096 -0.4687  0.5929
 3635WAT     H116345   5.109   2.477   5.310 -0.6059  0.4757 -0.1545
 3635WAT     H216346   5.073   2.406   5.181  0.6872 -3.1358  1.3541
 3635WAT    EPW16347   5.054   2.427   5.264 -0.2172 -0.6959  0.5949
 3636WAT      O16348   1.902   1.892   0.822 -0.0552 -0.6089 -0.4459
 3636WAT     H116349   1.818   1.850   0.845 -0.5164  0.2653 -0.4956
 3636WAT     H216350   1.955   1.885   0.901 -1.2974  1.5712  0.6490
 3636WAT    EPW16351   1.898   1.885   0.835 -0.2799 -0.2060 -0.3080
 3637WAT      O16352  -0.869   5.010   2.831 -0.1417  0.3065 -0.2392
 3637WAT     H116353  -0.873   4.957   2.752 -2.0544  0.0864 -0.0236
 3637WAT     H216354  -0.862   4.946   2.902  4.2266  0.4977 -0.2109
 3637WAT    EPW16355  -0.868   4.995   2.830  0.1822  0.3026 -0.2069
 3638WAT      O16356   3.503   6.063   1.032 -0.5041 -0.0671  0.2122
 3638WAT     H116357   3.526   6.064   0.939 -1.9526  0.5245 -0.1740
 3638WAT     H216358   3.418   6.018   1.035 -0.3192 -0.3764  1.2983
 3638WAT    EPW16359   3.495   6.057   1.020 -0.6707 -0.0298  0.3045
 3639WAT      O16360   7.487   3.484   2.354  0.9503 -0.2783  0.2549
 3639WAT     H116361   7.414   3.520   2.302  2.7829 -0.7519 -2.9336
 3639WAT     H216362   7.465   3.391   2.364 -0.5041  0.2511  2.4516
 3639WAT    EPW16363   7.474   3.476   2.348  1.0002 -0.2710  0.1241
 3640WAT      O16364   5.676   9.991   2.144 -0.1271  0.4354 -0.6464
 3640WAT     H116365   5.663   9.930   2.072  0.3690  0.8708 -1.1171
 3640WAT     H216366   5.759  10.035   2.124  1.0259 -0.7687  1.1556
 3640WAT    EPW16367   5.685   9.989   2.132  0.0904  0.3343 -0.4709
 3641WAT      O16368   2.833  10.199   0.225  0.3604 -0.2046 -0.6654
 3641WAT     H116369   2.804  10.108   0.227 -2.1840  0.5223  1.5394
 3641WAT     H216370   2.854  10.220   0.316  1.4523  1.2823 -1.2130
 3641WAT    EPW16371   2.832  10.190   0.237  0.1689  0.0877 -0.4468
 3642WAT      O16372   2.292   6.931   8.933 -0.5710 -0.5495 -0.0035
 3642WAT     H116373   2.292   6.891   8.846  0.1144  2.8927 -1.7358
 3642WAT     H216374   2.375   6.905   8.972  0.1621 -0.2961 -1.3485
 3642WAT    EPW16375   2.303   6.922   8.927 -0.3839 -0.0620 -0.4096
 3643WAT      O16376   0.985   6.954   4.551 -0.2930  0.5858 -0.5388
 3643WAT     H116377   1.011   6.874   4.596  0.1870  0.7949 -0.4340
 3643WAT     H216378   1.066   6.988   4.513 -0.5253  0.9177 -0.7498
 3643WAT    EPW16379   0.999   6.948   4.552 -0.2603  0.6571 -0.5529
 3644WAT      O16380   1.969   5.740   6.314  0.0113  0.7397  0.9955
 3644WAT     H116381   2.052   5.703   6.345 -0.1621 -1.8705 -1.2406
 3644WAT     H216382   1.915   5.747   6.393  0.8264 -2.0468  1.9429
 3644WAT    EPW16383   1.973   5.736   6.329  0.0960  0.0279  0.8256
 3645WAT      O16384  -0.964   0.756   2.914  0.2255 -0.1178 -0.1690
 3645WAT     H116385  -1.054   0.740   2.943 -0.1815 -1.1023 -1.8568
 3645WAT     H216386  -0.939   0.676   2.868  2.4817 -0.4282  1.4075
 3645WAT    EPW16387  -0.972   0.743   2.912  0.4694 -0.2886 -0.1837
 3646WAT      O16388   0.286   6.411   3.948 -0.5135 -0.0029 -1.0230
 3646WAT     H116389   0.295   6.339   3.886 -2.3503  0.4833 -1.9342
 3646WAT     H216390   0.224   6.471   3.906 -1.1641  0.7589  0.9052
 3646WAT    EPW16391   0.279   6.409   3.935 -0.8416  0.1619 -0.8888
 3647WAT      O16392   2.450   1.427   5.885  0.0748  0.5998 -0.1621
 3647WAT     H116393   2.534   1.465   5.911  0.1086 -0.3009  1.1344
 3647WAT     H216394   2.390   1.502   5.882  0.6266  1.0652  0.1918
 3647WAT    EPW16395   2.453   1.442   5.888  0.1520  0.5425  0.0556
 3648WAT      O16396   6.301   6.137   1.374  0.3458 -0.6076  0.0498
 3648WAT     H116397   6.287   6.046   1.349  1.4226 -0.4341 -1.3111
 3648WAT     H216398   6.393   6.142   1.398  0.5666  0.3105 -0.8842
 3648WAT    EPW16399   6.311   6.126   1.374  0.5169 -0.4635 -0.2529
 3649WAT      O16400  -5.667   9.410   4.788  0.1033 -0.2969  0.4195
 3649WAT     H116401  -5.652   9.415   4.694  1.1807 -0.5056  0.5766
 3649WAT     H216402  -5.742   9.468   4.803 -0.0975 -0.2872 -0.5637
 3649WAT    EPW16403  -5.675   9.418   4.777  0.2189 -0.3233  0.3107
 3650WAT      O16404  -0.480   8.275   1.898 -0.2726  0.1125  0.0141
 3650WAT     H116405  -0.420   8.225   1.955 -0.9327  1.4657  2.0091
 3650WAT     H216406  -0.556   8.293   1.953 -1.9388 -0.3399 -2.0264
 3650WAT    EPW16407  -0.482   8.271   1.913 -0.5794  0.2313  0.0081
 3651WAT      O16408   2.868   9.914   6.357  0.0860 -0.2845  0.2113
 3651WAT     H116409   2.858   9.843   6.294  0.8466  0.0321 -0.2918
 3651WAT     H216410   2.959   9.906   6.388  0.3522  0.7528 -0.2334
 3651WAT    EPW16411   2.879   9.904   6.353  0.2214 -0.1059  0.0863
 3652WAT      O16412  -2.568   5.075   3.187  0.9390  0.6274  0.0737
 3652WAT     H116413  -2.516   4.996   3.203  1.4955  1.4641  2.9091
 3652WAT     H216414  -2.625   5.082   3.263 -1.6532  1.1167 -1.7853
 3652WAT    EPW16415  -2.569   5.066   3.199  0.6706  0.8020  0.2025
 3653WAT      O16416   5.248   0.290   3.777 -1.1262 -0.0132  0.4734
 3653WAT     H116417   5.281   0.200   3.777 -1.1548 -0.0620 -1.2134
 3653WAT     H216418   5.321   0.343   3.808 -0.5402 -0.4717 -0.0993
 3653WAT    EPW16419   5.262   0.285   3.781 -1.0524 -0.0801  0.1754
 3654WAT      O16420   1.442   3.676   4.212 -0.0983 -0.0654 -0.1629
 3654WAT     H116421   1.490   3.594   4.202 -0.5919 -0.5111  0.8964
 3654WAT     H216422   1.360   3.662   4.164  0.1166  0.0734 -0.5721
 3654WAT    EPW16423   1.438   3.664   4.204 -0.1351 -0.1060 -0.0770
 3655WAT      O16424   2.397   2.884   2.669  0.2841  0.0920 -0.3293
 3655WAT     H116425   2.462   2.920   2.609  0.4126 -0.1121 -0.3132
 3655WAT     H216426   2.430   2.906   2.757  0.5453 -0.3624 -0.3062
 3655WAT    EPW16427   2.410   2.891   2.673  0.3355  0.0051 -0.3240
 3656WAT      O16428  -1.782   5.652   5.891 -0.2378  0.0408 -0.5477
 3656WAT     H116429  -1.743   5.655   5.803  0.0289 -1.4458 -0.5011
 3656WAT     H216430  -1.782   5.559   5.914  2.6276  0.5783  2.2988
 3656WAT    EPW16431  -1.777   5.640   5.882  0.1754 -0.0844 -0.1662
 3657WAT      O16432  -2.119   1.216   6.848 -0.2589  0.1108  0.2113
 3657WAT     H116433  -2.043   1.262   6.814 -0.6486  1.2724  0.8307
 3657WAT     H216434  -2.104   1.211   6.943 -1.2203  0.9417  0.4337
 3657WAT    EPW16435  -2.107   1.221   6.856 -0.4371  0.3736  0.3223
 3658WAT      O16436  -6.057   6.292   7.193 -0.0169  0.3964 -0.0787
 3658WAT     H116437  -6.109   6.216   7.220  0.1201  0.1980 -0.3742
 3658WAT     H216438  -6.115   6.341   7.134  0.5983 -0.5400 -1.5045
 3658WAT    EPW16439  -6.072   6.288   7.189  0.0823  0.2468 -0.3057
 3659WAT      O16440   3.589   2.066   4.122 -0.3489  0.1677 -0.4418
 3659WAT     H116441   3.656   2.134   4.109 -1.9115  2.2365  1.5425
 3659WAT     H216442   3.619   2.019   4.200  0.4141 -1.1078 -1.4628
 3659WAT    EPW16443   3.602   2.069   4.131 -0.4544  0.2723 -0.3147
 3660WAT      O16444   0.446   5.331   1.739  0.0922  0.1365  0.2418
 3660WAT     H116445   0.419   5.420   1.717 -0.3713 -0.0208  0.1384
 3660WAT     H216446   0.397   5.310   1.819 -0.5991 -0.3822 -0.2998
 3660WAT    EPW16447   0.436   5.340   1.747 -0.0601  0.0474  0.1567
 3661WAT      O16448   4.055   8.854   2.817 -0.0589  0.0121  0.1099
 3661WAT     H116449   4.054   8.947   2.838  1.5501  0.0102  0.2633
 3661WAT     H216450   4.130   8.842   2.760 -0.0010 -1.2667  0.4048
 3661WAT    EPW16451   4.065   8.864   2.812  0.1612 -0.1569  0.1690
 3662WAT      O16452   3.672   7.695   7.284 -0.2028 -0.1859 -0.1679
 3662WAT     H116453   3.701   7.773   7.237  0.6337  0.4905  1.3839
 3662WAT     H216454   3.752   7.662   7.326 -0.4268 -2.2444 -1.2593
 3662WAT    EPW16455   3.687   7.701   7.284 -0.1221 -0.3684 -0.1073
 3663WAT      O16456   0.382   2.965   1.546  0.2337 -0.7010 -0.1514
 3663WAT     H116457   0.369   3.057   1.565  1.3160 -0.2173 -1.5470
 3663WAT     H216458   0.295   2.932   1.522  0.0156  0.2167 -0.6472
 3663WAT    EPW16459   0.369   2.973   1.545  0.3476 -0.5162 -0.4008
 3664WAT      O16460   0.750   4.441   1.236 -0.4771  0.2731  0.1471
 3664WAT     H116461   0.746   4.439   1.332 -0.6683  0.1144  0.1377
 3664WAT     H216462   0.706   4.522   1.212  2.6642  2.1754  0.3300
 3664WAT    EPW16463   0.743   4.451   1.246 -0.0880  0.5031  0.1701
 3665WAT      O16464   6.640   5.369   0.153  0.3649 -0.2557  0.0073
 3665WAT     H116465   6.656   5.278   0.179  1.1876 -0.1125  0.0561
 3665WAT     H216466   6.714   5.390   0.095 -1.5404 -0.6623 -2.7683
 3665WAT    EPW16467   6.652   5.360   0.149  0.2224 -0.2904 -0.3523
 3666WAT      O16468  -0.855   0.621   4.727  0.7345 -0.5747 -0.0463
 3666WAT     H116469  -0.894   0.584   4.806  0.1130 -1.7787 -0.8759
 3666WAT     H216470  -0.886   0.564   4.657  0.2023  1.2288 -1.3345
 3666WAT    EPW16471  -0.864   0.608   4.728  0.5823 -0.4957 -0.3257
 3667WAT      O16472   3.295   3.581   4.665  0.2087 -0.2581 -0.0932
 3667WAT     H116473   3.247   3.505   4.698 -2.2082  0.9276 -0.6622
 3667WAT     H216474   3.355   3.544   4.600  0.5545 -1.8698  1.0648
 3667WAT    EPW16475   3.296   3.566   4.661 -0.0645 -0.3144 -0.0155
 3668WAT      O16476   1.121   7.514   6.105 -0.1591 -0.0384  0.0504
 3668WAT     H116477   1.084   7.504   6.193  1.5740  0.6513  0.9033
 3668WAT     H216478   1.202   7.464   6.108 -0.9500 -1.5222 -1.7662
 3668WAT    EPW16479   1.127   7.506   6.117 -0.0348 -0.1433 -0.0765
 3669WAT      O16480   2.922   2.094   5.185 -0.0496  0.2765  0.0775
 3669WAT     H116481   2.993   2.051   5.234 -0.1139  1.5326  1.3460
 3669WAT     H216482   2.874   2.022   5.145  0.8262 -0.7302  0.7801
 3669WAT    EPW16483   2.925   2.079   5.186  0.0575  0.3093  0.3376
 3670WAT      O16484   6.290   0.028   2.282  0.0388 -1.0061  0.2509
 3670WAT     H116485   6.368   0.029   2.226  1.7036 -1.6776  2.4301
 3670WAT     H216486   6.280   0.118   2.312 -0.8076 -0.6625 -0.9874
 3670WAT    EPW16487   6.299   0.040   2.278  0.1469 -1.0494  0.3749
 3671WAT      O16488  -0.457  10.035   5.042  0.0567  0.0432  0.1546
 3671WAT     H116489  -0.371  10.000   5.019  0.6671  1.9524 -0.6517
 3671WAT     H216490  -0.453  10.048   5.136  1.5069  2.1074 -0.1136
 3671WAT    EPW16491  -0.445  10.032   5.051  0.3285  0.5670  0.0129
 3672WAT      O16492   2.175   5.717   3.926  0.3662  0.2141  0.0471
 3672WAT     H116493   2.098   5.773   3.941 -0.0986 -0.4096  0.0581
 3672WAT     H216494   2.184   5.715   3.830  0.5541  0.5341  0.0584
 3672WAT    EPW16495   2.166   5.724   3.915  0.3297  0.1740  0.0501
 3673WAT      O16496  -1.654   2.950   7.833  0.2907 -0.0078  0.1408
 3673WAT     H116497  -1.604   3.011   7.887  1.0883  0.7638 -1.4048
 3673WAT     H216498  -1.645   2.866   7.879 -1.6108  1.0986  2.8251
 3673WAT    EPW16499  -1.646   2.947   7.846  0.1451  0.2400  0.2909
 3674WAT      O16500   7.599   1.910   4.032 -0.8309  0.3461  0.0606
 3674WAT     H116501   7.604   1.826   3.986 -1.8956  0.6294 -0.6154
 3674WAT     H216502   7.671   1.961   3.995 -0.5471 -0.0612  0.0412
 3674WAT    EPW16503   7.609   1.906   4.021 -0.9339  0.3297 -0.0310
 3675WAT      O16504   0.746   0.181   4.971 -0.2560 -0.1851 -0.1429
 3675WAT     H116505   0.697   0.104   4.942  1.0376 -1.0174 -0.2151
 3675WAT     H216506   0.739   0.242   4.898 -1.3827 -0.1617 -0.0447
 3675WAT    EPW16507   0.738   0.179   4.958 -0.2340 -0.2918 -0.1395
 3676WAT      O16508   3.605   6.551   7.688  0.0303  0.1970  0.5723
 3676WAT     H116509   3.616   6.624   7.750 -1.1580 -0.6807  1.8917
 3676WAT     H216510   3.522   6.511   7.714 -1.4323  0.8262 -2.7300
 3676WAT    EPW16511   3.596   6.555   7.700 -0.3194  0.1640  0.3109
 3677WAT      O16512  -1.714   1.093   6.886  1.0612 -0.0722 -0.1500
 3677WAT     H116513  -1.708   1.188   6.896  0.9519  0.2001 -2.1706
 3677WAT     H216514  -1.632   1.060   6.921  0.5712  0.6137  1.7810
 3677WAT    EPW16515  -1.702   1.101   6.892  0.9820  0.0541 -0.1619
 3678WAT      O16516   2.755   7.536   1.234  0.1276 -0.0608 -0.6251
 3678WAT     H116517   2.812   7.611   1.217  0.1999  0.1031  0.2730
 3678WAT     H216518   2.809   7.460   1.212  1.2338  0.0279  1.5424
 3678WAT    EPW16519   2.770   7.536   1.229  0.2830 -0.0274 -0.2208
 3679WAT      O16520   5.235   4.131   2.930 -0.3369  0.6474  0.1138
 3679WAT     H116521   5.195   4.146   2.844  0.9622  1.5802 -0.3607
 3679WAT     H216522   5.269   4.042   2.926 -2.5386 -0.2861  0.6345
 3679WAT    EPW16523   5.234   4.121   2.918 -0.4559  0.6475  0.1199
 3680WAT      O16524   2.536   1.898   5.874  1.0032  0.2386  0.4272
 3680WAT     H116525   2.602   1.837   5.841  1.8275  0.4682  1.5975
 3680WAT     H216526   2.586   1.967   5.917  0.0492  1.2481 -0.0332
 3680WAT    EPW16527   2.551   1.899   5.875  0.9862  0.4021  0.5209
 3681WAT      O16528  -2.562   1.582   8.537 -0.5410 -0.1966  0.8231
 3681WAT     H116529  -2.592   1.493   8.557  0.2839 -0.8867 -0.8467
 3681WAT     H216530  -2.610   1.606   8.458 -1.6536  1.3702  1.9018
 3681WAT    EPW16531  -2.573   1.574   8.529 -0.5789 -0.0810  0.7453
 3682WAT      O16532  -2.825   4.168   7.719  0.3293 -0.1964  0.7860
 3682WAT     H116533  -2.761   4.212   7.776  0.6284  0.1397  0.2045
 3682WAT     H216534  -2.909   4.182   7.762  0.5384  0.1294  1.0971
 3682WAT    EPW16535  -2.828   4.176   7.732  0.3964 -0.1090  0.7503
 3683WAT      O16536  -0.048   9.415   5.748 -0.3579  0.4880  0.1738
 3683WAT     H116537  -0.021   9.387   5.661 -0.5316 -0.8967  0.5297
 3683WAT     H216538  -0.140   9.439   5.738 -0.3215  0.5298 -0.0685
 3683WAT    EPW16539  -0.057   9.414   5.736 -0.3760  0.3109  0.1888
 3684WAT      O16540   0.994   6.551   7.494  0.5324  0.0657  0.0135
 3684WAT     H116541   1.046   6.472   7.510 -1.5440 -1.4386 -0.2337
 3684WAT     H216542   0.909   6.518   7.465  0.0614  2.4282 -1.6256
 3684WAT    EPW16543   0.990   6.536   7.492  0.1964  0.1791 -0.2353
 3685WAT      O16544  -4.878   9.293   6.078 -0.2141  0.3483  0.4240
 3685WAT     H116545  -4.955   9.343   6.104  0.3320  0.9602  0.8904
 3685WAT     H216546  -4.855   9.329   5.992  0.9917  1.9077  1.3451
 3685WAT    EPW16547  -4.885   9.304   6.070  0.0169  0.6342  0.6070
 3686WAT      O16548  -2.872   2.379   3.497 -0.1353 -0.8160 -0.3382
 3686WAT     H116549  -2.890   2.287   3.479  1.4630 -1.4679  1.1881
 3686WAT     H216550  -2.778   2.383   3.515 -0.4091  0.8772  0.9949
 3686WAT    EPW16551  -2.862   2.367   3.497  0.0392 -0.6787  0.0390
 3687WAT      O16552   1.763   8.406   1.567  0.0371  0.6611  0.1855
 3687WAT     H116553   1.747   8.434   1.477 -1.8520 -0.0437  0.2503
 3687WAT     H216554   1.823   8.332   1.559 -0.8971 -0.0275 -0.5853
 3687WAT    EPW16555   1.769   8.400   1.554 -0.3353  0.4773  0.0924
 3688WAT      O16556  -2.788   7.521   0.702 -0.1776  0.1107  0.3225
 3688WAT     H116557  -2.852   7.504   0.632 -1.3190 -0.9610  1.5630
 3688WAT     H216558  -2.772   7.615   0.698  0.8594 -0.1001 -2.2423
 3688WAT    EPW16559  -2.794   7.531   0.692 -0.1915 -0.0584  0.1479
 3689WAT      O16560   2.865  10.301   0.830 -0.1901  0.1747  0.0360
 3689WAT     H116561   2.881  10.217   0.788  0.5243 -0.1694  0.9616
 3689WAT     H216562   2.782  10.331   0.793 -0.3789 -0.8607 -0.4149
 3689WAT    EPW16563   2.857  10.294   0.819 -0.1208 -0.0076  0.0986
 3690WAT      O16564   4.818   7.147   0.414  0.0646  0.3156  0.4273
 3690WAT     H116565   4.792   7.064   0.376  1.3996  0.0768 -0.0016
 3690WAT     H216566   4.791   7.213   0.350  0.8897  0.0394 -0.2109
 3690WAT    EPW16567   4.811   7.145   0.401  0.3495  0.2475  0.2865
 3691WAT      O16568   0.463   0.604   0.359  0.6078  0.7215 -0.3315
 3691WAT     H116569   0.465   0.521   0.406  0.0467 -0.2600 -1.9501
 3691WAT     H216570   0.550   0.642   0.372  0.7738  0.0237  0.6583
 3691WAT    EPW16571   0.475   0.598   0.367  0.5557  0.5001 -0.4144
 3692WAT      O16572  -0.378   6.435   0.755  0.6135 -0.0370  0.6030
 3692WAT     H116573  -0.455   6.421   0.700  2.7173 -1.9251 -2.1979
 3692WAT     H216574  -0.392   6.378   0.831 -1.7877  1.6166  1.5131
 3692WAT    EPW16575  -0.390   6.426   0.758  0.5743 -0.0679  0.3536
 3693WAT      O16576   2.812   5.125   7.072 -0.6559 -0.2333  0.6842
 3693WAT     H116577   2.789   5.170   7.153 -0.0004  0.8591  0.2856
 3693WAT     H216578   2.753   5.162   7.006  0.2111  0.4258  0.2581
 3693WAT    EPW16579   2.801   5.136   7.074 -0.4550 -0.0024  0.5751
 3694WAT      O16580  -0.107   3.338   8.507 -0.7143  0.0787  0.0357
 3694WAT     H116581  -0.175   3.339   8.439 -0.3283 -2.5618 -0.4683
 3694WAT     H216582  -0.033   3.295   8.466  0.8125  1.5939  1.0682
 3694WAT    EPW16583  -0.107   3.333   8.493 -0.4620 -0.0696  0.1054
 3695WAT      O16584  -0.693   8.636   7.820 -0.0095  0.4129 -0.4831
 3695WAT     H116585  -0.663   8.554   7.782  0.6024 -0.5411  1.8357
 3695WAT     H216586  -0.612   8.683   7.842 -0.3187  0.7586 -0.0697
 3695WAT    EPW16587  -0.678   8.631   7.818  0.0305  0.3324 -0.1228
 3696WAT      O16588   9.338   1.040   1.931  0.0883  0.3435  0.0499
 3696WAT     H116589   9.333   1.016   2.024 -0.8347 -0.4070 -0.1781
 3696WAT     H216590   9.383   1.125   1.931 -0.0478  0.4349  1.1979
 3696WAT    EPW16591   9.343   1.048   1.943 -0.0515  0.2566  0.1712
 3697WAT      O16592  -0.774   4.927   0.214 -0.0655  0.0239  0.3820
 3697WAT     H116593  -0.832   5.003   0.221  1.7101  1.2508  3.8174
 3697WAT     H216594  -0.818   4.870   0.150 -4.4248  1.3952  1.7718
 3697WAT    EPW16595  -0.788   4.929   0.207 -0.4063  0.3664  1.0184
 3698WAT      O16596   2.838   9.072   6.553 -0.0251 -0.1316 -0.3029
 3698WAT     H116597   2.841   8.976   6.545 -2.8353 -0.3175 -0.1809
 3698WAT     H216598   2.871   9.090   6.641 -2.5343 -1.3489  0.9733
 3698WAT    EPW16599   2.843   9.062   6.563 -0.7267 -0.3171 -0.1183
 3699WAT      O16600   6.065   0.897   3.517 -0.5014  0.2437 -0.2360
 3699WAT     H116601   6.129   0.938   3.575  1.7873 -1.3057 -1.4873
 3699WAT     H216602   6.048   0.812   3.557 -0.1423 -0.1821 -0.9557
 3699WAT    EPW16603   6.071   0.891   3.530 -0.1521 -0.0168 -0.4959
 3700WAT      O16604   2.104   2.283   7.701  0.7223 -0.8092 -0.1351
 3700WAT     H116605   2.137   2.372   7.694 -1.2438 -0.1328 -1.9304
 3700WAT     H216606   2.019   2.285   7.656  0.3430 -3.4472  0.2815
 3700WAT    EPW16607   2.097   2.295   7.694  0.4129 -1.0679 -0.3169
 3701WAT      O16608  -0.136   0.795   4.314  0.2758  0.7542 -0.2305
 3701WAT     H116609  -0.188   0.723   4.279  1.1330 -0.3332  0.6652
 3701WAT     H216610  -0.197   0.843   4.371 -0.0574  0.1844 -0.1013
 3701WAT    EPW16611  -0.151   0.792   4.317  0.3449  0.5356 -0.0954
 3702WAT      O16612   2.750   5.668   6.765 -0.3645 -0.8145 -0.1094
 3702WAT     H116613   2.727   5.682   6.856  0.8567  0.5248  0.0295
 3702WAT     H216614   2.776   5.576   6.760  0.8528 -0.5700  1.2093
 3702WAT    EPW16615   2.751   5.658   6.776 -0.0429 -0.6058  0.0830
 3703WAT      O16616  -3.165   1.401   7.546 -0.3628  0.6760  0.0584
 3703WAT     H116617  -3.154   1.380   7.453  0.2363 -1.4019  0.5588
 3703WAT     H216618  -3.226   1.475   7.546 -1.7860 -0.3945 -1.9171
 3703WAT    EPW16619  -3.172   1.408   7.534 -0.4715  0.2608 -0.1361
 3704WAT      O16620   2.297   1.039   2.605 -0.0872  0.4516 -0.0706
 3704WAT     H116621   2.239   1.113   2.587 -0.4793  0.0474 -0.4996
 3704WAT     H216622   2.241   0.976   2.651  1.0681  1.8008  3.5306
 3704WAT    EPW16623   2.282   1.040   2.609  0.0135  0.5762  0.3477
 3705WAT      O16624   1.397   5.861   5.713  0.4640  0.1263 -0.4226
 3705WAT     H116625   1.354   5.830   5.793 -0.4723 -0.2731 -1.0638
 3705WAT     H216626   1.388   5.956   5.716  2.0198  0.2777  0.8099
 3705WAT    EPW16627   1.390   5.870   5.724  0.5457  0.0935 -0.3445
 3706WAT      O16628  -4.857   8.068   5.890 -0.5046 -0.5207 -0.4389
 3706WAT     H116629  -4.850   8.151   5.938 -1.4858 -0.1986 -0.8136
 3706WAT     H216630  -4.788   8.073   5.823 -0.4212 -0.1004 -0.3243
 3706WAT    EPW16631  -4.847   8.080   5.887 -0.6232 -0.4225 -0.4733
 3707WAT      O16632   8.182   6.790   0.337 -0.0929  0.2633 -0.1004
 3707WAT     H116633   8.159   6.879   0.363 -1.4191  0.4702 -1.8145
 3707WAT     H216634   8.276   6.783   0.357  0.1321  2.1696 -0.2649
 3707WAT    EPW16635   8.192   6.801   0.343 -0.2384  0.5419 -0.3482
 3708WAT      O16636  -1.426   3.077   4.129  0.2881 -0.2832  0.3791
 3708WAT     H116637  -1.510   3.043   4.097  1.3615 -3.5504  0.6481
 3708WAT     H216638  -1.393   3.130   4.056 -1.9349  1.0940  0.2764
 3708WAT    EPW16639  -1.433   3.079   4.115  0.1364 -0.5325  0.4010
 3709WAT      O16640  -0.312   1.847   3.550  0.0419 -0.0537  0.6589
 3709WAT     H116641  -0.264   1.766   3.530 -0.7237 -0.6611  1.1965
 3709WAT     H216642  -0.278   1.875   3.635  0.3636  0.2363  0.4357
 3709WAT    EPW16643  -0.302   1.840   3.558 -0.0166 -0.0955  0.7005
 3710WAT      O16644  -2.774   8.783   1.453  0.6744  0.9854 -0.2307
 3710WAT     H116645  -2.727   8.866   1.452 -1.1804  2.1005  0.6709
 3710WAT     H216646  -2.806   8.775   1.543 -0.9392  0.3422 -0.8264
 3710WAT    EPW16647  -2.772   8.793   1.465  0.2171  1.0476 -0.1904
 3711WAT      O16648   6.102   5.987   2.793  0.2468  0.1778 -0.4025
 3711WAT     H116649   6.138   5.975   2.881 -2.5274 -3.6409  0.4765
 3711WAT     H216650   6.146   5.922   2.739  1.6088  2.1948 -1.8650
 3711WAT    EPW16651   6.112   5.977   2.797  0.0603 -0.0598 -0.4796
 3712WAT      O16652  -0.469   7.085   3.764 -0.3964  0.3244  0.1633
 3712WAT     H116653  -0.553   7.051   3.735 -0.9667  0.7116  1.3271
 3712WAT     H216654  -0.462   7.172   3.724 -0.3577  0.1276 -0.2615
 3712WAT    EPW16655  -0.479   7.092   3.755 -0.4665  0.3495  0.2607
 3713WAT      O16656   2.985   4.942   0.092 -0.6108  0.7974  0.3618
 3713WAT     H116657   2.947   4.955   0.179  0.2999  1.3736  0.6897
 3713WAT     H216658   3.077   4.922   0.109 -0.6121  0.0507 -0.4376
 3713WAT    EPW16659   2.992   4.941   0.106 -0.4908  0.7746  0.2996
 3714WAT      O16660   2.125   3.960   3.546  0.3174 -0.1268  0.3134
 3714WAT     H116661   2.139   3.957   3.641 -0.4504 -0.2297  0.4261
 3714WAT     H216662   2.150   3.873   3.516  0.9324  0.0281  0.3664
 3714WAT    EPW16663   2.130   3.948   3.555  0.2973 -0.1199  0.3352
 3715WAT      O16664  -5.238   8.545   4.397  0.2295 -0.5287  0.0333
 3715WAT     H116665  -5.180   8.503   4.333  1.0102  0.7547 -0.1351
 3715WAT     H216666  -5.190   8.541   4.480 -1.5469 -3.8705  1.0739
 3715WAT    EPW16667  -5.224   8.539   4.400  0.0980 -0.8001  0.1485
 3716WAT      O16668   2.517  10.322   1.815  0.1602 -0.0223 -0.1929
 3716WAT     H116669   2.530  10.272   1.895  0.0267  0.4144  0.1058
 3716WAT     H216670   2.569  10.277   1.749  0.9559  0.1100  0.3406
 3716WAT    EPW16671   2.525  10.309   1.817  0.2476  0.0529 -0.0831
 3717WAT      O16672  -2.828   9.697   7.736 -0.1076 -0.5383 -0.3246
 3717WAT     H116673  -2.869   9.686   7.650  0.4314  1.2061 -0.8407
 3717WAT     H216674  -2.734   9.700   7.717  0.1595 -2.1837  0.5810
 3717WAT    EPW16675  -2.821   9.696   7.722 -0.0012 -0.5250 -0.2732
 3718WAT      O16676   7.907   0.105   1.705 -0.9692  0.1520 -0.2425
 3718WAT     H116677   7.901   0.121   1.799  3.3820  0.5923  0.1593
 3718WAT     H216678   7.825   0.059   1.683 -2.8958  1.4798  3.3271
 3718WAT    EPW16679   7.895   0.101   1.714 -0.6497  0.3852  0.2813
 3719WAT      O16680  -2.551   2.379   4.611 -0.3854  0.8253  1.2898
 3719WAT     H116681  -2.519   2.379   4.521 -2.3306 -0.1493  0.5563
 3719WAT     H216682  -2.520   2.462   4.647  0.5045  1.1879 -0.2187
 3719WAT    EPW16683  -2.542   2.390   4.604 -0.5245  0.7446  0.9942
 3720WAT      O16684  -6.070   7.096   6.451 -0.7040 -0.7023 -0.2350
 3720WAT     H116685  -6.043   7.011   6.485  0.8291 -1.1983 -2.4737
 3720WAT     H216686  -6.165   7.090   6.442 -0.5877 -2.3043 -0.6302
 3720WAT    EPW16687  -6.079   7.084   6.454 -0.4864 -0.9789 -0.5825
 3721WAT      O16688  -5.027   7.591   5.330 -0.2773  0.1922 -0.3479
 3721WAT     H116689  -5.117   7.577   5.301  0.2723  0.2478 -2.1954
 3721WAT     H216690  -4.973   7.565   5.255  1.4102 -2.3468  1.5687
 3721WAT    EPW16691  -5.031   7.586   5.316  0.0176 -0.1354 -0.3388
 3722WAT      O16692   4.363   7.023   4.717  0.2993  0.5547 -0.1307
 3722WAT     H116693   4.443   7.076   4.722 -0.5219  1.9821 -1.2115
 3722WAT     H216694   4.380   6.949   4.775  1.8638  1.5344  0.7449
 3722WAT    EPW16695   4.376   7.020   4.725  0.3972  0.8721 -0.1576
 3723WAT      O16696   0.494   6.179   3.552 -0.2372  0.3463  1.3297
 3723WAT     H116697   0.495   6.246   3.484  1.9233 -0.2255  0.7017
 3723WAT     H216698   0.466   6.099   3.506 -3.6606  0.8655  2.2513
 3723WAT    EPW16699   0.490   6.177   3.537 -0.4037  0.3393  1.3684
 3724WAT      O16700   4.473   4.563   0.360 -0.3186  0.7237 -0.0808
 3724WAT     H116701   4.405   4.513   0.315  0.5352  0.0674 -0.6827
 3724WAT     H216702   4.513   4.618   0.292  0.5713  0.1787 -0.0225
 3724WAT    EPW16703   4.470   4.564   0.345 -0.0887  0.5653 -0.1525
 3725WAT      O16704   7.941   1.094   4.058  0.4335  0.1939  0.6339
 3725WAT     H116705   7.944   1.069   4.150  0.7456  0.2248  0.6308
 3725WAT     H216706   7.864   1.151   4.052 -0.0433 -0.4323  0.7170
 3725WAT    EPW16707   7.931   1.098   4.069  0.4117  0.1154  0.6444
 3726WAT      O16708   5.204   3.004   7.188 -0.5562 -0.1407 -0.6632
 3726WAT     H116709   5.118   3.024   7.225 -0.5859 -1.0943 -0.1761
 3726WAT     H216710   5.262   3.003   7.264  0.6487  3.9141 -1.2889
 3726WAT    EPW16711   5.200   3.006   7.203 -0.4010  0.2683 -0.6816
 3727WAT      O16712   3.451   5.887   5.663  0.3210 -1.1119  0.1853
 3727WAT     H116713   3.503   5.806   5.663  3.2775  0.5934 -1.6277
 3727WAT     H216714   3.430   5.902   5.571  0.8316  0.6967  0.3257
 3727WAT    EPW16715   3.455   5.878   5.651  0.7783 -0.6483 -0.0350
 3728WAT      O16716   7.087   1.613   3.125  0.3809 -0.6031  0.5373
 3728WAT     H116717   7.147   1.604   3.050  0.6787  0.4677  0.6425
 3728WAT     H216718   7.141   1.650   3.194 -0.4406  0.5688  0.5718
 3728WAT    EPW16719   7.102   1.616   3.124  0.3116 -0.3073  0.5556
 3729WAT      O16720   2.647   3.286   4.585  0.1005  0.4485  0.6090
 3729WAT     H116721   2.562   3.317   4.614 -0.0874  0.4697  0.0527
 3729WAT     H216722   2.628   3.205   4.537  0.5989 -0.7202  2.2723
 3729WAT    EPW16723   2.633   3.279   4.583  0.1415  0.2971  0.7551
 3730WAT      O16724  -4.680   8.708   5.482 -0.3918  0.2185  0.0412
 3730WAT     H116725  -4.631   8.634   5.517  0.8961  1.8283  1.9407
 3730WAT     H216726  -4.635   8.731   5.401 -0.1261 -0.4310  0.0040
 3730WAT    EPW16727  -4.668   8.702   5.476 -0.1869  0.3452  0.2868
 3731WAT      O16728   2.627   8.591   1.529 -0.1148 -0.4873  0.2331
 3731WAT     H116729   2.629   8.663   1.466  0.9832 -0.0213  0.7539
 3731WAT     H216730   2.568   8.526   1.491 -1.3415  0.7902 -0.1419
 3731WAT    EPW16731   2.620   8.592   1.516 -0.1317 -0.2575  0.2523
 3732WAT      O16732  -2.045   0.456   8.480 -0.0533  0.8711 -0.8945
 3732WAT     H116733  -2.073   0.456   8.572  1.1052 -1.0053 -0.4805
 3732WAT     H216734  -1.962   0.503   8.480 -0.0640  0.8901 -0.9731
 3732WAT    EPW16735  -2.037   0.462   8.492  0.0981  0.6261 -0.8502
 3733WAT      O16736  -6.500   5.429   7.505  0.0542  0.7869 -0.2044
 3733WAT     H116737  -6.467   5.340   7.515 -0.4560  0.4482 -1.4040
 3733WAT     H216738  -6.435   5.473   7.451 -0.2459  0.8193 -0.5410
 3733WAT    EPW16739  -6.487   5.423   7.499 -0.0525  0.7467 -0.4070
 3734WAT      O16740  -3.558   6.895   2.940  0.1294  0.0562  0.5237
 3734WAT     H116741  -3.610   6.852   3.008  1.7395 -0.4017  1.5290
 3734WAT     H216742  -3.500   6.827   2.907  0.5878  0.7144 -0.0661
 3734WAT    EPW16743  -3.557   6.881   2.945  0.4022  0.0825  0.5785
 3735WAT      O16744   7.932   2.452   1.094 -0.1831  0.2134 -0.7218
 3735WAT     H116745   7.854   2.491   1.054  0.3358  2.2411  0.0791
 3735WAT     H216746   7.995   2.446   1.022 -1.2396 -2.1738 -1.5580
 3735WAT    EPW16747   7.930   2.457   1.079 -0.2542  0.1659 -0.7265
 3736WAT      O16748   1.199   8.169   2.939 -0.3323 -0.0125  0.8346
 3736WAT     H116749   1.288   8.166   2.904 -0.1818  2.1073  0.9057
 3736WAT     H216750   1.212   8.181   3.033 -0.6102  2.6085  0.5962
 3736WAT    EPW16751   1.213   8.170   2.947 -0.3490  0.6127  0.8125
 3737WAT      O16752  -7.320   8.542   7.126 -0.4472  0.6634 -0.3614
 3737WAT     H116753  -7.286   8.590   7.202 -2.1221 -1.4321  1.8761
 3737WAT     H216754  -7.267   8.463   7.121  0.6238  1.4568 -2.3990
 3737WAT    EPW16755  -7.309   8.538   7.135 -0.5267  0.4916 -0.3350
 3738WAT      O16756  -3.263   7.925   3.083  0.4583 -0.0050 -0.4210
 3738WAT     H116757  -3.169   7.931   3.101  0.4210  0.2731 -0.3212
 3738WAT     H216758  -3.304   7.920   3.169  0.4303 -0.9037 -0.4758
 3738WAT    EPW16759  -3.256   7.925   3.097  0.4497 -0.0870 -0.4151
 3739WAT      O16760  -0.450   1.725   6.390  0.4160 -0.8973  0.2715
 3739WAT     H116761  -0.418   1.807   6.353  2.3162 -2.1203 -1.0408
 3739WAT     H216762  -0.488   1.679   6.315 -2.6503 -0.3993  1.3910
 3739WAT    EPW16763  -0.451   1.729   6.375  0.2622 -0.9930  0.2460
 3740WAT      O16764   0.088   2.409   5.108  0.2915 -0.1118 -0.4253
 3740WAT     H116765   0.009   2.366   5.075 -0.9504  0.5716  1.4384
 3740WAT     H216766   0.133   2.441   5.030 -1.1178 -0.7905 -1.5643
 3740WAT    EPW16767   0.084   2.407   5.094 -0.0582 -0.1111 -0.3297
 3741WAT      O16768   3.750   0.697   2.478 -0.1532 -0.2683 -0.0190
 3741WAT     H116769   3.685   0.703   2.549  0.5794 -1.7975  0.8373
 3741WAT     H216770   3.834   0.713   2.521  0.6037 -3.7196  0.1083
 3741WAT    EPW16771   3.752   0.700   2.493  0.0433 -0.9252  0.1106
 3742WAT      O16772   3.456   4.134   1.182 -0.9548  0.2459  0.1788
 3742WAT     H116773   3.423   4.190   1.252 -2.7904  1.4092 -1.5316
 3742WAT     H216774   3.533   4.181   1.148 -1.9402  1.3138 -0.6378
 3742WAT    EPW16775   3.462   4.147   1.187 -1.3269  0.5403 -0.1545
 3743WAT      O16776   7.574   6.803   0.224  0.2229  0.4377 -0.4419
 3743WAT     H116777   7.600   6.894   0.238  2.7287  0.5112 -4.1312
 3743WAT     H216778   7.501   6.808   0.163 -0.3871 -0.0741  0.2202
 3743WAT    EPW16779   7.568   6.815   0.218  0.4730  0.3796 -0.8411
 3744WAT      O16780  -4.290   7.386   7.391  0.1572 -0.0697 -0.3779
 3744WAT     H116781  -4.339   7.324   7.445 -0.1920  2.0443  1.9396
 3744WAT     H216782  -4.352   7.415   7.325 -1.2102  1.1541  1.3559
 3744WAT    EPW16783  -4.304   7.382   7.389 -0.0689  0.3705  0.1564
 3745WAT      O16784   4.488   3.769   4.866 -0.3009 -0.4736 -0.0533
 3745WAT     H116785   4.408   3.818   4.886 -0.9911 -1.0456 -1.2825
 3745WAT     H216786   4.517   3.804   4.782 -0.9775 -2.3161 -1.1074
 3745WAT    EPW16787   4.481   3.780   4.858 -0.4811 -0.7920 -0.3543
 3746WAT      O16788  -0.929   6.336   7.146  0.4806 -0.2467 -0.3795
 3746WAT     H116789  -0.904   6.272   7.213 -0.5666  1.0383  1.3101
 3746WAT     H216790  -0.952   6.283   7.070  0.4379 -1.8389  0.6929
 3746WAT    EPW16791  -0.928   6.321   7.145  0.3368 -0.2873 -0.0153
 3747WAT      O16792   4.031   5.151   2.379  0.0699 -0.3020 -0.6610
 3747WAT     H116793   4.114   5.174   2.337 -0.8819  2.5991 -1.2428
 3747WAT     H216794   4.048   5.068   2.423  3.0616 -0.1606 -1.3157
 3747WAT    EPW16795   4.044   5.143   2.379  0.3388  0.0994 -0.8240
 3748WAT      O16796   3.841   4.701   1.497 -0.0096 -0.9082  0.2489
 3748WAT     H116797   3.792   4.644   1.438  0.7611 -1.1739 -0.1489
 3748WAT     H216798   3.930   4.666   1.495 -0.5104 -2.8734  3.9246
 3748WAT    EPW16799   3.846   4.689   1.489  0.0260 -1.2023  0.6812
 3749WAT      O16800  -1.526   6.929   6.714 -0.0510 -0.3775  0.0357
 3749WAT     H116801  -1.492   6.992   6.651  1.2681 -0.4497  0.6464
 3749WAT     H216802  -1.460   6.927   6.784 -0.2112 -2.1912  0.1740
 3749WAT    EPW16803  -1.513   6.937   6.715  0.1019 -0.6263  0.1342
 3750WAT      O16804  -5.126   2.845   8.773 -0.1729  0.2007  0.5500
 3750WAT     H116805  -5.090   2.759   8.750  1.3986  0.5756  1.4609
 3750WAT     H216806  -5.118   2.849   8.868  1.6118  2.0859  0.4041
 3750WAT    EPW16807  -5.120   2.834   8.783  0.2699  0.4987  0.6509
 3751WAT      O16808   2.702   8.245   6.751 -0.9381  0.5059  0.8441
 3751WAT     H116809   2.648   8.317   6.719 -1.6370  0.5083  1.9836
 3751WAT     H216810   2.640   8.174   6.769 -0.3516 -0.1059  0.5189
 3751WAT    EPW16811   2.687   8.245   6.749 -0.9528  0.4253  0.9518
 3752WAT      O16812   3.293   5.012   5.751  0.1586  0.2648 -0.3080
 3752WAT     H116813   3.265   5.078   5.687  1.8476  0.9643 -0.3709
 3752WAT     H216814   3.382   5.038   5.774  0.6255 -1.6397  0.1590
 3752WAT    EPW16815   3.301   5.024   5.745  0.4429  0.1061 -0.2546
 3753WAT      O16816   0.941   7.637   0.631  0.3857 -0.1352  0.6959
 3753WAT     H116817   0.876   7.584   0.678 -0.6581 -0.0727 -0.6080
 3753WAT     H216818   0.902   7.724   0.627 -0.3936 -0.5211 -1.7370
 3753WAT    EPW16819   0.927   7.641   0.637  0.1452 -0.1779  0.2030
 3754WAT      O16820   6.011   5.868   1.833 -0.3242  0.5723  0.2595
 3754WAT     H116821   6.062   5.799   1.791 -0.2251  0.9503 -0.2416
 3754WAT     H216822   6.071   5.905   1.898  0.0689  1.0633 -0.3782
 3754WAT    EPW16823   6.026   5.864   1.836 -0.2594  0.6869  0.1093
 3755WAT      O16824  -4.604   6.642   5.191  0.2392 -0.4444 -0.1811
 3755WAT     H116825  -4.658   6.577   5.237  0.4791 -0.2070  0.4462
 3755WAT     H216826  -4.657   6.722   5.192  1.2685  0.3055  2.0218
 3755WAT    EPW16827  -4.618   6.644   5.197  0.4067 -0.3142  0.1922
 3756WAT      O16828  -3.184   8.801   8.080 -0.4599 -0.3892 -0.5792
 3756WAT     H116829  -3.165   8.871   8.016 -0.2233 -0.8131 -0.9793
 3756WAT     H216830  -3.122   8.732   8.058  2.2178  0.8200  2.3829
 3756WAT    EPW16831  -3.173   8.801   8.069 -0.0755 -0.2851 -0.2413
 3757WAT      O16832  -1.841   9.259   6.124  0.4008  0.5326 -0.0642
 3757WAT     H116833  -1.776   9.325   6.098 -0.0121  0.8171 -0.3974
 3757WAT     H216834  -1.918   9.280   6.071 -1.3953  2.7200  3.0631
 3757WAT    EPW16835  -1.842   9.271   6.114  0.1094  0.8588  0.3042
 3758WAT      O16836  -0.664   3.990   2.594  0.4802  0.3664 -0.2042
 3758WAT     H116837  -0.751   3.994   2.554  1.0376  1.1763 -1.4231
 3758WAT     H216838  -0.676   3.938   2.673 -0.5622 -1.9939 -1.8071
 3758WAT    EPW16839  -0.677   3.984   2.599  0.4163  0.1619 -0.5764
 3759WAT      O16840   3.305   9.248   7.056 -0.2648 -0.1097 -0.0465
 3759WAT     H116841   3.392   9.222   7.025 -0.5003 -0.4283 -0.4530
 3759WAT     H216842   3.250   9.172   7.038 -0.6189  0.0744  0.2530
 3759WAT    EPW16843   3.309   9.234   7.050 -0.3425 -0.1273 -0.0606
 3760WAT      O16844   7.132   7.470   0.076 -0.5536 -0.0300  0.2780
 3760WAT     H116845   7.124   7.419  -0.004 -0.3548  1.8694 -1.0126
 3760WAT     H216846   7.048   7.458   0.121 -0.8270 -0.7634 -0.4090
 3760WAT    EPW16847   7.120   7.462   0.072 -0.5634  0.1240  0.0172
 3761WAT      O16848   0.219   7.999   5.196 -0.3655  0.1257  0.1935
 3761WAT     H116849   0.218   7.962   5.284  0.0746  2.2399  1.1689
 3761WAT     H216850   0.312   7.998   5.171 -0.4724 -0.3403 -0.2023
 3761WAT    EPW16851   0.231   7.994   5.204 -0.3216  0.3431  0.2701
 3762WAT      O16852  -4.028   8.198   5.605  0.3333 -0.0471 -0.4648
 3762WAT     H116853  -4.070   8.160   5.682 -0.9583  0.3416 -0.9476
 3762WAT     H216854  -3.994   8.282   5.634  2.0973 -0.9615  0.2898
 3762WAT    EPW16855  -4.029   8.204   5.619  0.3955 -0.1159 -0.4289
 3763WAT      O16856   7.575   0.636   2.776  0.7007  0.4774  0.2940
 3763WAT     H116857   7.617   0.720   2.761  1.7507 -0.1716 -0.5930
 3763WAT     H216858   7.643   0.571   2.755 -0.2308 -0.5896  0.4688
 3763WAT    EPW16859   7.590   0.638   2.771  0.7162  0.2511  0.2000
 3764WAT      O16860   2.040   2.010   5.646 -0.5228  0.2750  0.2247
 3764WAT     H116861   2.057   1.984   5.555 -1.1248  0.6809 -0.0089
 3764WAT     H216862   2.007   2.099   5.639 -0.4592  0.3494  0.8576
 3764WAT    EPW16863   2.038   2.018   5.633 -0.5937  0.3384  0.2775
 3765WAT      O16864   0.420   0.146   4.317  0.4057 -0.8745 -0.4050
 3765WAT     H116865   0.374   0.224   4.347  1.0330 -1.0375  1.0304
 3765WAT     H216866   0.497   0.180   4.271 -0.8409 -0.6144 -2.4051
 3765WAT    EPW16867   0.424   0.160   4.315  0.3240 -0.8617 -0.4795
 3766WAT      O16868   4.068   4.815   1.025 -0.7630  0.1573 -0.0532
 3766WAT     H116869   4.099   4.752   0.960 -0.9103 -0.1875  0.2068
 3766WAT     H216870   3.991   4.773   1.063  1.3847 -1.4029  3.0137
 3766WAT    EPW16871   4.062   4.801   1.022 -0.4992 -0.0942  0.3856
 3767WAT      O16872  -0.817   3.321   1.657 -0.1075  0.5016 -0.5277
 3767WAT     H116873  -0.844   3.407   1.623  1.0396 -0.3049 -3.8423
 3767WAT     H216874  -0.730   3.337   1.694 -0.8175  1.1554  0.9115
 3767WAT    EPW16875  -0.809   3.335   1.657 -0.0498  0.4815 -0.7750
 3768WAT      O16876   5.764   5.851   3.164 -0.0333 -0.0452 -0.3214
 3768WAT     H116877   5.774   5.770   3.113  0.6083  1.1078 -2.1214
 3768WAT     H216878   5.780   5.824   3.255  0.0677 -1.9451 -0.8582
 3768WAT    EPW16879   5.768   5.837   3.170  0.0644 -0.1438 -0.6298
 3769WAT      O16880   2.288   2.477   8.517  0.0771  0.2949 -0.0731
 3769WAT     H116881   2.374   2.437   8.508  0.3063  0.7465  0.0614
 3769WAT     H216882   2.271   2.475   8.612 -0.2202 -0.1219 -0.1340
 3769WAT    EPW16883   2.297   2.472   8.529  0.0682  0.2996 -0.0639
 3770WAT      O16884  -1.415   6.565   6.175  0.2575 -0.2644 -0.3930
 3770WAT     H116885  -1.480   6.496   6.188 -0.1699 -0.0060 -1.1321
 3770WAT     H216886  -1.461   6.634   6.128  1.0587 -0.0571 -0.8921
 3770WAT    EPW16887  -1.430   6.565   6.171  0.3068 -0.2029 -0.5562
 3771WAT      O16888   4.964   6.367   2.217 -0.9892  0.6184  0.1405
 3771WAT     H116889   4.917   6.411   2.288 -2.7569  0.8066 -1.0709
 3771WAT     H216890   5.053   6.403   2.222 -1.2577  1.1635  1.7758
 3771WAT    EPW16891   4.970   6.378   2.227 -1.2579  0.7153  0.1965
 3772WAT      O16892   2.556   7.717   8.553 -0.7143 -0.1819 -0.1931
 3772WAT     H116893   2.479   7.660   8.553  0.7993 -2.3335  0.6461
 3772WAT     H216894   2.630   7.658   8.567  1.1372  1.7938 -1.0595
 3772WAT    EPW16895   2.555   7.702   8.555 -0.2706 -0.2050 -0.1965
 3773WAT      O16896   2.109  10.025   6.890 -0.1181 -0.4545 -0.1898
 3773WAT     H116897   2.069  10.057   6.971  1.8536  1.4751  0.1214
 3773WAT     H216898   2.126   9.932   6.907 -1.8825 -0.6699  0.6639
 3773WAT    EPW16899   2.106  10.017   6.903 -0.0908 -0.2284 -0.0362
 3774WAT      O16900  -0.607   8.000   1.194 -0.8221  0.4472  0.3975
 3774WAT     H116901  -0.535   7.946   1.228 -0.6873  0.0320 -0.5004
 3774WAT     H216902  -0.685   7.967   1.239 -0.7002 -0.3436  0.0589
 3774WAT    EPW16903  -0.608   7.988   1.204 -0.7882  0.2882  0.2344
 3775WAT      O16904   6.648   0.163   4.484 -0.0144 -0.6616  0.0395
 3775WAT     H116905   6.644   0.256   4.505  0.7226 -0.8071  0.8576
 3775WAT     H216906   6.708   0.126   4.548 -0.6955 -1.8009  0.0534
 3775WAT    EPW16907   6.655   0.170   4.495 -0.0069 -0.8311  0.1490
 3776WAT      O16908   0.304   8.993   3.578 -0.3193  0.1269 -0.6773
 3776WAT     H116909   0.392   9.011   3.610 -1.0378  1.1062  0.8438
 3776WAT     H216910   0.275   8.917   3.628 -2.1046  2.6881  2.5844
 3776WAT    EPW16911   0.312   8.985   3.588 -0.6495  0.5937 -0.0464
 3777WAT      O16912  -2.040   5.328   8.386 -0.2682  0.3202 -0.1176
 3777WAT     H116913  -2.117   5.381   8.404 -0.7652 -0.9382  1.8100
 3777WAT     H216914  -1.984   5.340   8.463  2.0130  2.0240 -1.9206
 3777WAT    EPW16915  -2.043   5.337   8.399 -0.0329  0.3788 -0.1016
 3778WAT      O16916  -3.523   9.992   1.995  0.3505  0.6269 -0.0017
 3778WAT     H116917  -3.537   9.919   1.935 -3.0160 -1.1269  2.5550
 3778WAT     H216918  -3.435   9.978   2.029 -0.6264 -3.3382  1.4893
 3778WAT    EPW16919  -3.513   9.980   1.991 -0.2224 -0.1278  0.5322
 3779WAT      O16920  -2.028  10.221   3.899 -0.2717  0.5961  0.3154
 3779WAT     H116921  -2.036  10.316   3.904  3.8229  1.2197 -1.2084
 3779WAT     H216922  -2.041  10.191   3.989  1.2051  2.9785  1.4122
 3779WAT    EPW16923  -2.031  10.229   3.912  0.4631  0.9923  0.2592
 3780WAT      O16924   3.520   2.723   7.545 -0.2881 -0.1970  0.1364
 3780WAT     H116925   3.526   2.809   7.503 -1.6411  0.0845  0.4715
 3780WAT     H216926   3.480   2.742   7.630  1.1650 -0.9277  1.0145
 3780WAT    EPW16927   3.515   2.737   7.551 -0.2749 -0.2562  0.2966
 3781WAT      O16928   3.192   2.899   8.390  0.6027 -0.5831  0.0608
 3781WAT     H116929   3.252   2.934   8.324 -1.8633  2.1246 -0.9849
 3781WAT     H216930   3.172   2.810   8.360  2.8803 -1.0083 -0.3459
 3781WAT    EPW16931   3.197   2.892   8.377  0.5779 -0.2820 -0.1307
 3782WAT      O16932   6.272   2.049   0.766  0.6817 -0.1745  0.2274
 3782WAT     H116933   6.356   2.016   0.734  0.9016  2.1602 -1.8777
 3782WAT     H216934   6.234   1.975   0.814  3.8818 -1.3146  1.2613
 3782WAT    EPW16935   6.278   2.034   0.768  1.1327 -0.0169  0.0861
 3783WAT      O16936  -1.626   9.887   6.698  0.2077 -0.2774 -0.3384
 3783WAT     H116937  -1.621   9.946   6.773 -2.0288 -0.5142  0.0789
 3783WAT     H216938  -1.545   9.902   6.649  0.9542  1.0777  1.2383
 3783WAT    EPW16939  -1.615   9.897   6.701  0.0111 -0.1302 -0.0756
 3784WAT      O16940  -4.359  10.161   5.038 -0.1997 -0.4851 -0.3800
 3784WAT     H116941  -4.279  10.151   4.986  1.9293 -1.6308  2.7866
 3784WAT     H216942  -4.410  10.082   5.020  1.2445 -1.6293  0.3709
 3784WAT    EPW16943  -4.355  10.150   5.028  0.2713 -0.7868  0.1366
 3785WAT      O16944   5.655   3.594   5.345  0.4654 -0.0065  0.2636
 3785WAT     H116945   5.729   3.547   5.307  0.0156 -1.0792  0.6543
 3785WAT     H216946   5.657   3.569   5.437  1.1499  2.0310  0.8435
 3785WAT    EPW16947   5.665   3.584   5.352  0.4964  0.1208  0.3915
 3786WAT      O16948   2.687   9.534   4.065  0.5976  0.0443  0.1606
 3786WAT     H116949   2.642   9.616   4.084 -0.2757 -0.6373  1.1881
 3786WAT     H216950   2.735   9.513   4.145  0.5712 -0.5800  0.0235
 3786WAT    EPW16951   2.687   9.542   4.078  0.4789 -0.1283  0.2780
 3787WAT      O16952   0.422   1.670   2.476  0.1960  0.0614 -0.1270
 3787WAT     H116953   0.482   1.731   2.434 -0.2935  3.6514  3.7610
 3787WAT     H216954   0.472   1.635   2.550 -0.9672 -0.8006  0.2795
 3787WAT    EPW16955   0.437   1.673   2.480 -0.0220  0.4212  0.4394
 3788WAT      O16956   0.656   6.430   8.395 -0.7539 -0.0104  0.1484
 3788WAT     H116957   0.621   6.440   8.307 -1.5714 -0.1942  0.4479
 3788WAT     H216958   0.657   6.518   8.431 -0.1723  0.1027 -0.1281
 3788WAT    EPW16959   0.652   6.443   8.388 -0.7850 -0.0198  0.1516
 3789WAT      O16960  -3.115  10.134   2.689  0.0317  0.1231 -0.3323
 3789WAT     H116961  -3.026  10.163   2.671  0.1078 -0.5375 -1.0772
 3789WAT     H216962  -3.164  10.156   2.610 -0.1091 -0.9165 -0.5477
 3789WAT    EPW16963  -3.110  10.141   2.676  0.0231 -0.1016 -0.4588
 3790WAT      O16964   4.186   1.041   5.990 -0.1376  0.3337  0.0765
 3790WAT     H116965   4.121   1.035   6.060 -0.4046 -1.6495 -0.2724
 3790WAT     H216966   4.271   1.034   6.034 -0.2011  1.3694  0.3859
 3790WAT    EPW16967   4.189   1.039   6.005 -0.1810  0.2086  0.0710
 3791WAT      O16968   5.052   4.271   2.477  0.2385  0.1162  0.1455
 3791WAT     H116969   4.991   4.284   2.405 -0.3507 -0.3949  0.5351
 3791WAT     H216970   5.138   4.285   2.439 -0.1009  0.4154 -0.5198
 3791WAT    EPW16971   5.055   4.274   2.463  0.1159  0.0882  0.1091
 3792WAT      O16972   4.794   0.102   7.423  0.1702  0.3618  0.2054
 3792WAT     H116973   4.775   0.023   7.373  0.9783 -0.1607  0.6994
 3792WAT     H216974   4.829   0.070   7.506 -1.4750  1.1967  1.2705
 3792WAT    EPW16975   4.796   0.087   7.428  0.0598  0.4030  0.4110
 3793WAT      O16976  -0.905   8.314   8.596  0.0399 -0.7196 -0.4715
 3793WAT     H116977  -0.989   8.268   8.597  0.4477 -1.5998 -2.6010
 3793WAT     H216978  -0.898   8.350   8.508  1.5708  0.0231 -0.0862
 3793WAT    EPW16979  -0.915   8.313   8.585  0.2956 -0.7377 -0.7019
 3794WAT      O16980  -3.847   1.922   6.659 -1.2335 -0.4042 -1.1778
 3794WAT     H116981  -3.867   1.991   6.595 -2.8100  0.3842  0.1032
 3794WAT     H216982  -3.783   1.866   6.614 -2.2106  0.1523 -3.4075
 3794WAT    EPW16983  -3.841   1.924   6.644 -1.5703 -0.2269 -1.3030
 3795WAT      O16984   3.177   7.530   1.573 -0.7361 -0.4469 -0.5828
 3795WAT     H116985   3.223   7.518   1.655  0.7634 -2.9742 -1.6646
 3795WAT     H216986   3.171   7.625   1.562  2.7452  0.0537  0.4889
 3795WAT    EPW16987   3.182   7.541   1.582 -0.0793 -0.7141 -0.5841
 3796WAT      O16988  -5.230   9.905   8.472 -0.4485  0.2053  0.3678
 3796WAT     H116989  -5.278   9.823   8.458  0.5704 -0.2297 -0.7183
 3796WAT     H216990  -5.249   9.957   8.394  0.4395  0.2231  0.1564
 3796WAT    EPW16991  -5.239   9.901   8.460 -0.1969  0.1502  0.1965
 3797WAT      O16992  -2.646   4.974   1.778 -0.4037 -0.6996  0.3605
 3797WAT     H116993  -2.558   5.006   1.757 -0.5743 -1.1321 -1.0797
 3797WAT     H216994  -2.633   4.880   1.795 -0.4091 -0.5269  1.4072
 3797WAT    EPW16995  -2.633   4.966   1.778 -0.4269 -0.7339  0.3086
 3798WAT      O16996   0.857   6.298   1.707  0.0179  0.2947 -0.7009
 3798WAT     H116997   0.911   6.226   1.677  1.1946  0.4657  0.9046
 3798WAT     H216998   0.896   6.376   1.667 -0.3213  0.2137 -1.2007
 3798WAT    EPW16999   0.869   6.299   1.698  0.1284  0.3064 -0.5550
 3799WAT      O17000   0.340   5.945   8.513 -0.1432  0.2432  0.6362
 3799WAT     H117001   0.343   5.978   8.424 -1.6772  1.5446  1.0195
 3799WAT     H217002   0.323   6.022   8.567 -1.7008 -0.8377  1.7955
 3799WAT    EPW17003   0.338   5.959   8.508 -0.5510  0.2723  0.8392
 3800WAT      O17004   6.779   2.247   5.199 -0.2543  0.1537 -0.9456
 3800WAT     H117005   6.709   2.250   5.134  1.0444 -0.9647 -2.4793
 3800WAT     H217006   6.777   2.157   5.232 -0.3687  0.4871 -0.0185
 3800WAT    EPW17007   6.769   2.236   5.194 -0.0982  0.0502 -1.0257
 3801WAT      O17008   5.116   4.358   4.919 -0.0734 -0.3538 -0.2515
 3801WAT     H117009   5.062   4.324   4.847 -0.5078 -1.1817  0.4516
 3801WAT     H217010   5.120   4.286   4.982  1.8963 -0.3328 -0.2946
 3801WAT    EPW17011   5.109   4.344   4.918  0.1290 -0.4604 -0.1643
 3802WAT      O17012  -0.405   9.322   0.553  0.8555 -0.4818 -0.1826
 3802WAT     H117013  -0.368   9.271   0.626  1.8716  0.1810 -0.2067
 3802WAT     H217014  -0.466   9.262   0.511  1.1352 -1.2790  0.5066
 3802WAT    EPW17015  -0.408   9.307   0.557  1.0264 -0.4997 -0.0949
 3803WAT      O17016   3.921   6.311   3.284  0.1369 -0.7136 -1.1151
 3803WAT     H117017   4.002   6.265   3.309 -1.9289 -3.0085  2.1932
 3803WAT     H217018   3.898   6.362   3.362 -0.2429  2.2285 -3.0165
 3803WAT    EPW17019   3.929   6.311   3.298 -0.1857 -0.6280 -0.9295
 3804WAT      O17020   5.504   1.533   6.635  0.6645 -0.5857  0.2671
 3804WAT     H117021   5.575   1.489   6.683  1.0091  0.9241  1.2040
 3804WAT     H217022   5.484   1.610   6.687  1.7443  1.7154 -2.4658
 3804WAT    EPW17023   5.511   1.537   6.648  0.8526 -0.0830  0.0300
 3805WAT      O17024   1.808   0.584   8.753  0.2513 -0.6430 -0.4631
 3805WAT     H117025   1.845   0.509   8.799 -0.3147 -0.4568  0.3381
 3805WAT     H217026   1.882   0.643   8.738  0.6282 -1.1900 -0.7551
 3805WAT    EPW17027   1.822   0.582   8.757  0.2263 -0.6905 -0.3958
 3806WAT      O17028   4.476  10.381   4.194 -0.3046  0.4936  0.0125
 3806WAT     H117029   4.485  10.311   4.259  0.0513  1.9388  1.6024
 3806WAT     H217030   4.490  10.337   4.110  4.6862 -0.6949  1.1092
 3806WAT    EPW17031   4.479  10.366   4.191  0.4005  0.5274  0.3669
 3807WAT      O17032  -0.678   1.199   2.651 -0.0137 -0.2475  0.6870
 3807WAT     H117033  -0.732   1.178   2.575 -0.8625  1.1164  0.8848
 3807WAT     H217034  -0.696   1.129   2.713 -0.9990 -0.2116  0.4595
 3807WAT    EPW17035  -0.688   1.187   2.649 -0.2556 -0.0629  0.6831
 3808WAT      O17036   3.049   4.344   6.910  0.4203 -0.4719 -0.1625
 3808WAT     H117037   3.141   4.361   6.891  0.7579 -0.7783  1.0992
 3808WAT     H217038   3.025   4.272   6.851  1.8628 -2.4433  1.4687
 3808WAT    EPW17039   3.058   4.336   6.900  0.6551 -0.7722  0.2189
 3809WAT      O17040  -4.452   4.988   5.948 -0.0086  0.2261  0.1259
 3809WAT     H117041  -4.512   4.999   5.874  1.3899  2.9858 -0.7239
 3809WAT     H217042  -4.368   4.967   5.908  0.7690  1.7487  0.8623
 3809WAT    EPW17043  -4.449   4.987   5.933  0.2785  0.7908  0.1111
 3810WAT      O17044   2.757   6.503   4.001 -0.1127 -0.5037  0.7741
 3810WAT     H117045   2.718   6.508   4.089 -1.2080 -2.8036  0.4896
 3810WAT     H217046   2.846   6.535   4.014 -1.0894  2.0911  2.0557
 3810WAT    EPW17047   2.763   6.508   4.015 -0.3859 -0.4647  0.9055
 3811WAT      O17048   5.964   1.190   1.595 -0.0556  0.3384 -0.1708
 3811WAT     H117049   5.973   1.176   1.500 -2.7971  0.8310 -0.5829
 3811WAT     H217050   5.895   1.256   1.603  1.3109  1.6494  2.1699
 3811WAT    EPW17051   5.956   1.197   1.583 -0.2367  0.5763  0.0836
 3812WAT      O17052  -4.175   8.348   8.197  0.3323  0.5884 -0.4791
 3812WAT     H117053  -4.175   8.440   8.172  0.3911  0.6048 -0.4156
 3812WAT     H217054  -4.095   8.312   8.157 -0.1299  0.3712 -1.2465
 3812WAT    EPW17055  -4.165   8.355   8.188  0.2792  0.5617 -0.5717
 3813WAT      O17056  -0.358   2.769   2.103  0.5646  0.3894  0.4000
 3813WAT     H117057  -0.308   2.687   2.101  0.4163  0.3125 -0.8500
 3813WAT     H217058  -0.392   2.774   2.193  0.1327 -1.1861  0.3555
 3813WAT    EPW17059  -0.356   2.758   2.115  0.4881  0.1714  0.2292
 3814WAT      O17060   5.721   4.775   5.244 -0.5257 -0.3560 -0.2773
 3814WAT     H117061   5.699   4.815   5.329 -0.5432  2.2015 -1.3840
 3814WAT     H217062   5.636   4.760   5.202 -0.5711 -2.5879  0.4927
 3814WAT    EPW17063   5.707   4.778   5.250 -0.5341 -0.3130 -0.3221
 3815WAT      O17064   5.089   3.031   2.907  0.2210  0.3458 -0.5912
 3815WAT     H117065   5.121   2.951   2.948  2.2367  0.4606 -1.7757
 3815WAT     H217066   5.152   3.049   2.837 -0.8405  2.3226 -1.1349
 3815WAT    EPW17067   5.101   3.023   2.903  0.3469  0.6217 -0.8191
 3816WAT      O17068  -4.970   8.597   4.121  0.2457 -0.3168  0.1352
 3816WAT     H117069  -4.995   8.659   4.189  2.1472 -0.4527  0.9988
 3816WAT     H217070  -4.886   8.628   4.089  1.6264 -2.7962  1.1159
 3816WAT    EPW17071  -4.962   8.609   4.126  0.6788 -0.6618  0.3786
 3817WAT      O17072   3.667   1.542   4.424 -0.1058  0.5740  0.1639
 3817WAT     H117073   3.649   1.460   4.379 -0.8145  0.0024  1.4208
 3817WAT     H217074   3.581   1.581   4.438  0.2049  1.4061 -0.1682
 3817WAT    EPW17075   3.653   1.536   4.420 -0.1583  0.6084  0.2856
 3818WAT      O17076   0.496   7.616   6.436 -0.5095 -0.7165 -0.3966
 3818WAT     H117077   0.468   7.692   6.385  0.3924 -0.9840 -1.3139
 3818WAT     H217078   0.584   7.596   6.403  0.6642 -0.1159  2.1471
 3818WAT    EPW17079   0.504   7.623   6.425 -0.2357 -0.6726 -0.1822
 3819WAT      O17080   6.799   6.121   0.649  0.3475  0.1404 -1.0713
 3819WAT     H117081   6.780   6.103   0.742 -1.4485  0.0432 -1.4271
 3819WAT     H217082   6.855   6.199   0.652 -0.9201  1.0669  0.0664
 3819WAT    EPW17083   6.804   6.129   0.662 -0.0567  0.2499 -0.9682
 3820WAT      O17084   4.134   0.830   8.829 -0.2898  0.4528 -0.7694
 3820WAT     H117085   4.115   0.820   8.736  1.5983  1.0084 -1.2593
 3820WAT     H217086   4.080   0.763   8.872  0.3563 -1.2561 -2.4649
 3820WAT    EPW17087   4.125   0.820   8.823  0.0443  0.3007 -1.0576
 3821WAT      O17088  -7.736   9.646   7.180 -0.2068  0.3014  0.1631
 3821WAT     H117089  -7.742   9.693   7.263 -0.5013 -0.9457  0.8853
 3821WAT     H217090  -7.649   9.665   7.147 -0.5565  1.8837  0.0721
 3821WAT    EPW17091  -7.726   9.655   7.187 -0.2918  0.3452  0.2465
 3822WAT      O17092   7.158   2.760   2.883 -0.4201 -0.3778  0.1601
 3822WAT     H117093   7.177   2.842   2.839 -1.2563 -1.0169 -1.4543
 3822WAT     H217094   7.240   2.738   2.928  1.0750 -0.5357 -2.4490
 3822WAT    EPW17095   7.171   2.768   2.883 -0.3333 -0.4830 -0.3970
 3823WAT      O17096  -0.135   4.502   0.977 -0.2478 -0.0363 -0.2793
 3823WAT     H117097  -0.058   4.505   0.920  0.8194  0.6471  1.1103
 3823WAT     H217098  -0.208   4.479   0.919  1.3391 -3.0388 -1.2819
 3823WAT    EPW17099  -0.134   4.499   0.962  0.1023 -0.3421 -0.2283
 3824WAT      O17100  -1.612   7.181   7.636  0.3678  0.2969 -0.1314
 3824WAT     H117101  -1.564   7.106   7.671  0.7941  0.0590 -1.1986
 3824WAT     H217102  -1.545   7.233   7.592 -0.3620 -0.1818 -1.8816
 3824WAT    EPW17103  -1.597   7.178   7.635  0.3278  0.2024 -0.5031
 3825WAT      O17104   0.161   9.287   3.696  0.1732 -0.4766  0.3668
 3825WAT     H117105   0.067   9.300   3.700 -0.0545 -1.7448 -0.2442
 3825WAT     H217106   0.183   9.300   3.603  0.2422 -2.1642  0.1071
 3825WAT    EPW17107   0.152   9.290   3.684  0.1523 -0.8664  0.2520
 3826WAT      O17108   3.979   9.331   3.788  0.4496 -0.4789  0.2398
 3826WAT     H117109   4.025   9.400   3.741 -1.9856 -1.4920 -4.1945
 3826WAT     H217110   4.007   9.250   3.746 -0.2142 -1.7868  2.1622
 3826WAT    EPW17111   3.989   9.329   3.776  0.0407 -0.7849 -0.0914
 3827WAT      O17112   3.917   8.377   0.203 -0.2496 -0.5363 -0.2943
 3827WAT     H117113   3.931   8.432   0.126  1.3365 -1.3542 -0.6235
 3827WAT     H217114   4.002   8.337   0.220 -0.7032 -0.8187  1.5603
 3827WAT    EPW17115   3.930   8.379   0.195 -0.1003 -0.6814 -0.0931
 3828WAT      O17116  -1.241   8.975   2.065 -0.1152  0.1926 -0.0406
 3828WAT     H117117  -1.259   9.069   2.063  0.4730  0.3286  0.6404
 3828WAT     H217118  -1.230   8.955   2.158 -0.1286 -0.5296 -0.1926
 3828WAT    EPW17119  -1.242   8.985   2.077 -0.0394  0.1149  0.0293
 3829WAT      O17120  -5.951   3.035   8.505  0.4306  0.2266 -0.3082
 3829WAT     H117121  -5.974   3.009   8.594 -1.4224 -0.8624 -1.0484
 3829WAT     H217122  -5.932   2.952   8.460  1.0320  0.7338 -1.0204
 3829WAT    EPW17123  -5.952   3.021   8.511  0.2654  0.1498 -0.4997
 3830WAT      O17124  -0.729   9.809   7.361  0.9474 -0.5033 -0.3680
 3830WAT     H117125  -0.701   9.724   7.328 -1.2588 -1.4485 -0.0302
 3830WAT     H217126  -0.709   9.807   7.454 -0.3570 -1.2776 -0.0754
 3830WAT    EPW17127  -0.723   9.797   7.369  0.4843 -0.7305 -0.2849
 3831WAT      O17128   3.502   0.830   5.553 -0.3754 -0.0059 -0.0610
 3831WAT     H117129   3.421   0.882   5.554 -0.0583  0.6579 -2.1884
 3831WAT     H217130   3.494   0.771   5.627 -1.9643  1.3114  0.8886
 3831WAT    EPW17131   3.490   0.829   5.563 -0.5431  0.2554 -0.2165
 3832WAT      O17132   5.161   9.952   1.313 -0.2586 -0.8774 -0.3020
 3832WAT     H117133   5.145  10.045   1.332 -0.1401 -0.8943 -0.1203
 3832WAT     H217134   5.256   9.942   1.318 -0.3886 -1.8148  3.5855
 3832WAT    EPW17135   5.171   9.963   1.316 -0.2601 -1.0033  0.2347
 3833WAT      O17136  -3.360   4.336   7.794 -0.9950 -0.2569 -0.1637
 3833WAT     H117137  -3.403   4.284   7.727 -0.2569  1.5640 -2.2028
 3833WAT     H217138  -3.375   4.427   7.767  5.3309  0.7007 -2.2729
 3833WAT    EPW17139  -3.367   4.341   7.781 -0.0633  0.1094 -0.7110
 3834WAT      O17140   3.895   1.779   2.242 -0.3982  0.4010  0.1058
 3834WAT     H117141   3.860   1.759   2.329 -0.2296 -0.7260 -0.0681
 3834WAT     H217142   3.899   1.694   2.198 -0.8672  1.0096 -1.1557
 3834WAT    EPW17143   3.891   1.765   2.248 -0.4377  0.3326 -0.0836
 3835WAT      O17144   0.582   6.269   1.675  0.4035 -0.5122 -0.1360
 3835WAT     H117145   0.676   6.287   1.682  0.0805  0.7706  2.1674
 3835WAT     H217146   0.563   6.217   1.753 -0.9533  0.1152 -0.0202
 3835WAT    EPW17147   0.592   6.265   1.687  0.1819 -0.2601  0.1830
 3836WAT      O17148  -5.528   7.191   8.007  0.6056  0.0964  0.5021
 3836WAT     H117149  -5.469   7.164   7.937  1.4596 -0.7875  1.5251
 3836WAT     H217150  -5.477   7.178   8.087  0.2047  2.4825  1.2341
 3836WAT    EPW17151  -5.513   7.186   8.008  0.6654  0.2947  0.7339
 3837WAT      O17152   0.809   0.642   0.977  0.3823  0.6305 -0.8482
 3837WAT     H117153   0.806   0.616   0.884  0.3133  2.0645 -1.2774
 3837WAT     H217154   0.898   0.674   0.989  0.4549  0.2413 -0.3492
 3837WAT    EPW17155   0.821   0.643   0.966  0.3828  0.7683 -0.8390
 3838WAT      O17156   0.930   4.483   2.114 -0.3436 -0.6077 -0.1584
 3838WAT     H117157   0.901   4.555   2.059  0.4219 -0.1096  0.0798
 3838WAT     H217158   1.005   4.446   2.067 -0.2692 -0.7713  0.0898
 3838WAT    EPW17159   0.936   4.487   2.101 -0.2328 -0.5636 -0.0943
 3839WAT      O17160   6.975   1.909   4.183 -0.3222  0.1779  0.5629
 3839WAT     H117161   6.927   1.992   4.188 -0.5139  0.1304 -0.2897
 3839WAT     H217162   7.001   1.891   4.274 -0.4050  1.0896  0.7797
 3839WAT    EPW17163   6.972   1.918   4.196 -0.3586  0.2919  0.4790
 3840WAT      O17164   2.670   2.365   3.029 -0.5645 -0.2156 -0.5990
 3840WAT     H117165   2.682   2.453   3.065  0.0887 -0.7004  0.4462
 3840WAT     H217166   2.754   2.322   3.045 -1.2718 -1.4095  0.0450
 3840WAT    EPW17167   2.683   2.371   3.036 -0.5716 -0.4369 -0.3761
 3841WAT      O17168   3.694  10.120   5.454 -0.0432 -0.0237 -0.0441
 3841WAT     H117169   3.617  10.092   5.404 -0.0627 -0.0537  0.0034
 3841WAT     H217170   3.760  10.052   5.436  0.4501  0.7426 -1.2516
 3841WAT    EPW17171   3.693  10.107   5.445  0.0193  0.0734 -0.1972
 3842WAT      O17172   0.319   7.732   5.668  0.4794  0.1252  0.0685
 3842WAT     H117173   0.351   7.811   5.713  0.1685 -0.3483  1.1577
 3842WAT     H217174   0.288   7.675   5.739 -2.2383  0.3088 -0.8324
 3842WAT    EPW17175   0.319   7.735   5.684  0.0799  0.0870  0.0932
 3843WAT      O17176   1.122  10.249   8.517 -0.2193 -0.0226 -0.3206
 3843WAT     H117177   1.163  10.334   8.501 -0.4856  0.7439  2.4466
 3843WAT     H217178   1.070  10.232   8.439  0.0752  2.2030 -1.0817
 3843WAT    EPW17179   1.121  10.258   8.505 -0.2155  0.3719 -0.0558
 3844WAT      O17180  -6.762   8.767   7.370 -0.2795 -0.1517 -0.9444
 3844WAT     H117181  -6.696   8.727   7.428  0.7073  1.2354 -1.0709
 3844WAT     H217182  -6.716   8.780   7.287 -1.1690 -0.5081 -1.5072
 3844WAT    EPW17183  -6.747   8.763   7.367 -0.2666 -0.0157 -1.0352
 3845WAT      O17184   6.162   5.732   2.646 -0.1151  0.5545 -0.1421
 3845WAT     H117185   6.084   5.716   2.593 -1.0850  0.2917  1.3106
 3845WAT     H217186   6.236   5.709   2.589 -1.1821 -2.0401 -0.5780
 3845WAT    EPW17187   6.162   5.727   2.632 -0.3839  0.1774 -0.0081
 3846WAT      O17188   1.012   8.885   1.055  0.5334  0.2337 -0.0121
 3846WAT     H117189   0.919   8.903   1.039  0.4868  0.2664  0.2827
 3846WAT     H217190   1.054   8.971   1.049  0.4983  0.2637  0.1454
 3846WAT    EPW17191   1.005   8.899   1.052  0.5226  0.2418  0.0476
 3847WAT      O17192   5.159   2.001   1.065  0.4740 -0.0756  0.3422
 3847WAT     H117193   5.174   2.043   0.980  0.5680 -0.8390 -0.0308
 3847WAT     H217194   5.189   2.065   1.129 -0.3650  0.8479 -0.1622
 3847WAT    EPW17195   5.165   2.015   1.062  0.3757 -0.0545  0.2265
 3848WAT      O17196   0.490   0.355   4.479 -0.4533 -0.3021 -0.0817
 3848WAT     H117197   0.506   0.383   4.569  0.5468 -0.4253 -0.2139
 3848WAT     H217198   0.528   0.267   4.475 -2.0185 -1.0030 -0.1537
 3848WAT    EPW17199   0.497   0.347   4.491 -0.5278 -0.4108 -0.1087
 3849WAT      O17200  -2.478   6.270   5.949 -0.1807 -0.4578  1.0096
 3849WAT     H117201  -2.526   6.229   6.021  2.0533 -1.0031  2.3030
 3849WAT     H217202  -2.391   6.231   5.954  1.0330  1.9420  0.1169
 3849WAT    EPW17203  -2.473   6.260   5.959  0.2741 -0.2131  1.0624
 3850WAT      O17204  -4.976   4.994   5.874  0.1129 -0.0833 -0.0292
 3850WAT     H117205  -5.022   5.075   5.851 -1.1198 -1.2175 -1.8092
 3850WAT     H217206  -5.016   4.967   5.957 -0.0954  0.6578  0.1241
 3850WAT    EPW17207  -4.987   5.001   5.882 -0.0772 -0.1352 -0.2437
 3851WAT      O17208   2.319   7.971   8.663  0.7607  0.3402  0.0350
 3851WAT     H117209   2.384   8.026   8.706  1.7036  0.5730 -1.6280
 3851WAT     H217210   2.347   7.881   8.683 -0.1267  0.4198  1.7855
 3851WAT    EPW17211   2.331   7.966   8.671  0.7681  0.3812  0.0463
 3852WAT      O17212   5.200   1.307   5.032 -0.8253 -0.1552 -0.2185
 3852WAT     H117213   5.182   1.287   5.124 -0.0382 -2.0984 -0.4462
 3852WAT     H217214   5.293   1.286   5.020 -0.9326 -0.0027 -1.4709
 3852WAT    EPW17215   5.210   1.301   5.042 -0.7355 -0.3914 -0.4134
 3853WAT      O17216   5.791   7.080   4.215  0.1676  0.0893 -0.1905
 3853WAT     H117217   5.841   7.079   4.133 -0.7772  1.5475 -0.8199
 3853WAT     H217218   5.730   7.153   4.205 -3.2152 -2.4689 -0.1440
 3853WAT    EPW17219   5.789   7.089   4.203 -0.4029 -0.0558 -0.2675
 3854WAT      O17220   4.694   2.440   7.744 -0.7150 -0.0722  0.2063
 3854WAT     H117221   4.687   2.347   7.766  3.8518 -0.3573  1.5904
 3854WAT     H217222   4.727   2.440   7.654  1.1644 -0.0215  0.8410
 3854WAT    EPW17223   4.698   2.428   7.735  0.1354 -0.1030  0.4725
 3855WAT      O17224  -3.511   4.553   8.318 -0.0524 -0.7705  0.7576
 3855WAT     H117225  -3.575   4.498   8.271 -0.1786 -1.7205  1.9943
 3855WAT     H217226  -3.534   4.642   8.293 -1.0589 -1.1677  0.1820
 3855WAT    EPW17227  -3.523   4.557   8.308 -0.2018 -0.9484  0.8450
 3856WAT      O17228   1.704   0.561   0.952 -0.5036  0.0709  0.6151
 3856WAT     H117229   1.640   0.582   0.884 -0.6917 -0.9623  0.4526
 3856WAT     H217230   1.789   0.575   0.911 -0.6207  0.8062  0.6181
 3856WAT    EPW17231   1.706   0.565   0.938 -0.5438  0.0316  0.5940
 3857WAT      O17232  -3.337   7.232   4.786  0.3769 -0.4352  0.1177
 3857WAT     H117233  -3.316   7.322   4.813 -0.4097  0.6851 -2.5860
 3857WAT     H217234  -3.252   7.189   4.777  0.7418 -0.1676  1.9755
 3857WAT    EPW17235  -3.323   7.238   4.788  0.3213 -0.2520  0.0062
 3858WAT      O17236  -6.814   5.986   8.307 -0.3418  0.8734 -0.5537
 3858WAT     H117237  -6.860   6.019   8.229 -1.3043 -1.6661 -1.1519
 3858WAT     H217238  -6.855   5.901   8.324  1.2542  0.4651  1.5218
 3858WAT    EPW17239  -6.826   5.979   8.299 -0.2582  0.4847 -0.3591
 3859WAT      O17240   3.675   2.470   7.227 -1.1130  0.5984  0.6075
 3859WAT     H117241   3.737   2.460   7.299  0.2448 -0.3350 -0.6157
 3859WAT     H217242   3.643   2.381   7.211  0.3303  0.3531 -1.3333
 3859WAT    EPW17243   3.679   2.457   7.234 -0.7435  0.4430  0.1900
 3860WAT      O17244  -0.156   1.476   5.991  0.2175  0.6907 -0.7568
 3860WAT     H117245  -0.070   1.504   5.959  0.7946 -0.2179 -0.0287
 3860WAT     H217246  -0.218   1.536   5.948  1.4060  3.4039  1.0327
 3860WAT    EPW17247  -0.153   1.488   5.981  0.4504  0.9287 -0.4249
 3861WAT      O17248   6.510   0.440   1.337 -0.0241  0.6924 -0.6391
 3861WAT     H117249   6.452   0.411   1.407  1.1607  0.1033  0.1352
 3861WAT     H217250   6.504   0.536   1.339 -3.1138  0.6549 -2.4800
 3861WAT    EPW17251   6.501   0.449   1.347 -0.2754  0.6098 -0.7797
 3862WAT      O17252  -2.673   7.471   5.705 -0.4702  0.3547  0.0905
 3862WAT     H117253  -2.627   7.500   5.627 -0.0987 -1.2489 -0.3271
 3862WAT     H217254  -2.605   7.465   5.772 -1.0316  3.2100  1.0420
 3862WAT    EPW17255  -2.658   7.474   5.704 -0.4952  0.5200  0.1609
 3863WAT      O17256   3.912   2.019   6.323 -0.2197  0.3667 -0.1070
 3863WAT     H117257   3.927   2.000   6.415 -3.3138  1.4548  0.7338
 3863WAT     H217258   3.935   1.938   6.277  1.7180 -0.0718  1.5192
 3863WAT    EPW17259   3.917   2.006   6.329 -0.3723  0.4523  0.2186
 3864WAT      O17260   7.728   5.024   0.731  0.2527 -0.2801  0.3858
 3864WAT     H117261   7.749   4.953   0.670 -0.9892  1.3808 -2.1433
 3864WAT     H217262   7.669   5.081   0.682 -1.0688  1.0389  3.3076
 3864WAT    EPW17263   7.723   5.022   0.716 -0.0854  0.1130  0.4376
 3865WAT      O17264   4.949   6.988   4.340  0.1141 -0.6381  0.9249
 3865WAT     H117265   4.887   7.036   4.286  0.9078  0.7171  1.1527
 3865WAT     H217266   4.938   6.897   4.315 -2.8414 -0.6401  1.8724
 3865WAT    EPW17267   4.940   6.983   4.330 -0.1709 -0.4597  1.0798
 3866WAT      O17268   4.272   1.046   3.367  0.4853  0.1198  0.2076
 3866WAT     H117269   4.268   1.123   3.424 -0.3512 -1.0022  1.7460
 3866WAT     H217270   4.211   1.065   3.296 -0.0988  0.6756  0.8452
 3866WAT    EPW17271   4.263   1.059   3.365  0.2978  0.0451  0.4946
 3867WAT      O17272   8.687   2.493   0.002 -0.0695  0.0702 -0.3467
 3867WAT     H117273   8.764   2.536   0.038  1.8779 -0.2156 -3.7670
 3867WAT     H217274   8.653   2.441   0.074  2.1537  1.1979  1.6603
 3867WAT    EPW17275   8.692   2.492   0.016  0.4807  0.1813 -0.5331
 3868WAT      O17276   1.996   0.242   4.931  0.1466  0.4771  0.2845
 3868WAT     H117277   1.902   0.255   4.941  0.1423  0.0314  0.8995
 3868WAT     H217278   2.027   0.224   5.020  1.0914  2.3613  0.3761
 3868WAT    EPW17279   1.988   0.241   4.944  0.2706  0.6668  0.3777
 3869WAT      O17280   7.106   0.801   5.714 -0.1049 -0.2623  0.0942
 3869WAT     H117281   7.032   0.853   5.747  0.0836  1.9056 -2.5754
 3869WAT     H217282   7.180   0.827   5.769 -0.2958  1.4409 -0.3963
 3869WAT    EPW17283   7.106   0.811   5.726 -0.1056  0.2482 -0.3226
 3870WAT      O17284   3.437   2.237   4.755 -0.0440 -0.0371  0.2456
 3870WAT     H117285   3.392   2.244   4.839  0.5180 -3.7016  1.0270
 3870WAT     H217286   3.528   2.260   4.774  0.0527 -0.7237  0.6457
 3870WAT    EPW17287   3.443   2.241   4.769  0.0429 -0.6109  0.4013
 3871WAT      O17288  -0.180   9.422   8.511 -0.1792  0.2558 -0.0284
 3871WAT     H117289  -0.127   9.429   8.432  2.3918  2.6287  1.7002
 3871WAT     H217290  -0.264   9.460   8.487  0.4909  0.8047 -1.6409
 3871WAT    EPW17291  -0.184   9.428   8.497  0.2483  0.6409 -0.0134
 3872WAT      O17292  -0.911   8.849   1.382 -0.4787 -0.1190  0.4758
 3872WAT     H117293  -0.901   8.907   1.307 -0.3285  1.6870  1.8178
 3872WAT     H217294  -0.981   8.890   1.434 -0.2205 -1.0252  1.5751
 3872WAT    EPW17295  -0.919   8.862   1.379 -0.4249  0.0000  0.7978
 3873WAT      O17296  -0.266   5.021   5.658 -0.0101 -0.3361 -0.0395
 3873WAT     H117297  -0.355   5.040   5.688 -0.2906  1.2608 -1.7383
 3873WAT     H217298  -0.212   5.030   5.737 -1.2214 -0.4581  0.8335
 3873WAT    EPW17299  -0.270   5.024   5.672 -0.2069 -0.1416 -0.1483
 3874WAT      O17300   4.948   6.979   2.640  0.2991 -0.2649 -0.3211
 3874WAT     H117301   4.868   7.000   2.591  0.7615 -0.3933 -1.1532
 3874WAT     H217302   4.927   6.898   2.686  0.1918 -0.7167 -1.1463
 3874WAT    EPW17303   4.934   6.971   2.639  0.3457 -0.3414 -0.5397
 3875WAT      O17304   6.261   3.654   0.455 -0.6651  0.0732  0.6225
 3875WAT     H117305   6.259   3.560   0.473 -2.0506  0.0825  0.6228
 3875WAT     H217306   6.210   3.693   0.527  1.6552  1.0706  1.8360
 3875WAT    EPW17307   6.254   3.647   0.467 -0.5417  0.2060  0.7826
 3876WAT      O17308  -5.478  10.254   3.697  0.5173 -0.7886 -0.1043
 3876WAT     H117309  -5.419  10.178   3.701 -0.1384 -1.2369  1.5284
 3876WAT     H217310  -5.425  10.327   3.730  1.6511 -0.1170 -3.0739
 3876WAT    EPW17311  -5.463  10.254   3.701  0.5801 -0.7591 -0.2806
 3877WAT      O17312  -1.043   3.250   8.295  0.1459  0.0980 -0.0462
 3877WAT     H117313  -1.054   3.176   8.235  1.0480 -0.4436  0.4319
 3877WAT     H217314  -1.042   3.210   8.382 -0.4411  0.7977  0.2919
 3877WAT    EPW17315  -1.044   3.235   8.299  0.1875  0.1189  0.0610
 3878WAT      O17316   5.335   1.401   6.909 -0.2334 -0.6127 -0.0769
 3878WAT     H117317   5.404   1.451   6.952 -0.0140  0.4076 -1.5584
 3878WAT     H217318   5.256   1.454   6.920  0.0304  0.1780 -1.7874
 3878WAT    EPW17319   5.334   1.415   6.916 -0.1698 -0.3739 -0.4978
 3879WAT      O17320  -4.989   5.840   5.616 -0.4002  0.5082 -0.2468
 3879WAT     H117321  -4.975   5.882   5.701 -0.7461 -0.1584  0.1491
 3879WAT     H217322  -4.999   5.747   5.637 -3.0550  0.6069 -0.7030
 3879WAT    EPW17323  -4.988   5.833   5.630 -0.7961  0.4332 -0.2549
 3880WAT      O17324  -3.643   1.063   7.447 -0.1342 -0.3322 -0.3266
 3880WAT     H117325  -3.636   0.972   7.479 -0.2521 -0.3387 -0.3191
 3880WAT     H217326  -3.613   1.059   7.357  0.5987 -0.2412 -0.0959
 3880WAT    EPW17327  -3.638   1.050   7.440 -0.0530 -0.3211 -0.2952
 3881WAT      O17328   0.679   7.572   3.885 -0.6459 -0.4186  0.2044
 3881WAT     H117329   0.747   7.592   3.821 -1.2067  2.9607  0.4694
 3881WAT     H217330   0.602   7.550   3.831 -0.1543 -1.3202 -0.1515
 3881WAT    EPW17331   0.678   7.572   3.869 -0.6551 -0.0918  0.1923
 3882WAT      O17332   0.297   4.547   3.650 -0.1759  0.2215  0.1510
 3882WAT     H117333   0.353   4.470   3.649 -3.3668 -2.3086 -0.3354
 3882WAT     H217334   0.278   4.564   3.558 -1.7833 -0.3262  0.3452
 3882WAT    EPW17335   0.302   4.539   3.638 -0.8087 -0.1845  0.1124
 3883WAT      O17336  -3.527   9.103   2.317 -1.0329  0.9587 -0.1996
 3883WAT     H117337  -3.516   9.015   2.281  2.0174  0.6630  1.1016
 3883WAT     H217338  -3.621   9.112   2.333 -1.3307 -2.4474  0.5555
 3883WAT    EPW17339  -3.538   9.093   2.314 -0.6700  0.4706  0.0716
 3884WAT      O17340   2.594   4.160   1.892 -0.1643 -0.8102 -0.2152
 3884WAT     H117341   2.518   4.217   1.899  1.2866  1.0978  1.6270
 3884WAT     H217342   2.591   4.107   1.972  0.9711  0.0832  0.4576
 3884WAT    EPW17343   2.584   4.160   1.904  0.1768 -0.4406  0.1165
 3885WAT      O17344   1.541   3.581   2.735 -0.2278  0.1875 -0.1677
 3885WAT     H117345   1.587   3.506   2.696 -2.1115  0.4537 -3.2162
 3885WAT     H217346   1.611   3.641   2.759  1.2206 -1.5123  0.0802
 3885WAT    EPW17347   1.557   3.579   2.733 -0.2853 -0.0015 -0.5372
 3886WAT      O17348   7.093   6.066   2.069  1.1758 -0.1794  0.1321
 3886WAT     H117349   7.135   6.146   2.036  1.1079  0.0230  0.5172
 3886WAT     H217350   7.153   6.035   2.137  0.8001 -0.0004  0.5479
 3886WAT    EPW17351   7.106   6.073   2.074  1.1172 -0.1287  0.2376
 3887WAT      O17352   0.769   2.692   4.644 -0.4863 -0.2407 -0.0405
 3887WAT     H117353   0.717   2.612   4.654 -1.7529  0.6722  0.9796
 3887WAT     H217354   0.827   2.673   4.571 -0.2975 -2.3260  0.5933
 3887WAT    EPW17355   0.770   2.679   4.635 -0.6284 -0.3954  0.1776
 3888WAT      O17356   5.098  10.336   0.667 -0.0739 -0.3931  0.3800
 3888WAT     H117357   5.183  10.307   0.698  0.9472 -1.0488 -2.6865
 3888WAT     H217358   5.117  10.396   0.594 -2.0117 -3.0398 -2.6087
 3888WAT    EPW17359   5.111  10.340   0.661 -0.1945 -0.8287 -0.4187
 3889WAT      O17360   0.944   4.272   4.928  0.2459 -0.7320 -0.1488
 3889WAT     H117361   0.894   4.249   5.006  0.3296  0.9270  0.4244
 3889WAT     H217362   0.883   4.322   4.873  0.7132 -0.3112 -0.2970
 3889WAT    EPW17363   0.929   4.276   4.931  0.3186 -0.4578 -0.0927
 3890WAT      O17364  -0.255   4.514   1.484  0.0102  0.1813 -0.1923
 3890WAT     H117365  -0.263   4.424   1.454  1.0171  0.3035 -0.8848
 3890WAT     H217366  -0.222   4.562   1.408 -0.7870  1.1937  0.0775
 3890WAT    EPW17367  -0.251   4.509   1.470  0.0379  0.3309 -0.2480
 3891WAT      O17368  -0.688   9.835   6.924  0.1525  0.2544  0.1772
 3891WAT     H117369  -0.627   9.867   6.990  1.0727 -1.4308  0.2170
 3891WAT     H217370  -0.659   9.876   6.842  2.6617 -1.9467 -0.1735
 3891WAT    EPW17371  -0.676   9.844   6.922  0.6048 -0.2580  0.1361
 3892WAT      O17372   2.487   9.183   5.952  0.0031  0.4511 -0.0431
 3892WAT     H117373   2.515   9.103   5.908  1.9804  0.9931  0.1233
 3892WAT     H217374   2.392   9.175   5.958  0.1525 -2.0024  0.2080
 3892WAT    EPW17375   2.478   9.171   5.947  0.2836  0.1993  0.0122
 3893WAT      O17376   6.138   3.113   0.622 -0.3683 -0.8341  0.3989
 3893WAT     H117377   6.182   3.076   0.699 -1.6183 -0.7917  1.1730
 3893WAT     H217378   6.202   3.105   0.551  1.3530  0.4355  1.7330
 3893WAT    EPW17379   6.152   3.107   0.623 -0.3061 -0.6610  0.6770
 3894WAT      O17380   5.386   3.632   6.536  0.6374  0.1827 -0.3908
 3894WAT     H117381   5.392   3.727   6.528 -2.9361  0.3652 -2.9948
 3894WAT     H217382   5.312   3.617   6.594  2.7162 -1.1991  2.1351
 3894WAT    EPW17383   5.377   3.643   6.543  0.4404  0.0244 -0.4013
 3895WAT      O17384   4.463   2.541   6.304 -0.0154  0.1290 -0.4140
 3895WAT     H117385   4.428   2.587   6.381 -1.9298  1.3246 -1.8943
 3895WAT     H217386   4.526   2.479   6.340 -0.6891  0.7718  2.0959
 3895WAT    EPW17387   4.467   2.539   6.319 -0.3567  0.3715 -0.2782
 3896WAT      O17388   2.401   2.451   2.405 -0.5056 -0.6539  0.1433
 3896WAT     H117389   2.485   2.488   2.376 -0.1817 -1.4094  0.1105
 3896WAT     H217390   2.422   2.406   2.487 -1.6355  2.6090  2.4351
 3896WAT    EPW17391   2.415   2.450   2.412 -0.6119 -0.3233  0.4412
 3897WAT      O17392  -7.865   8.558   8.906 -0.2225  0.6617 -0.7824
 3897WAT     H117393  -7.869   8.500   8.982 -0.5100  0.6467 -0.8064
 3897WAT     H217394  -7.919   8.515   8.840 -0.3770  0.9201 -0.8250
 3897WAT    EPW17395  -7.873   8.544   8.908 -0.2806  0.6938 -0.7915
 3898WAT      O17396   0.812   9.422   0.953 -0.2140  0.1541  0.2723
 3898WAT     H117397   0.743   9.454   1.012 -0.9729 -1.3157  0.2240
 3898WAT     H217398   0.867   9.367   1.009 -0.8240 -1.0913 -0.3293
 3898WAT    EPW17399   0.810   9.419   0.968 -0.3945 -0.2036  0.1865
 3899WAT      O17400  -4.903   3.894   7.860  0.1082 -0.5923 -0.4712
 3899WAT     H117401  -4.897   3.803   7.890  0.5230  0.4361  2.9771
 3899WAT     H217402  -4.995   3.906   7.839 -0.0581 -1.6601 -0.4076
 3899WAT    EPW17403  -4.914   3.884   7.861  0.1409 -0.5975 -0.0081
 3900WAT      O17404   2.887  10.073   0.675  0.2700  0.1019  0.7117
 3900WAT     H117405   2.816  10.010   0.663 -0.4977  0.7347  1.8814
 3900WAT     H217406   2.961  10.019   0.706  0.0529 -0.4252  0.3306
 3900WAT    EPW17407   2.888  10.057   0.677  0.1401  0.1163  0.8158
 3901WAT      O17408   2.985  10.299   4.286 -0.7645 -0.0409  0.4487
 3901WAT     H117409   2.944  10.386   4.292  0.9863  0.7883  1.3947
 3901WAT     H217410   3.073  10.312   4.322 -1.3975 -2.8483  3.4996
 3901WAT    EPW17411   2.992  10.312   4.292 -0.6170 -0.3018  0.9758
 3902WAT      O17412   5.111   2.333   0.697 -0.4167 -0.0577 -0.3480
 3902WAT     H117413   5.055   2.353   0.773 -0.6165  0.1659 -0.5491
 3902WAT     H217414   5.049   2.303   0.630 -0.5694  2.0794 -1.2431
 3902WAT    EPW17415   5.095   2.332   0.698 -0.4630  0.2537 -0.4926
 3903WAT      O17416  -2.905   9.761   6.130  0.1806 -0.4833  0.2618
 3903WAT     H117417  -2.896   9.666   6.136 -0.0990 -0.6369 -1.2748
 3903WAT     H217418  -2.819   9.792   6.102 -0.7428 -0.8024 -3.5086
 3903WAT    EPW17419  -2.893   9.753   6.127  0.0218 -0.5455 -0.4382
 3904WAT      O17420   2.744   7.513   4.316  0.0535 -0.1033 -0.1374
 3904WAT     H117421   2.815   7.452   4.296  1.7165  2.0013 -1.0438
 3904WAT     H217422   2.759   7.587   4.257 -4.2532 -0.4503 -2.0408
 3904WAT    EPW17423   2.756   7.515   4.306 -0.2953  0.1285 -0.5083
 3905WAT      O17424   1.809   1.652   6.360 -0.9334  0.3367 -0.2776
 3905WAT     H117425   1.847   1.626   6.444  1.0927  1.3713 -0.8221
 3905WAT     H217426   1.719   1.619   6.364  0.2166 -3.0276  0.7188
 3905WAT    EPW17427   1.802   1.645   6.372 -0.5145  0.0294 -0.2182
 3906WAT      O17428  -1.769   0.161   3.412  0.3628 -0.3777 -0.2386
 3906WAT     H117429  -1.726   0.076   3.417  1.9486  0.4578  1.0598
 3906WAT     H217430  -1.863   0.140   3.410  0.7404 -2.1650 -1.0007
 3906WAT    EPW17431  -1.776   0.147   3.412  0.6217 -0.5032 -0.1678
 3907WAT      O17432  -3.516   4.585   7.868  0.2298  0.2855 -0.3434
 3907WAT     H117433  -3.602   4.551   7.892 -1.1221  2.0971 -2.2263
 3907WAT     H217434  -3.463   4.575   7.947 -1.4887 -1.4665  0.6886
 3907WAT    EPW17435  -3.520   4.579   7.881 -0.1752  0.2933 -0.4554
 3908WAT      O17436   5.228   2.654   0.461  0.4729  0.0749  0.2904
 3908WAT     H117437   5.179   2.572   0.460 -0.5015  0.6438  0.1304
 3908WAT     H217438   5.175   2.714   0.409  1.7666  0.4833 -0.5970
 3908WAT    EPW17439   5.214   2.651   0.454  0.5152  0.2038  0.1522
 3909WAT      O17440  -0.451   4.515   1.677  0.2511 -0.3030  0.0829
 3909WAT     H117441  -0.427   4.430   1.712 -0.4414 -0.6193 -0.1880
 3909WAT     H217442  -0.401   4.522   1.595  0.0317 -0.6066 -0.0774
 3909WAT    EPW17443  -0.441   4.505   1.671  0.1308 -0.3848  0.0260
 3910WAT      O17444  -3.883   9.059   8.783 -0.2993  0.0063 -0.4668
 3910WAT     H117445  -3.895   8.996   8.854 -1.4325 -0.2806 -0.8943
 3910WAT     H217446  -3.873   9.005   8.705 -3.2739  0.3114 -1.1511
 3910WAT    EPW17447  -3.883   9.043   8.782 -0.8413  0.0086 -0.6132
 3911WAT      O17448  -0.876   4.333   7.718 -0.1589 -0.6887  0.6393
 3911WAT     H117449  -0.802   4.315   7.776 -1.3685 -4.6358  1.2786
 3911WAT     H217450  -0.905   4.421   7.742  2.0969 -0.4366  2.8757
 3911WAT    EPW17451  -0.870   4.342   7.729 -0.0210 -1.1759  1.0188
 3912WAT      O17452   2.427   2.286   3.601 -0.3729 -0.4972 -0.7173
 3912WAT     H117453   2.434   2.203   3.648  2.0083  0.4161  0.7306
 3912WAT     H217454   2.387   2.346   3.664  0.6410  0.1474 -0.6618
 3912WAT    EPW17455   2.423   2.283   3.615  0.0749 -0.2917 -0.5190
 3913WAT      O17456  -0.061   9.080   8.565  0.3166 -0.0046  0.1054
 3913WAT     H117457  -0.108   9.089   8.482 -0.9856 -0.0505  0.8169
 3913WAT     H217458  -0.026   8.991   8.565 -0.7602 -0.4325  0.1453
 3913WAT    EPW17459  -0.062   9.070   8.554  0.0029 -0.0672  0.2046
 3914WAT      O17460  -2.902   2.056   4.323  0.4264 -1.3217 -0.1505
 3914WAT     H117461  -2.880   2.140   4.284  1.1951 -1.5889 -0.3099
 3914WAT     H217462  -2.968   2.077   4.389  0.2865 -0.6579 -0.4946
 3914WAT    EPW17463  -2.908   2.070   4.327  0.5093 -1.2695 -0.2172
 3915WAT      O17464   2.175   5.673   4.906 -0.7233 -0.1283  1.2302
 3915WAT     H117465   2.160   5.592   4.954 -0.3239 -1.4159 -0.7018
 3915WAT     H217466   2.225   5.728   4.966 -0.7934 -1.4107  2.5036
 3915WAT    EPW17467   2.180   5.670   4.920 -0.6799 -0.4673  1.1432
 3916WAT      O17468  -2.107   9.525   5.619 -0.1636 -0.6966 -0.5324
 3916WAT     H117469  -2.109   9.441   5.666  0.1553 -1.0538 -1.1496
 3916WAT     H217470  -2.041   9.513   5.551  1.1951  0.6791  0.4901
 3916WAT    EPW17471  -2.099   9.512   5.616  0.0576 -0.5622 -0.4790
 3917WAT      O17472   6.067   3.838   3.484  1.2961  0.5710 -0.2704
 3917WAT     H117473   6.072   3.760   3.429 -1.3357  0.9818 -1.2559
 3917WAT     H217474   6.143   3.890   3.460  0.9181  0.1235 -2.6122
 3917WAT    EPW17475   6.077   3.835   3.474  0.8991  0.5661 -0.7092
 3918WAT      O17476   3.077   6.638   3.451  0.5911 -0.1610  0.0004
 3918WAT     H117477   3.059   6.722   3.494 -0.8531 -0.0729 -0.7213
 3918WAT     H217478   3.086   6.576   3.523  3.4633  0.8739  0.6534
 3918WAT    EPW17479   3.076   6.641   3.466  0.7794 -0.0129 -0.0086
 3919WAT      O17480  -2.149   6.935   1.798  0.7662 -0.3995 -0.0881
 3919WAT     H117481  -2.107   7.021   1.789  1.2080 -0.7557 -2.1514
 3919WAT     H217482  -2.091   6.886   1.855  0.7772  0.5114  0.7032
 3919WAT    EPW17483  -2.136   6.940   1.804  0.8260 -0.3264 -0.2558
 3920WAT      O17484  -5.103  10.313   6.289  0.0867 -0.0366 -0.0776
 3920WAT     H117485  -5.021  10.269   6.312 -2.1017 -3.1268  2.9294
 3920WAT     H217486  -5.097  10.399   6.330  2.3496  0.4646 -1.2999
 3920WAT    EPW17487  -5.092  10.318   6.298  0.0966 -0.3781  0.1578
 3921WAT      O17488   1.976   1.681   2.987 -0.0342 -0.4104  0.1431
 3921WAT     H117489   1.998   1.710   3.076 -1.5165  0.2268  0.3392
 3921WAT     H217490   2.037   1.728   2.931 -1.4899  2.2086  0.5742
 3921WAT    EPW17491   1.987   1.691   2.992 -0.4217  0.0191  0.2258
 3922WAT      O17492  -0.937   5.310   6.718 -0.0364 -0.8716 -0.4365
 3922WAT     H117493  -0.892   5.248   6.775  0.7719 -0.0608 -0.1550
 3922WAT     H217494  -0.901   5.395   6.743 -1.4206 -0.2348 -0.5160
 3922WAT    EPW17495  -0.927   5.313   6.729 -0.1124 -0.6807 -0.4101
 3923WAT      O17496   4.597   5.199   0.329  0.5065  0.4971 -0.4924
 3923WAT     H117497   4.530   5.251   0.284  1.3287  1.7785 -0.2772
 3923WAT     H217498   4.551   5.163   0.405  0.2467  2.1054  0.1599
 3923WAT    EPW17499   4.582   5.201   0.333  0.5808  0.8783 -0.3780
 3924WAT      O17500   7.729   3.461   1.730 -0.1668 -0.2007  0.5113
 3924WAT     H117501   7.649   3.466   1.782 -0.8800 -2.3732 -0.2688
 3924WAT     H217502   7.699   3.450   1.640  1.0520  1.8574 -0.2304
 3924WAT    EPW17503   7.714   3.460   1.725 -0.1001 -0.2158  0.3105
 3925WAT      O17504  -0.036   7.992   5.615 -0.0151  0.5066 -0.5931
 3925WAT     H117505  -0.038   7.909   5.662  0.7585  1.3460  0.9993
 3925WAT     H217506   0.034   8.042   5.657 -1.2237  2.4071 -0.7040
 3925WAT    EPW17507  -0.027   7.988   5.627 -0.0725  0.8681 -0.3977
 3926WAT      O17508  -3.569   9.521   6.130 -0.1660 -0.7327 -0.7630
 3926WAT     H117509  -3.636   9.460   6.160 -0.2680  0.3427  1.3919
 3926WAT     H217510  -3.601   9.552   6.045 -2.1226 -0.6763 -0.0522
 3926WAT    EPW17511  -3.582   9.517   6.123 -0.4376 -0.5832 -0.3850
 3927WAT      O17512  -4.471   6.666   4.029  0.6548 -0.2437  0.2162
 3927WAT     H117513  -4.394   6.615   4.053  0.9991  0.3351  0.3503
 3927WAT     H217514  -4.436   6.751   4.002  0.0013  0.3838  1.2806
 3927WAT    EPW17515  -4.456   6.670   4.028  0.6139 -0.0846  0.3743
 3928WAT      O17516   4.982   1.361   8.376  0.6583 -0.0664 -0.2763
 3928WAT     H117517   4.925   1.346   8.452  1.6599 -1.2174  0.2842
 3928WAT     H217518   5.070   1.368   8.412  1.0996 -0.1567 -1.2929
 3928WAT    EPW17519   4.986   1.360   8.391  0.8488 -0.2301 -0.3362
 3929WAT      O17520  -2.744   9.287   6.123 -0.3893  0.1524 -1.2725
 3929WAT     H117521  -2.693   9.214   6.160  0.8183  1.1288 -0.9273
 3929WAT     H217522  -2.686   9.362   6.131 -2.0871  1.4440 -0.4117
 3929WAT    EPW17523  -2.729   9.287   6.129 -0.4539  0.4516 -1.1134
 3930WAT      O17524  -7.432   7.452   8.863  0.1396  0.3212 -0.1459
 3930WAT     H117525  -7.498   7.476   8.927 -1.7062  1.0236 -2.1675
 3930WAT     H217526  -7.371   7.526   8.861 -0.8520  1.1476 -0.4917
 3930WAT    EPW17527  -7.432   7.465   8.871 -0.2346  0.5229 -0.4582
 3931WAT      O17528   4.482   5.742   7.212  0.6026  0.0319  0.0723
 3931WAT     H117529   4.463   5.813   7.152  0.6446  1.0957  1.2648
 3931WAT     H217530   4.511   5.670   7.156  1.3940  1.2249 -1.1202
 3931WAT    EPW17531   4.483   5.742   7.197  0.7126  0.3295  0.0722
 3932WAT      O17532   3.043   1.694   8.620 -0.0020 -0.0450  0.2965
 3932WAT     H117533   3.088   1.620   8.580  2.3280  1.3986  0.0379
 3932WAT     H217534   3.090   1.709   8.702 -0.0585  1.4563  0.0819
 3932WAT    EPW17535   3.055   1.686   8.626  0.2979  0.3434  0.2341
 3933WAT      O17536   4.495   3.180   4.687 -0.4115  0.5867  0.1976
 3933WAT     H117537   4.496   3.116   4.616  0.8500 -0.3997  1.0549
 3933WAT     H217538   4.441   3.139   4.755  0.5830  0.3155  0.8364
 3933WAT    EPW17539   4.488   3.166   4.687 -0.1140  0.4208  0.3948
 3934WAT      O17540   0.275   2.730   1.192  0.0060 -0.7188  0.4145
 3934WAT     H117541   0.246   2.717   1.283 -3.7418  0.3927 -0.4544
 3934WAT     H217542   0.282   2.641   1.157  1.4086 -1.1590  1.6947
 3934WAT    EPW17543   0.272   2.716   1.200 -0.3034 -0.6303  0.4687
 3935WAT      O17544  -6.059   9.256   8.869 -0.0422  0.7124  0.0777
 3935WAT     H117545  -6.096   9.321   8.809  0.9483  0.3821 -0.9391
 3935WAT     H217546  -6.015   9.193   8.811  1.1135  0.4816  1.1653
 3935WAT    EPW17547  -6.058   9.256   8.853  0.2408  0.6385  0.0873
 3936WAT      O17548  -2.515   3.064   4.650  1.1598 -0.0720 -0.2729
 3936WAT     H117549  -2.501   3.075   4.744 -1.6849 -1.4278  0.4409
 3936WAT     H217550  -2.514   3.153   4.615  1.9556  0.4780  1.0940
 3936WAT    EPW17551  -2.513   3.077   4.658  0.8895 -0.1781  0.0017
 3937WAT      O17552  -2.407   6.442   5.261 -0.0010 -0.5669 -0.5271
 3937WAT     H117553  -2.353   6.481   5.192 -1.1721  0.8530 -0.6861
 3937WAT     H217554  -2.472   6.389   5.214 -0.4409 -0.0633 -0.4954
 3937WAT    EPW17555  -2.409   6.440   5.246 -0.2135 -0.3133 -0.5438
 3938WAT      O17556  -7.185   8.701   8.770  0.0049 -0.6726  0.1972
 3938WAT     H117557  -7.263   8.650   8.791 -0.0250 -0.4248  0.7121
 3938WAT     H217558  -7.170   8.755   8.848 -1.8004  2.4511 -1.4569
 3938WAT    EPW17559  -7.193   8.701   8.783 -0.2372 -0.2284  0.0467
 3939WAT      O17560   2.230   4.021   2.268  0.0133 -0.0498  0.1833
 3939WAT     H117561   2.171   3.971   2.324  0.7168 -0.7783  0.2953
 3939WAT     H217562   2.173   4.062   2.203 -0.6405 -0.4936  0.4713
 3939WAT    EPW17563   2.215   4.020   2.266  0.0199 -0.2043  0.2360
 3940WAT      O17564   3.516   4.842   1.428 -0.6080  0.6825 -0.3121
 3940WAT     H117565   3.557   4.928   1.424 -1.9512  1.4186  0.6799
 3940WAT     H217566   3.462   4.837   1.350 -2.7632  2.0025  1.0001
 3940WAT    EPW17567   3.514   4.852   1.417 -1.0694  0.9534 -0.0082
 3941WAT      O17568   1.131   6.768   6.127 -0.2816 -0.0359 -0.8374
 3941WAT     H117569   1.147   6.694   6.068  2.9852 -0.1638 -0.0144
 3941WAT     H217570   1.194   6.755   6.197  0.4655  3.5759 -0.6816
 3941WAT    EPW17571   1.141   6.756   6.128  0.2478  0.4234 -0.7083
 3942WAT      O17572   5.208   4.912   1.665  0.2275  0.2768 -0.1321
 3942WAT     H117573   5.127   4.861   1.664 -0.5430  1.3054  2.3290
 3942WAT     H217574   5.179   5.002   1.653  1.1510  0.5424 -0.4053
 3942WAT    EPW17575   5.193   4.917   1.663  0.2477  0.4475  0.1565
 3943WAT      O17576   0.613   6.720   1.271 -0.6363 -0.2482 -0.3041
 3943WAT     H117577   0.625   6.640   1.322  0.3605  0.6336  0.9224
 3943WAT     H217578   0.534   6.760   1.306  1.0033  1.2655  1.9364
 3943WAT    EPW17579   0.604   6.715   1.282 -0.2886  0.0679  0.1532
 3944WAT      O17580  -0.712   6.449   1.926  0.6877 -0.4573  0.9035
 3944WAT     H117581  -0.699   6.366   1.881 -3.8082 -0.6493 -0.5606
 3944WAT     H217582  -0.715   6.427   2.019 -2.1238 -2.4163  0.4650
 3944WAT    EPW17583  -0.710   6.435   1.933 -0.2761 -0.7410  0.6526
 3945WAT      O17584   4.531   0.394   0.239 -0.0723  0.0130  0.2729
 3945WAT     H117585   4.497   0.306   0.219  0.2450  0.4559 -2.5962
 3945WAT     H217586   4.623   0.391   0.213 -0.1759  1.3025 -0.3251
 3945WAT    EPW17587   4.538   0.382   0.233 -0.0441  0.2415 -0.1844
 3946WAT      O17588   6.007   3.036   5.846  0.1684 -1.1150  0.7281
 3946WAT     H117589   5.925   3.066   5.808  0.1946 -1.1266  0.6634
 3946WAT     H217590   6.069   3.107   5.830 -0.1391 -0.5551  1.8714
 3946WAT    EPW17591   6.005   3.049   5.839  0.1311 -1.0427  0.8705
 3947WAT      O17592   7.350   9.856   0.192 -0.1827 -0.1649  0.2586
 3947WAT     H117593   7.415   9.815   0.134  0.9098  0.9982  0.6170
 3947WAT     H217594   7.266   9.827   0.157  0.4723 -0.2654 -1.3242
 3947WAT    EPW17595   7.348   9.847   0.180  0.0477 -0.0248  0.0971
 3948WAT      O17596   4.213   1.819   0.206  0.9702  0.0247  0.0828
 3948WAT     H117597   4.309   1.822   0.206  1.0032  0.5724  2.0865
 3948WAT     H217598   4.189   1.846   0.294 -1.1385  2.4461 -1.1322
 3948WAT    EPW17599   4.223   1.823   0.218  0.6964  0.4163  0.1868
 3949WAT      O17600   3.369   4.077   8.576 -0.3022  0.1790  0.6846
 3949WAT     H117601   3.323   4.054   8.657 -0.7954 -0.1516  0.3126
 3949WAT     H217602   3.461   4.055   8.594 -0.7683 -2.4593  0.2474
 3949WAT    EPW17603   3.375   4.071   8.589 -0.4287 -0.2124  0.5774
 3950WAT      O17604   4.870   7.325   4.469 -0.1795  1.4414  0.0658
 3950WAT     H117605   4.780   7.333   4.501 -0.9633 -1.1684 -1.2055
 3950WAT     H217606   4.907   7.254   4.522  0.1946  0.6111 -1.2817
 3950WAT    EPW17607   4.863   7.316   4.480 -0.2337  0.9875 -0.2797
 3951WAT      O17608   4.317   6.552   1.678  0.0328 -0.3538 -0.4698
 3951WAT     H117609   4.316   6.485   1.610 -0.2603 -0.8435  0.0055
 3951WAT     H217610   4.406   6.587   1.676  0.3073 -1.0325 -0.4695
 3951WAT    EPW17611   4.329   6.548   1.669  0.0303 -0.5078 -0.4071
 3952WAT      O17612  -0.363   3.726   6.330 -0.1137  0.1476  0.4437
 3952WAT     H117613  -0.305   3.651   6.320  0.4793  0.4716  1.2989
 3952WAT     H217614  -0.434   3.711   6.268  1.1997  0.0438 -1.1072
 3952WAT    EPW17615  -0.364   3.714   6.321  0.1377  0.1765  0.3519
 3953WAT      O17616   4.907   6.171   0.852  0.3265  0.0988  0.8434
 3953WAT     H117617   4.980   6.109   0.853 -1.9124 -2.7172  0.2764
 3953WAT     H217618   4.848   6.140   0.920 -0.6722  1.9518  0.8776
 3953WAT    EPW17619   4.909   6.159   0.861 -0.1004 -0.0284  0.7732
 3954WAT      O17620  -3.366   8.288   7.117  0.2381 -0.4569 -0.0161
 3954WAT     H117621  -3.320   8.371   7.109 -1.4669  0.6445  0.9793
 3954WAT     H217622  -3.432   8.290   7.048  0.2912 -1.0618 -0.0883
 3954WAT    EPW17623  -3.369   8.299   7.107  0.0203 -0.3915  0.1056
 3955WAT      O17624   2.251   2.625   2.621 -0.0005 -0.0922  0.2234
 3955WAT     H117625   2.281   2.607   2.532 -0.7103 -1.2718  0.1976
 3955WAT     H217626   2.304   2.699   2.650 -1.3072  1.8658 -2.0039
 3955WAT    EPW17627   2.262   2.633   2.613 -0.2664  0.0104 -0.0739
 3956WAT      O17628   6.236   8.013   0.507  0.2026  0.3911 -0.8995
 3956WAT     H117629   6.153   8.018   0.553  0.9590 -0.7775  0.7213
 3956WAT     H217630   6.300   8.047   0.570  0.9994  0.9425 -1.9788
 3956WAT    EPW17631   6.234   8.018   0.522  0.4075  0.3095 -0.8281
 3957WAT      O17632   3.455   0.536   4.629 -0.7907 -0.1002 -0.2158
 3957WAT     H117633   3.401   0.504   4.702 -1.1404  0.8468 -0.0412
 3957WAT     H217634   3.399   0.526   4.552 -0.8796  0.0440 -0.1700
 3957WAT    EPW17635   3.440   0.531   4.629 -0.8485  0.0437 -0.1867
 3958WAT      O17636   1.853   4.673   7.719  0.0752 -0.0602 -0.4480
 3958WAT     H117637   1.851   4.693   7.626  0.6912  2.3670 -0.0064
 3958WAT     H217638   1.860   4.758   7.762  1.2242 -1.1690  1.7576
 3958WAT    EPW17639   1.854   4.687   7.713  0.3080  0.1137 -0.0987
 3959WAT      O17640   0.472   6.027   4.845  0.0430 -0.1507  0.2989
 3959WAT     H117641   0.555   6.038   4.891  1.4791 -1.3730 -1.8121
 3959WAT     H217642   0.411   6.085   4.891  2.3125  1.6390  1.2775
 3959WAT    EPW17643   0.475   6.036   4.857  0.5317 -0.0761  0.1495
 3960WAT      O17644   5.757   6.647   2.862  0.6257  0.0507 -0.1835
 3960WAT     H117645   5.844   6.621   2.832 -0.1117 -2.0366 -0.6293
 3960WAT     H217646   5.697   6.610   2.798 -0.6784  0.1561  0.9302
 3960WAT    EPW17647   5.761   6.639   2.850  0.3564 -0.2108 -0.0954
 3961WAT      O17648   2.087   6.862   1.835  0.3048 -0.3179  0.2952
 3961WAT     H117649   2.140   6.937   1.861 -0.2598 -0.4463  1.9023
 3961WAT     H217650   2.000   6.898   1.818 -0.1761 -0.7037  1.8630
 3961WAT    EPW17651   2.083   6.876   1.836  0.1670 -0.3858  0.7139
 3962WAT      O17652   1.818   9.015   8.260  0.6849  0.5057 -0.3970
 3962WAT     H117653   1.801   9.012   8.354 -0.2332 -0.0958 -0.5595
 3962WAT     H217654   1.908   8.986   8.250  0.5216 -0.2531  0.2429
 3962WAT    EPW17655   1.827   9.011   8.271  0.5423  0.3257 -0.3343
 3963WAT      O17656  -3.053   1.976   6.607  0.3855 -0.3755 -0.2602
 3963WAT     H117657  -2.997   2.019   6.673 -0.1340 -2.3285  1.5576
 3963WAT     H217658  -3.075   1.891   6.646 -2.0657 -0.5752 -1.8760
 3963WAT    EPW17659  -3.048   1.971   6.621 -0.0063 -0.6594 -0.2337
 3964WAT      O17660  -2.121   3.252   7.275  0.0668 -0.1161  0.7295
 3964WAT     H117661  -2.206   3.212   7.295 -0.4653  1.0253  0.8208
 3964WAT     H217662  -2.097   3.213   7.191 -0.0949 -1.1492  1.1485
 3964WAT    EPW17663  -2.129   3.242   7.266 -0.0246 -0.1019  0.7970
 3965WAT      O17664   0.758   6.113   4.153  0.1059 -0.7080  0.7440
 3965WAT     H117665   0.757   6.023   4.184 -2.3501 -0.6211  1.1021
 3965WAT     H217666   0.724   6.108   4.063 -1.4713 -0.0302  1.2708
 3965WAT    EPW17667   0.754   6.101   4.145 -0.4261 -0.6073  0.8607
 3966WAT      O17668  -2.618   7.070   1.931  0.1075  0.0728  0.9165
 3966WAT     H117669  -2.610   6.992   1.985  1.2606 -0.5324 -0.0676
 3966WAT     H217670  -2.711   7.078   1.913  0.0471 -1.6465  0.2650
 3966WAT    EPW17671  -2.629   7.061   1.936  0.2517 -0.2339  0.7008
 3967WAT      O17672  -2.313   7.474   5.152 -0.4049 -0.3512  0.1997
 3967WAT     H117673  -2.383   7.462   5.088 -1.3608 -0.2049  1.1835
 3967WAT     H217674  -2.290   7.385   5.180 -0.5644 -0.3694  0.2701
 3967WAT    EPW17675  -2.319   7.461   5.147 -0.5521 -0.3343  0.3388
 3968WAT      O17676  -2.723   6.625   2.228 -0.0363 -0.4681 -0.3689
 3968WAT     H117677  -2.695   6.716   2.223 -1.0272 -0.1342 -0.0674
 3968WAT     H217678  -2.688   6.585   2.148  0.5412  0.1241 -0.4227
 3968WAT    EPW17679  -2.715   6.631   2.217 -0.0910 -0.3459 -0.3363
 3969WAT      O17680  -3.373   7.449   6.739  0.6587  0.2311  0.4716
 3969WAT     H117681  -3.403   7.494   6.660  1.9231  0.1497 -0.0846
 3969WAT     H217682  -3.283   7.480   6.750  1.6716 -2.3095 -0.0744
 3969WAT    EPW17683  -3.365   7.459   6.730  0.9590 -0.1149  0.3264
 3970WAT      O17684  -0.240   8.044   3.541  0.0932  0.3835 -0.3105
 3970WAT     H117685  -0.310   8.109   3.532  0.1404  0.8043  1.7484
 3970WAT     H217686  -0.222   8.042   3.635 -0.1968 -2.9440 -0.2058
 3970WAT    EPW17687  -0.247   8.052   3.553  0.0612  0.0000 -0.0252
 3971WAT      O17688   4.388   6.881   1.822 -0.3756  0.4895 -0.1111
 3971WAT     H117689   4.363   6.814   1.759  2.1199 -1.0455  0.3712
 3971WAT     H217690   4.440   6.943   1.771 -3.5998  2.8621 -0.8057
 3971WAT    EPW17691   4.391   6.880   1.807 -0.4716  0.5999 -0.1391
 3972WAT      O17692   6.226   1.392   4.340  0.0132  0.4892 -0.2887
 3972WAT     H117693   6.256   1.459   4.401  2.7430  0.8758 -1.8739
 3972WAT     H217694   6.257   1.422   4.254 -1.3065 -1.3407 -1.4771
 3972WAT    EPW17695   6.234   1.404   4.336  0.1991  0.2988 -0.6547
 3973WAT      O17696   2.847   6.665   0.113  0.4958 -0.2971 -0.4028
 3973WAT     H117697   2.818   6.618   0.191 -1.4495 -2.8503 -2.4935
 3973WAT     H217698   2.940   6.642   0.104  0.5168 -0.6606  0.6658
 3973WAT    EPW17699   2.855   6.656   0.122  0.2421 -0.6819 -0.5376
 3974WAT      O17700   8.079   0.311   2.563  0.2896  0.4291 -0.1995
 3974WAT     H117701   8.027   0.333   2.641 -0.1728  1.5304 -0.7910
 3974WAT     H217702   8.089   0.216   2.567 -0.4407  0.3755  0.7589
 3974WAT    EPW17703   8.073   0.301   2.574  0.1321  0.5673 -0.1512
 3975WAT      O17704   5.704   2.270   6.347 -0.2469  0.4962 -0.2601
 3975WAT     H117705   5.765   2.249   6.277 -0.8956 -0.2643 -0.6168
 3975WAT     H217706   5.724   2.208   6.416 -0.5832  0.2679 -0.3643
 3975WAT    EPW17707   5.715   2.259   6.347 -0.3767  0.3659 -0.3207
 3976WAT      O17708   7.135   2.150   3.530  0.5783 -0.3140 -0.0660
 3976WAT     H117709   7.143   2.132   3.624  1.9058  1.8861  0.3355
 3976WAT     H217710   7.196   2.223   3.516 -1.6080  1.2334 -2.1049
 3976WAT    EPW17711   7.144   2.157   3.541  0.4652  0.1802 -0.2818
 3977WAT      O17712   5.261   8.823   1.088  0.1188 -1.1816 -0.2536
 3977WAT     H117713   5.248   8.893   1.151  0.6533 -0.5213 -0.8603
 3977WAT     H217714   5.204   8.846   1.014 -0.4050 -1.8765 -0.0831
 3977WAT    EPW17715   5.252   8.835   1.087  0.1202 -1.1859 -0.3111
 3978WAT      O17716   2.657   7.098   5.102  0.1869 -0.2172 -0.3534
 3978WAT     H117717   2.726   7.084   5.037  0.1998 -0.2401 -0.3347
 3978WAT     H217718   2.696   7.155   5.168  0.4483 -0.8737  0.0690
 3978WAT    EPW17719   2.671   7.104   5.102  0.2230 -0.3068 -0.2952
 3979WAT      O17720  -3.952   1.706   6.039  0.2931 -0.0096 -0.1254
 3979WAT     H117721  -3.882   1.723   5.975  1.5978 -1.4546  0.8411
 3979WAT     H217722  -3.919   1.741   6.121  1.4783 -3.6339  1.1017
 3979WAT    EPW17723  -3.939   1.713   6.041  0.6213 -0.6782  0.1638
 3980WAT      O17724  -0.989   5.171   1.161  0.4157  0.2774  0.3331
 3980WAT     H117725  -0.908   5.120   1.149 -0.2720 -0.9605  0.7575
 3980WAT     H217726  -1.059   5.111   1.135 -0.4256  1.0459  0.7569
 3980WAT    EPW17727  -0.987   5.156   1.156  0.2140  0.2155  0.4450
 3981WAT      O17728  -4.205   3.506   5.788  0.2698 -0.2746 -0.5818
 3981WAT     H117729  -4.219   3.575   5.853 -0.5023 -0.5200 -0.4720
 3981WAT     H217730  -4.111   3.490   5.788  0.3124 -0.0355  0.2272
 3981WAT    EPW17731  -4.195   3.513   5.796  0.1736 -0.2754 -0.4606
 3982WAT      O17732   1.192   6.261   4.271  0.0433  0.0916 -0.2102
 3982WAT     H117733   1.266   6.217   4.231 -0.3407  0.3299 -1.2298
 3982WAT     H217734   1.133   6.190   4.296  0.5498 -0.0904  0.4698
 3982WAT    EPW17735   1.194   6.246   4.269  0.0595  0.0989 -0.2551
 3983WAT      O17736  -5.546   6.054   7.959 -0.9987 -0.7670 -0.4793
 3983WAT     H117737  -5.637   6.036   7.935 -1.0699 -0.6989 -0.2608
 3983WAT     H217738  -5.505   6.083   7.878 -1.3326 -0.1642 -0.4338
 3983WAT    EPW17739  -5.553   6.055   7.945 -1.0524 -0.6785 -0.4444
 3984WAT      O17740   1.979   5.170   1.738 -0.1770  0.1300 -0.3125
 3984WAT     H117741   1.895   5.213   1.726 -1.0499 -0.9729  1.4659
 3984WAT     H217742   1.984   5.105   1.668 -1.1869 -0.3408  0.0373
 3984WAT    EPW17743   1.969   5.167   1.727 -0.4253 -0.0775 -0.0318
 3985WAT      O17744   2.480   7.171   4.739 -0.2869 -0.6163 -0.4175
 3985WAT     H117745   2.516   7.221   4.813 -0.5637 -2.1002  0.7781
 3985WAT     H217746   2.386   7.166   4.757 -0.9312  1.7783 -2.6321
 3985WAT    EPW17747   2.472   7.177   4.751 -0.4084 -0.4961 -0.5522
 3986WAT      O17748   4.612   9.363   1.036 -0.1346  0.8276 -0.5610
 3986WAT     H117749   4.535   9.306   1.028  2.4128 -2.7886 -2.6108
 3986WAT     H217750   4.600   9.429   0.967 -0.8065 -0.5882 -1.8625
 3986WAT    EPW17751   4.600   9.364   1.026  0.1128  0.1640 -1.0030
 3987WAT      O17752   6.058   2.589   1.912  0.3419 -0.4117 -0.0882
 3987WAT     H117753   6.051   2.676   1.874  1.8376  0.6405  1.8483
 3987WAT     H217754   5.998   2.535   1.860 -0.4720  1.6972 -1.4739
 3987WAT    EPW17755   6.049   2.593   1.900  0.4318  0.0052 -0.0155
 3988WAT      O17756   3.779   8.973   3.526 -0.9123  0.1885  0.1517
 3988WAT     H117757   3.823   9.044   3.573 -1.7407 -0.1691  1.5513
 3988WAT     H217758   3.834   8.896   3.542 -0.9191  0.1728  0.0982
 3988WAT    EPW17759   3.792   8.972   3.535 -1.0225  0.1392  0.3291
 3989WAT      O17760  -0.160   7.302   1.949  0.2371 -0.7367  0.2221
 3989WAT     H117761  -0.198   7.239   1.887 -0.6913 -0.6095  0.6415
 3989WAT     H217762  -0.160   7.255   2.033  1.2063 -0.7994  0.1983
 3989WAT    EPW17763  -0.165   7.287   1.952  0.2425 -0.7281  0.2742
 3990WAT      O17764  -2.582   1.408   6.016 -0.2124  0.1252  0.1111
 3990WAT     H117765  -2.536   1.352   6.078  0.3337  1.1385  0.6521
 3990WAT     H217766  -2.572   1.496   6.052 -1.2731  0.5458 -0.5745
 3990WAT    EPW17767  -2.574   1.412   6.029 -0.2804  0.3143  0.0923
 3991WAT      O17768  -1.450   0.125   6.812  0.3656 -0.2257  0.5527
 3991WAT     H117769  -1.491   0.189   6.753 -0.8822  0.1021  1.7303
 3991WAT     H217770  -1.510   0.050   6.811  1.9090 -1.5108 -0.9618
 3991WAT    EPW17771  -1.463   0.123   6.804  0.4047 -0.3520  0.5083
 3992WAT      O17772   0.168   6.014   8.842  0.0468  0.1652 -0.7911
 3992WAT     H117773   0.241   5.961   8.874 -0.2063  0.4928  0.3666
 3992WAT     H217774   0.209   6.094   8.809  0.2830 -0.0252 -0.9584
 3992WAT    EPW17775   0.183   6.018   8.842  0.0446  0.1833 -0.6609
 3993WAT      O17776  -1.419   9.075   7.928  0.6356 -0.2520 -0.6659
 3993WAT     H117777  -1.477   8.999   7.929  2.6845 -1.9554  1.2206
 3993WAT     H217778  -1.423   9.110   8.017  2.5117 -0.5038 -0.4401
 3993WAT    EPW17779  -1.427   9.069   7.940  1.1533 -0.5097 -0.3872
 3994WAT      O17780   7.429   2.277   0.269 -0.0246 -0.5426  0.6868
 3994WAT     H117781   7.512   2.315   0.241 -1.2279  1.3901 -0.5056
 3994WAT     H217782   7.382   2.260   0.187 -2.0079  1.3890  1.3291
 3994WAT    EPW17783   7.434   2.280   0.254 -0.4451 -0.0329  0.6143
 3995WAT      O17784  -2.165   9.403   2.253  0.0493 -0.4030  0.3418
 3995WAT     H117785  -2.133   9.329   2.201  4.9825  1.0212  0.8475
 3995WAT     H217786  -2.140   9.481   2.203  2.0650  0.9396  3.1307
 3995WAT    EPW17787  -2.158   9.403   2.240  0.9657 -0.0381  0.7763
 3996WAT      O17788   6.668  10.343   0.637 -0.3227  0.0196  0.0393
 3996WAT     H117789   6.611  10.296   0.698 -0.6290 -0.8705 -0.9195
 3996WAT     H217790   6.647  10.308   0.551  1.4482 -0.1250 -0.3862
 3996WAT    EPW17791   6.658  10.332   0.634 -0.1295 -0.1168 -0.1433
 3997WAT      O17792   3.569   6.273   3.068  0.1257 -0.6954 -0.7598
 3997WAT     H117793   3.474   6.281   3.063 -0.1320 -0.9740  1.9819
 3997WAT     H217794   3.584   6.206   3.134  2.2067  0.2375 -0.1960
 3997WAT    EPW17795   3.558   6.265   3.076  0.3662 -0.6092 -0.3239
 3998WAT      O17796   0.488   4.007   8.103 -0.5973  0.1377 -0.1925
 3998WAT     H117797   0.548   4.063   8.053 -1.3677  1.2959  0.1469
 3998WAT     H217798   0.533   3.923   8.109  1.6576  1.3694  1.2864
 3998WAT    EPW17799   0.502   4.003   8.097 -0.4015  0.4530  0.0472
 3999WAT      O17800   6.349   2.204   2.557 -0.0851  0.8555  0.2151
 3999WAT     H117801   6.372   2.126   2.505 -0.2933  0.6728  0.3945
 3999WAT     H217802   6.408   2.199   2.633 -2.1845 -0.8537  1.8555
 3999WAT    EPW17803   6.360   2.193   2.560 -0.3893  0.6061  0.4551
 4000WAT      O17804  -6.141   8.901   8.099  0.0260 -0.2375  0.4557
 4000WAT     H117805  -6.049   8.894   8.074 -0.1566 -4.4152  0.1065
 4000WAT     H217806  -6.150   8.844   8.175 -1.7247  2.9315  2.8697
 4000WAT    EPW17807  -6.130   8.892   8.106 -0.2291 -0.3705  0.7281
 4001WAT      O17808  -0.373   4.226   4.671  0.1564 -0.5050 -0.3480
 4001WAT     H117809  -0.416   4.154   4.717  0.5186 -1.2162 -1.0886
 4001WAT     H217810  -0.341   4.186   4.589  1.1435  0.2776 -0.3648
 4001WAT    EPW17811  -0.374   4.211   4.666  0.3344 -0.4957 -0.4480
 4002WAT      O17812   2.431   0.914   2.358 -0.0365  0.0666 -0.1116
 4002WAT     H117813   2.379   0.962   2.422  1.1189 -0.2196  1.1010
 4002WAT     H217814   2.436   0.972   2.282 -2.3766 -0.0590 -0.4156
 4002WAT    EPW17815   2.425   0.928   2.356 -0.1928  0.0123  0.0082
 4003WAT      O17816   5.583  -0.010   4.050 -0.2911  0.2656  0.0807
 4003WAT     H117817   5.542   0.064   4.096  1.3912 -0.1152  2.4306
 4003WAT     H217818   5.677   0.006   4.060  0.1080 -1.8363  0.0361
 4003WAT    EPW17819   5.590   0.002   4.058 -0.0167 -0.0618  0.3848
 4004WAT      O17820   2.438   7.873   5.394  0.5572 -0.6536 -0.6143
 4004WAT     H117821   2.381   7.946   5.419 -1.2548 -2.5016  1.0732
 4004WAT     H217822   2.524   7.897   5.427  0.4544  1.4998 -1.7527
 4004WAT    EPW17823   2.442   7.886   5.402  0.3046 -0.6132 -0.5419
 4005WAT      O17824   0.833   1.572   1.726  0.5102 -0.0417 -0.6023
 4005WAT     H117825   0.838   1.492   1.778  2.5628  0.6345  0.3233
 4005WAT     H217826   0.924   1.598   1.713 -0.0772  3.3024  0.9672
 4005WAT    EPW17827   0.846   1.565   1.731  0.7035  0.4885 -0.2732
 4006WAT      O17828   7.080   3.105   0.848  0.0132 -0.2421  0.0948
 4006WAT     H117829   7.034   3.050   0.784  0.8142 -0.8967  0.0723
 4006WAT     H217830   7.030   3.094   0.929  0.2438 -1.1146  0.1239
 4006WAT    EPW17831   7.067   3.096   0.850  0.1493 -0.4435  0.0957
 4007WAT      O17832  -6.248   7.828   7.174  0.2877  0.1971 -0.1163
 4007WAT     H117833  -6.185   7.768   7.213  0.4392  0.0017 -0.6610
 4007WAT     H217834  -6.328   7.776   7.163 -0.3357  0.7162  1.5447
 4007WAT    EPW17835  -6.250   7.814   7.178  0.2253  0.2398  0.0312
 4008WAT      O17836   0.053   3.748   0.965 -0.0982 -0.3554  0.0547
 4008WAT     H117837   0.116   3.713   1.028 -1.2292 -0.8819  0.9353
 4008WAT     H217838   0.050   3.842   0.983 -0.5362 -0.5283  0.9146
 4008WAT    EPW17839   0.061   3.756   0.975 -0.3051 -0.4476  0.2843
 4009WAT      O17840   6.609   0.965   1.504 -0.1820 -1.2570 -0.3142
 4009WAT     H117841   6.539   1.029   1.498  0.9859 -0.0331 -1.5159
 4009WAT     H217842   6.635   0.966   1.596  0.8681  1.2302 -0.5635
 4009WAT    EPW17843   6.603   0.973   1.515  0.1106 -0.7676 -0.5056
 4010WAT      O17844  -1.623   0.188   6.215  0.7444  0.5579  0.2781
 4010WAT     H117845  -1.633   0.281   6.191  0.6404  0.3446 -0.5290
 4010WAT     H217846  -1.685   0.176   6.287 -1.4964  0.4277 -1.5342
 4010WAT    EPW17847  -1.633   0.199   6.221  0.4352  0.5126 -0.0675
 4011WAT      O17848   0.091   0.058   6.186  0.5041 -0.2275  0.2366
 4011WAT     H117849   0.166   0.010   6.220  0.1892 -1.4240 -0.6677
 4011WAT     H217850   0.038   0.078   6.263  1.4072  0.0597  0.8047
 4011WAT    EPW17851   0.094   0.055   6.201  0.5817 -0.3474  0.1922
 4012WAT      O17852  -7.121   7.487   7.906  0.1715  0.2206 -1.0849
 4012WAT     H117853  -7.065   7.561   7.885  2.3554 -1.3208 -1.1056
 4012WAT     H217854  -7.109   7.426   7.832 -0.7104 -0.6143 -0.5681
 4012WAT    EPW17855  -7.112   7.489   7.893  0.3431 -0.0930 -1.0192
 4013WAT      O17856   3.662   5.818   4.051  0.0849  0.4336 -0.1323
 4013WAT     H117857   3.646   5.726   4.070 -2.1470  1.0275  1.3504
 4013WAT     H217858   3.754   5.832   4.072  0.3748 -1.3654 -0.0757
 4013WAT    EPW17859   3.672   5.808   4.056 -0.1712  0.2747  0.0706
 4014WAT      O17860   0.298   3.882   4.415  0.3966 -0.3552  0.3923
 4014WAT     H117861   0.342   3.799   4.399 -0.4447 -0.4479 -1.7461
 4014WAT     H217862   0.237   3.892   4.342 -1.2337  1.0181  1.8384
 4014WAT    EPW17863   0.296   3.873   4.403  0.0706 -0.1863  0.3009
 4015WAT      O17864  -4.692   2.080   6.467  0.0798  0.4399  0.2304
 4015WAT     H117865  -4.639   2.122   6.534  0.2188  0.5078  0.0774
 4015WAT     H217866  -4.780   2.075   6.506 -0.2491  2.0386 -0.2209
 4015WAT    EPW17867  -4.697   2.085   6.481  0.0546  0.6597  0.1509
 4016WAT      O17868  -6.649   9.217   8.281  0.9235 -0.4611 -0.2450
 4016WAT     H117869  -6.568   9.214   8.333  0.5022 -3.0094  0.4351
 4016WAT     H217870  -6.691   9.298   8.308  1.5206 -0.8727  2.2300
 4016WAT    EPW17871  -6.644   9.227   8.291  0.9468 -0.8516  0.1712
 4017WAT      O17872   8.658   5.312   0.566 -0.0165 -0.0740  0.1999
 4017WAT     H117873   8.751   5.335   0.579 -0.1384  0.9283 -0.5969
 4017WAT     H217874   8.653   5.219   0.590  1.2611 -0.2287 -0.0444
 4017WAT    EPW17875   8.670   5.303   0.571  0.1354  0.0379  0.0626
 4018WAT      O17876  -2.611   0.417   4.111  0.1143 -0.5186 -0.7597
 4018WAT     H117877  -2.622   0.351   4.179 -0.2721  1.4557  1.2162
 4018WAT     H217878  -2.526   0.457   4.130 -0.1338  0.2768 -1.2650
 4018WAT    EPW17879  -2.601   0.413   4.122  0.0306 -0.1533 -0.5660
 4019WAT      O17880   6.416   2.698   3.099 -0.1617  0.4266  0.2935
 4019WAT     H117881   6.446   2.624   3.153  0.0397  1.0158  0.9989
 4019WAT     H217882   6.351   2.742   3.153  0.5180  1.4097  0.3312
 4019WAT    EPW17883   6.411   2.694   3.114 -0.0453  0.6341  0.3915
 4020WAT      O17884   1.177  10.230   8.134  0.3768 -1.3527 -0.2478
 4020WAT     H117885   1.232  10.306   8.112 -0.1639 -0.4844  1.2337
 4020WAT     H217886   1.160  10.188   8.050  0.2503  0.4822 -1.2090
 4020WAT    EPW17887   1.182  10.235   8.120  0.2888 -0.9956 -0.1788
 4021WAT      O17888   3.619   7.725   0.635 -0.0239 -0.2463 -0.2183
 4021WAT     H117889   3.615   7.653   0.572  0.5718  2.0830 -3.1701
 4021WAT     H217890   3.704   7.767   0.618 -1.1926  2.3501 -0.1978
 4021WAT    EPW17891   3.629   7.721   0.624 -0.0994  0.4034 -0.6049
 4022WAT      O17892  -0.554   8.500   5.061  0.2615 -0.1624 -0.1374
 4022WAT     H117893  -0.624   8.491   4.997 -2.7341  0.6568  2.7162
 4022WAT     H217894  -0.524   8.590   5.052  0.0359 -0.1230 -0.5128
 4022WAT    EPW17895  -0.559   8.511   5.052 -0.1633 -0.0491  0.1895
 4023WAT      O17896   4.844   8.482   2.658  0.3627  0.1563 -0.0645
 4023WAT     H117897   4.911   8.483   2.590 -0.3833 -2.6235 -0.9814
 4023WAT     H217898   4.878   8.423   2.725 -1.1102 -1.3912 -0.5904
 4023WAT    EPW17899   4.857   8.474   2.658  0.0701 -0.4144 -0.2549
 4024WAT      O17900   3.232   0.763   1.798  0.3778 -0.8796  0.3672
 4024WAT     H117901   3.288   0.840   1.802  1.2678 -1.4453 -0.6941
 4024WAT     H217902   3.165   0.778   1.865  2.1695 -0.4925  2.1685
 4024WAT    EPW17903   3.230   0.775   1.807  0.7316 -0.9032  0.4649
 4025WAT      O17904   1.038   1.143   0.473 -0.1773  0.5634  0.0965
 4025WAT     H117905   0.981   1.211   0.439  0.2249  0.0697 -1.6608
 4025WAT     H217906   1.113   1.190   0.509  0.8058  1.0876 -2.4303
 4025WAT    EPW17907   1.041   1.158   0.474  0.0054  0.5674 -0.4685
 4026WAT      O17908   0.460   2.625   4.574  0.5315 -0.3690  0.1054
 4026WAT     H117909   0.433   2.601   4.486 -1.7674  1.2678  0.2816
 4026WAT     H217910   0.513   2.550   4.604 -0.7009 -2.0860 -1.7320
 4026WAT    EPW17911   0.463   2.612   4.567  0.0657 -0.3796 -0.1137
 4027WAT      O17912  -3.901   2.121   6.473 -0.0179 -1.1288  0.1365
 4027WAT     H117913  -3.978   2.177   6.489  1.4130  0.9420  0.2014
 4027WAT     H217914  -3.934   2.050   6.417 -1.7431  0.3676 -0.8672
 4027WAT    EPW17915  -3.916   2.119   6.467 -0.0567 -0.6583  0.0126
 4028WAT      O17916  -0.735   5.728   1.464 -0.1923  0.4274  0.1153
 4028WAT     H117917  -0.646   5.700   1.486 -0.0238  0.6538 -0.2726
 4028WAT     H217918  -0.746   5.811   1.510 -0.3074  0.2648  0.3884
 4028WAT    EPW17919  -0.724   5.735   1.473 -0.1853  0.4358  0.1001
 4029WAT      O17920  -5.174   9.362   4.096  0.3459 -0.1583  0.3477
 4029WAT     H117921  -5.107   9.293   4.097  2.7910  2.0175 -0.6264
 4029WAT     H217922  -5.160   9.407   4.013  1.4040  3.7069  2.3836
 4029WAT    EPW17923  -5.163   9.359   4.085  0.8080  0.6385  0.4876
 4030WAT      O17924   5.250   1.074   0.827 -0.2184  0.4474  1.1179
 4030WAT     H117925   5.284   1.062   0.738 -0.5535 -1.8359  1.2295
 4030WAT     H217926   5.327   1.099   0.878  1.1859 -3.1876  1.0796
 4030WAT    EPW17927   5.265   1.076   0.822 -0.0775 -0.3332  1.1275
 4031WAT      O17928  -0.222   1.275   7.245  0.0778 -0.6992  0.0724
 4031WAT     H117929  -0.127   1.277   7.243  0.1466  2.7087 -0.2983
 4031WAT     H217930  -0.245   1.266   7.337  1.0112  3.1001  0.8531
 4031WAT    EPW17931  -0.213   1.274   7.257  0.2100  0.2514  0.1266
 4032WAT      O17932  -3.344   7.096   6.710 -0.2946 -0.5113  0.4092
 4032WAT     H117933  -3.399   7.020   6.726  0.4369 -1.3803 -0.9716
 4032WAT     H217934  -3.322   7.130   6.797 -0.8177 -1.7326  1.0306
 4032WAT    EPW17935  -3.348   7.091   6.723 -0.2670 -0.7870  0.3090
 4033WAT      O17936   6.250   5.537   3.559  0.1438 -0.5840 -0.1267
 4033WAT     H117937   6.168   5.525   3.511 -2.1022 -2.3136  3.7363
 4033WAT     H217938   6.224   5.574   3.643  3.2092 -1.9100  1.5723
 4033WAT    EPW17939   6.236   5.540   3.564  0.2520 -0.9871  0.6068
 4034WAT      O17940   3.431   9.765   6.088  0.0058  0.3987 -0.2777
 4034WAT     H117941   3.450   9.857   6.106  0.0662  0.3458 -0.0789
 4034WAT     H217942   3.408   9.764   5.995 -2.4991  1.0284  0.2489
 4034WAT    EPW17943   3.430   9.777   6.078 -0.3166  0.4745 -0.1819
 4035WAT      O17944   9.410   3.206   0.102  0.4255  0.4931 -0.1512
 4035WAT     H117945   9.492   3.188   0.148  1.2651  0.5277 -1.5433
 4035WAT     H217946   9.346   3.150   0.144  2.0740 -2.8290 -1.6989
 4035WAT    EPW17947   9.413   3.197   0.113  0.7534  0.0595 -0.5390
 4036WAT      O17948   4.541   6.235   2.577 -0.5367  1.1511 -0.0822
 4036WAT     H117949   4.453   6.207   2.551  0.4236 -0.8990 -1.4420
 4036WAT     H217950   4.582   6.262   2.495  0.7007  0.2302  0.2084
 4036WAT    EPW17951   4.535   6.235   2.562 -0.2468  0.7596 -0.2233
 4037WAT      O17952  -2.358   7.327   0.012 -0.2498 -0.5531 -0.2539
 4037WAT     H117953  -2.312   7.260   0.062  0.5347  0.8595  1.0265
 4037WAT     H217954  -2.288   7.380  -0.026 -0.8179  0.2751 -0.1731
 4037WAT    EPW17955  -2.343   7.326   0.014 -0.2213 -0.2575 -0.0744
 4038WAT      O17956  -3.820   6.667   6.040 -0.1006  0.0113 -0.3523
 4038WAT     H117957  -3.895   6.669   5.982 -1.5414 -0.3987  1.3972
 4038WAT     H217958  -3.745   6.658   5.982 -1.1442  2.7118 -2.3169
 4038WAT    EPW17959  -3.820   6.666   6.025 -0.4283  0.3133 -0.3808
 4039WAT      O17960  -3.200  10.180   8.594 -0.2422  0.5450 -0.2248
 4039WAT     H117961  -3.274  10.157   8.650  0.2969  0.4296  0.4743
 4039WAT     H217962  -3.236  10.236   8.526 -0.8053  1.2854  0.6649
 4039WAT    EPW17963  -3.214  10.184   8.593 -0.2453  0.6275 -0.0153
 4040WAT      O17964   2.987   0.704   2.889  0.0039  0.1670 -0.0561
 4040WAT     H117965   2.914   0.644   2.873  0.5582 -0.4426 -0.3169
 4040WAT     H217966   3.001   0.699   2.984  2.3348 -2.8707 -0.4271
 4040WAT    EPW17967   2.979   0.696   2.899  0.3844 -0.3141 -0.1395
 4041WAT      O17968   5.916   0.872   6.377  0.2828  0.1256  0.0562
 4041WAT     H117969   5.895   0.930   6.303  0.3543  0.9382  0.6613
 4041WAT     H217970   5.930   0.932   6.451 -0.6852 -0.7107  0.9467
 4041WAT    EPW17971   5.915   0.888   6.377  0.1645  0.1224  0.2532
 4042WAT      O17972  -2.158  10.072   2.286  0.3856 -0.3481  0.5951
 4042WAT     H117973  -2.096  10.128   2.239  0.2859 -1.2781 -0.7102
 4042WAT     H217974  -2.120  10.062   2.373  0.1006  2.2192  1.1099
 4042WAT    EPW17975  -2.145  10.078   2.291  0.3347 -0.1321  0.4907
 4043WAT      O17976   2.138   2.606   7.999 -0.0696 -0.6832 -0.5982
 4043WAT     H117977   2.072   2.638   7.938 -2.0918 -0.8673  1.3615
 4043WAT     H217978   2.142   2.511   7.983  2.1650 -0.3434 -2.8604
 4043WAT    EPW17979   2.130   2.597   7.989 -0.0416 -0.6627 -0.6382
 4044WAT      O17980   2.797   6.648   5.894  0.0115  0.6705 -0.1444
 4044WAT     H117981   2.874   6.616   5.847 -0.4883 -1.3009  0.3064
 4044WAT     H217982   2.794   6.742   5.874  1.2586  0.3662 -1.9384
 4044WAT    EPW17983   2.807   6.656   5.885  0.1099  0.3703 -0.3216
 4045WAT      O17984   4.800   2.399   7.119 -0.1077  0.7531 -0.2329
 4045WAT     H117985   4.812   2.494   7.112 -0.1606  0.6448 -2.0647
 4045WAT     H217986   4.724   2.390   7.177  1.6881  1.6886  2.4759
 4045WAT    EPW17987   4.791   2.411   7.126  0.1223  0.8621 -0.1173
 4046WAT      O17988   2.621   0.988   8.545 -0.2009  0.1254 -0.3424
 4046WAT     H117989   2.695   0.928   8.551 -1.4714 -1.3690  1.7534
 4046WAT     H217990   2.659   1.075   8.558  1.1265 -0.6925  1.7861
 4046WAT    EPW17991   2.636   0.991   8.548 -0.1934 -0.1796  0.2146
 4047WAT      O17992  -0.541   9.845   5.905 -0.1329  0.0219  0.0930
 4047WAT     H117993  -0.571   9.781   5.969  1.1388  0.6519  1.3558
 4047WAT     H217994  -0.488   9.907   5.955  2.0088 -0.1847 -1.7431
 4047WAT    EPW17995  -0.538   9.844   5.920  0.3173  0.0777  0.0174
 4048WAT      O17996   5.002   5.844   2.621 -0.2685 -0.6640  0.4127
 4048WAT     H117997   5.057   5.921   2.608  0.0313 -0.8584  0.5063
 4048WAT     H217998   4.931   5.874   2.678 -1.8917  0.3219 -2.0021
 4048WAT    EPW17999   5.000   5.858   2.627 -0.4432 -0.5596  0.1066
 4049WAT      O18000   0.377   4.087   4.554  0.0474 -0.1794 -0.5714
 4049WAT     H118001   0.348   4.018   4.494  0.1270 -0.2218 -0.5606
 4049WAT     H218002   0.323   4.075   4.632 -1.0938  0.7816 -1.1800
 4049WAT    EPW18003   0.366   4.077   4.556 -0.0926 -0.0579 -0.6502
 4050WAT      O18004  -6.389   8.287   5.706 -0.1343  0.2516 -0.2940
 4050WAT     H118005  -6.354   8.333   5.630 -3.3923 -0.5208 -2.4415
 4050WAT     H218006  -6.446   8.351   5.749  0.2444  0.1149  0.4280
 4050WAT    EPW18007  -6.392   8.301   5.702 -0.5140  0.1311 -0.4818
 4051WAT      O18008  -3.662   5.400   6.689  0.2223  0.4780 -0.1367
 4051WAT     H118009  -3.647   5.495   6.688  3.2017  0.1303 -2.8651
 4051WAT     H218010  -3.724   5.385   6.618  1.4355  0.2106 -1.1537
 4051WAT    EPW18011  -3.668   5.411   6.680  0.7752  0.3967 -0.6309
 4052WAT      O18012  -3.564   1.558   8.341 -0.1492  0.1606 -0.3673
 4052WAT     H118013  -3.618   1.636   8.356  0.0561  0.2881 -0.2953
 4052WAT     H218014  -3.576   1.506   8.421 -0.6625 -0.1042 -0.6134
 4052WAT    EPW18015  -3.573   1.562   8.354 -0.1897  0.1425 -0.3901
 4053WAT      O18016   3.081   6.618   4.834  0.4299  0.5167 -0.3287
 4053WAT     H118017   3.091   6.707   4.799 -2.3024  1.5453  1.1817
 4053WAT     H218018   3.034   6.570   4.765  1.2392  0.4385 -0.8387
 4053WAT    EPW18019   3.076   6.623   4.820  0.1763  0.6421 -0.1967
 4054WAT      O18020   3.896   2.928   2.552 -0.3723 -0.2646 -0.1014
 4054WAT     H118021   3.902   2.919   2.647 -0.6504  0.2570 -0.0330
 4054WAT     H218022   3.906   2.838   2.519 -1.4105 -0.6007  0.4781
 4054WAT    EPW18023   3.898   2.915   2.560 -0.5459 -0.2401 -0.0160
 4055WAT      O18024   3.923   5.633   4.179  0.3882  0.1439 -0.5099
 4055WAT     H118025   3.835   5.598   4.198  0.8865  0.0099  1.8951
 4055WAT     H218026   3.977   5.555   4.167  0.7269  0.1278  0.9590
 4055WAT    EPW18027   3.918   5.618   4.180  0.4987  0.1242  0.0012
 4056WAT      O18028   0.659   6.537   4.448 -0.0073  0.1818 -0.2406
 4056WAT     H118029   0.587   6.544   4.385 -0.5593 -0.4245  0.3073
 4056WAT     H218030   0.705   6.621   4.442 -0.0067  0.1199 -1.4927
 4056WAT    EPW18031   0.656   6.549   4.439 -0.0800  0.0937 -0.3333
 4057WAT      O18032  -0.563   4.912   4.936  0.5475  0.5853  0.3971
 4057WAT     H118033  -0.543   4.927   4.843 -0.2172 -2.7385 -0.4245
 4057WAT     H218034  -0.656   4.933   4.944  0.3561 -0.1226  0.1230
 4057WAT    EPW18035  -0.572   4.917   4.924  0.4214  0.0536  0.2525
 4058WAT      O18036  -1.782   6.443   7.946 -0.2202  0.1655  0.3906
 4058WAT     H118037  -1.694   6.473   7.971  0.3060 -1.0989  0.1523
 4058WAT     H218038  -1.776   6.431   7.851 -0.8068  0.5541  0.3042
 4058WAT    EPW18039  -1.769   6.445   7.936 -0.2281  0.0501  0.3476
 4059WAT      O18040   7.214   2.648   4.257 -0.2149 -0.0244  0.3238
 4059WAT     H118041   7.309   2.641   4.250 -0.3972 -1.5842 -1.0603
 4059WAT     H218042   7.196   2.741   4.243  1.1545  0.4917  1.7060
 4059WAT    EPW18043   7.224   2.660   4.254 -0.0582 -0.1620  0.3235
 4060WAT      O18044  -2.162   4.470   6.985 -0.2575 -0.3444 -0.1870
 4060WAT     H118045  -2.155   4.438   7.075  0.0879 -0.4866 -0.2618
 4060WAT     H218046  -2.255   4.468   6.966 -0.2409 -1.5418 -0.2626
 4060WAT    EPW18047  -2.173   4.465   6.994 -0.2097 -0.5212 -0.2067
 4061WAT      O18048   0.908   0.217   8.614  0.3444 -0.2796 -0.1085
 4061WAT     H118049   0.840   0.273   8.578 -0.6953 -0.9532  0.7343
 4061WAT     H218050   0.987   0.272   8.615 -0.8871  1.5800  1.7729
 4061WAT    EPW18051   0.910   0.232   8.609  0.0448 -0.1232  0.2503
 4062WAT      O18052   7.686   1.024   3.049 -0.0775  0.2515  0.5824
 4062WAT     H118053   7.700   0.953   3.112 -0.0045  1.2276  1.6963
 4062WAT     H218054   7.757   1.086   3.067  0.0560  0.4679 -0.5994
 4062WAT    EPW18055   7.697   1.023   3.059 -0.0503  0.4088  0.5734
 4063WAT      O18056  -4.456   9.984   3.399  0.1071  0.4613  0.0795
 4063WAT     H118057  -4.380  10.031   3.434  0.5685 -0.1968 -0.0119
 4063WAT     H218058  -4.418   9.913   3.347 -0.4734 -1.9803  2.7474
 4063WAT    EPW18059  -4.441   9.981   3.397  0.0918  0.0525  0.4194
 4064WAT      O18060   2.142   9.970   4.336 -0.5270  0.2301  0.0157
 4064WAT     H118061   2.179   9.906   4.274 -0.3129 -0.8376  1.2076
 4064WAT     H218062   2.194   9.958   4.415  0.1041  2.5234  0.0087
 4064WAT    EPW18063   2.154   9.960   4.338 -0.4154  0.3915  0.1721
 4065WAT      O18064  -3.444   7.608   8.822 -0.1471 -0.1449 -0.3022
 4065WAT     H118065  -3.494   7.682   8.787 -1.3736 -0.3818  0.8658
 4065WAT     H218066  -3.499   7.532   8.805 -0.1401 -0.4314  0.8844
 4065WAT    EPW18067  -3.458   7.608   8.815 -0.3080 -0.2141  0.0086
 4066WAT      O18068   4.765   0.221   4.982 -0.2708 -0.5190 -0.1548
 4066WAT     H118069   4.735   0.132   4.967 -2.2212 -0.0494  0.5989
 4066WAT     H218070   4.696   0.276   4.944 -0.0759  0.6367  1.0666
 4066WAT    EPW18071   4.752   0.217   4.975 -0.5023 -0.3046  0.1056
 4067WAT      O18072  -0.789   5.842   2.377 -0.1597 -0.1377  0.1880
 4067WAT     H118073  -0.790   5.747   2.382 -1.2397 -0.1119  0.8938
 4067WAT     H218074  -0.858   5.870   2.438 -1.4323  1.0083 -1.6572
 4067WAT    EPW18075  -0.798   5.833   2.386 -0.4700  0.0169  0.0378
 4068WAT      O18076  -4.806   5.712   5.851 -0.2597 -0.5021 -0.9743
 4068WAT     H118077  -4.737   5.722   5.916 -1.9276 -2.6551  1.3040
 4068WAT     H218078  -4.881   5.680   5.900 -1.1326 -4.1010 -4.1895
 4068WAT    EPW18079  -4.807   5.709   5.866 -0.5946 -1.2608 -1.0979
 4069WAT      O18080   1.177   7.634   2.724 -0.1386  0.2727  0.0543
 4069WAT     H118081   1.181   7.649   2.818  0.3187  0.7924 -0.0460
 4069WAT     H218082   1.100   7.577   2.713  1.3718 -2.1284  1.0259
 4069WAT    EPW18083   1.167   7.629   2.735  0.1209  0.0248  0.1693
 4070WAT      O18084  -2.550   7.221   2.899  0.1763  0.0480  0.2664
 4070WAT     H118085  -2.634   7.175   2.899  0.3240 -0.2580 -0.8656
 4070WAT     H218086  -2.533   7.239   2.807  0.0049  2.6091  0.6510
 4070WAT    EPW18087  -2.559   7.217   2.887  0.1731  0.3452  0.1678
 4071WAT      O18088   7.619   7.491   0.128 -0.6332 -0.5359  0.3773
 4071WAT     H118089   7.641   7.575   0.088 -0.0125 -0.1872  1.3953
 4071WAT     H218090   7.704   7.453   0.151 -0.8922 -1.6004 -0.3560
 4071WAT    EPW18091   7.633   7.497   0.126 -0.5856 -0.6304  0.4148
 4072WAT      O18092   0.295   6.918   7.349  0.1220  0.3079 -0.0657
 4072WAT     H118093   0.341   6.884   7.273 -0.5130 -0.9893  0.1110
 4072WAT     H218094   0.346   6.889   7.424  0.1667  0.6733  0.0475
 4072WAT    EPW18095   0.308   6.910   7.349  0.0441  0.1850 -0.0277
 4073WAT      O18096  -0.753   2.050   2.121 -0.1691  0.7598  0.1930
 4073WAT     H118097  -0.814   2.086   2.056  1.3228  0.9068 -1.1753
 4073WAT     H218098  -0.666   2.066   2.084  0.6513 -1.8144  0.8161
 4073WAT    EPW18099  -0.750   2.057   2.107  0.1360  0.4396  0.0948
 4074WAT      O18100   1.262   6.973   2.457 -0.4179  0.6215 -0.3925
 4074WAT     H118101   1.197   6.976   2.386 -0.6802  1.0400 -0.1338
 4074WAT     H218102   1.216   6.931   2.530  0.3447 -1.3328 -0.9702
 4074WAT    EPW18103   1.247   6.968   2.457 -0.3519  0.4189 -0.4345
 4075WAT      O18104  -0.126   5.622   8.450 -0.1616  0.2236 -0.5741
 4075WAT     H118105  -0.086   5.563   8.513  0.5018  1.5369  0.2918
 4075WAT     H218106  -0.091   5.709   8.473 -0.4609  0.8457 -2.2888
 4075WAT    EPW18107  -0.116   5.626   8.461 -0.1136  0.4787 -0.6862
 4076WAT      O18108  -1.146   1.826   0.900  0.8372  0.0182 -0.4699
 4076WAT     H118109  -1.157   1.921   0.890 -0.7256 -0.1141 -0.2987
 4076WAT     H218110  -1.218   1.789   0.848  3.1315 -1.1987 -2.9738
 4076WAT    EPW18111  -1.157   1.834   0.892  0.9336 -0.1598 -0.7776
 4077WAT      O18112  -5.417   3.093   8.701  0.8637  0.2996 -0.0736
 4077WAT     H118113  -5.417   3.087   8.605  1.5642 -1.5416  0.0093
 4077WAT     H218114  -5.338   3.046   8.728 -0.1050 -0.5303  1.4698
 4077WAT    EPW18115  -5.406   3.086   8.692  0.8283 -0.0527  0.1411
 4078WAT      O18116   3.569   5.267   3.566  0.2280 -0.3475  0.0488
 4078WAT     H118117   3.531   5.290   3.651 -0.6273  0.2427 -0.4802
 4078WAT     H218118   3.498   5.222   3.520  0.5150 -0.1987 -0.5474
 4078WAT    EPW18119   3.554   5.264   3.571  0.1529 -0.2501 -0.0995
 4079WAT      O18120   6.391   3.183   3.058  0.1684  0.8994  0.3418
 4079WAT     H118121   6.450   3.144   3.123 -1.7910 -1.1128  1.0556
 4079WAT     H218122   6.348   3.255   3.105 -0.6301 -0.0202  1.0803
 4079WAT    EPW18123   6.393   3.187   3.073 -0.1953  0.5126  0.5333
 4080WAT      O18124   9.750   0.907   0.747  0.0289  0.8666  0.5893
 4080WAT     H118125   9.797   0.878   0.825 -1.9801 -1.8924  0.9291
 4080WAT     H218126   9.671   0.949   0.782 -1.1010 -0.7810  0.1275
 4080WAT    EPW18127   9.746   0.909   0.762 -0.3853  0.2854  0.5732
 4081WAT      O18128   0.318   7.423   7.529 -0.0349 -0.0698 -0.6714
 4081WAT     H118129   0.254   7.494   7.519 -1.5816 -1.2202  0.6121
 4081WAT     H218130   0.265   7.343   7.531  1.5900 -1.2016 -1.1710
 4081WAT    EPW18131   0.303   7.422   7.528 -0.0245 -0.3710 -0.5682
 4082WAT      O18132   1.466   2.286   7.067  0.2271 -0.1657  0.6721
 4082WAT     H118133   1.518   2.222   7.019 -0.9344  0.0243 -0.9238
 4082WAT     H218134   1.391   2.304   7.010 -0.4056  1.2688  1.8790
 4082WAT    EPW18135   1.463   2.280   7.053 -0.0095  0.0484  0.6208
 4083WAT      O18136   1.442   8.089   0.622 -0.7631 -0.7120 -0.3090
 4083WAT     H118137   1.467   8.110   0.532 -0.6139 -0.5936 -0.2405
 4083WAT     H218138   1.459   7.995   0.631 -2.4555 -1.1091 -0.9583
 4083WAT    EPW18139   1.448   8.079   0.611 -0.9667 -0.7486 -0.3856
 4084WAT      O18140  -1.767   3.960   3.789 -0.2472  0.0839 -0.0690
 4084WAT     H118141  -1.809   3.969   3.874 -1.3987 -0.1924 -0.5832
 4084WAT     H218142  -1.677   3.932   3.809 -0.6396 -0.4651  1.0350
 4084WAT    EPW18143  -1.760   3.957   3.803 -0.4508 -0.0248  0.0089
 4085WAT      O18144  -0.066   2.817   4.346  0.9938 -0.4201  0.1027
 4085WAT     H118145  -0.146   2.818   4.398  0.4655 -1.7751 -0.6275
 4085WAT     H218146   0.003   2.840   4.408  0.1751 -0.3047  0.9939
 4085WAT    EPW18147  -0.068   2.820   4.361  0.8162 -0.5835  0.1242
 4086WAT      O18148   0.988   1.790   7.076  0.1915  0.1103 -0.2372
 4086WAT     H118149   1.024   1.788   6.987  1.3587  1.3051  0.1630
 4086WAT     H218150   0.896   1.816   7.064  0.1062 -0.5667 -1.1402
 4086WAT    EPW18151   0.981   1.793   7.063  0.3342  0.1786 -0.3037
 4087WAT      O18152   1.309   9.393   2.371 -0.5137 -0.7982 -0.3274
 4087WAT     H118153   1.345   9.482   2.368  0.6740 -1.1870  1.0774
 4087WAT     H218154   1.385   9.336   2.354 -1.1021 -1.5819 -0.4213
 4087WAT    EPW18155   1.324   9.397   2.368 -0.4347 -0.9527 -0.1544
 4088WAT      O18156  -2.944   9.469   6.157  0.0266 -0.9986 -0.3194
 4088WAT     H118157  -2.885   9.394   6.142  2.0535  0.1671  1.3127
 4088WAT     H218158  -2.988   9.448   6.239 -1.9680 -1.8677 -1.5407
 4088WAT    EPW18159  -2.942   9.456   6.166  0.0309 -0.9594 -0.2651
 4089WAT      O18160  -0.043   5.042   7.620  0.0747 -0.1506 -0.6530
 4089WAT     H118161  -0.041   4.955   7.580 -2.8412 -0.0781 -1.1536
 4089WAT     H218162  -0.006   5.100   7.553 -1.2855 -0.5574 -1.8067
 4089WAT    EPW18163  -0.038   5.038   7.606 -0.4893 -0.1948 -0.8712
 4090WAT      O18164  -1.845   3.995   0.741  0.0972  0.0299  0.1692
 4090WAT     H118165  -1.859   3.967   0.832 -1.9291 -2.9731 -0.9390
 4090WAT     H218166  -1.796   3.923   0.702  1.7141  1.6815 -0.9810
 4090WAT    EPW18167  -1.840   3.982   0.748  0.0432 -0.1483 -0.1287
 4091WAT      O18168   2.772   0.380   4.305  0.2197  0.0784  0.0925
 4091WAT     H118169   2.857   0.339   4.290  1.1046  1.3432  1.4143
 4091WAT     H218170   2.736   0.333   4.380 -0.2048 -0.3569 -0.3736
 4091WAT    EPW18171   2.779   0.369   4.313  0.2804  0.1878  0.2055
 4092WAT      O18172  -4.090   7.811   3.355 -0.2738  0.2052 -0.5057
 4092WAT     H118173  -4.169   7.799   3.406 -0.7480  3.1622 -0.3881
 4092WAT     H218174  -4.037   7.733   3.374 -2.3096 -0.9213  0.8997
 4092WAT    EPW18175  -4.093   7.799   3.364 -0.6049  0.4468 -0.3047
 4093WAT      O18176  -0.751   3.208   8.021 -0.1864 -0.0956  0.2749
 4093WAT     H118177  -0.815   3.237   7.956  0.5270 -1.8230 -1.2928
 4093WAT     H218178  -0.667   3.238   7.987  0.1277 -0.3728  0.7886
 4093WAT    EPW18179  -0.748   3.216   8.008 -0.0509 -0.3600  0.1359
 4094WAT      O18180   4.720   5.869   3.647  0.0391 -0.4336 -0.1622
 4094WAT     H118181   4.786   5.801   3.643  0.2033 -0.2830 -0.0402
 4094WAT     H218182   4.666   5.855   3.569  0.8089  0.0365 -0.8030
 4094WAT    EPW18183   4.721   5.858   3.636  0.1624 -0.3519 -0.2306
 4095WAT      O18184   3.719   9.917   5.872 -0.5639 -0.9769  0.1236
 4095WAT     H118185   3.788   9.982   5.858 -0.9458 -0.9010 -1.7395
 4095WAT     H218186   3.733   9.885   5.961  0.9764  0.0752  0.2946
 4095WAT    EPW18187   3.730   9.921   5.882 -0.4112 -0.8283 -0.0997
 4096WAT      O18188  -4.149   1.867   7.389 -0.4955 -0.1008 -0.0434
 4096WAT     H118189  -4.146   1.962   7.391 -0.3808 -0.1123  0.4911
 4096WAT     H218190  -4.101   1.840   7.467 -0.2963 -0.6026 -0.3331
 4096WAT    EPW18191  -4.142   1.876   7.399 -0.4539 -0.1685 -0.0110
 4097WAT      O18192   0.836   0.913   8.462  0.0273 -0.4949 -0.2111
 4097WAT     H118193   0.801   0.858   8.532  0.2943 -1.4940 -0.8359
 4097WAT     H218194   0.911   0.958   8.502 -1.1191  0.6336  0.7487
 4097WAT    EPW18195   0.842   0.912   8.476 -0.0888 -0.4779 -0.1669
 4098WAT      O18196  -0.731  10.108   6.198 -0.0104  0.2237 -0.1996
 4098WAT     H118197  -0.797  10.039   6.190  0.4813 -0.3074  0.2176
 4098WAT     H218198  -0.649  10.061   6.212  0.9359  0.7415 -3.3257
 4098WAT    EPW18199  -0.729  10.093   6.199  0.1793  0.2217 -0.5572
 4099WAT      O18200  -0.776   9.019   6.321  0.2825  0.4692 -0.7232
 4099WAT     H118201  -0.738   9.077   6.255  0.0774  0.6118 -0.7167
 4099WAT     H218202  -0.751   8.931   6.293  2.6420  0.6560  0.5195
 4099WAT    EPW18203  -0.768   9.015   6.309  0.5666  0.5126 -0.5584
 4100WAT      O18204  -4.265   9.390   5.441 -0.1672  0.2836  0.4245
 4100WAT     H118205  -4.218   9.311   5.468  1.5923  1.1526  0.0650
 4100WAT     H218206  -4.300   9.369   5.355 -0.0132 -0.2283  0.4852
 4100WAT    EPW18207  -4.263   9.377   5.433  0.0854  0.3304  0.3853
 4101WAT      O18208   6.389   0.475   6.509  0.0426 -0.6959 -0.3341
 4101WAT     H118209   6.317   0.412   6.506  0.4680 -1.2051 -0.0022
 4101WAT     H218210   6.387   0.510   6.598 -1.0233  0.7648 -0.8869
 4101WAT    EPW18211   6.379   0.471   6.520 -0.0417 -0.5704 -0.3631
 4102WAT      O18212   8.686   1.829   1.511 -0.3527 -1.2021  0.4768
 4102WAT     H118213   8.763   1.772   1.505 -2.0566 -3.6893  0.6910
 4102WAT     H218214   8.630   1.787   1.577 -1.4591  1.1209  1.1330
 4102WAT    EPW18215   8.689   1.816   1.519 -0.7234 -1.2237  0.5916
 4103WAT      O18216   0.280   8.354   6.509 -0.1768  0.0190 -0.4572
 4103WAT     H118217   0.205   8.403   6.474 -0.2582 -0.0996 -0.4468
 4103WAT     H218218   0.345   8.422   6.529  0.6956 -0.0669 -2.7678
 4103WAT    EPW18219   0.278   8.370   6.507 -0.0725 -0.0076 -0.7603
 4104WAT      O18220   1.599   8.948   2.479  0.1276 -0.6614 -0.0829
 4104WAT     H118221   1.690   8.944   2.449 -0.7469 -2.0469 -2.9064
 4104WAT     H218222   1.547   8.930   2.400 -2.6642  1.0871  1.1971
 4104WAT    EPW18223   1.604   8.945   2.464 -0.3560 -0.6132 -0.2866
 4105WAT      O18224   1.106   2.423   4.617 -0.0830  0.1818  1.2162
 4105WAT     H118225   1.111   2.376   4.534 -1.5993  0.4173  0.9560
 4105WAT     H218226   1.171   2.493   4.610 -0.7541  0.6928 -0.1123
 4105WAT    EPW18227   1.115   2.426   4.605 -0.3715  0.2803  1.0066
 4106WAT      O18228   4.735   2.518   4.176 -0.4960 -0.6151 -0.3221
 4106WAT     H118229   4.645   2.494   4.199  0.0453 -1.5206  0.9962
 4106WAT     H218230   4.764   2.449   4.116 -1.4051  0.9378 -2.7003
 4106WAT    EPW18231   4.727   2.506   4.171 -0.5448 -0.5296 -0.4618
 4107WAT      O18232   3.573   3.822   1.313  0.2595  0.1903 -0.5312
 4107WAT     H118233   3.581   3.839   1.219 -0.9764  0.4835 -0.6019
 4107WAT     H218234   3.578   3.909   1.353 -0.6238  0.2173 -0.4541
 4107WAT    EPW18235   3.575   3.836   1.306 -0.0198  0.2326 -0.5304
 4108WAT      O18236   1.887   9.105   2.910  0.4136  0.1385  0.1882
 4108WAT     H118237   1.872   9.036   2.975 -1.4998 -0.2029 -0.5391
 4108WAT     H218238   1.897   9.185   2.962 -0.7365 -0.1800  0.9327
 4108WAT    EPW18239   1.886   9.106   2.925  0.0095  0.0510  0.1905
 4109WAT      O18240  -3.594   8.580   8.070 -0.3970  0.6174  0.1143
 4109WAT     H118241  -3.635   8.562   8.154  0.3975  1.3246  0.6651
 4109WAT     H218242  -3.550   8.498   8.047 -1.4568  0.0892 -0.1299
 4109WAT    EPW18243  -3.594   8.566   8.078 -0.4320  0.6413  0.1550
 4110WAT      O18244  -2.566   7.443   8.806 -0.0171  0.0258  0.3615
 4110WAT     H118245  -2.604   7.411   8.888 -1.5982  0.9925  0.0312
 4110WAT     H218246  -2.634   7.428   8.740  1.4374 -1.2649 -0.9391
 4110WAT    EPW18247  -2.580   7.437   8.808 -0.0337 -0.0169  0.1459
 4111WAT      O18248   3.791   8.244   3.017 -0.0637  0.5014  0.6195
 4111WAT     H118249   3.835   8.243   2.932 -1.1845 -2.0686 -0.0399
 4111WAT     H218250   3.707   8.201   3.000 -0.2143 -0.2829  3.0554
 4111WAT    EPW18251   3.786   8.238   3.003 -0.2314  0.0591  0.8539
 4112WAT      O18252   2.896   6.208   6.323 -0.6770  0.0430  0.2176
 4112WAT     H118253   2.940   6.290   6.301 -1.1380  0.0547 -0.6972
 4112WAT     H218254   2.937   6.180   6.405 -0.5942  1.2534  0.6168
 4112WAT    EPW18255   2.907   6.215   6.331 -0.7269  0.2041  0.1495
 4113WAT      O18256   3.388   7.178   7.996 -1.0231  0.2545  0.0874
 4113WAT     H118257   3.469   7.214   8.031  1.2056 -3.6274 -0.5195
 4113WAT     H218258   3.353   7.248   7.941  2.2005  1.9430 -0.0700
 4113WAT    EPW18259   3.394   7.192   7.993 -0.3040 -0.0348 -0.0134
 4114WAT      O18260   4.585   3.238   8.066  0.1057 -0.2130 -0.5477
 4114WAT     H118261   4.601   3.300   8.137 -2.4793 -0.4226  0.3468
 4114WAT     H218262   4.492   3.249   8.046  0.7252 -0.0904 -4.0390
 4114WAT    EPW18263   4.575   3.247   8.073 -0.1535 -0.2246 -0.8907
 4115WAT      O18264  -1.320   7.900   3.538  0.6303  0.1417 -0.0458
 4115WAT     H118265  -1.312   7.818   3.490 -0.2465  0.7668 -1.3413
 4115WAT     H218266  -1.315   7.876   3.630  1.4445 -1.2206 -0.4195
 4115WAT    EPW18267  -1.318   7.886   3.544  0.6220  0.0446 -0.2660
 4116WAT      O18268   5.119   0.305   5.063  0.0756 -0.0055 -0.4434
 4116WAT     H118269   5.050   0.365   5.035  0.6168  0.4001 -0.9355
 4116WAT     H218270   5.117   0.309   5.159  1.7036  2.7311 -0.4100
 4116WAT    EPW18271   5.110   0.314   5.072  0.3617  0.4089 -0.5038
 4117WAT      O18272   2.225   6.715   8.736  0.7653 -0.0717  0.1661
 4117WAT     H118273   2.227   6.632   8.785  0.1341 -0.5458 -0.5875
 4117WAT     H218274   2.265   6.694   8.652  2.1796  0.8337  0.5875
 4117WAT    EPW18275   2.231   6.701   8.732  0.8687 -0.0150  0.1221
 4118WAT      O18276   4.057   4.564   0.586  0.1248 -0.4630  0.1905
 4118WAT     H118277   4.065   4.574   0.681  1.2631 -0.3977  0.1009
 4118WAT     H218278   4.144   4.587   0.552 -0.0373 -1.2454 -0.8022
 4118WAT    EPW18279   4.070   4.568   0.594  0.2537 -0.5577  0.0477
 4119WAT      O18280   4.348   7.396   1.307  0.2511 -0.4380 -0.1489
 4119WAT     H118281   4.315   7.323   1.255  0.4421 -1.8607  1.6332
 4119WAT     H218282   4.297   7.392   1.388 -0.7140  2.3001 -0.5267
 4119WAT    EPW18283   4.337   7.386   1.311  0.1490 -0.2644  0.0363
 4120WAT      O18284   1.815   3.775   7.060  0.5492  0.4352  0.3911
 4120WAT     H118285   1.824   3.868   7.083 -0.5375  0.2380  1.7079
 4120WAT     H218286   1.733   3.771   7.011  0.1088  0.0243  1.1619
 4120WAT    EPW18287   1.805   3.787   7.056  0.3477  0.3549  0.6666
 4121WAT      O18288   3.902   8.034   4.940 -0.1250  0.1186 -0.1488
 4121WAT     H118289   3.872   8.113   4.984 -0.2831  0.3680 -0.6925
 4121WAT     H218290   3.912   8.060   4.849  0.4452 -0.3213 -0.2147
 4121WAT    EPW18291   3.899   8.048   4.934 -0.0708  0.0935 -0.2294
 4122WAT      O18292   2.213   9.614   2.557 -0.8204  0.9760  0.0572
 4122WAT     H118293   2.267   9.691   2.574  0.9115 -0.2618  0.4442
 4122WAT     H218294   2.272   9.552   2.513 -1.6015 -0.8206  1.4114
 4122WAT    EPW18295   2.228   9.616   2.554 -0.6951  0.5760  0.2868
 4123WAT      O18296   2.441   1.954   7.705 -0.0885  0.0949 -0.3546
 4123WAT     H118297   2.513   1.904   7.667  1.2771  0.4807  1.5944
 4123WAT     H218298   2.402   2.000   7.630  2.1730  0.4705 -1.3734
 4123WAT    EPW18299   2.445   1.954   7.690  0.3899  0.1953 -0.2320
 4124WAT      O18300  -2.796   1.679   5.778 -0.7197 -0.0559  0.3969
 4124WAT     H118301  -2.856   1.605   5.789  0.6200 -1.0862  1.0856
 4124WAT     H218302  -2.785   1.714   5.866  0.9370 -0.9305  0.5719
 4124WAT    EPW18303  -2.803   1.674   5.791 -0.3245 -0.3072  0.5109
 4125WAT      O18304   5.246   0.654   1.209  1.0083 -0.3726  0.1357
 4125WAT     H118305   5.289   0.572   1.185 -0.4693 -1.2338  0.3165
 4125WAT     H218306   5.168   0.658   1.154  1.8419  1.7150 -0.9973
 4125WAT    EPW18307   5.241   0.644   1.199  0.9234 -0.2108  0.0101
 4126WAT      O18308   1.995   8.033   0.259  0.8778  0.7971 -0.0129
 4126WAT     H118309   1.972   8.031   0.352  1.3655  2.7279  0.1938
 4126WAT     H218310   1.942   7.963   0.220  0.2235  0.3342  1.6052
 4126WAT    EPW18311   1.985   8.023   0.266  0.8558  0.9904  0.2278
 4127WAT      O18312   7.072   2.405   3.112  0.3403  0.0440  0.3850
 4127WAT     H118313   6.977   2.392   3.105  0.0765  0.3797  2.4928
 4127WAT     H218314   7.108   2.317   3.115  0.3554 -0.1282 -2.2872
 4127WAT    EPW18315   7.064   2.392   3.112  0.3076  0.0656  0.3105
 4128WAT      O18316  -6.350   7.940   7.539 -1.3335 -0.0693 -0.5129
 4128WAT     H118317  -6.352   7.969   7.630  1.1275  1.5272 -0.8784
 4128WAT     H218318  -6.299   7.859   7.541 -1.3200 -0.0597 -0.4661
 4128WAT    EPW18319  -6.343   7.933   7.552 -1.0076  0.1426 -0.5548
 4129WAT      O18320   2.119   7.270   7.720 -0.2301 -0.3414 -0.3361
 4129WAT     H118321   2.176   7.336   7.680 -0.2443  1.0423  1.7476
 4129WAT     H218322   2.176   7.194   7.735 -0.0234 -0.5597 -2.0662
 4129WAT    EPW18323   2.134   7.269   7.717 -0.2047 -0.1876 -0.2897
 4130WAT      O18324   1.242   5.530   7.127 -0.5087 -0.1509 -0.4173
 4130WAT     H118325   1.283   5.605   7.169 -1.6942 -0.0588  0.6406
 4130WAT     H218326   1.183   5.569   7.062 -2.1600 -0.0402  1.0654
 4130WAT    EPW18327   1.239   5.545   7.124 -0.8828 -0.1242 -0.0820
 4131WAT      O18328  -7.242  10.252   8.884  0.2510  0.2622  0.2180
 4131WAT     H118329  -7.168  10.298   8.923 -0.3547  0.6884  0.8944
 4131WAT     H218330  -7.213  10.161   8.877  1.0227  0.5176 -0.0214
 4131WAT    EPW18331  -7.228  10.246   8.888  0.2728  0.3524  0.2756
 4132WAT      O18332   5.746   3.972   6.066  0.1193  0.1169 -0.0317
 4132WAT     H118333   5.812   4.006   6.006  0.7033 -1.0710 -0.0976
 4132WAT     H218334   5.789   3.897   6.108 -1.4983 -1.2891 -0.7920
 4132WAT    EPW18335   5.761   3.967   6.063 -0.0172 -0.2252 -0.1407
 4133WAT      O18336   5.905   1.216   4.907 -0.3752  0.0020  0.3313
 4133WAT     H118337   5.969   1.149   4.929 -2.2568 -2.2091 -0.4836
 4133WAT     H218338   5.852   1.226   4.986 -1.3963 -1.1092 -0.1714
 4133WAT    EPW18339   5.906   1.209   4.920 -0.7579 -0.4361  0.1576
 4134WAT      O18340  -4.225   9.305   5.784 -0.1461 -0.7851 -0.6563
 4134WAT     H118341  -4.148   9.314   5.840 -0.0500  5.1846 -1.1560
 4134WAT     H218342  -4.279   9.380   5.805 -2.6232 -1.0382 -4.9789
 4134WAT    EPW18343  -4.222   9.316   5.794 -0.4601 -0.0315 -1.2925
 4135WAT      O18344   2.725   8.959   5.108  0.1293  0.3943 -0.2317
 4135WAT     H118345   2.635   8.934   5.128 -0.1947  0.7712 -1.1466
 4135WAT     H218346   2.724   9.054   5.109  0.5783  0.3965  0.0111
 4135WAT    EPW18347   2.713   8.968   5.110  0.1458  0.4439 -0.3204
 4136WAT      O18348  -5.689   5.321   6.316 -0.3409 -0.4263  0.3909
 4136WAT     H118349  -5.612   5.264   6.323 -0.6315 -1.1644 -1.7690
 4136WAT     H218350  -5.706   5.348   6.406  3.1638  0.7723  0.8572
 4136WAT    EPW18351  -5.681   5.317   6.329  0.0830 -0.3655  0.1676
 4137WAT      O18352   4.085   5.364   4.115  0.8965 -0.3907  0.1799
 4137WAT     H118353   4.091   5.426   4.042 -3.0778  0.4211  0.2955
 4137WAT     H218354   4.127   5.285   4.083  7.7087  2.3634  0.5429
 4137WAT    EPW18355   4.091   5.362   4.101  1.2708  0.0799  0.2432
 4138WAT      O18356   5.446   4.551   4.121  0.2994 -0.4688 -0.2488
 4138WAT     H118357   5.444   4.561   4.026 -0.9954  0.8759 -0.1219
 4138WAT     H218358   5.480   4.634   4.153  0.4296 -0.7925  0.4772
 4138WAT    EPW18359   5.450   4.563   4.113  0.1459 -0.3340 -0.1364
 4139WAT      O18360   2.962   6.547   1.331  0.1718 -0.7927 -1.0442
 4139WAT     H118361   3.047   6.505   1.343 -0.5461 -3.7003 -4.3479
 4139WAT     H218362   2.944   6.538   1.237 -5.0033 -3.0958 -0.1870
 4139WAT    EPW18363   2.971   6.541   1.320 -0.6055 -1.4801 -1.3668
 4140WAT      O18364  -1.982   9.466   5.374  0.4935  0.1394  0.3024
 4140WAT     H118365  -2.075   9.445   5.378  0.6778 -0.7402  0.0061
 4140WAT     H218366  -1.980   9.556   5.342 -0.2213 -0.1776 -0.6679
 4140WAT    EPW18367  -1.994   9.475   5.371  0.4236 -0.0181  0.1354
 4141WAT      O18368   1.153   9.698   1.810  0.3848 -0.1996  0.0578
 4141WAT     H118369   1.104   9.761   1.758 -2.0050 -2.3305 -0.4754
 4141WAT     H218370   1.237   9.690   1.765  0.3077  1.6737 -0.5153
 4141WAT    EPW18371   1.158   9.705   1.797  0.0594 -0.2337 -0.0881
 4142WAT      O18372  -0.816   8.557   5.926  0.2304  0.3593  0.3921
 4142WAT     H118373  -0.841   8.502   6.000  1.4315  1.5224  1.7104
 4142WAT     H218374  -0.873   8.528   5.854 -0.2090 -1.5383  1.4510
 4142WAT    EPW18375  -0.827   8.546   5.926  0.3309  0.2623  0.7057
 4143WAT      O18376  -5.812   8.290   5.039 -0.3580  0.0242  0.2710
 4143WAT     H118377  -5.891   8.322   5.084 -2.0467  1.1106 -3.1560
 4143WAT     H218378  -5.770   8.369   5.007 -0.3982 -0.7550 -1.7992
 4143WAT    EPW18379  -5.817   8.305   5.041 -0.5860  0.0644 -0.4539
 4144WAT      O18380   5.476   6.937   1.294  0.4654  0.5438 -0.0549
 4144WAT     H118381   5.495   7.001   1.363 -0.5427  2.7867 -1.7366
 4144WAT     H218382   5.391   6.900   1.318  0.2912  1.0348  0.1019
 4144WAT    EPW18383   5.468   6.940   1.306  0.3092  0.9046 -0.2560
 4145WAT      O18384   0.513   6.292   0.941  0.4289 -0.1133 -0.1051
 4145WAT     H118385   0.514   6.304   0.847  1.1738  0.4706 -0.0342
 4145WAT     H218386   0.599   6.254   0.961  1.2425  1.9681  0.5908
 4145WAT    EPW18387   0.524   6.289   0.932  0.6345  0.2382 -0.0040
 4146WAT      O18388  -1.568   7.630   1.384 -0.0674 -0.3268  0.1057
 4146WAT     H118389  -1.621   7.587   1.317  0.7253 -1.4819  0.1993
 4146WAT     H218390  -1.543   7.560   1.444  0.4556  0.4372  0.8084
 4146WAT    EPW18391  -1.572   7.615   1.383  0.1062 -0.3784  0.2107
 4147WAT      O18392   2.000   9.697   6.973 -0.3466  0.5294  0.4865
 4147WAT     H118393   2.095   9.710   6.976 -0.0442 -1.2559 -0.3528
 4147WAT     H218394   1.988   9.603   6.984 -1.9955  0.6684  0.0980
 4147WAT    EPW18395   2.011   9.687   6.975 -0.5242  0.3123  0.3245
 4148WAT      O18396   2.082   6.754   4.356 -0.6132  0.0385 -0.2464
 4148WAT     H118397   2.151   6.819   4.367  1.4667 -2.2214  1.3638
 4148WAT     H218398   2.026   6.764   4.434  0.5947 -0.9827  0.8036
 4148WAT    EPW18399   2.084   6.764   4.368 -0.1796 -0.3943  0.1044
 4149WAT      O18400   1.913   3.253   4.772 -0.3946 -0.3288 -0.2734
 4149WAT     H118401   1.876   3.337   4.745 -2.6328 -1.4648 -0.9313
 4149WAT     H218402   1.954   3.271   4.856  0.3710  1.6934 -1.0049
 4149WAT    EPW18403   1.914   3.267   4.779 -0.5889 -0.2120 -0.4568
 4150WAT      O18404  -2.966   7.858   5.164 -0.3943 -0.6104  0.4086
 4150WAT     H118405  -2.953   7.773   5.206  2.1859 -1.1470 -1.2450
 4150WAT     H218406  -2.944   7.842   5.072  1.2504  2.0479  0.2321
 4150WAT    EPW18407  -2.962   7.845   5.157  0.1628 -0.3307  0.1674
 4151WAT      O18408   8.175   4.140   0.365 -0.0297  0.2075 -0.3055
 4151WAT     H118409   8.225   4.143   0.447  0.7556 -1.8792 -0.6475
 4151WAT     H218410   8.095   4.188   0.384  0.6765  0.8111  1.3011
 4151WAT    EPW18411   8.171   4.147   0.378  0.1669  0.0117 -0.1387
 4152WAT      O18412  -1.130   6.179   4.924 -0.0556  0.3059 -0.1356
 4152WAT     H118413  -1.142   6.225   5.007 -0.5935 -0.9489  0.5049
 4152WAT     H218414  -1.126   6.249   4.858  2.4221  1.4882  1.1063
 4152WAT    EPW18415  -1.131   6.195   4.926  0.2002  0.2964  0.1128
 4153WAT      O18416   4.443   7.117   3.606  0.5487  0.0054 -0.7795
 4153WAT     H118417   4.354   7.099   3.574  0.4120 -1.5337  0.3279
 4153WAT     H218418   4.469   7.197   3.561 -1.8826  1.2234 -0.1710
 4153WAT    EPW18419   4.435   7.125   3.596  0.2100 -0.0367 -0.5533
 4154WAT      O18420   2.252   9.108   4.352  0.7394  0.6348 -0.4238
 4154WAT     H118421   2.290   9.050   4.418  0.6453  0.6392 -0.3652
 4154WAT     H218422   2.317   9.111   4.282  1.2082  1.2960  0.0304
 4154WAT    EPW18423   2.265   9.100   4.351  0.7888  0.7224 -0.3562
 4155WAT      O18424  -1.043   4.717   7.505  0.2762  0.5389 -0.4699
 4155WAT     H118425  -1.054   4.800   7.459 -0.3041  1.8660  1.8913
 4155WAT     H218426  -0.950   4.698   7.499  0.4421  1.4613 -0.9264
 4155WAT    EPW18427  -1.032   4.725   7.498  0.2215  0.8354 -0.2186
 4156WAT      O18428  -3.601   9.069   7.227 -0.4196 -0.1284  0.0022
 4156WAT     H118429  -3.571   9.159   7.242 -0.8612  0.0035  0.0953
 4156WAT     H218430  -3.530   9.029   7.176 -0.8873  0.7149 -1.3784
 4156WAT    EPW18431  -3.587   9.076   7.222 -0.5395  0.0005 -0.1676
 4157WAT      O18432  -2.462   9.235   8.666  0.1599 -0.3275 -0.3676
 4157WAT     H118433  -2.508   9.315   8.690 -3.2216 -1.7818 -1.3494
 4157WAT     H218434  -2.466   9.233   8.570  1.0872 -1.1845 -0.4047
 4157WAT    EPW18435  -2.469   9.245   8.656 -0.1639 -0.6323 -0.5021
 4158WAT      O18436   2.984   5.218   2.873 -0.4877 -0.6649  0.7373
 4158WAT     H118437   3.060   5.229   2.930 -1.7595  1.2693  2.1748
 4158WAT     H218438   3.005   5.271   2.796  0.0298 -0.9677  0.6636
 4158WAT    EPW18439   2.997   5.227   2.870 -0.5871 -0.4497  0.9172
 4159WAT      O18440  -0.768   1.020   3.082 -0.0932  0.3525  0.7426
 4159WAT     H118441  -0.853   1.063   3.080 -0.2027  0.1297 -0.7932
 4159WAT     H218442  -0.707   1.084   3.045 -0.0424 -0.3385 -0.4184
 4159WAT    EPW18443  -0.771   1.034   3.077 -0.1009  0.2319  0.3870
 4160WAT      O18444  -0.474   2.736   2.825  0.5552 -0.3177 -0.1103
 4160WAT     H118445  -0.536   2.800   2.860  0.7402  0.6291 -1.4263
 4160WAT     H218446  -0.508   2.716   2.737  1.3370 -0.8816 -0.2927
 4160WAT    EPW18447  -0.487   2.742   2.818  0.6827 -0.2674 -0.3078
 4161WAT      O18448   7.481   1.688   0.404 -0.2306 -0.2483 -0.0064
 4161WAT     H118449   7.489   1.634   0.483  2.7155  0.3065  0.1959
 4161WAT     H218450   7.498   1.627   0.332  0.3561 -0.1333  0.0314
 4161WAT    EPW18451   7.484   1.672   0.405  0.2353 -0.1600  0.0253
 4162WAT      O18452   7.955   1.992   2.388  0.2274  0.1123  0.4052
 4162WAT     H118453   7.882   2.004   2.449 -0.0706  1.4627 -0.1687
 4162WAT     H218454   7.928   2.041   2.310  2.1111  1.3719  0.4844
 4162WAT    EPW18455   7.941   2.000   2.386  0.4368  0.4566  0.3399
 4163WAT      O18456   6.372   0.682   1.766 -0.1313 -0.2250  0.3505
 4163WAT     H118457   6.457   0.650   1.797 -0.9998 -1.4058  1.6154
 4163WAT     H218458   6.332   0.722   1.843 -1.2391 -0.8480  0.1257
 4163WAT    EPW18459   6.378   0.683   1.780 -0.3920 -0.4629  0.4876
 4164WAT      O18460  -3.592   7.671   5.480  0.1653  0.5223 -0.2046
 4164WAT     H118461  -3.604   7.581   5.509 -0.5643  0.7093  0.0941
 4164WAT     H218462  -3.598   7.666   5.384 -0.4307  0.3315 -0.1594
 4164WAT    EPW18463  -3.595   7.658   5.471 -0.0095  0.5219 -0.1593
 4165WAT      O18464   0.348   3.226   3.900  0.3139  0.1927 -0.1873
 4165WAT     H118465   0.311   3.170   3.968  4.0502 -1.3668  0.8241
 4165WAT     H218466   0.298   3.206   3.821 -0.2871 -2.5411  0.7906
 4165WAT    EPW18467   0.337   3.216   3.899  0.7274 -0.3735  0.0750
 4166WAT      O18468  -3.039   8.908   3.356  0.5094  0.2335  0.2123
 4166WAT     H118469  -2.979   8.835   3.368  1.1133  0.5093 -1.0279
 4166WAT     H218470  -3.015   8.946   3.272 -0.6500  1.0643  0.2277
 4166WAT    EPW18471  -3.028   8.904   3.347  0.4361  0.3796  0.0507
 4167WAT      O18472   3.320   9.647   0.895  0.1340 -0.1020 -0.1676
 4167WAT     H118473   3.317   9.662   0.990 -2.2835  2.5858 -0.5234
 4167WAT     H218474   3.411   9.662   0.872  0.7205 -0.4870  1.6664
 4167WAT    EPW18475   3.331   9.651   0.905 -0.1075  0.2017  0.0274
 4168WAT      O18476  -1.251   7.107   7.445 -0.2155  0.5833  0.3119
 4168WAT     H118477  -1.294   7.091   7.361  1.8240 -2.8287 -0.2573
 4168WAT     H218478  -1.168   7.148   7.422  1.6720 -2.9655  0.1888
 4168WAT    EPW18479  -1.246   7.110   7.431  0.3024 -0.3350  0.2205
 4169WAT      O18480   6.531   1.884   4.910  0.1652  0.1865  0.4133
 4169WAT     H118481   6.508   1.907   4.820  0.8878  0.0880  0.1970
 4169WAT     H218482   6.511   1.790   4.916  2.2609 -0.3879 -0.3873
 4169WAT    EPW18483   6.525   1.874   4.899  0.5369  0.0978  0.2792
 4170WAT      O18484   4.620   1.375   5.639  0.4778 -0.2301  0.1450
 4170WAT     H118485   4.692   1.352   5.699  0.4376  0.6554  0.5438
 4170WAT     H218486   4.652   1.348   5.553  0.6896 -1.1852  0.5029
 4170WAT    EPW18487   4.634   1.368   5.636  0.5002 -0.2393  0.2449
 4171WAT      O18488   5.648   7.992   0.902 -0.2278  0.7783 -0.2952
 4171WAT     H118489   5.617   7.927   0.839 -0.9807  0.0648  0.7684
 4171WAT     H218490   5.601   8.072   0.878 -0.9870  0.3523 -0.2696
 4171WAT    EPW18491   5.637   7.994   0.890 -0.4272  0.6280 -0.1515
 4172WAT      O18492   4.720   3.871   4.001 -0.0230  0.1115 -0.3530
 4172WAT     H118493   4.697   3.826   4.082 -0.8803  1.7368  0.3519
 4172WAT     H218494   4.794   3.822   3.966  1.3844  0.2639  2.2338
 4172WAT    EPW18495   4.727   3.859   4.007  0.0496  0.3459  0.0813
 4173WAT      O18496  -2.446   8.471   8.285 -0.5339  0.1028 -0.0637
 4173WAT     H118497  -2.532   8.430   8.280 -1.0384  1.2409 -2.0816
 4173WAT     H218498  -2.462   8.554   8.331 -0.0810 -0.5650  1.3671
 4173WAT    EPW18499  -2.459   8.477   8.290 -0.5406  0.1650 -0.1411
 4174WAT      O18500  -3.584   9.665   8.803  0.0991 -0.0239 -0.2875
 4174WAT     H118501  -3.492   9.659   8.780  0.2712  1.1237 -0.0056
 4174WAT     H218502  -3.584   9.679   8.898 -0.4058 -0.7539 -0.1707
 4174WAT    EPW18503  -3.572   9.666   8.813  0.0552  0.0310 -0.2351
 4175WAT      O18504  -2.866   9.574   4.657  0.3110  0.2727 -0.2414
 4175WAT     H118505  -2.811   9.643   4.620 -1.8437  1.8017 -0.7935
 4175WAT     H218506  -2.887   9.605   4.745 -0.1436  0.0163 -0.2568
 4175WAT    EPW18507  -2.862   9.587   4.663 -0.0331  0.4406 -0.3164
 4176WAT      O18508   3.089   5.703   5.501  1.2214  0.4473 -0.0306
 4176WAT     H118509   3.078   5.719   5.407 -1.0117  1.1161  0.2800
 4176WAT     H218510   3.043   5.621   5.517  1.5940  0.3340  0.4880
 4176WAT    EPW18511   3.082   5.694   5.491  0.9760  0.5205  0.0789
 4177WAT      O18512   3.509   8.266   6.784 -0.2865  0.2796  0.4931
 4177WAT     H118513   3.487   8.255   6.876 -0.2253  2.5177  0.8089
 4177WAT     H218514   3.604   8.252   6.780 -0.2708  0.3105  0.7796
 4177WAT    EPW18515   3.519   8.262   6.796 -0.2764  0.5794  0.5727
 4178WAT      O18516   1.499   9.786   1.572  0.1592  0.1921 -0.0985
 4178WAT     H118517   1.512   9.692   1.558  3.4747  0.4260  0.5593
 4178WAT     H218518   1.482   9.822   1.485  4.4740 -0.4162 -1.4479
 4178WAT    EPW18519   1.499   9.778   1.559  1.1656  0.1426 -0.1898
 4179WAT      O18520  -0.299   9.597   8.904  0.0240  0.1093 -0.0415
 4179WAT     H118521  -0.358   9.599   8.979 -2.7947 -0.8137 -2.0506
 4179WAT     H218522  -0.341   9.653   8.839  1.4586 -0.4885 -1.5528
 4179WAT    EPW18523  -0.312   9.605   8.905 -0.1586 -0.0916 -0.5054
 4180WAT      O18524  -4.500   9.080   3.164 -0.1026  0.3709  0.6073
 4180WAT     H118525  -4.522   9.016   3.232 -1.4804  0.3897  0.2081
 4180WAT     H218526  -4.481   9.161   3.213  1.8650 -0.3570  1.1296
 4180WAT    EPW18527  -4.500   9.082   3.180 -0.0250  0.2775  0.6236
 4181WAT      O18528   1.051   7.411   0.242  0.5688 -0.4633  0.7740
 4181WAT     H118529   1.123   7.459   0.202  1.2465  0.1505  2.6016
 4181WAT     H218530   0.989   7.396   0.171  1.7511  0.4146 -0.4973
 4181WAT    EPW18531   1.053   7.415   0.228  0.8141 -0.2668  0.8474
 4182WAT      O18532   8.879   0.258   1.078 -0.2659  0.4236 -0.3845
 4182WAT     H118533   8.818   0.254   1.005  0.4115  0.2506 -0.9445
 4182WAT     H218534   8.883   0.168   1.111 -2.0427  0.8302  1.1126
 4182WAT    EPW18535   8.871   0.246   1.073 -0.4110  0.4544 -0.2610
 4183WAT      O18536  -2.774   4.943   7.574  0.4830 -0.3180  0.4252
 4183WAT     H118537  -2.859   4.935   7.618  0.6462  2.0678  1.3160
 4183WAT     H218538  -2.782   5.021   7.520  1.2453 -1.6213 -1.6944
 4183WAT    EPW18539  -2.786   4.952   7.573  0.6050 -0.1752  0.2632
 4184WAT      O18540  -4.947   4.351   6.194 -0.1055 -0.0833 -0.1709
 4184WAT     H118541  -4.875   4.379   6.138 -0.7462 -1.0896 -1.5306
 4184WAT     H218542  -4.984   4.274   6.151 -0.8773 -0.6640  1.4302
 4184WAT    EPW18543  -4.943   4.345   6.181 -0.2916 -0.2928 -0.1390
 4185WAT      O18544   2.798   6.013   4.648  0.5961  0.0719  0.8317
 4185WAT     H118545   2.762   5.927   4.667  0.8596  0.2832  2.4341
 4185WAT     H218546   2.726   6.060   4.604  0.4390 -0.9132  0.0031
 4185WAT    EPW18547   2.783   6.008   4.644  0.6101 -0.0300  0.9336
 4186WAT      O18548   5.577   8.775   3.688 -0.0437  0.0805  0.1477
 4186WAT     H118549   5.527   8.705   3.647  0.9440 -0.0165 -0.9356
 4186WAT     H218550   5.511   8.838   3.717 -0.8053 -0.0492 -1.2208
 4186WAT    EPW18551   5.562   8.774   3.687 -0.0138  0.0501 -0.1756
 4187WAT      O18552  -2.715   7.343   6.818  0.1291  0.3746 -0.4167
 4187WAT     H118553  -2.698   7.300   6.902  1.0270  0.1220 -0.7151
 4187WAT     H218554  -2.666   7.291   6.754  0.3131  1.1771 -0.9467
 4187WAT    EPW18555  -2.706   7.331   6.821  0.2718  0.4470 -0.5262
 4188WAT      O18556   5.187   0.387   7.000  0.0186  0.3744 -0.0240
 4188WAT     H118557   5.104   0.351   6.970 -1.5332  2.2760  1.7055
 4188WAT     H218558   5.237   0.310   7.028 -0.9502 -0.8488 -1.4948
 4188WAT    EPW18559   5.183   0.372   7.000 -0.3140  0.4638  0.0100
 4189WAT      O18560  -0.775   9.842   5.286 -0.2895  0.3405  0.7390
 4189WAT     H118561  -0.763   9.878   5.198  1.5911 -0.8136  0.4548
 4189WAT     H218562  -0.767   9.918   5.343 -0.5360  0.9714 -0.0423
 4189WAT    EPW18563  -0.772   9.857   5.282 -0.0740  0.2718  0.5984
 4190WAT      O18564  -1.131   3.777   5.730 -0.2873  0.4492  0.0384
 4190WAT     H118565  -1.118   3.835   5.804 -1.4668  1.3818 -0.4457
 4190WAT     H218566  -1.054   3.792   5.674 -0.1629  0.9115  0.3254
 4190WAT    EPW18567  -1.119   3.787   5.732 -0.4264  0.6331  0.0126
 4191WAT      O18568   4.815   1.139   3.275 -0.0431  0.0416 -0.4213
 4191WAT     H118569   4.887   1.119   3.335 -1.5233 -0.9954  1.1252
 4191WAT     H218570   4.752   1.186   3.329 -0.5810  0.8403 -1.7077
 4191WAT    EPW18571   4.816   1.142   3.290 -0.3092  0.0102 -0.3871
 4192WAT      O18572  -1.007  10.304   6.982 -0.1313  0.3087  0.0602
 4192WAT     H118573  -1.032  10.368   6.916  2.2517  1.1152 -0.1419
 4192WAT     H218574  -0.957  10.354   7.047  1.4497 -1.2469  0.1036
 4192WAT    EPW18575  -1.004  10.319   6.982  0.3916  0.2098  0.0393
 4193WAT      O18576  -5.738   5.755   8.668 -0.0021 -0.2538  0.0057
 4193WAT     H118577  -5.767   5.839   8.706 -0.5795 -0.3285 -0.2564
 4193WAT     H218578  -5.811   5.695   8.685 -0.5346 -0.1424 -1.7360
 4193WAT    EPW18579  -5.752   5.758   8.675 -0.1485 -0.2489 -0.2584
 4194WAT      O18580   2.119   7.530   1.736  0.1669 -0.1194  0.6096
 4194WAT     H118581   2.195   7.517   1.794  0.3352 -0.4917  0.3075
 4194WAT     H218582   2.057   7.579   1.790  1.2320  1.5903  0.3806
 4194WAT    EPW18583   2.121   7.535   1.751  0.3296  0.0570  0.5395
 4195WAT      O18584   0.983   6.361   8.111 -0.8337 -0.4639  0.1692
 4195WAT     H118585   1.044   6.411   8.056 -0.7988 -0.7979 -0.0994
 4195WAT     H218586   0.996   6.397   8.199 -0.3953 -0.3899  0.0784
 4195WAT    EPW18587   0.993   6.373   8.116 -0.7713 -0.4983  0.1221
 4196WAT      O18588   1.975   9.126   7.124  0.5512  0.0634  0.0539
 4196WAT     H118589   2.061   9.147   7.160  0.4128 -1.1962  1.1581
 4196WAT     H218590   1.987   9.131   7.029  1.1404  2.5691  0.1917
 4196WAT    EPW18591   1.988   9.130   7.116  0.6106  0.2279  0.2179
 4197WAT      O18592   2.960   8.027   3.174  0.3627 -0.5204 -0.3109
 4197WAT     H118593   3.024   8.076   3.226  1.2484  0.5083 -2.2953
 4197WAT     H218594   2.876   8.066   3.199  0.6484 -0.7619  1.1044
 4197WAT    EPW18595   2.957   8.039   3.185  0.5171 -0.4168 -0.3860
 4198WAT      O18596   4.648   3.023   5.008 -0.3360 -0.3447 -0.1235
 4198WAT     H118597   4.554   3.037   4.999 -0.2935  0.1363  0.1588
 4198WAT     H218598   4.677   3.093   5.067  0.2726 -0.2045 -0.5795
 4198WAT    EPW18599   4.639   3.034   5.014 -0.2501 -0.2627 -0.1462
 4199WAT      O18600   2.784   5.722   0.719  0.3871  0.2068  0.1708
 4199WAT     H118601   2.829   5.804   0.699  0.0541  0.1467 -0.8690
 4199WAT     H218602   2.837   5.682   0.788  0.6815  1.1807  0.5243
 4199WAT    EPW18603   2.797   5.728   0.726  0.3819  0.3273  0.0803
 4200WAT      O18604  -2.216   5.443   5.389 -0.1587 -0.3433  0.2834
 4200WAT     H118605  -2.249   5.485   5.310 -1.7178 -1.3955  0.3307
 4200WAT     H218606  -2.131   5.406   5.363 -1.0767 -1.4987 -1.2033
 4200WAT    EPW18607  -2.209   5.444   5.375 -0.4855 -0.6344  0.0935
 4201WAT      O18608  -4.012   7.851   3.051  0.5075 -0.5122 -0.8117
 4201WAT     H118609  -4.050   7.897   3.126  0.2801  0.0628 -1.2800
 4201WAT     H218610  -4.030   7.758   3.069 -1.1503 -0.2523 -1.0312
 4201WAT    EPW18611  -4.019   7.845   3.063  0.2589 -0.4025 -0.9024
 4202WAT      O18612  -5.231   1.276   8.289  0.1117  0.4245  0.1168
 4202WAT     H118613  -5.260   1.349   8.344 -1.2021  0.6089 -0.7629
 4202WAT     H218614  -5.148   1.248   8.328  0.3304  1.9671  0.8502
 4202WAT    EPW18615  -5.224   1.282   8.301 -0.0327  0.6522  0.0978
 4203WAT      O18616   0.801  -0.005   3.016 -0.5179  0.0800 -0.0930
 4203WAT     H118617   0.753  -0.009   3.099 -0.7428  1.1292 -0.1636
 4203WAT     H218618   0.805   0.088   2.995 -2.8651 -0.3014 -2.6787
 4203WAT    EPW18619   0.795   0.007   3.024 -0.8571  0.1681 -0.4435
 4204WAT      O18620   5.904   3.330   2.316  0.1696 -0.0644 -0.5126
 4204WAT     H118621   5.810   3.314   2.307  0.3200 -1.1160 -0.3534
 4204WAT     H218622   5.942   3.243   2.329  0.9617  0.4987  1.2924
 4204WAT    EPW18623   5.897   3.317   2.316  0.2937 -0.1289 -0.2536
 4205WAT      O18624   3.601  10.147   4.621  0.3721 -0.0003 -1.1550
 4205WAT     H118625   3.682  10.187   4.652  0.3035 -0.9908  0.3832
 4205WAT     H218626   3.554  10.123   4.700 -2.0263  1.6195 -1.9477
 4205WAT    EPW18627   3.605  10.149   4.635  0.0467  0.0825 -1.0567
 4206WAT      O18628   1.688   0.582   7.239 -0.2035  0.4532  0.3797
 4206WAT     H118629   1.671   0.490   7.259  0.8755 -0.6928 -3.2857
 4206WAT     H218630   1.619   0.629   7.286 -1.2421 -2.2520  1.7803
 4206WAT    EPW18631   1.676   0.576   7.248 -0.1982 -0.0547  0.0811
 4207WAT      O18632   0.093   7.532   5.461 -0.5952  0.0047  1.1151
 4207WAT     H118633   0.145   7.603   5.498 -2.1288  0.9764  1.4544
 4207WAT     H218634   0.074   7.474   5.535 -2.2132  1.0510  1.5542
 4207WAT    EPW18635   0.097   7.533   5.475 -1.0109  0.2708  1.2178
 4208WAT      O18636  -4.045   4.732   6.288  0.5811 -0.5151  0.4465
 4208WAT     H118637  -3.972   4.687   6.331  1.7919  0.1075 -0.8804
 4208WAT     H218638  -4.067   4.803   6.348  1.7121 -0.1428  0.4581
 4208WAT    EPW18639  -4.038   4.736   6.301  0.8900 -0.3839  0.2730
 4209WAT      O18640  -0.405   9.893   4.036 -0.0541 -0.1442  0.1218
 4209WAT     H118641  -0.385   9.884   3.943  0.4792 -1.2460  0.3334
 4209WAT     H218642  -0.500   9.903   4.039 -0.0287  0.3731 -0.5665
 4209WAT    EPW18643  -0.415   9.893   4.024  0.0196 -0.2213  0.0589
 4210WAT      O18644  -2.936   5.810   7.360 -0.4064  0.2938 -0.2413
 4210WAT     H118645  -2.939   5.847   7.272  1.3621  0.7437 -0.1554
 4210WAT     H218646  -2.958   5.718   7.349  0.6803  0.1434 -1.2974
 4210WAT    EPW18647  -2.940   5.803   7.347 -0.0298  0.3335 -0.3691
 4211WAT      O18648   7.603   5.218   0.568 -0.2279  0.2873  0.1785
 4211WAT     H118649   7.638   5.266   0.493  0.8197  0.5149  0.7876
 4211WAT     H218650   7.553   5.284   0.616  0.1743  0.4784  0.3488
 4211WAT    EPW18651   7.601   5.233   0.564 -0.0367  0.3424  0.2812
 4212WAT      O18652   0.359   1.715   4.465  0.0610 -0.7214  0.0568
 4212WAT     H118653   0.314   1.771   4.401 -2.0456 -0.6792  1.4953
 4212WAT     H218654   0.439   1.762   4.485 -1.5532  1.7798  1.0706
 4212WAT    EPW18655   0.364   1.728   4.459 -0.4298 -0.3860  0.3800
 4213WAT      O18656  -3.924   6.964   5.864 -0.3534 -0.3985  0.3207
 4213WAT     H118657  -3.867   6.986   5.791  1.0151  4.9267  2.5079
 4213WAT     H218658  -3.866   6.962   5.940 -1.8772 -4.5271  1.6818
 4213WAT    EPW18659  -3.909   6.966   5.865 -0.3740 -0.2406  0.7887
 4214WAT      O18660   4.898   2.049   7.280  0.2201 -0.1620 -0.4231
 4214WAT     H118661   4.910   1.973   7.223 -1.1136 -0.1585 -0.7382
 4214WAT     H218662   4.943   2.025   7.361 -1.5245 -1.9924  0.0839
 4214WAT    EPW18663   4.905   2.036   7.283 -0.1860 -0.4029 -0.3979
 4215WAT      O18664  -1.045   3.358   8.755 -0.0603  0.1029  0.8585
 4215WAT     H118665  -1.132   3.398   8.762 -0.1572 -0.3642  2.9772
 4215WAT     H218666  -1.056   3.288   8.691 -0.5159  1.7687 -0.9826
 4215WAT    EPW18667  -1.058   3.354   8.748 -0.1332  0.2611  0.8950
 4216WAT      O18668   2.343   6.113   2.339  0.1039 -0.3534 -0.1950
 4216WAT     H118669   2.376   6.149   2.422 -0.9597  0.5204 -0.1360
 4216WAT     H218670   2.281   6.045   2.366 -1.1813  0.7802 -0.2433
 4216WAT    EPW18671   2.340   6.109   2.354 -0.2060 -0.0887 -0.1936
 4217WAT      O18672   1.618   2.440   0.863 -0.0984 -0.0453  0.4302
 4217WAT     H118673   1.710   2.460   0.844 -0.1198  0.3671  0.7364
 4217WAT     H218674   1.617   2.425   0.958 -0.5495  1.1315  0.6279
 4217WAT    EPW18675   1.630   2.441   0.873 -0.1607  0.1644  0.4967
 4218WAT      O18676   0.715   8.502   7.997 -0.4067  0.2538  0.3146
 4218WAT     H118677   0.749   8.586   8.027 -0.7453  1.8385 -3.2265
 4218WAT     H218678   0.627   8.522   7.964 -0.2364 -1.3169 -1.2467
 4218WAT    EPW18679   0.708   8.516   7.996 -0.4289  0.2556 -0.3586
 4219WAT      O18680   7.385   2.716   3.743  0.3658  0.1353 -0.1038
 4219WAT     H118681   7.351   2.787   3.798  0.4794  1.7346 -1.9919
 4219WAT     H218682   7.455   2.756   3.693  1.7031 -1.8397  0.0799
 4219WAT    EPW18683   7.390   2.730   3.744  0.5572  0.0857 -0.3287
 4220WAT      O18684  -6.192   8.761   8.356  0.0869  0.2299 -0.0553
 4220WAT     H118685  -6.176   8.671   8.386  0.4491  0.5450  0.7158
 4220WAT     H218686  -6.176   8.815   8.433 -0.5328  0.9275 -0.4104
 4220WAT    EPW18687  -6.188   8.756   8.370  0.0532  0.3638 -0.0005
 4221WAT      O18688  -2.258   7.280   0.492 -0.2012 -0.0374  0.0451
 4221WAT     H118689  -2.170   7.296   0.458  1.2429  0.6455  3.7268
 4221WAT     H218690  -2.266   7.185   0.494  0.5372 -0.1096 -0.0927
 4221WAT    EPW18691  -2.248   7.270   0.488  0.0865  0.0434  0.5125
 4222WAT      O18692  -1.324   4.818   4.430 -0.0344 -0.4059  0.6118
 4222WAT     H118693  -1.356   4.824   4.520 -3.1200  0.8294 -0.4272
 4222WAT     H218694  -1.321   4.908   4.399 -0.5476 -0.9069 -0.9862
 4222WAT    EPW18695  -1.328   4.831   4.438 -0.5090 -0.3090  0.2642
 4223WAT      O18696   3.571   5.707   4.452 -0.3500 -0.3270 -0.4516
 4223WAT     H118697   3.517   5.785   4.463  1.0456  0.4326  2.0500
 4223WAT     H218698   3.510   5.637   4.431 -1.9561  0.9810 -0.2792
 4223WAT    EPW18699   3.556   5.708   4.451 -0.3778 -0.0546 -0.0989
 4224WAT      O18700   6.231   1.886   5.655 -0.1698 -0.1756 -0.1029
 4224WAT     H118701   6.321   1.915   5.643 -0.7886  1.6635 -0.6857
 4224WAT     H218702   6.201   1.932   5.733  0.1753 -2.9170  1.7918
 4224WAT    EPW18703   6.239   1.896   5.664 -0.2060 -0.2946  0.0701
 4225WAT      O18704  -4.520   1.083   7.885  0.4604  0.6907 -0.1357
 4225WAT     H118705  -4.510   1.117   7.797  2.2331 -2.0547 -1.1382
 4225WAT     H218706  -4.589   1.018   7.878 -0.0755  1.1426  0.7606
 4225WAT    EPW18707  -4.527   1.079   7.873  0.6237  0.3882 -0.1497
 4226WAT      O18708  -0.452   1.886   8.155 -0.4384  0.1015  0.4908
 4226WAT     H118709  -0.515   1.935   8.208 -0.9530  2.1172 -1.8127
 4226WAT     H218710  -0.498   1.869   8.073  1.0306 -1.0233 -0.1388
 4226WAT    EPW18711  -0.466   1.890   8.151 -0.3125  0.2190  0.1044
 4227WAT      O18712   0.052   5.682   8.118  0.1640  0.5151 -0.3782
 4227WAT     H118713   0.053   5.591   8.150 -1.3195  1.3606  2.4278
 4227WAT     H218714   0.129   5.722   8.157 -0.5991  1.0670  0.6193
 4227WAT    EPW18715   0.062   5.675   8.127 -0.1323  0.6993  0.1235
 4228WAT      O18716   1.687   8.761   7.440 -0.3075  0.5478  0.4744
 4228WAT     H118717   1.703   8.693   7.374 -0.7775  1.2976 -0.4313
 4228WAT     H218718   1.774   8.799   7.457 -0.2693  0.7664 -0.1822
 4228WAT    EPW18719   1.701   8.757   7.434 -0.3644  0.6757  0.2685
 4229WAT      O18720   1.138   8.811   0.455 -0.9636 -0.2537 -0.1880
 4229WAT     H118721   1.079   8.829   0.528  0.8760 -0.4892  1.4492
 4229WAT     H218722   1.122   8.881   0.393  0.0754  2.2700  2.1842
 4229WAT    EPW18723   1.128   8.822   0.457 -0.5839  0.0482  0.3408
 4230WAT      O18724   0.548   6.974   1.495  0.0659  0.2319 -0.1424
 4230WAT     H118725   0.505   6.944   1.576 -1.1082  1.9711 -0.0569
 4230WAT     H218726   0.641   6.969   1.515 -0.1860  1.7177  1.8184
 4230WAT    EPW18727   0.554   6.970   1.509 -0.1222  0.6571  0.1275
 4231WAT      O18728   3.744   5.712   1.084 -0.1915  0.1387 -1.1145
 4231WAT     H118729   3.654   5.688   1.065 -0.4400 -0.8528  1.1057
 4231WAT     H218730   3.775   5.645   1.145  0.7432  2.5509  1.2639
 4231WAT    EPW18731   3.736   5.700   1.089 -0.1010  0.3262 -0.5080
 4232WAT      O18732  -4.201   7.315   2.924  0.2894  0.3187  0.4965
 4232WAT     H118733  -4.270   7.315   2.857  0.0055 -0.4289  0.7750
 4232WAT     H218734  -4.119   7.323   2.874 -0.0345  3.4001  0.2765
 4232WAT    EPW18735  -4.199   7.316   2.908  0.2091  0.6266  0.5041
 4233WAT      O18736  -3.290   9.230   3.488 -0.0162 -0.4144  0.2334
 4233WAT     H118737  -3.207   9.261   3.524  0.7277 -0.8494 -1.0589
 4233WAT     H218738  -3.286   9.135   3.497 -0.5195 -0.4197  0.4442
 4233WAT    EPW18739  -3.278   9.222   3.494  0.0155 -0.4725  0.0908
 4234WAT      O18740   2.398   0.730   7.272 -0.4886 -0.4383 -0.1112
 4234WAT     H118741   2.418   0.734   7.366  1.3250  4.6039 -0.3790
 4234WAT     H218742   2.312   0.769   7.264 -0.9317 -1.4739 -0.5666
 4234WAT    EPW18743   2.389   0.735   7.284 -0.3078  0.0902 -0.2065
 4235WAT      O18744  -1.868   8.433   2.501 -0.3910 -0.6423  0.2833
 4235WAT     H118745  -1.899   8.375   2.433 -2.0395  0.7611 -0.2242
 4235WAT     H218746  -1.800   8.486   2.459 -1.5223  0.3383 -0.3829
 4235WAT    EPW18747  -1.863   8.433   2.487 -0.7576 -0.3276  0.1285
 4236WAT      O18748  -5.516   8.533   7.989  0.1056  1.2660 -0.4404
 4236WAT     H118749  -5.600   8.506   8.027  0.5272 -0.3958 -0.6020
 4236WAT     H218750  -5.455   8.533   8.063  0.1648  1.5662 -0.4880
 4236WAT    EPW18751  -5.519   8.530   8.004  0.1690  1.0867 -0.4683
 4237WAT      O18752   1.103   9.531   6.146 -0.2325  0.0873  0.3109
 4237WAT     H118753   1.036   9.493   6.089  0.2469  2.1606 -1.7932
 4237WAT     H218754   1.167   9.461   6.157 -0.6609 -0.5886 -1.2366
 4237WAT    EPW18755   1.103   9.517   6.140 -0.2258  0.2718 -0.1707
 4238WAT      O18756   4.018   4.181   0.288 -0.2656 -0.2652  0.3228
 4238WAT     H118757   3.969   4.233   0.353  0.6786  2.3163 -0.8922
 4238WAT     H218758   3.953   4.157   0.223 -0.3593  1.4102 -0.2529
 4238WAT    EPW18759   4.003   4.185   0.288 -0.1533  0.2961  0.0866
 4239WAT      O18760   1.902   6.569   1.504 -0.3167  0.2444 -0.1855
 4239WAT     H118761   1.889   6.663   1.508  1.4457  0.7196 -2.9305
 4239WAT     H218762   1.850   6.540   1.429  0.7052 -0.6144 -0.5898
 4239WAT    EPW18763   1.894   6.577   1.495  0.0505  0.1938 -0.6009
 4240WAT      O18764   4.296   1.357   4.281  0.2524 -0.2099 -0.4116
 4240WAT     H118765   4.261   1.287   4.335  1.4596 -0.0186  0.6552
 4240WAT     H218766   4.391   1.351   4.292  0.4921  0.2729 -1.9670
 4240WAT    EPW18767   4.304   1.347   4.289  0.4432 -0.1210 -0.4759
 4241WAT      O18768   7.282   2.562   1.032 -0.1970  0.2960  0.1170
 4241WAT     H118769   7.240   2.477   1.021 -1.2795  0.8187  0.0490
 4241WAT     H218770   7.301   2.567   1.126  0.6016 -0.3384 -0.0007
 4241WAT    EPW18771   7.279   2.551   1.043 -0.2344  0.2813  0.0924
 4242WAT      O18772  -2.773   9.931   3.361 -0.1659  0.4585 -0.2162
 4242WAT     H118773  -2.706   9.914   3.295 -1.5036 -1.0075 -1.2640
 4242WAT     H218774  -2.764   9.860   3.424  0.2279  1.1054  0.4740
 4242WAT    EPW18775  -2.763   9.919   3.361 -0.2905  0.3510 -0.2635
 4243WAT      O18776   5.403   0.158   1.822  0.1160 -0.3625  0.2553
 4243WAT     H118777   5.405   0.063   1.810  1.9182 -0.2515 -0.6979
 4243WAT     H218778   5.494   0.181   1.843  0.1109  1.3401 -1.3030
 4243WAT    EPW18779   5.416   0.148   1.823  0.3531 -0.1233 -0.0760
 4244WAT      O18780  -1.428   2.870   6.600  0.1314  0.0925 -0.3531
 4244WAT     H118781  -1.432   2.803   6.669 -0.2632 -1.0853 -1.4782
 4244WAT     H218782  -1.335   2.892   6.593 -0.0105  1.7983  1.9597
 4244WAT    EPW18783  -1.417   2.864   6.608  0.0607  0.1621 -0.1965
 4245WAT      O18784   4.504   0.935   8.557  0.2091 -0.3607  0.5591
 4245WAT     H118785   4.503   0.940   8.652 -0.5363 -0.6246  0.5718
 4245WAT     H218786   4.557   0.857   8.538  2.5654  1.1399  0.6610
 4245WAT    EPW18787   4.511   0.925   8.567  0.4215 -0.1976  0.5736
 4246WAT      O18788  -4.436   7.978   5.329 -0.1261 -0.6704 -0.1739
 4246WAT     H118789  -4.477   7.911   5.273 -0.5551  0.2870 -1.0449
 4246WAT     H218790  -4.348   7.945   5.344 -0.3027 -1.4043 -0.6399
 4246WAT    EPW18791  -4.430   7.965   5.324 -0.2060 -0.6411 -0.3502
 4247WAT      O18792  -3.037   2.585   6.340 -0.0365  0.1049  0.4371
 4247WAT     H118793  -2.962   2.584   6.281 -0.5005  1.0032 -0.1841
 4247WAT     H218794  -3.035   2.672   6.381 -0.6836  0.1027  0.4812
 4247WAT    EPW18795  -3.027   2.596   6.338 -0.1830  0.2232  0.3612
 4248WAT      O18796   1.279   5.542   4.454  0.0123 -0.4894 -0.8129
 4248WAT     H118797   1.346   5.478   4.480 -1.2814 -1.1103  1.2385
 4248WAT     H218798   1.209   5.490   4.417 -0.8624 -0.2804  0.4616
 4248WAT    EPW18799   1.279   5.527   4.453 -0.2736 -0.5436 -0.3741
 4249WAT      O18800  -4.510   9.167   7.128  0.0665 -0.5428  0.1035
 4249WAT     H118801  -4.554   9.087   7.158 -1.1420 -0.0394 -0.2813
 4249WAT     H218802  -4.515   9.226   7.203 -0.7822 -0.1478 -0.2555
 4249WAT    EPW18803  -4.516   9.164   7.142 -0.2050 -0.4244  0.0055
 4250WAT      O18804  -2.622  10.002   5.619  0.2807  0.3828  0.0765
 4250WAT     H118805  -2.707   9.967   5.593 -0.0960  0.5472  1.0375
 4250WAT     H218806  -2.612  10.082   5.567 -1.5399  2.0001  2.0242
 4250WAT    EPW18807  -2.632  10.008   5.609 -0.0092  0.6180  0.4601
 4251WAT      O18808   6.340   5.593   1.704 -0.4849 -0.0679 -0.0172
 4251WAT     H118809   6.430   5.586   1.672 -0.0791 -0.2877  1.1529
 4251WAT     H218810   6.301   5.508   1.684 -0.3026 -0.1319 -0.1091
 4251WAT    EPW18811   6.347   5.581   1.697 -0.4072 -0.1054  0.1250
 4252WAT      O18812  -5.707   9.403   8.772 -0.2043  0.1868 -0.3186
 4252WAT     H118813  -5.640   9.414   8.839  0.2265 -0.3164 -0.6551
 4252WAT     H218814  -5.788   9.427   8.815  0.0559 -0.2003  0.4099
 4252WAT    EPW18815  -5.709   9.408   8.787 -0.1132  0.0691 -0.2670
 4253WAT      O18816  -3.473   4.503   6.532  0.6660  0.1544  0.1558
 4253WAT     H118817  -3.451   4.425   6.481  2.7681 -0.4617  1.8677
 4253WAT     H218818  -3.465   4.575   6.469  0.1643 -0.8305 -1.0888
 4253WAT    EPW18819  -3.469   4.502   6.517  0.8771 -0.0565  0.2177
 4254WAT      O18820   3.478   4.728   4.031 -0.4085  0.0512 -0.6574
 4254WAT     H118821   3.418   4.653   4.036  1.1149 -1.3726 -2.3691
 4254WAT     H218822   3.424   4.803   4.056 -2.5089 -1.3504 -0.7106
 4254WAT    EPW18823   3.463   4.728   4.035 -0.4846 -0.3214 -0.8903
 4255WAT      O18824  -0.444   4.511   4.292 -0.2598 -0.3989  0.0735
 4255WAT     H118825  -0.475   4.494   4.381  1.2470 -1.3876  0.4401
 4255WAT     H218826  -0.393   4.592   4.299  0.6278 -0.9689  0.3145
 4255WAT    EPW18827  -0.441   4.520   4.304  0.0560 -0.6044  0.1535
 4256WAT      O18828  -3.828  10.022   6.484 -0.1714  0.0868  0.5273
 4256WAT     H118829  -3.766  10.055   6.419 -2.1532  3.1953  0.0054
 4256WAT     H218830  -3.906  10.000   6.434 -0.6808 -0.4336  1.5245
 4256WAT    EPW18831  -3.830  10.024   6.469 -0.5000  0.4282  0.5901
 4257WAT      O18832   3.587   3.657   7.052 -1.0305  0.3422 -0.4422
 4257WAT     H118833   3.628   3.670   6.967  1.1582  1.0515  0.6398
 4257WAT     H218834   3.522   3.589   7.038  2.2797 -2.8453 -1.8493
 4257WAT    EPW18835   3.584   3.650   7.039 -0.3053  0.0154 -0.4849
 4258WAT      O18836   2.343   7.853   8.976 -0.1799 -0.3070  0.3488
 4258WAT     H118837   2.400   7.912   8.927 -1.2745 -1.8061 -2.9542
 4258WAT     H218838   2.276   7.911   9.013  0.3478  0.8300 -0.4099
 4258WAT    EPW18839   2.342   7.868   8.975 -0.2546 -0.3550 -0.1869
 4259WAT      O18840   8.150   1.064   2.901 -0.4216  0.3822  0.3912
 4259WAT     H118841   8.173   1.143   2.851 -1.5794  0.9110  0.6680
 4259WAT     H218842   8.214   1.061   2.972  2.8576 -1.6930 -2.3174
 4259WAT    EPW18843   8.162   1.074   2.904 -0.1416  0.1783  0.0705
 4260WAT      O18844   1.083   6.362   7.752  0.5473 -0.1195 -0.1394
 4260WAT     H118845   1.009   6.310   7.783  0.2759 -1.3254 -2.5883
 4260WAT     H218846   1.088   6.435   7.814 -1.3461 -1.1066  1.2991
 4260WAT    EPW18847   1.074   6.365   7.764  0.2618 -0.4089 -0.2728
 4261WAT      O18848   0.218   6.597   4.154  0.0312 -0.0329 -0.2309
 4261WAT     H118849   0.235   6.503   4.165  1.0977  0.1306 -0.4252
 4261WAT     H218850   0.141   6.600   4.098 -1.3647 -0.8072  1.5204
 4261WAT    EPW18851   0.210   6.585   4.148 -0.0123 -0.1132 -0.0255
 4262WAT      O18852   1.329   8.525   1.258  0.1939  1.1652  0.4120
 4262WAT     H118853   1.380   8.499   1.334 -2.2253 -0.4385  1.6139
 4262WAT     H218854   1.277   8.600   1.289 -0.5072  0.7638  0.2182
 4262WAT    EPW18855   1.329   8.532   1.272 -0.2177  0.9012  0.5449
 4263WAT      O18856  -2.902   5.548   8.294  0.1154  0.0326  0.6424
 4263WAT     H118857  -2.813   5.522   8.316  1.1104 -0.5611 -3.3952
 4263WAT     H218858  -2.957   5.479   8.331  1.5814 -1.0458  0.8957
 4263WAT    EPW18859  -2.898   5.536   8.302  0.4400 -0.1881  0.1435
 4264WAT      O18860   2.848   0.998   1.658  0.1885 -0.3408  0.2366
 4264WAT     H118861   2.940   0.973   1.647 -0.3159 -3.0185  1.4578
 4264WAT     H218862   2.806   0.972   1.577  0.0282 -1.7720  0.7576
 4264WAT    EPW18863   2.855   0.992   1.646  0.1007 -0.8827  0.4664
 4265WAT      O18864   2.567   0.588   4.427 -0.2759 -0.3932 -0.2114
 4265WAT     H118865   2.501   0.561   4.491 -0.8613 -0.8515 -0.9977
 4265WAT     H218866   2.555   0.529   4.353  1.1313 -0.5863 -0.3102
 4265WAT    EPW18867   2.557   0.577   4.426 -0.1675 -0.4791 -0.3283
 4266WAT      O18868   4.826   4.201   1.106 -0.3349  0.0203 -0.2141
 4266WAT     H118869   4.841   4.296   1.110  1.9807 -0.2891 -0.2521
 4266WAT     H218870   4.844   4.171   1.195 -1.5637 -0.3486 -0.0758
 4266WAT    EPW18871   4.830   4.210   1.118 -0.1915 -0.0691 -0.2008
 4267WAT      O18872  -3.096   8.783   6.222  0.7832  0.4449 -0.2473
 4267WAT     H118873  -3.081   8.695   6.187 -1.1989  0.8423 -2.3629
 4267WAT     H218874  -3.166   8.771   6.287  0.7198  0.4040 -0.3219
 4267WAT    EPW18875  -3.103   8.770   6.226  0.5133  0.4921 -0.5362
 4268WAT      O18876  -0.282   0.005   7.493 -0.0866 -0.0030  0.5165
 4268WAT     H118877  -0.307   0.082   7.442  1.9972  1.1549  1.1655
 4268WAT     H218878  -0.327  -0.068   7.449  0.4938  1.1210 -2.1111
 4268WAT    EPW18879  -0.291   0.005   7.481  0.2648  0.2975  0.2556
 4269WAT      O18880  -3.544   4.716   6.369 -0.0924 -0.3451 -0.3743
 4269WAT     H118881  -3.599   4.754   6.437 -1.6629 -0.9586 -1.2338
 4269WAT     H218882  -3.599   4.648   6.329  1.0307 -0.4958 -1.7595
 4269WAT    EPW18883  -3.559   4.712   6.372 -0.1514 -0.4461 -0.6702
 4270WAT      O18884   3.336   1.540   5.183 -0.1289  0.6128 -0.0290
 4270WAT     H118885   3.394   1.561   5.110  1.7065  0.2565  1.2363
 4270WAT     H218886   3.396   1.508   5.252 -2.0011 -1.3432  0.7896
 4270WAT    EPW18887   3.352   1.539   5.183 -0.1338  0.3078  0.2460
 4271WAT      O18888  -4.375   0.588   7.111 -0.5284 -0.0413 -0.4600
 4271WAT     H118889  -4.308   0.651   7.136  1.9583 -3.5154  2.5334
 4271WAT     H218890  -4.443   0.596   7.178 -0.8399  0.2911 -0.8111
 4271WAT    EPW18891  -4.375   0.597   7.123 -0.2415 -0.4557 -0.1116
 4272WAT      O18892   1.428   6.452   8.186  0.0879  0.0779 -1.0381
 4272WAT     H118893   1.514   6.476   8.221 -0.2766 -1.2227  0.8813
 4272WAT     H218894   1.366   6.501   8.240 -0.4262  0.9523 -2.3673
 4272WAT    EPW18895   1.431   6.462   8.198 -0.0280  0.0217 -0.9603
 4273WAT      O18896  -2.827   2.957   8.116  0.3912 -0.5298 -0.6014
 4273WAT     H118897  -2.856   2.906   8.040  0.5535 -2.1045  0.3495
 4273WAT     H218898  -2.823   2.894   8.187  3.4643  0.1560 -0.0202
 4273WAT    EPW18899  -2.831   2.942   8.115  0.8180 -0.6471 -0.3991
 4274WAT      O18900   4.815   3.298   7.886  0.3597  0.6728 -0.4039
 4274WAT     H118901   4.741   3.241   7.907 -0.2160  1.6345  0.2195
 4274WAT     H218902   4.781   3.360   7.822  0.5785  1.2320  0.0181
 4274WAT    EPW18903   4.801   3.298   7.880  0.3126  0.8733 -0.2661
 4275WAT      O18904   9.548   0.272   1.315  0.5660 -0.2420  0.5137
 4275WAT     H118905   9.461   0.285   1.277  1.1013 -2.7912 -1.8501
 4275WAT     H218906   9.530   0.239   1.403 -0.9094 -1.1346 -0.0743
 4275WAT    EPW18907   9.534   0.269   1.322  0.4416 -0.6960  0.1244
 4276WAT      O18908  -3.348   7.007   2.457  0.1993  0.1706  0.2936
 4276WAT     H118909  -3.341   7.039   2.367  1.7599 -0.0809  0.3024
 4276WAT     H218910  -3.258   7.002   2.488 -0.3023  0.0495  1.8128
 4276WAT    EPW18911  -3.335   7.010   2.449  0.3389  0.1216  0.4952
 4277WAT      O18912  -4.498   0.958   8.213 -0.4598 -0.5931  0.3443
 4277WAT     H118913  -4.520   1.020   8.283 -0.6316 -0.8478  0.5155
 4277WAT     H218914  -4.416   0.992   8.176 -0.6038 -0.2048  0.3701
 4277WAT    EPW18915  -4.490   0.971   8.217 -0.5012 -0.5755  0.3700
 4278WAT      O18916  -1.072   5.979   5.703  0.8746 -0.4870 -0.1789
 4278WAT     H118917  -1.155   5.934   5.718  0.8475 -0.5929 -0.6090
 4278WAT     H218918  -1.019   5.915   5.655  0.1160  0.6048 -2.6242
 4278WAT    EPW18919  -1.076   5.965   5.698  0.7709 -0.3569 -0.5584
 4279WAT      O18920   3.211   8.793   4.923  0.2916 -0.5408  0.9696
 4279WAT     H118921   3.273   8.759   4.988  1.0863 -1.2235 -0.1234
 4279WAT     H218922   3.243   8.759   4.839 -0.2142  1.0422  0.1015
 4279WAT    EPW18923   3.223   8.784   4.921  0.3297 -0.4220  0.7107
 4280WAT      O18924   2.538   7.641   1.891  0.7582  0.1874  0.1977
 4280WAT     H118925   2.472   7.708   1.909  0.8344  0.3823 -0.2431
 4280WAT     H218926   2.590   7.636   1.971  0.2832  0.1197  0.5018
 4280WAT    EPW18927   2.536   7.649   1.904  0.7056  0.2041  0.1797
 4281WAT      O18928   7.202   4.621   0.844 -0.1242  0.4327 -0.3449
 4281WAT     H118929   7.170   4.624   0.934 -1.9127 -3.4669 -0.6348
 4281WAT     H218930   7.281   4.568   0.849 -2.0138 -2.7613 -1.2487
 4281WAT    EPW18931   7.208   4.614   0.857 -0.6094 -0.5028 -0.5023
 4282WAT      O18932   0.924   3.601   4.864 -0.4344 -0.3989 -0.0936
 4282WAT     H118933   0.912   3.554   4.946  1.4269  0.9401  1.0156
 4282WAT     H218934   0.862   3.673   4.867 -1.9488 -1.6079 -0.9378
 4282WAT    EPW18935   0.914   3.604   4.875 -0.3887 -0.3818 -0.0589
 4283WAT      O18936  -2.141   2.367   3.891 -0.5135 -0.0674 -0.0165
 4283WAT     H118937  -2.098   2.452   3.899 -3.0720  1.2338  0.8583
 4283WAT     H218938  -2.180   2.368   3.803  1.1097 -1.2595 -0.8200
 4283WAT    EPW18939  -2.140   2.378   3.880 -0.6368 -0.0532 -0.0070
 4284WAT      O18940   1.033   3.228   4.649 -0.4220 -0.2954 -0.4748
 4284WAT     H118941   0.969   3.299   4.643  0.8946  1.0397  0.5070
 4284WAT     H218942   1.024   3.195   4.739  2.3072  2.0609  0.8408
 4284WAT    EPW18943   1.024   3.233   4.660  0.1116  0.1915 -0.1719
 4285WAT      O18944  -8.796  10.193   8.525  0.0573 -0.1495  0.7576
 4285WAT     H118945  -8.791  10.182   8.430 -1.0428 -1.8938  0.8518
 4285WAT     H218946  -8.851  10.271   8.537 -0.2015 -0.1961 -0.0439
 4285WAT    EPW18947  -8.803  10.202   8.514 -0.1216 -0.3853  0.6638
 4286WAT      O18948   2.243   9.732   1.454 -0.4683 -0.0801 -0.4371
 4286WAT     H118949   2.204   9.656   1.497  2.0371 -0.4140  1.5319
 4286WAT     H218950   2.296   9.695   1.383  0.9116 -0.2604  0.6476
 4286WAT    EPW18951   2.245   9.718   1.450  0.0442 -0.1478 -0.0343
 4287WAT      O18952  -0.899   8.229   6.646  0.0229  0.9821 -0.4073
 4287WAT     H118953  -0.808   8.234   6.616  0.0490 -0.7081 -0.7046
 4287WAT     H218954  -0.920   8.318   6.674  2.0760  1.2299  0.5514
 4287WAT    EPW18955  -0.889   8.241   6.646  0.2971  0.7915 -0.3200
 4288WAT      O18956   2.064   3.742   5.221 -0.4482 -0.1650  0.3988
 4288WAT     H118957   2.157   3.717   5.218 -0.5675 -1.4205  3.5220
 4288WAT     H218958   2.061   3.815   5.282 -1.3894  0.9409 -0.9184
 4288WAT    EPW18959   2.076   3.748   5.228 -0.5881 -0.1848  0.6371
 4289WAT      O18960   5.455   2.223   6.189 -0.4599  0.0544  0.2185
 4289WAT     H118961   5.421   2.139   6.219 -2.1054  0.3251 -0.7903
 4289WAT     H218962   5.526   2.243   6.250  2.5532 -3.7718 -1.5875
 4289WAT    EPW18963   5.460   2.215   6.201 -0.2792 -0.4144 -0.1528
 4290WAT      O18964   0.883   6.853   7.774 -0.1008 -0.1614 -0.1456
 4290WAT     H118965   0.973   6.885   7.783 -0.7757  1.6130  0.8614
 4290WAT     H218966   0.839   6.921   7.723 -1.5738  0.6415  2.0104
 4290WAT    EPW18967   0.889   6.866   7.769 -0.3842  0.1786  0.2718
 4291WAT      O18968   0.191   0.196   3.428  0.3533 -0.2884  0.0119
 4291WAT     H118969   0.228   0.230   3.510  1.9329 -0.0908 -0.7388
 4291WAT     H218970   0.266   0.157   3.383 -0.8593 -2.1266 -0.4994
 4291WAT    EPW18971   0.206   0.196   3.433  0.4017 -0.5048 -0.1546
 4292WAT      O18972   1.516   3.399   1.230 -0.5065  0.3601  0.6004
 4292WAT     H118973   1.594   3.344   1.234 -0.0706  0.9080 -0.2147
 4292WAT     H218974   1.549   3.487   1.211 -1.4016  0.2755 -1.6872
 4292WAT    EPW18975   1.531   3.403   1.228 -0.5670  0.4210  0.1912
 4293WAT      O18976   4.014   3.471   7.459  0.0809 -0.3984 -0.3587
 4293WAT     H118977   4.074   3.545   7.467  0.5686 -0.8539  0.3099
 4293WAT     H218978   3.961   3.491   7.382 -0.5955  1.2370  0.4833
 4293WAT    EPW18979   4.015   3.483   7.450  0.0558 -0.2427 -0.1595
 4294WAT      O18980  -4.347   8.012   7.816 -0.1450 -0.1959 -0.2310
 4294WAT     H118981  -4.395   8.078   7.866  1.1890  1.1016 -0.5875
 4294WAT     H218982  -4.368   7.929   7.859 -0.7162  0.6212  1.1360
 4294WAT    EPW18983  -4.356   8.010   7.828 -0.0443  0.0830 -0.0978
 4295WAT      O18984   4.126   3.436   2.628  0.2856 -0.0684  0.0552
 4295WAT     H118985   4.137   3.500   2.698 -1.2981  1.7859 -1.2931
 4295WAT     H218986   4.081   3.362   2.670  3.4985 -1.0960  1.9889
 4295WAT    EPW18987   4.121   3.434   2.643  0.5004  0.0407  0.1323
 4296WAT      O18988   7.908   2.654   2.205 -0.2125 -0.3650 -0.7510
 4296WAT     H118989   7.846   2.697   2.264 -0.5915 -0.3858 -1.1291
 4296WAT     H218990   7.966   2.605   2.263  1.8889  2.6294 -0.0238
 4296WAT    EPW18991   7.907   2.653   2.221  0.0148  0.0273 -0.7049
 4297WAT      O18992   5.434   1.703   1.582 -0.1037 -0.1892 -0.1282
 4297WAT     H118993   5.363   1.749   1.628 -1.6951  0.6600 -3.1231
 4297WAT     H218994   5.388   1.646   1.521  1.8631 -1.3830 -0.5484
 4297WAT    EPW18995   5.418   1.702   1.580 -0.0541 -0.2347 -0.5787
 4298WAT      O18996   2.979   0.734   2.331 -0.8838  0.0257  0.0193
 4298WAT     H118997   2.959   0.798   2.400  0.4433 -1.4505  1.8885
 4298WAT     H218998   2.894   0.711   2.295 -2.0394 -1.1928  3.1250
 4298WAT    EPW18999   2.965   0.740   2.336 -0.8612 -0.3297  0.6754
 4299WAT      O19000   5.047   1.398   1.373  0.3967  0.0857  0.2062
 4299WAT     H119001   4.985   1.343   1.325 -0.0010  2.5656 -2.4152
 4299WAT     H219002   4.992   1.459   1.422  0.7869  0.2134  0.4932
 4299WAT    EPW19003   5.032   1.399   1.373  0.3955  0.4296 -0.1017
 4300WAT      O19004   0.094   2.553   0.125 -0.1138 -0.0355  0.4123
 4300WAT     H119005   0.030   2.546   0.055 -0.6542  0.5635  0.8375
 4300WAT     H219006   0.070   2.484   0.187 -0.2568  0.0934  0.5002
 4300WAT    EPW19007   0.083   2.543   0.124 -0.2039  0.0606  0.4800
 4301WAT      O19008  -5.141   4.704   7.174 -0.1322  0.6877 -0.0956
 4301WAT     H119009  -5.212   4.678   7.233  0.3232 -0.7544 -0.1270
 4301WAT     H219010  -5.127   4.797   7.192 -2.9627  1.4145 -1.1080
 4301WAT    EPW19011  -5.148   4.713   7.184 -0.4456  0.5934 -0.2332
 4302WAT      O19012  -2.747   8.548   6.774  0.5417  0.2343  0.1274
 4302WAT     H119013  -2.683   8.585   6.713  0.6458  0.9010  0.6278
 4302WAT     H219014  -2.813   8.508   6.717 -0.3872  2.5072 -0.5392
 4302WAT    EPW19015  -2.748   8.548   6.758  0.4328  0.6218  0.1056
 4303WAT      O19016  -0.334   5.572   8.092 -0.6152 -0.1255 -0.2437
 4303WAT     H119017  -0.361   5.550   8.181  0.4972 -1.1766 -0.1409
 4303WAT     H219018  -0.318   5.488   8.050 -0.5988  0.3768 -1.2805
 4303WAT    EPW19019  -0.336   5.558   8.098 -0.4663 -0.1979 -0.3667
 4304WAT      O19020   4.655   0.710   7.776  0.1611  0.1808 -0.1821
 4304WAT     H119021   4.613   0.795   7.787  0.2527  0.2838 -0.5946
 4304WAT     H219022   4.678   0.682   7.865 -3.5502 -1.3305  0.4872
 4304WAT    EPW19023   4.652   0.717   7.789 -0.3166 -0.0049 -0.1483
 4305WAT      O19024  -2.366   4.124   6.300 -0.0313  0.2440  0.2131
 4305WAT     H119025  -2.445   4.117   6.354  0.5963  0.9147  1.2514
 4305WAT     H219026  -2.294   4.120   6.362  0.7356  0.6095 -0.6232
 4305WAT    EPW19027  -2.367   4.122   6.315  0.1526  0.3808  0.2398
 4306WAT      O19028   3.306   2.070   3.999  0.0088  0.6993  0.2516
 4306WAT     H119029   3.396   2.049   4.026  0.4422 -0.3481 -1.7945
 4306WAT     H219030   3.255   1.994   4.024  0.3223 -0.0690 -1.3587
 4306WAT    EPW19031   3.311   2.057   4.006  0.1073  0.4599 -0.2306
 4307WAT      O19032   6.985   5.273   2.744  1.2271  0.3210 -0.0403
 4307WAT     H119033   6.989   5.284   2.649  1.2036  1.7147  0.1019
 4307WAT     H219034   7.052   5.207   2.763  3.0397  1.8515 -0.7747
 4307WAT    EPW19035   6.994   5.266   2.734  1.4632  0.7067 -0.1185
 4308WAT      O19036   1.995   0.382   7.368 -0.7329  0.1065 -0.1065
 4308WAT     H119037   2.065   0.442   7.394 -1.5486  1.5162 -1.0363
 4308WAT     H219038   2.040   0.298   7.356  0.4605  0.5220  1.1125
 4308WAT    EPW19039   2.010   0.378   7.370 -0.6831  0.3472 -0.0684
 4309WAT      O19040  -1.747   7.891   7.679  0.5080  0.2003 -0.3013
 4309WAT     H119041  -1.755   7.926   7.590  2.0051  1.4289  0.0011
 4309WAT     H219042  -1.723   7.967   7.732 -1.9647 -0.1502  1.5145
 4309WAT    EPW19043  -1.745   7.906   7.674  0.3793  0.3161 -0.0217
 4310WAT      O19044  -1.855   5.300   8.594  0.3410  0.4660 -0.4941
 4310WAT     H119045  -1.771   5.254   8.581  0.2187 -0.3452  1.3017
 4310WAT     H219046  -1.830   5.388   8.618  0.6920  0.1715  0.2341
 4310WAT    EPW19047  -1.840   5.305   8.595  0.3712  0.3202 -0.1612
 4311WAT      O19048   1.516   8.788   5.754  0.6494  0.5035 -0.2814
 4311WAT     H119049   1.595   8.837   5.773 -0.2992  1.7309  0.6608
 4311WAT     H219050   1.495   8.811   5.664  0.6106  1.2819 -0.0820
 4311WAT    EPW19051   1.523   8.797   5.745  0.5192  0.7682 -0.1309
 4312WAT      O19052   3.284   6.548   4.983 -0.0204 -0.2597  1.0548
 4312WAT     H119053   3.220   6.568   4.915 -0.3133 -2.2530  0.6788
 4312WAT     H219054   3.368   6.572   4.945 -0.1916 -1.2150  0.0041
 4312WAT    EPW19055   3.287   6.554   4.969 -0.0815 -0.6487  0.8667
 4313WAT      O19056   6.622   5.485   2.441 -0.1435 -0.5206  0.0392
 4313WAT     H119057   6.715   5.474   2.420 -0.5251 -0.8851 -1.5555
 4313WAT     H219058   6.590   5.396   2.452 -0.1629 -0.3704  1.3775
 4313WAT    EPW19059   6.630   5.472   2.440 -0.1962 -0.5486  0.0055
 4314WAT      O19060   5.197   2.630   6.992  0.3431 -0.4139 -0.1328
 4314WAT     H119061   5.114   2.583   6.987 -0.4035  0.7693  0.5304
 4314WAT     H219062   5.208   2.668   6.904 -1.1798  1.5544  0.4389
 4314WAT    EPW19063   5.187   2.629   6.979  0.0436  0.0018  0.0300
 4315WAT      O19064   4.404   6.265   1.894  0.2814  0.0400 -0.6936
 4315WAT     H119065   4.387   6.240   1.804  0.0400  0.0580 -0.6535
 4315WAT     H219066   4.368   6.354   1.901 -0.3017 -0.2220 -0.3924
 4315WAT    EPW19067   4.397   6.274   1.883  0.1724  0.0076 -0.6486
 4316WAT      O19068   4.280   2.042   6.968 -0.7066  0.0274  0.5348
 4316WAT     H119069   4.283   2.042   6.872  0.1374 -0.2203  0.5526
 4316WAT     H219070   4.282   2.135   6.991  0.0903  0.0804  0.3188
 4316WAT    EPW19071   4.281   2.054   6.958 -0.4902  0.0017  0.5088
 4317WAT      O19072   1.951  10.355   0.440  0.6174 -0.5461 -0.1926
 4317WAT     H119073   1.883  10.388   0.382  1.1555 -1.3593 -1.3126
 4317WAT     H219074   1.920  10.269   0.467  0.3508 -0.1571  0.7804
 4317WAT    EPW19075   1.938  10.348   0.436  0.6532 -0.6022 -0.2120
 4318WAT      O19076   4.028   1.927   4.116  0.0281  0.6565 -0.6003
 4318WAT     H119077   4.070   1.927   4.202  0.9015 -0.7209 -0.9804
 4318WAT     H219078   4.056   1.844   4.076  0.0895  1.5087 -2.4220
 4318WAT    EPW19079   4.037   1.916   4.122  0.1514  0.5873 -0.8907
 4319WAT      O19080   2.244   2.081   8.488  0.5711  0.1587 -0.3348
 4319WAT     H119081   2.164   2.076   8.542  0.1104  3.4154 -0.5633
 4319WAT     H219082   2.216   2.124   8.408  2.3356  0.1403 -0.9875
 4319WAT    EPW19083   2.230   2.086   8.485  0.7430  0.5858 -0.4511
 4320WAT      O19084  -1.959   8.301   8.573  0.0618 -0.3738  0.6788
 4320WAT     H119085  -1.973   8.325   8.481  1.2661 -2.2156 -0.0266
 4320WAT     H219086  -1.967   8.206   8.574  0.2975 -0.3973  2.4593
 4320WAT    EPW19087  -1.962   8.292   8.561  0.2517 -0.6199  0.8211
 4321WAT      O19088  -1.443   8.164   2.989 -0.5845 -0.0997  0.4821
 4321WAT     H119089  -1.445   8.136   3.081 -0.1575  2.8421  1.5195
 4321WAT     H219090  -1.535   8.180   2.967 -0.6990 -0.9308  0.3429
 4321WAT    EPW19091  -1.455   8.163   2.998 -0.5433  0.1788  0.6006
 4322WAT      O19092  -5.395   9.972   4.937 -0.1715  0.7408  0.3221
 4322WAT     H119093  -5.444   9.930   4.867  1.3153  1.3073 -1.1182
 4322WAT     H219094  -5.462  10.001   4.999 -1.4524 -0.7025 -0.3124
 4322WAT    EPW19095  -5.410   9.970   4.936 -0.1445  0.6256  0.0486
 4323WAT      O19096  -1.523   9.092   6.544 -0.2893 -0.3223  0.1901
 4323WAT     H119097  -1.464   9.040   6.598  0.9554  2.6600  1.9336
 4323WAT     H219098  -1.484   9.091   6.457  1.1271 -0.2436  0.8044
 4323WAT    EPW19099  -1.510   9.085   6.540  0.0617  0.0815  0.5012
 4324WAT      O19100  -2.324   3.017   5.684  0.5878  0.0739  0.3589
 4324WAT     H119101  -2.370   3.094   5.652 -0.6564 -1.1415 -0.9004
 4324WAT     H219102  -2.347   3.012   5.777  0.5912  1.1352  0.4261
 4324WAT    EPW19103  -2.333   3.027   5.692  0.4241  0.0536  0.2017
 4325WAT      O19104   0.546   6.433   4.061 -0.0705  0.2220 -0.5373
 4325WAT     H119105   0.562   6.412   4.153  1.7649 -0.3076 -0.9432
 4325WAT     H219106   0.452   6.421   4.050  0.0010 -1.9156  0.7217
 4325WAT    EPW19107   0.536   6.429   4.072  0.1810 -0.1297 -0.4249
 4326WAT      O19108   6.207   6.235   1.136 -0.2231  0.0464  0.1901
 4326WAT     H119109   6.161   6.153   1.118  2.1297 -1.5208  0.8439
 4326WAT     H219110   6.252   6.219   1.219  2.1804  1.1340 -0.8218
 4326WAT    EPW19111   6.207   6.222   1.145  0.4044 -0.0169  0.1429
 4327WAT      O19112  -1.681   8.448   3.414 -0.8839 -0.1355 -0.3759
 4327WAT     H119113  -1.605   8.402   3.379 -1.2526 -0.2637 -1.0279
 4327WAT     H219114  -1.694   8.410   3.501 -0.3876 -0.3263 -0.3828
 4327WAT    EPW19115  -1.673   8.437   3.421 -0.8671 -0.1774 -0.4629
 4328WAT      O19116   8.325   0.643   1.785  0.2056 -0.2558 -0.3438
 4328WAT     H119117   8.373   0.697   1.848  1.1952  0.2597 -1.5051
 4328WAT     H219118   8.393   0.593   1.740 -0.6758 -2.5022  0.6622
 4328WAT    EPW19119   8.341   0.643   1.788  0.2198 -0.4841 -0.3642
 4329WAT      O19120  -4.251   5.631   8.605 -0.2571  0.5456  0.6156
 4329WAT     H119121  -4.280   5.716   8.639  0.8015  0.0735  2.9144
 4329WAT     H219122  -4.167   5.650   8.562 -0.4738  0.8007  0.3055
 4329WAT    EPW19123  -4.244   5.645   8.603 -0.1459  0.5169  0.8779
 4330WAT      O19124   4.363   0.388   5.064 -0.0907 -0.6836  0.4049
 4330WAT     H119125   4.378   0.474   5.025 -5.8000  2.1716  3.2498
 4330WAT     H219126   4.427   0.384   5.136  1.7308  0.0437 -1.0865
 4330WAT    EPW19127   4.374   0.399   5.068 -0.6037 -0.2111  0.5834
 4331WAT      O19128  -0.208   8.390   0.643 -0.1452 -0.4475  0.2317
 4331WAT     H119129  -0.141   8.329   0.675  0.8028  0.3234 -0.1983
 4331WAT     H219130  -0.291   8.347   0.660  0.2608 -0.1990  3.5527
 4331WAT    EPW19131  -0.210   8.377   0.650  0.0334 -0.3133  0.6130
 4332WAT      O19132   3.681   7.967   7.081  0.1280  0.4658  0.1723
 4332WAT     H119133   3.766   7.998   7.112 -0.4843  3.0393 -0.4573
 4332WAT     H219134   3.628   7.962   7.161  0.7204 -0.7398  0.5106
 4332WAT    EPW19135   3.685   7.970   7.096  0.1254  0.6464  0.1338
 4333WAT      O19136  -2.308   3.597   4.457 -0.3821 -0.4782 -0.3235
 4333WAT     H119137  -2.403   3.609   4.466 -0.2086 -0.2682  1.8836
 4333WAT     H219138  -2.278   3.677   4.415 -1.0206  0.1582  0.3966
 4333WAT    EPW19139  -2.317   3.609   4.453 -0.4435 -0.3666  0.0625
 4334WAT      O19140   2.433   2.431   5.274 -0.5795 -0.4253  0.8056
 4334WAT     H119141   2.422   2.338   5.256 -0.6721 -0.5970  1.7128
 4334WAT     H219142   2.523   2.450   5.248 -0.9439 -0.4622 -0.5907
 4334WAT    EPW19143   2.443   2.422   5.268 -0.6398 -0.4529  0.7410
 4335WAT      O19144  -3.801   7.575   4.636 -0.2842 -0.1977  0.2254
 4335WAT     H119145  -3.766   7.648   4.585 -1.8079  0.5504  0.1995
 4335WAT     H219146  -3.734   7.507   4.629  1.2215  1.1985  0.2994
 4335WAT    EPW19147  -3.787   7.576   4.629 -0.2865  0.0854  0.2315
 4336WAT      O19148  -0.487   8.796   4.327  0.1681  0.2127 -0.3296
 4336WAT     H119149  -0.461   8.733   4.260  0.1895  0.3895 -0.4855
 4336WAT     H219150  -0.430   8.871   4.314  1.1466 -0.2993  0.7764
 4336WAT    EPW19151  -0.476   8.797   4.317  0.3000  0.1683 -0.2043
 4337WAT      O19152   1.731   4.563   4.713  0.0747 -0.7249 -0.1392
 4337WAT     H119153   1.751   4.481   4.759  2.0374 -0.3414 -0.1853
 4337WAT     H219154   1.816   4.591   4.678 -0.7646  0.7447 -1.1093
 4337WAT    EPW19155   1.745   4.556   4.714  0.2229 -0.4804 -0.2732
 4338WAT      O19156  -6.556   9.568   8.110 -0.5426 -0.6347  0.1126
 4338WAT     H119157  -6.573   9.481   8.075  0.2255  0.2136 -2.5813
 4338WAT     H219158  -6.494   9.554   8.181  0.5096 -2.1966 -1.0543
 4338WAT    EPW19159  -6.550   9.555   8.115 -0.3026 -0.7291 -0.3967
 4339WAT      O19160   5.401   1.967   7.387 -0.1985  0.0972 -0.7385
 4339WAT     H119161   5.451   1.889   7.363  1.3561  0.5448  0.8601
 4339WAT     H219162   5.321   1.933   7.428  0.3799 -0.6505 -0.2284
 4339WAT    EPW19163   5.397   1.952   7.389  0.0830  0.0576 -0.4606
 4340WAT      O19164   0.002   8.393   5.620  0.6540  0.3599 -0.5881
 4340WAT     H119165  -0.015   8.429   5.533  1.2626  1.2129 -0.3651
 4340WAT     H219166  -0.034   8.458   5.680 -1.3306 -1.0066 -0.1699
 4340WAT    EPW19167  -0.005   8.406   5.616  0.4725  0.2923 -0.5033
 4341WAT      O19168   1.905   5.981   7.664 -0.2174 -0.1228  0.4380
 4341WAT     H119169   1.855   5.946   7.591  1.4542 -3.8582  0.8346
 4341WAT     H219170   1.843   6.035   7.713 -2.7729 -1.5418 -1.0540
 4341WAT    EPW19171   1.890   5.984   7.661 -0.3340 -0.8025  0.2935
 4342WAT      O19172  -0.620   6.521   3.153 -0.1066  0.3506 -0.2234
 4342WAT     H119173  -0.634   6.478   3.069 -2.6912 -1.3596  0.9518
 4342WAT     H219174  -0.548   6.472   3.193 -2.0277 -2.1246  0.4676
 4342WAT    EPW19175  -0.612   6.509   3.147 -0.7009 -0.2015  0.0228
 4343WAT      O19176   0.962   3.219   3.706  0.2924  0.3324  0.3519
 4343WAT     H119177   0.931   3.297   3.753 -4.0962 -0.3414 -1.0116
 4343WAT     H219178   0.902   3.150   3.732  2.3645 -1.9949 -0.6160
 4343WAT    EPW19179   0.950   3.220   3.716 -0.0132 -0.0634  0.0443
 4344WAT      O19180  -4.757  10.081   8.735  0.4434  0.0519 -0.1622
 4344WAT     H119181  -4.788  10.068   8.645  0.0214  0.5133 -0.0870
 4344WAT     H219182  -4.730   9.994   8.763 -4.1020 -1.2691  1.0080
 4344WAT    EPW19183  -4.758  10.068   8.726 -0.2117 -0.0615  0.0019
 4345WAT      O19184  -2.054   6.821   6.590  0.5418  0.1161  0.2216
 4345WAT     H119185  -2.007   6.894   6.630  3.2589 -0.3308 -1.8198
 4345WAT     H219186  -1.988   6.752   6.583 -0.8931 -1.1776 -1.3508
 4345WAT    EPW19187  -2.039   6.821   6.594  0.7110 -0.1135 -0.2551
 4346WAT      O19188  -2.915   8.074   4.772 -0.3446  0.2417  0.8762
 4346WAT     H119189  -2.830   8.071   4.729 -1.4975 -0.4480 -1.4887
 4346WAT     H219190  -2.965   8.001   4.735 -1.0695 -1.2614  4.3806
 4346WAT    EPW19191  -2.911   8.064   4.762 -0.5924 -0.0472  1.0264
 4347WAT      O19192   3.105   5.964   5.078  0.3787  0.4110  0.3722
 4347WAT     H119193   3.183   6.009   5.111 -1.2377  3.3478  0.5354
 4347WAT     H219194   3.066   6.026   5.016 -2.0986 -0.7255  0.6627
 4347WAT    EPW19195   3.110   5.978   5.074 -0.1612  0.6485  0.4320
 4348WAT      O19196  -3.760   8.847   2.842  0.4729 -0.1651  0.2840
 4348WAT     H119197  -3.788   8.771   2.790 -0.2445 -1.8285  2.8918
 4348WAT     H219198  -3.693   8.812   2.900  3.0467  2.1970 -1.0843
 4348WAT    EPW19199  -3.755   8.832   2.842  0.7178 -0.0734  0.4475
 4349WAT      O19200   3.440   6.528   4.714 -0.0644 -0.4756 -0.7792
 4349WAT     H119201   3.408   6.446   4.751  0.4406 -0.5583 -0.5294
 4349WAT     H219202   3.380   6.546   4.641  0.5762 -1.7210 -1.6393
 4349WAT    EPW19203   3.428   6.520   4.709  0.0867 -0.6506 -0.8595
 4350WAT      O19204  -0.653   0.994   4.248 -0.2713 -0.6363  0.0402
 4350WAT     H119205  -0.666   1.057   4.178 -1.1482  0.3905  1.0804
 4350WAT     H219206  -0.572   0.948   4.225 -0.3312 -0.0476 -1.4099
 4350WAT    EPW19207  -0.644   0.996   4.236 -0.3948 -0.4232 -0.0138
 4351WAT      O19208   0.285   8.355   5.592 -0.0420 -0.6696 -1.2252
 4351WAT     H119209   0.211   8.416   5.593 -0.2090 -0.8610 -1.6859
 4351WAT     H219210   0.317   8.355   5.682  0.3524  0.5650 -1.3479
 4351WAT    EPW19211   0.279   8.363   5.604 -0.0120 -0.5317 -1.3022
 4352WAT      O19212   3.866   2.411   2.167  0.3647 -0.4590 -0.0306
 4352WAT     H119213   3.851   2.360   2.247 -1.0623 -0.9519 -0.5855
 4352WAT     H219214   3.918   2.353   2.111 -1.5867 -1.5556 -0.8211
 4352WAT    EPW19215   3.871   2.396   2.170 -0.0809 -0.6686 -0.2080
 4353WAT      O19216   4.251   2.168   4.509 -0.6296 -0.9107 -0.2950
 4353WAT     H119217   4.318   2.128   4.564 -0.5727 -1.7361 -0.9410
 4353WAT     H219218   4.299   2.205   4.435 -0.4016  2.3282  1.2610
 4353WAT    EPW19219   4.266   2.168   4.507 -0.5920 -0.5924 -0.1750
 4354WAT      O19220  -0.733   4.971   0.836 -0.4922  0.5417 -0.2989
 4354WAT     H119221  -0.826   4.988   0.827 -1.0576 -2.1274 -0.3200
 4354WAT     H219222  -0.702   4.959   0.746 -0.2503  0.7811 -0.2504
 4354WAT    EPW19223  -0.741   4.972   0.823 -0.5348  0.2213 -0.2953
 4355WAT      O19224  -3.395   6.052   7.741 -0.2699 -0.4974 -0.4698
 4355WAT     H119225  -3.451   5.993   7.690 -3.8141 -0.2248  2.6926
 4355WAT     H219226  -3.362   5.997   7.812  4.3111 -0.7885 -2.4371
 4355WAT    EPW19227  -3.398   6.037   7.743 -0.1332 -0.4997 -0.3123
 4356WAT      O19228  -3.852   1.148   5.816 -0.2403  0.2085  0.3891
 4356WAT     H119229  -3.828   1.230   5.859 -0.6634 -1.0204  3.2200
 4356WAT     H219230  -3.786   1.135   5.749  0.5767  2.2306  0.7451
 4356WAT    EPW19231  -3.840   1.157   5.813 -0.1885  0.3131  0.8094
 4357WAT      O19232  -5.361   9.517   6.336 -0.2736 -0.6086 -0.6799
 4357WAT     H119233  -5.267   9.502   6.348 -0.5294 -0.1039  3.7137
 4357WAT     H219234  -5.367   9.610   6.313  0.3417 -0.2605  0.4447
 4357WAT    EPW19235  -5.349   9.527   6.335 -0.2260 -0.4959  0.0479
 4358WAT      O19236  -1.433  10.045   0.443 -0.4733 -0.3156  0.1209
 4358WAT     H119237  -1.374  10.078   0.511  0.0408  0.7712 -0.8403
 4358WAT     H219238  -1.483   9.976   0.488  2.4143 -2.2552  0.6494
 4358WAT    EPW19239  -1.432  10.040   0.458 -0.0246 -0.4282  0.0639
 4359WAT      O19240   0.797   9.020   3.340 -0.5140  0.8547  0.1645
 4359WAT     H119241   0.807   8.969   3.420  0.4892 -0.9472 -1.0329
 4359WAT     H219242   0.866   8.988   3.282 -4.0124 -1.5386 -3.2184
 4359WAT    EPW19243   0.808   9.009   3.343 -0.8431  0.3014 -0.4396
 4360WAT      O19244   1.366   8.461   7.627  0.3492 -0.1309 -0.0210
 4360WAT     H119245   1.434   8.466   7.560  0.5057 -0.4084  0.1137
 4360WAT     H219246   1.299   8.405   7.589 -1.0517  2.2141 -1.2257
 4360WAT    EPW19247   1.366   8.454   7.613  0.1851  0.1421 -0.1621
 4361WAT      O19248   5.622   8.670   3.299  0.1678  0.6054  0.1208
 4361WAT     H119249   5.648   8.577   3.297  0.3289  0.3575  4.3346
 4361WAT     H219250   5.528   8.668   3.287  0.3434  0.1062 -1.3932
 4361WAT    EPW19251   5.613   8.657   3.297  0.2122  0.5069  0.4768
 4362WAT      O19252   4.399   8.016   2.838  0.0224  0.3863 -0.2881
 4362WAT     H119253   4.353   7.940   2.802  2.5207 -0.7065 -1.3961
 4362WAT     H219254   4.470   7.979   2.890  0.8632  1.9633 -0.2558
 4362WAT    EPW19255   4.403   8.001   2.840  0.4628  0.4501 -0.4300
 4363WAT      O19256  -4.172   9.737   1.260 -0.1602  0.3386  0.2668
 4363WAT     H119257  -4.257   9.766   1.295 -0.5735 -0.1023 -0.3341
 4363WAT     H219258  -4.133   9.686   1.330  0.0940  1.4370  0.9478
 4363WAT    EPW19259  -4.178   9.734   1.274 -0.1812  0.4253  0.2773
 4364WAT      O19260  -5.637   6.052   8.476 -0.0835 -0.4555 -0.0472
 4364WAT     H119261  -5.588   5.988   8.528  0.0599 -0.0683  0.3035
 4364WAT     H219262  -5.721   6.061   8.520 -0.1824 -0.5519 -0.2130
 4364WAT    EPW19263  -5.641   6.045   8.488 -0.0775 -0.4172 -0.0229
 4365WAT      O19264  -2.349   8.886   6.940 -0.5154 -0.5295 -0.7927
 4365WAT     H119265  -2.257   8.861   6.940  0.2716  2.0499 -1.2867
 4365WAT     H219266  -2.374   8.883   6.848 -0.9040 -1.0554 -0.6772
 4365WAT    EPW19267  -2.340   8.882   6.928 -0.4628 -0.2584 -0.8426
 4366WAT      O19268   0.837   9.161   6.820 -0.0594  0.0550  0.5389
 4366WAT     H119269   0.867   9.214   6.894 -2.2923 -1.1556  2.4511
 4366WAT     H219270   0.778   9.097   6.859 -2.7096  0.3797 -2.4744
 4366WAT    EPW19271   0.833   9.160   6.835 -0.7035 -0.0620  0.3939
 4367WAT      O19272   7.130   9.007   0.637 -0.0375 -0.1044 -0.3102
 4367WAT     H119273   7.075   8.996   0.560  0.1019  1.3661 -0.6492
 4367WAT     H219274   7.113   8.929   0.690 -3.0453  0.6269 -0.0064
 4367WAT    EPW19275   7.121   8.995   0.634 -0.4158  0.1860 -0.3149
 4368WAT      O19276  -5.648   5.261   8.605 -0.3083 -0.2664 -0.0417
 4368WAT     H119277  -5.724   5.202   8.603 -3.1784  3.0746 -2.9649
 4368WAT     H219278  -5.661   5.314   8.684 -1.1003  0.3176 -0.5511
 4368WAT    EPW19279  -5.660   5.260   8.615 -0.7911  0.2513 -0.4945
 4369WAT      O19280   5.208   7.752   1.376 -0.0315  0.1355 -0.3255
 4369WAT     H119281   5.300   7.750   1.404 -0.1941 -1.6168  0.2159
 4369WAT     H219282   5.187   7.661   1.357 -2.4638  0.0022  2.3338
 4369WAT    EPW19283   5.218   7.740   1.378 -0.3738 -0.1132  0.0967
 4370WAT      O19284   1.886   4.090   6.755 -0.3669 -0.2049  0.1665
 4370WAT     H119285   1.892   3.999   6.725 -0.7116 -0.3130  0.4132
 4370WAT     H219286   1.872   4.083   6.850  0.0971  0.1187  0.2648
 4370WAT    EPW19287   1.885   4.077   6.764 -0.3512 -0.1764  0.2122
 4371WAT      O19288  -0.674   7.851   8.253  0.0585 -0.2916 -0.2498
 4371WAT     H119289  -0.646   7.776   8.305  2.8772  1.3151  0.7536
 4371WAT     H219290  -0.684   7.816   8.164 -0.7189 -2.2130  0.5269
 4371WAT    EPW19291  -0.672   7.836   8.248  0.3277 -0.3331 -0.0153
 4372WAT      O19292   2.874   8.145   1.148 -0.8741  0.2824  0.4469
 4372WAT     H119293   2.838   8.062   1.116  5.9351 -2.8929 -1.0634
 4372WAT     H219294   2.903   8.125   1.237  0.2445  1.2134  0.3217
 4372WAT    EPW19295   2.873   8.131   1.155  0.1715 -0.0138  0.2311
 4373WAT      O19296   1.928   2.933   4.266  0.6707  0.5202 -0.1285
 4373WAT     H119297   1.863   2.999   4.243  1.5461  1.7347  0.7740
 4373WAT     H219298   1.948   2.890   4.183 -0.3719  0.9453 -0.6243
 4373WAT    EPW19299   1.922   2.936   4.252  0.6486  0.7364 -0.0749
 4374WAT      O19300  -0.196   3.687   0.816  0.1563  0.1425  0.0107
 4374WAT     H119301  -0.126   3.730   0.864 -1.4361  1.9686  0.8421
 4374WAT     H219302  -0.269   3.749   0.820 -1.4482 -1.5830 -0.9744
 4374WAT    EPW19303  -0.196   3.701   0.823 -0.2654  0.1558 -0.0096
 4375WAT      O19304   5.913   2.603   0.292 -0.6226  0.4651  0.0655
 4375WAT     H119305   5.889   2.644   0.209  0.0739 -0.4435 -0.6034
 4375WAT     H219306   5.999   2.639   0.312 -1.6949  2.3688  1.5570
 4375WAT    EPW19307   5.921   2.613   0.284 -0.6721  0.5963  0.1740
 4376WAT      O19308  -0.212   6.141   1.315  0.2605 -0.3522  0.7792
 4376WAT     H119309  -0.137   6.131   1.256 -0.2207  1.6820 -0.2717
 4376WAT     H219310  -0.282   6.090   1.274  0.5884 -0.8398  0.8284
 4376WAT    EPW19311  -0.211   6.133   1.302  0.2403 -0.1483  0.6470
 4377WAT      O19312   5.458   4.341   6.027  0.6774 -0.4006 -0.2484
 4377WAT     H119313   5.522   4.363   5.959  0.0502  1.5302 -0.2781
 4377WAT     H219314   5.507   4.287   6.089  1.7770 -0.6338 -1.2778
 4377WAT    EPW19315   5.473   4.337   6.026  0.7398 -0.1767 -0.3881
 4378WAT      O19316  -1.505   9.771   8.541  0.1964 -0.0547 -0.8396
 4378WAT     H119317  -1.568   9.721   8.592 -0.0013 -1.3785 -2.2865
 4378WAT     H219318  -1.422   9.726   8.555 -0.1939 -1.6707 -3.0956
 4378WAT    EPW19319  -1.503   9.758   8.549  0.1189 -0.4425 -1.3280
 4379WAT      O19320  -1.963   7.125   2.358  0.4788  0.0404 -0.1921
 4379WAT     H119321  -2.011   7.095   2.435  3.3376  0.7916  2.0895
 4379WAT     H219322  -1.907   7.051   2.334 -0.6779 -0.3427 -1.9354
 4379WAT    EPW19323  -1.962   7.111   2.365  0.7033  0.0889 -0.1211
 4380WAT      O19324  -1.242   8.742   1.684  0.4116  0.2321  0.5551
 4380WAT     H119325  -1.156   8.773   1.712  0.2596  0.8326  0.3611
 4380WAT     H219326  -1.292   8.731   1.765  0.9030 -0.8381  0.7282
 4380WAT    EPW19327  -1.237   8.745   1.698  0.4563  0.1702  0.5523
 4381WAT      O19328   1.971   0.504   1.248  0.0795 -0.5532 -0.9141
 4381WAT     H119329   1.915   0.560   1.301  1.5608  0.9456 -0.8443
 4381WAT     H219330   1.995   0.432   1.306 -0.0422 -0.0684 -0.2499
 4381WAT    EPW19331   1.967   0.502   1.263  0.2589 -0.2916 -0.8173
 4382WAT      O19332  -1.949   5.640   5.131 -0.4113  0.3982 -0.7718
 4382WAT     H119333  -1.957   5.581   5.056  0.5219 -0.2518 -0.3756
 4382WAT     H219334  -2.001   5.600   5.200  0.4680 -0.1416 -0.4065
 4382WAT    EPW19335  -1.957   5.627   5.130 -0.1722  0.2415 -0.6714
 4383WAT      O19336  -1.578   2.352   1.760 -0.1661 -0.0698  0.2897
 4383WAT     H119337  -1.486   2.372   1.745  0.2693 -1.4855  0.9423
 4383WAT     H219338  -1.600   2.399   1.841 -0.8329  2.5145 -1.2503
 4383WAT    EPW19339  -1.569   2.361   1.768 -0.1966  0.0843  0.1727
 4384WAT      O19340  -1.772   9.701   6.888 -0.1875  0.3890  0.0244
 4384WAT     H119341  -1.703   9.756   6.851  1.0213 -0.2881  1.1635
 4384WAT     H219342  -1.788   9.738   6.975 -1.8676  1.0164 -0.5109
 4384WAT    EPW19343  -1.765   9.713   6.894 -0.2497  0.3824  0.1040
 4385WAT      O19344   5.015   6.007   5.952 -0.1021  0.2830 -0.5753
 4385WAT     H119345   5.039   5.977   5.864  1.1414 -1.0340  0.1794
 4385WAT     H219346   5.035   5.933   6.009 -3.5140  0.0432  0.5307
 4385WAT    EPW19347   5.021   5.993   5.948 -0.3879  0.0777 -0.3297
 4386WAT      O19348   2.307   5.447   3.845  0.2624 -1.1829 -0.6437
 4386WAT     H119349   2.401   5.453   3.828 -0.0342  0.5212 -2.0578
 4386WAT     H219350   2.268   5.508   3.781 -1.6446 -0.4438  1.1285
 4386WAT    EPW19351   2.315   5.456   3.834 -0.0283 -0.8609 -0.5965
 4387WAT      O19352   0.430   3.287   0.473 -0.1590 -0.3151 -0.2129
 4387WAT     H119353   0.371   3.279   0.397 -0.2472 -0.7570 -0.1012
 4387WAT     H219354   0.371   3.289   0.548 -0.0003 -1.8346 -0.0219
 4387WAT    EPW19355   0.414   3.286   0.473 -0.1497 -0.5738 -0.1730
 4388WAT      O19356  -3.415   3.857   3.837 -0.3598 -0.2599 -0.3265
 4388WAT     H119357  -3.393   3.765   3.830  0.1157 -0.3889  2.0124
 4388WAT     H219358  -3.397   3.893   3.750 -0.7920 -2.3847 -1.3494
 4388WAT    EPW19359  -3.410   3.850   3.825 -0.3541 -0.5571 -0.1529
 4389WAT      O19360   7.275   0.598   0.470  0.1301  0.5599 -0.4133
 4389WAT     H119361   7.194   0.584   0.519  0.5948  0.7170  0.4239
 4389WAT     H219362   7.340   0.545   0.516  0.4755  0.3238 -1.1594
 4389WAT    EPW19363   7.273   0.589   0.482  0.2370  0.5495 -0.4013
 4390WAT      O19364  -4.598   0.291   8.809  1.1207 -0.2152 -0.3929
 4390WAT     H119365  -4.518   0.281   8.861  1.1980 -0.5762 -0.5800
 4390WAT     H219366  -4.585   0.371   8.760  1.4436 -0.3642 -0.5530
 4390WAT    EPW19367  -4.586   0.300   8.810  1.1735 -0.2825 -0.4392
 4391WAT      O19368  -0.949   4.334   2.719  0.1542  0.0733  0.6893
 4391WAT     H119369  -1.016   4.358   2.654  0.1084  0.5228  0.8990
 4391WAT     H219370  -0.995   4.338   2.803  0.1547 -0.7299  0.7340
 4391WAT    EPW19371  -0.964   4.338   2.721  0.1483  0.0265  0.7228
 4392WAT      O19372  -1.084   5.825   3.992 -0.1523  0.5609 -0.4308
 4392WAT     H119373  -1.068   5.916   3.966 -0.6217  1.5622  2.3898
 4392WAT     H219374  -0.997   5.792   4.014 -0.2544  1.3733  1.3868
 4392WAT    EPW19375  -1.070   5.833   3.992 -0.2277  0.8001  0.1811
 4393WAT      O19376  -3.863   1.982   5.417 -0.3249  0.0960 -0.0243
 4393WAT     H119377  -3.826   1.915   5.476  0.8518  0.6310 -0.1237
 4393WAT     H219378  -3.831   2.065   5.453 -1.6645  0.6097  0.0152
 4393WAT    EPW19379  -3.854   1.984   5.430 -0.3464  0.2344 -0.0322
 4394WAT      O19380   4.219   6.092   5.926 -0.0859 -0.7357  0.3481
 4394WAT     H119381   4.141   6.115   5.976 -1.3422 -0.3492 -1.6541
 4394WAT     H219382   4.276   6.168   5.935 -0.9735 -0.0015 -0.0593
 4394WAT    EPW19383   4.216   6.105   5.934 -0.3686 -0.5879  0.0303
 4395WAT      O19384  -4.442   3.449   8.509 -0.2914 -0.5071 -0.2358
 4395WAT     H119385  -4.359   3.406   8.526  0.7355  1.3886 -0.1287
 4395WAT     H219386  -4.421   3.516   8.443 -1.9242 -0.5713 -0.8696
 4395WAT    EPW19387  -4.428   3.452   8.503 -0.3715 -0.2655 -0.3052
 4396WAT      O19388  -1.774   7.116   5.897  0.4794 -0.5044  0.2409
 4396WAT     H119389  -1.744   7.043   5.951  2.2163  0.4408  0.6014
 4396WAT     H219390  -1.870   7.105   5.894  0.4261 -1.1785  2.6367
 4396WAT    EPW19391  -1.783   7.105   5.904  0.7014 -0.4687  0.6044
 4397WAT      O19392  -1.421   0.229   8.135 -0.4942 -0.3247 -0.2645
 4397WAT     H119393  -1.446   0.280   8.058 -1.7952 -1.2521 -0.4950
 4397WAT     H219394  -1.334   0.262   8.159 -1.4836  2.3551 -0.0588
 4397WAT    EPW19395  -1.413   0.240   8.128 -0.7963 -0.0935 -0.2680
 4398WAT      O19396  -1.896   3.961   5.001  0.0371 -0.1286  0.0829
 4398WAT     H119397  -1.914   3.900   4.930  1.5178  0.0655 -0.5073
 4398WAT     H219398  -1.965   4.027   4.994 -0.8169 -1.0104 -0.0878
 4398WAT    EPW19399  -1.907   3.962   4.991  0.1197 -0.2193 -0.0174
 4399WAT      O19400   2.173   2.264   4.113 -0.0352  0.2555 -0.4395
 4399WAT     H119401   2.201   2.306   4.032  0.9039 -1.4441 -1.0351
 4399WAT     H219402   2.161   2.172   4.090 -2.0544  0.1323  0.8194
 4399WAT    EPW19403   2.175   2.258   4.099 -0.1777  0.0150 -0.3519
 4400WAT      O19404  -0.625   9.016   2.119  0.5163  0.0424  0.4447
 4400WAT     H119405  -0.702   9.072   2.106  0.4845 -0.4655 -2.1230
 4400WAT     H219406  -0.553   9.064   2.077  0.7081 -1.2903 -0.8550
 4400WAT    EPW19407  -0.626   9.030   2.112  0.5374 -0.2003 -0.0654
 4401WAT      O19408  -2.231   6.367   2.454  0.0097 -0.2296  0.2535
 4401WAT     H119409  -2.268   6.358   2.367  0.0097 -1.6889  0.3769
 4401WAT     H219410  -2.156   6.426   2.443  0.4879 -1.0254 -0.8886
 4401WAT    EPW19411  -2.226   6.374   2.441  0.0728 -0.5271  0.1192
 4402WAT      O19412   8.463   0.824   2.406  0.1764 -0.4661  0.5921
 4402WAT     H119413   8.447   0.823   2.500  0.3656 -3.8429  0.6994
 4402WAT     H219414   8.376   0.818   2.367  0.1645 -0.1976  0.5734
 4402WAT    EPW19415   8.449   0.823   2.413  0.1998 -0.8761  0.6038
 4403WAT      O19416  -4.745   1.689   7.585  1.0318 -0.0021  0.2023
 4403WAT     H119417  -4.687   1.642   7.525  0.1331  0.6276 -1.2061
 4403WAT     H219418  -4.823   1.634   7.592  1.2999 -0.2881  1.1797
 4403WAT    EPW19419  -4.747   1.676   7.578  0.9487  0.0432  0.1454
 4404WAT      O19420   3.178   8.042   2.704  0.0946  0.8754 -0.4407
 4404WAT     H119421   3.194   8.042   2.610 -0.2785 -0.1504 -0.5110
 4404WAT     H219422   3.096   8.091   2.714 -0.0300  0.7176 -0.6806
 4404WAT    EPW19423   3.169   8.049   2.693  0.0290  0.7191 -0.4816
 4405WAT      O19424  -4.813   7.509   3.669  0.6896 -0.5144  0.6867
 4405WAT     H119425  -4.803   7.596   3.707  0.8105 -0.5434  0.7231
 4405WAT     H219426  -4.726   7.487   3.635  0.9281 -1.0333  1.5784
 4405WAT    EPW19427  -4.800   7.518   3.670  0.7370 -0.5865  0.8092
 4406WAT      O19428   1.424  10.085   8.572  0.3862 -0.6897  0.1929
 4406WAT     H119429   1.511  10.098   8.536  0.4210  0.5482  0.6784
 4406WAT     H219430   1.400  10.170   8.609 -0.7321 -1.2018  0.7015
 4406WAT    EPW19431   1.432  10.098   8.572  0.2433 -0.5941  0.3242
 4407WAT      O19432   5.079   0.386   3.391 -0.1678 -0.3268  0.0445
 4407WAT     H119433   5.027   0.440   3.330  1.7465  1.4915 -0.0798
 4407WAT     H219434   5.038   0.402   3.476 -1.7119 -1.4267 -0.4330
 4407WAT    EPW19435   5.067   0.395   3.394 -0.1190 -0.2320 -0.0348
 4408WAT      O19436   1.098   0.450   8.564 -1.2437 -0.5293  0.1417
 4408WAT     H119437   1.164   0.486   8.505 -2.4019  2.1260  0.3443
 4408WAT     H219438   1.144   0.435   8.646 -0.4974 -0.5474 -0.2712
 4408WAT    EPW19439   1.113   0.453   8.567 -1.2981 -0.1815  0.1144
 4409WAT      O19440   1.081   1.235   8.947 -0.1829 -0.0480  0.0973
 4409WAT     H119441   1.039   1.211   8.865 -2.4588  1.1985  0.8209
 4409WAT     H219442   1.090   1.330   8.944  2.8260 -0.2304 -0.0484
 4409WAT    EPW19443   1.076   1.244   8.936 -0.0862  0.0923  0.1731
 4410WAT      O19444  -2.258   8.898   7.417  0.2019 -0.0536  0.5836
 4410WAT     H119445  -2.260   8.884   7.512 -0.2633 -0.1524  0.5607
 4410WAT     H219446  -2.332   8.848   7.384  0.5136 -0.2293  0.1365
 4410WAT    EPW19447  -2.268   8.889   7.425  0.1816 -0.0896  0.5217
 4411WAT      O19448  -4.440  10.009   7.587 -0.2689 -0.3358 -0.0601
 4411WAT     H119449  -4.450   9.933   7.644  0.7862 -0.0574  0.5324
 4411WAT     H219450  -4.355   9.996   7.544 -1.0009 -0.4898 -1.5152
 4411WAT    EPW19451  -4.430   9.998   7.589 -0.2263 -0.3195 -0.1738
 4412WAT      O19452   8.422   1.552   0.302  0.5725  0.2033  0.0718
 4412WAT     H119453   8.460   1.639   0.312 -0.1276  0.9194 -2.7985
 4412WAT     H219454   8.420   1.536   0.208 -1.2047 -2.0814  0.3890
 4412WAT    EPW19455   8.426   1.561   0.291  0.2460 -0.0036 -0.2650
 4413WAT      O19456   1.026   1.520   3.260  0.8444 -0.1085  0.1463
 4413WAT     H119457   1.091   1.513   3.190 -0.8298 -0.9868 -1.4072
 4413WAT     H219458   1.035   1.438   3.309  0.7218 -0.3572 -0.2443
 4413WAT    EPW19459   1.035   1.508   3.258  0.6074 -0.2571 -0.1101
 4414WAT      O19460   1.004   3.834   6.249  0.5899  0.1834  0.0215
 4414WAT     H119461   1.086   3.802   6.288 -0.4808 -1.1263  1.3227
 4414WAT     H219462   0.938   3.821   6.317 -0.5552  2.1528 -0.6313
 4414WAT    EPW19463   1.006   3.828   6.263  0.2976  0.2705  0.1070
 4415WAT      O19464   0.796   9.875   2.938  0.9055 -0.9995 -0.1230
 4415WAT     H119465   0.785   9.863   3.033 -0.7599  0.6593 -0.0341
 4415WAT     H219466   0.862   9.944   2.930 -1.3320  1.3049  0.0448
 4415WAT    EPW19467   0.803   9.883   2.950  0.3907 -0.4768 -0.0892
 4416WAT      O19468  -4.829   3.323   8.539 -0.1218  0.2042  0.5885
 4416WAT     H119469  -4.866   3.315   8.627 -2.7090 -0.5229 -0.4457
 4416WAT     H219470  -4.797   3.413   8.535 -2.0624  1.0191  1.6034
 4416WAT    EPW19471  -4.830   3.334   8.550 -0.7191  0.2158  0.5856
 4417WAT      O19472  -1.511   9.299   7.223  0.6372 -0.7183  0.3184
 4417WAT     H119473  -1.459   9.369   7.183 -0.6271 -0.6730 -1.3556
 4417WAT     H219474  -1.456   9.221   7.214  0.5958 -0.6100 -1.1203
 4417WAT    EPW19475  -1.497   9.298   7.216  0.4650 -0.6981 -0.0920
 4418WAT      O19476   0.632   8.280   5.099 -0.3853  0.6105  0.0820
 4418WAT     H119477   0.705   8.314   5.047  0.2616 -1.7886 -0.7245
 4418WAT     H219478   0.554   8.320   5.061  0.2870  0.8786 -1.0543
 4418WAT    EPW19479   0.632   8.289   5.087 -0.2113  0.3295 -0.1743
 4419WAT      O19480  -0.647   7.015   2.140  0.4974  0.1518 -0.4086
 4419WAT     H119481  -0.698   7.093   2.165 -0.6735 -0.4626 -0.8306
 4419WAT     H219482  -0.652   6.958   2.216  2.8301  1.1404  0.6121
 4419WAT    EPW19483  -0.654   7.018   2.154  0.6506  0.2010 -0.3296
 4420WAT      O19484   4.583   9.003   1.111  0.1995  0.0747  0.6147
 4420WAT     H119485   4.599   9.061   1.037  2.1321  1.8023  2.2550
 4420WAT     H219486   4.643   8.930   1.098  0.6632  0.4636  0.5522
 4420WAT    EPW19487   4.593   9.001   1.100  0.5157  0.3538  0.8228
 4421WAT      O19488   7.416   0.792   0.775  0.3235  0.5562 -0.0404
 4421WAT     H119489   7.413   0.817   0.682  3.0571 -0.3447 -0.4507
 4421WAT     H219490   7.437   0.873   0.821 -1.1080  1.0206 -0.1562
 4421WAT    EPW19491   7.419   0.806   0.769  0.4952  0.4987 -0.1098
 4422WAT      O19492   4.800   8.891   0.345  1.2703  0.2858 -0.9189
 4422WAT     H119493   4.778   8.978   0.312 -1.5069  0.7046  1.6314
 4422WAT     H219494   4.722   8.838   0.329 -0.0232  0.3251  3.7427
 4422WAT    EPW19495   4.787   8.896   0.339  0.7334  0.3457  0.0323
 4423WAT      O19496   1.045   1.665   2.169  0.3102  0.1511 -0.1442
 4423WAT     H119497   1.138   1.680   2.185  0.5221 -0.6188 -0.6063
 4423WAT     H219498   1.026   1.713   2.089  0.5843 -0.5990 -0.6721
 4423WAT    EPW19499   1.054   1.673   2.161  0.3743 -0.0494 -0.2747
 4424WAT      O19500  -4.469   3.345   5.949  0.6723 -0.2898  0.2491
 4424WAT     H119501  -4.476   3.412   5.882  0.3560  0.7338  1.2584
 4424WAT     H219502  -4.506   3.266   5.909 -1.3705  0.7940 -0.1560
 4424WAT    EPW19503  -4.475   3.344   5.935  0.3610 -0.0118  0.3288
 4425WAT      O19504  -4.480   7.230   5.542  0.4052  0.3147  0.7122
 4425WAT     H119505  -4.526   7.213   5.624  1.2200  2.7257  1.7694
 4425WAT     H219506  -4.537   7.291   5.494 -1.5690 -3.3233 -2.0944
 4425WAT    EPW19507  -4.493   7.236   5.546  0.2525  0.1528  0.4814
 4426WAT      O19508   1.652   3.113   8.300  0.2292  0.6795  0.4203
 4426WAT     H119509   1.581   3.058   8.333  0.7486  0.0544  0.5061
 4426WAT     H219510   1.637   3.117   8.205  0.7805 -0.4796  0.2703
 4426WAT    EPW19511   1.641   3.107   8.292  0.3704  0.4442  0.4115
 4427WAT      O19512  -3.882  10.273   2.441 -0.9654 -0.6713 -0.7243
 4427WAT     H119513  -3.904  10.179   2.443 -1.4352 -0.6124  2.3751
 4427WAT     H219514  -3.858  10.293   2.531 -4.6986  3.0209 -0.2803
 4427WAT    EPW19515  -3.882  10.263   2.453 -1.5198 -0.1764 -0.2570
 4428WAT      O19516   7.420   2.551   2.800 -0.0700 -0.1072  0.0961
 4428WAT     H119517   7.332   2.517   2.814 -0.4910  0.5092 -0.9141
 4428WAT     H219518   7.429   2.622   2.864 -1.3827  1.6541 -1.5252
 4428WAT    EPW19519   7.410   2.556   2.810 -0.2987  0.2064 -0.2509
 4429WAT      O19520  -3.357   1.619   7.627  0.5769 -0.4993 -0.4418
 4429WAT     H119521  -3.382   1.637   7.718 -2.2388  0.3701 -1.2712
 4429WAT     H219522  -3.404   1.685   7.576  1.6760 -1.2805 -2.5773
 4429WAT    EPW19523  -3.367   1.630   7.632  0.3505 -0.4877 -0.8330
 4430WAT      O19524  -0.087   9.780   8.579  0.1472  0.5197  0.2784
 4430WAT     H119525  -0.109   9.687   8.573  0.0001  0.6469 -2.3424
 4430WAT     H219526  -0.041   9.789   8.663 -0.5328 -1.7362  0.9595
 4430WAT    EPW19527  -0.084   9.769   8.589  0.0381  0.2389  0.0229
 4431WAT      O19528  -5.318   5.757   6.015  0.0617 -0.9557  0.2729
 4431WAT     H119529  -5.411   5.777   6.009  0.1154 -1.1365 -2.4667
 4431WAT     H219530  -5.276   5.812   5.948  2.0654 -0.3003  1.9587
 4431WAT    EPW19531  -5.324   5.767   6.005  0.3331 -0.8931  0.1340
 4432WAT      O19532  -0.107   0.387   4.181  0.9757  0.2731  0.4324
 4432WAT     H119533  -0.044   0.367   4.111  0.6448  0.2924  0.1277
 4432WAT     H219534  -0.057   0.375   4.262  0.6577 -2.3030  0.3169
 4432WAT    EPW19535  -0.092   0.383   4.182  0.8901 -0.0641  0.3769
 4433WAT      O19536   1.840   8.441   8.754 -0.3150  0.4821  0.9116
 4433WAT     H119537   1.921   8.390   8.752 -0.0127  0.9646 -0.4023
 4433WAT     H219538   1.770   8.376   8.747  0.0893  0.2086 -3.3274
 4433WAT    EPW19539   1.841   8.426   8.753 -0.2218  0.5097  0.1793
 4434WAT      O19540   1.608   9.847   4.632 -0.4245  0.3701 -0.2403
 4434WAT     H119541   1.645   9.898   4.560 -1.4159  0.0748 -0.9929
 4434WAT     H219542   1.558   9.910   4.683 -0.3988  0.4285 -0.2870
 4434WAT    EPW19543   1.606   9.862   4.629 -0.5518  0.3390 -0.3457
 4435WAT      O19544  -5.359   9.122   4.141  0.8286 -0.3619 -0.6618
 4435WAT     H119545  -5.379   9.213   4.121 -0.8858 -0.6918 -0.6081
 4435WAT     H219546  -5.371   9.114   4.235 -2.0648 -1.2710 -1.0121
 4435WAT    EPW19547  -5.363   9.133   4.150  0.2208 -0.5260 -0.7010
 4436WAT      O19548  -2.585  10.340   7.946  0.1508  0.2186  0.5023
 4436WAT     H119549  -2.628  10.259   7.974  2.9033 -3.2664 -4.0322
 4436WAT     H219550  -2.528  10.363   8.019 -0.9684 -1.6776  2.0658
 4436WAT    EPW19551  -2.583  10.333   7.960  0.3662 -0.4911  0.1106
 4437WAT      O19552  -0.802   6.905   8.356 -0.0091  0.3030  0.2159
 4437WAT     H119553  -0.739   6.942   8.294  1.9204 -1.8608  0.7304
 4437WAT     H219554  -0.849   6.838   8.305 -1.1695  1.1756  0.1173
 4437WAT    EPW19555  -0.800   6.901   8.341  0.0924  0.1326  0.2708
 4438WAT      O19556   3.120   1.385   3.672 -0.0665 -0.5944 -0.1538
 4438WAT     H119557   3.067   1.361   3.748 -0.0894 -0.7323 -0.2120
 4438WAT     H219558   3.136   1.302   3.627 -1.7502 -0.3231 -1.3975
 4438WAT    EPW19559   3.115   1.371   3.676 -0.2916 -0.5768 -0.3254
 4439WAT      O19560   3.713   3.236   5.129  0.5155 -0.4743  0.1584
 4439WAT     H119561   3.664   3.313   5.156  0.1789 -1.0599  1.2785
 4439WAT     H219562   3.766   3.213   5.206  0.9407 -1.0981 -0.3117
 4439WAT    EPW19563   3.713   3.243   5.143  0.5271 -0.6338  0.2441
 4440WAT      O19564  -0.779   7.793   2.423 -0.0101 -0.6694  0.4422
 4440WAT     H119565  -0.802   7.883   2.444  0.0335 -0.4598 -0.3843
 4440WAT     H219566  -0.825   7.774   2.342  0.0458 -1.3716  0.5640
 4440WAT    EPW19567  -0.788   7.802   2.415  0.0030 -0.7343  0.3493
 4441WAT      O19568   0.830   6.138   7.987  1.0530 -0.5504 -0.4716
 4441WAT     H119569   0.778   6.083   8.046  0.6657  1.5026  1.2182
 4441WAT     H219570   0.875   6.199   8.045  1.4596  0.9293 -2.2538
 4441WAT    EPW19571   0.829   6.139   8.003  1.0556 -0.0846 -0.4835
 4442WAT      O19572   4.477   1.290   6.197 -0.1202  0.3556 -0.4933
 4442WAT     H119573   4.404   1.340   6.163 -0.7556 -0.8368 -0.9279
 4442WAT     H219574   4.447   1.200   6.197  0.8386  0.0045  0.6761
 4442WAT    EPW19575   4.464   1.285   6.193 -0.0777  0.1520 -0.3965
 4443WAT      O19576  -5.620   9.713   4.395  0.3197  0.2093  0.1724
 4443WAT     H119577  -5.676   9.790   4.382  0.5315  0.1505 -1.2243
 4443WAT     H219578  -5.564   9.711   4.317  1.7640 -0.1711  1.1916
 4443WAT    EPW19579  -5.620   9.723   4.383  0.5381  0.1516  0.1228
 4444WAT      O19580   5.391   0.798   6.518  0.1988 -1.1208  1.0484
 4444WAT     H119581   5.369   0.770   6.429 -0.8232  0.4965  0.7428
 4444WAT     H219582   5.411   0.717   6.565  1.8514 -1.9387 -0.9210
 4444WAT    EPW19583   5.391   0.784   6.512  0.2820 -1.0154  0.7484
 4445WAT      O19584   6.852   5.715   2.604  0.1256 -0.0734  0.6493
 4445WAT     H119585   6.944   5.705   2.578 -0.5918 -0.1011 -2.1418
 4445WAT     H219586   6.854   5.711   2.700  2.9753 -0.4448  0.6573
 4445WAT    EPW19587   6.865   5.713   2.613  0.4067 -0.1261  0.2823
 4446WAT      O19588   0.447   0.307   0.492 -0.8829  0.0991 -0.6945
 4446WAT     H119589   0.525   0.359   0.508 -1.2653  0.7192 -0.8359
 4446WAT     H219590   0.474   0.243   0.426 -0.8974  1.3014 -1.9177
 4446WAT    EPW19591   0.460   0.305   0.485 -0.9352  0.3395 -0.8745
 4447WAT      O19592  -2.159   2.936   6.512  0.1237  0.6036 -0.1916
 4447WAT     H119593  -2.202   2.963   6.431 -0.8029 -2.4380 -0.8509
 4447WAT     H219594  -2.098   3.007   6.532 -0.0013  1.6997 -3.2433
 4447WAT    EPW19595  -2.157   2.949   6.504 -0.0151  0.3469 -0.6809
 4448WAT      O19596   1.495   5.397   6.152 -0.2128  0.5458  0.6434
 4448WAT     H119597   1.480   5.377   6.059 -0.4828 -0.1567  0.8299
 4448WAT     H219598   1.546   5.478   6.151  2.7040 -1.1396 -0.2698
 4448WAT    EPW19599   1.500   5.405   6.139  0.1363  0.2310  0.5476
 4449WAT      O19600   1.008   4.116   0.256 -0.0672  0.5411  0.9688
 4449WAT     H119601   1.024   4.204   0.223 -0.5653  0.1506 -0.4066
 4449WAT     H219602   1.092   4.072   0.249  0.3733  1.1106  2.3969
 4449WAT    EPW19603   1.021   4.122   0.251 -0.0748  0.5648  0.9758
 4450WAT      O19604  -3.796   5.842   8.911 -0.0382 -0.2650 -0.8011
 4450WAT     H119605  -3.721   5.842   8.969 -0.3069  0.0834 -0.4487
 4450WAT     H219606  -3.840   5.925   8.928 -1.3154 -1.0671  0.0601
 4450WAT    EPW19607  -3.792   5.853   8.921 -0.2421 -0.3250 -0.6409
 4451WAT      O19608   0.793   8.379   6.209  0.2422  0.1998 -0.5206
 4451WAT     H119609   0.858   8.368   6.140  1.2557 -2.5039  0.7087
 4451WAT     H219610   0.844   8.404   6.286 -0.6835  1.6448 -0.3305
 4451WAT    EPW19611   0.808   8.381   6.210  0.2538  0.0339 -0.3333
 4452WAT      O19612   7.526   0.584   1.406 -0.5310  0.5433  0.2453
 4452WAT     H119613   7.617   0.590   1.436 -1.1260  1.7058  1.9902
 4452WAT     H219614   7.513   0.663   1.353  0.0749 -0.7543 -1.9725
 4452WAT    EPW19615   7.536   0.596   1.403 -0.5298  0.5254  0.1829
 4453WAT      O19616   0.038   7.944   4.952 -0.3454 -0.1988 -0.2552
 4453WAT     H119617   0.124   7.965   4.988 -0.5111 -0.4217  0.2821
 4453WAT     H219618  -0.008   8.028   4.947 -1.0536 -0.3658  2.0039
 4453WAT    EPW19619   0.043   7.958   4.956 -0.4607 -0.2503  0.1135
 4454WAT      O19620  -1.110  10.169   1.320 -0.1060  0.0873  0.0158
 4454WAT     H119621  -1.070  10.195   1.403 -0.7997  0.3526  0.2723
 4454WAT     H219622  -1.051  10.204   1.253  0.3479  0.0480  0.3871
 4454WAT    EPW19623  -1.097  10.177   1.322 -0.1376  0.1168  0.0986
 4455WAT      O19624  -1.658   9.099   7.457  0.0333  0.3441 -0.2710
 4455WAT     H119625  -1.708   9.119   7.378  0.4533 -0.2065 -0.6835
 4455WAT     H219626  -1.588   9.041   7.427 -0.1396 -0.3369  0.5962
 4455WAT    EPW19627  -1.656   9.094   7.442  0.0659  0.1817 -0.2110
 4456WAT      O19628   3.276   5.929   1.020 -0.5981  0.2208  0.0241
 4456WAT     H119629   3.251   5.921   0.928  1.6090 -0.1958 -0.5818
 4456WAT     H219630   3.192   5.932   1.067 -1.8219  1.6122 -2.0537
 4456WAT    EPW19631   3.261   5.929   1.014 -0.4685  0.3493 -0.3299
 4457WAT      O19632  -5.888  10.150   5.823 -0.3101  0.0025  0.3161
 4457WAT     H119633  -5.916  10.073   5.774 -4.2044  0.8473  0.8972
 4457WAT     H219634  -5.879  10.120   5.914  1.4396 -0.3862  0.0460
 4457WAT    EPW19635  -5.890  10.136   5.829 -0.5929  0.0625  0.3569
 4458WAT      O19636  -0.537   2.054   8.385  0.2975  0.2220  0.9077
 4458WAT     H119637  -0.534   2.150   8.384  1.3105  0.2104  1.3488
 4458WAT     H219638  -0.501   2.030   8.471  1.3387 -0.5808  0.2759
 4458WAT    EPW19639  -0.532   2.064   8.396  0.5684  0.1147  0.8821
 4459WAT      O19640   7.915   6.867   0.153 -0.1472 -0.3156  0.7017
 4459WAT     H119641   8.009   6.852   0.163 -0.5903 -4.2588  0.4165
 4459WAT     H219642   7.906   6.963   0.149  3.6155  0.2671  2.3993
 4459WAT    EPW19643   7.926   6.878   0.154  0.2906 -0.7586  0.8880
 4460WAT      O19644   5.907  10.120   0.924  0.8178 -0.7226  0.3427
 4460WAT     H119645   5.946  10.132   0.837  0.9515  0.4324  0.5525
 4460WAT     H219646   5.847  10.046   0.913 -0.6506  0.6130 -1.2374
 4460WAT    EPW19647   5.905  10.112   0.911  0.6418 -0.3939  0.1620
 4461WAT      O19648   7.063   1.827   1.905  0.4020  0.8749 -0.0736
 4461WAT     H119649   7.059   1.889   1.832  0.2846  0.3378 -0.5334
 4461WAT     H219650   7.157   1.810   1.916  0.4496  1.2988  0.2016
 4461WAT    EPW19651   7.075   1.833   1.897  0.3927  0.8600 -0.0979
 4462WAT      O19652   3.466   5.080   8.607 -0.3059 -0.2869 -0.4824
 4462WAT     H119653   3.492   5.168   8.582  2.1728 -1.1398 -1.1623
 4462WAT     H219654   3.422   5.091   8.691  0.5217  1.5195 -0.2465
 4462WAT    EPW19655   3.463   5.093   8.615  0.1302 -0.1612 -0.5412
 4463WAT      O19656   5.219   2.401   6.780 -0.7089 -0.6063 -0.2587
 4463WAT     H119657   5.166   2.472   6.744 -1.2895 -0.5740  0.6353
 4463WAT     H219658   5.184   2.387   6.868  0.7258 -0.6307  0.3291
 4463WAT    EPW19659   5.207   2.409   6.787 -0.5963 -0.6052 -0.0634
 4464WAT      O19660  -3.450   2.308   5.537  0.4151  0.1517  0.1442
 4464WAT     H119661  -3.526   2.264   5.501  1.0354 -0.2832 -0.6862
 4464WAT     H219662  -3.482   2.392   5.567 -0.4205 -0.0957 -0.0463
 4464WAT    EPW19663  -3.464   2.313   5.536  0.3866  0.0618  0.0098
 4465WAT      O19664  -0.400   5.715   7.296 -0.2093  0.6541  0.3977
 4465WAT     H119665  -0.392   5.772   7.372 -0.2890 -1.2695  1.9216
 4465WAT     H219666  -0.434   5.633   7.331 -0.3497 -0.2716 -1.7433
 4465WAT    EPW19667  -0.404   5.712   7.310 -0.2384  0.2785  0.3164
 4466WAT      O19668   1.993   2.637   7.762  0.6675 -0.4528  0.3962
 4466WAT     H119669   1.958   2.548   7.765  1.4568 -0.7418  1.2818
 4466WAT     H219670   2.069   2.631   7.704  0.7449 -0.3708  0.4875
 4466WAT    EPW19671   1.999   2.625   7.755  0.7818 -0.4801  0.5252
 4467WAT      O19672   2.983  10.056   4.406  0.5117  0.0101 -0.2040
 4467WAT     H119673   2.980  10.149   4.387 -0.3005 -0.2324 -1.3417
 4467WAT     H219674   2.921  10.044   4.478  2.7281  0.7426  1.9922
 4467WAT    EPW19675   2.975  10.067   4.413  0.6969  0.0749 -0.0644
 4468WAT      O19676   8.725   0.535   1.806 -0.9617  0.5346 -0.1139
 4468WAT     H119677   8.728   0.624   1.841 -1.5535  0.6287 -0.2821
 4468WAT     H219678   8.774   0.483   1.869  1.0351  1.2778 -0.9796
 4468WAT    EPW19679   8.731   0.540   1.819 -0.7763  0.6450 -0.2502
 4469WAT      O19680   0.215   1.679   3.636 -0.1235 -0.0065 -0.3115
 4469WAT     H119681   0.272   1.602   3.634 -1.2079 -0.8449 -0.1066
 4469WAT     H219682   0.173   1.681   3.550 -1.5849 -0.8359  0.3428
 4469WAT    EPW19683   0.217   1.669   3.625 -0.4593 -0.2264 -0.1981
 4470WAT      O19684   6.067   3.695   1.205 -0.1710 -0.0490  0.4782
 4470WAT     H119685   6.117   3.738   1.274 -0.4691  2.2321 -0.6236
 4470WAT     H219686   5.995   3.756   1.186 -0.5335 -0.9695 -1.2864
 4470WAT    EPW19687   6.064   3.709   1.211 -0.2582  0.1305  0.1002
 4471WAT      O19688   4.852   3.140   7.640  0.3180 -0.0730 -0.1087
 4471WAT     H119689   4.947   3.127   7.637  0.5076  1.3343 -0.8345
 4471WAT     H219690   4.835   3.170   7.730  0.5433 -0.3344  0.0245
 4471WAT    EPW19691   4.862   3.142   7.652  0.3726  0.0782 -0.1869
 4472WAT      O19692   4.977   0.760   3.502 -0.2121 -0.1837 -0.3179
 4472WAT     H119693   4.905   0.721   3.452 -0.9911 -0.8839  1.2614
 4472WAT     H219694   5.049   0.766   3.439 -0.6461 -2.4719 -1.1585
 4472WAT    EPW19695   4.977   0.756   3.487 -0.3722 -0.5779 -0.2205
 4473WAT      O19696   2.765   2.785   7.252 -0.1951 -0.0821 -0.4287
 4473WAT     H119697   2.845   2.813   7.206  0.0375 -1.9181 -1.2139
 4473WAT     H219698   2.728   2.717   7.196 -2.0116  0.3004  0.2366
 4473WAT    EPW19699   2.771   2.780   7.238 -0.4040 -0.2737 -0.4444
 4474WAT      O19700  -1.732   8.482   7.990 -0.0518  0.0125 -0.5479
 4474WAT     H119701  -1.734   8.541   7.915  2.4753  1.6946  0.5829
 4474WAT     H219702  -1.647   8.439   7.985  0.1037  0.0486  1.2576
 4474WAT    EPW19703  -1.721   8.484   7.980  0.3020  0.2389 -0.1607
 4475WAT      O19704   0.991  10.207   6.073  0.2598 -0.3939 -0.0801
 4475WAT     H119705   0.901  10.233   6.092 -0.0436 -1.7180  0.3959
 4475WAT     H219706   1.023  10.275   6.013 -2.1307 -1.5946 -2.9755
 4475WAT    EPW19707   0.983  10.220   6.068 -0.0955 -0.7272 -0.3991
 4476WAT      O19708   1.050   8.335   1.420 -0.3022  0.1705  0.2024
 4476WAT     H119709   1.007   8.256   1.388 -2.5067  1.0253  0.9121
 4476WAT     H219710   1.121   8.350   1.357 -1.6061 -0.7815 -1.5980
 4476WAT    EPW19711   1.054   8.326   1.407 -0.7649  0.1574  0.0585
 4477WAT      O19712   2.907   9.562   6.060  0.1664  0.3522 -0.7596
 4477WAT     H119713   2.919   9.530   6.150  2.4523 -1.7435 -1.6951
 4477WAT     H219714   2.816   9.538   6.039  0.1602 -0.7940  0.3951
 4477WAT    EPW19715   2.896   9.554   6.069  0.4672 -0.0753 -0.7305
 4478WAT      O19716  -4.826   6.719   7.228 -0.7816 -0.1033 -0.2903
 4478WAT     H119717  -4.748   6.664   7.227 -1.9621 -1.9340  0.9105
 4478WAT     H219718  -4.896   6.662   7.195 -2.3435  0.0774  2.3378
 4478WAT    EPW19719  -4.825   6.704   7.224 -1.1432 -0.3209  0.2148
 4479WAT      O19720  -4.780   5.996   7.592 -0.2560 -0.4527 -0.4546
 4479WAT     H119721  -4.861   6.016   7.639  0.7333  3.3702 -0.0895
 4479WAT     H219722  -4.720   5.963   7.659  0.7170  3.7214  1.0191
 4479WAT    EPW19723  -4.783   5.994   7.607  0.0026  0.6020 -0.2120
 4480WAT      O19724  -4.167   6.143   5.646  0.1734 -0.1693  0.3406
 4480WAT     H119725  -4.207   6.059   5.670  1.0304 -1.1725 -1.5120
 4480WAT     H219726  -4.200   6.161   5.558  1.3704  0.5188  0.0044
 4480WAT    EPW19727  -4.176   6.134   5.638  0.4444 -0.2110  0.0520
 4481WAT      O19728   3.079   7.553   4.775 -0.5304 -0.9047  0.6804
 4481WAT     H119729   3.085   7.648   4.764 -0.4742 -1.0371 -0.6059
 4481WAT     H219730   3.150   7.531   4.834  1.7622 -0.5425 -1.7655
 4481WAT    EPW19731   3.089   7.563   4.781 -0.2207 -0.8745  0.1879
 4482WAT      O19732   8.212   2.360   2.852 -0.1599  0.1262 -0.6009
 4482WAT     H119733   8.130   2.340   2.897  0.7684  0.1468  1.1390
 4482WAT     H219734   8.278   2.307   2.895  0.6587 -0.5366 -2.5362
 4482WAT    EPW19735   8.210   2.350   2.863  0.0706  0.0415 -0.6267
 4483WAT      O19736  -4.278   1.809   6.258 -0.1400  0.1829 -0.0559
 4483WAT     H119737  -4.294   1.872   6.188 -0.2397  1.5675  1.1672
 4483WAT     H219738  -4.261   1.727   6.212 -0.7347  0.9124 -1.6845
 4483WAT    EPW19739  -4.278   1.806   6.243 -0.2317  0.4618 -0.1092
 4484WAT      O19740   5.233   1.936   2.712  0.0497 -0.0124 -0.0120
 4484WAT     H119741   5.167   1.897   2.656 -0.7462  0.1845  0.7701
 4484WAT     H219742   5.208   1.911   2.801  0.6206  0.6474  0.3494
 4484WAT    EPW19743   5.221   1.928   2.716  0.0200  0.1006  0.1388
 4485WAT      O19744  -1.977   2.162   4.037 -0.9018 -1.0353 -0.2241
 4485WAT     H119745  -1.901   2.143   3.982 -0.3035  1.5784 -0.4149
 4485WAT     H219746  -2.031   2.220   3.984 -2.4451 -1.8300  0.4017
 4485WAT    EPW19747  -1.974   2.167   4.023 -1.0264 -0.7954 -0.1667
 4486WAT      O19748  -4.219   8.010   6.758 -0.1573 -0.1134 -0.5216
 4486WAT     H119749  -4.298   7.986   6.805  1.0945 -3.5632  0.1154
 4486WAT     H219750  -4.165   8.055   6.823 -0.4783 -0.3132 -0.1167
 4486WAT    EPW19751  -4.222   8.013   6.773 -0.0343 -0.5946 -0.3841
 4487WAT      O19752   2.447   7.358   5.175  0.1208  0.1517  0.4560
 4487WAT     H119753   2.529   7.319   5.207  2.7501  3.8216 -1.0867
 4487WAT     H219754   2.446   7.446   5.212 -2.3666  0.7553 -0.8274
 4487WAT    EPW19755   2.458   7.364   5.184  0.1395  0.7153  0.0832
 4488WAT      O19756   4.204   1.844   6.519  0.5411  0.0730 -0.5610
 4488WAT     H119757   4.271   1.893   6.471  0.0635 -0.4193 -1.7805
 4488WAT     H219758   4.172   1.780   6.456  1.6918 -2.3893  1.1877
 4488WAT    EPW19759   4.209   1.842   6.504  0.6299 -0.3167 -0.4914
 4489WAT      O19760  -3.677   8.943   5.869  0.5096  0.3046 -0.0647
 4489WAT     H119761  -3.701   8.880   5.937 -1.8259  1.8911  0.6969
 4489WAT     H219762  -3.583   8.958   5.883  0.3889 -0.4699  1.9229
 4489WAT    EPW19763  -3.668   8.937   5.880  0.1857  0.4115  0.2980
 4490WAT      O19764   3.498   7.170   1.527  0.3089 -0.3059 -0.6792
 4490WAT     H119765   3.445   7.249   1.535  1.8149  0.6672 -0.0824
 4490WAT     H219766   3.449   7.104   1.577  0.0637  0.7867  0.5770
 4490WAT    EPW19767   3.484   7.172   1.535  0.4752 -0.0336 -0.4348
 4491WAT      O19768  -0.452   4.487   8.100 -0.5295  0.5949 -0.1909
 4491WAT     H119769  -0.391   4.471   8.028  0.9851  2.6389  0.5364
 4491WAT     H219770  -0.403   4.542   8.161 -2.6107  1.0398  1.1867
 4491WAT    EPW19771  -0.437   4.492   8.098 -0.6042  0.9229  0.0868
 4492WAT      O19772  -1.377   3.969   8.532  0.0906  0.2494  0.1776
 4492WAT     H119773  -1.284   3.989   8.541 -0.4109  2.6730  0.5564
 4492WAT     H219774  -1.403   4.010   8.449 -1.1846  2.0904  1.3990
 4492WAT    EPW19775  -1.368   3.977   8.522 -0.1437  0.8118  0.3886
 4493WAT      O19776   0.404   9.603   7.826 -0.2686  0.6993 -0.1791
 4493WAT     H119777   0.398   9.695   7.802 -0.3969  0.8502  0.4148
 4493WAT     H219778   0.424   9.558   7.744  0.4809  1.3299 -0.3502
 4493WAT    EPW19779   0.406   9.609   7.812 -0.1867  0.8025 -0.1233
 4494WAT      O19780   5.992   4.039   1.435  0.2749 -0.1400  0.8112
 4494WAT     H119781   6.078   4.051   1.395  0.0382 -0.9208  0.0283
 4494WAT     H219782   6.003   4.068   1.525  1.9783 -2.3069  1.3877
 4494WAT    EPW19783   6.005   4.044   1.441  0.4683 -0.5288  0.7840
 4495WAT      O19784   4.654  10.333   1.493 -0.4146 -0.3557  0.2007
 4495WAT     H119785   4.669  10.397   1.563  2.1240 -1.8145  1.1589
 4495WAT     H219786   4.736  10.334   1.443 -1.4935 -0.7026 -1.6518
 4495WAT    EPW19787   4.667  10.342   1.496 -0.2222 -0.5939  0.0828
 4496WAT      O19788   5.144   4.163   2.080 -0.4971 -0.1110 -0.0479
 4496WAT     H119789   5.141   4.250   2.039 -0.7901 -0.3930 -0.6321
 4496WAT     H219790   5.196   4.176   2.159  1.5434  0.0890 -1.3677
 4496WAT    EPW19791   5.150   4.176   2.085 -0.2668 -0.1218 -0.2991
 4497WAT      O19792  -1.811   1.131   6.330 -0.1254  0.2541 -0.6130
 4497WAT     H119793  -1.743   1.148   6.396 -1.0918 -2.3351  1.2196
 4497WAT     H219794  -1.767   1.146   6.246  3.0391 -2.0092  0.4421
 4497WAT    EPW19795  -1.796   1.135   6.328  0.1645 -0.3859 -0.2320
 4498WAT      O19796  -3.693   0.136   8.697 -0.1207  0.7735 -0.2906
 4498WAT     H119797  -3.603   0.107   8.680 -0.3372 -0.3824  0.4188
 4498WAT     H219798  -3.737   0.130   8.613  0.2241  0.4369 -0.4485
 4498WAT    EPW19799  -3.687   0.132   8.684 -0.1038  0.5766 -0.2179
 4499WAT      O19800  -1.029   7.667   4.619  0.4320  0.1635  0.3032
 4499WAT     H119801  -1.040   7.735   4.686 -2.2841  0.6453 -0.5141
 4499WAT     H219802  -1.028   7.715   4.536 -1.1870 -0.7046 -0.2633
 4499WAT    EPW19803  -1.031   7.682   4.617 -0.1398  0.1125  0.1206
 4500WAT      O19804   1.105   3.402   7.925 -0.3409 -0.5585  0.4250
 4500WAT     H119805   1.066   3.391   8.012  0.9132  2.0098  1.4160
 4500WAT     H219806   1.198   3.380   7.938  0.6342  3.1093  0.7308
 4500WAT    EPW19807   1.112   3.398   7.938 -0.0468  0.2639  0.5960
 4501WAT      O19808   5.207   1.728   0.319 -0.4560  0.1138 -0.2556
 4501WAT     H119809   5.244   1.817   0.314 -0.0491 -0.0537 -0.2286
 4501WAT     H219810   5.121   1.736   0.276  0.0164  0.2885 -1.1840
 4501WAT    EPW19811   5.200   1.741   0.312 -0.3400  0.1148 -0.3745
 4502WAT      O19812   1.286   0.673   7.751  0.0341  0.1651 -0.5880
 4502WAT     H119813   1.222   0.710   7.690 -0.6516  0.5980  0.3743
 4502WAT     H219814   1.241   0.670   7.835  1.2819  0.4791  0.1195
 4502WAT    EPW19815   1.272   0.677   7.754  0.1082  0.2636 -0.3676
 4503WAT      O19816  -1.525   1.342   8.395  0.2431 -0.7940  0.1797
 4503WAT     H119817  -1.506   1.433   8.416 -1.1283 -0.1591 -1.1781
 4503WAT     H219818  -1.621   1.338   8.389  0.3457 -1.9181 -1.4392
 4503WAT    EPW19819  -1.535   1.353   8.397  0.0757 -0.8585 -0.2127
 4504WAT      O19820   2.320   2.357   4.989  0.0703  0.1474  0.1151
 4504WAT     H119821   2.384   2.315   4.932  0.3166  2.0864 -1.1183
 4504WAT     H219822   2.373   2.408   5.051 -0.2523 -0.2499  0.7309
 4504WAT    EPW19823   2.335   2.358   4.990  0.0603  0.3507  0.0336
 4505WAT      O19824   3.205   3.048   7.162  0.4166  0.2689 -0.5238
 4505WAT     H119825   3.131   3.109   7.156  1.3292  1.3558 -1.3092
 4505WAT     H219826   3.188   2.997   7.241 -0.3871  1.5580  0.1695
 4505WAT    EPW19827   3.193   3.049   7.172  0.4311  0.5822 -0.5360
 4506WAT      O19828  -7.734   8.296   8.091  0.0281  0.1195  0.5204
 4506WAT     H119829  -7.727   8.234   8.164  0.3163  0.6873  0.9860
 4506WAT     H219830  -7.812   8.348   8.112 -0.5138 -0.4063 -0.1308
 4506WAT    EPW19831  -7.744   8.294   8.104 -0.0052  0.1254  0.4954
 4507WAT      O19832   4.979   2.461   0.474 -0.1223  1.2060  0.7732
 4507WAT     H119833   4.895   2.494   0.505 -0.1683  1.2886  0.5621
 4507WAT     H219834   4.957   2.379   0.429  0.1400  0.1309  2.4898
 4507WAT    EPW19835   4.965   2.454   0.472 -0.0937  1.0750  0.9718
 4508WAT      O19836   4.260   0.594   4.611 -0.4585  0.5002  0.7036
 4508WAT     H119837   4.230   0.627   4.695 -4.9141 -0.7751 -0.1079
 4508WAT     H219838   4.179   0.577   4.561  1.7633 -2.2453 -2.4704
 4508WAT    EPW19839   4.245   0.596   4.615 -0.7532 -0.0301  0.1779
 4509WAT      O19840   1.842   9.937   7.791  0.2000 -0.9739  0.0192
 4509WAT     H119841   1.796   9.948   7.874  1.7632  2.1067  0.6207
 4509WAT     H219842   1.792   9.989   7.729  2.1557  1.6485  0.4763
 4509WAT    EPW19843   1.829   9.945   7.794  0.6641 -0.2217  0.1588
 4510WAT      O19844   6.104   0.208   3.784  0.7879 -0.6062  0.1577
 4510WAT     H119845   6.079   0.128   3.738 -1.7572 -0.1579  0.6487
 4510WAT     H219846   6.139   0.178   3.868  0.9082 -1.2362 -0.1141
 4510WAT    EPW19847   6.105   0.193   3.789  0.4683 -0.6301  0.1867
 4511WAT      O19848  -2.263   7.772   7.953  0.4181  0.3849 -0.2351
 4511WAT     H119849  -2.202   7.702   7.929 -0.1516 -0.2688  0.1981
 4511WAT     H219850  -2.208   7.851   7.958  1.1452 -0.1092 -0.2921
 4511WAT    EPW19851  -2.248   7.773   7.951  0.4388  0.2337 -0.1855
 4512WAT      O19852   0.549   7.293   8.293 -0.0879  0.4330  0.1899
 4512WAT     H119853   0.594   7.360   8.344  1.2645 -1.0779  1.0760
 4512WAT     H219854   0.597   7.291   8.210 -0.6662  1.1115 -0.1749
 4512WAT    EPW19855   0.561   7.301   8.289  0.0142  0.3233  0.2589
 4513WAT      O19856  -1.610   5.141   4.272 -0.3711  0.1859 -0.2907
 4513WAT     H119857  -1.594   5.168   4.362 -2.1337  0.6509 -0.0716
 4513WAT     H219858  -1.556   5.199   4.219 -0.9393  1.3604  0.3876
 4513WAT    EPW19859  -1.601   5.152   4.277 -0.6785  0.4020 -0.1724
 4514WAT      O19860   0.975   4.501   4.003  0.3655  0.2990 -0.5771
 4514WAT     H119861   0.977   4.451   4.085 -0.1011  0.3331 -0.5415
 4514WAT     H219862   0.955   4.436   3.936 -2.5626  0.7268 -0.2624
 4514WAT    EPW19863   0.973   4.486   4.005 -0.0822  0.3600 -0.5307
 4515WAT      O19864   0.387   7.611   6.065  0.1662  0.3086  1.2339
 4515WAT     H119865   0.437   7.681   6.108  0.0368  0.0787  1.7556
 4515WAT     H219866   0.452   7.565   6.012  0.3795  0.4144  1.4030
 4515WAT    EPW19867   0.402   7.614   6.063  0.1773  0.2921  1.3251
 4516WAT      O19868  -2.251   5.024   5.645 -0.0966 -0.9974  0.3288
 4516WAT     H119869  -2.173   5.052   5.694 -1.4856  1.4260  1.3262
 4516WAT     H219870  -2.221   5.020   5.554  1.1729  0.0844  0.6600
 4516WAT    EPW19871  -2.237   5.027   5.639 -0.1124 -0.5352  0.5040
 4517WAT      O19872   1.424   2.470   3.696 -0.7627 -0.1822 -0.2340
 4517WAT     H119873   1.417   2.390   3.643  0.5954 -1.6981  1.7354
 4517WAT     H219874   1.507   2.509   3.668  0.2474 -1.2884  1.0393
 4517WAT    EPW19875   1.434   2.464   3.685 -0.4504 -0.5281  0.1937
 4518WAT      O19876  -1.351   9.145   5.406  0.4674 -0.6147 -0.2028
 4518WAT     H119877  -1.336   9.059   5.444 -1.4694 -0.3777  1.2590
 4518WAT     H219878  -1.309   9.206   5.468 -0.0208 -0.4008 -0.0759
 4518WAT    EPW19879  -1.344   9.142   5.420  0.1476 -0.5550  0.0067
 4519WAT      O19880  -2.258   3.664   5.422  0.3683  0.7289 -0.6400
 4519WAT     H119881  -2.279   3.694   5.334 -2.5356 -0.9549 -0.6657
 4519WAT     H219882  -2.328   3.700   5.477  2.0886  1.6973  1.0151
 4519WAT    EPW19883  -2.270   3.673   5.418  0.2122  0.6344 -0.4249
 4520WAT      O19884   0.725   2.485   1.800 -0.1796 -0.6890  0.4998
 4520WAT     H119885   0.735   2.502   1.894  3.8259 -0.2305  0.1442
 4520WAT     H219886   0.721   2.572   1.761  1.5413 -0.7786  0.0597
 4520WAT    EPW19887   0.725   2.499   1.807  0.5757 -0.6404  0.3949
 4521WAT      O19888  -6.203   9.542   7.251 -0.2048  0.3014 -0.0311
 4521WAT     H119889  -6.235   9.555   7.340  1.3512  0.5540  0.5308
 4521WAT     H219890  -6.109   9.526   7.262  0.3839  2.1540 -1.7565
 4521WAT    EPW19891  -6.195   9.541   7.265  0.0780  0.5789 -0.1848
 4522WAT      O19892  -0.245   3.073   6.782  0.1712 -0.5134  0.8253
 4522WAT     H119893  -0.262   2.989   6.825  1.1769 -0.9481  0.4024
 4522WAT     H219894  -0.202   3.126   6.849  1.4276 -1.0719  0.4804
 4522WAT    EPW19895  -0.242   3.069   6.797  0.4696 -0.6444  0.7241
 4523WAT      O19896  -4.952   8.043   4.081  0.2155 -0.2220 -0.0355
 4523WAT     H119897  -4.863   8.064   4.051  0.8316 -2.3796  0.1482
 4523WAT     H219898  -4.945   8.038   4.176 -0.3977  0.7276  0.0766
 4523WAT    EPW19899  -4.939   8.045   4.089  0.2158 -0.3810  0.0036
 4524WAT      O19900   5.771   1.753   7.054 -0.2923  0.2928 -0.1901
 4524WAT     H119901   5.741   1.756   6.964 -1.0092  1.1235  0.0662
 4524WAT     H219902   5.757   1.662   7.081 -1.3133  0.3427 -0.5065
 4524WAT    EPW19903   5.765   1.741   7.046 -0.5214  0.4089 -0.1979
 4525WAT      O19904   2.688   1.038   0.914  0.6227 -0.6529  0.4930
 4525WAT     H119905   2.598   1.070   0.911  0.4625 -0.9390  1.6959
 4525WAT     H219906   2.691   0.983   0.992  2.3029  0.7564  1.4924
 4525WAT    EPW19907   2.677   1.035   0.924  0.8231 -0.5047  0.7834
 4526WAT      O19908   3.549   2.340   2.993  0.3028  0.3858 -0.7403
 4526WAT     H119909   3.579   2.398   2.923  0.8404  0.4773 -0.4361
 4526WAT     H219910   3.512   2.265   2.947 -0.4059  0.9635 -1.1350
 4526WAT    EPW19911   3.548   2.338   2.978  0.2803  0.4741 -0.7522
 4527WAT      O19912   6.509   2.453   3.200 -0.2891  0.3567  1.2462
 4527WAT     H119913   6.595   2.442   3.160 -0.6196  0.2002  0.5675
 4527WAT     H219914   6.516   2.409   3.285 -0.6285 -2.5077 -0.0890
 4527WAT    EPW19915   6.521   2.446   3.206 -0.3774 -0.0416  0.9805
 4528WAT      O19916   1.281   7.240   3.107  0.0102  0.3084 -0.0496
 4528WAT     H119917   1.273   7.245   3.011  1.5037  1.7823 -0.1575
 4528WAT     H219918   1.306   7.150   3.124  0.7996  0.2815 -1.1833
 4528WAT    EPW19919   1.283   7.229   3.096  0.3113  0.4992 -0.2133
 4529WAT      O19920  -3.502   8.992   4.268  0.4201  0.3633 -0.8630
 4529WAT     H119921  -3.433   8.948   4.218  3.1288  1.8600  1.2624
 4529WAT     H219922  -3.525   8.929   4.337 -0.5391 -0.2008 -1.6677
 4529WAT    EPW19923  -3.496   8.977   4.270  0.6509  0.4864 -0.6886
 4530WAT      O19924  -0.322   7.472   8.075 -0.3471  0.2560  0.1761
 4530WAT     H119925  -0.322   7.389   8.122  0.4843  1.4019  2.3316
 4530WAT     H219926  -0.230   7.493   8.060 -0.5691  0.2066 -1.5617
 4530WAT    EPW19927  -0.310   7.464   8.079 -0.2667  0.4003  0.2313
 4531WAT      O19928   1.791   7.879   2.632 -0.5469  0.7438 -0.7158
 4531WAT     H119929   1.733   7.941   2.677  0.9888  1.7029  0.0429
 4531WAT     H219930   1.863   7.933   2.599  0.2935 -0.4913 -0.9816
 4531WAT    EPW19931   1.793   7.894   2.634 -0.2335  0.7076 -0.6508
 4532WAT      O19932  -2.481   1.710   3.278 -0.3308  0.3145 -0.9638
 4532WAT     H119933  -2.391   1.680   3.287  0.2751  2.5822  2.2692
 4532WAT     H219934  -2.528   1.666   3.349 -1.1082  1.2738 -0.8645
 4532WAT    EPW19935  -2.476   1.700   3.288 -0.3535  0.7401 -0.5243
 4533WAT      O19936  -2.790   7.240   5.851  0.7352 -0.3249  0.2320
 4533WAT     H119937  -2.796   7.320   5.800  2.3568  1.5630  2.7759
 4533WAT     H219938  -2.701   7.241   5.887  0.7842 -3.2585  0.4240
 4533WAT    EPW19939  -2.779   7.250   5.849  0.9555 -0.4630  0.5929
 4534WAT      O19940   1.751   0.868   0.416  0.1647  0.6486 -0.6491
 4534WAT     H119941   1.659   0.896   0.407 -0.0197 -0.2540 -1.6510
 4534WAT     H219942   1.768   0.876   0.510 -1.3864 -0.4872 -0.2268
 4534WAT    EPW19943   1.741   0.873   0.428 -0.0643  0.3798 -0.7256
 4535WAT      O19944  -2.039   8.969   7.248  0.5908  0.1522  0.1281
 4535WAT     H119945  -1.999   9.053   7.269  0.3454  0.2365  0.2660
 4535WAT     H219946  -2.089   8.945   7.327  2.8215 -1.4363  1.1643
 4535WAT    EPW19947  -2.040   8.977   7.262  0.8527 -0.0463  0.2830
 4536WAT      O19948  -0.683   5.834   8.714 -0.3955 -0.2137 -0.0372
 4536WAT     H119949  -0.712   5.877   8.634  2.6744  0.8691 -0.6665
 4536WAT     H219950  -0.624   5.765   8.685 -1.7381 -1.9736  1.2010
 4536WAT    EPW19951  -0.679   5.831   8.700 -0.1676 -0.3030  0.0429
 4537WAT      O19952  -1.755   4.993   0.480  0.7292 -0.3108  0.5450
 4537WAT     H119953  -1.678   4.973   0.533  0.2121  0.6680  1.7218
 4537WAT     H219954  -1.829   4.966   0.534  0.2242 -1.8769 -0.8547
 4537WAT    EPW19955  -1.754   4.987   0.494  0.5944 -0.3884  0.5156
 4538WAT      O19956   9.887   0.048   1.130  0.5689  0.5097 -0.7209
 4538WAT     H119957   9.939   0.065   1.209  0.6108 -1.7677 -0.1818
 4538WAT     H219958   9.798   0.035   1.162 -0.3987  3.9797 -1.5975
 4538WAT    EPW19959   9.882   0.048   1.145  0.4473  0.6670 -0.7654
 4539WAT      O19960   2.259   9.093   7.216  0.1192 -0.1412 -1.6479
 4539WAT     H119961   2.240   9.010   7.173  2.7119 -1.2945 -0.7558
 4539WAT     H219962   2.335   9.075   7.271 -1.1278  2.0513  1.0181
 4539WAT    EPW19963   2.267   9.080   7.217  0.2967 -0.0038 -1.1787
 4540WAT      O19964  -1.568   2.673   1.028  0.9849  0.1832 -0.0838
 4540WAT     H119965  -1.500   2.741   1.026 -0.0949  1.3365 -3.1374
 4540WAT     H219966  -1.545   2.614   0.956  0.9279 -1.7929  1.4321
 4540WAT    EPW19967  -1.556   2.674   1.019  0.8349  0.0746 -0.2866
 4541WAT      O19968   6.170   5.245   1.525  0.3184 -0.5112  0.0565
 4541WAT     H119969   6.080   5.230   1.495  0.8281 -2.9282 -0.4228
 4541WAT     H219970   6.163   5.321   1.583 -1.9666 -0.4437 -0.2142
 4541WAT    EPW19971   6.157   5.253   1.529  0.0842 -0.8211 -0.0424
 4542WAT      O19972   4.480   3.529   4.200 -0.4320  0.2799  0.6649
 4542WAT     H119973   4.407   3.476   4.168 -0.0786  0.8935 -1.2321
 4542WAT     H219974   4.476   3.519   4.295 -2.3104 -0.5795  0.5404
 4542WAT    EPW19975   4.469   3.521   4.209 -0.6330  0.2475  0.3984
 4543WAT      O19976   0.030   2.122   6.045 -0.2378  0.3500 -0.2619
 4543WAT     H119977  -0.034   2.185   6.079 -2.2753 -0.8306 -1.6348
 4543WAT     H219978  -0.004   2.100   5.958  2.7744  0.5751 -1.6011
 4543WAT    EPW19979   0.017   2.128   6.038 -0.1092  0.2240 -0.6199
 4544WAT      O19980  -1.325   6.297   6.395 -0.2351 -0.1042  0.0132
 4544WAT     H119981  -1.372   6.334   6.469  0.1049  0.4001 -0.0218
 4544WAT     H219982  -1.235   6.289   6.425  0.0004  0.5392 -0.4983
 4544WAT    EPW19983  -1.320   6.300   6.409 -0.1593  0.0472 -0.0589
 4545WAT      O19984  -3.808   4.437   7.022  0.0752 -0.5159  0.4491
 4545WAT     H119985  -3.890   4.459   7.067  0.2992  1.0111  0.1475
 4545WAT     H219986  -3.836   4.405   6.937 -0.1941  1.5307 -0.2759
 4545WAT    EPW19987  -3.823   4.436   7.017  0.0691 -0.0446  0.3138
 4546WAT      O19988   3.737   3.050   0.907 -0.4692  0.1010 -0.6274
 4546WAT     H119989   3.702   3.086   0.826  1.3932 -0.4444 -1.7236
 4546WAT     H219990   3.819   3.007   0.882 -0.7995 -1.7803  1.2236
 4546WAT    EPW19991   3.743   3.049   0.893 -0.2670 -0.2190 -0.5279
 4547WAT      O19992  -1.646   8.179   8.187 -0.4689 -0.2824 -0.3568
 4547WAT     H119993  -1.739   8.183   8.164 -0.3021  0.2928 -0.9762
 4547WAT     H219994  -1.612   8.103   8.141 -0.8691 -1.2017  0.8150
 4547WAT    EPW19995  -1.654   8.170   8.178 -0.4997 -0.3276 -0.2842
 4548WAT      O19996  -4.250   4.472   6.018 -0.1672 -0.2616  0.4965
 4548WAT     H119997  -4.200   4.390   6.020 -0.2631 -0.4678 -1.9456
 4548WAT     H219998  -4.334   4.450   6.057 -1.4197 -2.3676 -2.9043
 4548WAT    EPW19999  -4.254   4.458   6.023 -0.3450 -0.5665 -0.2739
 4549WAT      O20000   5.654   0.244   4.406  0.0595 -0.0954 -0.6767
 4549WAT     H120001   5.637   0.238   4.312  1.4852 -0.0819 -0.9434
 4549WAT     H220002   5.747   0.227   4.415  0.0714  0.5665  0.6782
 4549WAT    EPW20003   5.664   0.241   4.395  0.2494 -0.0063 -0.5331
 4550WAT      O20004  -2.755   9.794   4.904 -0.4711 -0.8552  0.2809
 4550WAT     H120005  -2.672   9.755   4.877  0.2263 -0.6482  1.9719
 4550WAT     H220006  -2.768   9.869   4.846  0.5748 -0.8383  0.0593
 4550WAT    EPW20007  -2.746   9.799   4.893 -0.2410 -0.8259  0.4749
 4551WAT      O20008   1.005   7.225   0.805  0.2206 -0.5043  0.5063
 4551WAT     H120009   1.046   7.291   0.861  1.0328  0.6642 -1.3459
 4551WAT     H220010   0.932   7.270   0.764 -1.0208 -1.6570  1.3921
 4551WAT    EPW20011   1.001   7.239   0.807  0.1639 -0.5023  0.3788
 4552WAT      O20012  -1.355   1.142   8.430 -0.3381  0.2422 -0.8169
 4552WAT     H120013  -1.280   1.181   8.385 -0.7110  1.0892 -0.7162
 4552WAT     H220014  -1.425   1.206   8.419 -0.6665  0.0814  0.2444
 4552WAT    EPW20015  -1.354   1.156   8.422 -0.4306  0.3327 -0.6633
 4553WAT      O20016   2.783   0.798   4.001  0.2528  0.1198  0.4772
 4553WAT     H120017   2.716   0.745   4.044  1.1998 -2.3597 -0.8593
 4553WAT     H220018   2.736   0.844   3.931 -0.6574  1.4088  1.8885
 4553WAT    EPW20019   2.768   0.797   3.997  0.2577 -0.0373  0.4870
 4554WAT      O20020   1.851   8.782   5.105 -0.1609  0.1618 -0.0953
 4554WAT     H120021   1.897   8.823   5.032  0.3776  1.8515  1.1197
 4554WAT     H220022   1.883   8.692   5.106  1.8257  0.8046 -0.3801
 4554WAT    EPW20023   1.862   8.776   5.095  0.1721  0.4692  0.0274
 4555WAT      O20024   6.895   5.845   0.342 -0.7459  0.8425  0.2081
 4555WAT     H120025   6.867   5.927   0.301 -0.2482  0.6113 -0.6173
 4555WAT     H220026   6.946   5.800   0.275  1.9065  1.3946  1.6874
 4555WAT    EPW20027   6.898   5.850   0.328 -0.3302  0.8848  0.2943
 4556WAT      O20028  -4.931   2.348   6.757 -0.7325  0.2873  0.0428
 4556WAT     H120029  -4.846   2.310   6.778 -1.9363 -1.9361  1.2448
 4556WAT     H220030  -4.933   2.431   6.805  0.3518 -0.1224  0.8243
 4556WAT    EPW20031  -4.920   2.354   6.766 -0.7482 -0.0600  0.3045
 4557WAT      O20032   2.171   7.646   3.070 -0.4421 -0.1417 -0.9864
 4557WAT     H120033   2.260   7.612   3.066 -1.1200 -2.6085  1.4132
 4557WAT     H220034   2.175   7.731   3.027  2.2780 -1.6040 -4.0231
 4557WAT    EPW20035   2.183   7.652   3.064 -0.1729 -0.6597 -1.0705
 4558WAT      O20036   1.539   6.155   7.418 -0.1059  0.3366  0.1303
 4558WAT     H120037   1.456   6.121   7.450  0.8443  1.1095  3.9237
 4558WAT     H220038   1.603   6.087   7.439  0.4825  0.4494 -1.2016
 4558WAT    EPW20039   1.536   6.142   7.425  0.0970  0.4535  0.4549
 4559WAT      O20040  -2.622   0.831   5.420  0.1787 -0.4377  0.6371
 4559WAT     H120041  -2.667   0.899   5.470  1.1607 -0.9459  2.3326
 4559WAT     H220042  -2.670   0.751   5.440 -0.6705 -0.3453 -0.9454
 4559WAT    EPW20043  -2.634   0.829   5.429  0.1962 -0.4925  0.6523
 4560WAT      O20044   5.521   9.641   0.662 -0.1149 -0.3570 -0.0148
 4560WAT     H120045   5.578   9.564   0.666  1.1629  0.2778 -3.1313
 4560WAT     H220046   5.438   9.608   0.630  0.1718 -0.5922 -0.5307
 4560WAT    EPW20047   5.518   9.627   0.658  0.0916 -0.3042 -0.4939
 4561WAT      O20048   4.234   8.205   4.076 -0.6581  0.5458  0.1094
 4561WAT     H120049   4.306   8.158   4.118 -0.8814 -1.1260 -1.2254
 4561WAT     H220050   4.155   8.159   4.105 -0.8758 -0.0315 -1.2804
 4561WAT    EPW20051   4.233   8.192   4.085 -0.7164  0.2489 -0.2499
 4562WAT      O20052   4.117   5.527   2.196  0.4307  0.4488  0.3725
 4562WAT     H120053   4.079   5.578   2.125 -0.2222 -0.2948  0.1774
 4562WAT     H220054   4.182   5.471   2.154 -0.3170 -0.3665  0.2543
 4562WAT    EPW20055   4.120   5.526   2.181  0.2460  0.2432  0.3310
 4563WAT      O20056   0.779   3.010   3.818 -0.1911 -0.8218  0.4523
 4563WAT     H120057   0.702   3.040   3.867  1.2376  1.7155  1.2748
 4563WAT     H220058   0.751   3.012   3.727 -0.8091  1.1330  0.6491
 4563WAT    EPW20059   0.765   3.014   3.813 -0.0842 -0.2292  0.5867
 4564WAT      O20060   4.369   3.334   1.139  0.4361  0.2571 -0.5200
 4564WAT     H120061   4.374   3.317   1.234 -0.9852  0.6650 -0.3614
 4564WAT     H220062   4.428   3.269   1.101 -0.5448 -1.3090  0.4972
 4564WAT    EPW20063   4.378   3.323   1.147  0.1192  0.1043 -0.3649
 4565WAT      O20064   0.894   4.875   7.598  0.5717  0.2831  0.3334
 4565WAT     H120065   0.901   4.844   7.688 -2.6112 -3.5961 -0.4997
 4565WAT     H220066   0.978   4.852   7.558  0.6128 -1.5742  1.4031
 4565WAT    EPW20067   0.906   4.868   7.605  0.1573 -0.4735  0.3645
 4566WAT      O20068  -3.086   9.416   0.875  0.2468  0.2545  1.0624
 4566WAT     H120069  -3.033   9.492   0.899  2.2147 -0.9743  0.8264
 4566WAT     H220070  -3.130   9.391   0.957  2.3784 -0.4362  2.0688
 4566WAT    EPW20071  -3.085   9.423   0.889  0.7875  0.0014  1.1640
 4567WAT      O20072  -2.043   9.722   8.379  0.0669 -0.2794 -0.7921
 4567WAT     H120073  -1.965   9.772   8.407 -0.8031  0.7073 -0.0354
 4567WAT     H220074  -2.011   9.664   8.310  1.7671 -0.8828  0.4320
 4567WAT    EPW20075  -2.028   9.721   8.374  0.1764 -0.2289 -0.5307
 4568WAT      O20076  -5.550   5.491   8.173 -0.8590  0.3514  0.0533
 4568WAT     H120077  -5.457   5.511   8.162 -0.5332 -1.3327 -0.4941
 4568WAT     H220078  -5.589   5.509   8.088 -0.8687  0.1965  0.0251
 4568WAT    EPW20079  -5.543   5.496   8.160 -0.8173  0.1087 -0.0224
 4569WAT      O20080  -4.952   8.085   7.225 -0.4324  0.1167  0.5872
 4569WAT     H120081  -4.982   8.174   7.246  0.2734  0.5679 -0.2521
 4569WAT     H220082  -4.874   8.073   7.278  0.5060  0.6981 -0.6211
 4569WAT    EPW20083  -4.946   8.095   7.235 -0.2155  0.2527  0.3171
 4570WAT      O20084   4.365   0.353   2.432 -0.0722  0.1507 -0.0383
 4570WAT     H120085   4.425   0.420   2.399 -1.6329  1.9048  0.5178
 4570WAT     H220086   4.422   0.281   2.459  1.6194  0.8959 -1.3872
 4570WAT    EPW20087   4.381   0.353   2.431 -0.0551  0.4803 -0.1429
 4571WAT      O20088   4.940   6.688   0.940  0.0357 -0.6409 -0.2759
 4571WAT     H120089   4.959   6.756   1.004  0.7136 -2.5773  1.6886
 4571WAT     H220090   4.997   6.709   0.866  0.5518  0.6559  0.4445
 4571WAT    EPW20091   4.950   6.700   0.939  0.1931 -0.7253  0.0782
 4572WAT      O20092   6.480   1.596   5.879 -0.4873 -0.3635  0.6077
 4572WAT     H120093   6.502   1.688   5.868 -1.3415 -0.3723 -1.5109
 4572WAT     H220094   6.557   1.549   5.846 -0.8652 -0.3914 -0.2554
 4572WAT    EPW20095   6.493   1.602   5.873 -0.6499 -0.3684  0.2146
 4573WAT      O20096   0.031   9.727   5.202  0.2738  0.1341  0.2679
 4573WAT     H120097  -0.055   9.724   5.245 -0.9939  1.0668 -2.0272
 4573WAT     H220098   0.051   9.635   5.183  0.7793 -0.2846  2.5447
 4573WAT    EPW20099   0.022   9.715   5.205  0.1733  0.2017  0.2651
 4574WAT      O20100  -4.805   7.793   8.795  0.3558 -0.3829 -0.1263
 4574WAT     H120101  -4.736   7.785   8.728  1.9407  0.4389  1.3346
 4574WAT     H220102  -4.817   7.705   8.828  0.0444 -0.6815 -0.9945
 4574WAT    EPW20103  -4.798   7.781   8.790  0.5236 -0.3138 -0.0477
 4575WAT      O20104   3.745   3.380   6.680 -0.4488  0.1568  0.5718
 4575WAT     H120105   3.809   3.437   6.723  0.7502 -0.4123 -0.3810
 4575WAT     H220106   3.681   3.440   6.643  0.8826  0.9600 -0.5614
 4575WAT    EPW20107   3.745   3.396   6.681 -0.1150  0.1878  0.2968
 4576WAT      O20108   7.404   1.403   4.581  0.2576 -0.0941 -0.2474
 4576WAT     H120109   7.334   1.454   4.621  0.8564 -0.8938  1.9339
 4576WAT     H220110   7.478   1.463   4.576  0.0241  0.1629 -0.6815
 4576WAT    EPW20111   7.405   1.418   4.585  0.3057 -0.1657 -0.0172
 4577WAT      O20112   2.951   3.799   7.589 -0.0253  0.2970 -0.2757
 4577WAT     H120113   3.037   3.825   7.556  0.4510 -0.5664  0.2605
 4577WAT     H220114   2.909   3.756   7.514  0.1026  0.5120 -0.4723
 4577WAT    EPW20115   2.957   3.797   7.575  0.0545  0.2114 -0.2310
 4578WAT      O20116   0.384   8.337   4.606 -0.4857  0.3438  0.1920
 4578WAT     H120117   0.371   8.256   4.557  0.0803 -0.1126  0.7750
 4578WAT     H220118   0.301   8.351   4.651 -1.0091  0.7696 -0.8767
 4578WAT    EPW20119   0.371   8.328   4.606 -0.4801  0.3400  0.1278
 4579WAT      O20120   1.780   2.120   3.394  0.6652  0.3287  0.1760
 4579WAT     H120121   1.699   2.070   3.403  1.4181 -0.8465  0.6834
 4579WAT     H220122   1.771   2.193   3.456 -0.6362  1.1157 -0.8989
 4579WAT    EPW20123   1.768   2.123   3.404  0.5929  0.2775  0.1011
 4580WAT      O20124   2.321   2.569   3.666 -0.5583  0.1645 -0.4997
 4580WAT     H120125   2.301   2.638   3.602  1.2742  0.6461 -0.6372
 4580WAT     H220126   2.370   2.614   3.735 -1.0522 -0.6560  0.4031
 4580WAT    EPW20127   2.325   2.584   3.666 -0.3817  0.1198 -0.3988
 4581WAT      O20128  -1.084   4.287   1.483 -0.1546  0.3344 -0.2034
 4581WAT     H120129  -0.989   4.276   1.481  0.0965  1.7141  1.4167
 4581WAT     H220130  -1.104   4.300   1.576 -2.2585 -2.3062 -0.2027
 4581WAT    EPW20131  -1.074   4.288   1.495 -0.3990  0.1678  0.0104
 4582WAT      O20132   0.261   1.328   8.387 -0.5656 -0.3157  0.6326
 4582WAT     H120133   0.222   1.296   8.468 -1.6663 -0.4575  0.0608
 4582WAT     H220134   0.288   1.249   8.340  1.1392 -0.2072  1.3365
 4582WAT    EPW20135   0.259   1.313   8.391 -0.4859 -0.3201  0.6499
 4583WAT      O20136   4.555   4.083   6.278  0.4540  0.7231  0.1763
 4583WAT     H120137   4.627   4.049   6.332 -1.2193 -1.9680  0.9065
 4583WAT     H220138   4.476   4.065   6.329 -0.9748  0.6665 -1.9216
 4583WAT    EPW20139   4.554   4.076   6.292  0.0448  0.3607 -0.0041
 4584WAT      O20140  -6.091   9.010   6.170 -0.1216  0.7582 -0.1126
 4584WAT     H120141  -6.054   8.945   6.230  1.9663  0.5293 -1.5286
 4584WAT     H220142  -6.143   9.067   6.226  0.9035 -0.0206  1.7567
 4584WAT    EPW20143  -6.093   9.009   6.185  0.2890  0.6251 -0.0529
 4585WAT      O20144  -0.778   3.185   6.956  0.2819  0.0012 -0.8508
 4585WAT     H120145  -0.688   3.217   6.948 -0.2129  0.9392 -3.5890
 4585WAT     H220146  -0.799   3.196   7.049  2.7142  0.4696 -0.2928
 4585WAT    EPW20147  -0.769   3.191   6.967  0.5375  0.1868 -1.1384
 4586WAT      O20148   7.564   3.663   0.094  0.3794  0.6225  0.4032
 4586WAT     H120149   7.528   3.733   0.040  2.6522  1.9838  0.5154
 4586WAT     H220150   7.610   3.708   0.165 -0.1028 -1.0605  1.8779
 4586WAT    EPW20151   7.565   3.678   0.097  0.6156  0.5801  0.6125
 4587WAT      O20152   7.820   7.135   0.207  0.3857 -0.1482 -0.3356
 4587WAT     H120153   7.728   7.114   0.187  0.0797 -1.2861  1.8948
 4587WAT     H220154   7.825   7.230   0.199 -1.6000  0.1919  1.5082
 4587WAT    EPW20155   7.808   7.144   0.203  0.0834 -0.2534  0.2018
 4588WAT      O20156  -2.312   6.243   1.088 -0.3276  0.4568  0.6032
 4588WAT     H120157  -2.338   6.303   1.158 -0.3668 -0.5637  1.4777
 4588WAT     H220158  -2.327   6.156   1.124  2.3763 -0.1683  0.4519
 4588WAT    EPW20159  -2.317   6.239   1.102  0.0237  0.2396  0.6986
 4589WAT      O20160  -5.629   5.900   7.451 -0.4433 -0.3925  0.6207
 4589WAT     H120161  -5.597   5.988   7.431  1.4562 -0.9923  0.7825
 4589WAT     H220162  -5.667   5.869   7.368 -0.1552  0.1896  0.2647
 4589WAT    EPW20163  -5.630   5.907   7.437 -0.1550 -0.3948  0.5951
 4590WAT      O20164   4.549   4.655   3.395 -0.0691 -0.5076  0.0698
 4590WAT     H120165   4.605   4.714   3.343  0.5851 -2.0029 -1.0141
 4590WAT     H220166   4.469   4.705   3.408  0.5328  0.7130 -0.6192
 4590WAT    EPW20167   4.546   4.669   3.390  0.0966 -0.5438 -0.1642
 4591WAT      O20168   0.760   9.963   5.693 -0.5795 -1.0398 -0.2255
 4591WAT     H120169   0.770   9.944   5.787 -0.5008 -0.7206 -0.1664
 4591WAT     H220170   0.780   9.881   5.650 -1.2994 -1.3759  0.0721
 4591WAT    EPW20171   0.764   9.950   5.700 -0.6641 -1.0419 -0.1783
 4592WAT      O20172   4.079   7.618   4.300 -0.2340  0.6000 -0.6040
 4592WAT     H120173   4.166   7.581   4.288 -0.6043 -0.2083 -0.9533
 4592WAT     H220174   4.024   7.542   4.320 -0.8363  1.1108 -0.2785
 4592WAT    EPW20175   4.083   7.603   4.301 -0.3624  0.5608 -0.6073
 4593WAT      O20176   1.479   8.321   3.116  0.5407 -0.0640 -0.4448
 4593WAT     H120177   1.442   8.312   3.028  0.6936  0.2196 -0.5403
 4593WAT     H220178   1.435   8.398   3.152  0.9891  0.2397 -0.5360
 4593WAT    EPW20179   1.468   8.330   3.109  0.6201  0.0134 -0.4694
 4594WAT      O20180  -6.391   7.676   8.471 -0.3872 -0.4097  0.0108
 4594WAT     H120181  -6.359   7.586   8.478 -1.7312 -0.8517  0.9521
 4594WAT     H220182  -6.432   7.680   8.385  2.8628  0.4593 -1.6534
 4594WAT    EPW20183  -6.392   7.665   8.461 -0.1359 -0.3533 -0.0849
 4595WAT      O20184   0.454   5.272   3.323 -0.4985 -0.0383 -0.1691
 4595WAT     H120185   0.509   5.195   3.312  1.4635  1.4595 -1.8349
 4595WAT     H220186   0.492   5.318   3.398 -3.2508 -1.8013  2.5314
 4595WAT    EPW20187   0.466   5.268   3.331 -0.6028 -0.0730 -0.0327
 4596WAT      O20188   0.240   8.826   2.687  0.4316  0.0777  0.2787
 4596WAT     H120189   0.232   8.831   2.783 -0.9914 -1.5506  0.2923
 4596WAT     H220190   0.163   8.873   2.655  0.0204 -0.7771 -0.0151
 4596WAT    EPW20191   0.229   8.833   2.696  0.1897 -0.2499  0.2418
 4597WAT      O20192  -1.961   4.761   0.840  0.1037 -0.1296  0.9308
 4597WAT     H120193  -1.873   4.740   0.808 -0.3301 -1.4039  0.5187
 4597WAT     H220194  -1.946   4.802   0.925  1.0565 -1.4789  1.4538
 4597WAT    EPW20195  -1.947   4.764   0.847  0.1721 -0.4756  0.9454
 4598WAT      O20196   3.727   3.725   1.943 -0.3957  0.2274  0.0619
 4598WAT     H120197   3.689   3.671   2.013 -0.0320 -0.4893 -0.2790
 4598WAT     H220198   3.800   3.672   1.910 -0.8457  0.3570 -1.1686
 4598WAT    EPW20199   3.732   3.711   1.948 -0.4070  0.1500 -0.1453
 4599WAT      O20200   6.739   3.442   2.935 -0.1048  0.7490 -0.4047
 4599WAT     H120201   6.741   3.348   2.919  0.2114  0.4459  1.2284
 4599WAT     H220202   6.781   3.481   2.858  1.2877 -0.5651 -0.3568
 4599WAT    EPW20203   6.745   3.435   2.922  0.1206  0.5357 -0.1830
 4600WAT      O20204   1.079   6.635   4.567 -0.4468 -0.3646 -0.1416
 4600WAT     H120205   1.078   6.626   4.472  0.1046 -0.8807 -0.1086
 4600WAT     H220206   1.172   6.630   4.590 -0.5467  0.1410  0.3910
 4600WAT    EPW20207   1.091   6.633   4.557 -0.3873 -0.3660 -0.0670
 4601WAT      O20208   8.562   3.582   1.440  0.2464  0.0726  0.2900
 4601WAT     H120209   8.525   3.625   1.364 -1.2301  2.0681  2.0131
 4601WAT     H220210   8.509   3.502   1.451  0.3509 -0.1348 -0.6111
 4601WAT    EPW20211   8.550   3.577   1.432  0.0658  0.3084  0.3985
 4602WAT      O20212  -0.857   6.389   4.041  0.3298 -0.3572 -0.3819
 4602WAT     H120213  -0.835   6.297   4.056  1.4992  0.0583  0.5727
 4602WAT     H220214  -0.951   6.388   4.023 -0.5638 -1.3837  3.4399
 4602WAT    EPW20215  -0.866   6.376   4.041  0.3662 -0.4380  0.2480
 4603WAT      O20216   2.474   1.076   5.980  0.2271 -0.1697  0.5075
 4603WAT     H120217   2.390   1.106   5.946 -0.0217 -1.3949  0.0106
 4603WAT     H220218   2.535   1.087   5.908  0.1853 -0.6503  0.4012
 4603WAT    EPW20219   2.471   1.082   5.966  0.1887 -0.3946  0.4280
 4604WAT      O20220  -2.274   9.993   2.953 -0.4870  0.0049 -0.0280
 4604WAT     H120221  -2.222  10.073   2.942  1.7696 -1.6750 -3.1430
 4604WAT     H220222  -2.333   9.992   2.878 -1.4447 -0.6736  0.7081
 4604WAT    EPW20223  -2.275  10.004   2.942 -0.3157 -0.3061 -0.3418
 4605WAT      O20224  -2.356   4.266   7.977 -0.9413  0.2394 -0.0404
 4605WAT     H120225  -2.297   4.290   7.906  0.6642 -0.0023  1.1305
 4605WAT     H220226  -2.331   4.176   7.999 -0.5407  0.7059  1.5915
 4605WAT    EPW20227  -2.345   4.257   7.971 -0.6768  0.2689  0.3293
 4606WAT      O20228   0.220   3.136   3.673  0.1490  0.4987 -0.1405
 4606WAT     H120229   0.235   3.145   3.578 -3.2900  0.0898 -0.8673
 4606WAT     H220230   0.199   3.043   3.684  0.2485  0.6041  0.9791
 4606WAT    EPW20231   0.219   3.125   3.662 -0.2915  0.4586 -0.0888
 4607WAT      O20232   6.261   4.487   0.351  0.1436  0.1337  0.6646
 4607WAT     H120233   6.277   4.471   0.444 -0.3088 -3.2269  0.2687
 4607WAT     H220234   6.235   4.402   0.316 -2.1240  1.7815 -2.0813
 4607WAT    EPW20235   6.259   4.474   0.359 -0.2151 -0.0920  0.2502
 4608WAT      O20236  -2.568   8.716   8.325 -0.2143  0.4932 -0.5023
 4608WAT     H120237  -2.589   8.708   8.418 -0.9131 -1.3765 -0.7900
 4608WAT     H220238  -2.638   8.669   8.280  1.4892 -0.9074 -1.8326
 4608WAT    EPW20239  -2.580   8.709   8.331 -0.0818  0.0615 -0.7162
 4609WAT      O20240  -4.762   8.874   2.684 -0.1242 -0.9894 -0.0404
 4609WAT     H120241  -4.857   8.887   2.692  0.0441  0.5890 -0.2963
 4609WAT     H220242  -4.724   8.949   2.730  0.9975 -1.0041 -0.9196
 4609WAT    EPW20243  -4.770   8.885   2.691  0.0460 -0.7834 -0.1900
 4610WAT      O20244   3.413   6.650   1.342 -0.5669  0.3217  0.0433
 4610WAT     H120245   3.458   6.692   1.416 -0.3042  0.0509  0.0390
 4610WAT     H220246   3.407   6.557   1.367 -1.2125  0.3708  0.0874
 4610WAT    EPW20247   3.418   6.643   1.355 -0.6174  0.2925  0.0486
 4611WAT      O20248  -0.875   2.682   4.180 -0.3687  1.2564 -0.8556
 4611WAT     H120249  -0.797   2.667   4.126 -0.4045 -0.4218 -0.4779
 4611WAT     H220250  -0.945   2.638   4.133 -0.1663 -1.3974  1.1168
 4611WAT    EPW20251  -0.874   2.675   4.166 -0.3467  0.6851 -0.5455
 4612WAT      O20252   3.718   9.336   5.674  0.2161  0.1471 -0.1698
 4612WAT     H120253   3.776   9.291   5.735  0.9575  1.0186 -0.2216
 4612WAT     H220254   3.635   9.343   5.722  0.7215  0.6132  0.6617
 4612WAT    EPW20255   3.714   9.331   5.689  0.3805  0.3233 -0.0670
 4613WAT      O20256  -0.967   3.426   2.346 -0.0821  0.1046 -0.0041
 4613WAT     H120257  -1.019   3.440   2.426  0.5102  0.7348  0.2813
 4613WAT     H220258  -0.956   3.331   2.341  1.8345  0.1382  1.9603
 4613WAT    EPW20259  -0.973   3.415   2.356  0.2488  0.1923  0.2925
 4614WAT      O20260   3.966   9.640   4.862  0.3861 -0.4253  0.3262
 4614WAT     H120261   3.871   9.652   4.869  0.4843  0.3508  0.4483
 4614WAT     H220262   3.978   9.546   4.850 -0.5138 -0.3279 -1.7918
 4614WAT    EPW20263   3.955   9.629   4.861  0.2804 -0.3099  0.0629
 4615WAT      O20264   3.944   6.397   7.048 -0.3388 -0.3952 -0.3215
 4615WAT     H120265   3.985   6.352   6.974  2.3292 -0.7050  1.2459
 4615WAT     H220266   4.001   6.379   7.122 -1.1005  2.6308  1.1522
 4615WAT    EPW20267   3.957   6.389   7.048 -0.0873 -0.0367  0.0794
 4616WAT      O20268  -4.370   8.149   2.594  0.0378  0.2613  0.3731
 4616WAT     H120269  -4.405   8.238   2.598  0.0620  0.2558  0.7892
 4616WAT     H220270  -4.394   8.118   2.507 -2.1755 -0.2208  1.0695
 4616WAT    EPW20271  -4.378   8.157   2.583 -0.2508  0.1969  0.5199
 4617WAT      O20272   0.223   0.250   2.818 -0.1841 -0.7040 -0.0980
 4617WAT     H120273   0.177   0.324   2.778  0.1974 -0.3395  0.1298
 4617WAT     H220274   0.291   0.291   2.872 -0.1728 -1.2130  0.2783
 4617WAT    EPW20275   0.226   0.265   2.820 -0.1322 -0.7231 -0.0184
 4618WAT      O20276  -0.181   0.575   2.186 -0.1377 -0.2848  0.1714
 4618WAT     H120277  -0.168   0.486   2.219  2.6410 -0.4731 -1.0798
 4618WAT     H220278  -0.136   0.631   2.250  0.6571 -0.1242 -0.5056
 4618WAT    EPW20279  -0.173   0.570   2.199  0.3336 -0.2885 -0.0829
 4619WAT      O20280   0.231   1.727   8.115 -0.3404 -0.1019  0.2631
 4619WAT     H120281   0.139   1.700   8.113 -0.4567  0.3128 -0.3716
 4619WAT     H220282   0.280   1.645   8.104 -0.6843 -0.0960 -1.6532
 4619WAT    EPW20283   0.225   1.712   8.114 -0.4011 -0.0464 -0.0734
 4620WAT      O20284   2.122   1.870   6.264  0.0593  0.1034 -0.4040
 4620WAT     H120285   2.133   1.875   6.170 -0.2896  1.5562 -0.3953
 4620WAT     H220286   2.045   1.925   6.282 -0.5305 -1.0058  0.6220
 4620WAT    EPW20287   2.113   1.878   6.254 -0.0644  0.1488 -0.2675
 4621WAT      O20288  -3.557  10.006   2.302 -0.1754 -0.2776 -0.5639
 4621WAT     H120289  -3.552   9.930   2.360  0.2822  1.4216  1.7617
 4621WAT     H220290  -3.544   9.970   2.214 -0.6128 -2.9362  0.3730
 4621WAT    EPW20291  -3.554   9.991   2.298 -0.1727 -0.4039 -0.1336
 4622WAT      O20292   6.690   2.334   4.278 -0.1879  0.4340 -0.3248
 4622WAT     H120293   6.762   2.377   4.324 -0.2616  0.0703  0.1393
 4622WAT     H220294   6.732   2.265   4.227  0.0268  1.5703 -1.7302
 4622WAT    EPW20295   6.705   2.331   4.277 -0.1695  0.5358 -0.4489
 4623WAT      O20296   3.700   0.818   2.170  0.2828 -0.1808 -0.8291
 4623WAT     H120297   3.733   0.749   2.228  1.3657  1.0469  0.0569
 4623WAT     H220298   3.712   0.899   2.219 -0.5771  0.7082 -2.0181
 4623WAT    EPW20299   3.706   0.820   2.184  0.3122  0.0984 -0.8692
 4624WAT      O20300  -3.837   1.995   8.309  0.3575 -0.1832 -0.3882
 4624WAT     H120301  -3.750   1.989   8.348  0.4519  0.4709 -0.4801
 4624WAT     H220302  -3.835   1.934   8.235  0.7590 -0.1254 -0.4294
 4624WAT    EPW20303  -3.825   1.987   8.304  0.4228 -0.0894 -0.4058
 4625WAT      O20304  -4.492   8.450   3.512 -0.5800 -0.0190  0.2921
 4625WAT     H120305  -4.480   8.542   3.533 -0.6357 -0.1344  0.8444
 4625WAT     H220306  -4.567   8.422   3.566  1.1347 -1.0676  2.2667
 4625WAT    EPW20307  -4.501   8.458   3.522 -0.3612 -0.1726  0.6254
 4626WAT      O20308  -4.335   4.705   6.245 -0.2592  0.0116  0.1483
 4626WAT     H120309  -4.321   4.687   6.338 -0.8905  0.8001  0.4088
 4626WAT     H220310  -4.379   4.790   6.243 -1.0689 -0.3990 -0.8146
 4626WAT    EPW20311  -4.339   4.714   6.257 -0.4494  0.0615  0.0556
 4627WAT      O20312  -3.440   9.261   2.951  0.3291  0.3330 -0.0189
 4627WAT     H120313  -3.467   9.180   2.908 -0.8134 -1.6444  3.9253
 4627WAT     H220314  -3.518   9.292   2.996  1.5011  1.8631  1.0998
 4627WAT    EPW20315  -3.454   9.254   2.952  0.3331  0.2737  0.6489
 4628WAT      O20316   0.340   4.497   6.629  0.3088 -0.1302  0.2851
 4628WAT     H120317   0.326   4.409   6.594  2.4414  0.0700 -1.2719
 4628WAT     H220318   0.274   4.551   6.586  1.4520 -0.3178 -1.8402
 4628WAT    EPW20319   0.329   4.492   6.619  0.7408 -0.1285 -0.2005
 4629WAT      O20320   0.580   5.093   8.024  0.7732 -0.2130  0.1911
 4629WAT     H120321   0.647   5.025   8.033  1.9748  0.8817 -0.0983
 4629WAT     H220322   0.567   5.101   7.929 -0.4641 -1.0551  0.2769
 4629WAT    EPW20323   0.587   5.085   8.013  0.7685 -0.1795  0.1640
 4630WAT      O20324  -1.128   7.870   7.572 -0.5680 -0.2202  0.0420
 4630WAT     H120325  -1.109   7.919   7.652  0.1651 -0.5588  0.0814
 4630WAT     H220326  -1.046   7.872   7.523 -1.4911  1.5884 -1.5845
 4630WAT    EPW20327  -1.115   7.877   7.576 -0.5930 -0.0262 -0.1674
 4631WAT      O20328  -6.194   9.711   5.831 -0.0162 -0.3080 -0.2126
 4631WAT     H120329  -6.238   9.722   5.915 -0.4069  1.7847 -0.6541
 4631WAT     H220330  -6.131   9.640   5.847  0.4229  0.5041  2.0534
 4631WAT    EPW20331  -6.191   9.703   5.845 -0.0098  0.0753  0.0281
 4632WAT      O20332   4.859   0.478   0.781 -0.5150 -0.0670  0.5436
 4632WAT     H120333   4.923   0.482   0.852 -0.8821 -1.3969  0.9845
 4632WAT     H220334   4.805   0.556   0.792 -0.7450 -0.4001  1.9086
 4632WAT    EPW20335   4.860   0.489   0.792 -0.5937 -0.2864  0.7817
 4633WAT      O20336  -3.332   4.081   5.153  0.1996 -0.2475  0.2704
 4633WAT     H120337  -3.250   4.110   5.111 -0.3368 -1.0332 -1.4114
 4633WAT     H220338  -3.372   4.162   5.185  0.4270  0.4737 -1.1795
 4633WAT    EPW20339  -3.326   4.096   5.152  0.1589 -0.2561 -0.1426
 4634WAT      O20340  -0.028   9.903   5.560 -0.5349  0.3578 -0.7731
 4634WAT     H120341  -0.031   9.961   5.636  0.8872  0.7922 -1.0209
 4634WAT     H220342  -0.063   9.957   5.488  2.4871  1.6645 -1.4148
 4634WAT    EPW20343  -0.033   9.918   5.560  0.0513  0.5879 -0.8903
 4635WAT      O20344   0.800   0.481   3.883  0.5077 -0.4209  0.5763
 4635WAT     H120345   0.863   0.471   3.812  0.6323 -1.2185  0.7848
 4635WAT     H220346   0.845   0.532   3.950  0.5957 -0.1743  0.3283
 4635WAT    EPW20347   0.814   0.486   3.882  0.5357 -0.4936  0.5711
 4636WAT      O20348  -2.269   6.611   4.515 -0.6343  0.2679 -0.0626
 4636WAT     H120349  -2.229   6.539   4.565  0.9483  0.3193 -1.1868
 4636WAT     H220350  -2.353   6.575   4.486 -0.4681 -0.6497  0.5341
 4636WAT    EPW20351  -2.275   6.597   4.518 -0.4036  0.1538 -0.1323
 4637WAT      O20352   0.400   7.971   8.419  0.5836  0.1465 -0.2362
 4637WAT     H120353   0.489   8.005   8.415  1.6752 -2.3768  0.5141
 4637WAT     H220354   0.406   7.884   8.380 -1.4289 -0.3108  0.3696
 4637WAT    EPW20355   0.413   7.964   8.414  0.4621 -0.2468 -0.0572
 4638WAT      O20356   7.883   0.042   3.517 -0.4204 -0.9493  0.2130
 4638WAT     H120357   7.892  -0.043   3.474  0.7562  1.0641 -4.1729
 4638WAT     H220358   7.833   0.095   3.455  2.0090  2.5209  0.8938
 4638WAT    EPW20359   7.878   0.038   3.503  0.0553 -0.2260 -0.2757
 4639WAT      O20360   4.942   5.626   1.891 -0.1300  0.0309 -0.2637
 4639WAT     H120361   4.847   5.615   1.896 -0.2787  1.4488  0.5051
 4639WAT     H220362   4.973   5.547   1.847 -1.6497 -0.5100 -0.4143
 4639WAT    EPW20363   4.933   5.614   1.886 -0.3500  0.1466 -0.1821
 4640WAT      O20364  -2.021   6.910   2.527  0.0165  0.1523  0.5212
 4640WAT     H120365  -2.075   6.878   2.455  0.2028 -0.9980  0.8702
 4640WAT     H220366  -2.048   6.857   2.603  1.0424  0.1312  0.8882
 4640WAT    EPW20367  -2.032   6.899   2.528  0.1763 -0.0024  0.6156
 4641WAT      O20368   4.797   4.064   6.428  0.0433  0.0511 -0.0510
 4641WAT     H120369   4.839   4.145   6.458 -0.8931  0.4213  0.2927
 4641WAT     H220370   4.797   4.007   6.504  0.9409 -0.3879 -0.3650
 4641WAT    EPW20371   4.803   4.067   6.442  0.0381  0.0420 -0.0470
 4642WAT      O20372  -2.701  10.373   1.716  0.1559 -0.1947 -0.0852
 4642WAT     H120373  -2.720  10.296   1.770 -1.4986  1.7676  2.3317
 4642WAT     H220374  -2.787  10.408   1.693  0.8502  0.2415 -2.3200
 4642WAT    EPW20375  -2.715  10.367   1.720  0.0293  0.1217 -0.0611
 4643WAT      O20376  -0.891   2.009   3.214 -0.1191  0.1098  0.6586
 4643WAT     H120377  -0.919   1.922   3.243  0.5382 -0.8060 -1.2621
 4643WAT     H220378  -0.957   2.036   3.151 -0.3833  1.0777  1.3398
 4643WAT    EPW20379  -0.903   2.001   3.209 -0.0672  0.1167  0.4951
 4644WAT      O20380   5.324   6.155   3.890  0.3965  0.8555  0.7642
 4644WAT     H120381   5.234   6.161   3.920  0.2940  1.1814  0.3907
 4644WAT     H220382   5.361   6.242   3.906 -0.3317  1.8321 -2.1688
 4644WAT    EPW20383   5.317   6.167   3.896  0.2868  1.0273  0.3281
 4645WAT      O20384   2.597   8.220   0.877 -0.1301 -0.0853  0.1782
 4645WAT     H120385   2.542   8.207   0.954  0.2960  0.7349  0.6304
 4645WAT     H220386   2.636   8.306   0.889 -1.8088  1.0927 -2.0618
 4645WAT    EPW20387   2.595   8.229   0.889 -0.2952  0.1783 -0.0576
 4646WAT      O20388  -2.859   8.704   3.394  0.3289 -0.5348 -0.3567
 4646WAT     H120389  -2.844   8.694   3.300 -2.8256  0.4822 -1.1137
 4646WAT     H220390  -2.886   8.617   3.424 -1.4133 -0.3045 -1.1015
 4646WAT    EPW20391  -2.861   8.692   3.386 -0.3169 -0.3700 -0.5549
 4647WAT      O20392  -3.462   7.282   2.526 -0.1673 -0.0680 -0.2762
 4647WAT     H120393  -3.493   7.303   2.614  2.0053 -1.0642  0.8084
 4647WAT     H220394  -3.369   7.263   2.537  0.2618  0.1421 -2.8750
 4647WAT    EPW20395  -3.454   7.282   2.539  0.1760 -0.1717 -0.4759
 4648WAT      O20396   0.640   8.291   7.687 -0.4878  0.4774 -0.3281
 4648WAT     H120397   0.722   8.304   7.640  0.1602 -0.6445  0.4244
 4648WAT     H220398   0.625   8.373   7.734  1.0920  0.1570  0.8116
 4648WAT    EPW20399   0.649   8.303   7.687 -0.1940  0.2871 -0.0787
 4649WAT      O20400  -3.836  10.030   0.957  0.2440 -0.1876  0.0490
 4649WAT     H120401  -3.917   9.995   0.995 -0.4695  1.7233  0.4065
 4649WAT     H220402  -3.818   9.973   0.882 -0.6946 -1.4362  0.7213
 4649WAT    EPW20403  -3.844  10.018   0.952  0.0262 -0.1001  0.1848
 4650WAT      O20404   2.637   2.829   6.909 -0.4461  0.4391 -0.4695
 4650WAT     H120405   2.574   2.767   6.945  0.4077  0.0644  0.4367
 4650WAT     H220406   2.610   2.914   6.943  0.5714  0.0457  1.4778
 4650WAT    EPW20407   2.625   2.832   6.918 -0.1993  0.3377 -0.0932
 4651WAT      O20408   1.661   1.091   3.859  0.1600  0.7057 -1.0940
 4651WAT     H120409   1.623   1.110   3.773 -2.8339 -3.1906 -0.8857
 4651WAT     H220410   1.607   1.140   3.920 -0.4734  0.1557 -1.2022
 4651WAT    EPW20411   1.649   1.100   3.855 -0.3185  0.1193 -1.0809
 4652WAT      O20412  -0.870   8.122   7.303 -0.3070  0.3473 -0.1247
 4652WAT     H120413  -0.822   8.155   7.227 -1.2929 -0.4550 -1.1160
 4652WAT     H220414  -0.942   8.071   7.266 -2.0928  1.7023  1.2885
 4652WAT    EPW20415  -0.873   8.120   7.288 -0.6725  0.4201 -0.0694
 4653WAT      O20416  -7.095   7.261   7.721  0.6053 -0.1899  0.3494
 4653WAT     H120417  -7.121   7.326   7.655 -0.1873 -0.2921  0.5525
 4653WAT     H220418  -7.171   7.254   7.778  2.5229  2.9430  3.7746
 4653WAT    EPW20419  -7.108   7.269   7.720  0.7536  0.2098  0.8280
 4654WAT      O20420   0.095   0.630   4.264 -0.5380 -0.1897 -0.1827
 4654WAT     H120421   0.117   0.704   4.321 -2.2762 -1.0382  1.7201
 4654WAT     H220422   0.012   0.656   4.224 -0.7485 -0.7758 -0.1269
 4654WAT    EPW20423   0.087   0.643   4.266 -0.7950 -0.3789  0.0758
 4655WAT      O20424   1.902   4.944   7.812  0.1396 -0.8779 -0.3472
 4655WAT     H120425   1.922   5.002   7.886 -0.8605 -0.0911 -0.6704
 4655WAT     H220426   1.944   4.986   7.737 -0.2224 -0.7900 -0.5048
 4655WAT    EPW20427   1.910   4.957   7.812 -0.0401 -0.7625 -0.4106
 4656WAT      O20428   0.257   9.832   4.717 -0.2076  0.1486  0.0790
 4656WAT     H120429   0.303   9.914   4.698  1.9799 -0.9614  0.2863
 4656WAT     H220430   0.203   9.852   4.793  0.2047  1.4211  0.0630
 4656WAT    EPW20431   0.256   9.845   4.725  0.1353  0.1698  0.1042
 4657WAT      O20432   5.751   0.260   7.119 -0.5622  0.3483  0.1879
 4657WAT     H120433   5.841   0.240   7.096 -0.8456 -1.2690  0.4175
 4657WAT     H220434   5.745   0.356   7.110  1.4870  0.6349  1.3754
 4657WAT    EPW20435   5.762   0.270   7.115 -0.3295  0.1728  0.3748
 4658WAT      O20436   1.085   2.951   0.684 -0.1944  0.3048  1.0148
 4658WAT     H120437   1.108   2.982   0.597  2.2792 -3.7587 -0.0460
 4658WAT     H220438   1.036   2.870   0.669 -0.0714 -0.2958  3.4055
 4658WAT    EPW20439   1.082   2.944   0.671  0.1481 -0.3104  1.1902
 4659WAT      O20440   3.632   9.116   5.465 -0.3510  0.5803  0.4658
 4659WAT     H120441   3.685   9.153   5.536  0.9537  0.5953 -0.4987
 4659WAT     H220442   3.638   9.181   5.395 -0.0283 -0.3307 -0.3615
 4659WAT    EPW20443   3.640   9.129   5.465 -0.1365  0.4621  0.2296
 4660WAT      O20444   2.621   3.507   3.022  0.7272  0.1223  0.2139
 4660WAT     H120445   2.678   3.561   2.967  0.8666  0.8736  1.0628
 4660WAT     H220446   2.670   3.427   3.037  1.3836  0.5856  0.5796
 4660WAT    EPW20447   2.635   3.504   3.017  0.8321  0.2825  0.3741
 4661WAT      O20448  -3.589   8.428   5.070 -0.0064  0.0058  0.2471
 4661WAT     H120449  -3.594   8.480   5.150 -2.7542 -1.0666  0.8996
 4661WAT     H220450  -3.674   8.440   5.028  1.1325  0.0011 -2.2034
 4661WAT    EPW20451  -3.601   8.436   5.075 -0.2186 -0.1364  0.0098
 4662WAT      O20452  -2.512   6.557   6.462 -0.3211  0.2347  0.2450
 4662WAT     H120453  -2.447   6.517   6.520  0.6260  0.9134 -0.3050
 4662WAT     H220454  -2.586   6.578   6.519  0.4399  0.5614  1.1341
 4662WAT    EPW20455  -2.513   6.554   6.477 -0.0958  0.3672  0.2897
 4663WAT      O20456  -5.274   8.803   5.812 -0.1411  0.4495  0.0718
 4663WAT     H120457  -5.338   8.871   5.830 -0.0441  0.4170  0.5505
 4663WAT     H220458  -5.197   8.829   5.861 -0.9956 -1.4224  2.5959
 4663WAT    EPW20459  -5.272   8.815   5.821 -0.2410  0.1984  0.4678
 4664WAT      O20460  -1.583   5.259   6.641  0.7010 -0.6559  0.3869
 4664WAT     H120461  -1.677   5.280   6.641  1.0166  0.8932  0.1667
 4664WAT     H220462  -1.540   5.344   6.632  2.1509 -1.2781  1.1474
 4664WAT    EPW20463  -1.590   5.273   6.640  0.9339 -0.5336  0.4582
 4665WAT      O20464   8.699   0.358   0.324 -0.0313 -0.7421 -0.4923
 4665WAT     H120465   8.610   0.391   0.328 -0.0080 -0.6762 -0.5247
 4665WAT     H220466   8.727   0.374   0.234 -0.0912 -1.0366 -0.5634
 4665WAT    EPW20467   8.691   0.364   0.313 -0.0358 -0.7722 -0.5059
 4666WAT      O20468   5.200   9.623   1.732 -0.3792 -0.1028  0.0458
 4666WAT     H120469   5.200   9.708   1.776  0.8143 -0.0389 -0.0482
 4666WAT     H220470   5.160   9.640   1.647  1.1094  0.6897 -0.5346
 4666WAT    EPW20471   5.195   9.636   1.727 -0.0255  0.0100 -0.0432
 4667WAT      O20472  -3.445   8.093   5.301 -0.8600 -0.3428  0.4569
 4667WAT     H120473  -3.371   8.074   5.244 -0.5199 -1.4131  1.2164
 4667WAT     H220474  -3.461   8.186   5.289 -0.7640 -0.5188 -1.3107
 4667WAT    EPW20475  -3.437   8.103   5.292 -0.8025 -0.5074  0.3240
 4668WAT      O20476  -0.257  10.074   0.846  0.8892 -0.1890 -0.5408
 4668WAT     H120477  -0.287  10.022   0.771 -0.3456  0.6348 -0.6485
 4668WAT     H220478  -0.162  10.080   0.835  0.9073 -1.3690 -1.1885
 4668WAT    EPW20479  -0.249  10.068   0.835  0.7287 -0.2360 -0.6404
 4669WAT      O20480  -4.087   4.742   7.114  0.1558 -0.0941 -0.1633
 4669WAT     H120481  -3.992   4.746   7.100  0.3167 -1.3445  0.4844
 4669WAT     H220482  -4.124   4.736   7.026  0.7073 -0.1332 -0.3991
 4669WAT    EPW20483  -4.079   4.742   7.101  0.2496 -0.2639 -0.1090
 4670WAT      O20484  -0.949   6.080   6.380  0.0491  0.6791 -0.1787
 4670WAT     H120485  -0.937   5.999   6.331 -2.4127  0.4492 -0.5613
 4670WAT     H220486  -0.939   6.054   6.472 -0.0853  0.0690 -0.3313
 4670WAT    EPW20487  -0.946   6.066   6.386 -0.2933  0.5684 -0.2494
 4671WAT      O20488  -1.258   8.340   0.021 -0.3361 -0.3434 -0.1035
 4671WAT     H120489  -1.194   8.411   0.024 -0.7978  0.0526  0.5644
 4671WAT     H220490  -1.209   8.265  -0.014  0.4914 -0.0477  0.3862
 4671WAT    EPW20491  -1.243   8.339   0.017 -0.2878 -0.2522  0.0492
 4672WAT      O20492   2.449   3.046   0.946 -0.0774  0.0424 -0.1358
 4672WAT     H120493   2.390   3.122   0.951  0.3081  0.2839  2.4885
 4672WAT     H220494   2.475   3.031   1.037  1.2789 -2.1516 -0.8176
 4672WAT    EPW20495   2.444   3.054   0.959  0.1523 -0.2152  0.1204
 4673WAT      O20496   3.865   5.884   1.688  0.2333 -0.5100 -0.0249
 4673WAT     H120497   3.809   5.837   1.627  0.8625 -1.6654  0.2773
 4673WAT     H220498   3.935   5.921   1.634  1.3577 -2.3785  0.0911
 4673WAT    EPW20499   3.867   5.883   1.673  0.4647 -0.9086  0.0302
 4674WAT      O20500  -1.219   6.760   1.939 -0.7816  0.4262  0.4774
 4674WAT     H120501  -1.148   6.748   1.876 -0.3017  0.4269  1.0090
 4674WAT     H220502  -1.287   6.700   1.910 -1.0328  1.2553 -0.7138
 4674WAT    EPW20503  -1.218   6.751   1.927 -0.7515  0.5357  0.3904
 4675WAT      O20504   2.256   8.451   6.955  0.2498  0.0190 -0.4340
 4675WAT     H120505   2.286   8.362   6.938  0.9483 -0.0677  1.0686
 4675WAT     H220506   2.307   8.506   6.897  0.7015 -0.4614 -0.4955
 4675WAT    EPW20507   2.267   8.447   6.945  0.4014 -0.0558 -0.2437
 4676WAT      O20508   0.456   1.344   3.849  0.6653 -0.0318  0.5199
 4676WAT     H120509   0.481   1.435   3.864  0.9936  0.0741 -0.6113
 4676WAT     H220510   0.398   1.323   3.922  0.5972  1.0795  0.8001
 4676WAT    EPW20511   0.451   1.353   3.861  0.6996  0.1287  0.4077
 4677WAT      O20512  -1.761   4.319   2.473  0.4936 -0.3309  0.2535
 4677WAT     H120513  -1.840   4.286   2.431 -0.2361  1.6081  0.0091
 4677WAT     H220514  -1.791   4.354   2.557  0.9273  1.1339 -0.1700
 4677WAT    EPW20515  -1.775   4.319   2.479  0.4546  0.1180  0.1653
 4678WAT      O20516   3.384   5.367   4.048  0.3341  0.1001 -0.0450
 4678WAT     H120517   3.360   5.458   4.032 -1.1771 -0.3534 -0.4892
 4678WAT     H220518   3.307   5.317   4.020  0.9126 -1.2703  0.7531
 4678WAT    EPW20519   3.371   5.373   4.042  0.2110 -0.1407  0.0017
 4679WAT      O20520  -0.630   7.684   6.359  1.3025  0.7538 -0.0224
 4679WAT     H120521  -0.693   7.702   6.429  2.7903  1.7098  1.1320
 4679WAT     H220522  -0.648   7.593   6.334 -0.5567  1.0123  0.2037
 4679WAT    EPW20523  -0.641   7.674   6.365  1.2535  0.9139  0.1595
 4680WAT      O20524   3.242   0.793   0.820 -0.4393  0.2769 -0.1662
 4680WAT     H120525   3.217   0.703   0.800 -1.0426  0.3744  0.1174
 4680WAT     H220526   3.304   0.785   0.893  1.2035 -0.0317 -1.5314
 4680WAT    EPW20527   3.247   0.780   0.827 -0.3022  0.2491 -0.3088
 4681WAT      O20528   7.573   5.937   1.196  0.1879  0.3715 -0.3378
 4681WAT     H120529   7.552   5.998   1.267 -1.3444 -0.7856  0.2472
 4681WAT     H220530   7.536   5.978   1.118 -1.1104  0.0667  0.1015
 4681WAT    EPW20531   7.565   5.950   1.195 -0.1855  0.1788 -0.2027
 4682WAT      O20532   0.463   7.753   7.221 -0.1532  0.7466 -0.0177
 4682WAT     H120533   0.377   7.725   7.191  0.9287 -2.0410 -0.8367
 4682WAT     H220534   0.495   7.809   7.151 -0.3714 -0.1925 -0.9001
 4682WAT    EPW20535   0.456   7.757   7.208 -0.0393  0.2549 -0.2420
 4683WAT      O20536  -2.948   6.722   2.430 -0.2212 -0.1005 -0.5320
 4683WAT     H120537  -3.000   6.741   2.352  0.3039  0.0033 -0.8558
 4683WAT     H220538  -2.915   6.634   2.417  2.5799  1.0573 -1.9788
 4683WAT    EPW20539  -2.951   6.713   2.418  0.2176  0.0658 -0.7656
 4684WAT      O20540   0.567   8.082   7.097  0.0437  0.4110 -0.7521
 4684WAT     H120541   0.549   8.173   7.075  2.4501  1.1040 -0.1610
 4684WAT     H220542   0.615   8.087   7.180 -1.1899 -1.5332  0.1620
 4684WAT    EPW20543   0.571   8.095   7.105  0.1984  0.2460 -0.5534
 4685WAT      O20544  -1.266   7.150   4.605  0.2807  0.1802  0.3081
 4685WAT     H120545  -1.345   7.137   4.658  0.6244  1.7713  1.3026
 4685WAT     H220546  -1.195   7.122   4.662  0.8592  3.9074  1.7440
 4685WAT    EPW20547  -1.267   7.145   4.620  0.4023  0.8814  0.6289
 4686WAT      O20548   1.958   3.422   6.896 -0.3675 -0.5550  0.2437
 4686WAT     H120549   1.924   3.364   6.828  1.4820 -0.9673 -0.3845
 4686WAT     H220550   1.956   3.369   6.976  0.2132 -1.0909 -0.0936
 4686WAT    EPW20551   1.953   3.407   6.898 -0.0470 -0.6801  0.1166
 4687WAT      O20552   5.963   2.163   5.657 -0.1792  0.7485  0.0417
 4687WAT     H120553   5.978   2.152   5.563 -0.3744 -1.3871  0.2294
 4687WAT     H220554   5.882   2.213   5.662 -1.4147 -1.0453 -0.9605
 4687WAT    EPW20555   5.954   2.168   5.645 -0.3679  0.2302 -0.0658
 4688WAT      O20556   8.397   6.936   0.077 -0.1199  0.0239 -0.6181
 4688WAT     H120557   8.388   7.032   0.071  0.9340  0.2457  0.8458
 4688WAT     H220558   8.308   6.906   0.099 -0.1951  0.8120  0.2336
 4688WAT    EPW20559   8.384   6.945   0.079  0.0095  0.1571 -0.3127
 4689WAT      O20560  -1.565   3.193   5.818 -0.8584  0.7800 -0.0463
 4689WAT     H120561  -1.576   3.243   5.900  1.1475 -0.8289  1.3039
 4689WAT     H220562  -1.550   3.261   5.752 -2.5734  2.1370  0.8362
 4689WAT    EPW20563  -1.565   3.209   5.820 -0.8200  0.7468  0.2482
 4690WAT      O20564   5.918  10.271   1.381 -0.1983  0.0863  0.4534
 4690WAT     H120565   5.864  10.320   1.443  1.0607 -0.0918  1.7261
 4690WAT     H220566   5.898  10.312   1.296  0.6538  2.7216  1.4189
 4690WAT    EPW20567   5.908  10.283   1.378  0.0801  0.4106  0.7486
 4691WAT      O20568  -4.963   8.048   8.719  0.0986  0.0801 -0.5746
 4691WAT     H120569  -4.924   8.133   8.702  0.6487  0.3202  1.5338
 4691WAT     H220570  -4.889   7.993   8.746 -0.3897 -0.7802 -0.9360
 4691WAT    EPW20571  -4.948   8.052   8.720  0.1068 -0.0014 -0.3443
 4692WAT      O20572  -4.138   4.880   4.588 -0.1413 -0.2304 -0.5775
 4692WAT     H120573  -4.109   4.963   4.549 -0.3814 -0.1916 -0.6757
 4692WAT     H220574  -4.105   4.882   4.677  1.5498 -0.8925 -1.1441
 4692WAT    EPW20575  -4.130   4.891   4.595  0.0501 -0.3126 -0.6652
 4693WAT      O20576  -3.058   8.804   6.947 -0.5071  0.5353  0.5433
 4693WAT     H120577  -2.979   8.804   6.892  0.0268 -0.9954  1.2412
 4693WAT     H220578  -3.044   8.730   7.008 -2.0385  0.8569  1.3199
 4693WAT    EPW20579  -3.046   8.794   6.948 -0.6386  0.3762  0.7379
 4694WAT      O20580   6.359   0.273   3.611  0.1830  0.1726 -0.3856
 4694WAT     H120581   6.295   0.268   3.682  0.0367 -2.4232 -0.6061
 4694WAT     H220582   6.440   0.302   3.654  0.2227 -1.8185  1.0130
 4694WAT    EPW20583   6.361   0.276   3.626  0.1688 -0.4324 -0.2303
 4695WAT      O20584   3.815   1.947   0.655 -0.3808  0.1412 -0.2909
 4695WAT     H120585   3.734   1.922   0.610  0.1309  0.0727 -1.1998
 4695WAT     H220586   3.875   1.970   0.584  0.4315  0.0947  0.3722
 4695WAT    EPW20587   3.812   1.947   0.640 -0.2061  0.1260 -0.3233
 4696WAT      O20588  -5.440   2.780   8.696 -0.5005 -0.0601 -0.2595
 4696WAT     H120589  -5.357   2.812   8.731 -0.2903 -1.1805  0.3211
 4696WAT     H220590  -5.416   2.701   8.647 -0.9540  0.7956 -1.9646
 4696WAT    EPW20591  -5.426   2.774   8.694 -0.5329 -0.0950 -0.4077
 4697WAT      O20592   3.980   5.218   7.011 -0.2272 -0.1736  0.3195
 4697WAT     H120593   3.885   5.228   7.016 -0.2518  0.5300 -0.9931
 4697WAT     H220594   3.998   5.135   7.056 -1.6765 -1.2885 -1.0236
 4697WAT    EPW20595   3.970   5.208   7.018 -0.4215 -0.2279 -0.0308
 4698WAT      O20596  -1.730   8.054   8.445 -0.6999  0.5423  0.6637
 4698WAT     H120597  -1.663   8.076   8.509  0.8070 -0.5552 -0.4661
 4698WAT     H220598  -1.710   8.109   8.369 -1.5343  0.7274  0.5674
 4698WAT    EPW20599  -1.719   8.064   8.443 -0.6112  0.4215  0.5021
 4699WAT      O20600   5.961   5.987   1.566  0.0294 -0.1380  0.4190
 4699WAT     H120601   5.954   5.945   1.651  1.4165 -1.0161  0.1312
 4699WAT     H220602   6.040   5.949   1.527 -0.2521  0.6783 -1.0126
 4699WAT    EPW20603   5.970   5.976   1.572  0.1752 -0.1462  0.1922
 4700WAT      O20604  -1.361   7.096   1.742 -0.3469 -0.4003  0.4424
 4700WAT     H120605  -1.385   7.104   1.650  2.8113 -0.0048 -0.4452
 4700WAT     H220606  -1.424   7.033   1.777  0.1900 -2.9728 -2.7624
 4700WAT    EPW20607  -1.372   7.089   1.734  0.1404 -0.6874 -0.0973
 4701WAT      O20608  -2.128   2.437   5.666 -0.0532  0.7123  0.0205
 4701WAT     H120609  -2.215   2.470   5.644  1.3098  4.0466 -1.0308
 4701WAT     H220610  -2.090   2.412   5.582  0.3992  0.3416  0.3270
 4701WAT    EPW20611  -2.134   2.438   5.652  0.1862  1.1032 -0.0777
 4702WAT      O20612  -0.820   9.876   5.811  0.3436 -0.1832 -0.4545
 4702WAT     H120613  -0.729   9.873   5.839  0.5573 -0.9040 -1.1869
 4702WAT     H220614  -0.855   9.789   5.831 -0.6788  0.5756  1.3457
 4702WAT    EPW20615  -0.813   9.864   5.818  0.2370 -0.1783 -0.3135
 4703WAT      O20616   1.237   6.318   1.153  0.4829 -1.0867  0.4037
 4703WAT     H120617   1.174   6.249   1.134 -0.6597 -0.0519  0.3043
 4703WAT     H220618   1.278   6.338   1.069  1.1756 -1.9635  0.5221
 4703WAT    EPW20619   1.234   6.312   1.140  0.4236 -1.0660  0.4062
 4704WAT      O20620   3.122   0.282   2.678  0.1884  0.4612 -0.2180
 4704WAT     H120621   3.071   0.361   2.661  0.7337  0.9377  0.2861
 4704WAT     H220622   3.198   0.313   2.727 -1.3480 -0.7990  3.2661
 4704WAT    EPW20623   3.125   0.297   2.682  0.0577  0.3578  0.3080
 4705WAT      O20624   5.125   2.370   0.074  0.2145  0.9905 -0.4300
 4705WAT     H120625   5.172   2.338  -0.003  0.4469  0.1543  0.0490
 4705WAT     H220626   5.193   2.380   0.141 -0.2022  0.2882  0.1078
 4705WAT    EPW20627   5.140   2.367   0.073  0.1900  0.7875 -0.2959
 4706WAT      O20628  -4.843   8.835   3.316 -0.4161  0.5178 -1.2686
 4706WAT     H120629  -4.887   8.909   3.276 -0.0934  1.3387 -0.1772
 4706WAT     H220630  -4.752   8.863   3.324 -0.4888  0.4528  0.1086
 4706WAT    EPW20631  -4.837   8.848   3.312 -0.3831  0.6175 -0.9431
 4707WAT      O20632   6.425   0.212   5.842  0.3898 -0.2500 -0.0166
 4707WAT     H120633   6.411   0.118   5.848 -0.6473 -0.1488 -0.5999
 4707WAT     H220634   6.479   0.224   5.764 -0.0770 -0.3141 -0.3531
 4707WAT    EPW20635   6.430   0.201   5.833  0.1915 -0.2451 -0.1378
 4708WAT      O20636  -5.825   8.346   6.371  0.3506 -0.0015  0.2404
 4708WAT     H120637  -5.803   8.313   6.284 -0.6108 -1.1254  0.3881
 4708WAT     H220638  -5.761   8.415   6.387  0.6249  0.1487 -1.2972
 4708WAT    EPW20639  -5.813   8.350   6.362  0.2601 -0.1297  0.0570
 4709WAT      O20640  -5.057   8.866   4.222 -0.3905  0.2518 -0.5223
 4709WAT     H120641  -5.097   8.943   4.262 -0.1960 -0.1553  0.4888
 4709WAT     H220642  -5.104   8.854   4.139 -2.4051 -0.2270  0.6176
 4709WAT    EPW20643  -5.068   8.875   4.216 -0.6306  0.1349 -0.2387
 4710WAT      O20644   3.959   8.802   3.276 -0.1609  0.3458  0.4524
 4710WAT     H120645   3.893   8.862   3.239 -0.8368 -0.2736  0.6273
 4710WAT     H220646   3.908   8.729   3.310  0.5479  0.3249  1.5168
 4710WAT    EPW20647   3.943   8.800   3.275 -0.1565  0.2613  0.6158
 4711WAT      O20648   0.069   4.398   1.905 -0.2492  0.4955 -0.9439
 4711WAT     H120649   0.067   4.450   1.985  0.1140  2.6357 -2.2656
 4711WAT     H220650   0.102   4.313   1.934 -0.7914  0.9574  1.2826
 4711WAT    EPW20651   0.073   4.393   1.920 -0.2728  0.8388 -0.8245
 4712WAT      O20652   2.988   6.790   6.553 -0.6195 -0.5669 -0.2041
 4712WAT     H120653   3.050   6.724   6.584 -0.3921  0.1456  0.9259
 4712WAT     H220654   2.995   6.786   6.458  1.9279  0.1641 -0.1177
 4712WAT    EPW20655   2.997   6.781   6.545 -0.2534 -0.3765 -0.0436
 4713WAT      O20656   0.225   7.652   7.066  0.0108  0.3052  1.4583
 4713WAT     H120657   0.306   7.666   7.017 -0.7514 -0.1451 -0.0130
 4713WAT     H220658   0.234   7.565   7.103  0.4518  0.5007  1.8079
 4713WAT    EPW20659   0.237   7.642   7.064 -0.0316  0.2718  1.3103
 4714WAT      O20660  -1.795   4.804   5.099 -0.1874 -0.6244  0.0807
 4714WAT     H120661  -1.869   4.844   5.145  1.3317  3.7488 -0.7568
 4714WAT     H220662  -1.822   4.802   5.007  0.2392 -0.2444 -0.0558
 4714WAT    EPW20663  -1.808   4.809   5.093  0.0693  0.0026 -0.0479
 4715WAT      O20664  -2.959   7.248   3.669 -0.4165  0.0041  1.0033
 4715WAT     H120665  -2.979   7.253   3.575  0.8998  0.3326  0.7128
 4715WAT     H220666  -2.876   7.295   3.678  0.3139 -1.4195  2.0727
 4715WAT    EPW20667  -2.951   7.255   3.658 -0.1465 -0.1404  1.1060
 4716WAT      O20668  -1.570   6.313   0.567 -0.3734 -0.5706  0.0361
 4716WAT     H120669  -1.646   6.368   0.586  0.1470 -0.0642  0.6980
 4716WAT     H220670  -1.597   6.225   0.595 -1.6521 -0.9498 -2.1335
 4716WAT    EPW20671  -1.584   6.308   0.573 -0.4734 -0.5541 -0.1628
 4717WAT      O20672  -1.064   4.171   0.602 -0.0130 -0.4438  0.7835
 4717WAT     H120673  -1.141   4.170   0.545 -0.4680  2.5798  1.1963
 4717WAT     H220674  -1.031   4.261   0.596  2.3747 -1.1527  2.1175
 4717WAT    EPW20675  -1.070   4.183   0.594  0.2419 -0.1385  1.0138
 4718WAT      O20676  -3.917   4.642   7.946 -0.0310  0.4311  0.5437
 4718WAT     H120677  -3.906   4.708   7.878  0.0057  1.1936  1.2709
 4718WAT     H220678  -3.955   4.690   8.020 -0.1035 -0.3839  1.0487
 4718WAT    EPW20679  -3.921   4.657   7.947 -0.0356  0.4241  0.7064
 4719WAT      O20680   1.752   8.758   4.181  0.0686  0.1195  0.1623
 4719WAT     H120681   1.790   8.676   4.150  1.4544  1.1317 -0.9237
 4719WAT     H220682   1.725   8.739   4.271 -3.7089 -2.8223 -1.2727
 4719WAT    EPW20683   1.753   8.745   4.188 -0.2468 -0.1354 -0.1700
 4720WAT      O20684  -0.777   3.921   0.924  0.1720  0.9409  0.6875
 4720WAT     H120685  -0.775   4.017   0.921 -0.8551  0.9584  0.2593
 4720WAT     H220686  -0.788   3.895   0.833  2.7001  0.3183  0.4976
 4720WAT    EPW20687  -0.778   3.930   0.912  0.3700  0.8610  0.6060
 4721WAT      O20688   2.662   5.403   0.117 -0.4851 -0.8085 -0.1821
 4721WAT     H120689   2.569   5.387   0.133 -0.2507 -1.2710  0.7990
 4721WAT     H220690   2.686   5.339   0.050 -0.3383 -2.3957  1.3110
 4721WAT    EPW20691   2.653   5.392   0.111 -0.4349 -1.0786  0.1443
 4722WAT      O20692  -1.882   7.277   6.863 -0.0598  0.3737  0.0329
 4722WAT     H120693  -1.876   7.263   6.957 -0.0949  1.5051  0.2161
 4722WAT     H220694  -1.825   7.352   6.846 -1.8715  1.7184 -0.4607
 4722WAT    EPW20695  -1.874   7.285   6.873 -0.3034  0.7002 -0.0081
 4723WAT      O20696  -1.643   6.702   2.950  0.2631  0.3602  0.3100
 4723WAT     H120697  -1.622   6.611   2.929  0.6348  0.4564  0.2481
 4723WAT     H220698  -1.734   6.700   2.978  0.0440  0.0834 -0.3984
 4723WAT    EPW20699  -1.652   6.689   2.951  0.2832  0.3364  0.2085
 4724WAT      O20700  -2.301   5.102   6.831  0.4766  0.4499 -0.1045
 4724WAT     H120701  -2.208   5.117   6.850  0.4205 -1.7500  2.5515
 4724WAT     H220702  -2.316   5.012   6.859 -1.8961 -0.2073 -3.0730
 4724WAT    EPW20703  -2.290   5.092   6.837  0.1564  0.0732 -0.1454
 4725WAT      O20704  -2.338   3.513   5.755  0.4055  0.4957 -0.1934
 4725WAT     H120705  -2.273   3.493   5.687  1.3412  0.0926  0.7744
 4725WAT     H220706  -2.316   3.601   5.784  0.7195  0.2583  0.3226
 4725WAT    EPW20707  -2.326   3.522   5.750  0.5704  0.4113  0.0021
 4726WAT      O20708  -5.389   9.698   8.627 -1.1288 -0.0892  0.3954
 4726WAT     H120709  -5.391   9.610   8.590 -1.8768 -0.8904  2.1785
 4726WAT     H220710  -5.459   9.744   8.583  0.4445  0.2529 -1.8945
 4726WAT    EPW20711  -5.399   9.692   8.617 -1.0200 -0.1502  0.3285
 4727WAT      O20712  -1.345   4.428   1.411  0.2668 -0.8023  0.3745
 4727WAT     H120713  -1.283   4.369   1.453  2.0073 -0.1196 -1.0938
 4727WAT     H220714  -1.301   4.455   1.330 -1.1946  1.1457  0.1584
 4727WAT    EPW20715  -1.331   4.424   1.406  0.3036 -0.4554  0.1524
 4728WAT      O20716   1.051   2.421   6.283  0.1669 -0.1508 -0.1318
 4728WAT     H120717   0.957   2.406   6.273 -1.1677  5.4535  0.8419
 4728WAT     H220718   1.077   2.466   6.203  2.0616 -1.3291 -0.2494
 4728WAT    EPW20719   1.042   2.425   6.271  0.2408  0.4330 -0.0191
 4729WAT      O20720   7.417   2.336   2.485  0.5797 -0.1116  1.1153
 4729WAT     H120721   7.507   2.316   2.460  0.9092  0.3733  1.8841
 4729WAT     H220722   7.425   2.392   2.562 -0.3805 -0.0183  1.1627
 4729WAT    EPW20723   7.430   2.341   2.492  0.4966 -0.0354  1.2228
 4730WAT      O20724   2.721   1.259   8.568 -0.8369  0.6123 -0.1965
 4730WAT     H120725   2.692   1.340   8.609  0.1241  1.9193 -1.9673
 4730WAT     H220726   2.702   1.271   8.474  0.7234 -0.5597 -0.7020
 4730WAT    EPW20727   2.714   1.271   8.561 -0.5044  0.6302 -0.4964
 4731WAT      O20728  -2.611   9.341   7.655  0.4187  0.3078 -0.7465
 4731WAT     H120729  -2.701   9.308   7.644  0.3334  0.1971  0.2378
 4731WAT     H220730  -2.561   9.264   7.682  0.1061  1.0084  2.1472
 4731WAT    EPW20731  -2.616   9.326   7.657  0.3662  0.3853 -0.2351
 4732WAT      O20732  -3.097   8.316   5.364 -0.4913 -0.2951  0.4768
 4732WAT     H120733  -3.098   8.226   5.396 -0.4394 -0.2697  0.5506
 4732WAT     H220734  -3.030   8.360   5.416 -0.2806 -0.2981  0.2097
 4732WAT    EPW20735  -3.089   8.310   5.375 -0.4566 -0.2918  0.4513
 4733WAT      O20736   6.431   7.080   0.960  0.3400 -0.2784 -0.2205
 4733WAT     H120737   6.377   7.134   0.903  0.1169  0.3624  0.5635
 4733WAT     H220738   6.507   7.057   0.907 -0.0517 -0.0276 -0.8944
 4733WAT    EPW20739   6.434   7.084   0.946  0.2589 -0.1607 -0.2060
 4734WAT      O20740   4.699   0.669   0.908 -0.1488 -0.5795  0.9876
 4734WAT     H120741   4.671   0.625   0.989 -1.0584 -2.4805 -0.2790
 4734WAT     H220742   4.618   0.688   0.861  0.2717  1.8619  1.1224
 4734WAT    EPW20743   4.685   0.665   0.912 -0.2131 -0.5082  0.8383
 4735WAT      O20744  -1.556   6.190   2.820 -0.1617 -0.5309 -0.3742
 4735WAT     H120745  -1.485   6.136   2.784  1.1918  1.3098 -0.5795
 4735WAT     H220746  -1.606   6.130   2.876  1.4758 -1.9147 -0.3287
 4735WAT    EPW20747  -1.553   6.175   2.823  0.2328 -0.4706 -0.3953
 4736WAT      O20748   3.684   7.498   5.700  0.6742 -0.1290 -0.7836
 4736WAT     H120749   3.731   7.439   5.640 -0.7557 -0.3073 -1.7692
 4736WAT     H220750   3.594   7.498   5.668  0.3221  1.4395  0.1055
 4736WAT    EPW20751   3.679   7.490   5.688  0.4392  0.0544 -0.7966
 4737WAT      O20752   0.090   1.157   4.923 -0.7643  0.2185 -0.2886
 4737WAT     H120753   0.175   1.126   4.954 -1.9095 -3.1840 -0.1642
 4737WAT     H220754   0.048   1.194   5.001  0.1141  0.8153 -0.0841
 4737WAT    EPW20755   0.096   1.158   4.938 -0.7995 -0.1516 -0.2451
 4738WAT      O20756  -1.415   4.188   6.358  0.5860 -0.6286 -0.1470
 4738WAT     H120757  -1.330   4.182   6.402  0.0552  3.2028  1.8776
 4738WAT     H220758  -1.428   4.282   6.344 -3.0796 -1.0935 -0.8891
 4738WAT    EPW20759  -1.405   4.200   6.362  0.0325 -0.1845  0.0222
 4739WAT      O20760   6.877   2.839   3.346 -0.2845  0.4616  0.7341
 4739WAT     H120761   6.929   2.825   3.266 -3.0330 -0.5102 -1.0439
 4739WAT     H220762   6.893   2.931   3.368 -0.7449  1.3134 -2.0231
 4739WAT    EPW20763   6.886   2.849   3.338 -0.7079  0.4458  0.1360
 4740WAT      O20764  -0.774   5.808   5.135 -0.2324 -0.2191  0.4598
 4740WAT     H120765  -0.778   5.750   5.059 -0.8731  2.4053 -1.6719
 4740WAT     H220766  -0.695   5.860   5.121 -0.9210  1.0113  0.9816
 4740WAT    EPW20767  -0.764   5.808   5.123 -0.4077  0.2894  0.2477
 4741WAT      O20768  -1.152   6.928   3.483 -0.4697 -0.3984  0.3443
 4741WAT     H120769  -1.063   6.897   3.471 -0.2297  0.7538 -1.2872
 4741WAT     H220770  -1.178   6.961   3.397 -2.3601 -0.4163  0.8488
 4741WAT    EPW20771  -1.144   6.929   3.470 -0.6874 -0.2489  0.1956
 4742WAT      O20772  -3.283   5.190   5.857 -0.7650 -0.4024  0.4734
 4742WAT     H120773  -3.257   5.163   5.769  1.5696  0.0202  0.9825
 4742WAT     H220774  -3.378   5.182   5.857 -0.9603  0.6675 -2.4576
 4742WAT    EPW20775  -3.292   5.185   5.845 -0.4828 -0.2058  0.1540
 4743WAT      O20776   1.836   1.428   4.574 -0.3401  0.2443 -0.2909
 4743WAT     H120777   1.871   1.480   4.502 -1.6684  1.0497 -0.3985
 4743WAT     H220778   1.841   1.486   4.650 -1.0236  0.2206 -0.2242
 4743WAT    EPW20779   1.841   1.443   4.575 -0.6055  0.3475 -0.2964
 4744WAT      O20780   3.013   8.514   7.496  0.3271 -0.2534 -0.2049
 4744WAT     H120781   2.996   8.526   7.589 -0.5875 -2.5850  0.0185
 4744WAT     H220782   3.083   8.449   7.493 -0.1881 -0.7963 -1.1004
 4744WAT    EPW20783   3.020   8.507   7.508  0.1384 -0.6328 -0.2937
 4745WAT      O20784   6.235   3.497   4.030 -0.2483 -0.3382 -0.4164
 4745WAT     H120785   6.140   3.512   4.033  0.1787  2.8632  0.2171
 4745WAT     H220786   6.249   3.423   4.089 -2.2917 -0.5653 -0.1427
 4745WAT    EPW20787   6.224   3.489   4.038 -0.4616  0.0541 -0.2968
 4746WAT      O20788   7.438   6.909   1.641 -0.4119 -0.1457 -0.4948
 4746WAT     H120789   7.448   6.930   1.548  2.1925 -1.2541 -0.5765
 4746WAT     H220790   7.480   6.982   1.686  0.0048 -0.4875 -0.3171
 4746WAT    EPW20791   7.445   6.922   1.635 -0.0134 -0.3371 -0.4821
 4747WAT      O20792   5.505   4.419   1.530 -0.1904 -0.1550 -0.3289
 4747WAT     H120793   5.541   4.496   1.575  1.1549 -0.7315 -0.3552
 4747WAT     H220794   5.459   4.371   1.599 -0.1754  0.1614 -0.0907
 4747WAT    EPW20795   5.504   4.423   1.545 -0.0110 -0.1893 -0.3009
 4748WAT      O20796   1.300  10.329   0.008 -0.9560  0.2281 -0.1679
 4748WAT     H120797   1.227  10.316   0.069  0.6136  0.6479  1.9438
 4748WAT     H220798   1.310  10.245  -0.036 -1.1479 -0.6518  1.3780
 4748WAT    EPW20799   1.292  10.316   0.011 -0.7744  0.1674  0.3145
 4749WAT      O20800  -5.498   7.848   5.272  0.0312  0.5381 -0.4689
 4749WAT     H120801  -5.408   7.881   5.278 -0.8381  2.9921 -0.1220
 4749WAT     H220802  -5.543   7.910   5.214 -1.7395  0.0630  0.3392
 4749WAT    EPW20803  -5.492   7.860   5.265 -0.3171  0.7989 -0.3164
 4750WAT      O20804   1.621   4.513   3.131  0.3351  0.7452 -0.9316
 4750WAT     H120805   1.630   4.546   3.220 -2.3207 -2.7319  0.9062
 4750WAT     H220806   1.534   4.540   3.104 -0.1058 -0.7798 -1.1482
 4750WAT    EPW20807   1.611   4.521   3.139 -0.0734  0.0854 -0.7178
 4751WAT      O20808   6.221   0.458   6.837  0.1273 -0.4155  0.4040
 4751WAT     H120809   6.168   0.384   6.807  0.4347  1.0170 -4.4054
 4751WAT     H220810   6.302   0.418   6.867 -0.6357 -2.1567  0.3109
 4751WAT    EPW20811   6.224   0.443   6.837  0.0672 -0.4562 -0.2425
 4752WAT      O20812  -0.701   3.632   8.767  0.3289 -0.2371 -0.6703
 4752WAT     H120813  -0.622   3.584   8.794  1.1492  1.8467  1.0013
 4752WAT     H220814  -0.761   3.622   8.840 -1.1687 -2.0178 -2.0401
 4752WAT    EPW20815  -0.698   3.624   8.780  0.2396 -0.1971 -0.6304
 4753WAT      O20816   1.563   3.696   6.658  0.2174 -0.1063  0.2054
 4753WAT     H120817   1.567   3.734   6.746 -0.5527 -2.1327  1.2014
 4753WAT     H220818   1.618   3.753   6.604  1.8871  0.4002  2.3051
 4753WAT    EPW20819   1.571   3.708   6.663  0.3360 -0.3068  0.6137
 4754WAT      O20820   5.488   7.807   1.715 -0.1734 -0.0102  0.3553
 4754WAT     H120821   5.511   7.900   1.706  1.4327 -0.3710  0.2881
 4754WAT     H220822   5.555   7.772   1.774 -1.1413 -1.0104  0.8983
 4754WAT    EPW20823   5.500   7.815   1.722 -0.0892 -0.1895  0.4180
 4755WAT      O20824  -0.738   6.625   3.654 -0.1544  0.1849 -0.0817
 4755WAT     H120825  -0.710   6.637   3.563 -1.2484 -0.3922 -0.5154
 4755WAT     H220826  -0.834   6.624   3.650 -0.2129 -1.4367  0.8562
 4755WAT    EPW20827  -0.747   6.627   3.642 -0.3064 -0.1049 -0.0153
 4756WAT      O20828  -5.542   8.371   8.729 -0.8386  0.4586 -0.8672
 4756WAT     H120829  -5.522   8.338   8.817 -0.2281  1.1476 -0.7388
 4756WAT     H220830  -5.553   8.292   8.677 -0.2882  0.0342 -0.3661
 4756WAT    EPW20831  -5.541   8.356   8.734 -0.6857  0.4935 -0.7839
 4757WAT      O20832   9.741   2.517   0.253 -0.2435 -0.0580 -0.0288
 4757WAT     H120833   9.735   2.422   0.262 -0.3335  0.0373  1.0186
 4757WAT     H220834   9.726   2.534   0.160  1.7605 -1.2343 -0.6339
 4757WAT    EPW20835   9.739   2.507   0.242  0.0095 -0.2006  0.0295
 4758WAT      O20836   6.700   7.387   0.527 -0.2903 -0.1563  0.6422
 4758WAT     H120837   6.607   7.380   0.552 -0.2801  0.4111  0.8735
 4758WAT     H220838   6.700   7.446   0.452 -0.1656 -0.6010  0.2909
 4758WAT    EPW20839   6.688   7.394   0.521 -0.2723 -0.1402  0.6264
 4759WAT      O20840   5.313   3.249   5.860 -0.5494 -0.7630 -0.1324
 4759WAT     H120841   5.219   3.244   5.877 -0.4978 -0.2369  0.3638
 4759WAT     H220842   5.334   3.342   5.870 -0.6181 -0.2132 -3.8596
 4759WAT    EPW20843   5.303   3.261   5.864 -0.5517 -0.6212 -0.5586
 4760WAT      O20844   1.290   1.871   2.913 -0.3914 -0.1841  0.0952
 4760WAT     H120845   1.229   1.829   2.973 -0.2215 -0.0302  0.3772
 4760WAT     H220846   1.341   1.799   2.876  0.2707 -0.1841  0.9903
 4760WAT    EPW20847   1.289   1.856   2.916 -0.2818 -0.1638  0.2505
 4761WAT      O20848   0.379   8.629   1.441  0.1108  0.5790  0.5786
 4761WAT     H120849   0.311   8.616   1.507  1.6780  0.6850  2.2999
 4761WAT     H220850   0.339   8.687   1.376 -1.2416  1.1139  1.8496
 4761WAT    EPW20851   0.365   8.635   1.441  0.1391  0.6638  0.9733
 4762WAT      O20852  -2.048   7.881   5.826  0.6484  0.6549 -0.2965
 4762WAT     H120853  -2.030   7.864   5.734  2.0195  2.5875 -0.4396
 4762WAT     H220854  -1.993   7.819   5.874  1.5110  1.0343 -0.7864
 4762WAT    EPW20855  -2.038   7.870   5.820  0.9429  0.9599 -0.3803
 4763WAT      O20856  -4.980   9.362   6.838  0.5097 -0.3751  0.2481
 4763WAT     H120857  -4.915   9.353   6.908  0.2513  1.1786  0.7310
 4763WAT     H220858  -5.061   9.382   6.884  0.2392  0.1922 -0.4634
 4763WAT    EPW20859  -4.982   9.363   6.853  0.4399 -0.0954  0.2179
 4764WAT      O20860  -4.344   7.117   7.054 -0.2795 -0.0453  0.4091
 4764WAT     H120861  -4.368   7.076   7.137  1.1073  0.6421  1.1926
 4764WAT     H220862  -4.407   7.189   7.043 -0.6771 -0.3473  0.6834
 4764WAT    EPW20863  -4.355   7.121   7.064 -0.1490  0.0055  0.5486
 4765WAT      O20864  -5.543   8.616   7.531 -0.2138 -0.4961 -0.2928
 4765WAT     H120865  -5.638   8.613   7.543 -0.3912 -1.9591 -1.7282
 4765WAT     H220866  -5.512   8.530   7.559  0.8338  0.2245  0.9140
 4765WAT    EPW20867  -5.551   8.604   7.536 -0.0989 -0.5937 -0.3231
 4766WAT      O20868  -2.728   1.974   8.625  0.1715 -0.1168 -0.0801
 4766WAT     H120869  -2.808   1.924   8.610  1.3764 -2.3685  0.5143
 4766WAT     H220870  -2.752   2.038   8.692 -1.2779 -0.3085 -0.3874
 4766WAT    EPW20871  -2.742   1.975   8.632  0.1392 -0.4391 -0.0420
 4767WAT      O20872   3.256   6.929   5.831  0.6722  0.3552 -0.0491
 4767WAT     H120873   3.282   6.853   5.780 -0.8731 -0.7596  0.7383
 4767WAT     H220874   3.197   6.977   5.773  0.1165 -0.0971  0.1364
 4767WAT    EPW20875   3.251   6.926   5.817  0.3951  0.1483  0.0792
 4768WAT      O20876   6.109   0.798   2.854  0.4420  0.4699  0.2110
 4768WAT     H120877   6.119   0.809   2.948 -0.2082  0.7065  0.2586
 4768WAT     H220878   6.138   0.709   2.837  0.1417  0.2747  0.7029
 4768WAT    EPW20879   6.114   0.788   2.864  0.3166  0.4753  0.2820
 4769WAT      O20880   3.316   0.247   6.375 -0.2996 -0.4507  0.1843
 4769WAT     H120881   3.273   0.189   6.437 -0.5756  0.0021  0.4249
 4769WAT     H220882   3.404   0.259   6.410  0.4804 -2.3830 -0.9685
 4769WAT    EPW20883   3.322   0.241   6.388 -0.2332 -0.6458  0.0639
 4770WAT      O20884   4.279   7.540   0.487 -0.1023 -0.2688 -0.3532
 4770WAT     H120885   4.328   7.593   0.549 -0.8061 -0.3107  0.2469
 4770WAT     H220886   4.187   7.562   0.502 -0.4366 -1.8312  0.0983
 4770WAT    EPW20887   4.273   7.550   0.497 -0.2391 -0.4804 -0.2145
 4771WAT      O20888   2.693   2.464   2.454 -0.1225  0.4159  0.0411
 4771WAT     H120889   2.758   2.407   2.414 -2.5276 -1.2372 -1.8173
 4771WAT     H220890   2.711   2.551   2.419 -0.8401 -0.5958 -3.1296
 4771WAT    EPW20891   2.704   2.468   2.444 -0.5343  0.0645 -0.6222
 4772WAT      O20892   5.955   5.698   0.928 -0.8923 -0.0608 -0.1520
 4772WAT     H120893   5.892   5.666   0.993 -1.1171  0.5464 -0.0588
 4772WAT     H220894   6.039   5.663   0.956 -0.6391  1.7897  1.6234
 4772WAT    EPW20895   5.958   5.690   0.940 -0.8888  0.2635  0.0945
 4773WAT      O20896  -1.102  10.152   4.357  0.1084 -0.2244 -0.9191
 4773WAT     H120897  -1.161  10.164   4.283 -2.4802  1.0185  1.1748
 4773WAT     H220898  -1.160  10.131   4.430  2.4120 -0.2139  1.0089
 4773WAT    EPW20899  -1.117  10.151   4.357  0.0709 -0.0587 -0.3886
 4774WAT      O20900  10.097   0.001   0.009 -0.0629 -0.4572  0.3161
 4774WAT     H120901  10.052   0.062   0.067 -0.2534 -0.4945  0.2087
 4774WAT     H220902  10.064   0.021  -0.078  0.4760 -0.1738  0.1719
 4774WAT    EPW20903  10.087   0.012   0.005 -0.0169 -0.4249  0.2828
 4775WAT      O20904  -4.819   5.531   7.786 -0.2438  0.3448 -0.0016
 4775WAT     H120905  -4.795   5.527   7.693  0.2444  0.0045  0.1350
 4775WAT     H220906  -4.900   5.582   7.787 -0.8190 -0.5033 -0.7301
 4775WAT    EPW20907  -4.826   5.537   7.774 -0.2553  0.1881 -0.0796
 4776WAT      O20908  -2.415   8.845   3.334 -1.0615  1.3970 -0.0342
 4776WAT     H120909  -2.341   8.888   3.378 -0.3919  1.1028 -0.8386
 4776WAT     H220910  -2.467   8.808   3.405 -0.5113  1.7305  0.5540
 4776WAT    EPW20911  -2.412   8.846   3.349 -0.9006  1.4024 -0.0627
 4777WAT      O20912   2.564   0.843   4.612  0.1056 -0.4427 -1.0591
 4777WAT     H120913   2.556   0.790   4.533  0.7349  1.1329 -2.2223
 4777WAT     H220914   2.646   0.891   4.600 -1.2894  2.1328 -0.9020
 4777WAT    EPW20915   2.574   0.842   4.600  0.0046  0.1048 -1.1916
 4778WAT      O20916  -5.526   8.159   6.404  0.2900 -0.3848 -0.0976
 4778WAT     H120917  -5.574   8.148   6.487  0.1180 -0.0284 -0.1511
 4778WAT     H220918  -5.473   8.237   6.418 -0.3207  0.1245 -0.6036
 4778WAT    EPW20919  -5.525   8.168   6.417  0.1869 -0.2708 -0.1712
 4779WAT      O20920   3.096   0.265   4.882 -0.1444 -0.2203  0.5180
 4779WAT     H120921   3.051   0.345   4.910  0.7321  1.3155 -2.0957
 4779WAT     H220922   3.062   0.249   4.794  1.1261 -1.6353  0.2535
 4779WAT    EPW20923   3.086   0.273   4.874  0.1388 -0.2044  0.1383
 4780WAT      O20924  -4.404   2.969   6.293  0.1810  0.1500 -0.4220
 4780WAT     H120925  -4.466   2.906   6.256 -0.0832  0.7372 -0.9894
 4780WAT     H220926  -4.394   3.036   6.226  2.1548 -0.3875 -0.7254
 4780WAT    EPW20927  -4.411   2.970   6.279  0.4065  0.1565 -0.5367
 4781WAT      O20928   5.294   7.328   0.923  0.5846 -0.1458 -0.7663
 4781WAT     H120929   5.350   7.272   0.976  2.5199 -0.3124 -2.7920
 4781WAT     H220930   5.342   7.411   0.916 -2.5199  2.3133  2.7546
 4781WAT    EPW20931   5.308   7.332   0.929  0.4306  0.1566 -0.5691
 4782WAT      O20932  -4.165   3.216   6.636 -0.4139 -0.0365  0.1859
 4782WAT     H120933  -4.116   3.298   6.636 -0.8105  0.2344 -1.3700
 4782WAT     H220934  -4.246   3.236   6.683 -1.0094  0.8170 -1.1445
 4782WAT    EPW20935  -4.169   3.229   6.642 -0.5445  0.1118 -0.1948
 4783WAT      O20936   4.596   1.309   4.354  0.0501  0.7637 -0.4179
 4783WAT     H120937   4.650   1.231   4.365 -0.0108 -0.1822 -4.7533
 4783WAT     H220938   4.658   1.381   4.351  0.5060  0.3892 -0.1113
 4783WAT    EPW20939   4.611   1.308   4.355  0.1020  0.5895 -0.9494
 4784WAT      O20940   0.396   8.215   8.811  0.0728  0.3649 -0.2814
 4784WAT     H120941   0.434   8.130   8.792 -1.1419 -0.1030 -0.7135
 4784WAT     H220942   0.312   8.195   8.853 -0.4700  1.3266 -0.8755
 4784WAT    EPW20943   0.390   8.201   8.814 -0.1590  0.4296 -0.4168
 4785WAT      O20944   1.414   5.916   1.191 -0.2427  0.0198  0.3968
 4785WAT     H120945   1.405   5.941   1.099  0.1559 -1.1724  0.0233
 4785WAT     H220946   1.383   5.993   1.239 -0.8346  0.5094 -0.7253
 4785WAT    EPW20947   1.409   5.930   1.185 -0.2682 -0.0727  0.1995
 4786WAT      O20948   0.207   5.192   5.144  0.5371  0.1145 -0.0536
 4786WAT     H120949   0.120   5.152   5.150  0.6209  0.0686  1.0829
 4786WAT     H220950   0.193   5.284   5.164  0.9651 -0.2048  1.8965
 4786WAT    EPW20951   0.194   5.199   5.147  0.6046  0.0663  0.3536
 4787WAT      O20952   2.808   8.281   5.054  0.1894  0.3814  0.1372
 4787WAT     H120953   2.751   8.247   4.986 -0.4511 -0.3409  1.0110
 4787WAT     H220954   2.801   8.376   5.046 -0.5872  0.3036 -0.2105
 4787WAT    EPW20955   2.800   8.289   5.044  0.0025  0.2756  0.2065
 4788WAT      O20956  -6.792   4.874   8.777  0.0141  0.3219  0.6656
 4788WAT     H120957  -6.847   4.805   8.814 -1.4921  0.5231 -1.0673
 4788WAT     H220958  -6.824   4.955   8.817 -1.3950  0.5023 -0.7356
 4788WAT    EPW20959  -6.804   4.876   8.787 -0.3703  0.3722  0.2527
 4789WAT      O20960   2.079   6.193   4.195  0.1170  0.3244  0.8329
 4789WAT     H120961   2.009   6.158   4.139 -0.6432 -1.3173  2.6771
 4789WAT     H220962   2.128   6.251   4.138 -1.5738  0.0045 -1.0809
 4789WAT    EPW20963   2.076   6.196   4.180 -0.2062  0.0658  0.8237
 4790WAT      O20964   7.139   4.788   0.635  0.1824  0.7456  0.3187
 4790WAT     H120965   7.185   4.794   0.552  0.2200  0.5075  0.3219
 4790WAT     H220966   7.168   4.705   0.673 -0.9242  0.1496 -0.0913
 4790WAT    EPW20967   7.149   4.777   0.629  0.0415  0.6356  0.2651
 4791WAT      O20968  -6.691   9.696   5.888  0.1694  0.0435  0.1341
 4791WAT     H120969  -6.648   9.610   5.882 -1.2515 -0.8157  1.4784
 4791WAT     H220970  -6.768   9.687   5.832 -0.0464  0.3924  0.3756
 4791WAT    EPW20971  -6.695   9.683   5.880 -0.0465 -0.0238  0.3431
 4792WAT      O20972   2.165   2.461   6.605 -0.2273 -0.5839 -0.6173
 4792WAT     H120973   2.244   2.424   6.566  0.6487 -2.3042  2.4460
 4792WAT     H220974   2.151   2.542   6.557  2.7240 -0.7829 -2.0619
 4792WAT    EPW20975   2.174   2.467   6.594  0.2775 -0.8370 -0.4036
 4793WAT      O20976  -1.839   1.845   7.413 -0.3239  0.4450  0.1061
 4793WAT     H120977  -1.821   1.762   7.370 -0.9088  1.0002 -1.2756
 4793WAT     H220978  -1.931   1.863   7.394  0.4018  2.6081 -1.8535
 4793WAT    EPW20979  -1.848   1.837   7.405 -0.3053  0.8035 -0.3345
 4794WAT      O20980  -0.886   4.158   7.440 -0.4482 -1.0039  0.7365
 4794WAT     H120981  -0.871   4.205   7.521  0.1931  0.6136 -0.2827
 4794WAT     H220982  -0.976   4.178   7.416  0.1159  0.5814 -0.1968
 4794WAT    EPW20983  -0.896   4.167   7.447 -0.2892 -0.5813  0.4790
 4795WAT      O20984   1.645   6.452   1.737 -0.6356 -0.3026  0.0142
 4795WAT     H120985   1.655   6.530   1.682 -0.8967 -1.4336 -1.6989
 4795WAT     H220986   1.709   6.390   1.702  0.9894 -0.2513  2.6195
 4795WAT    EPW20987   1.655   6.454   1.725 -0.4557 -0.4449  0.1319
 4796WAT      O20988   0.630   5.196   1.371  0.3151  0.0726  0.2792
 4796WAT     H120989   0.583   5.278   1.354  0.6935  0.4812  1.1429
 4796WAT     H220990   0.704   5.198   1.310  0.6607  0.6714  0.7033
 4796WAT    EPW20991   0.633   5.207   1.361  0.4106  0.2053  0.4491
 4797WAT      O20992   3.881   5.299   3.149 -0.2573  0.2945  0.0630
 4797WAT     H120993   3.924   5.384   3.162 -0.1556  0.4689 -1.2874
 4797WAT     H220994   3.789   5.315   3.167  0.0588  0.1058  2.1837
 4797WAT    EPW20995   3.875   5.312   3.153 -0.2022  0.2925  0.1646
 4798WAT      O20996   3.855   8.595   5.342 -0.4842 -0.1110 -0.3208
 4798WAT     H120997   3.904   8.629   5.267  2.4584 -1.6425  0.7276
 4798WAT     H220998   3.870   8.501   5.340 -0.7982 -0.2602  1.8605
 4798WAT    EPW20999   3.863   8.587   5.332 -0.1376 -0.3328  0.1054
 4799WAT      O21000   5.927   0.726   2.239 -0.9151 -0.1939  0.2364
 4799WAT     H121001   6.021   0.738   2.245 -0.7838 -1.5571  1.1875
 4799WAT     H221002   5.910   0.639   2.276 -2.3478 -0.7719 -1.6180
 4799WAT    EPW21003   5.937   0.716   2.245 -1.0867 -0.4500  0.1173
 4800WAT      O21004   0.182   1.079   1.901  0.7745  0.0635 -0.7055
 4800WAT     H121005   0.158   1.061   1.810 -1.3743 -0.5769 -0.0796
 4800WAT     H221006   0.180   1.174   1.909 -2.3874  0.0864 -0.5967
 4800WAT    EPW21007   0.179   1.089   1.890  0.0740 -0.0179 -0.6086
 4801WAT      O21008  -0.353   3.144   4.392  0.3865  0.1094 -0.1795
 4801WAT     H121009  -0.399   3.157   4.475 -1.6536  1.1091 -1.3874
 4801WAT     H221010  -0.282   3.208   4.393 -0.0986  0.6488  0.4660
 4801WAT    EPW21011  -0.350   3.154   4.403  0.0534  0.3124 -0.2537
 4802WAT      O21012   9.823   0.202   0.914  0.2774  0.1575 -0.2117
 4802WAT     H121013   9.912   0.211   0.879  0.7487 -0.3359  0.8133
 4802WAT     H221014   9.835   0.154   0.996 -0.9083  0.3649  0.0908
 4802WAT    EPW21015   9.837   0.197   0.920  0.1831  0.1198 -0.0366
 4803WAT      O21016   3.037   0.379   8.694  0.1899  0.3274 -0.1774
 4803WAT     H121017   2.950   0.400   8.662 -0.0777  1.0701  0.9770
 4803WAT     H221018   3.095   0.440   8.649  0.0973 -0.0541 -0.8188
 4803WAT    EPW21019   3.033   0.390   8.684  0.1425  0.3751 -0.1097
 4804WAT      O21020   3.999   9.414   5.197  0.5048 -0.2907 -0.2485
 4804WAT     H121021   3.953   9.414   5.281  2.3206 -0.9365  0.8142
 4804WAT     H221022   4.034   9.502   5.189  2.1724 -0.7984  0.8167
 4804WAT    EPW21023   3.997   9.425   5.207  0.9643 -0.4430  0.0322
 4805WAT      O21024   5.020   2.546   6.632 -0.6659  0.0936 -0.1668
 4805WAT     H121025   5.049   2.607   6.565 -1.7750 -1.0320 -1.7480
 4805WAT     H221026   4.960   2.597   6.687 -2.1478  0.3183 -1.8910
 4805WAT    EPW21027   5.016   2.561   6.630 -1.0076 -0.0252 -0.6027
 4806WAT      O21028   1.824   1.288   5.810  0.4964 -0.3290  0.0034
 4806WAT     H121029   1.787   1.206   5.842 -1.0515 -1.1268 -3.3935
 4806WAT     H221030   1.846   1.271   5.719 -0.6081  3.2386 -1.1083
 4806WAT    EPW21031   1.822   1.275   5.802  0.1465  0.0362 -0.5913
 4807WAT      O21032  -2.407   0.872   6.833 -0.0403 -0.0950  0.1710
 4807WAT     H121033  -2.438   0.784   6.809 -0.2816  0.1265 -0.3408
 4807WAT     H221034  -2.330   0.855   6.887 -0.3790 -0.6314  0.5054
 4807WAT    EPW21035  -2.401   0.858   6.837 -0.1168 -0.1365  0.1476
 4808WAT      O21036   3.157   3.494   3.676  0.3081  0.2285  0.1710
 4808WAT     H121037   3.112   3.575   3.653 -2.0804 -0.5530  1.6982
 4808WAT     H221038   3.125   3.430   3.613  2.7889  0.5400 -1.5314
 4808WAT    EPW21039   3.147   3.496   3.665  0.3203  0.1665  0.1479
 4809WAT      O21040   2.506   0.824   4.295  0.6426 -0.4191  0.1985
 4809WAT     H121041   2.502   0.793   4.204  0.0931 -0.1370  0.1282
 4809WAT     H221042   2.510   0.743   4.347 -0.8617 -0.6298  0.0171
 4809WAT    EPW21043   2.506   0.809   4.290  0.3717 -0.4097  0.1652
 4810WAT      O21044  -1.985   8.454   7.681 -0.4552  0.5810 -0.3393
 4810WAT     H121045  -1.977   8.374   7.628 -1.1457  1.5875 -2.0652
 4810WAT     H221046  -2.079   8.470   7.686 -0.2916  2.1741 -1.4981
 4810WAT    EPW21047  -1.996   8.446   7.674 -0.5246  0.9241 -0.7195
 4811WAT      O21048   1.633   8.292   8.133 -0.3664 -0.7962  0.2841
 4811WAT     H121049   1.574   8.217   8.142 -0.8954 -0.2400  1.6765
 4811WAT     H221050   1.665   8.309   8.221 -1.2429  1.3884  0.2544
 4811WAT    EPW21051   1.630   8.284   8.145 -0.5518 -0.4344  0.4640
 4812WAT      O21052   9.082   1.048   1.862 -0.0634  0.0023  0.1066
 4812WAT     H121053   9.169   1.029   1.897  1.3749  3.4135 -1.2110
 4812WAT     H221054   9.039   1.098   1.931 -0.7833 -1.1283  0.4996
 4812WAT    EPW21055   9.088   1.052   1.876  0.0315  0.3031 -0.0154
 4813WAT      O21056   4.050   2.332   1.989  1.1182  0.1622 -0.5017
 4813WAT     H121057   4.088   2.404   2.040 -1.7576  0.2731  1.7469
 4813WAT     H221058   3.988   2.375   1.930  0.4693 -0.3206 -0.1906
 4813WAT    EPW21059   4.047   2.347   1.988  0.6535  0.1130 -0.1640
 4814WAT      O21060   2.873   4.526   7.059  0.2093 -0.6885  0.3255
 4814WAT     H121061   2.950   4.582   7.063 -0.6708  0.8189 -1.9356
 4814WAT     H221062   2.907   4.440   7.035  1.3180 -0.5098  1.1548
 4814WAT    EPW21063   2.887   4.522   7.056  0.2395 -0.4663  0.1369
 4815WAT      O21064   1.382   2.925   4.439  0.0188 -0.8861  0.3930
 4815WAT     H121065   1.390   2.940   4.345 -1.3667 -1.5616  0.1345
 4815WAT     H221066   1.465   2.886   4.465 -0.1839 -2.2670 -0.9002
 4815WAT    EPW21067   1.394   2.922   4.430 -0.1907 -1.1573  0.1884
 4816WAT      O21068  -1.057   5.236   8.996  0.4825 -0.7014 -0.0200
 4816WAT     H121069  -1.111   5.303   8.954  1.3695  0.2394  0.2728
 4816WAT     H221070  -0.997   5.207   8.927  0.7565 -0.4593  0.1138
 4816WAT    EPW21071  -1.056   5.241   8.982  0.6356 -0.5454  0.0363
 4817WAT      O21072   3.216   3.509   5.638  0.5643 -0.2846  0.5022
 4817WAT     H121073   3.185   3.421   5.659  1.7929 -0.8637 -0.0198
 4817WAT     H221074   3.291   3.523   5.697  0.8944  0.0757  0.0035
 4817WAT    EPW21075   3.222   3.500   5.649  0.7699 -0.3135  0.3674
 4818WAT      O21076   2.734   3.145   0.182 -0.2636  0.4703 -1.0445
 4818WAT     H121077   2.733   3.125   0.275 -3.0967  0.7887 -0.9319
 4818WAT     H221078   2.750   3.061   0.140  0.4681  0.2294 -0.3179
 4818WAT    EPW21079   2.736   3.131   0.189 -0.5407  0.4805 -0.9338
 4819WAT      O21080   1.510   6.599   2.601  0.2325 -0.2258 -0.5873
 4819WAT     H121081   1.566   6.576   2.527 -0.2447 -0.7072 -0.8036
 4819WAT     H221082   1.434   6.641   2.562 -1.8934 -3.8518 -0.8055
 4819WAT    EPW21083   1.508   6.601   2.586 -0.1108 -0.7677 -0.6447
 4820WAT      O21084   3.420   5.495   3.751 -0.2453  0.0323  0.5454
 4820WAT     H121085   3.408   5.588   3.769 -0.2238 -0.3948  3.2493
 4820WAT     H221086   3.494   5.470   3.807  0.0484 -1.5344 -0.4788
 4820WAT    EPW21087   3.428   5.504   3.761 -0.2038 -0.2306  0.7670
 4821WAT      O21088   4.784   6.758   2.426 -0.4625 -0.5956  0.3574
 4821WAT     H121089   4.715   6.693   2.426 -0.2083 -0.8946 -0.9651
 4821WAT     H221090   4.833   6.741   2.345  1.7314 -0.9971  1.7043
 4821WAT    EPW21091   4.782   6.747   2.415 -0.1395 -0.6881  0.3606
 4822WAT      O21092  -3.578   5.035   4.109 -0.7576  0.1327  1.1362
 4822WAT     H121093  -3.638   5.056   4.038 -0.3504 -2.4391 -0.0811
 4822WAT     H221094  -3.633   4.991   4.175 -0.4047 -1.7394  0.2553
 4822WAT    EPW21095  -3.593   5.032   4.109 -0.6573 -0.4535  0.8595
 4823WAT      O21096   0.850   9.248   5.435  0.6231 -0.0184 -0.3670
 4823WAT     H121097   0.938   9.212   5.425  0.1107 -1.3323 -0.3675
 4823WAT     H221098   0.844   9.316   5.368  1.3855 -0.4102 -0.8452
 4823WAT    EPW21099   0.861   9.252   5.425  0.6560 -0.2432 -0.4303
 4824WAT      O21100  -1.231   9.103   0.431  0.2431  0.3745 -0.8553
 4824WAT     H121101  -1.284   9.177   0.403 -0.8670 -0.7692 -1.9126
 4824WAT     H221102  -1.142   9.125   0.401  0.1164  1.6662 -0.3352
 4824WAT    EPW21103  -1.226   9.115   0.423  0.0800  0.3939 -0.9261
 4825WAT      O21104   4.141   3.933   7.388  0.0410  0.8463 -0.3939
 4825WAT     H121105   4.061   3.920   7.439  0.4826 -0.0404  0.1112
 4825WAT     H221106   4.203   3.970   7.451  0.3592  0.4836 -0.4933
 4825WAT    EPW21107   4.139   3.936   7.403  0.1411  0.6815 -0.3405
 4826WAT      O21108   1.184   9.783   6.229  0.4928  0.5627  0.8323
 4826WAT     H121109   1.206   9.845   6.160  1.2857 -0.5912  0.0195
 4826WAT     H221110   1.163   9.702   6.183  2.3618 -0.6340  1.9785
 4826WAT    EPW21111   1.184   9.781   6.214  0.8438  0.2527  0.8762
 4827WAT      O21112   4.073   5.575   1.905  0.4744 -0.5583 -0.0996
 4827WAT     H121113   4.091   5.490   1.866 -2.8930 -0.3630 -2.5027
 4827WAT     H221114   4.124   5.637   1.853 -0.0048 -0.7832 -0.8423
 4827WAT    EPW21115   4.082   5.572   1.893 -0.0329 -0.5622 -0.5146
 4828WAT      O21116   3.628   3.779   2.690 -0.1347 -0.3174  0.3701
 4828WAT     H121117   3.681   3.703   2.711  0.1924 -0.9267 -2.2800
 4828WAT     H221118   3.537   3.750   2.700 -0.0168 -0.4547  1.1261
 4828WAT    EPW21119   3.623   3.765   2.694 -0.0759 -0.4159  0.1203
 4829WAT      O21120   6.188   0.141   7.694 -0.8289  0.0031 -0.1818
 4829WAT     H121121   6.135   0.069   7.661 -0.0615 -1.4421  1.5812
 4829WAT     H221122   6.164   0.216   7.639 -2.9577 -1.1518 -0.9175
 4829WAT    EPW21123   6.178   0.142   7.682 -1.0083 -0.3398 -0.0463
 4830WAT      O21124   6.310   0.227   0.924  0.3092  0.5194 -0.1878
 4830WAT     H121125   6.287   0.294   0.989  0.0377  2.0523 -1.8050
 4830WAT     H221126   6.391   0.188   0.959  0.8856  2.1808  0.4771
 4830WAT    EPW21127   6.318   0.231   0.937  0.3495  0.9407 -0.3134
 4831WAT      O21128  -2.230   0.368   6.230 -0.2426  0.6606  0.7667
 4831WAT     H121129  -2.169   0.303   6.196  1.7431  2.5607  0.4560
 4831WAT     H221130  -2.317   0.331   6.213  0.7779 -1.8242  0.5594
 4831WAT    EPW21131  -2.234   0.355   6.224  0.1539  0.5835  0.6983
 4832WAT      O21132   2.856   0.119   1.646  0.0812 -0.0029 -0.4902
 4832WAT     H121133   2.949   0.103   1.657 -0.0997 -0.5948  0.2328
 4832WAT     H221134   2.851   0.209   1.611  0.9218 -0.0838 -0.8390
 4832WAT    EPW21135   2.867   0.129   1.643  0.1682 -0.0916 -0.4409
 4833WAT      O21136  -2.733   7.640   0.193  0.4480 -0.0146 -0.4289
 4833WAT     H121137  -2.747   7.546   0.202 -0.4792  0.2031  0.6242
 4833WAT     H221138  -2.641   7.653   0.219 -0.0733 -0.3599  1.7919
 4833WAT    EPW21139  -2.722   7.629   0.197  0.2570 -0.0315  0.0029
 4834WAT      O21140  -0.594   8.015   4.254 -0.1364 -0.2903  0.3491
 4834WAT     H121141  -0.526   8.080   4.237  0.5022 -1.0888 -0.2692
 4834WAT     H221142  -0.595   7.960   4.175  0.4760 -1.9858  1.4490
 4834WAT    EPW21143  -0.585   8.016   4.241  0.0286 -0.6189  0.4127
 4835WAT      O21144   5.881   1.886   6.482 -0.1985 -0.3201  0.0797
 4835WAT     H121145   5.919   1.816   6.534  0.6448  0.2474  0.2471
 4835WAT     H221146   5.860   1.845   6.398  3.6037 -0.0660 -1.1980
 4835WAT    EPW21147   5.883   1.871   6.478  0.4141 -0.2117 -0.0668
 4836WAT      O21148   3.017   2.819   6.700  0.6090  0.0419 -0.1337
 4836WAT     H121149   3.065   2.749   6.655  2.0360  0.0520  1.2712
 4836WAT     H221150   3.085   2.881   6.727 -0.4564  1.1718  0.0428
 4836WAT    EPW21151   3.033   2.818   6.698  0.6566  0.1923  0.0749
 4837WAT      O21152  -0.229   8.374   2.600  0.7668  0.5146  0.0249
 4837WAT     H121153  -0.248   8.289   2.560  0.2067  1.2622 -1.3514
 4837WAT     H221154  -0.241   8.437   2.530  0.5938  1.8075  1.1733
 4837WAT    EPW21155  -0.233   8.371   2.586  0.6701  0.7839 -0.0051
 4838WAT      O21156  -2.627   3.106   3.634 -0.1348 -0.1356  0.3509
 4838WAT     H121157  -2.583   3.023   3.650  0.0161  0.2479  2.0829
 4838WAT     H221158  -2.571   3.151   3.570  2.0402  0.2921  2.3952
 4838WAT    EPW21159  -2.614   3.101   3.627  0.1719 -0.0286  0.8489
 4839WAT      O21160  -6.482   5.440   8.912 -0.1073 -0.6878 -0.0684
 4839WAT     H121161  -6.442   5.526   8.897  0.8982 -1.0823  0.3183
 4839WAT     H221162  -6.547   5.457   8.981 -1.6012  0.2127 -1.6077
 4839WAT    EPW21163  -6.485   5.454   8.919 -0.1717 -0.6211 -0.2208
 4840WAT      O21164  -0.094   7.121   2.149 -0.4762 -0.1434  0.0644
 4840WAT     H121165  -0.184   7.128   2.180 -0.5523  0.7874 -0.3281
 4840WAT     H221166  -0.092   7.041   2.097 -0.5543 -1.2910  1.7414
 4840WAT    EPW21167  -0.105   7.112   2.146 -0.4966 -0.1721  0.2338
 4841WAT      O21168   3.088   3.738   6.347 -0.6099  0.8682 -0.3867
 4841WAT     H121169   3.183   3.748   6.352 -0.3086 -0.5451 -2.1672
 4841WAT     H221170   3.057   3.763   6.434  1.5485 -0.2759  0.8071
 4841WAT    EPW21171   3.096   3.743   6.359 -0.2854  0.5310 -0.4640
 4842WAT      O21172  -6.170   9.350   7.783 -0.5395  0.1816  0.4500
 4842WAT     H121173  -6.104   9.404   7.827 -1.8706  0.0402  2.7697
 4842WAT     H221174  -6.205   9.293   7.852  0.6077 -3.5814 -1.8216
 4842WAT    EPW21175  -6.166   9.350   7.798 -0.5639 -0.3333  0.4563
 4843WAT      O21176  -1.513   4.750   4.718 -0.2706  0.4709 -0.0136
 4843WAT     H121177  -1.573   4.752   4.794 -1.2009  0.0388 -0.7152
 4843WAT     H221178  -1.450   4.819   4.736 -0.1587  0.0329  1.4167
 4843WAT    EPW21179  -1.513   4.760   4.731 -0.3785  0.3560  0.0825
 4844WAT      O21180  -0.064   0.094   0.254  0.3246 -0.3063  0.4736
 4844WAT     H121181  -0.038   0.004   0.237 -0.5942 -0.1775 -2.1810
 4844WAT     H221182  -0.059   0.137   0.168 -0.4540  1.8411  1.4141
 4844WAT    EPW21183  -0.060   0.088   0.240  0.1008 -0.0061  0.2475
 4845WAT      O21184   2.080   4.806   3.611 -0.1282 -0.1363 -0.2992
 4845WAT     H121185   2.105   4.717   3.588 -0.2912 -0.6473  1.3827
 4845WAT     H221186   2.161   4.848   3.638 -0.4803 -0.8322  2.0979
 4845WAT    EPW21187   2.094   4.800   3.611 -0.1961 -0.2954  0.2388
 4846WAT      O21188  -0.853   4.912   5.542 -0.5317 -0.0819  0.4376
 4846WAT     H121189  -0.902   4.847   5.491  0.0240 -0.3933  0.2945
 4846WAT     H221190  -0.765   4.875   5.549  0.0760  1.0981 -0.4838
 4846WAT    EPW21191  -0.848   4.898   5.536 -0.3782  0.0327  0.2971
 4847WAT      O21192  -5.307   9.516   3.577 -0.0869 -0.5033  0.1113
 4847WAT     H121193  -5.284   9.459   3.504 -0.6572 -0.3206 -0.2247
 4847WAT     H221194  -5.228   9.567   3.595  0.1633 -0.8008 -0.1426
 4847WAT    EPW21195  -5.294   9.515   3.570 -0.1292 -0.5183  0.0335
 4848WAT      O21196  -0.933   4.391   3.135  0.6238 -0.0937  0.7953
 4848WAT     H121197  -0.859   4.347   3.177  1.8591 -1.0710 -2.1425
 4848WAT     H221198  -0.944   4.346   3.052 -1.1363  2.2206 -0.3520
 4848WAT    EPW21199  -0.925   4.379   3.130  0.5546  0.0825  0.2565
 4849WAT      O21200   1.019   9.610   3.972  0.5786 -0.1608 -0.2130
 4849WAT     H121201   0.928   9.584   3.960  0.4102 -0.0125  0.6533
 4849WAT     H221202   1.058   9.540   4.024  0.5978  0.4173  0.5744
 4849WAT    EPW21203   1.012   9.597   3.978  0.5589 -0.0648  0.0050
 4850WAT      O21204   3.970   8.130   2.336  0.7900  0.5237 -1.0562
 4850WAT     H121205   4.006   8.112   2.423 -1.7012 -3.1575 -0.5366
 4850WAT     H221206   4.027   8.081   2.276  1.5079  1.6669 -1.3336
 4850WAT    EPW21207   3.982   8.121   2.339  0.5562  0.1888 -1.0241
 4851WAT      O21208   0.667   5.441   5.283 -0.6166 -0.2321  0.4796
 4851WAT     H121209   0.720   5.368   5.315 -0.6278 -1.3071 -1.7739
 4851WAT     H221210   0.730   5.512   5.272 -0.1505 -0.6405  0.4447
 4851WAT    EPW21211   0.682   5.441   5.286 -0.5566 -0.4277  0.1779
 4852WAT      O21212  -3.531   8.889   1.340 -0.6622 -0.4851  0.4713
 4852WAT     H121213  -3.583   8.946   1.284 -0.7245 -0.8903  0.1078
 4852WAT     H221214  -3.589   8.815   1.359 -0.4016 -0.6834  0.4958
 4852WAT    EPW21215  -3.545   8.887   1.335 -0.6361 -0.5651  0.4265
 4853WAT      O21216   4.734   7.175  -0.024 -0.7255  0.3890  0.2404
 4853WAT     H121217   4.677   7.247  -0.000 -1.4980 -0.3827  0.7936
 4853WAT     H221218   4.769   7.143   0.059 -1.9944 -1.1545  0.2226
 4853WAT    EPW21219   4.731   7.180  -0.010 -0.9947  0.0836  0.3109
 4854WAT      O21220  -4.747  10.294   6.156  0.1120 -0.1022 -0.4141
 4854WAT     H121221  -4.780  10.274   6.243  0.8242  0.3887 -0.0158
 4854WAT     H221222  -4.728  10.388   6.159  0.8260 -0.2209 -0.8581
 4854WAT    EPW21223  -4.749  10.304   6.168  0.2999 -0.0534 -0.4203
 4855WAT      O21224  -3.968   3.189   8.287  0.3537  0.2887  0.6227
 4855WAT     H121225  -4.057   3.169   8.318 -0.6607  3.4561  0.0608
 4855WAT     H221226  -3.954   3.280   8.311  3.5896 -0.1574  0.8472
 4855WAT    EPW21227  -3.978   3.198   8.294  0.6467  0.6477  0.5784
 4856WAT      O21228   8.033   3.092   1.243  0.0513  0.5860 -0.0473
 4856WAT     H121229   8.083   3.058   1.317  1.2491 -2.1146 -1.9443
 4856WAT     H221230   7.955   3.036   1.240  0.6447 -0.2268 -1.5207
 4856WAT    EPW21231   8.029   3.080   1.253  0.2875  0.1227 -0.4918
 4857WAT      O21232  -1.406   1.847   5.172 -0.3027  0.4380 -0.0563
 4857WAT     H121233  -1.380   1.770   5.120  2.2540  1.9050 -1.1342
 4857WAT     H221234  -1.480   1.884   5.124 -0.1359 -0.1072 -0.7497
 4857WAT    EPW21235  -1.412   1.842   5.159  0.0565  0.5596 -0.2899
 4858WAT      O21236  -2.816   8.076   5.037 -0.1471  0.6934  0.3961
 4858WAT     H121237  -2.838   8.024   4.959  0.3593 -0.7887  1.1890
 4858WAT     H221238  -2.874   8.042   5.105 -0.1755  1.5609  0.8112
 4858WAT    EPW21239  -2.826   8.064   5.035 -0.0840  0.6127  0.5555
 4859WAT      O21240  -1.737   8.222   6.471 -0.1565  0.7185 -0.1292
 4859WAT     H121241  -1.761   8.129   6.471  4.8620 -0.8780 -1.1142
 4859WAT     H221242  -1.719   8.242   6.563  1.2882 -0.1815 -0.1843
 4859WAT    EPW21243  -1.738   8.212   6.483  0.6959  0.3891 -0.2666
 4860WAT      O21244  -4.580   6.354   8.738 -0.0045  0.3382  0.3636
 4860WAT     H121245  -4.655   6.325   8.686 -1.0452  2.4669  0.5467
 4860WAT     H221246  -4.518   6.281   8.735 -1.9998 -1.4258  0.0598
 4860WAT    EPW21247  -4.582   6.341   8.731 -0.4048  0.3865  0.3476
 4861WAT      O21248   1.251   5.097   0.698 -0.1845 -1.1442 -0.4450
 4861WAT     H121249   1.289   5.058   0.619 -1.5926  0.3067 -1.9059
 4861WAT     H221250   1.322   5.151   0.734  0.1089 -0.8322 -1.4342
 4861WAT    EPW21251   1.266   5.099   0.692 -0.3315 -0.9117 -0.7682
 4862WAT      O21252  -2.426   7.971   7.085 -0.3638  0.1073 -0.0245
 4862WAT     H121253  -2.458   7.967   6.995  0.3740 -0.4179 -0.2773
 4862WAT     H221254  -2.499   8.006   7.135  0.1184  3.2139 -1.2618
 4862WAT    EPW21255  -2.440   7.975   7.080 -0.2029  0.4480 -0.2210
 4863WAT      O21256   7.575   2.668   0.650 -0.3616  0.3157 -0.1282
 4863WAT     H121257   7.665   2.636   0.647  0.0253  1.3297 -3.1874
 4863WAT     H221258   7.532   2.628   0.574 -1.1154  3.3190 -1.4682
 4863WAT    EPW21259   7.581   2.659   0.639 -0.4101  0.8456 -0.7084
 4864WAT      O21260   3.820   3.141   7.000 -0.0375 -0.1032 -0.2310
 4864WAT     H121261   3.763   3.174   6.930 -1.2153 -0.5803  0.4800
 4864WAT     H221262   3.764   3.084   7.052  0.6219  0.8095  1.5415
 4864WAT    EPW21263   3.805   3.138   6.997 -0.1059 -0.0457  0.0968
 4865WAT      O21264   2.219   2.257   8.266 -0.9974 -0.4618 -0.7241
 4865WAT     H121265   2.227   2.278   8.173 -0.8470  1.5968 -0.2974
 4865WAT     H221266   2.177   2.334   8.305  2.1275  0.3229  1.4632
 4865WAT    EPW21267   2.214   2.270   8.259 -0.5653 -0.0868 -0.3791
 4866WAT      O21268  -4.161   9.517   8.568 -0.5635 -0.0850  0.2137
 4866WAT     H121269  -4.226   9.579   8.602  0.6913  1.1832  0.4091
 4866WAT     H221270  -4.177   9.516   8.473 -1.9035 -1.0632  0.4217
 4866WAT    EPW21271  -4.172   9.525   8.560 -0.5748 -0.0467  0.2666
 4867WAT      O21272  -0.376   1.543   6.975 -0.5133  0.2954 -0.2562
 4867WAT     H121273  -0.281   1.546   6.969 -0.4435  0.6990  0.7692
 4867WAT     H221274  -0.394   1.460   7.020 -0.5577  0.8395  0.7536
 4867WAT    EPW21275  -0.366   1.532   6.980 -0.5099  0.4204  0.0124
 4868WAT      O21276   4.938   6.869   1.499 -0.2314 -0.2917 -0.0339
 4868WAT     H121277   4.895   6.889   1.416 -0.8769  1.2362  0.6347
 4868WAT     H221278   4.953   6.774   1.496 -1.5141 -0.4846 -1.2886
 4868WAT    EPW21279   4.935   6.859   1.488 -0.4857 -0.1154 -0.1112
 4869WAT      O21280   1.516   8.799   3.790  0.1026  0.1727 -0.0757
 4869WAT     H121281   1.533   8.706   3.774 -1.8312 -0.1774 -0.4204
 4869WAT     H221282   1.427   8.800   3.825 -1.3150  2.1449 -3.3206
 4869WAT    EPW21283   1.506   8.787   3.793 -0.3394  0.3867 -0.5492
 4870WAT      O21284   7.451   0.797   4.444 -0.3589  0.6532 -0.5107
 4870WAT     H121285   7.494   0.852   4.508  0.5660 -0.4753 -0.1222
 4870WAT     H221286   7.427   0.718   4.492  1.7921 -0.9218 -1.8216
 4870WAT    EPW21287   7.454   0.794   4.458  0.0467  0.2966 -0.6323
 4871WAT      O21288   1.942   1.155   4.482  0.1698 -0.0445  0.0478
 4871WAT     H121289   1.913   1.245   4.497  1.2038  0.8581 -2.8066
 4871WAT     H221290   2.035   1.157   4.503  0.7237  0.2299 -2.1796
 4871WAT    EPW21291   1.950   1.167   4.487  0.3792  0.1107 -0.6225
 4872WAT      O21292   0.419   2.810   6.000 -0.4318 -0.7205 -0.1809
 4872WAT     H121293   0.380   2.728   5.969 -0.9123  0.1786 -2.1777
 4872WAT     H221294   0.353   2.877   5.978  0.7020  0.3937 -0.2971
 4872WAT    EPW21295   0.405   2.808   5.993 -0.3456 -0.4549 -0.4597
 4873WAT      O21296  -5.877   7.435   6.306 -0.2821 -0.1048  0.1218
 4873WAT     H121297  -5.827   7.477   6.237  1.2873  1.8591  2.2784
 4873WAT     H221298  -5.958   7.407   6.264 -0.4745  3.1439 -2.0263
 4873WAT    EPW21299  -5.882   7.437   6.292 -0.1006  0.5825  0.1228
 4874WAT      O21300  -4.228   8.830   2.358 -0.3033  0.1346  0.1737
 4874WAT     H121301  -4.150   8.869   2.398  1.1649  0.2304 -2.5708
 4874WAT     H221302  -4.290   8.822   2.431  1.5097  1.9267  2.0742
 4874WAT    EPW21303  -4.226   8.834   2.373  0.1295  0.3834  0.0625
 4875WAT      O21304  -0.089   7.784   8.798  0.4277  0.5695  0.7022
 4875WAT     H121305  -0.129   7.867   8.823 -0.9674 -0.6276  2.8618
 4875WAT     H221306  -0.130   7.720   8.857 -0.5104 -2.0864 -2.5331
 4875WAT    EPW21307  -0.100   7.786   8.809  0.1200  0.0613  0.5603
 4876WAT      O21308   1.084   1.013   3.459  0.8057 -0.1186 -0.1498
 4876WAT     H121309   1.141   0.993   3.534  1.5996  0.5919 -0.5507
 4876WAT     H221310   1.070   0.928   3.417  0.1035 -0.5726  0.9720
 4876WAT    EPW21311   1.090   0.999   3.463  0.8178 -0.0848 -0.0547
 4877WAT      O21312   3.153   9.529   2.045  0.1079 -0.3581  0.0092
 4877WAT     H121313   3.217   9.588   2.004 -0.2547 -0.3010 -0.4782
 4877WAT     H221314   3.075   9.584   2.057  0.7895  0.2038  2.5560
 4877WAT    EPW21315   3.151   9.544   2.041  0.1500 -0.2766  0.2807
 4878WAT      O21316   1.595   8.974   6.299  0.4592  0.3585  0.1889
 4878WAT     H121317   1.678   8.948   6.340  0.6316  3.5871  2.3242
 4878WAT     H221318   1.531   8.913   6.335  1.4973 -0.4057  0.8255
 4878WAT    EPW21319   1.598   8.963   6.309  0.6188  0.6833  0.5543
 4879WAT      O21320   1.954   0.676   0.858 -0.8681 -0.0935  0.6604
 4879WAT     H121321   1.941   0.739   0.928  3.2933  0.9260  0.7804
 4879WAT     H221322   1.920   0.720   0.780  0.1724  1.5476  1.0736
 4879WAT    EPW21323   1.948   0.690   0.857 -0.1820  0.2574  0.7308
 4880WAT      O21324  -1.698   9.503   4.543 -0.3044  0.1588  0.5486
 4880WAT     H121325  -1.642   9.540   4.475 -1.4900  3.1294  1.0290
 4880WAT     H221326  -1.652   9.521   4.625  0.5521 -2.3436  0.7047
 4880WAT    EPW21327  -1.684   9.510   4.545 -0.3477  0.2208  0.6325
 4881WAT      O21328  -1.788   2.041   3.046  0.2142  0.5467 -0.3747
 4881WAT     H121329  -1.839   2.121   3.057  1.2399  1.3829 -1.4246
 4881WAT     H221330  -1.697   2.070   3.050  0.6067 -0.5917 -0.6372
 4881WAT    EPW21331  -1.783   2.055   3.048  0.4013  0.5069 -0.5478
 4882WAT      O21332  -3.038  10.228   5.312 -0.7642 -0.6185  0.6849
 4882WAT     H121333  -3.002  10.153   5.264  2.5363  1.1842  0.0145
 4882WAT     H221334  -2.997  10.223   5.398  2.9121  2.3174 -0.5708
 4882WAT    EPW21335  -3.028  10.218   5.317  0.1560  0.0067  0.4311
 4883WAT      O21336   4.698   0.326   3.291  0.1679 -0.7431  0.0162
 4883WAT     H121337   4.737   0.384   3.357 -0.0829 -0.7048  0.1368
 4883WAT     H221338   4.667   0.251   3.341 -0.0840 -0.6835 -0.0450
 4883WAT    EPW21339   4.699   0.324   3.307  0.1016 -0.7302  0.0241
 4884WAT      O21340  -8.635   9.852   8.926 -0.1169  0.0998 -0.0272
 4884WAT     H121341  -8.549   9.882   8.957  0.5574  0.2955 -1.9970
 4884WAT     H221342  -8.616   9.775   8.872 -1.1340  0.3536 -0.7758
 4884WAT    EPW21343  -8.621   9.846   8.923 -0.1626  0.1593 -0.3858
 4885WAT      O21344   3.108   3.542   0.642 -0.6311  0.3733  0.1834
 4885WAT     H121345   3.194   3.530   0.682 -0.9252 -2.3538  0.1936
 4885WAT     H221346   3.124   3.537   0.548 -0.7248  0.3699  0.1674
 4885WAT    EPW21347   3.121   3.540   0.635 -0.6822  0.0131  0.1826
 4886WAT      O21348  -3.988   9.544   1.654 -0.1248  0.4508 -0.3340
 4886WAT     H121349  -3.907   9.592   1.638  0.3359 -0.1601  0.1087
 4886WAT     H221350  -4.003   9.495   1.573  2.9902 -3.7837  1.2641
 4886WAT    EPW21351  -3.979   9.544   1.641  0.3469 -0.1884 -0.0648
 4887WAT      O21352   2.217   8.971   3.408 -1.0186  0.0891 -0.7098
 4887WAT     H121353   2.192   8.995   3.319 -0.3126 -0.4268 -1.0568
 4887WAT     H221354   2.213   8.876   3.409 -2.3742  0.1406  0.2245
 4887WAT    EPW21355   2.213   8.962   3.396 -1.1042  0.0281 -0.6323
 4888WAT      O21356   7.431   4.717   3.074 -0.1701  0.9318  0.1249
 4888WAT     H121357   7.454   4.657   3.003  0.8626 -0.3918  1.5307
 4888WAT     H221358   7.495   4.788   3.066 -0.5528  1.2054 -0.7125
 4888WAT    EPW21359   7.442   4.719   3.064 -0.0843  0.7932  0.1998
 4889WAT      O21360  -0.940   1.481   0.771  0.0415 -0.3004 -0.7510
 4889WAT     H121361  -0.869   1.443   0.719 -1.3639 -1.7986 -1.6790
 4889WAT     H221362  -1.020   1.444   0.733 -1.1344 -0.3116  1.5552
 4889WAT    EPW21363  -0.941   1.471   0.759 -0.2990 -0.4995 -0.5692
 4890WAT      O21364   2.224   0.580   6.737  0.5068  0.3573  0.4654
 4890WAT     H121365   2.164   0.515   6.773  0.5877 -0.2713 -0.5134
 4890WAT     H221366   2.169   0.634   6.680  0.7986 -0.0446 -0.2107
 4890WAT    EPW21367   2.209   0.579   6.734  0.5560  0.2214  0.2470
 4891WAT      O21368   1.341   6.905   6.851  0.0271 -0.7601  0.6426
 4891WAT     H121369   1.317   6.837   6.914  0.3926  0.0301  1.6732
 4891WAT     H221370   1.420   6.870   6.808  0.8714 -0.5467  1.9513
 4891WAT    EPW21371   1.348   6.891   6.854  0.1866 -0.6278  0.9511
 4892WAT      O21372  -0.722   7.698   1.454  0.2926 -0.0874 -0.5955
 4892WAT     H121373  -0.694   7.613   1.418  2.0369  0.0789  0.2803
 4892WAT     H221374  -0.642   7.737   1.489 -0.8078  1.1047  0.7209
 4892WAT    EPW21375  -0.708   7.692   1.454  0.3776  0.0916 -0.3064
 4893WAT      O21376  -1.993   3.357   5.073  0.5547 -0.3072  0.3290
 4893WAT     H121377  -1.943   3.375   5.153  1.1572 -0.1817 -0.0673
 4893WAT     H221378  -2.042   3.437   5.056  1.5313  0.1980 -0.2108
 4893WAT    EPW21379  -1.993   3.370   5.082  0.7630 -0.2240  0.2055
 4894WAT      O21380  -2.397   7.138   4.099 -0.1660  0.1545  0.3013
 4894WAT     H121381  -2.409   7.222   4.144 -0.7199  0.0063  0.4441
 4894WAT     H221382  -2.418   7.073   4.166 -3.4166 -0.0725 -0.7285
 4894WAT    EPW21383  -2.402   7.141   4.114 -0.6677  0.1049  0.1843
 4895WAT      O21384   4.077   3.033   1.616 -0.5248  0.1761 -0.0686
 4895WAT     H121385   4.109   3.118   1.645  2.3587  0.1743 -2.7304
 4895WAT     H221386   4.000   3.053   1.563  0.2307  1.1520 -0.8156
 4895WAT    EPW21387   4.071   3.047   1.613 -0.0448  0.3046 -0.5182
 4896WAT      O21388  -3.327   4.900   8.873  0.0610  0.1304 -0.0700
 4896WAT     H121389  -3.277   4.947   8.806  0.4205  0.6595  0.5585
 4896WAT     H221390  -3.399   4.958   8.895  2.0980  1.8349  2.8191
 4896WAT    EPW21391  -3.330   4.914   8.867  0.3772  0.4251  0.3934
 4897WAT      O21392   7.548   5.360   0.293 -0.0784  0.2168 -0.2911
 4897WAT     H121393   7.460   5.370   0.331  0.3983 -0.0280  0.9170
 4897WAT     H221394   7.538   5.292   0.227 -0.7475  0.0025  0.0200
 4897WAT    EPW21395   7.535   5.353   0.289 -0.1037  0.1562 -0.0907
 4898WAT      O21396   3.450   5.513   1.550  0.5749  0.2256  0.5529
 4898WAT     H121397   3.379   5.572   1.577  0.3898 -0.4646  1.6210
 4898WAT     H221398   3.493   5.489   1.631  1.3738 -0.2134  0.0085
 4898WAT    EPW21399   3.446   5.518   1.564  0.6559  0.0765  0.6220
 4899WAT      O21400  -5.442   3.985   8.046 -0.5704 -0.3282 -0.7031
 4899WAT     H121401  -5.390   3.972   7.967 -1.5466  0.2310 -1.4580
 4899WAT     H221402  -5.447   4.080   8.055  2.5627 -0.2167  2.1086
 4899WAT    EPW21403  -5.435   3.996   8.037 -0.2859 -0.2398 -0.4315
 4900WAT      O21404  -2.078   0.628   6.323  0.3364 -0.1164  0.1738
 4900WAT     H121405  -2.172   0.613   6.338  0.9133 -2.2822  2.3465
 4900WAT     H221406  -2.061   0.714   6.360 -0.6328 -0.1492  0.7286
 4900WAT    EPW21407  -2.088   0.637   6.330  0.2847 -0.4064  0.5336
 4901WAT      O21408   1.437   1.107   1.195 -0.4330  0.2542  0.4850
 4901WAT     H121409   1.468   1.048   1.264  0.4316  0.0368 -0.0660
 4901WAT     H221410   1.371   1.056   1.148 -0.7567  0.2674  0.9273
 4901WAT    EPW21411   1.432   1.092   1.197 -0.3616  0.2273  0.4706
 4902WAT      O21412   2.189  10.165   3.313  0.1024  0.5822  0.4532
 4902WAT     H121413   2.116  10.179   3.253 -1.3393 -1.6287  1.5413
 4902WAT     H221414   2.265  10.200   3.267 -1.1498  0.2485 -2.0633
 4902WAT    EPW21415   2.189  10.171   3.299 -0.2528  0.2465  0.2649
 4903WAT      O21416  -2.708   7.886   0.353 -0.0399 -0.1896 -0.0008
 4903WAT     H121417  -2.731   7.794   0.339 -0.2540 -0.2046  0.4213
 4903WAT     H221418  -2.765   7.914   0.425  0.3887  0.1227  0.2230
 4903WAT    EPW21419  -2.718   7.877   0.361 -0.0116 -0.1504  0.0844
 4904WAT      O21420  -2.581   2.748   8.709 -0.2800 -0.0647 -0.3872
 4904WAT     H121421  -2.527   2.821   8.739  1.4925 -0.5877 -2.0994
 4904WAT     H221422  -2.671   2.778   8.722  0.2946  3.3200 -2.8258
 4904WAT    EPW21423  -2.585   2.761   8.715  0.0296  0.3127 -0.9346
 4905WAT      O21424   4.179   4.059   1.847 -0.4224  0.3160 -0.5609
 4905WAT     H121425   4.117   4.021   1.785 -0.9007  1.2873 -0.7071
 4905WAT     H221426   4.145   4.148   1.862  0.4022  0.5273  0.1019
 4905WAT    EPW21427   4.166   4.066   1.841 -0.3767  0.4718 -0.4927
 4906WAT      O21428  -3.534   8.391   8.327 -0.5410 -0.5144 -0.7026
 4906WAT     H121429  -3.512   8.321   8.266 -0.4547 -0.2779 -0.9452
 4906WAT     H221430  -3.492   8.365   8.409 -0.0768 -0.4974 -0.9288
 4906WAT    EPW21431  -3.526   8.379   8.330 -0.4684 -0.4811 -0.7644
 4907WAT      O21432  -2.286   8.573   6.743 -0.0692 -0.3926 -0.4994
 4907WAT     H121433  -2.259   8.609   6.659 -1.7282  1.8520 -0.1708
 4907WAT     H221434  -2.239   8.625   6.808  0.0148 -1.0676 -0.0071
 4907WAT    EPW21435  -2.276   8.585   6.740 -0.2768 -0.1855 -0.3912
 4908WAT      O21436  -2.045   2.787   6.867 -0.3455  0.7899 -0.1198
 4908WAT     H121437  -2.093   2.749   6.794  0.0585 -2.7062  1.2244
 4908WAT     H221438  -1.966   2.823   6.828  1.1610 -3.2554 -1.3901
 4908WAT    EPW21439  -2.041   2.786   6.853 -0.0935 -0.2048 -0.1101
 4909WAT      O21440  -3.696   8.407   3.928 -0.1913 -0.0621 -0.0302
 4909WAT     H121441  -3.769   8.426   3.870  1.2133  1.3645 -1.4260
 4909WAT     H221442  -3.637   8.354   3.875  0.6853  0.4767  0.3871
 4909WAT    EPW21443  -3.698   8.403   3.914  0.1097  0.1974 -0.1593
 4910WAT      O21444   6.150   0.529   4.701 -0.0184  0.5181 -0.4969
 4910WAT     H121445   6.193   0.453   4.662  0.1355  0.4149 -0.1336
 4910WAT     H221446   6.108   0.574   4.628  0.8453  0.7045 -0.8873
 4910WAT    EPW21447   6.150   0.525   4.686  0.1156  0.5291 -0.5004
 4911WAT      O21448   0.222   8.049   1.766 -0.1699 -0.4056 -0.9631
 4911WAT     H121449   0.249   8.114   1.831 -1.5683 -0.9556  0.2178
 4911WAT     H221450   0.298   8.040   1.709  0.7933  0.7375  0.0673
 4911WAT    EPW21451   0.236   8.056   1.767 -0.2273 -0.3271 -0.6714
 4912WAT      O21452   1.134   1.896   1.981  0.0239  0.3487 -0.4915
 4912WAT     H121453   1.219   1.901   1.938  0.0733  0.4087 -0.3872
 4912WAT     H221454   1.115   1.986   2.009  0.0778  0.2801 -0.2272
 4912WAT    EPW21455   1.143   1.908   1.979  0.0376  0.3476 -0.4429
 4913WAT      O21456   1.579   7.860   8.130  0.6299  0.6839 -0.4005
 4913WAT     H121457   1.625   7.851   8.214 -2.0769  0.0363  1.1355
 4913WAT     H221458   1.538   7.775   8.116 -0.5773  1.4025 -1.3847
 4913WAT    EPW21459   1.580   7.848   8.139  0.1137  0.6933 -0.3276
 4914WAT      O21460  -0.761   6.456   8.167  0.0434 -0.3692 -0.4531
 4914WAT     H121461  -0.842   6.441   8.216 -0.1029  0.6539 -0.3555
 4914WAT     H221462  -0.702   6.386   8.194  0.5076  0.9853  2.3523
 4914WAT    EPW21463  -0.764   6.445   8.177  0.0854 -0.0558 -0.0701
 4915WAT      O21464   4.355   0.559   7.817  0.4717  0.3877  0.2987
 4915WAT     H121465   4.396   0.614   7.750  1.5806 -0.8324 -0.0591
 4915WAT     H221466   4.389   0.472   7.800 -0.7950 -0.3154  1.2310
 4915WAT    EPW21467   4.365   0.555   7.806  0.4508  0.1340  0.3743
 4916WAT      O21468  10.032   0.188   0.195 -0.0526  0.0864 -0.5397
 4916WAT     H121469  10.110   0.233   0.229 -0.2731  2.0965 -2.4557
 4916WAT     H221470   9.975   0.177   0.271 -0.0968  3.4374  0.0565
 4916WAT    EPW21471  10.035   0.192   0.209 -0.0873  0.7935 -0.7138
 4917WAT      O21472   3.249   5.874   7.645 -0.2312 -0.3879 -0.0259
 4917WAT     H121473   3.232   5.892   7.552  0.9876  2.0451  0.1362
 4917WAT     H221474   3.343   5.887   7.655 -0.4323 -0.0046  1.6457
 4917WAT    EPW21475   3.259   5.878   7.634 -0.0969 -0.0165  0.2160
 4918WAT      O21476   2.921   1.400   6.305 -0.5175 -0.4829 -0.4729
 4918WAT     H121477   2.832   1.372   6.284 -1.4566  1.4074  0.7615
 4918WAT     H221478   2.931   1.379   6.398  2.3903 -5.6945 -1.5496
 4918WAT    EPW21479   2.911   1.394   6.314 -0.2578 -0.9210 -0.4520
 4919WAT      O21480   3.350   0.231   7.145  0.1354 -0.2696 -0.0787
 4919WAT     H121481   3.330   0.308   7.197 -0.9045  0.4315 -1.4688
 4919WAT     H221482   3.326   0.157   7.201  2.7585  0.2513  1.9708
 4919WAT    EPW21483   3.344   0.231   7.159  0.3442 -0.1084  0.0081
 4920WAT      O21484  -1.051   8.918   5.718 -0.6925 -0.8946 -0.4786
 4920WAT     H121485  -1.042   8.868   5.636 -0.6925 -1.0212 -0.4007
 4920WAT     H221486  -1.141   8.901   5.746 -1.5130  1.0561 -1.7145
 4920WAT    EPW21487  -1.062   8.909   5.711 -0.8007 -0.6542 -0.6311
 4921WAT      O21488  -1.178   2.965   6.558  0.3071 -0.1928  0.0527
 4921WAT     H121489  -1.125   2.917   6.622  0.2728  0.8134  0.8700
 4921WAT     H221490  -1.205   3.044   6.605 -2.3041 -0.8770 -0.1793
 4921WAT    EPW21491  -1.174   2.969   6.573 -0.0418 -0.1503  0.1299
 4922WAT      O21492   2.993   4.504   3.981  0.0058 -0.0597 -0.6827
 4922WAT     H121493   2.961   4.457   4.058  2.8572  3.1558  2.8261
 4922WAT     H221494   2.925   4.569   3.963 -0.7920 -0.9898 -1.2056
 4922WAT    EPW21495   2.979   4.506   3.989  0.2767  0.2418 -0.2888
 4923WAT      O21496  -2.514   5.883   7.762 -0.1599  0.8426  0.3285
 4923WAT     H121497  -2.584   5.940   7.728 -1.2132 -0.4456  0.2552
 4923WAT     H221498  -2.547   5.794   7.748  2.1113  0.1326 -0.9857
 4923WAT    EPW21499  -2.528   5.879   7.756  0.0007  0.5791  0.1454
 4924WAT      O21500   3.634   1.104   4.867 -0.4351  0.6996 -0.2822
 4924WAT     H121501   3.727   1.116   4.887 -0.3615  1.4436 -1.0246
 4924WAT     H221502   3.623   1.009   4.859 -0.0199  0.5061  1.0544
 4924WAT    EPW21503   3.645   1.093   4.869 -0.3705  0.7721 -0.2041
 4925WAT      O21504  -3.215   8.226   4.834 -0.0115  0.0112  0.2201
 4925WAT     H121505  -3.306   8.199   4.846 -0.3726 -0.3734 -2.7129
 4925WAT     H221506  -3.164   8.151   4.866 -0.9263 -2.1474 -2.8579
 4925WAT    EPW21507  -3.220   8.212   4.840 -0.1799 -0.3247 -0.5729
 4926WAT      O21508   3.732   7.048   6.668  0.3428 -0.3572 -0.7221
 4926WAT     H121509   3.697   7.056   6.757 -0.0669  3.0215 -1.0365
 4926WAT     H221510   3.827   7.042   6.680  0.2946  0.1470 -0.0196
 4926WAT    EPW21511   3.740   7.048   6.681  0.2824  0.1550 -0.6707
 4927WAT      O21512   1.723   3.663   3.186 -1.0108 -0.6858 -0.1510
 4927WAT     H121513   1.696   3.753   3.203  0.3540 -0.6774  2.5010
 4927WAT     H221514   1.809   3.672   3.144 -1.0162 -0.7505 -0.1756
 4927WAT    EPW21515   1.731   3.676   3.182 -0.8315 -0.6932  0.1955
 4928WAT      O21516  -0.186   1.363   4.927 -0.1855  1.0615  0.4552
 4928WAT     H121517  -0.270   1.385   4.885 -0.1754  0.5751  0.1781
 4928WAT     H221518  -0.123   1.361   4.855 -0.4895 -1.5746  0.1651
 4928WAT    EPW21519  -0.189   1.366   4.912 -0.2243  0.6496  0.3805
 4929WAT      O21520   5.921   0.376   3.951  0.1343 -0.3199 -0.0734
 4929WAT     H121521   5.841   0.356   3.903  2.0532  0.3809 -3.8899
 4929WAT     H221522   5.992   0.349   3.894  2.7640  5.0145 -0.0126
 4929WAT    EPW21523   5.920   0.370   3.937  0.7341  0.4761 -0.5686
 4930WAT      O21524   1.699   6.329   1.993 -0.0379 -0.1751  0.3470
 4930WAT     H121525   1.765   6.380   2.040  0.1531  0.6912 -0.8074
 4930WAT     H221526   1.680   6.382   1.916 -2.0285 -0.4528  0.6106
 4930WAT    EPW21527   1.705   6.343   1.989 -0.2753 -0.0978  0.2295
 4931WAT      O21528  -4.206   8.176   2.848 -0.0181  0.0709  0.0230
 4931WAT     H121529  -4.256   8.216   2.918 -1.3901 -3.0292  1.0036
 4931WAT     H221530  -4.271   8.140   2.788  0.9261 -2.3657  0.2964
 4931WAT    EPW21531  -4.221   8.176   2.850 -0.0746 -0.6590  0.1884
 4932WAT      O21532   0.185   6.851   5.368 -0.0269  0.4048 -0.2106
 4932WAT     H121533   0.186   6.771   5.421 -2.0479  1.2458  1.2269
 4932WAT     H221534   0.132   6.828   5.292  2.2420 -0.5735 -1.6007
 4932WAT    EPW21535   0.178   6.837   5.365  0.0058  0.3867 -0.2041
 4933WAT      O21536  -1.830   2.269   7.573 -0.5239 -0.1717 -0.1521
 4933WAT     H121537  -1.764   2.267   7.503 -0.2768  0.4147  0.0630
 4933WAT     H221538  -1.833   2.178   7.604  1.7890  0.1564  1.3018
 4933WAT    EPW21539  -1.822   2.257   7.568 -0.1863 -0.0510  0.0682
 4934WAT      O21540   0.182   9.305   0.928  0.1504 -0.0032  0.1056
 4934WAT     H121541   0.130   9.363   0.872  1.4008  0.5382 -0.5190
 4934WAT     H221542   0.250   9.361   0.965 -0.9332 -0.2303  2.6317
 4934WAT    EPW21543   0.184   9.320   0.926  0.1724  0.0381  0.3564
 4935WAT      O21544  -0.382   7.841   6.602 -0.1670  0.1890 -0.2458
 4935WAT     H121545  -0.355   7.756   6.635 -1.6877 -1.2554 -2.4595
 4935WAT     H221546  -0.300   7.888   6.587  0.6889 -0.7033  1.3481
 4935WAT    EPW21547  -0.368   7.836   6.604 -0.2547 -0.1192 -0.3276
 4936WAT      O21548   3.560   3.716   8.133 -0.4588 -0.2596 -0.0051
 4936WAT     H121549   3.486   3.766   8.167  1.5786  3.4184 -0.4678
 4936WAT     H221550   3.571   3.746   8.043  1.8489 -0.2628  0.1924
 4936WAT    EPW21551   3.552   3.726   8.126  0.1142  0.2249 -0.0405
 4937WAT      O21552   6.293   2.331   5.982 -0.2474  0.1186  0.3639
 4937WAT     H121553   6.250   2.369   5.905  1.7719  0.9056 -0.4296
 4937WAT     H221554   6.386   2.347   5.968  0.1963  0.1748  2.9253
 4937WAT    EPW21555   6.299   2.338   5.970  0.0775  0.2298  0.5970
 4938WAT      O21556  -2.519   7.191   6.020 -0.5375 -0.0949 -0.2709
 4938WAT     H121557  -2.506   7.183   6.114  0.3080 -1.0670 -0.4498
 4938WAT     H221558  -2.567   7.111   5.996  1.1113 -0.9253 -0.9546
 4938WAT    EPW21559  -2.524   7.179   6.029 -0.2085 -0.3326 -0.3846
 4939WAT      O21560  -0.689   6.025   1.259 -0.2306  0.5989  0.6041
 4939WAT     H121561  -0.739   5.948   1.231 -2.0522  0.9559  2.5403
 4939WAT     H221562  -0.702   6.027   1.354  1.4766  2.1739  0.8551
 4939WAT    EPW21563  -0.697   6.015   1.268 -0.2457  0.8538  0.8926
 4940WAT      O21564   5.713   0.998   0.443 -0.2122 -0.7009  1.1430
 4940WAT     H121565   5.665   0.938   0.501 -1.6700 -0.0458  0.6700
 4940WAT     H221566   5.698   0.963   0.356  0.3207 -0.5713  0.9975
 4940WAT    EPW21567   5.704   0.986   0.440 -0.3340 -0.5974  1.0614
 4941WAT      O21568   2.242   8.929   5.697  0.0440 -0.1038 -0.0464
 4941WAT     H121569   2.252   8.839   5.727  0.4986 -0.4983 -1.3142
 4941WAT     H221570   2.242   8.981   5.777  0.4715 -1.1638  0.6687
 4941WAT    EPW21571   2.243   8.924   5.711  0.1603 -0.2956 -0.1192
 4942WAT      O21572  -1.708   0.405   5.851 -0.1529 -0.1753  0.2957
 4942WAT     H121573  -1.724   0.419   5.944  0.4884  0.2170  0.3505
 4942WAT     H221574  -1.692   0.310   5.844 -1.3131 -0.3987  0.4037
 4942WAT    EPW21575  -1.708   0.394   5.862 -0.2213 -0.1530  0.3171
 4943WAT      O21576   4.684   7.065   4.269  0.3840  0.1026 -0.0185
 4943WAT     H121577   4.633   6.984   4.261 -0.6482  0.5589  1.5035
 4943WAT     H221578   4.649   7.122   4.200  0.2727 -0.3157 -0.3108
 4943WAT    EPW21579   4.673   7.062   4.259  0.2332  0.1078  0.1438
 4944WAT      O21580  -4.046   8.107   2.222 -1.2043  0.2442  0.1797
 4944WAT     H121581  -4.137   8.091   2.248 -1.6663  3.0168  0.5830
 4944WAT     H221582  -3.999   8.118   2.305 -0.7336 -0.0592 -0.0456
 4944WAT    EPW21583  -4.052   8.106   2.236 -1.2031  0.5703  0.2033
 4945WAT      O21584   4.455   0.972   2.382 -0.3144  0.2671  0.5273
 4945WAT     H121585   4.412   0.935   2.459 -0.8634  1.5403  0.8663
 4945WAT     H221586   4.531   0.917   2.368 -0.5667 -0.3809  1.5918
 4945WAT    EPW21587   4.459   0.960   2.391 -0.4203  0.3496  0.7124
 4946WAT      O21588   2.106   4.398   0.765  0.1496  0.1713 -0.3215
 4946WAT     H121589   2.011   4.387   0.772 -0.2611  2.8087 -0.8698
 4946WAT     H221590   2.142   4.330   0.822 -2.1612  0.9757  2.3088
 4946WAT    EPW21591   2.098   4.387   0.774 -0.2092  0.6251 -0.0469
 4947WAT      O21592  -2.474   7.399   8.040 -0.5461 -0.2687 -1.1344
 4947WAT     H121593  -2.547   7.338   8.034  0.0097 -1.0812 -0.1186
 4947WAT     H221594  -2.402   7.346   8.076 -1.1477  1.7989  4.0100
 4947WAT    EPW21595  -2.474   7.384   8.044 -0.5522 -0.1032 -0.3219
 4948WAT      O21596  -0.478  10.100   7.404 -0.3804 -0.4653 -0.0336
 4948WAT     H121597  -0.570  10.098   7.379 -0.6086 -2.0275  0.7744
 4948WAT     H221598  -0.448  10.188   7.382 -1.8378 -0.2053 -1.0945
 4948WAT    EPW21599  -0.486  10.111   7.398 -0.6027 -0.6371 -0.0668
 4949WAT      O21600   0.590   7.479   2.290 -0.8139  0.0335 -0.2845
 4949WAT     H121601   0.606   7.552   2.350 -2.3792 -1.1872  1.7431
 4949WAT     H221602   0.676   7.438   2.279 -0.4258  0.4634  0.9163
 4949WAT    EPW21603   0.604   7.483   2.297 -0.9692 -0.0710  0.1413
 4950WAT      O21604   1.111   7.823   1.484 -0.0051 -0.3168  0.5800
 4950WAT     H121605   1.056   7.747   1.502 -0.7719 -0.2462 -1.2353
 4950WAT     H221606   1.052   7.885   1.442  1.5109 -0.4239 -1.8724
 4950WAT    EPW21607   1.096   7.821   1.481  0.0938 -0.3219  0.0170
 4951WAT      O21608   1.477   9.957   4.242 -0.4236  0.2040 -0.5488
 4951WAT     H121609   1.484   9.993   4.153 -1.9778  0.8443 -0.4300
 4951WAT     H221610   1.442   9.869   4.229 -0.6731  0.3060 -0.5562
 4951WAT    EPW21611   1.474   9.950   4.228 -0.6615  0.3018 -0.5341
 4952WAT      O21612   6.798   4.329   2.137  0.8538 -0.0275 -0.0477
 4952WAT     H121613   6.871   4.348   2.197  0.5052  1.4553 -0.0610
 4952WAT     H221614   6.741   4.271   2.187  1.2058  0.1582  0.5819
 4952WAT    EPW21615   6.800   4.324   2.152  0.8543  0.1926  0.0335
 4953WAT      O21616  -6.527   6.022   8.667  0.8148 -0.4175 -0.6850
 4953WAT     H121617  -6.437   6.054   8.671  0.7432 -0.2473  2.3603
 4953WAT     H221618  -6.519   5.931   8.638  2.1274 -0.6996  0.4314
 4953WAT    EPW21619  -6.514   6.014   8.664  0.9785 -0.4323 -0.1364
 4954WAT      O21620  -0.023   2.962   6.060  0.1813 -0.0391  0.7616
 4954WAT     H121621   0.003   2.879   6.021  3.1456  0.8694  0.5883
 4954WAT     H221622  -0.085   2.999   5.997 -2.2516 -2.5616  1.4464
 4954WAT    EPW21623  -0.028   2.956   6.046  0.2514 -0.2520  0.8290
 4955WAT      O21624  -5.649   6.437   8.903 -0.1293  0.3514  0.4177
 4955WAT     H121625  -5.580   6.466   8.844  0.1832  1.9312  1.4887
 4955WAT     H221626  -5.613   6.452   8.991 -1.6040  0.6329  0.9972
 4955WAT    EPW21627  -5.635   6.443   8.907 -0.2828  0.5970  0.6351
 4956WAT      O21628  -2.517   7.559   8.434  0.1667  0.3630  0.3238
 4956WAT     H121629  -2.579   7.489   8.413  0.7498  0.4707 -2.1370
 4956WAT     H221630  -2.565   7.618   8.492 -1.5444 -0.2786 -0.3774
 4956WAT    EPW21631  -2.531   7.558   8.439  0.0180  0.2925 -0.0930
 4957WAT      O21632   6.050   6.656   0.432 -0.7885  0.4894 -0.1914
 4957WAT     H121633   6.116   6.697   0.488  0.1344 -1.0815 -0.0549
 4957WAT     H221634   5.967   6.689   0.465 -0.2098  0.4379  1.4168
 4957WAT    EPW21635   6.048   6.665   0.444 -0.5903  0.2754  0.0387
 4958WAT      O21636  -0.487   8.076   3.133 -0.3792 -0.0678  0.1405
 4958WAT     H121637  -0.570   8.065   3.088  0.5194 -0.9738 -1.4009
 4958WAT     H221638  -0.421   8.049   3.069  1.1320  0.9407  1.1976
 4958WAT    EPW21639  -0.489   8.071   3.119 -0.0614 -0.0548  0.0767
 4959WAT      O21640   3.477   5.470   2.929 -0.4213  0.0312 -0.2899
 4959WAT     H121641   3.534   5.428   2.865  1.5128  2.5829 -0.4039
 4959WAT     H221642   3.520   5.453   3.013 -0.2603  0.7137 -0.2227
 4959WAT    EPW21643   3.491   5.462   2.932 -0.1450  0.4578 -0.2961
 4960WAT      O21644  -3.561   5.876   4.870 -0.0248 -0.3001  0.9020
 4960WAT     H121645  -3.654   5.867   4.849 -0.2662  1.6760  0.8947
 4960WAT     H221646  -3.526   5.787   4.865 -0.6995 -0.5621 -4.6220
 4960WAT    EPW21647  -3.569   5.863   4.867 -0.1456 -0.0741  0.1724
 4961WAT      O21648  -0.370  10.098   6.039  0.1980 -0.2752 -0.7544
 4961WAT     H121649  -0.301  10.078   5.976  0.7650 -0.3939 -0.1068
 4961WAT     H221650  -0.441  10.133   5.986  0.8408  0.0731 -1.4111
 4961WAT    EPW21651  -0.370  10.100   6.024  0.3575 -0.2451 -0.7555
 4962WAT      O21652  -3.065   8.202   7.069  1.3151  0.0116 -0.1862
 4962WAT     H121653  -3.159   8.198   7.086  1.1799  1.6576 -0.4417
 4962WAT     H221654  -3.025   8.212   7.156  1.1514  0.7618 -0.1956
 4962WAT    EPW21655  -3.072   8.203   7.083  1.2757  0.3276 -0.2210
 4963WAT      O21656  -4.237   9.938   3.746 -0.3139  0.4334  0.7623
 4963WAT     H121657  -4.247   9.953   3.652 -2.5138 -0.0667  0.8677
 4963WAT     H221658  -4.208  10.023   3.780 -1.8611  1.3328 -0.0727
 4963WAT    EPW21659  -4.234   9.951   3.738 -0.8082  0.4864  0.6660
 4964WAT      O21660   1.328   3.398   3.437 -0.3926  0.1707 -0.1089
 4964WAT     H121661   1.375   3.333   3.489  0.6328  0.3936 -0.7202
 4964WAT     H221662   1.252   3.352   3.402 -2.2415  0.4746  3.0769
 4964WAT    EPW21663   1.324   3.383   3.440 -0.5012  0.2402  0.2307
 4965WAT      O21664   4.790   6.105   1.863 -0.1699 -0.4894  0.1578
 4965WAT     H121665   4.872   6.100   1.912 -0.4808  1.0090  0.8746
 4965WAT     H221666   4.726   6.138   1.925 -1.6161 -2.5629 -0.0965
 4965WAT    EPW21667   4.792   6.108   1.877 -0.4015 -0.5653  0.2189
 4966WAT      O21668  -3.647   9.902   5.918 -0.6267 -0.3706  0.3488
 4966WAT     H121669  -3.721   9.960   5.897  0.3936  0.7128 -0.4481
 4966WAT     H221670  -3.667   9.867   6.004 -1.0740  1.5972  1.1056
 4966WAT    EPW21671  -3.659   9.905   5.926 -0.5510  0.0315  0.3436
 4967WAT      O21672   8.558   1.341   1.719 -0.0041  0.3866  0.6444
 4967WAT     H121673   8.649   1.319   1.700 -0.4799  1.0200 -3.0941
 4967WAT     H221674   8.561   1.432   1.749  0.6536 -0.1141  2.2400
 4967WAT    EPW21675   8.570   1.350   1.721  0.0196  0.4041  0.3617
 4968WAT      O21676  -0.429   8.508   5.439 -0.1764  0.0549  0.3381
 4968WAT     H121677  -0.410   8.415   5.449 -0.4994 -0.0855 -0.2673
 4968WAT     H221678  -0.402   8.548   5.522 -0.6564 -0.6762  0.8545
 4968WAT    EPW21679  -0.423   8.501   5.451 -0.2823 -0.0601  0.3264
 4969WAT      O21680   2.345   0.891   5.394  0.8645 -0.7997  0.3545
 4969WAT     H121681   2.326   0.974   5.348  0.8839 -1.1135 -0.2239
 4969WAT     H221682   2.303   0.902   5.479 -2.4627 -1.6003 -0.9805
 4969WAT    EPW21683   2.337   0.904   5.399  0.4283 -0.9467  0.1020
 4970WAT      O21684   3.699   6.193   3.498 -0.5137  0.4870  0.2101
 4970WAT     H121685   3.788   6.177   3.529 -0.4407 -0.6159 -0.5289
 4970WAT     H221686   3.677   6.280   3.531 -0.5953 -0.7128  3.7142
 4970WAT    EPW21687   3.708   6.203   3.507 -0.5147  0.1833  0.5747
 4971WAT      O21688  -2.888   5.131   4.903 -0.1263  0.0036  0.4013
 4971WAT     H121689  -2.822   5.187   4.944 -1.2725  1.3448  0.5004
 4971WAT     H221690  -2.884   5.049   4.952  3.5649 -1.2052 -1.5134
 4971WAT    EPW21691  -2.879   5.128   4.915  0.2093  0.0212  0.1619
 4972WAT      O21692   5.154   5.297   0.355 -0.1448  0.8907  0.1290
 4972WAT     H121693   5.155   5.315   0.449 -0.6660 -0.6567  0.4678
 4972WAT     H221694   5.154   5.201   0.350  3.4247  0.8505 -1.5115
 4972WAT    EPW21695   5.154   5.287   0.367  0.2575  0.6814 -0.0427
 4973WAT      O21696  -1.340   8.319   2.774  0.2359 -0.4970 -0.6379
 4973WAT     H121697  -1.381   8.316   2.687  0.6582 -1.6668 -0.8209
 4973WAT     H221698  -1.377   8.244   2.820 -0.6430  0.6152  0.5266
 4973WAT    EPW21699  -1.350   8.308   2.768  0.1757 -0.5045 -0.5084
 4974WAT      O21700   5.832   9.526   0.785  0.0184  0.1482  0.0253
 4974WAT     H121701   5.820   9.603   0.730 -0.9755 -0.2069 -0.2648
 4974WAT     H221702   5.906   9.549   0.842  0.6062  0.7847 -0.9641
 4974WAT    EPW21703   5.840   9.539   0.785 -0.0353  0.1850 -0.1434
 4975WAT      O21704  -3.796   9.346   8.184  0.0799 -0.6632  0.4925
 4975WAT     H121705  -3.709   9.381   8.165  0.1255 -0.1329  1.5980
 4975WAT     H221706  -3.806   9.273   8.123 -0.6374  2.0776 -2.9790
 4975WAT    EPW21707  -3.786   9.341   8.173 -0.0087 -0.2317  0.1802
 4976WAT      O21708   2.491   5.128   5.230  0.0955  0.3052 -0.3149
 4976WAT     H121709   2.428   5.078   5.177 -0.5445  0.5831  0.1662
 4976WAT     H221710   2.441   5.203   5.261  1.0599  1.2923 -1.0755
 4976WAT    EPW21711   2.476   5.131   5.227  0.1383  0.4721 -0.3517
 4977WAT      O21712   7.958   2.579   3.381 -0.2298  0.4489 -0.9050
 4977WAT     H121713   7.993   2.595   3.294  3.1913 -0.6847  0.0918
 4977WAT     H221714   8.023   2.523   3.423 -1.0642  1.9165  2.7830
 4977WAT    EPW21715   7.971   2.574   3.375  0.1111  0.4930 -0.2871
 4978WAT      O21716   0.702   2.201   5.402  0.4813  0.7135  0.9476
 4978WAT     H121717   0.794   2.185   5.384 -0.5909 -2.9662 -3.2593
 4978WAT     H221718   0.687   2.292   5.376  2.4799  0.5110 -1.1673
 4978WAT    EPW21719   0.712   2.211   5.396  0.6035  0.2016  0.1140
 4979WAT      O21720  -2.988   8.769   2.455 -0.1919  0.6861 -0.3249
 4979WAT     H121721  -2.932   8.815   2.393 -2.3235 -0.0906 -3.0077
 4979WAT     H221722  -2.973   8.676   2.436  0.0877  0.3618  1.3140
 4979WAT    EPW21723  -2.979   8.763   2.445 -0.4361  0.5407 -0.4625
 4980WAT      O21724   2.314   4.080   7.128 -0.2286  0.6995 -0.0002
 4980WAT     H121725   2.381   4.146   7.145  1.7771 -0.8453 -1.3998
 4980WAT     H221726   2.261   4.117   7.058  2.1855  0.1177 -2.3046
 4980WAT    EPW21727   2.316   4.093   7.121  0.3544  0.4191 -0.4888
 4981WAT      O21728   0.576   5.349   8.143  0.8641  0.0905 -0.3222
 4981WAT     H121729   0.578   5.265   8.097  1.6250 -0.1644  0.1427
 4981WAT     H221730   0.484   5.374   8.143  0.7492 -0.2806 -1.2882
 4981WAT    EPW21731   0.564   5.341   8.137  0.9493  0.0079 -0.3881
 4982WAT      O21732  -5.682   8.431   7.789 -0.0112  0.5036 -0.4021
 4982WAT     H121733  -5.736   8.496   7.743 -1.0604  0.9840  1.3856
 4982WAT     H221734  -5.624   8.483   7.844 -0.6471 -0.0251  0.8203
 4982WAT    EPW21735  -5.682   8.447   7.790 -0.2334  0.4973 -0.0050
 4983WAT      O21736   2.913   9.197   3.677 -1.0035  0.4082  0.4878
 4983WAT     H121737   2.921   9.233   3.765 -1.6109  0.0992  0.6764
 4983WAT     H221738   2.978   9.127   3.674 -0.1457  1.1973  0.2764
 4983WAT    EPW21739   2.922   9.192   3.688 -0.9704  0.4716  0.4848
 4984WAT      O21740   3.748   0.702   3.544  0.6496 -0.0187  0.5372
 4984WAT     H121741   3.812   0.761   3.584  0.8688 -0.8089  1.3648
 4984WAT     H221742   3.800   0.629   3.511  0.4140  0.3708 -0.7630
 4984WAT    EPW21743   3.763   0.700   3.545  0.6474 -0.0715  0.4749
 4985WAT      O21744  -5.367   5.710   8.375 -0.0073  0.0096  0.0462
 4985WAT     H121745  -5.386   5.618   8.393  0.2029  0.2925  1.8776
 4985WAT     H221746  -5.423   5.732   8.301 -0.2863 -1.5023 -0.2279
 4985WAT    EPW21747  -5.377   5.701   8.367 -0.0162 -0.1526  0.2513
 4986WAT      O21748  -1.805   1.591   6.226  0.2568  0.8088  0.3071
 4986WAT     H121749  -1.771   1.513   6.270 -3.1605 -0.6039  0.7624
 4986WAT     H221750  -1.748   1.662   6.256  1.8666 -1.0612  2.0170
 4986WAT    EPW21751  -1.793   1.590   6.235  0.0184  0.3759  0.5927
 4987WAT      O21752  -1.744   0.365   2.753  0.4740 -0.0504  0.5426
 4987WAT     H121753  -1.666   0.315   2.731  0.4295  0.4781 -0.9459
 4987WAT     H221754  -1.744   0.439   2.692 -0.2442  0.9668  1.7007
 4987WAT    EPW21755  -1.734   0.368   2.742  0.3734  0.1534  0.4990
 4988WAT      O21756  -0.278   6.144   5.842 -0.4297 -0.5047  0.4182
 4988WAT     H121757  -0.207   6.203   5.869 -0.5628 -0.7473  1.3395
 4988WAT     H221758  -0.343   6.201   5.803  0.2326 -0.2687 -0.3677
 4988WAT    EPW21759  -0.277   6.159   5.841 -0.3599 -0.5057  0.4361
 4989WAT      O21760   3.107   2.911   4.657  0.2406  0.4157  0.3773
 4989WAT     H121761   3.102   2.945   4.747 -0.9560 -2.7094  1.6164
 4989WAT     H221762   3.019   2.924   4.622  0.0497 -0.4648  0.5168
 4989WAT    EPW21763   3.095   2.917   4.665  0.0576 -0.1127  0.5589
 4990WAT      O21764   5.513   5.161   2.752  0.0500 -0.2755 -0.3925
 4990WAT     H121765   5.608   5.171   2.741  0.4963 -1.3144  1.8810
 4990WAT     H221766   5.502   5.140   2.845 -2.1903 -2.7975 -1.1167
 4990WAT    EPW21767   5.524   5.160   2.763 -0.1869 -0.7453 -0.1881
 4991WAT      O21768  -0.889   0.912   5.333  0.0893 -0.1322  0.5414
 4991WAT     H121769  -0.884   0.834   5.278 -2.4156 -1.1271  1.5348
 4991WAT     H221770  -0.950   0.970   5.287 -0.0834  0.1064  1.0595
 4991WAT    EPW21771  -0.897   0.910   5.319 -0.2638 -0.2319  0.7408
 4992WAT      O21772   1.617   6.809   6.875 -0.0956 -0.0279 -0.7334
 4992WAT     H121773   1.701   6.771   6.850  0.4999  1.3641 -0.9032
 4992WAT     H221774   1.618   6.807   6.971 -0.2041 -0.6911 -0.7392
 4992WAT    EPW21775   1.628   6.804   6.885 -0.0314  0.0682 -0.7565
 4993WAT      O21776   2.603   9.365   1.261  0.3661  0.4151 -0.3914
 4993WAT     H121777   2.590   9.381   1.167  1.9725  0.3435 -0.6614
 4993WAT     H221778   2.525   9.318   1.288 -0.5161  1.1722 -1.5085
 4993WAT    EPW21779   2.591   9.361   1.252  0.4616  0.5054 -0.5743
 4994WAT      O21780  -3.104   0.326   8.278 -0.3068 -0.5816 -0.3871
 4994WAT     H121781  -3.106   0.305   8.372 -0.3961 -0.6646 -0.4066
 4994WAT     H221782  -3.109   0.421   8.275  0.2630 -0.5471 -0.2927
 4994WAT    EPW21783  -3.105   0.336   8.290 -0.2433 -0.5880 -0.3777
 4995WAT      O21784   2.866   8.403   4.472  0.3320 -0.1044 -0.4643
 4995WAT     H121785   2.802   8.375   4.406 -1.1863 -1.0104  1.3016
 4995WAT     H221786   2.927   8.329   4.479  0.7519  0.1730 -1.1452
 4995WAT    EPW21787   2.866   8.389   4.464  0.1872 -0.1874 -0.3214
 4996WAT      O21788   5.814   0.729   2.544 -0.9176  0.5103 -0.2002
 4996WAT     H121789   5.857   0.815   2.553 -1.8188  1.0474 -0.8127
 4996WAT     H221790   5.855   0.675   2.611 -0.7179  1.5851  0.5818
 4996WAT    EPW21791   5.825   0.733   2.554 -1.0099  0.7229 -0.1780
 4997WAT      O21792  -1.350  10.058   1.650 -0.0039  0.5868  0.0188
 4997WAT     H121793  -1.349   9.986   1.587 -0.9675 -0.0078  0.6686
 4997WAT     H221794  -1.435  10.052   1.693  0.8036  0.6948  1.7095
 4997WAT    EPW21795  -1.361  10.048   1.648 -0.0245  0.5221  0.3275
 4998WAT      O21796  -2.188   7.246   4.778  0.5318  0.2319 -0.3625
 4998WAT     H121797  -2.271   7.287   4.753  0.2713  0.2487  0.5089
 4998WAT     H221798  -2.212   7.157   4.804  1.0656 -0.4448 -2.0185
 4998WAT    EPW21799  -2.202   7.240   4.778  0.5678  0.1447 -0.4661
 4999WAT      O21800   3.988   0.404   8.717 -0.1812  0.2603 -0.2360
 4999WAT     H121801   3.901   0.443   8.712  0.0766  1.1430  1.6400
 4999WAT     H221802   3.972   0.310   8.711 -1.2542  0.4098  0.0475
 4999WAT    EPW21803   3.975   0.397   8.715 -0.2887  0.3965  0.0486
 5000WAT      O21804  -2.698   5.764   4.671 -0.5957 -0.1353  0.3657
 5000WAT     H121805  -2.695   5.707   4.594  0.2231 -1.4338  1.3151
 5000WAT     H221806  -2.758   5.835   4.647 -2.6658 -2.0365 -0.4413
 5000WAT    EPW21807  -2.706   5.766   4.658 -0.7608 -0.5574  0.3843
 5001WAT      O21808   5.114   3.921   2.497 -0.0046  0.4723 -0.2788
 5001WAT     H121809   5.060   3.879   2.430 -0.5755 -0.0287  0.4833
 5001WAT     H221810   5.051   3.965   2.554  0.5531  2.3938 -1.0358
 5001WAT    EPW21811   5.099   3.922   2.496 -0.0064  0.6597 -0.2780
 5002WAT      O21812  -0.882   0.310   4.268  0.0825 -0.2871  0.6517
 5002WAT     H121813  -0.868   0.222   4.303  0.3944 -1.0502 -1.2444
 5002WAT     H221814  -0.852   0.369   4.337  1.7336 -1.6985  1.2107
 5002WAT    EPW21815  -0.876   0.306   4.281  0.3414 -0.5739  0.4754
 5003WAT      O21816  -1.543   5.267   7.596 -0.1628  0.3002  0.5013
 5003WAT     H121817  -1.602   5.299   7.664 -0.5438 -2.2459  1.4641
 5003WAT     H221818  -1.497   5.194   7.636  0.1124 -0.8508 -1.7487
 5003WAT    EPW21819  -1.545   5.262   7.610 -0.1768 -0.1874  0.3316
 5004WAT      O21820  -3.461   1.430   5.398 -0.1806 -0.5418 -0.5699
 5004WAT     H121821  -3.538   1.446   5.343 -0.5042 -1.1473 -0.3049
 5004WAT     H221822  -3.481   1.348   5.443 -1.0832  1.1401  2.3800
 5004WAT    EPW21823  -3.474   1.421   5.397 -0.3424 -0.3999 -0.1459
 5005WAT      O21824   4.683   6.366   2.353  0.3462 -0.1965 -0.2337
 5005WAT     H121825   4.596   6.344   2.320 -0.2337 -0.7362  1.5309
 5005WAT     H221826   4.734   6.286   2.343  1.6728  0.9188 -4.0892
 5005WAT    EPW21827   4.678   6.353   2.347  0.4447 -0.1206 -0.5095
 5006WAT      O21828   7.101   5.737   2.837  0.4303  0.4792 -0.0010
 5006WAT     H121829   7.118   5.664   2.896 -0.7150 -0.0348 -0.2711
 5006WAT     H221830   7.140   5.813   2.880  0.9121 -0.1464  0.6874
 5006WAT    EPW21831   7.108   5.737   2.850  0.3426  0.3288  0.0541
 5007WAT      O21832   3.341   3.742   2.569  0.0581  0.1634 -0.5517
 5007WAT     H121833   3.393   3.775   2.496 -1.8231  0.4145 -1.8368
 5007WAT     H221834   3.310   3.656   2.540 -0.2041 -0.0068  0.2019
 5007WAT    EPW21835   3.344   3.735   2.555 -0.2246  0.1742 -0.6218
 5008WAT      O21836  -1.946   3.566   7.011 -0.2369  0.8019  0.2281
 5008WAT     H121837  -1.980   3.526   6.931  1.0111  1.7840 -0.8371
 5008WAT     H221838  -1.868   3.515   7.032 -1.5815 -0.6719  1.9685
 5008WAT    EPW21839  -1.940   3.554   7.004 -0.2497  0.7371  0.3171
 5009WAT      O21840  -4.015   2.621   6.125  0.1907  0.3484  0.4662
 5009WAT     H121841  -4.035   2.711   6.152 -4.2375 -0.7770  1.7178
 5009WAT     H221842  -3.980   2.630   6.037  0.7759  3.3217  0.8870
 5009WAT    EPW21843  -4.013   2.634   6.117 -0.3161  0.5922  0.6866
 5010WAT      O21844   1.624   1.306   2.406 -0.1801  0.3326 -0.6458
 5010WAT     H121845   1.557   1.313   2.474  1.1790 -0.2983  0.8298
 5010WAT     H221846   1.593   1.361   2.334 -1.0510  2.0635  1.0002
 5010WAT    EPW21847   1.611   1.314   2.405 -0.1158  0.4777 -0.2341
 5011WAT      O21848  -0.916   1.486   5.562  0.0167 -0.1152  0.0140
 5011WAT     H121849  -0.937   1.521   5.649 -1.8682  0.3035 -0.5609
 5011WAT     H221850  -0.897   1.393   5.579 -2.7058 -0.6495  0.6669
 5011WAT    EPW21851  -0.916   1.478   5.576 -0.5910 -0.1304  0.0243
 5012WAT      O21852  -2.363   8.816   7.708 -0.1708  0.2830  0.4362
 5012WAT     H121853  -2.372   8.810   7.803  0.5188 -2.7726  0.3989
 5012WAT     H221854  -2.440   8.773   7.673  0.4259 -0.1835 -0.3478
 5012WAT    EPW21855  -2.374   8.810   7.716 -0.0012 -0.1817  0.3281
 5013WAT      O21856  -0.104   0.192   1.893 -0.4740 -0.1154 -0.3058
 5013WAT     H121857  -0.022   0.176   1.848 -1.4984  0.3443 -2.4559
 5013WAT     H221858  -0.111   0.287   1.900 -0.1765 -0.1771  1.2007
 5013WAT    EPW21859  -0.094   0.202   1.888 -0.5699 -0.0629 -0.3906
 5014WAT      O21860   6.035   2.776   0.103 -0.2303 -0.0453 -0.4418
 5014WAT     H121861   6.087   2.843   0.148 -1.2402 -1.3541  2.9957
 5014WAT     H221862   6.101   2.715   0.069  0.5936  0.7699 -0.3578
 5014WAT    EPW21863   6.051   2.776   0.104 -0.2549 -0.1105  0.0227
 5015WAT      O21864  -0.502   2.610   7.531 -0.0615 -0.5316 -0.0929
 5015WAT     H121865  -0.517   2.704   7.520  2.0772 -0.0589  0.5591
 5015WAT     H221866  -0.457   2.583   7.451 -0.5070 -0.9900 -0.1975
 5015WAT    EPW21867  -0.498   2.619   7.519  0.1618 -0.5298 -0.0207
 5016WAT      O21868  -4.435   4.080   6.850 -0.8824  0.3625 -0.0793
 5016WAT     H121869  -4.400   4.071   6.939  0.3061  1.2293 -0.4294
 5016WAT     H221870  -4.423   4.172   6.829 -0.5198  0.0408 -1.3805
 5016WAT    EPW21871  -4.429   4.091   6.859 -0.6781  0.4344 -0.2971
 5017WAT      O21872  -1.422   0.471   3.274 -0.2147  0.5868  0.1426
 5017WAT     H121873  -1.354   0.403   3.278 -0.5364  0.2812  0.5862
 5017WAT     H221874  -1.414   0.508   3.187 -1.8104 -1.8616 -1.1710
 5017WAT    EPW21875  -1.412   0.467   3.263 -0.4676  0.2236  0.0278
 5018WAT      O21876   2.529   9.959   3.112  0.0072  1.0109  0.3923
 5018WAT     H121877   2.624   9.956   3.125  0.0467  1.4751  0.2229
 5018WAT     H221878   2.493   9.955   3.201  0.2081  1.5982  0.5006
 5018WAT    EPW21879   2.536   9.958   3.126  0.0390  1.1497  0.3841
 5019WAT      O21880  -0.956   3.592   5.480 -0.4811 -0.8140  0.0576
 5019WAT     H121881  -0.913   3.523   5.430  0.6147  0.9821 -1.6382
 5019WAT     H221882  -0.957   3.559   5.570  4.6446 -1.0907  0.3464
 5019WAT    EPW21883  -0.950   3.579   5.485  0.3395 -0.6135 -0.1283
 5020WAT      O21884  -0.136   3.074   1.853  0.0736 -0.3822 -0.0974
 5020WAT     H121885  -0.157   3.021   1.931  1.0040 -0.3088  0.2145
 5020WAT     H221886  -0.180   3.157   1.868  0.9947 -0.0297  0.8123
 5020WAT    EPW21887  -0.144   3.078   1.865  0.3178 -0.3259  0.0637
 5021WAT      O21888  -0.188   1.737   5.602 -0.3201  0.2316  0.0086
 5021WAT     H121889  -0.169   1.816   5.653  0.7355  0.5090 -0.7753
 5021WAT     H221890  -0.157   1.758   5.514 -1.7066 -0.3972 -0.6490
 5021WAT    EPW21891  -0.181   1.750   5.597 -0.3638  0.1853 -0.1817
 5022WAT      O21892   5.769   3.514   0.759  0.1507 -0.3594 -0.4469
 5022WAT     H121893   5.700   3.450   0.744 -2.0310  1.0058  2.6502
 5022WAT     H221894   5.763   3.535   0.853  3.8474  0.9624 -0.3111
 5022WAT    EPW21895   5.759   3.509   0.770  0.3507 -0.0051 -0.0205
 5023WAT      O21896  -5.965   9.963   7.665 -0.4785  0.0772 -0.1402
 5023WAT     H121897  -5.938   9.990   7.752 -0.9409 -1.9942  0.6971
 5023WAT     H221898  -5.898  10.000   7.607 -0.6459  2.2519  0.9248
 5023WAT    EPW21899  -5.953   9.972   7.668 -0.5615  0.0911  0.1109
 5024WAT      O21900  -1.211   1.010   5.887 -0.1595 -0.1177  0.4354
 5024WAT     H121901  -1.226   1.101   5.862  1.6046  0.2660  0.6499
 5024WAT     H221902  -1.274   0.994   5.958 -0.0443  1.1542  0.8519
 5024WAT    EPW21903  -1.221   1.020   5.893  0.0885  0.1006  0.5186
 5025WAT      O21904  -0.922   5.994   3.553  0.1740 -0.1974  0.1914
 5025WAT     H121905  -0.924   6.015   3.647 -0.8389  0.6771 -0.0029
 5025WAT     H221906  -0.874   6.066   3.513 -0.3211 -0.0133 -0.0802
 5025WAT    EPW21907  -0.916   6.006   3.560 -0.0249 -0.0577  0.1299
 5026WAT      O21908   4.025   8.935   6.068  0.2606  0.2970  0.1263
 5026WAT     H121909   4.018   8.841   6.084 -0.2980  0.0934 -1.1290
 5026WAT     H221910   3.949   8.972   6.112 -0.5243 -0.0818 -0.8599
 5026WAT    EPW21911   4.014   8.927   6.076  0.0834  0.2203 -0.1695
 5027WAT      O21912  -5.248   8.869   6.178  0.6134 -0.2950  0.4214
 5027WAT     H121913  -5.258   8.938   6.243 -4.0513  0.7957 -1.0411
 5027WAT     H221914  -5.193   8.908   6.110 -0.2214  1.2490  0.5909
 5027WAT    EPW21915  -5.242   8.883   6.177 -0.1118  0.0525  0.2508
 5028WAT      O21916   1.013   8.816   8.343 -0.2780  0.7883 -0.2786
 5028WAT     H121917   1.103   8.824   8.310 -0.5940  0.9169 -1.1266
 5028WAT     H221918   0.966   8.770   8.274 -0.5565 -0.5523  0.7584
 5028WAT    EPW21919   1.019   8.811   8.330 -0.3564  0.6285 -0.2537
 5029WAT      O21920   2.644   6.378   6.353 -0.2255  0.0001 -0.3523
 5029WAT     H121921   2.708   6.397   6.284  1.0141  2.4534  1.2931
 5029WAT     H221922   2.697   6.370   6.432 -1.6533 -2.2282  0.4603
 5029WAT    EPW21923   2.660   6.380   6.354 -0.2503  0.0296 -0.0281
 5030WAT      O21924   5.984   2.884   0.542  0.0104  0.0652 -0.3524
 5030WAT     H121925   6.031   2.963   0.568 -0.2116 -0.2818  1.2533
 5030WAT     H221926   6.032   2.813   0.584 -1.6098 -0.3388  0.9483
 5030WAT    EPW21927   5.996   2.885   0.551 -0.2325 -0.0340  0.0310
 5031WAT      O21928  -0.261   4.040   5.887 -0.8400  0.3070  0.0189
 5031WAT     H121929  -0.250   3.953   5.925 -0.8983 -0.2443 -1.1629
 5031WAT     H221930  -0.325   4.027   5.817  0.1436  1.0067 -1.0503
 5031WAT    EPW21931  -0.268   4.027   5.883 -0.7180  0.3266 -0.2780
 5032WAT      O21932   1.421   2.225   7.330  0.5633 -0.9410 -0.3590
 5032WAT     H121933   1.435   2.276   7.250 -0.6994 -2.2466 -1.4649
 5032WAT     H221934   1.367   2.283   7.385 -1.2976 -1.1975 -1.8078
 5032WAT    EPW21935   1.416   2.240   7.327  0.1513 -1.1470 -0.6962
 5033WAT      O21936  -3.741   2.175   7.261  0.1458 -0.2524  0.4098
 5033WAT     H121937  -3.817   2.234   7.267  0.0754 -0.2245 -0.6655
 5033WAT     H221938  -3.666   2.234   7.251  0.3321 -0.2796  1.4815
 5033WAT    EPW21939  -3.741   2.191   7.261  0.1611 -0.2522  0.4094
 5034WAT      O21940   9.216   3.045   0.257 -0.1169 -0.1077  0.2285
 5034WAT     H121941   9.146   3.067   0.196  1.0558 -1.8881 -1.8902
 5034WAT     H221942   9.187   3.082   0.341 -1.8010  2.4652 -1.3397
 5034WAT    EPW21943   9.203   3.053   0.260 -0.1841 -0.0032 -0.2578
 5035WAT      O21944   1.000   8.446   0.829  0.7468 -0.3366 -0.2183
 5035WAT     H121945   1.079   8.478   0.873  0.8658  0.0435 -0.7006
 5035WAT     H221946   0.976   8.516   0.768  0.7280 -0.9538 -0.9346
 5035WAT    EPW21947   1.007   8.459   0.827  0.7600 -0.3681 -0.3764
 5036WAT      O21948   7.209   2.399   2.237 -0.7322  0.0768 -0.8475
 5036WAT     H121949   7.259   2.372   2.315  0.9034 -0.5828 -2.0781
 5036WAT     H221950   7.119   2.374   2.257 -0.1554 -1.1688  0.3459
 5036WAT    EPW21951   7.204   2.392   2.250 -0.4404 -0.1745 -0.8523
 5037WAT      O21952   7.337   4.960   1.546 -0.0512  0.6325  1.0888
 5037WAT     H121953   7.267   5.014   1.510 -0.4748 -0.7788 -0.3016
 5037WAT     H221954   7.400   4.951   1.474  0.7022  0.4153  1.7562
 5037WAT    EPW21955   7.336   4.966   1.532 -0.0076  0.4177  0.9934
 5038WAT      O21956   1.738   9.461   6.671 -0.1285  0.1716 -0.5188
 5038WAT     H121957   1.688   9.501   6.742  0.1070  1.0384 -0.8309
 5038WAT     H221958   1.680   9.392   6.637 -0.6042  0.3480 -0.0763
 5038WAT    EPW21959   1.724   9.457   6.676 -0.1602  0.3095 -0.5016
 5039WAT      O21960   5.060   0.788   6.326 -0.5514 -0.3072 -0.2037
 5039WAT     H121961   5.061   0.850   6.399 -1.1303  0.8105 -1.1133
 5039WAT     H221962   4.967   0.780   6.303 -0.2650  0.7916 -1.9652
 5039WAT    EPW21963   5.048   0.795   6.332 -0.5901 -0.0149 -0.5558
 5040WAT      O21964   2.028   4.112   5.768  0.2309  0.0176 -0.0465
 5040WAT     H121965   2.010   4.022   5.794  2.4342 -0.1228  1.2843
 5040WAT     H221966   1.949   4.160   5.792  0.1068 -1.0716  1.9564
 5040WAT    EPW21967   2.015   4.106   5.775  0.5051 -0.1445  0.3932
 5041WAT      O21968   5.436   3.946   0.632 -0.8648 -0.5351 -0.0921
 5041WAT     H121969   5.350   3.984   0.650 -1.1744 -1.5588  0.7492
 5041WAT     H221970   5.425   3.899   0.549 -1.5442 -1.8355  0.7097
 5041WAT    EPW21971   5.423   3.944   0.623 -0.9954 -0.8415  0.1246
 5042WAT      O21972   3.224   3.992   5.357  0.0948 -0.1293  0.4019
 5042WAT     H121973   3.262   3.933   5.422  0.3997  0.0441  0.3822
 5042WAT     H221974   3.209   4.074   5.405 -1.2349 -0.5087  0.6863
 5042WAT    EPW21975   3.227   3.995   5.372 -0.0404 -0.1564  0.4368
 5043WAT      O21976   4.450   0.750   5.146 -0.2197 -0.5323 -0.2563
 5043WAT     H121977   4.487   0.815   5.205 -0.2944 -1.4743  0.8542
 5043WAT     H221978   4.394   0.695   5.201 -1.1014 -0.8276 -1.3899
 5043WAT    EPW21979   4.447   0.751   5.161 -0.3459 -0.6956 -0.2592
 5044WAT      O21980   1.112   3.075   7.123  0.5857 -0.4682  0.3379
 5044WAT     H121981   1.132   3.126   7.044  1.9552 -0.3782  0.7295
 5044WAT     H221982   1.160   2.993   7.113 -0.5908 -1.1812  0.3129
 5044WAT    EPW21983   1.121   3.071   7.111  0.6111 -0.5504  0.3865
 5045WAT      O21984   4.342   3.659   6.651 -0.0797 -0.2831  0.0516
 5045WAT     H121985   4.337   3.705   6.567  1.1256  0.1873  0.2242
 5045WAT     H221986   4.258   3.678   6.694 -0.1912  0.5156 -0.5057
 5045WAT    EPW21987   4.330   3.667   6.645  0.0646 -0.1158  0.0007
 5046WAT      O21988   2.532   7.588   6.003 -0.7453 -0.2587  0.0941
 5046WAT     H121989   2.589   7.518   6.034  0.6582  0.8865  0.2131
 5046WAT     H221990   2.590   7.646   5.953 -0.4664  3.6723  4.2344
 5046WAT    EPW21991   2.547   7.587   6.000 -0.5234  0.4108  0.6559
 5047WAT      O21992   6.217   3.723   5.466  0.2551  0.1948 -0.7391
 5047WAT     H121993   6.271   3.651   5.498 -1.8400  0.4218  4.2827
 5047WAT     H221994   6.179   3.690   5.384  0.4241 -3.9493  0.6228
 5047WAT    EPW21995   6.219   3.709   5.459  0.0010 -0.3219  0.1028
 5048WAT      O21996   2.111   4.423   5.004  0.7621 -0.7597 -0.7769
 5048WAT     H121997   2.147   4.360   5.067  0.1928 -2.0275 -1.6888
 5048WAT     H221998   2.046   4.471   5.054  0.8424 -1.2377 -0.1955
 5048WAT    EPW21999   2.107   4.421   5.019  0.6975 -0.9899 -0.8206
 5049WAT      O22000   2.689  10.174   1.672 -0.8000  0.1270 -0.0202
 5049WAT     H122001   2.693  10.188   1.578 -1.4590 -0.8407 -0.2092
 5049WAT     H222002   2.647  10.089   1.682 -1.1432  0.4095  1.1612
 5049WAT    EPW22003   2.684  10.165   1.661 -0.9322  0.0362  0.1107
 5050WAT      O22004   0.308   0.899   7.298 -0.2814 -0.3283 -0.2292
 5050WAT     H122005   0.366   0.888   7.374 -0.2226  0.7494 -0.0993
 5050WAT     H222006   0.254   0.820   7.297 -0.3667 -0.3085  1.0066
 5050WAT    EPW22007   0.309   0.887   7.308 -0.2849 -0.1836 -0.0491
 5051WAT      O22008   4.392   1.182   5.238  0.3273 -0.3779  0.8195
 5051WAT     H122009   4.461   1.249   5.237 -0.9056  1.0021 -1.4708
 5051WAT     H222010   4.346   1.194   5.154 -0.6532 -3.4117  0.8239
 5051WAT    EPW22011   4.395   1.193   5.227  0.0353 -0.5960  0.5181
 5052WAT      O22012  -4.119   9.616   6.824 -0.8142 -0.1583 -0.7429
 5052WAT     H122013  -4.064   9.630   6.747  2.5623  1.4829  1.7053
 5052WAT     H222014  -4.182   9.688   6.821  0.0069  0.5572 -1.3841
 5052WAT    EPW22015  -4.120   9.628   6.813 -0.2606  0.1521 -0.5045
 5053WAT      O22016  -1.825   3.244   6.302  0.2597  0.9710 -0.1309
 5053WAT     H122017  -1.856   3.313   6.243 -0.4633 -1.7611 -3.2796
 5053WAT     H222018  -1.845   3.162   6.255  0.4916 -1.4526  3.5867
 5053WAT    EPW22019  -1.832   3.242   6.288  0.1950  0.2910 -0.0560
 5054WAT      O22020  -0.868   3.735   0.713  0.0450  0.4514  0.0179
 5054WAT     H122021  -0.925   3.687   0.773 -0.4740  2.7709  1.4897
 5054WAT     H222022  -0.928   3.778   0.652  0.0827  3.0455  1.6771
 5054WAT    EPW22023  -0.883   3.734   0.713 -0.0185  1.0995  0.4309
 5055WAT      O22024  -2.720   9.393   2.981  0.7352 -0.1141  0.4131
 5055WAT     H122025  -2.636   9.434   2.998 -1.1896  2.7123  5.1349
 5055WAT     H222026  -2.713   9.306   3.020  1.8719 -0.6512 -0.8874
 5055WAT    EPW22027  -2.708   9.387   2.988  0.6311  0.1874  0.8644
 5056WAT      O22028  -2.490   0.749   5.640  0.4415 -0.9428  0.1890
 5056WAT     H122029  -2.544   0.772   5.564  0.3673 -2.0013 -0.0843
 5056WAT     H222030  -2.538   0.681   5.685 -0.8835  1.5078  2.8079
 5056WAT    EPW22031  -2.503   0.743   5.636  0.2569 -0.7592  0.4983
 5057WAT      O22032   7.229   1.805   0.125 -0.1574 -0.3923 -0.3537
 5057WAT     H122033   7.250   1.853   0.206 -0.0965 -0.1983 -0.4828
 5057WAT     H222034   7.134   1.803   0.122 -0.2451  1.9159 -1.6044
 5057WAT    EPW22035   7.219   1.811   0.135 -0.1609 -0.0623 -0.5357
 5058WAT      O22036  -4.420   8.404   5.041  0.1067 -0.8843  0.2635
 5058WAT     H122037  -4.499   8.441   5.080  0.8506  0.1702  0.8364
 5058WAT     H222038  -4.408   8.321   5.087  0.0111 -0.4636  1.0772
 5058WAT    EPW22039  -4.429   8.398   5.052  0.1922 -0.6900  0.4463
 5059WAT      O22040  -1.084   1.166   2.352  0.7484 -0.5283 -0.5953
 5059WAT     H122041  -1.113   1.075   2.358 -0.8613 -0.0319 -0.3468
 5059WAT     H222042  -1.012   1.173   2.415  0.3247 -1.4216 -0.0046
 5059WAT    EPW22043  -1.078   1.155   2.361  0.4802 -0.5806 -0.4846
 5060WAT      O22044  -1.401   7.281   5.570  0.5017 -0.1454 -0.5737
 5060WAT     H122045  -1.397   7.350   5.505  0.3694  0.2475 -0.1683
 5060WAT     H222046  -1.491   7.283   5.602  0.6803 -0.0444 -0.0665
 5060WAT    EPW22047  -1.412   7.290   5.566  0.5078 -0.0803 -0.4532
 5061WAT      O22048  -0.741   9.567   0.997  0.2579 -0.1818  0.0159
 5061WAT     H122049  -0.836   9.558   1.000  0.2578 -0.1868 -0.0091
 5061WAT     H222050  -0.708   9.477   0.987  0.2716 -0.2002  0.2175
 5061WAT    EPW22051  -0.749   9.554   0.996  0.2597 -0.1850  0.0392
 5062WAT      O22052   2.546   2.297   8.486  0.0649 -0.2405 -0.1608
 5062WAT     H122053   2.540   2.269   8.577 -1.5321  1.0920  0.1942
 5062WAT     H222054   2.585   2.384   8.489 -2.3827  0.9730 -0.4031
 5062WAT    EPW22055   2.550   2.304   8.498 -0.4686  0.0954 -0.1459
 5063WAT      O22056  -4.965   7.361   4.099 -0.4052  0.3598 -0.3120
 5063WAT     H122057  -4.934   7.446   4.129 -1.9817  1.1846 -0.9018
 5063WAT     H222058  -4.906   7.298   4.139 -0.3318  1.6113  1.6561
 5063WAT    EPW22059  -4.953   7.364   4.108 -0.6034  0.6337 -0.1304
 5064WAT      O22060  -4.059   0.623   7.488 -0.2489  0.4187 -0.5946
 5064WAT     H122061  -4.095   0.575   7.562 -1.8090  0.2140 -1.4401
 5064WAT     H222062  -4.014   0.557   7.436  0.3278  0.4550 -0.1483
 5064WAT    EPW22063  -4.058   0.608   7.491 -0.3786  0.3965 -0.6473
 5065WAT      O22064  -4.810  10.105   5.133  0.1998 -0.1729 -0.5284
 5065WAT     H122065  -4.836  10.019   5.100 -1.1014 -0.0937  0.2288
 5065WAT     H222066  -4.792  10.156   5.053  2.8689 -1.6248 -0.9785
 5065WAT    EPW22067  -4.811  10.101   5.118  0.3803 -0.3543 -0.4878
 5066WAT      O22068   4.257   5.130   3.276  0.0058 -0.6098 -0.1816
 5066WAT     H122069   4.170   5.102   3.307  0.6967 -2.3074  0.3276
 5066WAT     H222070   4.317   5.066   3.314  1.4513  0.3275 -0.8355
 5066WAT    EPW22071   4.253   5.118   3.285  0.2873 -0.7100 -0.2007
 5067WAT      O22072   2.420   4.959   1.704  0.2902 -0.0580 -0.3379
 5067WAT     H122073   2.380   4.875   1.682 -0.5403 -0.0026  0.8608
 5067WAT     H222074   2.448   4.995   1.620  2.1280 -2.2114 -0.7521
 5067WAT    EPW22075   2.418   4.953   1.690  0.4231 -0.3345 -0.2344
 5068WAT      O22076  -0.535   5.037   5.800  0.5143  0.4755  0.4431
 5068WAT     H122077  -0.630   5.046   5.814  0.4085  1.9737 -0.9039
 5068WAT     H222078  -0.502   5.002   5.883 -1.3062 -0.9163  0.6561
 5068WAT    EPW22079  -0.543   5.034   5.813  0.2602  0.4895  0.2935
 5069WAT      O22080  -4.803   6.245   8.949 -0.0967  0.2750 -0.2024
 5069WAT     H122081  -4.803   6.197   8.866  0.7512 -3.2016  1.6442
 5069WAT     H222082  -4.711   6.257   8.970 -0.2016 -1.1414  1.3330
 5069WAT    EPW22083  -4.791   6.240   8.941  0.0012 -0.3703  0.2441
 5070WAT      O22084  -0.647   7.556   5.263 -0.8649 -0.3054  0.6572
 5070WAT     H122085  -0.616   7.504   5.188 -2.9122  0.5308 -0.8560
 5070WAT     H222086  -0.567   7.579   5.310  0.8147  1.0964 -2.5768
 5070WAT    EPW22087  -0.632   7.552   5.259 -0.9134 -0.0103  0.0312
 5071WAT      O22088   2.216   6.260   1.045  0.2628  0.1245  0.1979
 5071WAT     H122089   2.295   6.312   1.061  0.4221  0.9272 -2.6976
 5071WAT     H222090   2.218   6.240   0.952 -2.9450  0.1543  0.0052
 5071WAT    EPW22091   2.227   6.264   1.035 -0.1394  0.2344 -0.2095
 5072WAT      O22092   2.496   8.280   4.553 -0.4304  0.6965  0.4643
 5072WAT     H122093   2.420   8.238   4.592 -0.8204  1.4071  0.4761
 5072WAT     H222094   2.550   8.308   4.627  0.1630 -0.3586  0.4530
 5072WAT    EPW22095   2.493   8.278   4.568 -0.4035  0.6509  0.4642
 5073WAT      O22096   2.879   8.220   1.859  0.5127 -0.3384  0.2053
 5073WAT     H122097   2.803   8.235   1.915  0.1101  1.7310 -0.8244
 5073WAT     H222098   2.948   8.274   1.897  0.6291  0.0187 -0.5035
 5073WAT    EPW22099   2.878   8.229   1.871  0.4750 -0.0186 -0.0240
 5074WAT      O22100  -2.093  10.142   0.573  0.0851 -0.1205  0.3801
 5074WAT     H122101  -2.110  10.064   0.519 -1.2658  0.4160 -0.0122
 5074WAT     H222102  -2.032  10.194   0.521 -1.9968  0.8879 -1.2177
 5074WAT    EPW22103  -2.087  10.138   0.559 -0.3676  0.0834  0.1176
 5075WAT      O22104  -2.033   8.531   6.250 -0.2823  0.8568  0.0907
 5075WAT     H122105  -1.979   8.476   6.308 -1.6788 -0.0964  0.5510
 5075WAT     H222106  -2.113   8.547   6.300 -2.1672 -1.1771 -1.9760
 5075WAT    EPW22107  -2.036   8.526   6.264 -0.7151  0.4625 -0.1211
 5076WAT      O22108   3.216   0.723   3.336  0.2590 -0.2820  0.7030
 5076WAT     H122109   3.286   0.781   3.307  2.0075 -2.4939  0.1548
 5076WAT     H222110   3.259   0.638   3.347 -2.3394 -1.7370  0.4226
 5076WAT    EPW22111   3.231   0.719   3.333  0.1470 -0.7657  0.5937
 5077WAT      O22112   3.378   0.689   5.759 -0.6188 -0.2201 -0.1343
 5077WAT     H122113   3.348   0.602   5.734 -0.6718  0.0479 -1.0475
 5077WAT     H222114   3.312   0.749   5.724  0.9534  0.3830 -2.2773
 5077WAT    EPW22115   3.366   0.686   5.751 -0.4183 -0.1052 -0.5376
 5078WAT      O22116  -1.687  10.327   8.448 -0.2568  0.2485 -0.2385
 5078WAT     H122117  -1.766  10.282   8.418 -0.8288  1.1720 -0.1679
 5078WAT     H222118  -1.666  10.388   8.377  0.9720 -0.6569 -0.6857
 5078WAT    EPW22119  -1.695  10.329   8.435 -0.1702  0.2508 -0.2880
 5079WAT      O22120  -1.724   1.259   3.827 -0.3906  0.0807  0.1445
 5079WAT     H122121  -1.678   1.340   3.847 -2.1642  0.8992  1.1837
 5079WAT     H222122  -1.771   1.277   3.746  1.2764 -0.8618 -1.0936
 5079WAT    EPW22123  -1.724   1.272   3.819 -0.4047  0.0644  0.1183
 5080WAT      O22124  -3.138   7.498   2.714  0.5598 -0.0075  0.1562
 5080WAT     H122125  -3.045   7.504   2.691  0.2767 -0.2164 -1.1091
 5080WAT     H222126  -3.141   7.436   2.787  1.5308  0.9006  0.9969
 5080WAT    EPW22127  -3.126   7.491   2.720  0.6505  0.0846  0.1003
 5081WAT      O22128   5.209   4.434   5.495  0.4645  0.4677  0.4356
 5081WAT     H122129   5.154   4.448   5.418  0.0751  3.1177  1.0958
 5081WAT     H222130   5.270   4.507   5.494  1.3002 -0.1610  1.9577
 5081WAT    EPW22131   5.210   4.445   5.485  0.5233  0.7346  0.7236
 5082WAT      O22132   0.519   7.808   2.700 -0.4020  0.0256 -0.0413
 5082WAT     H122133   0.558   7.721   2.710 -0.7727 -0.3234 -1.3997
 5082WAT     H222134   0.443   7.794   2.644  0.3138  1.4035 -1.4686
 5082WAT    EPW22135   0.514   7.795   2.694 -0.3565  0.1612 -0.4088
 5083WAT      O22136  -3.896   9.408   5.766 -0.5928 -0.3076 -0.3954
 5083WAT     H122137  -3.937   9.489   5.796  2.1583  1.2044 -0.4423
 5083WAT     H222138  -3.892   9.416   5.671  0.7163  0.0601 -0.3227
 5083WAT    EPW22139  -3.901   9.420   5.757 -0.0573 -0.0596 -0.3922
 5084WAT      O22140   0.585   5.478   7.897  0.5381  0.0574  0.3821
 5084WAT     H122141   0.574   5.408   7.961  1.4433 -1.2674 -0.8484
 5084WAT     H222142   0.677   5.473   7.870 -0.3134 -1.1987 -2.8621
 5084WAT    EPW22143   0.595   5.469   7.902  0.5452 -0.2832 -0.2081
 5085WAT      O22144   4.529   8.601   4.540  0.4351  0.4776 -0.4437
 5085WAT     H122145   4.482   8.637   4.614  1.4805 -0.4944  0.7386
 5085WAT     H222146   4.581   8.530   4.577  1.1877  0.1402 -2.0631
 5085WAT    EPW22147   4.530   8.597   4.554  0.6721  0.3052 -0.5014
 5086WAT      O22148   3.598   1.929   3.206 -0.2774  0.0758  0.3951
 5086WAT     H122149   3.651   1.954   3.281  0.8463  1.6689 -0.8574
 5086WAT     H222150   3.654   1.948   3.130 -2.7621  2.4063 -1.0336
 5086WAT    EPW22151   3.612   1.935   3.206 -0.4568  0.5933  0.0414
 5087WAT      O22152  -1.543   2.685   6.881  0.8105 -0.2397  0.5920
 5087WAT     H122153  -1.548   2.769   6.926  2.5891 -0.0183  0.4439
 5087WAT     H222154  -1.551   2.620   6.950  0.2654  0.0587  0.8110
 5087WAT    EPW22155  -1.545   2.687   6.896  0.9732 -0.1711  0.6015
 5088WAT      O22156  -0.088   1.067   1.076  0.2352  0.1867 -0.0061
 5088WAT     H122157  -0.019   1.005   1.053 -0.9327 -0.8840 -0.7588
 5088WAT     H222158  -0.114   1.107   0.993 -1.6299 -1.1467 -0.1211
 5088WAT    EPW22159  -0.082   1.064   1.062 -0.1648 -0.1304 -0.1205
 5089WAT      O22160   2.312   4.645   0.739 -0.5216 -0.2378 -0.1637
 5089WAT     H122161   2.353   4.730   0.721  0.5049 -0.3034  1.6181
 5089WAT     H222162   2.338   4.590   0.665 -1.3412  1.0136 -1.4329
 5089WAT    EPW22163   2.321   4.649   0.727 -0.4942 -0.0815 -0.0961
 5090WAT      O22164   0.000   7.168   5.218  0.4795  1.5293 -0.4251
 5090WAT     H122165  -0.012   7.080   5.184  0.8595  1.1580  0.3948
 5090WAT     H222166  -0.075   7.217   5.184 -0.6387  0.4875  0.4807
 5090WAT    EPW22167  -0.011   7.163   5.209  0.3821  1.3428 -0.1974
 5091WAT      O22168   4.850   6.167   1.369  0.2405  0.3243  0.3235
 5091WAT     H122169   4.812   6.175   1.281 -2.9013 -1.1764  1.3653
 5091WAT     H222170   4.851   6.073   1.386  0.4925  0.5956  1.9894
 5091WAT    EPW22171   4.845   6.156   1.359 -0.1409  0.1621  0.6807
 5092WAT      O22172   1.733   4.958   3.087 -0.1844 -0.6742  0.0232
 5092WAT     H122173   1.671   4.919   3.025  0.7595 -3.1588  0.5172
 5092WAT     H222174   1.819   4.934   3.053  0.6010  2.2037 -0.3237
 5092WAT    EPW22175   1.736   4.950   3.074  0.0436 -0.6223  0.0426
 5093WAT      O22176   5.716   2.194   4.666  0.1557 -0.2472  0.1067
 5093WAT     H122177   5.697   2.217   4.757 -0.8452 -0.2120 -0.1051
 5093WAT     H222178   5.731   2.278   4.623 -0.1835 -0.2086  0.0625
 5093WAT    EPW22179   5.715   2.208   4.672 -0.0212 -0.2375  0.0732
 5094WAT      O22180  -0.614   3.809   1.727  0.5112 -0.5072  0.3256
 5094WAT     H122181  -0.657   3.765   1.800  2.0980 -0.5272  1.2982
 5094WAT     H222182  -0.584   3.892   1.764  1.2505 -0.4734 -0.3263
 5094WAT    EPW22183  -0.615   3.815   1.742  0.8180 -0.5053  0.3679
 5095WAT      O22184  -1.803   1.370   4.833 -0.0015 -0.5969  0.4003
 5095WAT     H122185  -1.836   1.286   4.865  0.6935 -0.3174  1.9749
 5095WAT     H222186  -1.709   1.368   4.855  0.2125  0.2120 -0.3910
 5095WAT    EPW22187  -1.795   1.359   4.840  0.1184 -0.4534  0.5035
 5096WAT      O22188   2.471   0.707   5.049  0.1183 -0.5542  0.1557
 5096WAT     H122189   2.508   0.690   5.135  0.8958 -1.3051 -0.3146
 5096WAT     H222190   2.531   0.771   5.010  1.4751 -2.3988 -0.9325
 5096WAT    EPW22191   2.484   0.713   5.055  0.3997 -0.8965 -0.0498
 5097WAT      O22192  -5.042   4.209   7.606  0.1805 -0.4896 -0.5613
 5097WAT     H122193  -5.080   4.187   7.521 -0.1542  0.1783 -0.5891
 5097WAT     H222194  -4.949   4.186   7.598 -0.0712 -1.5230 -0.7102
 5097WAT    EPW22195  -5.035   4.203   7.594  0.1032 -0.5379 -0.5848
 5098WAT      O22196   0.757   8.176   6.604  0.4054  0.0517  0.0623
 5098WAT     H122197   0.784   8.267   6.587 -0.1982  0.1033 -0.6797
 5098WAT     H222198   0.722   8.178   6.693  1.6572  0.2434  0.5711
 5098WAT    EPW22199   0.756   8.189   6.613  0.4909  0.0834  0.0312
 5099WAT      O22200  -3.105   0.703   4.744 -0.3892  0.2020  0.2135
 5099WAT     H122201  -3.166   0.656   4.689 -0.0865 -0.0748  0.1114
 5099WAT     H222202  -3.041   0.742   4.683 -1.5887  2.2005  0.1370
 5099WAT    EPW22203  -3.104   0.702   4.729 -0.5075  0.4291  0.1900
 5100WAT      O22204  -1.060   3.771   2.176 -0.2992  1.0379 -0.2972
 5100WAT     H122205  -1.116   3.824   2.119  0.2850  1.2167 -0.7196
 5100WAT     H222206  -1.058   3.819   2.259 -2.1078  0.1733  0.2949
 5100WAT    EPW22207  -1.067   3.785   2.179 -0.4607  0.9474 -0.2747
 5101WAT      O22208   0.096   6.008   5.977  0.3873 -0.0090 -0.0197
 5101WAT     H122209   0.123   5.921   5.948 -0.4537 -0.3324  0.1418
 5101WAT     H222210   0.120   6.066   5.905 -0.2191 -0.5656 -0.6794
 5101WAT    EPW22211   0.103   6.004   5.964  0.1964 -0.1252 -0.0854
 5102WAT      O22212   1.169   8.932   8.759 -0.2056 -0.2840  0.5814
 5102WAT     H122213   1.152   9.017   8.800  0.7782 -0.9452  2.5020
 5102WAT     H222214   1.082   8.899   8.736 -0.5174  2.1135 -2.2552
 5102WAT    EPW22215   1.155   8.939   8.761 -0.1169 -0.0553  0.4611
 5103WAT      O22216   3.187   3.847   4.771 -0.0498  0.1962 -0.1777
 5103WAT     H122217   3.225   3.759   4.766 -0.8368 -0.5133  3.2932
 5103WAT     H222218   3.094   3.831   4.786 -0.2750  1.6438  0.0436
 5103WAT    EPW22219   3.180   3.833   4.772 -0.1832  0.2935  0.3092
 5104WAT      O22220   1.224   5.600   3.402  0.5678 -0.4072 -0.0664
 5104WAT     H122221   1.310   5.635   3.379  1.4005 -1.9523  0.5403
 5104WAT     H222222   1.222   5.604   3.498 -0.7720  1.2243 -0.1242
 5104WAT    EPW22223   1.235   5.605   3.412  0.5009 -0.3958  0.0060
 5105WAT      O22224   2.401   9.493   6.266  0.0738  0.1343 -0.1474
 5105WAT     H122225   2.468   9.428   6.244  0.4631  0.9512 -1.4950
 5105WAT     H222226   2.392   9.546   6.187 -2.2522 -0.0137 -0.0488
 5105WAT    EPW22227   2.408   9.491   6.253 -0.1817  0.2227 -0.3119
 5106WAT      O22228   5.432   0.050   6.412 -0.1373 -0.1186 -1.1899
 5106WAT     H122229   5.428   0.021   6.503  2.6471  1.1528 -0.5414
 5106WAT     H222230   5.369   0.122   6.407 -1.3315 -1.0894 -0.7044
 5106WAT    EPW22231   5.423   0.056   6.423  0.0725 -0.0790 -1.0402
 5107WAT      O22232  -5.356   5.701   5.620  0.2434  0.0355 -0.7662
 5107WAT     H122233  -5.378   5.645   5.546  1.3034 -0.8818 -0.4162
 5107WAT     H222234  -5.295   5.649   5.672  0.7650  1.2768 -0.0898
 5107WAT    EPW22235  -5.351   5.687   5.617  0.4523  0.0782 -0.6309
 5108WAT      O22236  -0.602   9.149   2.789 -0.3149  0.5499 -0.4166
 5108WAT     H122237  -0.557   9.076   2.831  0.7344  2.0661  1.2251
 5108WAT     H222238  -0.542   9.177   2.719 -0.4460  0.2463 -0.6559
 5108WAT    EPW22239  -0.588   9.143   2.785 -0.1937  0.7100 -0.2316
 5109WAT      O22240  -3.442   8.330   4.183 -0.2300 -0.7471  0.6754
 5109WAT     H122241  -3.484   8.396   4.128  0.3463 -1.9103 -1.2908
 5109WAT     H222242  -3.460   8.358   4.272 -3.1096  0.1133 -0.0427
 5109WAT    EPW22243  -3.450   8.342   4.187 -0.5338 -0.7868  0.3214
 5110WAT      O22244  -3.490   2.673   6.380 -0.1448 -0.7258  0.0524
 5110WAT     H122245  -3.475   2.721   6.298  2.8999 -0.1139  0.8497
 5110WAT     H222246  -3.429   2.600   6.376 -0.6278 -1.2322  1.4028
 5110WAT    EPW22247  -3.480   2.670   6.368  0.1930 -0.7118  0.3355
 5111WAT      O22248  -3.462   0.054   8.539  0.6836  0.1268 -0.6373
 5111WAT     H122249  -3.501  -0.033   8.540  1.0634 -0.0811  1.7585
 5111WAT     H222250  -3.450   0.074   8.446 -0.0418 -2.0664 -1.2605
 5111WAT    EPW22251  -3.466   0.045   8.527  0.6380 -0.1899 -0.4039
 5112WAT      O22252   8.472   4.142   1.095  0.2398  0.8149 -0.3720
 5112WAT     H122253   8.405   4.173   1.156  2.9393  1.9750  2.2982
 5112WAT     H222254   8.502   4.221   1.050  0.7513  0.5660 -0.4826
 5112WAT    EPW22255   8.467   4.157   1.097  0.6633  0.9351 -0.0345
 5113WAT      O22256  -0.016   1.911   6.510  0.9569 -0.0844 -0.3009
 5113WAT     H122257   0.026   1.988   6.548 -0.3536 -0.1949  1.4597
 5113WAT     H222258  -0.037   1.937   6.420 -2.6928  3.0285  1.2150
 5113WAT    EPW22259  -0.013   1.924   6.503  0.3027  0.3116  0.1314
 5114WAT      O22260  -0.312   0.925   0.262  0.0202 -0.1871  0.0235
 5114WAT     H122261  -0.275   0.842   0.289  1.0962 -0.0475 -0.9332
 5114WAT     H222262  -0.379   0.945   0.328  0.3517 -1.3692  0.7370
 5114WAT    EPW22263  -0.316   0.917   0.274  0.2058 -0.3246 -0.0086
 5115WAT      O22264   1.639   0.480   3.286 -0.0275 -0.0883  0.5719
 5115WAT     H122265   1.611   0.399   3.329 -2.4267 -0.0673 -0.7765
 5115WAT     H222266   1.658   0.540   3.358  0.4451 -1.4003  1.5902
 5115WAT    EPW22267   1.638   0.477   3.301 -0.2816 -0.2586  0.5285
 5116WAT      O22268   0.660   4.167   7.956  0.3669 -0.7901 -0.6085
 5116WAT     H122269   0.612   4.203   7.881 -0.8379  0.1151  0.5571
 5116WAT     H222270   0.712   4.095   7.919  1.0561  0.6455 -2.5947
 5116WAT    EPW22271   0.661   4.162   7.941  0.2989 -0.4814 -0.7167
 5117WAT      O22272  -0.048   2.420   8.295  0.2307 -0.0357 -0.2945
 5117WAT     H122273  -0.113   2.350   8.296 -0.4328  0.5791 -0.1079
 5117WAT     H222274   0.020   2.388   8.236 -0.2271 -0.6934 -0.4746
 5117WAT    EPW22275  -0.047   2.407   8.287  0.0828 -0.0415 -0.2933
 5118WAT      O22276   3.311   1.433   1.092 -0.5734  0.4548 -0.4863
 5118WAT     H122277   3.237   1.372   1.102  0.4058 -0.9159 -1.3351
 5118WAT     H222278   3.326   1.466   1.181 -2.9497  1.7273 -0.4606
 5118WAT    EPW22279   3.303   1.430   1.105 -0.7576  0.4418 -0.5949
 5119WAT      O22280  -1.653   7.414   7.343  0.6990 -0.0678  0.3781
 5119WAT     H122281  -1.590   7.384   7.409  0.2500  3.3169  2.5949
 5119WAT     H222282  -1.738   7.406   7.386 -0.1905 -2.0680 -1.5911
 5119WAT    EPW22283  -1.656   7.409   7.358  0.5224  0.1149  0.4106
 5120WAT      O22284  -1.400   3.223   4.356 -0.4694 -0.9417  0.2797
 5120WAT     H122285  -1.413   3.175   4.274 -1.3584 -1.7546  0.8681
 5120WAT     H222286  -1.313   3.196   4.386  0.1045 -0.1977 -0.6603
 5120WAT    EPW22287  -1.390   3.213   4.349 -0.5110 -0.9508  0.2334
 5121WAT      O22288   5.750   2.240   7.256 -0.1687 -0.1659  0.4855
 5121WAT     H122289   5.823   2.179   7.250  1.0257  1.3209 -1.3316
 5121WAT     H222290   5.685   2.206   7.195  0.3130  0.1279 -0.2021
 5121WAT    EPW22291   5.751   2.228   7.248  0.0522  0.0690  0.1552
 5122WAT      O22292  -0.314   0.213   4.187  0.8306  0.6291 -0.4351
 5122WAT     H122293  -0.242   0.273   4.168  2.4571 -1.6902 -2.2770
 5122WAT     H222294  -0.272   0.137   4.227 -0.1051 -1.7030 -3.4853
 5122WAT    EPW22295  -0.299   0.211   4.189  0.9217  0.0156 -1.0805
 5123WAT      O22296   1.437   1.034   7.593  0.3846 -1.3923 -0.4439
 5123WAT     H122297   1.513   0.999   7.640  1.0100 -0.3414 -0.6300
 5123WAT     H222298   1.362   1.011   7.648  0.8741 -2.0957 -0.0511
 5123WAT    EPW22299   1.437   1.026   7.606  0.5316 -1.3465 -0.4168
 5124WAT      O22300   1.537   0.905   8.534 -0.8929 -0.3911  0.2948
 5124WAT     H122301   1.546   0.815   8.504 -2.8253 -1.0459  1.4843
 5124WAT     H222302   1.557   0.902   8.628  0.1416  0.6459  0.1287
 5124WAT    EPW22303   1.541   0.893   8.543 -1.0113 -0.3407  0.4296
 5125WAT      O22304  -1.655   5.825   0.355 -0.3598 -0.6102 -1.3148
 5125WAT     H122305  -1.705   5.844   0.434  1.3870  0.3054 -0.3650
 5125WAT     H222306  -1.629   5.911   0.322  0.0030 -1.0340 -2.1613
 5125WAT    EPW22307  -1.658   5.839   0.361 -0.0815 -0.5455 -1.3012
 5126WAT      O22308   7.247   1.299   3.150 -0.2988 -0.0968  0.4062
 5126WAT     H122309   7.279   1.254   3.072 -0.3657  1.3520 -0.4833
 5126WAT     H222310   7.261   1.392   3.133  1.1415  0.2200  2.7752
 5126WAT    EPW22311   7.253   1.305   3.138 -0.1175  0.1361  0.6013
 5127WAT      O22312   1.335   5.367   4.951  0.0705 -0.4667 -0.4856
 5127WAT     H122313   1.363   5.443   5.003 -1.2369  0.4144 -1.0129
 5127WAT     H222314   1.280   5.405   4.882 -0.2938 -1.8757 -0.9972
 5127WAT    EPW22315   1.332   5.382   4.949 -0.1500 -0.5362 -0.6225
 5128WAT      O22316   2.734   8.204   2.945  0.5358 -0.6822 -1.0929
 5128WAT     H122317   2.819   8.248   2.950  0.6712 -0.9280 -1.2412
 5128WAT     H222318   2.709   8.189   3.036  0.6832 -0.6782 -1.0516
 5128WAT    EPW22319   2.742   8.208   2.958  0.5730 -0.7143 -1.1070
 5129WAT      O22320   1.118   6.704   7.670 -0.7098 -0.0946  0.0177
 5129WAT     H122321   1.195   6.649   7.682 -1.1719 -0.7586 -0.0117
 5129WAT     H222322   1.063   6.656   7.608 -1.2025  0.3164  0.1235
 5129WAT    EPW22323   1.121   6.691   7.663 -0.8357 -0.1280  0.0279
 5130WAT      O22324  -0.118   7.424   8.696  0.0531 -0.3392 -0.2537
 5130WAT     H122325  -0.074   7.346   8.662  2.4462 -0.1068  1.9893
 5130WAT     H222326  -0.060   7.497   8.674 -1.0571  0.5422 -0.4098
 5130WAT    EPW22327  -0.105   7.424   8.689  0.2223 -0.1924  0.0215
 5131WAT      O22328  -5.495   4.894   7.798  0.6133 -0.2930 -0.1527
 5131WAT     H122329  -5.510   4.818   7.855  1.7702 -0.4581 -0.0465
 5131WAT     H222330  -5.470   4.964   7.858 -0.2824  0.1434 -0.2678
 5131WAT    EPW22331  -5.494   4.893   7.814  0.6475 -0.2570 -0.1538
 5132WAT      O22332  -0.602   0.013   2.657 -0.8246 -0.6639 -0.7885
 5132WAT     H122333  -0.655   0.068   2.599 -1.6426 -0.3666  0.2059
 5132WAT     H222334  -0.616   0.050   2.744 -0.5629 -1.8063 -0.2392
 5132WAT    EPW22335  -0.611   0.025   2.661 -0.8980 -0.7754 -0.5850
 5133WAT      O22336   6.076   8.930   1.811  0.3327 -0.0710 -0.0042
 5133WAT     H122337   6.036   8.864   1.755  0.9604 -0.4305 -0.0405
 5133WAT     H222338   6.119   8.991   1.750 -2.5651  2.0062 -0.1576
 5133WAT    EPW22339   6.077   8.929   1.796  0.0334  0.1559 -0.0292
 5134WAT      O22340   6.257   0.245   5.086 -0.2759  0.3560 -0.1066
 5134WAT     H122341   6.234   0.260   5.178 -1.4461  2.1526 -0.6396
 5134WAT     H222342   6.251   0.150   5.075 -2.0727  0.2761  1.2004
 5134WAT    EPW22343   6.253   0.235   5.097 -0.6673  0.5824 -0.0043
 5135WAT      O22344   4.067   8.597   2.958 -0.0131 -0.6630  0.2454
 5135WAT     H122345   4.104   8.683   2.979  1.0364 -0.8490 -0.7280
 5135WAT     H222346   4.110   8.538   3.020 -0.7004 -0.5064  0.8840
 5135WAT    EPW22347   4.078   8.601   2.969  0.0346 -0.6666  0.2011
 5136WAT      O22348  -5.348   3.122   7.833  0.5202  0.1678  0.0854
 5136WAT     H122349  -5.296   3.197   7.863  0.0720  0.0194  1.2591
 5136WAT     H222350  -5.284   3.053   7.818  1.0973  1.1175 -2.2133
 5136WAT    EPW22351  -5.333   3.123   7.835  0.5374  0.2736 -0.0629
 5137WAT      O22352   5.377   6.452   3.181  0.1617  0.2409  0.0932
 5137WAT     H122353   5.338   6.459   3.094  0.4602  2.8132  0.1039
 5137WAT     H222354   5.470   6.442   3.165  0.2373  0.8899  0.0884
 5137WAT    EPW22355   5.384   6.452   3.168  0.2108  0.6657  0.0939
 5138WAT      O22356   4.115   7.001   6.245 -0.3197 -0.0063  0.0645
 5138WAT     H122357   4.207   6.992   6.270  0.1056 -0.6366 -1.5768
 5138WAT     H222358   4.083   6.911   6.239 -1.2397  0.2260  1.2533
 5138WAT    EPW22359   4.123   6.988   6.247 -0.3850 -0.0587  0.0050
 5139WAT      O22360  -1.739   7.641   8.225  0.3958  0.0108  0.4604
 5139WAT     H122361  -1.808   7.632   8.291 -0.0229 -2.0468 -0.1960
 5139WAT     H222362  -1.729   7.554   8.188  1.4621  0.8468 -1.3822
 5139WAT    EPW22363  -1.747   7.629   8.229  0.4812 -0.1502  0.1307
 5140WAT      O22364   4.087   7.618   0.209 -0.3992  0.0923  0.3138
 5140WAT     H122365   4.056   7.601   0.298  1.5143  0.8105  1.2038
 5140WAT     H222366   4.162   7.559   0.198  0.0688  0.7880 -0.3722
 5140WAT    EPW22367   4.093   7.608   0.219 -0.0854  0.2787  0.3407
 5141WAT      O22368   1.238   2.582   3.868 -0.7437 -1.0903 -0.5523
 5141WAT     H122369   1.323   2.559   3.830 -0.4355  0.5578 -0.9820
 5141WAT     H222370   1.247   2.675   3.891 -2.1712 -1.0964  0.1359
 5141WAT    EPW22371   1.251   2.591   3.866 -0.8913 -0.8737 -0.5181
 5142WAT      O22372   3.637   6.637   0.119 -0.3501 -0.1387  0.1830
 5142WAT     H122373   3.557   6.584   0.126 -0.3811 -0.0103  0.8803
 5142WAT     H222374   3.614   6.705   0.055 -0.0838 -1.3314 -1.2438
 5142WAT    EPW22375   3.623   6.639   0.111 -0.3190 -0.2792  0.0868
 5143WAT      O22376  -2.455   8.483   5.237 -0.6469  0.5385  0.0535
 5143WAT     H122377  -2.377   8.527   5.271 -1.4598  1.5052  0.7127
 5143WAT     H222378  -2.433   8.461   5.146  0.5943  0.2739  0.4047
 5143WAT    EPW22379  -2.442   8.486   5.229 -0.5904  0.6313  0.1867
 5144WAT      O22380   2.182   2.017   0.855 -0.0826  1.0475 -0.0051
 5144WAT     H122381   2.218   1.992   0.770 -1.1657  2.1912 -0.8243
 5144WAT     H222382   2.237   1.971   0.918 -2.5792 -4.6266 -1.3029
 5144WAT    EPW22383   2.194   2.008   0.852 -0.5548  0.4499 -0.2843
 5145WAT      O22384  -0.795   2.784   3.619 -0.1334 -0.0687  0.3354
 5145WAT     H122385  -0.720   2.824   3.662 -0.1874 -0.4607  0.8029
 5145WAT     H222386  -0.870   2.834   3.649 -0.2232 -0.6350  1.0772
 5145WAT    EPW22387  -0.795   2.796   3.628 -0.1523 -0.1950  0.4950
 5146WAT      O22388  -6.161   5.341   7.764 -0.3162  0.1516  0.6478
 5146WAT     H122389  -6.142   5.294   7.683 -0.5909 -0.1933  0.7803
 5146WAT     H222390  -6.139   5.278   7.833  1.0435  0.8432  0.8841
 5146WAT    EPW22391  -6.156   5.326   7.763 -0.1733  0.1972  0.6964
 5147WAT      O22392   0.946   4.003   7.612  0.1462 -0.2717  0.7178
 5147WAT     H122393   0.924   4.067   7.544  1.0623 -1.6554 -0.9623
 5147WAT     H222394   0.865   3.992   7.662 -0.6476  0.5484 -0.3483
 5147WAT    EPW22395   0.932   4.010   7.610  0.1624 -0.3462  0.3557
 5148WAT      O22396   4.891   3.775   0.842  0.2778  0.0551 -0.2419
 5148WAT     H122397   4.840   3.847   0.879  0.1684  0.1762 -0.6271
 5148WAT     H222398   4.982   3.800   0.857  0.2326  0.0406  0.0645
 5148WAT    EPW22399   4.897   3.788   0.849  0.2575  0.0691 -0.2523
 5149WAT      O22400   3.777   0.102   4.337  0.1603  0.0285  0.1540
 5149WAT     H122401   3.682   0.118   4.337  0.1120  0.0677 -2.0152
 5149WAT     H222402   3.785   0.007   4.327  0.3575 -0.0330  0.8821
 5149WAT    EPW22403   3.765   0.092   4.336  0.1800  0.0256 -0.0362
 5150WAT      O22404  -1.468   9.731   8.271  0.0585  0.1777 -0.2584
 5150WAT     H122405  -1.504   9.737   8.360 -1.2797 -2.0389 -0.5932
 5150WAT     H222406  -1.542   9.752   8.214  0.3881 -0.3471 -0.8920
 5150WAT    EPW22407  -1.483   9.735   8.275 -0.0745 -0.1841 -0.3862
 5151WAT      O22408   0.797   1.108   1.437  0.2529  0.3695 -0.0176
 5151WAT     H122409   0.716   1.125   1.486 -0.2180  1.0342 -0.9944
 5151WAT     H222410   0.835   1.032   1.480 -0.7235  0.2488  0.6721
 5151WAT    EPW22411   0.791   1.100   1.450  0.0620  0.4413 -0.0556
 5152WAT      O22412  -1.094   2.073   4.039 -0.0423  0.2025 -0.7718
 5152WAT     H122413  -1.174   2.124   4.024 -0.8531 -1.3028 -1.9203
 5152WAT     H222414  -1.039   2.092   3.963 -1.2128 -2.0732 -2.3257
 5152WAT    EPW22415  -1.097   2.082   4.027 -0.3036 -0.2962 -1.1282
 5153WAT      O22416  -3.190   0.259   6.960  0.2272  0.2989 -0.3899
 5153WAT     H122417  -3.162   0.175   6.996  0.3932 -0.7330 -2.6872
 5153WAT     H222418  -3.156   0.258   6.870 -0.0269  2.7142 -0.5771
 5153WAT    EPW22419  -3.182   0.248   6.953  0.2156  0.4814 -0.7174
 5154WAT      O22420   4.280   1.087   8.355  0.2384  0.1221 -0.0903
 5154WAT     H122421   4.356   1.060   8.407 -1.4717 -1.5476  1.7182
 5154WAT     H222422   4.260   1.011   8.301 -2.0111 -0.8194  1.8681
 5154WAT    EPW22423   4.288   1.074   8.355 -0.2837 -0.2223  0.4067
 5155WAT      O22424  -5.939   7.633   8.628  0.7140 -0.3804 -0.1401
 5155WAT     H122425  -5.977   7.647   8.541  1.0627  0.4758 -0.1764
 5155WAT     H222426  -5.995   7.684   8.687  0.8994 -0.3650  0.0233
 5155WAT    EPW22427  -5.951   7.642   8.624  0.7844 -0.2656 -0.1235
 5156WAT      O22428   2.157   4.531   3.297  0.1354 -0.2359 -0.1972
 5156WAT     H122429   2.215   4.596   3.256  2.4536 -0.9827  1.6375
 5156WAT     H222430   2.077   4.580   3.316  1.2515  1.7245 -0.2124
 5156WAT    EPW22431   2.154   4.546   3.294  0.5883 -0.0756  0.0428
 5157WAT      O22432   2.163   3.850   4.656  0.1595 -0.5404  0.2561
 5157WAT     H122433   2.217   3.920   4.620 -0.7481 -0.7506 -1.6277
 5157WAT     H222434   2.147   3.877   4.747  1.8000  0.4660  0.2849
 5157WAT    EPW22435   2.168   3.863   4.663  0.2562 -0.4354  0.0114
 5158WAT      O22436   7.757   3.994   0.176 -0.1401  0.7648 -0.3749
 5158WAT     H122437   7.824   4.005   0.109 -0.4472 -1.8805 -1.2650
 5158WAT     H222438   7.789   3.921   0.229 -3.1164 -2.0995 -2.1278
 5158WAT    EPW22439   7.770   3.985   0.174 -0.5734  0.0381 -0.7235
 5159WAT      O22440  -3.062   8.915   7.352 -0.3754  0.1879 -0.0020
 5159WAT     H122441  -3.038   8.882   7.438 -0.0371  0.7505  0.1179
 5159WAT     H222442  -3.039   8.844   7.292  1.3645  0.6081  0.1318
 5159WAT    EPW22443  -3.056   8.901   7.355 -0.1012  0.3176  0.0315
 5160WAT      O22444  -2.256   1.126   4.053  0.0264  0.0144  0.2132
 5160WAT     H122445  -2.191   1.097   3.989  1.6881  0.4969  1.6224
 5160WAT     H222446  -2.308   1.048   4.071  1.3195 -0.8467  0.3233
 5160WAT    EPW22447  -2.255   1.112   4.047  0.4162 -0.0355  0.4134
 5161WAT      O22448   4.799   9.911   3.760 -0.2679  0.7535  0.7358
 5161WAT     H122449   4.704   9.905   3.745 -0.2216  1.1687  0.2593
 5161WAT     H222450   4.812   9.868   3.844 -1.0724  2.0516  1.5546
 5161WAT    EPW22451   4.788   9.904   3.769 -0.3681  0.9794  0.7809
 5162WAT      O22452   1.473   9.833   2.266 -0.4468 -0.7060  0.1238
 5162WAT     H122453   1.451   9.757   2.319  1.6399 -0.8102  0.9275
 5162WAT     H222454   1.553   9.868   2.306 -0.2435  0.7276 -1.4205
 5162WAT    EPW22455   1.481   9.828   2.278 -0.1447 -0.5307  0.0262
 5163WAT      O22456   3.101   4.949   3.909  0.3114  0.5399 -0.0003
 5163WAT     H122457   3.163   5.020   3.891  0.6579 -0.2101 -2.0064
 5163WAT     H222458   3.073   4.919   3.823 -0.3839 -1.2697  0.8073
 5163WAT    EPW22459   3.106   4.955   3.896  0.2654  0.2024 -0.1584
 5164WAT      O22460  -2.109   9.034   6.269 -0.0837 -0.0063  0.2116
 5164WAT     H122461  -2.052   9.110   6.284  0.7366 -0.1523 -1.9076
 5164WAT     H222462  -2.138   9.043   6.178 -3.2250 -0.1272  1.0644
 5164WAT    EPW22463  -2.105   9.046   6.259 -0.3899 -0.0415  0.0443
 5165WAT      O22464  -1.960   7.693   6.692  0.1488 -0.0254  0.8374
 5165WAT     H122465  -2.018   7.635   6.740  0.3584 -2.0553 -1.1848
 5165WAT     H222466  -1.873   7.653   6.701  0.2209 -0.3541 -0.9874
 5165WAT    EPW22467  -1.956   7.680   6.699  0.1860 -0.3364  0.3297
 5166WAT      O22468   2.588   8.984   5.749  0.4402  0.1714 -0.0374
 5166WAT     H122469   2.629   8.982   5.663 -0.7663 -0.6133 -0.6176
 5166WAT     H222470   2.591   8.893   5.779  1.6078  0.5643  1.1422
 5166WAT    EPW22471   2.594   8.972   5.742  0.4351  0.1197  0.0417
 5167WAT      O22472  -0.895   7.907   5.853  0.3965  0.4616  0.6300
 5167WAT     H122473  -0.947   7.832   5.825 -1.0539  1.2812  0.9933
 5167WAT     H222474  -0.806   7.886   5.826 -0.3623 -0.2620 -1.5540
 5167WAT    EPW22475  -0.890   7.894   5.846  0.1051  0.4742  0.3898
 5168WAT      O22476  -2.573   9.441   1.891  0.1382 -0.2504  0.0049
 5168WAT     H122477  -2.497   9.383   1.883 -0.3676 -1.1446  1.2789
 5168WAT     H222478  -2.642   9.398   1.841  0.0362 -0.2693  0.1584
 5168WAT    EPW22479  -2.572   9.428   1.883  0.0581 -0.3710  0.1932
 5169WAT      O22480   3.027   9.214   4.235  0.2400 -0.2424  0.3047
 5169WAT     H122481   2.980   9.227   4.152 -0.7958 -2.4877  0.4809
 5169WAT     H222482   3.084   9.139   4.218 -1.0145 -1.6479  1.9803
 5169WAT    EPW22483   3.028   9.206   4.222 -0.0621 -0.7243  0.5488
 5170WAT      O22484   7.683   2.956   0.877 -0.2433 -0.6531 -0.2344
 5170WAT     H122485   7.648   3.039   0.910  2.0208 -0.2331  1.3342
 5170WAT     H222486   7.691   2.970   0.783  2.6055  2.0864  0.2193
 5170WAT    EPW22487   7.680   2.969   0.869  0.4308 -0.2364  0.0323
 5171WAT      O22488  -2.694   9.388   8.837  1.0112 -0.1604  0.7982
 5171WAT     H122489  -2.721   9.451   8.903  0.4847 -0.4072  0.8214
 5171WAT     H222490  -2.752   9.312   8.850  0.8264 -0.1703 -0.0051
 5171WAT    EPW22491  -2.705   9.386   8.847  0.9174 -0.1941  0.6952
 5172WAT      O22492  -2.704   7.325   1.474  0.1140  0.6481  0.0721
 5172WAT     H122493  -2.631   7.358   1.421  1.6094 -1.9255  0.3450
 5172WAT     H222494  -2.760   7.280   1.411  0.2182  0.3059  0.2195
 5172WAT    EPW22495  -2.702   7.323   1.458  0.3251  0.2635  0.1275
 5173WAT      O22496   2.403   6.153   2.639 -0.4879 -0.2871  0.6583
 5173WAT     H122497   2.480   6.158   2.694 -1.3937  1.4234  1.8338
 5173WAT     H222498   2.331   6.179   2.695 -1.6932 -0.1409 -0.8762
 5173WAT    EPW22499   2.404   6.157   2.653 -0.7664 -0.0422  0.6109
 5174WAT      O22500  -1.651   9.407   7.499  0.6548 -0.3540  0.5523
 5174WAT     H122501  -1.655   9.314   7.476  3.3490 -0.7559  1.3474
 5174WAT     H222502  -1.667   9.453   7.417 -0.9361 -1.4782  0.1870
 5174WAT    EPW22503  -1.653   9.401   7.485  0.8003 -0.5550  0.6089
 5175WAT      O22504  -4.029   4.385   8.732  0.0976 -0.4772 -0.2108
 5175WAT     H122505  -4.123   4.368   8.728 -0.2896  1.1677  0.8661
 5175WAT     H222506  -3.988   4.299   8.723 -1.5153 -1.2699 -0.2717
 5175WAT    EPW22507  -4.036   4.371   8.730 -0.1662 -0.3648 -0.0768
 5176WAT      O22508  -4.038   0.728   8.757  0.3341 -0.1481  0.2415
 5176WAT     H122509  -4.061   0.756   8.846 -0.6615  1.4948 -0.4969
 5176WAT     H222510  -3.948   0.757   8.745  1.5410 -2.8683  1.6401
 5176WAT    EPW22511  -4.030   0.735   8.767  0.3622 -0.2902  0.3285
 5177WAT      O22512   6.786   1.953   4.989  0.3365  0.1056 -0.2630
 5177WAT     H122513   6.708   1.915   4.950 -0.1371  1.1771 -0.4187
 5177WAT     H222514   6.856   1.932   4.928  0.1378 -0.6893 -0.2246
 5177WAT    EPW22515   6.785   1.946   4.976  0.2477  0.1420 -0.2785
 5178WAT      O22516   6.899   0.788   2.161  0.0786  0.1317  0.2963
 5178WAT     H122517   6.971   0.750   2.110  0.1517  0.5743  0.0714
 5178WAT     H222518   6.926   0.878   2.179 -0.8375  0.6127 -0.6314
 5178WAT    EPW22519   6.912   0.794   2.156 -0.0324  0.2536  0.1442
 5179WAT      O22520  -3.152   4.366   4.682  0.1906 -0.2227 -0.1945
 5179WAT     H122521  -3.246   4.350   4.694 -0.4762  1.4971 -2.3420
 5179WAT     H222522  -3.148   4.432   4.613  2.9719  0.7334  0.7510
 5179WAT    EPW22523  -3.164   4.372   4.674  0.4694  0.1302 -0.3531
 5180WAT      O22524   3.042   5.800   3.162 -0.5901 -0.4003  0.0251
 5180WAT     H122525   2.976   5.853   3.117 -0.9600 -0.2921  0.6808
 5180WAT     H222526   3.123   5.817   3.114 -0.5816  1.2107  0.5642
 5180WAT    EPW22527   3.044   5.809   3.150 -0.6379 -0.1733  0.1827
 5181WAT      O22528  -1.133   7.548   2.304  0.1405 -0.5434  0.3190
 5181WAT     H122529  -1.087   7.572   2.385  1.3837 -0.8025 -0.2910
 5181WAT     H222530  -1.063   7.532   2.240 -0.8224  1.9088 -1.4891
 5181WAT    EPW22531  -1.117   7.549   2.306  0.1774 -0.2542  0.0000
 5182WAT      O22532   0.703   1.350   6.194 -0.3750  0.7508 -0.5660
 5182WAT     H122533   0.642   1.417   6.164 -0.7093  0.4601 -0.5366
 5182WAT     H222534   0.685   1.274   6.139 -1.8355 -0.2065  1.1036
 5182WAT    EPW22535   0.693   1.349   6.183 -0.6118  0.5863 -0.3419
 5183WAT      O22536   8.712   1.674   1.045 -0.1332 -0.5526  0.0303
 5183WAT     H122537   8.664   1.675   1.128 -0.3697  2.1108 -0.0507
 5183WAT     H222538   8.804   1.686   1.071  0.3717 -3.5578  0.0482
 5183WAT    EPW22539   8.718   1.676   1.060 -0.0978 -0.5977  0.0219
 5184WAT      O22540   2.968   7.362   3.549  0.0647 -0.5718  0.5870
 5184WAT     H122541   3.063   7.350   3.538  0.0562 -0.4853  0.4143
 5184WAT     H222542   2.944   7.300   3.618  0.0777 -1.3135 -0.0657
 5184WAT    EPW22543   2.978   7.353   3.557  0.0653 -0.6580  0.4780
 5185WAT      O22544  -0.454   8.780   0.334 -0.3432 -0.3764 -0.1203
 5185WAT     H122545  -0.427   8.759   0.245  0.3133  0.2590 -0.0785
 5185WAT     H222546  -0.372   8.785   0.384 -0.6081  0.5713  0.2342
 5185WAT    EPW22547  -0.440   8.778   0.329 -0.2915 -0.1678 -0.0680
 5186WAT      O22548  -1.509   3.188   6.488 -0.9557 -0.1040  0.1696
 5186WAT     H122549  -1.449   3.183   6.562 -0.7712  1.4004  0.1510
 5186WAT     H222550  -1.576   3.122   6.508 -1.6958  1.2082  2.4171
 5186WAT    EPW22551  -1.510   3.178   6.500 -1.0289  0.2676  0.4635
 5187WAT      O22552  -4.451   5.079   7.833  0.1786  0.0833  0.4558
 5187WAT     H122553  -4.498   5.162   7.833 -1.5778 -0.7620  3.4794
 5187WAT     H222554  -4.481   5.035   7.913  0.4009 -3.8133 -1.3986
 5187WAT    EPW22555  -4.461   5.084   7.844 -0.0236 -0.5422  0.6101
 5188WAT      O22556  -5.117   6.613   5.558  0.1299 -0.0120  0.6856
 5188WAT     H122557  -5.060   6.585   5.629  0.1048 -1.3772  0.1918
 5188WAT     H222558  -5.059   6.656   5.496  0.2200  0.7979  1.3159
 5188WAT    EPW22559  -5.102   6.615   5.559  0.1385 -0.0854  0.7038
 5189WAT      O22560   2.528   6.481   5.065 -0.3605  0.2993  0.1465
 5189WAT     H122561   2.459   6.419   5.042  2.3181 -3.9799  2.4702
 5189WAT     H222562   2.526   6.485   5.160  4.5923 -2.9811  0.7177
 5189WAT    EPW22563   2.518   6.474   5.074  0.6460 -0.6979  0.5281
 5190WAT      O22564   2.957   3.188   7.197 -0.0773  0.0896  0.2505
 5190WAT     H122565   2.911   3.268   7.224 -0.3424 -0.4431  1.4198
 5190WAT     H222566   2.889   3.121   7.194  0.2254 -0.2029 -0.2878
 5190WAT    EPW22567   2.942   3.190   7.200 -0.0724 -0.0192  0.3338
 5191WAT      O22568   1.547   6.118   4.770 -0.0937  0.0475  0.1017
 5191WAT     H122569   1.621   6.178   4.763 -0.4760  0.3979 -1.1602
 5191WAT     H222570   1.541   6.077   4.684 -1.5478  0.2301  0.0877
 5191WAT    EPW22571   1.556   6.120   4.758 -0.3359  0.1178 -0.0665
 5192WAT      O22572   1.085   9.599   5.570 -0.5383  0.7544  0.2572
 5192WAT     H122573   1.117   9.570   5.655  0.0692 -0.0419 -0.2222
 5192WAT     H222574   1.157   9.580   5.510 -1.7765 -0.7683 -0.8091
 5192WAT    EPW22575   1.099   9.593   5.573 -0.6215  0.4487  0.0534
 5193WAT      O22576   0.808   7.975   2.776 -0.0288 -0.2233 -0.0757
 5193WAT     H122577   0.796   8.029   2.698  0.7099  0.3728  0.2042
 5193WAT     H222578   0.831   8.038   2.845  0.0757 -0.8173  0.4394
 5193WAT    EPW22579   0.809   7.991   2.775  0.0824 -0.2232  0.0293
 5194WAT      O22580  -1.980   9.215   6.575 -0.6317  0.4219  0.2615
 5194WAT     H122581  -2.007   9.126   6.553 -0.3367  0.2854  0.4413
 5194WAT     H222582  -2.044   9.245   6.639 -0.8201  0.3953  0.0854
 5194WAT    EPW22583  -1.992   9.207   6.581 -0.6177  0.4001  0.2620
 5195WAT      O22584   3.173   0.531   8.489 -0.2429 -0.0991 -0.2719
 5195WAT     H122585   3.185   0.622   8.514 -1.0666 -0.3778  1.3037
 5195WAT     H222586   3.255   0.506   8.446  0.7033  0.8818  0.8951
 5195WAT    EPW22587   3.185   0.539   8.487 -0.2267 -0.0065  0.0896
 5196WAT      O22588  -3.962  10.262   1.070  0.6510  0.3868 -0.4157
 5196WAT     H122589  -3.915  10.343   1.087  1.2800 -0.1989  0.7444
 5196WAT     H222590  -3.894  10.197   1.056  0.2166 -0.3588  0.7460
 5196WAT    EPW22591  -3.947  10.264   1.071  0.6766  0.2108 -0.1095
 5197WAT      O22592  -1.128   0.790   1.945  0.2976 -0.5456  0.0637
 5197WAT     H122593  -1.085   0.835   1.872  0.8612 -2.4057 -0.8168
 5197WAT     H222594  -1.057   0.740   1.987 -0.7421 -2.8638 -0.7824
 5197WAT    EPW22595  -1.113   0.790   1.941  0.2348 -1.0967 -0.1641
 5198WAT      O22596   4.407   1.423   6.603 -0.1403  0.3290 -0.1057
 5198WAT     H122597   4.367   1.431   6.690  2.2367  1.5538  0.9720
 5198WAT     H222598   4.353   1.359   6.557 -2.5115  0.9553  1.6496
 5198WAT    EPW22599   4.395   1.416   6.608 -0.1395  0.5731  0.2680
 5199WAT      O22600   0.093   5.135   5.763 -0.6246 -0.1212  0.3799
 5199WAT     H122601   0.123   5.132   5.672 -1.1383 -0.5813  0.2195
 5199WAT     H222602   0.027   5.204   5.764  3.0587  3.7850  1.5777
 5199WAT    EPW22603   0.088   5.144   5.751 -0.2065  0.3331  0.5169
 5200WAT      O22604   4.798   0.899   2.010  0.2500 -0.2183 -0.4360
 5200WAT     H122605   4.776   0.940   2.093 -1.4610  0.0275 -0.9776
 5200WAT     H222606   4.737   0.936   1.947  2.0569  0.2525 -2.0236
 5200WAT    EPW22607   4.787   0.909   2.012  0.2627 -0.1238 -0.7168
 5201WAT      O22608  -2.549   5.930   2.625 -0.2647  0.6500 -0.2923
 5201WAT     H122609  -2.541   5.867   2.696  0.2021 -2.1568 -2.6509
 5201WAT     H222610  -2.557   6.015   2.669  0.5314 -0.8456  3.0452
 5201WAT    EPW22611  -2.549   5.933   2.640 -0.0980  0.0827 -0.1633
 5202WAT      O22612   8.323   3.528   2.157 -0.0921 -0.6306 -0.7267
 5202WAT     H122613   8.310   3.551   2.065 -1.0383 -1.5172 -0.8409
 5202WAT     H222614   8.237   3.538   2.197  0.5567  0.9876  0.3916
 5202WAT    EPW22615   8.310   3.532   2.150 -0.1316 -0.5341 -0.5943
 5203WAT      O22616   2.988   6.644   2.397 -0.0493 -0.5952 -0.0057
 5203WAT     H122617   2.918   6.709   2.399  1.2868  0.8809  1.4610
 5203WAT     H222618   2.969   6.587   2.472  2.2938  2.1617  2.9762
 5203WAT    EPW22619   2.976   6.645   2.407  0.4359 -0.0367  0.5811
 5204WAT      O22620   4.681   0.477   1.549 -0.3214 -0.1573 -0.0197
 5204WAT     H122621   4.601   0.448   1.507 -0.6511 -1.5079  1.4734
 5204WAT     H222622   4.748   0.416   1.517 -0.0119  0.5172 -0.6930
 5204WAT    EPW22623   4.680   0.465   1.539 -0.3240 -0.2464  0.0885
 5205WAT      O22624  -0.356   2.129   1.198 -0.6072  0.0545 -0.5142
 5205WAT     H122625  -0.439   2.144   1.243 -0.9283  0.0496 -1.1012
 5205WAT     H222626  -0.295   2.191   1.240 -0.6692 -0.5690  0.5360
 5205WAT    EPW22627  -0.359   2.139   1.210 -0.6577 -0.0283 -0.4531
 5206WAT      O22628  -1.505   7.915   2.182  0.4312  0.2332  0.6864
 5206WAT     H122629  -1.429   7.952   2.227  0.5045 -0.4555  1.1316
 5206WAT     H222630  -1.568   7.898   2.251  0.1300  0.1649  0.3972
 5206WAT    EPW22631  -1.503   7.918   2.197  0.4012  0.1333  0.7069
 5207WAT      O22632   3.133   4.378   3.797  0.8655  0.2336  0.0939
 5207WAT     H122633   3.085   4.412   3.873 -2.6828 -0.4625 -1.6290
 5207WAT     H222634   3.138   4.453   3.737 -0.0389 -0.2316 -0.5849
 5207WAT    EPW22635   3.127   4.393   3.799  0.2784  0.0801 -0.2228
 5208WAT      O22636   6.075   4.446   4.658 -0.3475  0.1817  0.6936
 5208WAT     H122637   6.016   4.376   4.630 -0.7340  0.4810  0.7633
 5208WAT     H222638   6.018   4.522   4.672  0.0470  0.4613  0.7934
 5208WAT    EPW22639   6.060   4.447   4.656 -0.3464  0.2582  0.7160
 5209WAT      O22640   7.693   1.521   0.208 -0.4709  0.7545 -0.0037
 5209WAT     H122641   7.669   1.586   0.142  0.0993 -1.0627 -2.1133
 5209WAT     H222642   7.781   1.546   0.235 -0.3123  0.9337 -0.6790
 5209WAT    EPW22643   7.701   1.533   0.203 -0.3748  0.5383 -0.3710
 5210WAT      O22644   3.371   8.316   6.483  0.8509  0.1285  0.1943
 5210WAT     H122645   3.425   8.394   6.492  0.8034  0.1940 -0.0813
 5210WAT     H222646   3.304   8.325   6.552  0.2633  0.8125 -0.4438
 5210WAT    EPW22647   3.369   8.327   6.493  0.7672  0.2275  0.0739
 5211WAT      O22648   1.617   2.349   8.231  0.6010 -0.2747 -0.5689
 5211WAT     H122649   1.640   2.341   8.324  1.1281  0.2581 -0.6439
 5211WAT     H222650   1.647   2.267   8.192 -1.6066 -1.4720  0.0950
 5211WAT    EPW22651   1.624   2.337   8.238  0.3793 -0.3624 -0.4916
 5212WAT      O22652   1.512   5.730   6.119  1.4058  0.6253  0.7241
 5212WAT     H122653   1.566   5.684   6.183 -2.3394 -2.5220  2.0523
 5212WAT     H222654   1.508   5.820   6.151  1.6160 -0.2830  3.6009
 5212WAT    EPW22655   1.518   5.736   6.132  0.9396  0.0904  1.2789
 5213WAT      O22656   4.185   8.138   2.985 -0.1450  0.2968 -0.5403
 5213WAT     H122657   4.262   8.092   2.950 -1.4025 -0.7117 -2.0914
 5213WAT     H222658   4.197   8.135   3.080  2.7454  1.9974 -0.7009
 5213WAT    EPW22659   4.197   8.132   2.993  0.0703  0.3881 -0.7662
 5214WAT      O22660  -2.806   9.813   4.514  0.1651 -0.1272  0.5267
 5214WAT     H122661  -2.881   9.812   4.454 -0.3934  0.2939  1.2127
 5214WAT     H222662  -2.737   9.769   4.465 -0.5994 -0.7504 -0.0282
 5214WAT    EPW22663  -2.807   9.807   4.499 -0.0093 -0.1540  0.5441
 5215WAT      O22664  -4.907   3.826   8.468  0.2687  0.3557 -0.4136
 5215WAT     H122665  -4.894   3.910   8.513 -0.2146  0.5638 -0.6437
 5215WAT     H222666  -4.975   3.845   8.403  1.1101  0.1090 -1.3775
 5215WAT    EPW22667  -4.915   3.840   8.465  0.3161  0.3507 -0.5708
 5216WAT      O22668   3.596   5.575   0.343 -0.3320  0.0846  0.2217
 5216WAT     H122669   3.591   5.544   0.252 -1.5959 -1.4516  0.7683
 5216WAT     H222670   3.689   5.568   0.366  0.1379  1.2374 -1.1606
 5216WAT    EPW22671   3.608   5.570   0.334 -0.4367  0.0341  0.1115
 5217WAT      O22672   2.572   1.931   8.376  0.0235  0.2796 -1.3690
 5217WAT     H122673   2.613   1.898   8.296  1.1791 -1.4136 -0.1616
 5217WAT     H222674   2.642   1.978   8.421 -0.6073  1.1934 -1.3221
 5217WAT    EPW22675   2.587   1.933   8.372  0.0927  0.1768 -1.2040
 5218WAT      O22676   0.727   8.174   7.319 -0.7702 -0.0141 -0.0985
 5218WAT     H122677   0.809   8.208   7.283  0.0523 -1.1582  0.6417
 5218WAT     H222678   0.754   8.103   7.377 -2.3550 -1.1708 -0.7077
 5218WAT    EPW22679   0.741   8.169   7.322 -0.8708 -0.3181 -0.0811
 5219WAT      O22680  -0.849   0.989   4.756 -0.0985 -0.8598  0.3322
 5219WAT     H122681  -0.795   0.941   4.693 -0.2673 -0.4769 -0.1064
 5219WAT     H222682  -0.822   0.954   4.841 -0.4129 -1.9198  0.0105
 5219WAT    EPW22683  -0.838   0.978   4.759 -0.1623 -0.9491  0.2322
 5220WAT      O22684  -5.941   2.683   8.162 -0.2177 -0.5190  0.5127
 5220WAT     H122685  -5.984   2.759   8.200 -2.6464 -2.2061  1.4278
 5220WAT     H222686  -5.918   2.628   8.237  1.0945 -0.9092 -0.1422
 5220WAT    EPW22687  -5.944   2.686   8.177 -0.3650 -0.7930  0.5469
 5221WAT      O22688   2.036   4.614   1.377 -0.3845  0.7860  0.7164
 5221WAT     H122689   1.996   4.553   1.315 -1.1168  0.1006  1.8464
 5221WAT     H222690   1.984   4.607   1.456  0.4780  1.7247  1.4028
 5221WAT    EPW22691   2.024   4.605   1.379 -0.3673  0.8194  0.9559
 5222WAT      O22692   7.228   1.893   0.407  0.9493  0.2482 -0.0557
 5222WAT     H122693   7.305   1.873   0.460  1.2728 -0.6973 -0.8568
 5222WAT     H222694   7.216   1.988   0.416  1.4868  0.2258  1.0249
 5222WAT    EPW22695   7.236   1.903   0.415  1.0629  0.1206 -0.0188
 5223WAT      O22696   2.008   6.395   8.507  0.2183  0.1045  0.5354
 5223WAT     H122697   1.969   6.325   8.454  0.9270 -2.0927  2.7218
 5223WAT     H222698   1.932   6.437   8.549 -0.1691  0.2102 -0.2434
 5223WAT    EPW22699   1.993   6.391   8.506  0.2608 -0.1712  0.7210
 5224WAT      O22700  -4.288   5.959   8.510  0.3142  0.2420  0.0523
 5224WAT     H122701  -4.305   5.877   8.464 -0.9997 -0.4828  1.7260
 5224WAT     H222702  -4.193   5.958   8.525  0.7429  0.3827 -2.3096
 5224WAT    EPW22703  -4.278   5.948   8.506  0.1974  0.1650 -0.0381
 5225WAT      O22704  -1.415   5.133   6.820  0.2773  0.6677  0.0845
 5225WAT     H122705  -1.483   5.167   6.762 -1.0892 -1.8043  0.0763
 5225WAT     H222706  -1.462   5.073   6.879  2.4817 -1.6538 -0.3179
 5225WAT    EPW22707  -1.430   5.129   6.820  0.3878  0.0353  0.0303
 5226WAT      O22708   4.586   1.448   5.318  0.1408  0.1470  0.5039
 5226WAT     H122709   4.622   1.458   5.230  0.7069 -0.3338  0.6707
 5226WAT     H222710   4.502   1.492   5.315 -0.6533 -1.3375 -0.7717
 5226WAT    EPW22711   4.580   1.455   5.306  0.1106 -0.1122  0.3576
 5227WAT      O22712   1.110   3.397   0.176  0.3407 -0.4798  0.1438
 5227WAT     H122713   1.089   3.440   0.093 -1.3186  0.0610  0.8024
 5227WAT     H222714   1.111   3.467   0.241 -1.7778 -1.2554  1.1256
 5227WAT    EPW22715   1.108   3.412   0.174 -0.1575 -0.5108  0.3601
 5228WAT      O22716   7.538   0.196   0.696 -0.1701  0.4332 -0.6070
 5228WAT     H122717   7.448   0.208   0.665  0.3386 -0.6074 -2.6642
 5228WAT     H222718   7.529   0.176   0.789 -2.0851  0.1844 -0.8173
 5228WAT    EPW22719   7.525   0.195   0.704 -0.3555  0.2631 -0.9061
 5229WAT      O22720  -1.098   7.179   8.048  0.2380 -0.5781  0.4054
 5229WAT     H122721  -1.060   7.134   7.972  2.0349 -2.6225  2.3807
 5229WAT     H222722  -1.130   7.108   8.104 -0.8369  0.8518  1.6711
 5229WAT    EPW22723  -1.097   7.164   8.045  0.3332 -0.6592  0.8326
 5230WAT      O22724  -1.576   0.787   8.184 -0.6962  0.5901  0.4945
 5230WAT     H122725  -1.547   0.732   8.112 -2.3698 -2.0001  1.6485
 5230WAT     H222726  -1.497   0.800   8.237  0.1005  0.8282 -0.6941
 5230WAT    EPW22727  -1.562   0.782   8.182 -0.8118  0.2799  0.4902
 5231WAT      O22728   3.819   7.513   6.572 -0.8030 -0.0835 -0.0556
 5231WAT     H122729   3.739   7.524   6.520 -0.7637 -2.5415 -0.7173
 5231WAT     H222730   3.794   7.543   6.660 -1.0271  3.6148 -1.1997
 5231WAT    EPW22731   3.805   7.519   6.577 -0.8274  0.0801 -0.2940
 5232WAT      O22732   2.279   3.640   8.909 -0.5169 -0.3696  0.2412
 5232WAT     H122733   2.325   3.575   8.963 -0.4497 -0.6115 -0.0996
 5232WAT     H222734   2.349   3.687   8.863 -0.5472  0.2092  0.7796
 5232WAT    EPW22735   2.294   3.637   8.910 -0.5120 -0.3252  0.2670
 5233WAT      O22736  -5.591   8.426   6.239 -0.2580  0.6758 -0.0525
 5233WAT     H122737  -5.579   8.364   6.168  2.3286  1.4913 -0.4223
 5233WAT     H222738  -5.615   8.508   6.196  1.6481  1.2582 -0.0707
 5233WAT    EPW22739  -5.593   8.429   6.224  0.3347  0.8607 -0.1037
 5234WAT      O22740  -3.344   6.448   3.213  0.4324 -0.8106 -0.3859
 5234WAT     H122741  -3.275   6.514   3.209 -0.5229  0.2548  0.2014
 5234WAT     H222742  -3.423   6.494   3.186 -0.1583 -1.8568 -0.4788
 5234WAT    EPW22743  -3.345   6.463   3.209  0.2285 -0.8080 -0.3207
 5235WAT      O22744   3.359   1.428   1.948  0.1957  0.5056  0.4411
 5235WAT     H122745   3.451   1.401   1.940  0.1568 -0.3065  2.2510
 5235WAT     H222746   3.359   1.521   1.928  1.1719  0.2608 -0.8951
 5235WAT    EPW22747   3.371   1.436   1.944  0.3194  0.3662  0.5036
 5236WAT      O22748   3.509   6.868   5.409  0.7487  0.2357 -0.1481
 5236WAT     H122749   3.547   6.794   5.456  0.5233 -1.0506 -1.8919
 5236WAT     H222750   3.545   6.861   5.320 -0.6821  1.1456 -0.8404
 5236WAT    EPW22751   3.519   6.857   5.403  0.5302  0.1862 -0.4694
 5237WAT      O22752   3.804   6.746   1.656  1.0873  0.2220 -0.1496
 5237WAT     H122753   3.861   6.820   1.675  0.1402  0.5391  1.6864
 5237WAT     H222754   3.723   6.786   1.623 -0.0949  0.2274  2.5005
 5237WAT    EPW22755   3.801   6.761   1.654  0.8065  0.2644  0.4421
 5238WAT      O22756   3.499   0.753   5.008 -0.4088 -0.1577 -0.0020
 5238WAT     H122757   3.574   0.780   4.955 -0.8123  0.1277 -0.4337
 5238WAT     H222758   3.517   0.662   5.030  0.0816 -0.0826 -0.0706
 5238WAT    EPW22759   3.511   0.745   5.004 -0.3973 -0.1101 -0.0679
 5239WAT      O22760  -0.941   1.834   8.896 -0.2001 -0.6009 -0.2166
 5239WAT     H122761  -0.900   1.857   8.813  0.8650 -2.2830 -0.2134
 5239WAT     H222762  -0.876   1.859   8.962 -0.5337 -0.3684  0.0273
 5239WAT    EPW22763  -0.927   1.840   8.894 -0.1036 -0.7921 -0.1841
 5240WAT      O22764  -5.251   6.856   4.752  0.1197 -0.0996 -0.0961
 5240WAT     H122765  -5.198   6.892   4.823 -0.6856  3.2855 -1.0097
 5240WAT     H222766  -5.307   6.790   4.795  0.9220  0.5171  2.0360
 5240WAT    EPW22767  -5.252   6.852   4.767  0.1194  0.4282  0.0646
 5241WAT      O22768   2.653   7.021   0.510  0.6447 -0.4787 -0.2390
 5241WAT     H122769   2.688   7.087   0.570 -0.1923 -0.5079  0.2996
 5241WAT     H222770   2.566   7.052   0.487 -0.3075 -1.9812  1.0591
 5241WAT    EPW22771   2.646   7.034   0.515  0.4088 -0.6807  0.0032
 5242WAT      O22772   5.779   8.855   1.613  0.1844  0.0650  0.3261
 5242WAT     H122773   5.817   8.925   1.666  1.2441  0.4021 -0.8218
 5242WAT     H222774   5.772   8.780   1.672  0.1027  0.8044  1.2710
 5242WAT    EPW22775   5.783   8.854   1.628  0.3135  0.2069  0.2993
 5243WAT      O22776   4.120   5.895   2.828  0.4611  0.3134  0.8407
 5243WAT     H122777   4.103   5.922   2.918 -1.6174 -1.0980  0.9570
 5243WAT     H222778   4.043   5.842   2.804  0.4540  1.4508 -2.0947
 5243WAT    EPW22779   4.108   5.891   2.836  0.1860  0.2773  0.4689
 5244WAT      O22780   0.587   9.031   5.998  0.3666  0.4732  0.1261
 5244WAT     H122781   0.529   9.026   5.922  2.0397  1.1228 -1.2730
 5244WAT     H222782   0.609   8.939   6.016  0.4810  0.3412 -0.6271
 5244WAT    EPW22783   0.582   9.018   5.990  0.6024  0.5412 -0.1581
 5245WAT      O22784   4.762   6.183   3.220 -0.1337 -0.4534 -0.7308
 5245WAT     H122785   4.701   6.206   3.289  0.6883  1.8602 -0.6856
 5245WAT     H222786   4.839   6.238   3.237  0.6893 -0.9509 -2.5902
 5245WAT    EPW22787   4.764   6.193   3.231  0.0832 -0.2139 -0.9700
 5246WAT      O22788   4.812   0.629   4.427 -0.2442  0.7507 -0.0008
 5246WAT     H122789   4.824   0.675   4.344 -1.9713  1.1124 -0.0906
 5246WAT     H222790   4.900   0.603   4.454  0.4225  1.3507 -1.5299
 5246WAT    EPW22791   4.825   0.632   4.420 -0.3839  0.8775 -0.2141
 5247WAT      O22792  -0.981   0.244   8.651 -0.0571 -0.5531 -0.4362
 5247WAT     H122793  -0.926   0.170   8.676  1.8853  0.6096 -1.0383
 5247WAT     H222794  -0.978   0.244   8.555 -1.0194 -0.3758 -0.4780
 5247WAT    EPW22795  -0.973   0.234   8.642  0.0722 -0.3764 -0.5212
 5248WAT      O22796   0.721  10.206   6.985 -0.4710 -0.3257 -0.1799
 5248WAT     H122797   0.661  10.132   6.989 -2.1806  0.8984 -1.3801
 5248WAT     H222798   0.692  10.265   7.054 -1.8682  1.0526 -1.8406
 5248WAT    EPW22799   0.709  10.204   6.994 -0.8808  0.0172 -0.5572
 5249WAT      O22800   1.036   1.227   7.697 -0.1963 -0.6483  0.3295
 5249WAT     H122801   0.996   1.203   7.614  1.1575 -1.2275 -0.1846
 5249WAT     H222802   0.970   1.281   7.741 -0.8034 -0.0352 -1.2689
 5249WAT    EPW22803   1.022   1.231   7.692 -0.0979 -0.6438  0.0510
 5250WAT      O22804   5.382   9.829   3.250 -0.2555 -0.1433 -0.4644
 5250WAT     H122805   5.293   9.804   3.227  0.0301 -0.9322 -0.7594
 5250WAT     H222806   5.410   9.764   3.313 -0.5472  1.2280  1.1412
 5250WAT    EPW22807   5.374   9.817   3.255 -0.2563 -0.0668 -0.2913
 5251WAT      O22808  -2.799   1.578   5.010 -0.0662 -0.4827  0.1736
 5251WAT     H122809  -2.783   1.580   5.104  2.2167 -0.0342 -0.1859
 5251WAT     H222810  -2.728   1.525   4.974  0.3699  1.1532 -1.5105
 5251WAT    EPW22811  -2.788   1.571   5.018  0.2923 -0.2078 -0.0958
 5252WAT      O22812   2.923   3.456   6.717  0.4092 -0.6526 -0.1668
 5252WAT     H122813   2.930   3.364   6.743  0.8646 -1.1565 -1.9621
 5252WAT     H222814   2.922   3.504   6.800 -1.7306 -2.3546  0.8727
 5252WAT    EPW22815   2.924   3.450   6.731  0.1870 -0.9435 -0.2666
 5253WAT      O22816   1.517   0.186   1.202  0.5507  0.3953 -0.4606
 5253WAT     H122817   1.509   0.148   1.115  1.2357 -0.2958 -0.2332
 5253WAT     H222818   1.585   0.253   1.192 -1.6106  2.6225 -1.1871
 5253WAT    EPW22819   1.525   0.190   1.189  0.3560  0.5979 -0.5265
 5254WAT      O22820   5.545   0.429   7.760 -0.3416 -0.4359 -0.3761
 5254WAT     H122821   5.489   0.367   7.714  1.5333 -2.8279  0.3840
 5254WAT     H222822   5.634   0.403   7.737  0.6132 -0.2362  2.6627
 5254WAT    EPW22823   5.549   0.417   7.751  0.0317 -0.7251  0.1249
 5255WAT      O22824  -3.177   7.926   1.498 -0.2761  0.3847  0.1012
 5255WAT     H122825  -3.253   7.909   1.553 -1.1733  0.7846 -0.9840
 5255WAT     H222826  -3.120   7.981   1.552 -0.3175 -0.6416  1.2457
 5255WAT    EPW22827  -3.179   7.931   1.512 -0.3999  0.3021  0.1090
 5256WAT      O22828   3.266   7.255   8.230  0.3031  0.0160 -0.0689
 5256WAT     H122829   3.322   7.222   8.299  0.3105  1.4514  0.6531
 5256WAT     H222830   3.321   7.254   8.152  0.8877  0.0891  0.3338
 5256WAT    EPW22831   3.281   7.250   8.229  0.3812  0.2148  0.0792
 5257WAT      O22832   2.707   9.511   6.453 -0.4645  0.0865  0.5788
 5257WAT     H122833   2.642   9.581   6.446 -1.9157 -1.3322 -1.4937
 5257WAT     H222834   2.792   9.556   6.452 -1.3117  2.0088  3.5819
 5257WAT    EPW22835   2.710   9.526   6.452 -0.7676  0.1526  0.7017
 5258WAT      O22836   3.658   5.101   5.256 -0.8907 -0.2243  0.0547
 5258WAT     H122837   3.723   5.034   5.274 -0.2314  0.9454  2.3775
 5258WAT     H222838   3.693   5.150   5.182  0.0084 -0.6711  0.1788
 5258WAT    EPW22839   3.671   5.099   5.248 -0.6851 -0.1290  0.3772
 5259WAT      O22840   5.554   0.528   7.423  0.6287 -0.8756 -0.5805
 5259WAT     H122841   5.622   0.578   7.470  0.1044  0.5448 -1.2615
 5259WAT     H222842   5.473   0.553   7.466  0.3700 -1.2335 -0.8653
 5259WAT    EPW22843   5.553   0.538   7.434  0.5255 -0.7355 -0.7079
 5260WAT      O22844   5.531   2.431   7.289 -0.2823  0.2568 -0.2175
 5260WAT     H122845   5.476   2.407   7.363 -0.0410 -0.0551 -0.1412
 5260WAT     H222846   5.600   2.365   7.287  1.3961  1.8587  1.0311
 5260WAT    EPW22847   5.532   2.419   7.298 -0.0293  0.4269 -0.0427
 5261WAT      O22848   4.682   9.495   0.475 -0.2190 -0.3864  0.6932
 5261WAT     H122849   4.742   9.532   0.539 -1.8192 -0.5866  2.3869
 5261WAT     H222850   4.649   9.571   0.426  0.0884 -0.0884  0.9470
 5261WAT    EPW22851   4.685   9.510   0.477 -0.3896 -0.3734  0.9501
 5262WAT      O22852  -1.477   8.280   3.577 -1.1880  0.0644  0.1610
 5262WAT     H122853  -1.440   8.268   3.490 -1.6960  0.8734 -0.1781
 5262WAT     H222854  -1.425   8.350   3.617 -1.9554  0.8240 -0.1146
 5262WAT    EPW22855  -1.466   8.288   3.571 -1.3562  0.2708  0.0800
 5263WAT      O22856  -3.080   4.700   6.390  0.0843 -0.1468  0.0778
 5263WAT     H122857  -3.124   4.619   6.363  0.1633 -1.0324  2.3602
 5263WAT     H222858  -2.989   4.689   6.362  0.3958 -1.4743  1.4968
 5263WAT    EPW22859  -3.074   4.688   6.383  0.1359 -0.4387  0.5660
 5264WAT      O22860  -0.994   9.397   0.660  0.1931 -0.2918  0.1544
 5264WAT     H122861  -0.981   9.459   0.589 -0.1958  1.2090  1.3373
 5264WAT     H222862  -0.915   9.343   0.660  1.4392  1.4566  0.2864
 5264WAT    EPW22863  -0.982   9.398   0.651  0.3062  0.1369  0.3278
 5265WAT      O22864  -3.532   6.334   5.410 -0.2776 -0.1707 -0.3374
 5265WAT     H122865  -3.611   6.299   5.368  0.0196 -1.5733  0.2057
 5265WAT     H222866  -3.461   6.281   5.374 -0.0135 -1.4832  1.9226
 5265WAT    EPW22867  -3.533   6.322   5.399 -0.2036 -0.5288  0.0324
 5266WAT      O22868   1.289   2.351   0.069  0.0621  0.1305  0.3446
 5266WAT     H122869   1.301   2.383  -0.021  0.7445  0.2146  0.4650
 5266WAT     H222870   1.310   2.258   0.064  0.3075  0.1814  0.4646
 5266WAT    EPW22871   1.293   2.343   0.056  0.1845  0.1483  0.3763
 5267WAT      O22872  -4.395   2.754   7.423 -0.3702  0.4618 -0.5411
 5267WAT     H122873  -4.340   2.707   7.486  0.9435  0.3927 -1.6802
 5267WAT     H222874  -4.481   2.714   7.431 -0.8366  1.7763  2.6010
 5267WAT    EPW22875  -4.399   2.743   7.432 -0.2584  0.6261 -0.2768
 5268WAT      O22876   4.411   4.753   5.236  0.4603  0.1856  0.0975
 5268WAT     H122877   4.416   4.791   5.323  1.9855  1.4336 -0.4887
 5268WAT     H222878   4.318   4.752   5.215  0.1418  0.5587  1.4382
 5268WAT    EPW22879   4.400   4.758   5.245  0.6196  0.3994  0.1969
 5269WAT      O22880   2.783   0.981   7.050 -0.1065 -0.0712  0.8222
 5269WAT     H122881   2.836   0.901   7.058  0.5870  0.2266 -0.5164
 5269WAT     H222882   2.707   0.954   6.998  1.0010  0.4841 -1.1901
 5269WAT    EPW22883   2.780   0.967   7.044  0.1309  0.0413  0.3803
 5270WAT      O22884   3.177   7.703   5.655  0.0259  0.2296  0.0847
 5270WAT     H122885   3.255   7.655   5.682  0.1970  0.9239  0.8672
 5270WAT     H222886   3.105   7.660   5.701 -0.0021 -0.1283 -0.2878
 5270WAT    EPW22887   3.178   7.691   5.665  0.0447  0.2739  0.1388
 5271WAT      O22888   0.533  10.093   4.842  0.0593 -0.3178  0.3815
 5271WAT     H122889   0.627  10.079   4.852  0.6695  2.2413 -0.9559
 5271WAT     H222890   0.517  10.087   4.748 -0.7688  1.0305  0.4171
 5271WAT    EPW22891   0.544  10.090   4.831  0.0305  0.1974  0.2098
 5272WAT      O22892   5.378   7.090   0.505  0.3797 -0.0902  0.1920
 5272WAT     H122893   5.429   7.052   0.577 -0.4274  0.2300  0.9553
 5272WAT     H222894   5.443   7.110   0.438  0.8068 -3.3687 -0.5529
 5272WAT    EPW22895   5.393   7.087   0.506  0.3295 -0.4804  0.1945
 5273WAT      O22896  -5.308   7.686   6.574  0.0036  0.0163 -0.8914
 5273WAT     H122897  -5.362   7.626   6.523 -0.4513  0.0436 -0.4468
 5273WAT     H222898  -5.326   7.773   6.537 -4.0283  0.7921  2.2622
 5273WAT    EPW22899  -5.317   7.690   6.562 -0.5882  0.1223 -0.4170
 5274WAT      O22900   5.082   6.023   5.191  0.6009  0.3905 -0.0311
 5274WAT     H122901   5.052   6.095   5.246 -1.0600  1.2250 -1.9089
 5274WAT     H222902   5.048   5.945   5.234  0.4922  0.8987  0.8427
 5274WAT    EPW22903   5.074   6.022   5.204  0.3674  0.5674 -0.1633
 5275WAT      O22904  -4.553   9.901   6.531 -0.3788  0.0161  0.3132
 5275WAT     H122905  -4.647   9.917   6.520 -0.4426  0.4242  1.3489
 5275WAT     H222906  -4.549   9.830   6.596  0.0223 -0.4832 -0.2454
 5275WAT    EPW22907  -4.565   9.893   6.539 -0.3345  0.0038  0.3760
 5276WAT      O22908  -1.451   8.710   4.357  0.4354  0.5448 -0.5291
 5276WAT     H122909  -1.414   8.783   4.406 -1.5268  1.0097  0.3345
 5276WAT     H222910  -1.520   8.749   4.303  1.7607 -0.1348 -2.8622
 5276WAT    EPW22911  -1.455   8.725   4.356  0.3514  0.5164 -0.7229
 5277WAT      O22912   0.765   2.780   1.032 -0.0192  0.9551 -0.0133
 5277WAT     H122913   0.711   2.850   1.066 -2.2850 -0.7750  0.1432
 5277WAT     H222914   0.760   2.790   0.936 -1.0134  0.5466 -0.0128
 5277WAT    EPW22915   0.758   2.791   1.024 -0.4492  0.6731  0.0074
 5278WAT      O22916  -4.484   9.138   4.826 -0.6015 -0.3920 -0.1137
 5278WAT     H122917  -4.452   9.133   4.916 -1.5761  2.1202  0.4427
 5278WAT     H222918  -4.538   9.216   4.824 -1.8486 -1.2211 -2.5309
 5278WAT    EPW22919  -4.487   9.147   4.838 -0.8948 -0.1702 -0.3591
 5279WAT      O22920  -0.698   2.586   0.401 -0.2827  0.6599  0.2418
 5279WAT     H122921  -0.722   2.613   0.312  1.3772 -0.7625 -0.6929
 5279WAT     H222922  -0.749   2.506   0.416  0.2391  0.3031  0.1324
 5279WAT    EPW22923  -0.708   2.579   0.391  0.0050  0.4252  0.1041
 5280WAT      O22924  -4.800   7.860   6.466  0.4336  0.2202 -0.2093
 5280WAT     H122925  -4.788   7.843   6.559  1.4772 -2.0553 -0.6884
 5280WAT     H222926  -4.862   7.793   6.437  2.2217 -0.9033 -1.6300
 5280WAT    EPW22927  -4.807   7.849   6.475  0.8070 -0.2282 -0.4597
 5281WAT      O22928  -1.056   1.711   2.543  1.1497 -0.3290 -0.0205
 5281WAT     H122929  -1.030   1.680   2.456 -1.3469 -1.1088 -0.5550
 5281WAT     H222930  -1.053   1.633   2.599  0.2028 -0.3941 -0.0498
 5281WAT    EPW22931  -1.052   1.697   2.539  0.6955 -0.4405 -0.0949
 5282WAT      O22932   5.306   3.370   1.698 -0.0409 -0.7916  0.8935
 5282WAT     H122933   5.358   3.448   1.716 -1.9201  0.7549 -0.0046
 5282WAT     H222934   5.309   3.361   1.603  1.0757 -2.5370  1.0534
 5282WAT    EPW22935   5.313   3.379   1.688 -0.1414 -0.8178  0.7961
 5283WAT      O22936  -5.573   9.595   5.282 -0.0140 -0.3558  0.0346
 5283WAT     H122937  -5.627   9.526   5.242  0.3229  1.2811 -3.7343
 5283WAT     H222938  -5.527   9.635   5.208  1.8576  2.2002  2.3534
 5283WAT    EPW22939  -5.574   9.591   5.267  0.2770  0.1974 -0.1566
 5284WAT      O22940   5.536   1.140   0.877 -0.2811 -0.1491  0.7473
 5284WAT     H122941   5.520   1.231   0.855 -2.7410 -1.1129 -2.0189
 5284WAT     H222942   5.599   1.110   0.812  2.1736 -0.0278  2.9066
 5284WAT    EPW22943   5.542   1.148   0.866 -0.2816 -0.2602  0.6672
 5285WAT      O22944   2.636   7.889   2.188  0.1943  0.7289  0.5061
 5285WAT     H122945   2.611   7.956   2.124  0.2611  0.4911  0.2329
 5285WAT     H222946   2.671   7.817   2.136  1.5468  1.0921  0.8764
 5285WAT    EPW22947   2.637   7.889   2.173  0.3815  0.7453  0.5189
 5286WAT      O22948   3.841   5.653   7.581 -0.0397  0.2104  0.5055
 5286WAT     H122949   3.906   5.594   7.620  0.2475  0.9562  1.1730
 5286WAT     H222950   3.893   5.712   7.527 -0.2437  0.3728  0.4887
 5286WAT    EPW22951   3.857   5.653   7.579 -0.0286  0.3302  0.5913
 5287WAT      O22952   0.470   9.341   6.569  0.5425 -0.5767 -0.2773
 5287WAT     H122953   0.562   9.333   6.594 -0.0720 -1.0059  2.1364
 5287WAT     H222954   0.472   9.357   6.475  3.1394  1.0597 -0.0465
 5287WAT    EPW22955   0.483   9.342   6.560  0.8040 -0.4172  0.0715
 5288WAT      O22956  -3.610   9.206   4.561 -0.0174 -0.5522  0.3255
 5288WAT     H122957  -3.680   9.148   4.529 -0.3292  0.7169 -1.3928
 5288WAT     H222958  -3.529   9.160   4.538 -0.2029  0.4205 -2.7883
 5288WAT    EPW22959  -3.609   9.192   4.554 -0.0831 -0.2565 -0.3119
 5289WAT      O22960  -4.159   6.302   8.408  0.0645  1.2461  0.5765
 5289WAT     H122961  -4.250   6.306   8.437 -0.3185  0.9536 -0.5708
 5289WAT     H222962  -4.143   6.387   8.368 -0.7815  0.1496 -2.2998
 5289WAT    EPW22963  -4.169   6.314   8.407 -0.0978  1.0626  0.0458
 5290WAT      O22964  -2.562   8.189   0.714 -0.0725 -0.6247 -0.1198
 5290WAT     H122965  -2.488   8.152   0.763 -0.6091 -1.8760 -0.2172
 5290WAT     H222966  -2.581   8.272   0.759  1.4222 -0.2389 -0.1449
 5290WAT    EPW22967  -2.555   8.195   0.726  0.0538 -0.7386 -0.1360
 5291WAT      O22968  -7.932  10.292   8.645 -0.6031 -1.3514 -0.3959
 5291WAT     H122969  -7.993  10.335   8.704 -2.3128  0.9783 -3.5462
 5291WAT     H222970  -7.974  10.209   8.622  1.1656 -3.4673  3.1556
 5291WAT    EPW22971  -7.945  10.287   8.650 -0.5951 -1.3232 -0.3428
 5292WAT      O22972  -3.217   8.898   0.260 -0.1322 -0.2543 -0.0060
 5292WAT     H122973  -3.239   8.888   0.168  0.0192 -3.2701  0.1624
 5292WAT     H222974  -3.123   8.913   0.261 -0.6684  4.3116 -0.3945
 5292WAT    EPW22975  -3.207   8.898   0.248 -0.1830 -0.0501 -0.0350
 5293WAT      O22976  -4.737   6.883   8.632 -0.1281 -0.6143 -0.3656
 5293WAT     H122977  -4.726   6.832   8.712 -0.4834 -0.2082 -0.0581
 5293WAT     H222978  -4.655   6.871   8.585  0.7271  0.4541  0.7988
 5293WAT    EPW22979  -4.725   6.875   8.636 -0.0622 -0.4201 -0.1717
 5294WAT      O22980   7.698   4.489   0.271 -0.0208  0.1604 -0.1358
 5294WAT     H122981   7.678   4.402   0.304 -1.5184  0.0647 -1.1647
 5294WAT     H222982   7.654   4.549   0.331  0.5030  0.1807  0.2295
 5294WAT    EPW22983   7.690   4.486   0.283 -0.1493  0.1504 -0.2233
 5295WAT      O22984   4.945   2.465   2.180  0.0865  0.2878  0.2143
 5295WAT     H122985   4.888   2.473   2.256 -1.8745  0.8392 -1.2302
 5295WAT     H222986   5.012   2.402   2.206  0.0540  1.1711  2.6848
 5295WAT    EPW22987   4.946   2.458   2.193 -0.1764  0.4771  0.3498
 5296WAT      O22988  -2.245   1.653   4.853  0.0315  1.2813  0.5906
 5296WAT     H122989  -2.257   1.641   4.947  1.9190 -2.3434  0.5679
 5296WAT     H222990  -2.154   1.682   4.845  1.5294 -2.8904 -0.0535
 5296WAT    EPW22991  -2.234   1.655   4.864  0.4780  0.2530  0.5026
 5297WAT      O22992   4.435   7.412   5.402 -0.0112 -0.4290  0.8133
 5297WAT     H122993   4.528   7.393   5.416  0.1403  0.6713  1.4029
 5297WAT     H222994   4.402   7.432   5.489 -0.2385  1.5500  0.3196
 5297WAT    EPW22995   4.443   7.412   5.415 -0.0212 -0.0229  0.8259
 5298WAT      O22996   0.228   0.522   4.596 -0.1974 -0.5544  0.7749
 5298WAT     H122997   0.298   0.582   4.622 -2.5758  3.1828 -0.5178
 5298WAT     H222998   0.150   0.557   4.639 -1.5864 -3.7464  1.1214
 5298WAT    EPW22999   0.227   0.534   4.605 -0.6943 -0.4825  0.6499
 5299WAT      O23000   0.783   1.452   7.381  0.2502 -0.0372 -0.7093
 5299WAT     H123001   0.850   1.392   7.347  1.8289  0.2458  1.6492
 5299WAT     H223002   0.825   1.538   7.377 -0.1724  0.2253  0.2846
 5299WAT    EPW23003   0.798   1.455   7.376  0.4027  0.0347 -0.2670
 5300WAT      O23004   7.333   2.654   1.703  0.7112 -0.0145  0.4375
 5300WAT     H123005   7.396   2.682   1.637  0.3748 -0.1693  0.0427
 5300WAT     H223006   7.248   2.659   1.658  0.4471  0.1649  0.9509
 5300WAT    EPW23007   7.330   2.659   1.688  0.6320 -0.0112  0.4532
 5301WAT      O23008  -1.689   9.927   3.253  0.0503 -0.5767  0.2587
 5301WAT     H123009  -1.732   9.908   3.169 -1.3511  1.0432  0.5601
 5301WAT     H223010  -1.752   9.982   3.300  1.0678 -0.9489  2.1389
 5301WAT    EPW23011  -1.703   9.931   3.248 -0.0004 -0.4120  0.5465
 5302WAT      O23012  -3.163   6.818   7.721 -0.1446 -0.7953  0.1795
 5302WAT     H123013  -3.096   6.808   7.788  1.3762 -2.9355 -1.5192
 5302WAT     H223014  -3.116   6.848   7.644 -1.0449 -2.5224 -1.1169
 5302WAT    EPW23015  -3.148   6.821   7.720 -0.0628 -1.3051 -0.2153
 5303WAT      O23016  -4.242   7.216   3.536  0.3981 -0.1708 -0.4906
 5303WAT     H123017  -4.168   7.230   3.477  0.4082  1.9866 -0.0621
 5303WAT     H223018  -4.316   7.259   3.491 -0.4529 -1.6754 -0.5806
 5303WAT    EPW23019  -4.242   7.224   3.522  0.2873 -0.0846 -0.4460
 5304WAT      O23020   3.288   4.245   2.635 -0.2344  0.4503  0.0598
 5304WAT     H123021   3.215   4.233   2.574  0.9267  2.9548 -2.0010
 5304WAT     H223022   3.361   4.272   2.579  2.0267 -0.9377  2.1642
 5304WAT    EPW23023   3.288   4.247   2.619  0.2168  0.5977  0.0656
 5305WAT      O23024   2.170   7.600   5.065  0.3278 -0.2201  1.1226
 5305WAT     H123025   2.264   7.617   5.074  0.4872 -0.6841  0.4206
 5305WAT     H223026   2.162   7.556   4.981 -0.9205  3.0269 -0.6313
 5305WAT    EPW23027   2.182   7.597   5.055  0.1842  0.1471  0.7987
 5306WAT      O23028   4.534   8.732   2.019 -0.5403 -0.1530  0.5920
 5306WAT     H123029   4.565   8.804   1.963 -1.3775 -0.4274 -0.2443
 5306WAT     H223030   4.490   8.776   2.092 -0.9974  0.1922  0.1153
 5306WAT    EPW23031   4.533   8.747   2.021 -0.7110 -0.1435  0.4188
 5307WAT      O23032   2.660   7.423   0.967 -1.0282 -0.3448  0.0278
 5307WAT     H123033   2.643   7.368   1.043 -1.6982 -2.6023 -1.6256
 5307WAT     H223034   2.744   7.392   0.933 -0.4725  1.0036  0.1211
 5307WAT    EPW23035   2.669   7.412   0.972 -1.0433 -0.4647 -0.1779
 5308WAT      O23036   0.380   8.775   6.979 -0.1301  0.3166  0.4499
 5308WAT     H123037   0.327   8.736   6.910  0.0520 -0.1044  0.5458
 5308WAT     H223038   0.362   8.721   7.056  1.6381 -0.8329  0.1192
 5308WAT    EPW23039   0.370   8.763   6.980  0.1272  0.1097  0.4189
 5309WAT      O23040   3.948   4.568   3.581 -0.1367 -0.3916  0.5161
 5309WAT     H123041   3.961   4.535   3.492 -1.4642 -1.5910  0.7217
 5309WAT     H223042   4.036   4.572   3.619  0.8891  3.2439 -1.8082
 5309WAT    EPW23043   3.961   4.564   3.575 -0.1765 -0.0703  0.2366
 5310WAT      O23044   3.468   2.874   0.880 -0.3718  0.3273 -0.4896
 5310WAT     H123045   3.460   2.956   0.929 -0.6716  1.0541 -1.7131
 5310WAT     H223046   3.418   2.889   0.800 -0.2325 -0.9734 -0.8442
 5310WAT    EPW23047   3.460   2.886   0.876 -0.3930  0.2517 -0.6977
 5311WAT      O23048   6.791   0.065   1.913  0.4838 -0.4932 -0.2552
 5311WAT     H123049   6.792   0.101   2.002 -0.1563 -0.1356 -0.3860
 5311WAT     H223050   6.863   0.002   1.912  1.7787  0.9243 -0.0714
 5311WAT    EPW23051   6.801   0.062   1.925  0.5701 -0.2591 -0.2483
 5312WAT      O23052  -0.288   4.532   6.947  0.3919 -0.3104 -0.3529
 5312WAT     H123053  -0.255   4.512   6.860 -1.3301 -0.8580 -0.9323
 5312WAT     H223054  -0.217   4.507   7.006  1.1112 -1.1278 -1.5215
 5312WAT    EPW23055  -0.275   4.526   6.943  0.2596 -0.4904 -0.5834
 5313WAT      O23056  -1.326   2.218   6.046  0.0448  0.2838 -0.3220
 5313WAT     H123057  -1.309   2.161   5.971  2.9452  0.4859  0.0908
 5313WAT     H223058  -1.295   2.304   6.018 -3.3998  1.6010 -0.5963
 5313WAT    EPW23059  -1.320   2.222   6.032 -0.0269  0.4842 -0.3037
 5314WAT      O23060  -1.168   0.417   7.095 -0.1210 -0.7280  0.0294
 5314WAT     H123061  -1.118   0.365   7.032 -1.6395  0.1254 -1.9775
 5314WAT     H223062  -1.257   0.382   7.090 -0.6958  0.6330  0.2443
 5314WAT    EPW23063  -1.173   0.405   7.086 -0.3970 -0.4359 -0.2069
 5315WAT      O23064  -0.534   6.039   7.416  0.2166  0.3699  0.2615
 5315WAT     H123065  -0.525   6.134   7.420  0.3202  0.4508 -1.2157
 5315WAT     H223066  -0.601   6.024   7.350 -1.3987 -0.5562  2.0302
 5315WAT    EPW23067  -0.541   6.050   7.408  0.0173  0.2582  0.3002
 5316WAT      O23068  -8.126  10.159   8.044  1.0641 -0.5261  0.4499
 5316WAT     H123069  -8.119  10.254   8.032 -2.0517 -0.3243 -0.6988
 5316WAT     H223070  -8.184  10.149   8.119 -0.1397 -1.4504 -0.5639
 5316WAT    EPW23071  -8.133  10.170   8.053  0.4945 -0.6213  0.1650
 5317WAT      O23072  -0.397   4.286   5.943  0.2872 -1.0321 -0.2566
 5317WAT     H123073  -0.443   4.284   6.027 -1.6487 -1.2085 -1.2560
 5317WAT     H223074  -0.353   4.202   5.938  1.9040 -0.3470  1.3072
 5317WAT    EPW23075  -0.397   4.275   5.954  0.2451 -0.9651 -0.1822
 5318WAT      O23076  -3.269   3.640   5.592 -0.5166  0.2164  0.0836
 5318WAT     H123077  -3.234   3.553   5.573 -2.0789 -0.6316  0.8682
 5318WAT     H223078  -3.242   3.658   5.682 -1.1256  0.0291  0.3133
 5318WAT    EPW23079  -3.261   3.631   5.601 -0.8030  0.0799  0.2172
 5319WAT      O23080   3.051   1.381   7.923  0.5530  0.2837 -0.5133
 5319WAT     H123081   3.004   1.442   7.979  4.1873  0.8314  2.2983
 5319WAT     H223082   3.052   1.299   7.972 -0.4915 -0.8340 -2.2376
 5319WAT    EPW23083   3.045   1.378   7.937  0.8945  0.2085 -0.3700
 5320WAT      O23084  -2.834   5.217   8.291 -0.1361  0.6703 -0.6135
 5320WAT     H123085  -2.778   5.284   8.330  0.7925  0.1791 -1.0746
 5320WAT     H223086  -2.784   5.184   8.216 -0.2996 -0.9323 -0.0650
 5320WAT    EPW23087  -2.820   5.221   8.287 -0.0350  0.3939 -0.6022
 5321WAT      O23088   6.994   0.588   4.890  0.8939 -0.1264  0.3895
 5321WAT     H123089   6.975   0.675   4.924  1.8471  0.5886 -0.8120
 5321WAT     H223090   6.910   0.553   4.863  0.2269 -0.3656  2.5637
 5321WAT    EPW23091   6.981   0.595   4.891  0.9317 -0.0636  0.5176
 5322WAT      O23092   4.013   3.965   2.038  0.5470 -0.2269  0.3769
 5322WAT     H123093   4.024   3.871   2.027  1.0760 -0.0778 -0.5094
 5322WAT     H223094   4.038   4.002   1.953 -4.7231  0.4003 -1.2763
 5322WAT    EPW23095   4.018   3.958   2.025 -0.0784 -0.1245  0.0420
 5323WAT      O23096  -4.403   8.665   4.173  0.4263 -0.7640 -0.3983
 5323WAT     H123097  -4.417   8.728   4.244 -2.4802 -0.0148 -1.4801
 5323WAT     H223098  -4.336   8.605   4.206  2.9558  2.4816  0.9405
 5323WAT    EPW23099  -4.396   8.666   4.187  0.3767 -0.2370 -0.3645
 5324WAT      O23100   1.731   3.086   5.356  0.1296  0.2790  0.2826
 5324WAT     H123101   1.670   3.046   5.418 -1.3578  1.8673 -0.0811
 5324WAT     H223102   1.685   3.084   5.272  0.5427  1.5243  0.0046
 5324WAT    EPW23103   1.717   3.081   5.353 -0.0121  0.6527  0.1979
 5325WAT      O23104  -2.488   5.514   7.960 -0.2906 -0.9494 -0.3594
 5325WAT     H123105  -2.437   5.558   8.028 -0.4364 -2.6451  0.9208
 5325WAT     H223106  -2.573   5.498   8.000 -0.4288 -1.8510 -0.9740
 5325WAT    EPW23107  -2.493   5.517   7.974 -0.3281 -1.2918 -0.2718
 5326WAT      O23108  -1.147   0.612   7.697 -0.3535  0.3474 -0.8270
 5326WAT     H123109  -1.071   0.670   7.704  1.9919 -2.7074  2.9421
 5326WAT     H223110  -1.123   0.550   7.628  1.0188 -0.9775  0.7600
 5326WAT    EPW23111  -1.134   0.611   7.689  0.1369 -0.2302 -0.1206
 5327WAT      O23112  -3.232   8.329   3.507 -0.2239 -0.0555 -0.7069
 5327WAT     H123113  -3.194   8.317   3.594 -1.1835 -0.0765 -0.2849
 5327WAT     H223114  -3.225   8.423   3.490  1.1269 -0.2062 -1.1678
 5327WAT    EPW23115  -3.226   8.340   3.516 -0.1723 -0.0777 -0.7120
 5328WAT      O23116  -6.738   9.031   8.079 -0.5444  0.9805 -0.3833
 5328WAT     H123117  -6.646   9.020   8.055 -0.1149 -0.3033  1.5938
 5328WAT     H223118  -6.736   9.077   8.163 -1.7207  1.0076 -0.3445
 5328WAT    EPW23119  -6.726   9.036   8.087 -0.6428  0.8149 -0.1178
 5329WAT      O23120  -4.551  10.177   8.111  0.4255 -0.4297  0.2058
 5329WAT     H123121  -4.558  10.252   8.052 -0.5562  0.1348  1.0080
 5329WAT     H223122  -4.500  10.209   8.185 -1.3674 -0.0178  1.3156
 5329WAT    EPW23123  -4.545  10.191   8.113  0.0594 -0.3009  0.4578
 5330WAT      O23124  -4.156   2.210   8.610  0.3451  0.0075  0.0219
 5330WAT     H123125  -4.133   2.123   8.579 -2.1331 -0.8117  0.2579
 5330WAT     H223126  -4.245   2.201   8.643  0.6407  2.2431  1.6914
 5330WAT    EPW23127  -4.165   2.197   8.610  0.0572  0.1943  0.2732
 5331WAT      O23128   1.330   2.508   2.076  0.1189 -0.0534  0.1959
 5331WAT     H123129   1.357   2.599   2.064  2.8428 -0.7356  0.7035
 5331WAT     H223130   1.237   2.514   2.099  0.2409  2.5794  0.2821
 5331WAT    EPW23131   1.321   2.521   2.077  0.4943  0.2040  0.2743
 5332WAT      O23132  -5.778   7.845   5.824  0.6614  0.1106 -0.0527
 5332WAT     H123133  -5.776   7.756   5.859 -3.0594 -0.1729 -0.1241
 5332WAT     H223134  -5.729   7.840   5.742  1.0494 -1.7025  0.2621
 5332WAT    EPW23135  -5.771   7.833   5.818  0.2217 -0.1657 -0.0207
 5333WAT      O23136  -4.293   0.818   7.553 -0.1621 -0.3624  0.0685
 5333WAT     H123137  -4.360   0.774   7.605 -1.3724  0.7636 -0.4756
 5333WAT     H223138  -4.232   0.749   7.529 -0.8111 -1.3134  1.0756
 5333WAT    EPW23139  -4.294   0.803   7.557 -0.4075 -0.3393  0.1295
 5334WAT      O23140  -1.872   8.475   0.969 -0.2141  0.1016 -0.2953
 5334WAT     H123141  -1.883   8.563   0.932 -2.4116  1.1478  2.4343
 5334WAT     H223142  -1.961   8.438   0.968  0.5376 -1.8047 -0.6510
 5334WAT    EPW23143  -1.885   8.482   0.964 -0.4048 -0.0119  0.0178
 5335WAT      O23144  -2.080   0.499   6.586 -0.8091  0.7778 -0.2196
 5335WAT     H123145  -2.152   0.440   6.564  0.1362 -0.7220  0.5666
 5335WAT     H223146  -2.028   0.505   6.507 -0.8780  0.5202 -0.2821
 5335WAT    EPW23147  -2.083   0.492   6.573 -0.6934  0.5460 -0.1242
 5336WAT      O23148  -1.771   8.552   4.437 -0.1206 -0.4810 -0.1166
 5336WAT     H123149  -1.704   8.570   4.370 -0.4219  3.7196  0.4775
 5336WAT     H223150  -1.727   8.567   4.520 -1.0266 -0.8080  0.4402
 5336WAT    EPW23151  -1.756   8.556   4.439 -0.2799  0.0296  0.0350
 5337WAT      O23152   2.914   6.457   8.838  0.0021 -0.3213  0.2152
 5337WAT     H123153   2.965   6.501   8.905 -2.9606  0.0590  2.4089
 5337WAT     H223154   2.927   6.364   8.855  3.2253 -0.4344 -2.0208
 5337WAT    EPW23155   2.922   6.450   8.849  0.0364 -0.2859  0.2103
 5338WAT      O23156   3.335   7.350   7.584 -0.2221 -0.0432  0.2390
 5338WAT     H123157   3.353   7.347   7.490  0.1039  2.3225  0.1865
 5338WAT     H223158   3.332   7.258   7.610 -0.1170 -0.7489 -2.0351
 5338WAT    EPW23159   3.337   7.337   7.575 -0.1653  0.1757 -0.0677
 5339WAT      O23160   4.009   7.043   5.333 -0.6163  0.1914 -0.3196
 5339WAT     H123161   4.098   7.022   5.306 -1.3503 -0.4461 -2.4669
 5339WAT     H223162   3.979   6.965   5.379 -0.5142 -0.1684 -0.8458
 5339WAT    EPW23163   4.017   7.030   5.335 -0.6995  0.0598 -0.6721
 5340WAT      O23164   9.809   2.258   0.282  0.5950  0.4776 -0.3848
 5340WAT     H123165   9.866   2.235   0.355  1.5062 -2.3247 -1.8479
 5340WAT     H223166   9.868   2.276   0.209 -0.3308  0.1550 -1.2407
 5340WAT    EPW23167   9.824   2.257   0.282  0.5927  0.0656 -0.6907
 5341WAT      O23168   6.777   7.980   1.042  0.8003 -0.0469  0.4330
 5341WAT     H123169   6.790   8.058   1.095 -0.9947  0.8826 -0.4088
 5341WAT     H223170   6.837   7.989   0.968 -0.3179  1.2384 -0.3565
 5341WAT    EPW23171   6.787   7.991   1.039  0.4163  0.2453  0.2178
 5342WAT      O23172   3.173   7.932   6.316  0.2677  0.0364 -0.0937
 5342WAT     H123173   3.231   7.856   6.319 -0.0105 -0.2382 -1.0515
 5342WAT     H223174   3.090   7.897   6.282 -0.6601  0.3129  1.7638
 5342WAT    EPW23175   3.170   7.918   6.312  0.1086  0.0367  0.0250
 5343WAT      O23176   5.068   7.472   1.566  0.5903 -0.3509 -0.6067
 5343WAT     H123177   4.996   7.532   1.545 -0.0174 -0.6980  0.4212
 5343WAT     H223178   5.095   7.498   1.654  1.7071 -0.2571 -0.9589
 5343WAT    EPW23179   5.062   7.484   1.575  0.6573 -0.3843 -0.5176
 5344WAT      O23180  -0.797   8.203   4.177 -0.2738  0.9211  0.0994
 5344WAT     H123181  -0.755   8.265   4.237 -1.8073  0.5557  1.6360
 5344WAT     H223182  -0.754   8.120   4.194  1.2635  1.3370 -1.4271
 5344WAT    EPW23183  -0.786   8.200   4.187 -0.2733  0.9279  0.1009
 5345WAT      O23184   0.199   6.571   6.060 -0.0590 -0.4317  0.4757
 5345WAT     H123185   0.274   6.573   6.118  0.4365 -1.7683 -0.0741
 5345WAT     H223186   0.213   6.644   5.999 -0.2684  0.5851  1.5954
 5345WAT    EPW23187   0.210   6.581   6.060 -0.0213 -0.4737  0.5507
 5346WAT      O23188   0.487   5.874   1.809  0.7049 -0.3155  0.2195
 5346WAT     H123189   0.470   5.890   1.717  0.8283 -0.4688  0.1694
 5346WAT     H223190   0.412   5.823   1.840 -0.0634  0.9895  0.5612
 5346WAT    EPW23191   0.475   5.869   1.801  0.6198 -0.1636  0.2580
 5347WAT      O23192   2.297   3.545   1.762 -0.1150 -0.0888 -0.6025
 5347WAT     H123193   2.232   3.614   1.775 -0.4767 -0.2601 -1.5038
 5347WAT     H223194   2.286   3.487   1.837  1.2173  1.6178  1.0167
 5347WAT    EPW23195   2.287   3.546   1.774  0.0131  0.1137 -0.5078
 5348WAT      O23196   5.852  10.097   0.007  0.2211  0.5648 -0.4697
 5348WAT     H123197   5.849  10.001   0.004 -1.4285  0.6143 -1.2594
 5348WAT     H223198   5.762  10.123   0.030  1.2687  1.8604  2.7771
 5348WAT    EPW23199   5.840  10.087   0.010  0.1416  0.7424 -0.1456
 5349WAT      O23200   1.775   9.092   1.729 -0.7651  0.4210 -0.1041
 5349WAT     H123201   1.692   9.138   1.718  0.4173  2.6967  0.0290
 5349WAT     H223202   1.773   9.064   1.821 -1.1118  1.0576  0.0941
 5349WAT    EPW23203   1.764   9.094   1.740 -0.6549  0.8054 -0.0603
 5350WAT      O23204   4.061   0.049   4.449  0.3371 -0.2866  0.2550
 5350WAT     H123205   4.151   0.054   4.479  0.7459 -1.7435 -0.6681
 5350WAT     H223206   4.054  -0.035   4.404 -1.1275  0.3649 -0.8329
 5350WAT    EPW23207   4.072   0.039   4.447  0.1979 -0.3928 -0.0103
 5351WAT      O23208   0.313   6.823   8.899  0.4346 -0.1862  0.0691
 5351WAT     H123209   0.252   6.768   8.850 -1.4735 -1.7066  3.7574
 5351WAT     H223210   0.294   6.913   8.870 -1.8020 -0.8542 -0.6970
 5351WAT    EPW23211   0.303   6.828   8.889 -0.1121 -0.4749  0.4549
 5352WAT      O23212  -2.116   7.544   7.937 -0.6703 -0.3105  0.3255
 5352WAT     H123213  -2.026   7.568   7.916  0.2141 -2.7749  0.9396
 5352WAT     H223214  -2.111   7.452   7.964 -3.5738 -1.0249 -1.1019
 5352WAT    EPW23215  -2.104   7.535   7.937 -0.9366 -0.7298  0.2184
 5353WAT      O23216   5.527   1.959   3.307 -0.3256  0.5049 -0.2912
 5353WAT     H123217   5.487   1.874   3.290 -2.0929  0.7034  2.3763
 5353WAT     H223218   5.476   2.021   3.254 -0.0275  0.1402 -1.0284
 5353WAT    EPW23219   5.515   1.956   3.298 -0.5193  0.4830 -0.0366
 5354WAT      O23220   8.688   1.727   0.075  0.4049 -0.2902  0.3768
 5354WAT     H123221   8.669   1.639   0.044  1.7005 -0.5773  0.3528
 5354WAT     H223222   8.782   1.727   0.092  0.3129  0.8956  1.0023
 5354WAT    EPW23223   8.698   1.716   0.073  0.5636 -0.1716  0.4562
 5355WAT      O23224   3.441   5.069   2.835 -0.0328 -0.2082 -0.1663
 5355WAT     H123225   3.454   5.014   2.758  1.2720 -0.8160  0.4678
 5355WAT     H223226   3.488   5.024   2.905  1.9044  2.1552  0.1786
 5355WAT    EPW23227   3.449   5.056   2.834  0.3947  0.0234 -0.0371
 5356WAT      O23228   0.122   5.676   6.493 -0.1692 -0.5722  0.0791
 5356WAT     H123229   0.179   5.644   6.424  1.4556  0.0367  1.0767
 5356WAT     H223230   0.119   5.605   6.557  1.5074  0.2673  1.1667
 5356WAT    EPW23231   0.129   5.663   6.492  0.2663 -0.3812  0.3543
 5357WAT      O23232   2.088   1.677   3.625  0.4990  0.5528 -0.3416
 5357WAT     H123233   2.000   1.697   3.658  0.7379  0.6073  0.2738
 5357WAT     H223234   2.138   1.654   3.703  1.4490  2.0408 -0.4617
 5357WAT    EPW23235   2.083   1.677   3.640  0.6559  0.7563 -0.2762
 5358WAT      O23236  -4.481  10.133   4.479 -0.3763 -0.4305  0.1250
 5358WAT     H123237  -4.408  10.175   4.434  0.1828 -1.1648  0.3426
 5358WAT     H223238  -4.539  10.105   4.408 -2.1881  3.1087 -0.0139
 5358WAT    EPW23239  -4.479  10.135   4.464 -0.5414 -0.0606  0.1352
 5359WAT      O23240   7.168   1.405   0.017  0.0233 -0.3148  1.0780
 5359WAT     H123241   7.194   1.367   0.101  0.6566 -3.4767 -0.3609
 5359WAT     H223242   7.245   1.455  -0.011  0.5197 -0.7636  1.6018
 5359WAT    EPW23243   7.182   1.406   0.024  0.1723 -0.7911  0.9575
 5360WAT      O23244   3.346   1.701   1.585  0.7441  0.1640 -0.5857
 5360WAT     H123245   3.362   1.788   1.549  1.0585  0.9409  1.3244
 5360WAT     H223246   3.251   1.689   1.578  0.6086  0.9690 -0.1885
 5360WAT    EPW23247   3.335   1.711   1.579  0.7677  0.3726 -0.2814
 5361WAT      O23248  -4.090   9.201   3.809 -0.4655 -0.0328 -0.0816
 5361WAT     H123249  -4.153   9.273   3.801  1.4589  1.5121 -3.1912
 5361WAT     H223250  -4.053   9.211   3.896 -2.6934  0.5156  0.8814
 5361WAT    EPW23251  -4.093   9.211   3.819 -0.5054  0.2437 -0.3648
 5362WAT      O23252   1.601   8.934   3.043  0.0113 -0.4597 -0.0062
 5362WAT     H123253   1.597   8.933   2.947 -2.3971 -2.1637  0.0056
 5362WAT     H223254   1.694   8.930   3.063  0.6289  0.8212 -2.2342
 5362WAT    EPW23255   1.613   8.933   3.033 -0.2249 -0.5150 -0.2985
 5363WAT      O23256   2.695   6.052   7.029 -0.4337 -0.5568  0.0204
 5363WAT     H123257   2.754   6.076   7.101  0.2836 -0.6950 -0.5179
 5363WAT     H223258   2.674   6.136   6.988  0.3025 -0.6124 -0.4877
 5363WAT    EPW23259   2.700   6.066   7.033 -0.2419 -0.5822 -0.1178
 5364WAT      O23260  -5.504   7.618   7.584  0.4672 -0.4083 -0.6383
 5364WAT     H123261  -5.415   7.593   7.561  1.2978  1.8159 -0.1327
 5364WAT     H223262  -5.498   7.712   7.603 -1.8241 -0.3722  0.2112
 5364WAT    EPW23263  -5.491   7.627   7.584  0.2747 -0.1104 -0.4597
 5365WAT      O23264   1.531   0.136   1.581 -0.2636 -0.5569  0.7660
 5365WAT     H123265   1.565   0.106   1.666  1.1167 -0.4021  0.2814
 5365WAT     H223266   1.464   0.200   1.605 -0.7938 -1.4297  1.7527
 5365WAT    EPW23267   1.526   0.140   1.596 -0.1515 -0.6516  0.8322
 5366WAT      O23268   0.507   8.003   5.144  0.8744 -0.1432 -0.0742
 5366WAT     H123269   0.567   8.072   5.171  2.0550 -1.0857 -0.1837
 5366WAT     H223270   0.562   7.925   5.136 -0.1499 -0.7806 -1.3341
 5366WAT    EPW23271   0.522   8.001   5.146  0.8950 -0.3514 -0.2549
 5367WAT      O23272   6.077   4.954   2.483 -0.0499 -0.3605  0.1196
 5367WAT     H123273   6.148   4.891   2.491 -0.4199 -0.6598  1.2959
 5367WAT     H223274   6.013   4.926   2.548 -0.9107  0.3410 -0.4044
 5367WAT    EPW23275   6.078   4.942   2.493 -0.2124 -0.3073  0.2056
 5368WAT      O23276  -0.150   5.109   3.348 -0.1385 -0.1766 -0.7360
 5368WAT     H123277  -0.229   5.140   3.304 -0.6107 -0.7187 -0.2884
 5368WAT     H223278  -0.078   5.146   3.297 -0.6091  2.9622  0.6439
 5368WAT    EPW23279  -0.151   5.118   3.336 -0.2629  0.1659 -0.4950
 5369WAT      O23280  -1.607   4.710   7.963  0.5064  0.4308 -0.1434
 5369WAT     H123281  -1.682   4.769   7.957 -0.2353 -0.4858 -0.1284
 5369WAT     H223282  -1.636   4.630   7.917  2.4637  1.0498 -2.6946
 5369WAT    EPW23283  -1.621   4.707   7.956  0.6667  0.3915 -0.4780
 5370WAT      O23284  -6.694   5.907   7.942  0.1436 -0.1496  0.5802
 5370WAT     H123285  -6.669   5.962   7.868 -0.5230 -1.9785 -1.0983
 5370WAT     H223286  -6.627   5.924   8.009  0.6879  1.6456 -0.3604
 5370WAT    EPW23287  -6.682   5.916   7.941  0.1276 -0.1538  0.2346
 5371WAT      O23288  -1.987   6.694   0.411  0.1646  0.5961 -0.3350
 5371WAT     H123289  -2.064   6.655   0.451  1.3943 -1.6365 -0.0071
 5371WAT     H223290  -2.014   6.714   0.321 -0.6607 -0.6232 -0.3784
 5371WAT    EPW23291  -2.000   6.692   0.404  0.2180  0.1409 -0.2975
 5372WAT      O23292   1.323   8.596   3.800 -0.3829 -1.1677  0.1702
 5372WAT     H123293   1.377   8.518   3.788  1.2788 -0.1993  1.0082
 5372WAT     H223294   1.246   8.565   3.848  1.5447 -1.9058  3.0503
 5372WAT    EPW23295   1.320   8.581   3.805  0.0905 -1.1373  0.6605
 5373WAT      O23296   3.426   3.256   5.670  0.4194 -0.0284  0.2941
 5373WAT     H123297   3.414   3.293   5.583 -1.3298 -0.7491  0.1901
 5373WAT     H223298   3.517   3.276   5.692  0.8924  0.2136 -1.6664
 5373WAT    EPW23299   3.437   3.263   5.661  0.2511 -0.0914  0.0219
 5374WAT      O23300  -4.757   8.552   4.718 -0.1786  1.1029 -0.2370
 5374WAT     H123301  -4.852   8.561   4.712 -0.0671  1.3458 -2.2561
 5374WAT     H223302  -4.725   8.575   4.631  1.8284  2.0487  0.6936
 5374WAT    EPW23303  -4.765   8.556   4.706  0.1009  1.2598 -0.3808
 5375WAT      O23304   6.157   3.964   5.202 -0.3262  0.4113  0.0607
 5375WAT     H123305   6.240   3.983   5.246  0.0606  0.4745 -0.6922
 5375WAT     H223306   6.176   3.889   5.146 -0.3221  1.4411 -1.3790
 5375WAT    EPW23307   6.170   3.956   5.201 -0.2747  0.5554 -0.2284
 5376WAT      O23308  -2.481   5.934   5.918 -0.9122  0.1729 -0.5367
 5376WAT     H123309  -2.431   5.919   5.998 -1.8370 -0.7848 -0.1168
 5376WAT     H223310  -2.469   6.027   5.899  0.2381  0.1643  0.0710
 5376WAT    EPW23311  -2.473   5.944   5.926 -0.8825  0.0455 -0.4013
 5377WAT      O23312   4.288   7.987   3.720  0.3059  1.0853  0.2728
 5377WAT     H123313   4.383   7.995   3.726  0.4643  0.7842 -1.3923
 5377WAT     H223314   4.274   7.902   3.679 -0.7400  0.6526  1.4583
 5377WAT    EPW23315   4.299   7.977   3.716  0.1891  0.9885  0.2096
 5378WAT      O23316  -3.036   7.027   7.984  0.2778  0.1278 -0.1671
 5378WAT     H123317  -2.999   6.944   8.012  1.4925  1.1572  1.4593
 5378WAT     H223318  -3.017   7.032   7.891  2.1266 -0.4732  0.1417
 5378WAT    EPW23319  -3.029   7.017   7.976  0.6819  0.1843  0.0880
 5379WAT      O23320   4.954   7.301   3.306 -0.0766 -0.0128  0.1705
 5379WAT     H123321   4.885   7.257   3.256 -1.7195  1.7653  0.7474
 5379WAT     H223322   5.020   7.234   3.320 -2.0895 -2.0717  0.3559
 5379WAT    EPW23323   4.954   7.286   3.301 -0.5589 -0.0498  0.2711
 5380WAT      O23324   0.969  10.132   8.294 -0.0317  0.4026  0.9178
 5380WAT     H123325   1.007  10.174   8.218  0.8986 -1.4609  0.2735
 5380WAT     H223326   0.971  10.038   8.273 -0.0375 -0.1496  3.0906
 5380WAT    EPW23327   0.975  10.125   8.281  0.0902  0.0839  1.1191
 5381WAT      O23328   2.144   9.800   3.287  0.3860  0.3024 -0.4072
 5381WAT     H123329   2.156   9.786   3.380 -1.1138 -0.1425 -0.2590
 5381WAT     H223330   2.159   9.894   3.275 -0.6544  0.6068  0.5102
 5381WAT    EPW23331   2.148   9.811   3.297  0.0510  0.2837 -0.2667
 5382WAT      O23332   0.330   2.839   0.277 -0.1182  0.3357  0.4498
 5382WAT     H123333   0.348   2.765   0.335 -0.1923 -1.2219 -1.4072
 5382WAT     H223334   0.408   2.893   0.281  0.8296 -0.9800  0.2371
 5382WAT    EPW23335   0.342   2.836   0.285 -0.0030 -0.0433  0.1768
 5383WAT      O23336  -2.143   2.015   2.886 -0.0059 -0.1380  0.0210
 5383WAT     H123337  -2.215   1.959   2.855 -0.1567 -0.4293  0.8575
 5383WAT     H223338  -2.115   2.064   2.809 -1.1040 -0.0231 -0.3178
 5383WAT    EPW23339  -2.149   2.014   2.872 -0.1706 -0.1612  0.0867
 5384WAT      O23340   3.318   9.819   0.134  0.1658  0.4145 -0.3500
 5384WAT     H123341   3.402   9.820   0.179 -0.7896  3.5744  1.6815
 5384WAT     H223342   3.255   9.793   0.201 -0.6854 -0.6791 -1.5206
 5384WAT    EPW23343   3.321   9.815   0.148 -0.0725  0.6871 -0.2364
 5385WAT      O23344  -1.448   5.640   8.334 -0.6179  0.4630  0.0223
 5385WAT     H123345  -1.366   5.679   8.304 -0.3383 -1.4510 -1.9251
 5385WAT     H223346  -1.513   5.708   8.320  0.0205  0.6696 -2.2356
 5385WAT    EPW23347  -1.445   5.654   8.328 -0.4969  0.2379 -0.5322
 5386WAT      O23348  -0.888   6.051   7.042  0.0186 -0.6238  0.5636
 5386WAT     H123349  -0.872   5.983   6.976  0.0321  0.6786 -0.8287
 5386WAT     H223350  -0.975   6.086   7.019  0.0726 -0.0755  1.1771
 5386WAT    EPW23351  -0.898   6.046   7.030  0.0275 -0.3798  0.4609
 5387WAT      O23352  -2.135   2.703   6.046 -0.2104  0.4186 -0.2925
 5387WAT     H123353  -2.053   2.654   6.045  1.2626  2.7158 -1.9817
 5387WAT     H223354  -2.139   2.745   5.960 -1.2866  3.2640  1.0036
 5387WAT    EPW23355  -2.125   2.702   6.034 -0.1581  1.0970 -0.3443
 5388WAT      O23356  -2.265   2.227   8.250 -0.3775  0.4880  1.3594
 5388WAT     H123357  -2.247   2.215   8.157 -1.2585 -0.7931  1.3160
 5388WAT     H223358  -2.347   2.277   8.252 -0.1990  0.7750  1.4468
 5388WAT    EPW23359  -2.274   2.232   8.238 -0.4700  0.3569  1.3657
 5389WAT      O23360   1.809   6.047   2.951 -0.7529  0.3085 -0.4549
 5389WAT     H123361   1.756   6.097   3.014 -3.9941 -0.8434 -2.0650
 5389WAT     H223362   1.862   6.114   2.907 -0.7545  1.5232  1.2570
 5389WAT    EPW23363   1.809   6.063   2.954 -1.1806  0.3169 -0.4416
 5390WAT      O23364   5.164   1.807   1.273 -0.3577  0.4178 -0.2783
 5390WAT     H123365   5.146   1.857   1.193  1.5203  2.6289  0.5712
 5390WAT     H223366   5.249   1.767   1.257  0.8790  2.2928  1.1383
 5390WAT    EPW23367   5.173   1.809   1.260  0.0532  0.9568  0.0206
 5391WAT      O23368   7.279   5.219   2.446 -0.0590 -0.0174 -0.5858
 5391WAT     H123369   7.374   5.216   2.444  0.1942  0.5747  3.1769
 5391WAT     H223370   7.252   5.130   2.468 -0.0209  0.5136  1.9246
 5391WAT    EPW23371   7.288   5.207   2.448 -0.0205  0.1307  0.2415
 5392WAT      O23372   2.850   2.212   8.787  0.1827  0.1092  0.4344
 5392WAT     H123373   2.852   2.205   8.691  0.8210  0.1162  0.4437
 5392WAT     H223374   2.757   2.217   8.808  0.0748  2.3582 -0.3530
 5392WAT    EPW23375   2.838   2.211   8.777  0.2526  0.4067  0.3314
 5393WAT      O23376  -2.598   8.149   3.613  0.7754  0.9370 -0.4937
 5393WAT     H123377  -2.637   8.082   3.669  0.2016  0.7733 -1.0791
 5393WAT     H223378  -2.564   8.215   3.674  0.5780  0.5366  0.0537
 5393WAT    EPW23379  -2.598   8.149   3.629  0.6738  0.8626 -0.4987
 5394WAT      O23380   4.106   8.272   4.935 -0.6316  0.3162 -0.5516
 5394WAT     H123381   4.029   8.263   4.992 -0.3672 -1.3794 -0.4090
 5394WAT     H223382   4.143   8.184   4.931  0.7535  0.9065 -1.4115
 5394WAT    EPW23383   4.101   8.259   4.942 -0.4141  0.1702 -0.6464
 5395WAT      O23384   0.151   6.642   8.556 -0.6383 -0.7810  0.4102
 5395WAT     H123385   0.241   6.625   8.527 -0.3637 -0.4767  1.0478
 5395WAT     H223386   0.097   6.621   8.481 -0.0541 -1.2779  0.1166
 5395WAT    EPW23387   0.156   6.637   8.543 -0.5250 -0.8063  0.4554
 5396WAT      O23388   0.115   6.613   1.943  0.6375  0.4853  0.0827
 5396WAT     H123389   0.181   6.571   1.888 -0.2311  0.7156 -1.1746
 5396WAT     H223390   0.032   6.572   1.917 -0.3562  3.3278 -1.7025
 5396WAT    EPW23391   0.112   6.602   1.932  0.3919  0.8905 -0.3186
 5397WAT      O23392  -4.435   2.240   8.707 -0.4585  0.1450  0.0508
 5397WAT     H123393  -4.456   2.321   8.659 -0.0924  0.9200  1.1670
 5397WAT     H223394  -4.514   2.219   8.755 -1.0534 -1.0084 -1.3563
 5397WAT    EPW23395  -4.448   2.248   8.707 -0.4885  0.0951  0.0124
 5398WAT      O23396   6.236   5.474   4.284  0.0462  0.1385  0.1922
 5398WAT     H123397   6.210   5.461   4.375 -0.2358  1.4879  0.3208
 5398WAT     H223398   6.191   5.554   4.257  3.2144  2.0786  0.1303
 5398WAT    EPW23399   6.227   5.483   4.292  0.4270  0.5722  0.2012
 5399WAT      O23400   1.556   2.644   5.636  0.2272 -0.2911  0.9066
 5399WAT     H123401   1.623   2.607   5.579 -0.1285 -1.3632  1.1690
 5399WAT     H223402   1.474   2.603   5.607 -0.4363  1.3801  0.2363
 5399WAT    EPW23403   1.554   2.634   5.624  0.0927 -0.2121  0.8528
 5400WAT      O23404   4.333   6.015   1.154  0.3338 -0.1470  0.0222
 5400WAT     H123405   4.284   5.950   1.205  0.3355 -0.7263 -0.6975
 5400WAT     H223406   4.268   6.082   1.133  0.0506 -0.4855 -0.1959
 5400WAT    EPW23407   4.318   6.016   1.158  0.2968 -0.2680 -0.1015
 5401WAT      O23408   3.188   2.992   6.816 -0.2788  0.2940 -0.7159
 5401WAT     H123409   3.137   3.057   6.865  1.6100  1.3093  0.0407
 5401WAT     H223410   3.222   3.040   6.741  0.3200 -0.0773 -0.6922
 5401WAT    EPW23411   3.186   3.007   6.813  0.0494  0.3790 -0.6130
 5402WAT      O23412  -5.081   3.960   6.377 -0.1512  0.7488 -0.3629
 5402WAT     H123413  -5.052   3.879   6.419 -0.0968  0.6270 -0.6281
 5402WAT     H223414  -5.175   3.964   6.396 -0.2621  0.3487 -0.7821
 5402WAT    EPW23415  -5.090   3.950   6.385 -0.1585  0.6799 -0.4535
 5403WAT      O23416  -6.182  10.149   6.029  0.6655  0.1851  0.0539
 5403WAT     H123417  -6.204  10.225   6.084 -1.2035  0.2083 -0.6350
 5403WAT     H223418  -6.140  10.187   5.951  0.6095  0.4324  0.1444
 5403WAT    EPW23419  -6.180  10.164   6.026  0.4115  0.2208 -0.0250
 5404WAT      O23420   3.482   3.090   4.914  0.1106 -0.4835  0.0711
 5404WAT     H123421   3.565   3.135   4.928 -0.4330  1.0772 -1.3489
 5404WAT     H223422   3.469   3.038   4.994  1.2576  1.1333  1.3805
 5404WAT    EPW23423   3.491   3.089   4.927  0.1900 -0.0644  0.0565
 5405WAT      O23424  -3.904  10.172   1.595  0.0919  0.2683  0.1517
 5405WAT     H123425  -3.810  10.190   1.588  0.8655 -3.0851 -0.1305
 5405WAT     H223426  -3.936  10.174   1.505 -0.3333  2.0723  0.3017
 5405WAT    EPW23427  -3.896  10.174   1.582  0.1379  0.0644  0.1343
 5406WAT      O23428   3.128   2.075   7.647 -0.3666  0.2752 -0.0268
 5406WAT     H123429   3.173   2.109   7.570  0.5990  1.4847  1.0108
 5406WAT     H223430   3.060   2.139   7.665 -0.5692  0.0163  0.1334
 5406WAT    EPW23431   3.125   2.088   7.640 -0.2658  0.4007  0.1311
 5407WAT      O23432   4.453   5.634   0.883 -0.2946  0.3387  0.2224
 5407WAT     H123433   4.476   5.542   0.870  3.0530  0.6615  2.5164
 5407WAT     H223434   4.449   5.646   0.978 -1.9926  2.3372 -0.0142
 5407WAT    EPW23435   4.456   5.624   0.894 -0.0772  0.6447  0.4938
 5408WAT      O23436  -6.103   5.980   8.311  0.4247  0.1564  0.0300
 5408WAT     H123437  -6.093   6.036   8.388  3.4693 -0.1009 -0.0198
 5408WAT     H223438  -6.107   5.891   8.347  1.9413  0.0291 -0.0411
 5408WAT    EPW23439  -6.102   5.976   8.326  1.0262  0.1059  0.0143
 5409WAT      O23440   6.482   2.232   0.870  0.0509  0.0964  0.2786
 5409WAT     H123441   6.554   2.267   0.922 -0.0585  0.0851  0.4402
 5409WAT     H223442   6.430   2.181   0.933 -0.3234  0.4389  0.2484
 5409WAT    EPW23443   6.485   2.230   0.885 -0.0129  0.1402  0.2959
 5410WAT      O23444   1.699   1.273   7.328 -0.0811 -0.4069  0.7608
 5410WAT     H123445   1.793   1.280   7.310 -0.2636  0.0621 -0.0512
 5410WAT     H223446   1.684   1.180   7.345  0.5265 -0.4829  0.9022
 5410WAT    EPW23447   1.710   1.262   7.328 -0.0251 -0.3551  0.6723
 5411WAT      O23448   1.666   3.006   5.633 -0.5787  0.1585  0.0895
 5411WAT     H123449   1.753   2.989   5.598 -0.4506 -1.9254  1.2451
 5411WAT     H223450   1.662   2.955   5.713 -2.0053  2.1830  1.4254
 5411WAT    EPW23451   1.677   2.997   5.639 -0.7500  0.1506  0.4179
 5412WAT      O23452   2.772  10.338   4.524  0.2113  0.0877 -0.3207
 5412WAT     H123453   2.828  10.410   4.555 -0.2425  0.5907 -0.6451
 5412WAT     H223454   2.770  10.348   4.429 -0.4764  0.1207 -0.3086
 5412WAT    EPW23455   2.779  10.349   4.516  0.0608  0.1583 -0.3619
 5413WAT      O23456   2.622   5.783   6.983  0.2930  0.0385  0.3332
 5413WAT     H123457   2.561   5.758   7.053 -1.6514  0.6999 -1.0485
 5413WAT     H223458   2.652   5.870   7.008  0.6021 -0.2457  0.9737
 5413WAT    EPW23459   2.618   5.791   6.996  0.0772  0.0880  0.2356
 5414WAT      O23460   2.667   9.724   6.202  0.5113  0.3875  0.0043
 5414WAT     H123461   2.679   9.631   6.184 -2.1483 -0.0803  0.1929
 5414WAT     H223462   2.636   9.727   6.293  0.9751  1.4958  0.1406
 5414WAT    EPW23463   2.664   9.712   6.212  0.2216  0.4721  0.0472
 5415WAT      O23464  -3.657   5.841   3.517 -0.6536 -0.0303  0.0520
 5415WAT     H123465  -3.696   5.910   3.462  0.4494  0.6323  0.0712
 5415WAT     H223466  -3.566   5.867   3.526 -0.1734 -1.6074 -0.0717
 5415WAT    EPW23467  -3.650   5.854   3.511 -0.4449 -0.1509  0.0381
 5416WAT      O23468   3.043   1.926   1.553 -0.0758  0.3816  0.0860
 5416WAT     H123469   3.084   1.901   1.471 -0.1907  0.3621  0.0346
 5416WAT     H223470   3.116   1.937   1.614 -0.0699 -0.7577  0.2933
 5416WAT    EPW23471   3.058   1.925   1.550 -0.0901  0.2288  0.1065
 5417WAT      O23472  -0.684   4.515   8.784 -0.2013 -0.5566  0.2057
 5417WAT     H123473  -0.589   4.507   8.787  0.2008  2.9038  1.2263
 5417WAT     H223474  -0.702   4.553   8.698 -0.9431 -3.0097 -0.7906
 5417WAT    EPW23475  -0.674   4.519   8.773 -0.2461 -0.4237  0.2084
 5418WAT      O23476  -0.092   5.818   0.064  0.7311 -0.1136  0.4284
 5418WAT     H123477  -0.025   5.867   0.016  0.7558  0.4650  1.0362
 5418WAT     H223478  -0.146   5.777  -0.004  0.5834  0.9296 -0.0934
 5418WAT    EPW23479  -0.090   5.819   0.049  0.7149  0.1003  0.4396
 5419WAT      O23480   3.521  10.338   3.665 -0.1950  0.3241  0.3521
 5419WAT     H123481   3.581  10.317   3.736  1.4510  1.4704 -0.6232
 5419WAT     H223482   3.435  10.343   3.706  0.5086 -0.4118  1.9774
 5419WAT    EPW23483   3.518  10.336   3.680  0.1149  0.3781  0.4377
 5420WAT      O23484  -1.259   7.142   8.953 -0.0201  0.3074 -0.0796
 5420WAT     H123485  -1.276   7.206   9.022  0.6109 -0.4805  0.8427
 5420WAT     H223486  -1.330   7.153   8.890 -1.1555  0.3737  1.1932
 5420WAT    EPW23487  -1.270   7.152   8.953 -0.0867  0.2122  0.2098
 5421WAT      O23488  -2.204   5.168   1.878  0.2960  0.2306 -0.2949
 5421WAT     H123489  -2.270   5.185   1.945  0.0458 -0.2212 -0.4267
 5421WAT     H223490  -2.161   5.253   1.864  0.2925  0.3452  0.3758
 5421WAT    EPW23491  -2.207   5.182   1.885  0.2625  0.1862 -0.2239
 5422WAT      O23492   4.957   0.172   2.279  0.2596  0.0075  0.0736
 5422WAT     H123493   4.934   0.163   2.186 -0.4372 -2.8686  0.4151
 5422WAT     H223494   5.009   0.093   2.298  2.3346  1.6360  1.6430
 5422WAT    EPW23495   4.961   0.160   2.269  0.4413 -0.1571  0.3256
 5423WAT      O23496   2.906   5.459   5.599  0.3844 -0.0536  0.4046
 5423WAT     H123497   2.878   5.503   5.679  0.5525 -0.3320  0.6175
 5423WAT     H223498   2.829   5.410   5.571  0.0308  0.7873 -0.1218
 5423WAT    EPW23499   2.892   5.458   5.606  0.3599  0.0205  0.3633
 5424WAT      O23500   1.702   2.405   2.915  0.3274  0.5796 -0.4964
 5424WAT     H123501   1.651   2.468   2.865  0.8552 -0.3271 -2.2606
 5424WAT     H223502   1.701   2.325   2.862  2.4753  0.1334  0.0147
 5424WAT    EPW23503   1.696   2.403   2.902  0.6803  0.4011 -0.6616
 5425WAT      O23504   3.757   5.357   8.127 -0.2032  0.3951 -0.6531
 5425WAT     H123505   3.846   5.335   8.099 -0.1642  0.1563 -0.3443
 5425WAT     H223506   3.763   5.367   8.222 -0.9686 -1.9459 -0.3051
 5425WAT    EPW23507   3.769   5.356   8.136 -0.2991  0.0548 -0.5660
 5426WAT      O23508   1.806   9.337   4.270 -0.0323 -0.4809 -0.2721
 5426WAT     H123509   1.866   9.265   4.253  0.1656 -0.2201 -0.6900
 5426WAT     H223510   1.743   9.301   4.333 -0.4402 -1.2850 -1.1257
 5426WAT    EPW23511   1.806   9.323   4.276 -0.0600 -0.5527 -0.4399
 5427WAT      O23512   1.214   5.611   2.207  0.0642 -0.5092  0.4808
 5427WAT     H123513   1.290   5.593   2.263  0.5466 -0.9125 -0.2986
 5427WAT     H223514   1.142   5.623   2.269  0.7610 -0.0856  1.2367
 5427WAT    EPW23515   1.215   5.610   2.223  0.2197 -0.5064  0.4777
 5428WAT      O23516   7.842   5.176   0.284 -0.2991  0.2157 -0.9650
 5428WAT     H123517   7.915   5.170   0.345  0.2912 -0.4029 -1.7172
 5428WAT     H223518   7.818   5.086   0.266 -1.8952  0.4092  0.0108
 5428WAT    EPW23519   7.848   5.164   0.290 -0.4318  0.1595 -0.9355
 5429WAT      O23520   5.172   0.365   2.223  0.1029  0.1679  0.0906
 5429WAT     H123521   5.179   0.438   2.285 -0.2221 -0.2560  0.6311
 5429WAT     H223522   5.085   0.329   2.239 -0.8527  1.3594 -2.0688
 5429WAT    EPW23523   5.162   0.370   2.233 -0.0658  0.2692 -0.1228
 5430WAT      O23524   0.888   0.402   5.252 -0.1535 -0.4130  0.1020
 5430WAT     H123525   0.922   0.433   5.168  2.5851 -4.1727 -0.4881
 5430WAT     H223526   0.919   0.466   5.315  0.9014  0.6435 -1.4078
 5430WAT    EPW23527   0.897   0.414   5.249  0.3469 -0.7696 -0.1750
 5431WAT      O23528  -2.619   7.158   1.182 -0.3376 -0.2885 -0.7416
 5431WAT     H123529  -2.707   7.142   1.217  0.1434 -2.4703 -0.3580
 5431WAT     H223530  -2.628   7.148   1.088 -0.4537 -0.7413 -0.6825
 5431WAT    EPW23531  -2.632   7.155   1.174 -0.2894 -0.6359 -0.6832
 5432WAT      O23532   3.155   6.410   1.466 -0.5333  0.5253  1.0317
 5432WAT     H123533   3.238   6.382   1.504 -0.2980 -0.7583 -0.3281
 5432WAT     H223534   3.107   6.448   1.539  2.6749  4.9793  1.2472
 5432WAT    EPW23535   3.160   6.412   1.481 -0.0790  0.9434  0.8808
 5433WAT      O23536  -2.736   4.166   3.810  0.3750  0.0831 -0.0505
 5433WAT     H123537  -2.734   4.092   3.871  1.2246 -0.5759 -0.8506
 5433WAT     H223538  -2.652   4.163   3.766 -0.2715  0.4601 -1.3522
 5433WAT    EPW23539  -2.725   4.156   3.812  0.4017  0.0460 -0.3277
 5434WAT      O23540   4.944   9.048   3.011  0.3176 -0.4195 -0.1873
 5434WAT     H123541   4.972   9.114   3.075 -2.2342  0.3680  0.2326
 5434WAT     H223542   4.959   8.965   3.055 -0.3043  0.0738  0.9959
 5434WAT    EPW23543   4.950   9.046   3.025 -0.1011 -0.2508  0.0242
 5435WAT      O23544  -1.439   7.847   7.607  0.3469 -0.2324 -0.2997
 5435WAT     H123545  -1.386   7.771   7.635  0.1412  0.6239  2.8837
 5435WAT     H223546  -1.509   7.851   7.672  0.7122  2.9889  0.0449
 5435WAT    EPW23547  -1.441   7.838   7.619  0.3679  0.3054  0.1655
 5436WAT      O23548  -6.513  10.331   5.236  1.1449  0.4416 -0.4498
 5436WAT     H123549  -6.516  10.272   5.160  1.6955  2.2913 -1.9892
 5436WAT     H223550  -6.421  10.333   5.261  1.1917  0.9464 -0.6578
 5436WAT    EPW23551  -6.501  10.324   5.229  1.2238  0.7520 -0.6800
 5437WAT      O23552   5.777   9.113   1.846  0.0619  0.5790  0.0775
 5437WAT     H123553   5.706   9.055   1.875  1.3491 -0.7998  0.5844
 5437WAT     H223554   5.830   9.127   1.924 -0.4650  2.9106  0.1009
 5437WAT    EPW23555   5.775   9.107   1.860  0.1621  0.7048  0.1474
 5438WAT      O23556   2.499   6.443   0.702 -0.2088  0.9925 -0.0504
 5438WAT     H123557   2.511   6.378   0.770 -4.5936 -0.1597 -0.1228
 5438WAT     H223558   2.577   6.499   0.709  0.6638 -0.3779  4.3021
 5438WAT    EPW23559   2.511   6.442   0.712 -0.6721  0.6597  0.5141
 5439WAT      O23560  -4.393   9.585   7.659  0.1356 -0.3669 -0.2605
 5439WAT     H123561  -4.415   9.647   7.728 -2.7162 -0.5381 -0.8898
 5439WAT     H223562  -4.358   9.508   7.705  0.7064  0.4868  0.7549
 5439WAT    EPW23563  -4.391   9.583   7.674 -0.1652 -0.2770 -0.2096
 5440WAT      O23564   5.073   4.979   4.237  0.6992 -0.5942  0.3223
 5440WAT     H123565   5.129   4.931   4.177  1.8361  0.5793  0.4005
 5440WAT     H223566   5.044   5.056   4.187 -0.6582 -1.0457  0.3664
 5440WAT    EPW23567   5.077   4.983   4.223  0.6702 -0.4988  0.3386
 5441WAT      O23568  -0.321   9.054   4.493  0.5231  0.0471  0.1723
 5441WAT     H123569  -0.359   8.971   4.522  0.3978  0.6669  1.9370
 5441WAT     H223570  -0.389   9.094   4.439  0.9858 -1.4181 -1.6029
 5441WAT    EPW23571  -0.335   9.049   4.490  0.5676 -0.0639  0.1707
 5442WAT      O23572   2.846   6.227   1.726  0.9430 -0.4189  0.1032
 5442WAT     H123573   2.860   6.296   1.791 -0.5553  0.6178 -0.6168
 5442WAT     H223574   2.908   6.159   1.751 -1.1560 -1.1933  4.1921
 5442WAT    EPW23575   2.856   6.227   1.738  0.4685 -0.3841  0.5475
 5443WAT      O23576   2.294   9.385   7.761 -0.4530  0.1502 -0.4172
 5443WAT     H123577   2.288   9.422   7.849 -1.4674  0.5458 -0.6373
 5443WAT     H223578   2.216   9.417   7.716 -0.4765 -0.8773 -1.1462
 5443WAT    EPW23579   2.283   9.394   7.767 -0.5898  0.0668 -0.5422
 5444WAT      O23580   2.985   6.016   4.391 -0.6111  0.3084 -0.3964
 5444WAT     H123581   3.051   5.953   4.416  0.3894  1.6660  0.5397
 5444WAT     H223582   2.933   6.029   4.470 -0.0668  1.5010 -0.2086
 5444WAT    EPW23583   2.987   6.010   4.404 -0.4073  0.6447 -0.2482
 5445WAT      O23584   0.460   1.599   7.003  0.8570 -0.2563 -0.0630
 5445WAT     H123585   0.385   1.551   7.038  1.3338  0.1239  1.5966
 5445WAT     H223586   0.536   1.551   7.037  1.3394  1.2225  1.0716
 5445WAT    EPW23587   0.460   1.586   7.012  0.9835 -0.0111  0.3057
 5446WAT      O23588   4.537   8.281   2.221  0.0111  0.1596  0.3799
 5446WAT     H123589   4.613   8.326   2.258  1.6706 -1.9445 -0.2556
 5446WAT     H223590   4.540   8.193   2.260 -0.9468 -0.5936 -1.1356
 5446WAT    EPW23591   4.547   8.275   2.231  0.1040 -0.2170  0.0962
 5447WAT      O23592  -1.308   5.627   8.792 -0.6734 -0.2950 -0.4965
 5447WAT     H123593  -1.222   5.658   8.819 -1.4372  1.6180 -0.1222
 5447WAT     H223594  -1.290   5.567   8.720  1.1258 -2.1068  1.3241
 5447WAT    EPW23595  -1.295   5.623   8.786 -0.5369 -0.2816 -0.2069
 5448WAT      O23596   5.246   2.185   1.979  0.2869  0.1643 -0.0551
 5448WAT     H123597   5.227   2.143   1.895 -1.8318 -0.3395  0.6174
 5448WAT     H223598   5.204   2.271   1.971  3.5814  1.8233 -0.9799
 5448WAT    EPW23599   5.238   2.191   1.967  0.4420  0.3166 -0.0883
 5449WAT      O23600  -0.919   8.712   2.450  0.1772  0.6611 -0.2022
 5449WAT     H123601  -0.895   8.620   2.459 -3.9435 -0.4790  1.1494
 5449WAT     H223602  -0.845   8.759   2.489  3.0986 -1.8320 -2.2162
 5449WAT    EPW23603  -0.906   8.706   2.456  0.0190  0.1822 -0.2894
 5450WAT      O23604   1.003   0.341   7.494 -0.4146  0.3916  0.2373
 5450WAT     H123605   1.018   0.260   7.447 -0.3574 -0.0540  1.0020
 5450WAT     H223606   1.071   0.342   7.562 -0.1121  1.3100 -0.0597
 5450WAT    EPW23607   1.014   0.331   7.497 -0.3672  0.4539  0.2990
 5451WAT      O23608   6.374   3.621   3.293  0.2623 -0.0425 -0.2172
 5451WAT     H123609   6.321   3.688   3.250 -1.3448 -2.3074 -2.0664
 5451WAT     H223610   6.464   3.648   3.278 -0.3355  2.0672 -0.2187
 5451WAT    EPW23611   6.379   3.633   3.285 -0.0286 -0.0629 -0.4613
 5452WAT      O23612   1.448   8.922   7.886 -0.3198  0.4124  0.6945
 5452WAT     H123613   1.498   8.912   7.967 -0.1240 -0.4792  0.4723
 5452WAT     H223614   1.357   8.902   7.910 -0.5559  1.8103  1.0490
 5452WAT    EPW23615   1.442   8.918   7.900 -0.3251  0.4787  0.7119
 5453WAT      O23616  -3.562   2.461   5.819  0.1493 -0.0482 -0.3177
 5453WAT     H123617  -3.607   2.545   5.807 -0.7587 -0.3797  0.6095
 5453WAT     H223618  -3.471   2.485   5.833  0.0457  0.7316 -0.8912
 5453WAT    EPW23619  -3.556   2.475   5.819  0.0159  0.0110 -0.2711
 5454WAT      O23620   7.144   5.601   1.041  0.5038  0.2847 -0.0071
 5454WAT     H123621   7.097   5.541   1.099 -1.2814  2.1331  0.5670
 5454WAT     H223622   7.219   5.631   1.092  0.1896  0.2011  0.5063
 5454WAT    EPW23623   7.147   5.597   1.055  0.2270  0.5176  0.1363
 5455WAT      O23624   1.523   4.805   4.059  0.3498  0.5171  0.0828
 5455WAT     H123625   1.518   4.858   3.980 -0.6679  2.4075  1.3409
 5455WAT     H223626   1.617   4.788   4.071  0.8370  2.9985  0.2190
 5455WAT    EPW23627   1.535   4.810   4.050  0.2798  1.0936  0.2666
 5456WAT      O23628   3.699   1.004   8.397  0.7293 -0.0009 -0.2012
 5456WAT     H123629   3.674   1.061   8.470  0.8470  1.2684 -1.0947
 5456WAT     H223630   3.687   1.060   8.320 -1.2521 -1.8519 -1.3641
 5456WAT    EPW23631   3.694   1.019   8.396  0.4835 -0.0777 -0.4721
 5457WAT      O23632  -2.545   0.285   8.798 -0.2739  0.0312 -0.2767
 5457WAT     H123633  -2.619   0.336   8.765 -0.9951 -1.6934 -1.4892
 5457WAT     H223634  -2.488   0.275   8.722 -0.3082 -1.1885 -0.1543
 5457WAT    EPW23635  -2.548   0.291   8.784 -0.3735 -0.3571 -0.4206
 5458WAT      O23636   4.632   2.162   3.849 -0.0598  0.4947  0.3286
 5458WAT     H123637   4.647   2.137   3.757 -4.0837 -1.4171 -0.0167
 5458WAT     H223638   4.593   2.249   3.843  2.3633  1.6584  0.5518
 5458WAT    EPW23639   4.629   2.170   3.836 -0.2708  0.3960  0.3124
 5459WAT      O23640   4.594   4.423   5.400 -0.1625 -0.4679  0.2586
 5459WAT     H123641   4.673   4.476   5.408  0.3269 -1.2655  0.9724
 5459WAT     H223642   4.621   4.336   5.430 -0.9904 -1.0718 -0.6881
 5459WAT    EPW23643   4.608   4.418   5.405 -0.2072 -0.6528  0.2277
 5460WAT      O23644   4.629   3.198   0.666  0.3548  0.1093  0.3935
 5460WAT     H123645   4.626   3.254   0.744  2.5549  0.6693  0.1475
 5460WAT     H223646   4.604   3.255   0.594 -1.0747 -0.2486  0.5792
 5460WAT    EPW23647   4.625   3.213   0.667  0.4566  0.1360  0.3856
 5461WAT      O23648   5.069   0.980   2.012  0.4626  0.6932 -0.3986
 5461WAT     H123649   4.980   0.954   1.987 -0.0779  3.0574 -1.2526
 5461WAT     H223650   5.126   0.922   1.962 -0.6263  0.6456 -1.6658
 5461WAT    EPW23651   5.065   0.969   2.002  0.2477  0.9988 -0.6784
 5462WAT      O23652   2.614   8.065   8.291 -0.1198 -0.9223 -0.1865
 5462WAT     H123653   2.701   8.076   8.330 -1.3270 -0.5684  2.6576
 5462WAT     H223654   2.595   7.972   8.301 -0.9007 -0.6363  1.2651
 5462WAT    EPW23655   2.623   8.054   8.298 -0.3821 -0.8378  0.3800
 5463WAT      O23656  -3.699   7.280   8.759 -0.2131 -0.8113  0.3758
 5463WAT     H123657  -3.775   7.243   8.714  0.5158 -1.5312 -0.2937
 5463WAT     H223658  -3.658   7.206   8.803  2.1384 -1.2308 -2.2288
 5463WAT    EPW23659  -3.704   7.266   8.759  0.1931 -0.9618 -0.0563
 5464WAT      O23660  -3.939   1.460   7.189  0.7710  0.6404  0.0186
 5464WAT     H123661  -3.902   1.393   7.132  0.9630  2.4571 -2.1423
 5464WAT     H223662  -3.870   1.478   7.253  1.3592 -0.0008 -0.4223
 5464WAT    EPW23663  -3.925   1.453   7.190  0.8739  0.7955 -0.3245
 5465WAT      O23664   4.919   3.710   3.901 -0.2926 -0.3455  0.0447
 5465WAT     H123665   4.907   3.616   3.911 -0.7795 -0.2232  0.6450
 5465WAT     H223666   4.999   3.730   3.951 -0.3447 -0.3966  0.1478
 5465WAT    EPW23667   4.928   3.701   3.909 -0.3636 -0.3362  0.1374
 5466WAT      O23668  -4.839   6.934   6.138 -0.3472  0.6069  0.6134
 5466WAT     H123669  -4.923   6.890   6.152 -0.6186  1.1309  0.7017
 5466WAT     H223670  -4.863   7.016   6.095  0.3602 -0.3443 -1.6920
 5466WAT    EPW23671  -4.853   6.939   6.134 -0.2897  0.5507  0.3209
 5467WAT      O23672  -4.918   4.035   6.770  0.4016  0.4845  0.1790
 5467WAT     H123673  -4.971   4.024   6.849  0.5668 -0.8548  0.1120
 5467WAT     H223674  -4.897   3.946   6.741  1.4323  0.9680 -0.6459
 5467WAT    EPW23675  -4.922   4.022   6.776  0.5593  0.3715  0.0613
 5468WAT      O23676   2.570   6.117   4.519 -0.6345  0.4398 -0.0640
 5468WAT     H123677   2.560   6.190   4.580  0.2326 -0.7643  1.5903
 5468WAT     H223678   2.482   6.079   4.512 -0.6462  0.2582  0.9075
 5468WAT    EPW23679   2.557   6.122   4.526 -0.5217  0.2570  0.2820
 5469WAT      O23680  -1.769   5.702   5.395  0.0632  0.5610  0.6696
 5469WAT     H123681  -1.844   5.727   5.342 -1.3864  0.8813  2.7706
 5469WAT     H223682  -1.731   5.628   5.348 -1.0914  0.8485 -0.8198
 5469WAT    EPW23683  -1.774   5.696   5.381 -0.2803  0.6413  0.7503
 5470WAT      O23684   6.788   7.761   1.421 -0.4090  0.0543 -0.4792
 5470WAT     H123685   6.711   7.803   1.383  1.0939  2.0247 -1.5733
 5470WAT     H223686   6.839   7.833   1.458  0.7185 -1.2361  0.5914
 5470WAT    EPW23687   6.785   7.776   1.421 -0.0620  0.1440 -0.4823
 5471WAT      O23688   2.857   1.026   2.389  0.4576 -0.3224  0.5103
 5471WAT     H123689   2.784   1.086   2.370 -1.1167 -2.3262 -0.0443
 5471WAT     H223690   2.816   0.941   2.404  2.7620 -1.8878 -1.2619
 5471WAT    EPW23691   2.842   1.023   2.389  0.5540 -0.7931  0.2034
 5472WAT      O23692   3.407   1.333   4.550 -0.4175 -0.0453 -0.0676
 5472WAT     H123693   3.400   1.423   4.580 -2.3234  0.2514 -1.1970
 5472WAT     H223694   3.346   1.284   4.605  0.6171 -0.6735  0.5513
 5472WAT    EPW23695   3.398   1.338   4.561 -0.5325 -0.0890 -0.1352
 5473WAT      O23696   3.221   1.269   2.159 -0.3230 -0.5454 -1.0370
 5473WAT     H123697   3.273   1.322   2.098 -1.3834  1.8541  0.0277
 5473WAT     H223698   3.183   1.201   2.104  1.5647 -0.6120 -2.3643
 5473WAT    EPW23699   3.223   1.267   2.143 -0.2139 -0.2378 -1.0716
 5474WAT      O23700   2.443   6.323   2.125 -0.5212 -0.5981 -0.0127
 5474WAT     H123701   2.485   6.343   2.042 -0.1682 -1.0061  0.0641
 5474WAT     H223702   2.476   6.236   2.149  1.1112  0.3914  1.6116
 5474WAT    EPW23703   2.453   6.314   2.117 -0.2593 -0.5212  0.2116
 5475WAT      O23704   2.229   7.349   2.697  0.0043 -0.3029  0.6113
 5475WAT     H123705   2.247   7.262   2.662  0.9582 -0.4150  1.3267
 5475WAT     H223706   2.141   7.342   2.734  0.5267 -1.3382  1.7291
 5475WAT    EPW23707   2.220   7.337   2.697  0.1991 -0.4544  0.8529
 5476WAT      O23708   4.105   5.211   0.401  0.4797  0.3535 -0.1672
 5476WAT     H123709   4.045   5.152   0.446 -1.3985  2.1418 -0.1326
 5476WAT     H223710   4.078   5.207   0.309  0.1139  1.3159 -0.1223
 5476WAT    EPW23711   4.094   5.203   0.395  0.1836  0.7162 -0.1567
 5477WAT      O23712  -1.427   6.457   5.120 -0.6205  0.1769  0.1873
 5477WAT     H123713  -1.482   6.469   5.197 -1.6849 -0.4662 -0.4422
 5477WAT     H223714  -1.429   6.542   5.076 -1.3356  0.0956  0.0427
 5477WAT    EPW23715  -1.434   6.470   5.124 -0.8552  0.0813  0.0851
 5478WAT      O23716   8.448   5.548   0.021  0.8460 -0.5682 -0.6724
 5478WAT     H123717   8.477   5.512   0.105 -0.1368 -0.5732 -0.3181
 5478WAT     H223718   8.360   5.512   0.009 -0.1636  1.6086 -0.3559
 5478WAT    EPW23719   8.440   5.538   0.031  0.5832 -0.2818 -0.5839
 5479WAT      O23720   2.972   6.093   6.875 -0.0622 -0.2098 -0.2154
 5479WAT     H123721   3.057   6.073   6.834 -0.6528  0.5428 -1.9347
 5479WAT     H223722   2.912   6.028   6.839 -0.0286 -1.5175  1.9370
 5479WAT    EPW23723   2.975   6.082   6.865 -0.1357 -0.2830 -0.1583
 5480WAT      O23724   1.359   6.838   1.307  0.1522  0.7034  1.1673
 5480WAT     H123725   1.341   6.744   1.306  3.3496 -0.0333  2.3530
 5480WAT     H223726   1.400   6.856   1.223  0.2957  0.8613  1.2702
 5480WAT    EPW23727   1.362   6.828   1.296  0.5928  0.6270  1.3372
 5481WAT      O23728   1.592   9.326   0.098 -0.4120  0.5573  0.0917
 5481WAT     H123729   1.600   9.387   0.171  1.2968  0.3339  0.1477
 5481WAT     H223730   1.682   9.295   0.084 -1.0070 -0.7783 -0.9264
 5481WAT    EPW23731   1.605   9.330   0.106 -0.2651  0.3519 -0.0352
 5482WAT      O23732  -3.075   5.890   5.283 -0.0175 -0.0023  0.4776
 5482WAT     H123733  -3.060   5.969   5.232 -0.4914  0.4346  0.9932
 5482WAT     H223734  -3.088   5.821   5.219  1.3864  0.1415  0.0185
 5482WAT    EPW23735  -3.075   5.891   5.268  0.1051  0.0744  0.4849
 5483WAT      O23736   1.930   7.370   8.286  0.3571  0.2997  0.0685
 5483WAT     H123737   2.006   7.311   8.291  1.0597  1.0671 -1.1187
 5483WAT     H223738   1.902   7.366   8.194  1.3822  2.9515 -0.4473
 5483WAT    EPW23739   1.936   7.362   8.275  0.5850  0.7505 -0.1559
 5484WAT      O23740  -4.122   5.258   8.763 -0.4818 -0.3293  0.7234
 5484WAT     H123741  -4.201   5.280   8.714  0.7040  1.4853 -0.4936
 5484WAT     H223742  -4.089   5.178   8.720 -0.9026 -0.2874  0.3106
 5484WAT    EPW23743  -4.128   5.250   8.751 -0.3805 -0.0844  0.5088
 5485WAT      O23744  -1.423   8.753   6.924  0.4851  0.3095 -0.1831
 5485WAT     H123745  -1.506   8.712   6.899  0.0574  0.2702  1.2245
 5485WAT     H223746  -1.380   8.772   6.841 -1.7440  2.0533 -1.0416
 5485WAT    EPW23747  -1.429   8.750   6.910  0.1346  0.5345 -0.1109
 5486WAT      O23748   1.490   7.006   3.694 -0.3549  0.1446 -0.0211
 5486WAT     H123749   1.410   7.006   3.746  1.7898 -0.2215  3.6047
 5486WAT     H223750   1.480   6.931   3.635 -3.7385  1.7578 -1.7821
 5486WAT    EPW23751   1.478   6.996   3.693 -0.5183  0.3090  0.2248
 5487WAT      O23752   1.892   3.638   6.069 -0.7981  0.2128 -0.1994
 5487WAT     H123753   1.929   3.598   5.990  0.5866 -2.3107  1.5700
 5487WAT     H223754   1.804   3.602   6.075 -0.2620 -1.0726  0.3155
 5487WAT    EPW23755   1.885   3.628   6.059 -0.5448 -0.2897  0.1018
 5488WAT      O23756  -6.291   8.505   7.654 -0.6149  0.3582  0.6692
 5488WAT     H123757  -6.319   8.415   7.671  0.3712  0.0749  0.8711
 5488WAT     H223758  -6.207   8.496   7.608 -0.3321  1.1683  0.9985
 5488WAT    EPW23759  -6.283   8.492   7.650 -0.4478  0.4277  0.7393
 5489WAT      O23760   2.313   8.345   3.470  0.4389  0.0564  0.3838
 5489WAT     H123761   2.381   8.278   3.469 -0.4218 -0.9806  2.9133
 5489WAT     H223762   2.343   8.410   3.534 -0.3780  0.1949  0.6466
 5489WAT    EPW23763   2.326   8.345   3.478  0.2177 -0.0625  0.7520
 5490WAT      O23764   4.925   4.229   3.431 -0.8051  0.7816  0.0722
 5490WAT     H123765   4.893   4.287   3.500 -3.2116  1.0846 -1.1682
 5490WAT     H223766   4.981   4.166   3.476 -1.5020  1.5514  2.1182
 5490WAT    EPW23767   4.928   4.228   3.446 -1.2145  0.9229  0.1785
 5491WAT      O23768  -5.044   9.876   6.056 -0.4587  0.5750 -0.4892
 5491WAT     H123769  -5.104   9.946   6.031  0.0779  0.7765 -1.2755
 5491WAT     H223770  -5.098   9.811   6.101 -0.7898  1.9404  1.1613
 5491WAT    EPW23771  -5.059   9.876   6.059 -0.4318  0.7820 -0.3753
 5492WAT      O23772   4.342   4.845   1.063 -0.1006  0.0740 -0.1702
 5492WAT     H123773   4.254   4.817   1.037  1.0880 -2.5704 -1.6477
 5492WAT     H223774   4.337   4.855   1.158 -1.9555 -0.0550 -0.2190
 5492WAT    EPW23775   4.329   4.843   1.072 -0.1884 -0.2916 -0.3715
 5493WAT      O23776   0.730   1.806   5.128  0.4002  0.2816  0.3888
 5493WAT     H123777   0.640   1.835   5.144  0.9692  2.7981 -0.5630
 5493WAT     H223778   0.747   1.831   5.037  1.1368 -2.8992 -0.5003
 5493WAT    EPW23779   0.720   1.813   5.118  0.5724  0.1940  0.1459
 5494WAT      O23780   1.527   7.974   6.913 -0.1296 -0.1760  0.0116
 5494WAT     H123781   1.582   7.914   6.962 -1.4099 -0.3484  1.3156
 5494WAT     H223782   1.472   8.016   6.979 -1.4368  0.1070 -1.1921
 5494WAT    EPW23783   1.527   7.972   6.928 -0.4708 -0.1614  0.0250
 5495WAT      O23784   0.221   6.821   8.058  0.5518 -0.4410  0.3451
 5495WAT     H123785   0.274   6.819   8.138 -0.2781 -0.2142  0.9174
 5495WAT     H223786   0.284   6.830   7.987  1.4178 -2.2491  0.8413
 5495WAT    EPW23787   0.236   6.822   8.059  0.5566 -0.6495  0.4864
 5496WAT      O23788  -1.505   0.837   7.662 -0.0966  0.8432 -0.6042
 5496WAT     H123789  -1.553   0.832   7.580  0.2749 -1.1009 -0.7551
 5496WAT     H223790  -1.482   0.746   7.682  0.6475  1.3726  1.1608
 5496WAT    EPW23791  -1.508   0.824   7.654  0.0505  0.6566 -0.3915
 5497WAT      O23792  -0.007   3.229   7.628 -0.2111 -0.6289  0.5919
 5497WAT     H123793  -0.019   3.292   7.699  2.0737 -1.3427  1.7081
 5497WAT     H223794   0.009   3.283   7.551 -1.1758  0.1450  0.9054
 5497WAT    EPW23795  -0.007   3.244   7.627 -0.0370 -0.6210  0.7806
 5498WAT      O23796   3.900  10.150   4.013  0.3270  0.1414 -1.0889
 5498WAT     H123797   3.954  10.205   4.069 -0.6043 -0.7920  0.8127
 5498WAT     H223798   3.818  10.199   4.004 -0.9687 -1.3095  1.6056
 5498WAT    EPW23799   3.896  10.164   4.019  0.0333 -0.1736 -0.4828
 5499WAT      O23800  -4.528  10.162   5.804  0.2197 -0.2647 -0.0157
 5499WAT     H123801  -4.495  10.162   5.714 -0.7053  1.9711 -0.4200
 5499WAT     H223802  -4.599  10.225   5.804  0.2708 -0.1009  2.3248
 5499WAT    EPW23803  -4.533  10.170   5.793  0.1044  0.0520  0.2396
 5500WAT      O23804  -0.036   4.465   4.696 -0.3562  0.6836 -0.0513
 5500WAT     H123805  -0.072   4.440   4.781 -0.6753 -0.0331 -0.3914
 5500WAT     H223806   0.053   4.430   4.697  1.0678  3.9684  1.4998
 5500WAT    EPW23807  -0.029   4.457   4.707 -0.2105  1.0223  0.1085
 5501WAT      O23808   4.411   2.009   6.421 -0.0483 -0.7095 -0.7044
 5501WAT     H123809   4.399   2.077   6.354  0.6871 -1.4426 -1.6114
 5501WAT     H223810   4.505   2.000   6.429  0.0780  1.6393  2.8752
 5501WAT    EPW23811   4.422   2.017   6.413  0.0656 -0.4965 -0.3519
 5502WAT      O23812  -0.711   0.076   2.916 -0.2314 -0.5203 -0.7285
 5502WAT     H123813  -0.771   0.023   2.969 -0.7254 -1.2140 -1.9338
 5502WAT     H223814  -0.764   0.102   2.840  1.3436 -2.3592 -2.5544
 5502WAT    EPW23815  -0.726   0.072   2.913 -0.0888 -0.8543 -1.1283
 5503WAT      O23816   4.048   2.136   1.102  0.1975  0.2709 -0.3608
 5503WAT     H123817   4.039   2.070   1.033  0.7479 -0.1694 -0.0101
 5503WAT     H223818   3.990   2.207   1.074 -0.7356 -0.5381 -0.5207
 5503WAT    EPW23819   4.039   2.137   1.089  0.1473  0.1061 -0.3356
 5504WAT      O23820   2.057   3.397   8.296  0.1896  0.1023  0.0806
 5504WAT     H123821   2.043   3.353   8.379 -1.7999 -0.4603 -0.4938
 5504WAT     H223822   1.991   3.359   8.237  0.8567  1.2152 -1.4603
 5504WAT    EPW23823   2.046   3.386   8.299  0.0153  0.1749 -0.1984
 5505WAT      O23824   4.652   1.702   1.360 -0.4452 -0.4571 -0.7643
 5505WAT     H123825   4.678   1.789   1.327 -1.2865  0.5822  1.2039
 5505WAT     H223826   4.728   1.673   1.411  0.0412 -1.1499 -1.8440
 5505WAT    EPW23827   4.666   1.710   1.362 -0.4919 -0.4114 -0.6471
 5506WAT      O23828   5.806   1.073   3.911  0.2282  0.1940  0.3562
 5506WAT     H123829   5.860   1.138   3.865 -2.6452  1.7651 -1.0926
 5506WAT     H223830   5.811   1.099   4.003 -0.2116  2.0800 -0.1034
 5506WAT    EPW23831   5.814   1.085   3.917 -0.2086  0.6499  0.1045
 5507WAT      O23832  -2.023   4.936   1.849  0.3026 -0.2086 -0.7198
 5507WAT     H123833  -2.041   5.030   1.852 -1.6994 -0.5565 -0.5176
 5507WAT     H223834  -1.977   4.923   1.766 -2.2046  0.5713 -2.3485
 5507WAT    EPW23835  -2.020   4.946   1.838 -0.2922 -0.1516 -0.9080
 5508WAT      O23836  -5.383  10.326   4.517  0.0746 -0.3078  0.4405
 5508WAT     H123837  -5.429  10.287   4.592 -2.8067 -0.1784 -1.1129
 5508WAT     H223838  -5.427  10.410   4.503 -0.4333 -0.9151 -2.1600
 5508WAT    EPW23839  -5.395  10.332   4.525 -0.3724 -0.3705 -0.1075
 5509WAT      O23840   0.304   4.571   0.677 -0.4110 -0.5650  1.1231
 5509WAT     H123841   0.382   4.519   0.697  0.5552  0.6263  0.6057
 5509WAT     H223842   0.334   4.661   0.681 -1.4337 -0.1131 -0.4365
 5509WAT    EPW23843   0.318   4.576   0.680 -0.4184 -0.3483  0.8492
 5510WAT      O23844   7.958   4.197   1.221 -0.3498  0.3641  0.1553
 5510WAT     H123845   7.978   4.236   1.136  1.5725  0.0298  0.4017
 5510WAT     H223846   7.900   4.123   1.201  1.0635 -0.4643 -1.0391
 5510WAT    EPW23847   7.953   4.192   1.207  0.0901  0.2108  0.0303
 5511WAT      O23848   1.746   5.046   5.069 -0.6437 -0.8456 -0.5934
 5511WAT     H123849   1.824   4.991   5.069 -0.1146 -0.1211 -0.6275
 5511WAT     H223850   1.777   5.131   5.101 -1.8814 -1.1379  1.5837
 5511WAT    EPW23851   1.760   5.050   5.073 -0.7372 -0.7887 -0.3109
 5512WAT      O23852  -1.625   9.294   8.605  0.0994  0.0789  0.4283
 5512WAT     H123853  -1.711   9.260   8.631 -0.4731  2.2587  1.7140
 5512WAT     H223854  -1.563   9.250   8.663 -0.7046  1.6584  2.6244
 5512WAT    EPW23855  -1.629   9.284   8.616 -0.0821  0.5746  0.8874
 5513WAT      O23856   5.786   8.603   1.761 -0.0935  0.0572  0.3903
 5513WAT     H123857   5.713   8.542   1.747 -2.0750  2.4265 -0.3542
 5513WAT     H223858   5.776   8.632   1.852  0.0010  0.3019  0.3229
 5513WAT    EPW23859   5.775   8.599   1.771 -0.3426  0.4015  0.2832
 5514WAT      O23860  -3.474   6.413   8.694  0.3830 -0.1781  0.5399
 5514WAT     H123861  -3.452   6.496   8.736  0.6072  0.2601 -0.4310
 5514WAT     H223862  -3.569   6.416   8.682  0.3260 -0.2785  0.9386
 5514WAT    EPW23863  -3.484   6.424   8.698  0.4051 -0.1335  0.4644
 5515WAT      O23864  -2.411   9.602   3.381 -0.1010  0.2372 -0.3471
 5515WAT     H123865  -2.380   9.546   3.452  0.2655 -0.0280 -0.7134
 5515WAT     H223866  -2.392   9.691   3.410  0.2854  0.1143 -0.2284
 5515WAT    EPW23867  -2.405   9.606   3.394 -0.0017  0.1860 -0.3798
 5516WAT      O23868   0.351   4.166   7.236 -0.4889 -0.6877  0.0023
 5516WAT     H123869   0.337   4.112   7.159  2.9831 -1.7043 -0.0990
 5516WAT     H223870   0.421   4.226   7.211 -1.5821  1.2838  1.3622
 5516WAT    EPW23871   0.359   4.167   7.222 -0.1752 -0.5617  0.1683
 5517WAT      O23872   7.867   3.901   2.916 -0.0712 -0.7282 -0.1393
 5517WAT     H123873   7.868   3.844   2.840  2.2168 -3.7743  1.9100
 5517WAT     H223874   7.787   3.953   2.907 -1.4621 -3.1076 -3.0180
 5517WAT    EPW23875   7.857   3.901   2.905  0.0472 -1.4437 -0.2487
 5518WAT      O23876  -0.707   6.879   1.272  0.1116 -0.1781  0.1722
 5518WAT     H123877  -0.781   6.836   1.231  0.3248 -0.4715  0.0949
 5518WAT     H223878  -0.745   6.927   1.346 -0.7885  2.8144 -2.0040
 5518WAT    EPW23879  -0.722   6.880   1.277  0.0210  0.1781 -0.1251
 5519WAT      O23880  -2.547   9.446   5.030  0.1843  1.0195  0.4574
 5519WAT     H123881  -2.584   9.451   5.118 -0.8532  0.8881  0.0408
 5519WAT     H223882  -2.546   9.352   5.010 -1.6653  1.1553 -0.5007
 5519WAT    EPW23883  -2.551   9.434   5.039 -0.1966  1.0200  0.2761
 5520WAT      O23884   7.782   1.783   3.030 -0.2898  0.3369  0.5130
 5520WAT     H123885   7.743   1.734   2.957 -0.6740 -0.6019  1.3237
 5520WAT     H223886   7.707   1.828   3.071 -0.0729  0.8704  0.3409
 5520WAT    EPW23887   7.767   1.783   3.026 -0.3119  0.2834  0.5971
 5521WAT      O23888  -0.004  10.050   4.480  0.3371  0.4165 -0.9508
 5521WAT     H123889  -0.078  10.008   4.437  0.3402  0.9275 -1.4793
 5521WAT     H223890  -0.042  10.093   4.557  0.9520 -4.1240  2.2573
 5521WAT    EPW23891  -0.019  10.050   4.485  0.4186 -0.1154 -0.5972
 5522WAT      O23892  -0.367   2.872   3.951 -0.8202 -0.0401 -0.0326
 5522WAT     H123893  -0.385   2.923   4.029 -0.9157 -0.7731  0.4302
 5522WAT     H223894  -0.280   2.835   3.965  0.0045  1.3579 -1.1173
 5522WAT    EPW23895  -0.358   2.874   3.963 -0.7240  0.0477 -0.1146
 5523WAT      O23896  -1.710   0.416   3.026 -0.3697  0.0058  0.0057
 5523WAT     H123897  -1.633   0.472   3.030 -0.8028  0.9246 -2.5804
 5523WAT     H223898  -1.728   0.406   2.933 -2.4362 -1.5273  0.4829
 5523WAT    EPW23899  -1.702   0.422   3.014 -0.6994 -0.0752 -0.2724
 5524WAT      O23900   0.871   4.343   8.721  0.6158 -0.3329  0.8566
 5524WAT     H123901   0.798   4.289   8.691 -0.8965  0.9530  2.0450
 5524WAT     H223902   0.902   4.388   8.642 -0.8581  0.1903  0.5344
 5524WAT    EPW23903   0.865   4.342   8.707  0.2220 -0.0944  0.9708
 5525WAT      O23904   0.717   0.080   1.602 -0.3010 -0.1102  0.5654
 5525WAT     H123905   0.683  -0.008   1.587 -1.3314  0.4276 -0.3919
 5525WAT     H223906   0.702   0.126   1.520  0.6536  0.8332  0.8957
 5525WAT    EPW23907   0.710   0.075   1.589 -0.3110  0.0851  0.4827
 5526WAT      O23908  -2.047   7.891   4.191  0.2722  0.4067 -0.0789
 5526WAT     H123909  -2.089   7.955   4.248 -1.2237  0.0073 -0.6774
 5526WAT     H223910  -2.058   7.808   4.237  0.1635  0.2609 -0.3649
 5526WAT    EPW23911  -2.054   7.888   4.205  0.0606  0.3350 -0.1957
 5527WAT      O23912   7.918   0.202   2.895  0.0435  0.6746  0.0020
 5527WAT     H123913   7.950   0.263   2.961  0.1219  0.2816  0.3349
 5527WAT     H223914   7.828   0.228   2.879  0.4781  1.7208 -0.8526
 5527WAT    EPW23915   7.911   0.213   2.902  0.1111  0.7607 -0.0668
 5528WAT      O23916   3.984   9.249   0.664  0.1054  0.5100 -0.3549
 5528WAT     H123917   3.953   9.224   0.752 -0.1831 -4.6220 -1.6061
 5528WAT     H223918   3.905   9.251   0.611  0.6521 -0.6753 -1.2511
 5528WAT    EPW23919   3.969   9.246   0.669  0.1394 -0.3233 -0.6381
 5529WAT      O23920  -4.168  10.055   4.467  1.2763 -1.1074  0.1782
 5529WAT     H123921  -4.228   9.987   4.497  1.5431 -0.8057  1.4482
 5529WAT     H223922  -4.094  10.051   4.528  0.2474  1.8516  1.7710
 5529WAT    EPW23923  -4.166  10.046   4.479  1.1759 -0.6771  0.5558
 5530WAT      O23924   1.491   9.931   8.834 -0.9076  0.0948  0.2263
 5530WAT     H123925   1.558   9.863   8.837 -0.0080  0.9499 -0.0190
 5530WAT     H223926   1.513   9.983   8.757 -1.9690  0.2940  0.0360
 5530WAT    EPW23927   1.502   9.929   8.824 -0.9290  0.2341  0.1688
 5531WAT      O23928   3.173   5.949   0.133  0.1863 -0.2075 -0.7676
 5531WAT     H123929   3.081   5.975   0.129  0.4555  1.5758  1.8139
 5531WAT     H223930   3.178   5.889   0.207  1.0405 -0.6698 -1.1804
 5531WAT    EPW23931   3.162   5.945   0.142  0.3345 -0.0331 -0.4816
 5532WAT      O23932   6.219   4.811   3.708  0.0349 -0.6742 -0.0374
 5532WAT     H123933   6.155   4.744   3.732  0.0763 -1.0144 -0.8550
 5532WAT     H223934   6.197   4.886   3.763  0.0353 -1.3760  0.9487
 5532WAT    EPW23935   6.208   4.812   3.718  0.0403 -0.8116 -0.0151
 5533WAT      O23936  -0.240   7.616   8.967 -0.3019 -0.0070 -0.3937
 5533WAT     H123937  -0.291   7.577   8.897 -0.2151  0.4714 -0.7313
 5533WAT     H223938  -0.176   7.550   8.990 -2.0726 -1.2897  1.1665
 5533WAT    EPW23939  -0.238   7.602   8.961 -0.5240 -0.1132 -0.2322
 5534WAT      O23940  -0.063   6.913   1.724  0.8011  0.0731 -0.6150
 5534WAT     H123941  -0.021   6.999   1.713 -1.3376  1.2762 -0.1196
 5534WAT     H223942  -0.051   6.870   1.639 -0.9942  2.3336 -2.1867
 5534WAT    EPW23943  -0.056   6.919   1.711  0.2822  0.5300 -0.7569
 5535WAT      O23944   2.932   2.166   1.490  0.5289  0.3477  0.1628
 5535WAT     H123945   2.838   2.159   1.511 -0.4456  0.5085 -3.4299
 5535WAT     H223946   2.972   2.092   1.535 -1.7469 -1.0088  0.1279
 5535WAT    EPW23947   2.925   2.155   1.498  0.1003  0.1900 -0.3156
 5536WAT      O23948   0.111  10.227   1.516 -0.0257  0.3417  0.0918
 5536WAT     H123949   0.059  10.220   1.436 -3.6332  0.6750  2.2053
 5536WAT     H223950   0.134  10.320   1.521 -0.7478  0.5333 -0.0325
 5536WAT    EPW23951   0.107  10.238   1.506 -0.5968  0.4110  0.3541
 5537WAT      O23952   2.587   8.332   8.007 -0.2732 -0.1533  0.3232
 5537WAT     H123953   2.569   8.401   7.943 -1.4348  1.3561  2.1132
 5537WAT     H223954   2.591   8.251   7.957  0.3461  1.1218 -1.7833
 5537WAT    EPW23955   2.585   8.331   7.992 -0.3449  0.2141  0.2816
 5538WAT      O23956   1.706   0.593   7.654  0.4463 -0.2469 -0.7222
 5538WAT     H123957   1.705   0.598   7.559 -1.3856  0.6676 -0.6918
 5538WAT     H223958   1.683   0.502   7.674 -0.7663 -0.0549 -1.1669
 5538WAT    EPW23959   1.703   0.582   7.644  0.0447 -0.1010 -0.7768
 5539WAT      O23960  -4.341   7.923   8.309 -0.0603 -0.1390 -0.1821
 5539WAT     H123961  -4.378   7.841   8.343 -0.5075 -0.1823 -0.7513
 5539WAT     H223962  -4.371   7.990   8.370  0.2951 -0.3979  0.2800
 5539WAT    EPW23963  -4.350   7.921   8.321 -0.0725 -0.1788 -0.1965
 5540WAT      O23964   3.480   3.707   4.911 -0.3067 -0.0492 -0.0730
 5540WAT     H123965   3.465   3.731   4.819 -1.2258  0.4921  0.1982
 5540WAT     H223966   3.435   3.624   4.921  1.4026 -1.0797 -0.5713
 5540WAT    EPW23967   3.472   3.699   4.900 -0.2025 -0.1137 -0.1030
 5541WAT      O23968   3.686   3.861   8.813 -0.3625 -0.2561  0.5491
 5541WAT     H123969   3.672   3.810   8.733  2.0273  0.7407 -0.5942
 5541WAT     H223970   3.598   3.889   8.838 -1.4488 -2.6244 -0.2955
 5541WAT    EPW23971   3.672   3.858   8.805 -0.1906 -0.4371  0.2871
 5542WAT      O23972  -2.427   3.784   2.562  0.0290 -0.4112  0.5870
 5542WAT     H123973  -2.363   3.844   2.524 -0.3513  0.3190  1.0784
 5542WAT     H223974  -2.424   3.707   2.505  0.0745  0.3205 -0.4256
 5542WAT    EPW23975  -2.418   3.782   2.550 -0.0151 -0.2184  0.5182
 5543WAT      O23976   0.881   5.654   0.472 -0.0711  0.2334 -0.2105
 5543WAT     H123977   0.890   5.736   0.422  0.8494  0.6974  0.6807
 5543WAT     H223978   0.866   5.587   0.406  1.9901  0.6893 -1.2388
 5543WAT    EPW23979   0.880   5.656   0.457  0.3222  0.3548 -0.2286
 5544WAT      O23980   2.896   6.353   0.646  0.0338  0.6594  0.3700
 5544WAT     H123981   2.912   6.264   0.616  0.6246  0.5619  0.9509
 5544WAT     H223982   2.902   6.348   0.741  3.6062  1.8983  0.3696
 5544WAT    EPW23983   2.899   6.341   0.655  0.5829  0.8099  0.4465
 5545WAT      O23984   2.147   2.039   4.427 -0.0409  0.4389 -0.1367
 5545WAT     H123985   2.069   2.016   4.477 -0.1850  0.3947 -0.3775
 5545WAT     H223986   2.208   2.073   4.492  0.4767 -1.3410  0.3647
 5545WAT    EPW23987   2.145   2.040   4.442  0.0083  0.1984 -0.1023
 5546WAT      O23988  -6.158   5.642   7.707 -0.1678  0.4098  0.3700
 5546WAT     H123989  -6.144   5.553   7.740  0.1818  0.0671 -0.6536
 5546WAT     H223990  -6.175   5.695   7.785 -2.4362 -0.9228  0.8443
 5546WAT    EPW23991  -6.158   5.637   7.721 -0.4210  0.1888  0.2973
 5547WAT      O23992  -4.754   9.533   3.966  0.3399 -0.3841  0.5767
 5547WAT     H123993  -4.779   9.622   3.941 -1.9055 -1.5529 -1.7475
 5547WAT     H223994  -4.794   9.520   4.052 -1.8826 -0.0864 -0.3517
 5547WAT    EPW23995  -4.762   9.543   3.974 -0.2496 -0.4992  0.1476
 5548WAT      O23996   5.806   0.957   5.899  0.2457 -0.0761  0.2152
 5548WAT     H123997   5.874   0.890   5.908 -0.9113 -1.2846  0.2875
 5548WAT     H223998   5.781   0.978   5.989 -1.2693 -1.5825  0.2063
 5548WAT    EPW23999   5.811   0.951   5.912 -0.1066 -0.4342  0.2236
 5549WAT      O24000  -5.980  10.228   4.522  0.3530 -0.1981 -0.1422
 5549WAT     H124001  -5.985  10.161   4.454 -0.5764 -0.1733 -0.1108
 5549WAT     H224002  -5.978  10.311   4.475 -0.0664 -0.1888 -0.1416
 5549WAT    EPW24003  -5.980  10.230   4.507  0.1750 -0.1941 -0.1380
 5550WAT      O24004   5.376   6.237   3.595  0.7281 -0.1254 -0.1694
 5550WAT     H124005   5.301   6.291   3.619 -1.2419 -2.8499  0.2718
 5550WAT     H224006   5.376   6.166   3.659  0.4539 -3.0377 -3.1111
 5550WAT    EPW24007   5.366   6.235   3.607  0.4320 -0.8690 -0.4992
 5551WAT      O24008   0.777   4.241   1.864 -0.0367 -0.0499 -0.2511
 5551WAT     H124009   0.726   4.322   1.864  1.7129  1.1115 -0.7260
 5551WAT     H224010   0.789   4.220   1.956  1.3706  1.5166 -0.0349
 5551WAT    EPW24011   0.772   4.249   1.876  0.3797  0.3097 -0.2851
 5552WAT      O24012   5.073   4.456   3.352 -0.6477 -0.3356 -0.5560
 5552WAT     H124013   5.058   4.365   3.381  0.1208 -0.4982 -0.6551
 5552WAT     H224014   5.142   4.449   3.287 -0.5852  0.3299 -0.5658
 5552WAT    EPW24015   5.080   4.443   3.347 -0.5381 -0.2694 -0.5703
 5553WAT      O24016   0.336   2.216   4.289  0.3184  0.2226 -0.0501
 5553WAT     H124017   0.318   2.147   4.353 -0.0407  0.8097  0.4939
 5553WAT     H224018   0.428   2.202   4.265  0.3380 -0.2555  0.2837
 5553WAT    EPW24019   0.346   2.205   4.295  0.2736  0.2370  0.0658
 5554WAT      O24020   4.924   5.697   5.309 -0.3988  0.4368 -0.3028
 5554WAT     H124021   4.895   5.645   5.383  0.9882  3.0939  2.3490
 5554WAT     H224022   4.996   5.647   5.271 -1.7229 -1.3992 -0.5071
 5554WAT    EPW24023   4.930   5.684   5.314 -0.3905  0.5453  0.0200
 5555WAT      O24024   3.899   2.256   6.067  0.0017  0.0673 -0.6378
 5555WAT     H124025   3.877   2.319   6.135  0.5649 -0.1142 -0.2817
 5555WAT     H224026   3.862   2.292   5.987 -0.3378  0.4688 -0.3017
 5555WAT    EPW24027   3.891   2.269   6.065  0.0312  0.0963 -0.5465
 5556WAT      O24028  -0.655   0.123   7.708 -0.0255  0.3916 -0.2822
 5556WAT     H124029  -0.631   0.194   7.648  0.6507 -1.9582 -2.9924
 5556WAT     H224030  -0.572   0.084   7.734 -0.2389  1.7767  2.9607
 5556WAT    EPW24031  -0.641   0.128   7.703  0.0356  0.2644 -0.2120
 5557WAT      O24032   2.102   5.776   8.595 -0.1038 -0.3769 -0.5473
 5557WAT     H124033   2.167   5.819   8.540 -1.4327  0.0521 -1.8355
 5557WAT     H224034   2.024   5.770   8.541 -0.8377 -1.8661  0.5787
 5557WAT    EPW24035   2.101   5.781   8.581 -0.3759 -0.5167 -0.5684
 5558WAT      O24036  -2.006   2.732   5.484 -0.6866 -0.0525 -0.4145
 5558WAT     H124037  -2.063   2.756   5.557 -2.7489  1.3973 -2.3990
 5558WAT     H224038  -1.945   2.805   5.476 -1.4141  0.5026 -1.0298
 5558WAT    EPW24039  -2.005   2.745   5.493 -1.0545  0.2118 -0.7572
 5559WAT      O24040  -0.799   4.511   6.052  0.0525 -0.2974 -0.0834
 5559WAT     H124041  -0.781   4.452   6.125  0.9410 -2.0177 -1.5922
 5559WAT     H224042  -0.714   4.546   6.027  0.3376 -2.1843 -2.1695
 5559WAT    EPW24043  -0.786   4.508   6.058  0.2073 -0.7732 -0.5574
 5560WAT      O24044   1.737   4.942   1.412 -0.3990  0.9480  0.0862
 5560WAT     H124045   1.781   4.934   1.327  1.0506 -1.8749  0.9699
 5560WAT     H224046   1.645   4.956   1.390  0.0298  0.8773 -1.9280
 5560WAT    EPW24047   1.731   4.943   1.398 -0.1512  0.5662 -0.0629
 5561WAT      O24048  -4.599   2.956   7.013  0.5674  0.2611  0.2494
 5561WAT     H124049  -4.514   2.951   7.057 -0.5310  0.6665  2.6051
 5561WAT     H224050  -4.658   2.990   7.081 -1.0419  2.1114 -1.9420
 5561WAT    EPW24051  -4.595   2.960   7.028  0.2103  0.5585  0.2711
 5562WAT      O24052   3.626   1.142   4.582  0.0377  0.3218 -0.2034
 5562WAT     H124053   3.556   1.207   4.572 -1.1680 -0.9767 -0.4617
 5562WAT     H224054   3.616   1.109   4.671  0.0341 -0.1735 -0.3824
 5562WAT    EPW24055   3.616   1.146   4.592 -0.1218  0.0852 -0.2611
 5563WAT      O24056   8.023   0.699   2.597 -0.1843  0.0695  0.2577
 5563WAT     H124057   8.034   0.763   2.527 -0.4996  0.2583  0.3732
 5563WAT     H224058   8.012   0.753   2.676 -2.4446 -0.0453  0.0816
 5563WAT    EPW24059   8.023   0.715   2.598 -0.5236  0.0792  0.2496
 5564WAT      O24060  -2.918   8.391   7.278 -1.0985  0.0693 -0.5159
 5564WAT     H124061  -2.959   8.383   7.364 -1.1263 -1.4371 -0.6443
 5564WAT     H224062  -2.828   8.361   7.291 -1.0888 -0.1216 -0.9980
 5564WAT    EPW24063  -2.912   8.386   7.291 -1.1009 -0.1545 -0.5965
 5565WAT      O24064   8.231   1.952   2.602 -0.8285 -1.0905 -0.1860
 5565WAT     H124065   8.245   1.920   2.691 -5.2102 -1.4324  0.5927
 5565WAT     H224066   8.256   1.879   2.546 -0.9901 -2.0415  0.9408
 5565WAT    EPW24067   8.236   1.938   2.606 -1.4277 -1.2611  0.0653
 5566WAT      O24068   2.872  10.065   1.077  0.7539 -0.3109  0.1300
 5566WAT     H124069   2.861  10.145   1.025  1.2893 -0.4709 -0.2437
 5566WAT     H224070   2.803  10.007   1.045  2.1814 -1.0683 -1.7101
 5566WAT    EPW24071   2.861  10.068   1.066  1.0127 -0.4315 -0.1620
 5567WAT      O24072   5.675   4.055   3.144 -0.9446  0.1520 -0.4890
 5567WAT     H124073   5.654   4.120   3.212  1.3686 -0.2884  0.7744
 5567WAT     H224074   5.639   4.091   3.064 -2.1050  1.6457  0.6430
 5567WAT    EPW24075   5.668   4.068   3.143 -0.7927  0.2909 -0.1730
 5568WAT      O24076   2.534   5.537   8.154 -0.3430  0.1766  0.3118
 5568WAT     H124077   2.467   5.535   8.085  0.0121 -0.7412 -0.0169
 5568WAT     H224078   2.489   5.504   8.232 -0.5376  0.4884  0.3332
 5568WAT    EPW24079   2.519   5.533   8.155 -0.3219  0.0968  0.2713
 5569WAT      O24080  -0.771   9.525   7.325  0.3103  0.5809  0.1150
 5569WAT     H124081  -0.856   9.511   7.367  0.5775  1.3718  0.9442
 5569WAT     H224082  -0.711   9.547   7.397  1.2832 -0.2259 -0.4246
 5569WAT    EPW24083  -0.774   9.526   7.340  0.4739  0.5789  0.1531
 5570WAT      O24084  -2.730   1.236   8.365  0.0208 -0.1673 -0.3044
 5570WAT     H124085  -2.746   1.142   8.365 -0.5913 -0.0667 -1.0770
 5570WAT     H224086  -2.725   1.259   8.458  0.5510 -1.0148 -0.1091
 5570WAT    EPW24087  -2.731   1.227   8.377  0.0100 -0.2658 -0.3805
 5571WAT      O24088   3.675   6.445   3.574  0.0393  0.6685  0.5326
 5571WAT     H124089   3.757   6.453   3.623 -0.7385 -1.2145  2.3544
 5571WAT     H224090   3.611   6.491   3.628 -0.0948  2.3867 -1.0291
 5571WAT    EPW24091   3.677   6.452   3.588 -0.0809  0.6468  0.5668
 5572WAT      O24092   3.462   1.437   7.572  0.8529 -0.1908 -0.6230
 5572WAT     H124093   3.532   1.446   7.637 -0.8929  1.4918  1.1837
 5572WAT     H224094   3.506   1.403   7.494  3.3100 -1.0151  0.9910
 5572WAT    EPW24095   3.477   1.434   7.570  0.9468 -0.0777 -0.1719
 5573WAT      O24096   5.507   7.489   3.301  0.4179 -0.2113  0.6981
 5573WAT     H124097   5.532   7.398   3.315 -0.5126 -0.5250  0.3896
 5573WAT     H224098   5.415   7.494   3.328  0.5002  0.6675  0.8505
 5573WAT    EPW24099   5.498   7.478   3.306  0.3059 -0.1366  0.6776
 5574WAT      O24100  -1.768   6.978   6.341  0.2737 -0.3159  0.2188
 5574WAT     H124101  -1.719   6.918   6.397 -0.3374 -2.0696 -1.0249
 5574WAT     H224102  -1.813   6.921   6.279 -0.4898  1.4478 -0.9275
 5574WAT    EPW24103  -1.768   6.963   6.340  0.0924 -0.3145 -0.0963
 5575WAT      O24104   2.116   1.287   4.706 -0.5180  0.0378  0.6808
 5575WAT     H124105   2.197   1.237   4.709  0.3873  1.4725  1.6984
 5575WAT     H224106   2.129   1.348   4.633 -0.3625  0.7180  1.2561
 5575WAT    EPW24107   2.129   1.289   4.697 -0.3781  0.3167  0.8910
 5576WAT      O24108  -1.631   8.916   1.448 -0.0264  0.0016 -0.5771
 5576WAT     H124109  -1.546   8.878   1.427 -0.3684 -2.4301  1.8250
 5576WAT     H224110  -1.689   8.888   1.377  0.7136 -0.1512 -1.1283
 5576WAT    EPW24111  -1.627   8.907   1.436  0.0261 -0.3395 -0.3330
 5577WAT      O24112  -1.860   1.126   7.142  0.1738 -0.7273  0.3570
 5577WAT     H124113  -1.800   1.197   7.166 -1.8408  0.9593  0.7078
 5577WAT     H224114  -1.817   1.083   7.068  3.2743 -1.6600  2.5001
 5577WAT    EPW24115  -1.846   1.130   7.136  0.3170 -0.6279  0.6859
 5578WAT      O24116   2.924   4.639   3.093 -0.9360  0.2750 -0.4818
 5578WAT     H124117   2.876   4.710   3.136  1.2829  0.4382  1.9709
 5578WAT     H224118   2.974   4.683   3.024 -0.8874  0.8248 -0.1031
 5578WAT    EPW24119   2.924   4.654   3.089 -0.6369  0.3693 -0.1084
 5579WAT      O24120  -1.555   5.688   0.614  0.5812  0.1521  0.2596
 5579WAT     H124121  -1.529   5.748   0.544  1.0939  0.1703  0.4579
 5579WAT     H224122  -1.550   5.742   0.694 -1.3378  0.5241  0.1775
 5579WAT    EPW24123  -1.551   5.703   0.615  0.3958  0.2036  0.2749
 5580WAT      O24124   0.046   7.487   1.872  0.7484 -0.3003  0.0248
 5580WAT     H124125   0.043   7.494   1.777  0.9057  0.4946  0.0704
 5580WAT     H224126  -0.036   7.442   1.895 -0.2827  1.2985 -0.3444
 5580WAT    EPW24127   0.035   7.482   1.863  0.6332  0.0153 -0.0179
 5581WAT      O24128   0.540   7.096   7.547  0.5823 -0.4480  0.5735
 5581WAT     H124129   0.526   7.163   7.614  1.8196  1.8051 -1.2805
 5581WAT     H224130   0.632   7.071   7.556  0.8416  0.0892 -0.4123
 5581WAT    EPW24131   0.550   7.102   7.557  0.7797 -0.0801  0.1988
 5582WAT      O24132  -2.489   7.950   6.029  0.3974 -0.0801 -0.8032
 5582WAT     H124133  -2.439   7.931   5.949  0.3520 -0.7148 -0.6861
 5582WAT     H224134  -2.543   8.025   6.006  2.3954  1.5322 -0.5265
 5582WAT    EPW24135  -2.489   7.957   6.015  0.6549  0.0489 -0.7513
 5583WAT      O24136   1.603   0.616   3.822 -0.9061 -1.2381  0.6777
 5583WAT     H124137   1.626   0.692   3.875 -2.1845 -0.5602  0.2764
 5583WAT     H224138   1.636   0.541   3.873  0.3847 -0.4460  1.0569
 5583WAT    EPW24139   1.610   0.616   3.836 -0.9046 -1.0442  0.6748
 5584WAT      O24140   3.246   1.138   4.743 -0.0603 -0.3211  0.5620
 5584WAT     H124141   3.151   1.142   4.752  0.1129  1.7224  2.3630
 5584WAT     H224142   3.263   1.057   4.695 -2.6513 -1.0408  0.7464
 5584WAT    EPW24143   3.236   1.128   4.738 -0.3792 -0.1464  0.8237
 5585WAT      O24144   5.631   3.357   2.251  0.2919 -0.6208 -0.6584
 5585WAT     H124145   5.584   3.440   2.258 -0.6095 -1.1737  0.1186
 5585WAT     H224146   5.618   3.330   2.160 -1.4982 -1.0767 -0.3063
 5585WAT    EPW24147   5.623   3.364   2.240 -0.0632 -0.7538 -0.5095
 5586WAT      O24148   2.096   7.930   6.224 -0.3986  0.8591  0.2771
 5586WAT     H124149   2.039   7.998   6.188 -0.3390 -0.3123 -2.1724
 5586WAT     H224150   2.090   7.858   6.162  0.0135 -1.2018  2.4642
 5586WAT    EPW24151   2.087   7.929   6.211 -0.3364  0.4325  0.2425
 5587WAT      O24152   2.686   0.353   1.754  0.0373 -0.0795 -0.0133
 5587WAT     H124153   2.682   0.424   1.818  0.0111  0.0568 -0.1644
 5587WAT     H224154   2.600   0.311   1.759  0.0853 -0.1580  0.1417
 5587WAT    EPW24155   2.674   0.357   1.763  0.0402 -0.0719 -0.0128
 5588WAT      O24156   4.339   4.822   5.513  0.0559 -1.1938 -1.1366
 5588WAT     H124157   4.380   4.852   5.594 -0.9563  1.9721 -1.6349
 5588WAT     H224158   4.249   4.801   5.538 -0.5375  0.6876 -1.4728
 5588WAT    EPW24159   4.333   4.823   5.527 -0.1557 -0.5281 -1.2465
 5589WAT      O24160   2.351   6.993   7.744  0.2325 -0.0874  0.5051
 5589WAT     H124161   2.407   7.068   7.723 -0.0959  0.1621  0.5136
 5589WAT     H224162   2.307   6.972   7.662  0.7562 -0.6377  0.3608
 5589WAT    EPW24163   2.352   7.000   7.731  0.2582 -0.1268  0.4873
 5590WAT      O24164  -1.893   6.779   4.164  0.2991  0.3303  0.0024
 5590WAT     H124165  -1.939   6.749   4.243  1.4986  0.8569  0.9311
 5590WAT     H224166  -1.810   6.813   4.197  1.0096  0.1459 -1.5522
 5590WAT    EPW24167  -1.889   6.779   4.179  0.5510  0.3755 -0.0799
 5591WAT      O24168   2.734   2.405   0.903  0.1868  0.3729 -0.2333
 5591WAT     H124169   2.794   2.332   0.890 -0.1968  0.2612 -1.5238
 5591WAT     H224170   2.661   2.368   0.952  0.1239 -0.0476 -0.6376
 5591WAT    EPW24171   2.732   2.391   0.908  0.1278  0.3027 -0.4568
 5592WAT      O24172   5.407   9.096   3.238 -0.0865  0.4082  0.0656
 5592WAT     H124173   5.487   9.046   3.253 -1.8597 -3.0431 -0.7822
 5592WAT     H224174   5.416   9.127   3.148  0.5534  0.5831  0.1830
 5592WAT    EPW24175   5.419   9.093   3.228 -0.2358 -0.0238 -0.0309
 5593WAT      O24176  -6.723   7.397   8.347 -0.3873  0.2129  0.1300
 5593WAT     H124177  -6.697   7.483   8.380 -1.3006 -0.6658  3.6492
 5593WAT     H224178  -6.657   7.375   8.281  1.9219  2.1301  1.6219
 5593WAT    EPW24179  -6.711   7.405   8.343 -0.2034  0.3500  0.7911
 5594WAT      O24180   5.278   3.298   1.403  0.6052  0.0383  0.0344
 5594WAT     H124181   5.206   3.283   1.342  0.4631  2.6084 -0.5540
 5594WAT     H224182   5.350   3.330   1.348  1.6276 -0.8616  0.8202
 5594WAT    EPW24183   5.278   3.300   1.388  0.7212  0.2586  0.0604
 5595WAT      O24184   4.239   6.021   5.350  0.0793  0.0822 -0.0323
 5595WAT     H124185   4.248   6.028   5.445 -1.8566  0.9118  0.1354
 5595WAT     H224186   4.270   5.933   5.329 -0.1692 -0.3914  1.4589
 5595WAT    EPW24187   4.245   6.011   5.360 -0.2086  0.1292  0.1864
 5596WAT      O24188  -3.268   2.512   5.904 -0.3537 -0.9907 -0.9270
 5596WAT     H124189  -3.225   2.443   5.955 -0.2706  0.0557  0.5081
 5596WAT     H224190  -3.202   2.542   5.842  1.9758  1.9786  2.5576
 5596WAT    EPW24191  -3.254   2.507   5.903 -0.0354 -0.4610 -0.2780
 5597WAT      O24192   3.753   5.510   0.663 -0.5165 -0.2141  0.0276
 5597WAT     H124193   3.686   5.444   0.641 -2.3318  1.3606  0.5611
 5597WAT     H224194   3.759   5.505   0.758  0.9210 -1.0284 -0.0816
 5597WAT    EPW24195   3.745   5.500   0.673 -0.5662 -0.1135  0.0836
 5598WAT      O24196   3.965   7.385   1.143  0.0633 -0.2212  0.0243
 5598WAT     H124197   3.899   7.325   1.109  1.8506 -2.0779 -0.3538
 5598WAT     H224198   4.048   7.340   1.129  1.4105  1.8767  0.7873
 5598WAT    EPW24199   3.968   7.371   1.137  0.4766 -0.1893  0.0751
 5599WAT      O24200   0.540   5.197   5.527 -0.2437  0.0556  0.1329
 5599WAT     H124201   0.521   5.270   5.586  4.0364  1.2210  0.3996
 5599WAT     H224202   0.528   5.234   5.439 -2.8257 -0.5100  0.1833
 5599WAT    EPW24203   0.536   5.212   5.523 -0.0197  0.1347  0.1748
 5600WAT      O24204   2.700   5.221   6.191 -0.1360 -0.3096  0.1963
 5600WAT     H124205   2.778   5.266   6.158  0.0530  1.9083  3.1346
 5600WAT     H224206   2.636   5.228   6.120  1.6806 -0.4156 -1.5379
 5600WAT    EPW24207   2.702   5.228   6.177  0.1285 -0.0312  0.3552
 5601WAT      O24208  -3.850   2.934   5.444 -0.8166 -0.0347  0.3713
 5601WAT     H124209  -3.899   2.883   5.379 -0.6023  0.9208 -0.5594
 5601WAT     H224210  -3.821   2.869   5.508 -1.9856 -0.8407  0.1158
 5601WAT    EPW24211  -3.853   2.919   5.444 -0.9426 -0.0149  0.2148
 5602WAT      O24212   5.590   0.390   5.750  0.5476  0.4107  0.3594
 5602WAT     H124213   5.623   0.479   5.762  1.2494  0.1428  0.4885
 5602WAT     H224214   5.635   0.338   5.817  2.2832 -0.5681 -1.4655
 5602WAT    EPW24215   5.600   0.395   5.761  0.8690  0.2463  0.1357
 5603WAT      O24216  -2.607   8.014   1.056  0.5746 -0.3774  0.6284
 5603WAT     H124217  -2.534   8.041   1.000  0.3425  0.1005  0.5466
 5603WAT     H224218  -2.609   7.919   1.048  1.2867 -0.4150  0.7557
 5603WAT    EPW24219  -2.597   8.005   1.048  0.6379 -0.3200  0.6344
 5604WAT      O24220   0.783   5.172   3.428 -0.5134  0.0782  0.9373
 5604WAT     H124221   0.858   5.157   3.371 -1.3368 -1.1989  0.1347
 5604WAT     H224222   0.784   5.098   3.488 -1.7936 -0.6295  0.1343
 5604WAT    EPW24223   0.793   5.160   3.428 -0.7908 -0.1836  0.7255
 5605WAT      O24224   1.509   2.137   8.515  0.2171 -0.9340  0.2721
 5605WAT     H124225   1.443   2.166   8.578 -1.0545 -1.0726 -0.9565
 5605WAT     H224226   1.592   2.159   8.557 -0.5967 -0.4237  1.7084
 5605WAT    EPW24227   1.511   2.144   8.529 -0.0579 -0.8850  0.2995
 5606WAT      O24228  -3.525   8.752   6.507 -0.2588  0.0156 -0.4128
 5606WAT     H124229  -3.601   8.799   6.471 -0.1197  0.4333 -0.1652
 5606WAT     H224230  -3.492   8.810   6.575 -0.9607 -1.0969  0.9068
 5606WAT    EPW24231  -3.531   8.766   6.511 -0.3330 -0.0758 -0.2060
 5607WAT      O24232   1.587   1.406   0.927 -0.1783  0.4544 -0.2523
 5607WAT     H124233   1.520   1.462   0.967 -1.7561 -1.5998  0.1626
 5607WAT     H224234   1.638   1.465   0.872 -0.0510  2.7723  2.1782
 5607WAT    EPW24235   1.585   1.421   0.925 -0.3695  0.4891  0.1230
 5608WAT      O24236  -0.100   5.462   0.453 -0.2741 -0.1229 -0.5632
 5608WAT     H124237  -0.093   5.512   0.372 -0.6512  0.3347 -0.3149
 5608WAT     H224238  -0.103   5.528   0.522 -0.5040 -0.4944 -0.2160
 5608WAT    EPW24239  -0.099   5.477   0.451 -0.3541 -0.1118 -0.4846
 5609WAT      O24240   4.880   2.791   5.595 -0.0831 -0.7141 -0.1697
 5609WAT     H124241   4.892   2.703   5.559 -2.3617 -1.2209  0.1532
 5609WAT     H224242   4.787   2.809   5.583 -0.4303  0.1675  3.0197
 5609WAT    EPW24243   4.869   2.782   5.588 -0.4296 -0.6647  0.2935
 5610WAT      O24244   0.978   0.221   7.985 -0.6317 -0.5885  0.5852
 5610WAT     H124245   0.909   0.252   7.926 -0.0918 -0.2030  0.1399
 5610WAT     H224246   0.983   0.127   7.969 -0.2521 -0.4349 -0.2523
 5610WAT    EPW24247   0.970   0.213   7.975 -0.5104 -0.5174  0.4160
 5611WAT      O24248   8.466   2.135   1.803 -0.3166 -0.0879 -0.0672
 5611WAT     H124249   8.486   2.146   1.710 -1.5664  1.2408 -0.2063
 5611WAT     H224250   8.387   2.187   1.817  0.5938  0.8119  2.0311
 5611WAT    EPW24251   8.458   2.143   1.793 -0.3610  0.2060  0.1913
 5612WAT      O24252   2.407   0.552   2.148  0.2497  0.0686 -0.5049
 5612WAT     H124253   2.421   0.638   2.108  0.2670  1.1583  1.6638
 5612WAT     H224254   2.450   0.490   2.089  1.4851  1.7119 -1.4101
 5612WAT    EPW24255   2.415   0.555   2.135  0.4148  0.4291 -0.3382
 5613WAT      O24256   0.588   7.506   5.887 -0.2637 -0.7564  0.4432
 5613WAT     H124257   0.642   7.439   5.927  1.3344  0.1027 -0.1497
 5613WAT     H224258   0.578   7.477   5.796  1.7918  0.4855 -0.2638
 5613WAT    EPW24259   0.594   7.494   5.880  0.2182 -0.4795  0.2718
 5614WAT      O24260   3.292   5.945   3.035 -0.7675  0.3229 -0.3922
 5614WAT     H124261   3.342   5.925   3.114 -0.5978 -1.5114 -0.9092
 5614WAT     H224262   3.288   6.040   3.032 -0.1942  0.4357  1.4556
 5614WAT    EPW24263   3.298   5.955   3.045 -0.6695  0.0958 -0.2166
 5615WAT      O24264  -2.805   0.473   7.308 -0.6237  0.5159  0.6773
 5615WAT     H124265  -2.858   0.539   7.265  2.8672  2.4308 -1.1298
 5615WAT     H224266  -2.823   0.483   7.401 -2.3170  1.9663  0.2339
 5615WAT    EPW24267  -2.814   0.483   7.314 -0.3866  0.9597  0.3805
 5616WAT      O24268   1.712   1.961   6.594 -0.5063  0.0481  0.4294
 5616WAT     H124269   1.633   1.908   6.600 -0.9465  0.7716  1.1947
 5616WAT     H224270   1.764   1.937   6.670  0.1787 -0.6585 -0.2382
 5616WAT    EPW24271   1.709   1.951   6.605 -0.4740  0.0503  0.4423
 5617WAT      O24272  -3.045   6.176   2.820 -0.2381  0.6122  0.7626
 5617WAT     H124273  -3.096   6.170   2.738 -1.3430  0.2914  1.4479
 5617WAT     H224274  -3.040   6.269   2.838 -0.6188  0.6486  0.7000
 5617WAT    EPW24275  -3.051   6.187   2.811 -0.4340  0.5746  0.8447
 5618WAT      O24276   4.074   0.117   5.593  0.0697  0.1299  0.2520
 5618WAT     H124277   4.058   0.025   5.572 -0.3633  0.3201 -0.3041
 5618WAT     H224278   4.159   0.137   5.554  0.6901 -0.3247  1.3480
 5618WAT    EPW24279   4.083   0.108   5.585  0.0944  0.0950  0.3233
 5619WAT      O24280  -0.506   7.688   2.291  0.6066 -0.4387 -0.4462
 5619WAT     H124281  -0.446   7.755   2.324 -2.0160  2.6380 -1.3311
 5619WAT     H224282  -0.572   7.678   2.360 -2.4379  2.7614 -2.5132
 5619WAT    EPW24283  -0.507   7.695   2.304 -0.1408  0.3893 -0.8355
 5620WAT      O24284  -1.948   0.076   4.131  0.0743 -0.0123  0.2069
 5620WAT     H124285  -1.953   0.072   4.036  2.2419 -3.7647  0.0814
 5620WAT     H224286  -1.856   0.093   4.149 -0.1381 -0.2753  1.6589
 5620WAT    EPW24287  -1.937   0.078   4.121  0.3322 -0.5419  0.3819
 5621WAT      O24288  -4.625   9.103   5.806  0.4239 -0.2186  0.0146
 5621WAT     H124289  -4.562   9.148   5.862  2.7663 -1.9453 -1.0625
 5621WAT     H224290  -4.590   9.114   5.717  0.4712 -3.0512 -0.4005
 5621WAT    EPW24291  -4.612   9.110   5.802  0.7391 -0.8197 -0.1822
 5622WAT      O24292   4.509   9.299   0.496  0.5647 -0.0846  0.3705
 5622WAT     H124293   4.497   9.266   0.585  1.4856 -0.7794  0.2469
 5622WAT     H224294   4.575   9.368   0.504 -0.2385  0.7097  0.3920
 5622WAT    EPW24295   4.516   9.304   0.509  0.5803 -0.0715  0.3570
 5623WAT      O24296  -3.761   9.936   8.882  0.2905  0.2990 -0.4367
 5623WAT     H124297  -3.819   9.872   8.924 -2.8060  0.2374 -4.1993
 5623WAT     H224298  -3.739   9.895   8.798  3.8753  1.4600 -0.2030
 5623WAT    EPW24299  -3.766   9.922   8.876  0.3549  0.4439 -0.9022
 5624WAT      O24300   4.006   3.574   6.487  0.2438  0.4130  0.3862
 5624WAT     H124301   4.020   3.557   6.580 -3.0543 -2.0285  0.6248
 5624WAT     H224302   3.919   3.613   6.482 -1.9137 -3.8766 -1.7012
 5624WAT    EPW24303   3.996   3.577   6.498 -0.4756 -0.4748  0.1423
 5625WAT      O24304   3.608   8.917   1.177 -0.5164 -0.4518  0.5104
 5625WAT     H124305   3.522   8.892   1.212 -0.5728  2.4946  2.8080
 5625WAT     H224306   3.670   8.870   1.233 -0.5021 -2.4655 -1.0589
 5625WAT    EPW24307   3.605   8.907   1.189 -0.5219 -0.3285  0.6065
 5626WAT      O24308   3.913   7.733   3.165  0.4957  0.4788 -0.3504
 5626WAT     H124309   3.956   7.798   3.220 -0.6733  0.0665  1.1389
 5626WAT     H224310   3.820   7.742   3.186  0.1264 -0.4657 -1.4559
 5626WAT    EPW24311   3.906   7.742   3.175  0.2928  0.2997 -0.2998
 5627WAT      O24312  -0.973   7.244   3.171  0.4892  0.0821  0.0724
 5627WAT     H124313  -0.910   7.223   3.102  0.3213 -0.5040  0.0947
 5627WAT     H224314  -1.053   7.268   3.124  0.5524  0.2720  0.0576
 5627WAT    EPW24315  -0.975   7.245   3.156  0.4754  0.0296  0.0734
 5628WAT      O24316  -1.214   8.658   0.763  0.5521  0.0352  0.3006
 5628WAT     H124317  -1.255   8.743   0.754 -0.6061 -0.6550 -1.3326
 5628WAT     H224318  -1.240   8.609   0.685  2.5663 -1.2587  0.3424
 5628WAT    EPW24319  -1.223   8.662   0.751  0.6650 -0.2260  0.0907
 5629WAT      O24320  -1.383   4.658   7.759  0.7147  0.2125  0.8322
 5629WAT     H124321  -1.429   4.634   7.678  1.1901  1.4386  0.1729
 5629WAT     H224322  -1.454   4.682   7.819  0.4048  3.7942 -0.7269
 5629WAT    EPW24323  -1.399   4.658   7.756  0.7365  0.8466  0.5398
 5630WAT      O24324   5.764   6.545   0.823  0.4134 -0.4600 -0.2786
 5630WAT     H124325   5.801   6.488   0.891  1.2277  1.2346  0.7592
 5630WAT     H224326   5.763   6.632   0.863 -0.6332  0.3021 -1.8845
 5630WAT    EPW24327   5.769   6.549   0.838  0.3827 -0.1361 -0.3535
 5631WAT      O24328   0.780   5.756   5.630  0.1688  0.4359 -0.1229
 5631WAT     H124329   0.854   5.799   5.673 -1.4700  1.2221  2.0995
 5631WAT     H224330   0.708   5.764   5.692 -2.4592  1.6962 -3.0667
 5631WAT    EPW24331   0.780   5.763   5.644 -0.3940  0.7057 -0.2182
 5632WAT      O24332   3.418   0.875   4.094 -0.3235 -0.1635 -0.2877
 5632WAT     H124333   3.332   0.874   4.052 -0.3465 -0.8858 -0.2325
 5632WAT     H224334   3.433   0.967   4.115 -1.5408 -0.1519  0.6372
 5632WAT    EPW24335   3.409   0.887   4.091 -0.4871 -0.2572 -0.1583
 5633WAT      O24336   2.140   9.489   1.196 -0.0668  0.3263 -0.0417
 5633WAT     H124337   2.234   9.497   1.177  0.6017 -2.5393  1.4026
 5633WAT     H224338   2.099   9.559   1.146  2.7669  1.2468 -1.2885
 5633WAT    EPW24339   2.147   9.499   1.187  0.3951  0.0696 -0.0156
 5634WAT      O24340   0.338   9.441   3.274  0.4107  0.2553  0.2155
 5634WAT     H124341   0.433   9.449   3.280  0.4428  0.8119 -0.7974
 5634WAT     H224342   0.321   9.418   3.183 -0.3259 -1.9294  0.8336
 5634WAT    EPW24343   0.348   9.439   3.263  0.3178  0.0405  0.1634
 5635WAT      O24344  -2.504   5.290   4.425  0.6327 -0.3558 -0.3971
 5635WAT     H124345  -2.531   5.203   4.456  1.2575 -0.0423  1.1191
 5635WAT     H224346  -2.571   5.315   4.362 -0.1049 -1.5144 -0.1070
 5635WAT    EPW24347  -2.516   5.282   4.421  0.6179 -0.4673 -0.1590
 5636WAT      O24348  -3.600   6.373   2.799 -0.3302  0.1673  0.6450
 5636WAT     H124349  -3.681   6.400   2.842 -0.6540  0.6073 -0.2292
 5636WAT     H224350  -3.552   6.454   2.785 -0.3338  0.0588 -0.0225
 5636WAT    EPW24351  -3.605   6.387   2.803 -0.3734  0.2108  0.4418
 5637WAT      O24352   0.636   5.093   2.735  0.2028  0.7758 -0.2234
 5637WAT     H124353   0.626   5.004   2.704  2.1136  1.1157 -2.0338
 5637WAT     H224354   0.605   5.091   2.826  0.1997 -1.6971 -0.2343
 5637WAT    EPW24355   0.631   5.081   2.743  0.4545  0.4945 -0.4636
 5638WAT      O24356   4.872   2.919   3.199 -0.2332  0.9180 -0.7698
 5638WAT     H124357   4.885   2.991   3.138  0.9806 -1.2756 -3.3442
 5638WAT     H224358   4.831   2.850   3.146  2.3321 -1.6960  0.3353
 5638WAT    EPW24359   4.868   2.919   3.184  0.2654  0.2840 -0.9637
 5639WAT      O24360  -4.248   9.729   3.285  0.3294 -0.1012 -0.2935
 5639WAT     H124361  -4.212   9.640   3.291 -0.7389 -0.5989 -1.0159
 5639WAT     H224362  -4.296   9.730   3.202  0.4270  1.1997 -0.3565
 5639WAT    EPW24363  -4.249   9.717   3.274  0.2015  0.0048 -0.3971
 5640WAT      O24364   4.534   2.061   1.823  0.1853 -0.4673  0.2899
 5640WAT     H124365   4.555   2.048   1.915  2.0522 -1.6938 -0.2496
 5640WAT     H224366   4.486   2.144   1.820 -2.0588 -1.5459  2.6090
 5640WAT    EPW24367   4.530   2.070   1.835  0.1354 -0.7714  0.5246
 5641WAT      O24368  -3.612   6.179   7.867  0.7979 -0.4579 -0.1811
 5641WAT     H124369  -3.675   6.110   7.849 -0.7855  0.0264  2.8479
 5641WAT     H224370  -3.526   6.137   7.853 -0.1131 -1.8776 -1.9285
 5641WAT    EPW24371  -3.609   6.164   7.863  0.4689 -0.5813 -0.0122
 5642WAT      O24372  -4.736   3.961   8.857  0.2293 -0.1000 -0.2607
 5642WAT     H124373  -4.645   3.937   8.836  0.3039 -0.2858  0.2645
 5642WAT     H224374  -4.755   3.913   8.937 -0.1513  0.3788 -0.0644
 5642WAT    EPW24375  -4.726   3.951   8.865  0.1888 -0.0614 -0.1655
 5643WAT      O24376   4.231   6.734   6.293  0.9940 -0.3730  0.1234
 5643WAT     H124377   4.157   6.707   6.239  0.7694  0.3462  0.0596
 5643WAT     H224378   4.250   6.658   6.348  0.1508 -0.5338  0.2001
 5643WAT    EPW24379   4.224   6.720   6.293  0.8531 -0.2992  0.1252
 5644WAT      O24380  -2.107   7.547   4.880 -0.0210  0.0064  0.0390
 5644WAT     H124381  -2.103   7.632   4.923  2.0849 -1.1940  2.5080
 5644WAT     H224382  -2.175   7.499   4.929 -0.1309 -0.2144 -0.3288
 5644WAT    EPW24383  -2.115   7.552   4.892  0.2422 -0.1810  0.3164
 5645WAT      O24384  -0.481   6.443   6.787 -0.2993 -0.3406 -0.1895
 5645WAT     H124385  -0.391   6.450   6.753  0.0088 -2.0390  0.1894
 5645WAT     H224386  -0.536   6.471   6.713  0.4406 -1.9947 -1.4277
 5645WAT    EPW24387  -0.476   6.448   6.772 -0.1611 -0.7825 -0.3030
 5646WAT      O24388  -1.346   4.077   7.215  0.5766  0.7825  0.5680
 5646WAT     H124389  -1.273   4.120   7.260  0.6497  1.5878 -0.2849
 5646WAT     H224390  -1.344   4.113   7.126 -1.1654  1.2079  0.6707
 5646WAT    EPW24391  -1.336   4.088   7.209  0.3566  0.9449  0.4692
 5647WAT      O24392   0.547   1.644   8.139  0.4141  0.2424  0.6065
 5647WAT     H124393   0.507   1.593   8.209  0.6632  1.1451  1.4249
 5647WAT     H224394   0.507   1.730   8.146  0.1396  0.2382 -0.6375
 5647WAT    EPW24395   0.537   1.648   8.149  0.4108  0.3609  0.5507
 5648WAT      O24396   6.208   1.684   0.210  0.7900 -0.0382 -0.3857
 5648WAT     H124397   6.239   1.743   0.141 -0.4238  0.3995 -0.5759
 5648WAT     H224398   6.285   1.633   0.233  1.2848 -0.0590 -1.9273
 5648WAT    EPW24399   6.222   1.685   0.204  0.6950  0.0168 -0.6141
 5649WAT      O24400   2.278   4.959   8.232 -0.5487  0.1206 -0.6620
 5649WAT     H124401   2.344   4.907   8.186 -0.2638 -1.7391  1.6398
 5649WAT     H224402   2.195   4.937   8.189 -0.4622 -2.5188  0.3382
 5649WAT    EPW24403   2.276   4.949   8.220 -0.4997 -0.4730 -0.2265
 5650WAT      O24404   7.967   1.733   2.301  0.4277  0.3815  0.6799
 5650WAT     H124405   7.908   1.800   2.337 -0.9694  0.1716 -1.0482
 5650WAT     H224406   8.032   1.783   2.251  0.2646  0.5206  0.6027
 5650WAT    EPW24407   7.968   1.749   2.299  0.2217  0.3722  0.4417
 5651WAT      O24408   3.020  10.064   3.447 -0.0632  0.0599 -0.3446
 5651WAT     H124409   3.063  10.029   3.369  0.7537 -0.0832  0.1577
 5651WAT     H224410   3.052  10.009   3.519 -0.0830  0.7781  0.2236
 5651WAT    EPW24411   3.030  10.052   3.446  0.0420  0.1359 -0.2034
 5652WAT      O24412   6.372   3.446   5.300 -0.0557  0.2899  0.1081
 5652WAT     H124413   6.309   3.375   5.315 -0.6274  0.8971  0.6867
 5652WAT     H224414   6.455   3.402   5.284 -0.3512 -0.5091  0.6876
 5652WAT    EPW24415   6.374   3.431   5.300 -0.1702  0.2646  0.2608
 5653WAT      O24416   3.366   4.963   7.330 -0.0233 -0.9491  0.0088
 5653WAT     H124417   3.377   4.892   7.393  1.2914 -0.9254 -0.1617
 5653WAT     H224418   3.323   4.923   7.255 -1.3503 -1.0420  0.7814
 5653WAT    EPW24419   3.362   4.949   7.328 -0.0250 -0.9582  0.0882
 5654WAT      O24420   1.648   3.877   4.898  0.0111 -0.5049  0.8807
 5654WAT     H124421   1.552   3.876   4.896 -0.1261  2.2884 -1.2529
 5654WAT     H224422   1.674   3.890   4.807  2.2411  1.6895  1.7046
 5654WAT    EPW24423   1.639   3.879   4.886  0.2871  0.1529  0.7079
 5655WAT      O24424   2.598   9.123   6.432 -0.7724 -0.7218  1.1667
 5655WAT     H124425   2.559   9.037   6.450  0.0810 -1.1148  1.1802
 5655WAT     H224426   2.690   9.113   6.457 -0.4556 -0.0844  0.2975
 5655WAT    EPW24427   2.605   9.110   6.438 -0.6181 -0.6895  1.0538
 5656WAT      O24428  -1.399   4.665   3.761  0.1111  0.0206 -0.2527
 5656WAT     H124429  -1.491   4.659   3.734  0.3380  0.4461 -1.1330
 5656WAT     H224430  -1.399   4.630   3.850 -0.8823 -0.1171 -0.2903
 5656WAT    EPW24431  -1.411   4.660   3.769  0.0100  0.0587 -0.3738
 5657WAT      O24432  -3.671   8.793   5.458 -0.2742  0.4159 -0.0928
 5657WAT     H124433  -3.660   8.856   5.387  0.8824  1.0736  0.6295
 5657WAT     H224434  -3.652   8.708   5.419  0.3967  0.7755 -0.5592
 5657WAT    EPW24435  -3.667   8.790   5.444 -0.0331  0.5503 -0.0591
 5658WAT      O24436   3.674   4.502   1.310  0.5761  0.6092  0.2540
 5658WAT     H124437   3.617   4.502   1.387 -0.5171 -1.4961 -0.4623
 5658WAT     H224438   3.737   4.432   1.328 -0.9619 -1.3686 -1.5500
 5658WAT    EPW24439   3.675   4.493   1.323  0.2291  0.0706 -0.0784
 5659WAT      O24440   2.675   0.235   1.106 -0.2433  0.2112 -0.1939
 5659WAT     H124441   2.677   0.313   1.051 -2.4585  0.0891 -0.5312
 5659WAT     H224442   2.620   0.173   1.058  1.5615 -1.6617 -0.0032
 5659WAT    EPW24443   2.668   0.237   1.092 -0.2974 -0.0519 -0.2133
 5660WAT      O24444   4.188   0.438   5.641  0.1857  0.2472  0.5350
 5660WAT     H124445   4.200   0.379   5.566  0.3999  0.5343  0.3397
 5660WAT     H224446   4.097   0.469   5.633  0.3511  0.6420  0.1199
 5660WAT    EPW24447   4.177   0.435   5.630  0.2358  0.3372  0.4547
 5661WAT      O24448   1.150   7.888   2.074  0.3348  0.1000  0.0434
 5661WAT     H124449   1.072   7.843   2.041 -0.2619  0.3303  1.0953
 5661WAT     H224450   1.212   7.884   2.002  0.6971 -3.2744  0.3995
 5661WAT    EPW24451   1.148   7.882   2.060  0.3039 -0.3147  0.2291
 5662WAT      O24452   2.673   0.757   0.746  0.2750 -0.0015 -0.8330
 5662WAT     H124453   2.630   0.832   0.702 -0.5730  1.2318  1.8825
 5662WAT     H224454   2.762   0.788   0.764  0.8064 -0.7222 -2.1267
 5662WAT    EPW24455   2.679   0.771   0.742  0.2332  0.0661 -0.6455
 5663WAT      O24456  -4.023   8.673   2.237 -0.6236 -0.7394  0.3374
 5663WAT     H124457  -4.109   8.699   2.268 -1.2306 -3.0703  0.7517
 5663WAT     H224458  -4.040   8.625   2.156  0.6604  2.1578 -1.8232
 5663WAT    EPW24459  -4.036   8.670   2.230 -0.5343 -0.6647  0.1070
 5664WAT      O24460   2.000   8.698   5.707 -0.3547 -0.0725  0.4649
 5664WAT     H124461   2.084   8.676   5.747 -0.0727  0.2161  0.0465
 5664WAT     H224462   1.971   8.777   5.752 -0.7528 -0.5726  1.0994
 5664WAT    EPW24463   2.007   8.706   5.718 -0.3700 -0.1006  0.4935
 5665WAT      O24464   5.428   5.697   3.814 -0.4607  0.4821  0.3052
 5665WAT     H124465   5.497   5.679   3.879 -0.3886  1.9002  0.6560
 5665WAT     H224466   5.369   5.758   3.858 -2.5371 -1.4644  0.3636
 5665WAT    EPW24467   5.430   5.703   3.828 -0.7250  0.4125  0.3592
 5666WAT      O24468   2.205   8.549   0.350  0.4437  0.6006 -0.3050
 5666WAT     H124469   2.266   8.514   0.415  0.6483 -3.0925 -2.2147
 5666WAT     H224470   2.255   8.616   0.304  1.6799  0.4284  0.7383
 5666WAT    EPW24471   2.219   8.553   0.352  0.6336  0.0906 -0.4193
 5667WAT      O24472   1.545   7.293   8.564 -0.8999  0.1123  0.3352
 5667WAT     H124473   1.625   7.317   8.609  0.0986 -0.3500 -1.1222
 5667WAT     H224474   1.486   7.368   8.578  0.0995  0.8580  0.6657
 5667WAT    EPW24475   1.548   7.306   8.572 -0.6363  0.1495  0.1864
 5668WAT      O24476  -0.963   3.843   4.172 -1.0978 -0.1851 -0.2520
 5668WAT     H124477  -1.053   3.811   4.166 -1.3575  0.7169 -1.5725
 5668WAT     H224478  -0.948   3.888   4.089  0.2102  0.6089  0.3854
 5668WAT    EPW24479  -0.973   3.845   4.160 -0.9596  0.0385 -0.3421
 5669WAT      O24480   1.049   0.296   0.411  0.4981  0.8859  0.0668
 5669WAT     H124481   1.076   0.388   0.406  1.9970  0.4138 -2.2474
 5669WAT     H224482   1.130   0.248   0.426 -0.2963 -0.0955  1.4655
 5669WAT    EPW24483   1.063   0.302   0.412  0.5910  0.6942 -0.0539
 5670WAT      O24484   2.562   5.973   6.094 -0.2266  0.0543 -0.3994
 5670WAT     H124485   2.517   5.964   6.178 -1.6864 -1.0119 -1.2487
 5670WAT     H224486   2.558   5.886   6.055  2.2361  0.0303 -0.7205
 5670WAT    EPW24487   2.555   5.960   6.100 -0.0944 -0.0894 -0.5536
 5671WAT      O24488  -1.324   7.005   5.875  0.3991  0.8198 -0.1886
 5671WAT     H124489  -1.338   7.088   5.921  0.2979  1.8702 -2.0268
 5671WAT     H224490  -1.242   6.971   5.911  0.7354  1.9905  0.1946
 5671WAT    EPW24491  -1.315   7.011   5.886  0.4302  1.1127 -0.3805
 5672WAT      O24492   8.019   5.964   1.363  0.4890 -0.2019  0.0242
 5672WAT     H124493   8.104   5.942   1.325  0.0264 -0.2443 -1.0306
 5672WAT     H224494   7.983   6.031   1.304  0.4054  0.8975  1.2708
 5672WAT    EPW24495   8.025   5.970   1.350  0.4168 -0.0625  0.0495
 5673WAT      O24496  -1.783   6.644   2.685 -0.0263  0.2941  0.7990
 5673WAT     H124497  -1.775   6.656   2.780  0.2304  1.2032  0.6713
 5673WAT     H224498  -1.776   6.733   2.649  0.4163 -0.0939 -0.1026
 5673WAT    EPW24499  -1.781   6.657   2.693  0.0659  0.3629  0.6633
 5674WAT      O24500   1.856   0.718   2.492 -0.0462  0.1891  0.3836
 5674WAT     H124501   1.768   0.731   2.525 -1.4003 -1.9723 -1.9951
 5674WAT     H224502   1.887   0.639   2.536 -0.0229 -0.0416 -0.0319
 5674WAT    EPW24503   1.849   0.709   2.502 -0.2217 -0.1264  0.0150
 5675WAT      O24504  -3.030   3.855   3.193 -0.6114  0.2198 -0.3807
 5675WAT     H124505  -2.979   3.936   3.199 -0.8457  0.4271 -1.0883
 5675WAT     H224506  -3.075   3.862   3.109 -2.1143  0.2232  0.4036
 5675WAT    EPW24507  -3.029   3.866   3.182 -0.8404  0.2476 -0.3706
 5676WAT      O24508   0.219   6.722   2.560 -0.0960  0.0600 -0.1429
 5676WAT     H124509   0.157   6.677   2.502  1.3873 -1.5644 -0.5713
 5676WAT     H224510   0.169   6.739   2.640 -1.0848 -1.3237 -0.4172
 5676WAT    EPW24511   0.204   6.718   2.563 -0.0308 -0.3366 -0.2356
 5677WAT      O24512   1.085   0.131   5.582  0.3273 -1.0695  0.0134
 5677WAT     H124513   1.015   0.173   5.531  2.1498  2.4956  0.1337
 5677WAT     H224514   1.130   0.075   5.518  0.9677  1.2643 -1.7242
 5677WAT    EPW24515   1.082   0.129   5.566  0.6521 -0.2915 -0.1998
 5678WAT      O24516  -1.757   0.760   8.863 -0.1940 -0.1303  0.2599
 5678WAT     H124517  -1.807   0.688   8.902  0.5404 -0.6715  0.2263
 5678WAT     H224518  -1.674   0.760   8.911 -0.4003  1.0777  0.6511
 5678WAT    EPW24519  -1.753   0.750   8.874 -0.1243 -0.0424  0.3071
 5679WAT      O24520  -1.437   7.075   8.542 -0.1256  0.1515  0.7326
 5679WAT     H124521  -1.427   7.144   8.476 -2.0975  0.8798  1.1320
 5679WAT     H224522  -1.404   6.996   8.499  0.2857  0.9507 -0.4760
 5679WAT    EPW24523  -1.431   7.074   8.528 -0.3315  0.3531  0.6261
 5680WAT      O24524   5.811   2.966   0.314  0.0161 -0.0601  0.3970
 5680WAT     H124525   5.871   2.939   0.383 -0.5019 -0.9946  0.5122
 5680WAT     H224526   5.802   3.060   0.325  0.0735 -0.1700  1.5033
 5680WAT    EPW24527   5.818   2.975   0.325 -0.0446 -0.1978  0.5581
 5681WAT      O24528   3.007   8.338   5.944 -0.1656  0.4500 -0.3190
 5681WAT     H124529   2.968   8.413   5.990  1.9141  1.8698 -0.7686
 5681WAT     H224530   3.096   8.366   5.924  1.8747 -3.3157  2.3840
 5681WAT    EPW24531   3.014   8.352   5.948  0.3777  0.1407 -0.0219
 5682WAT      O24532   8.507   1.107   2.457 -0.7127 -0.0306 -0.7992
 5682WAT     H124533   8.518   1.012   2.448  2.1988  0.0124  0.7753
 5682WAT     H224534   8.573   1.144   2.398 -1.1444  0.9700 -0.6653
 5682WAT    EPW24535   8.517   1.099   2.448 -0.3858  0.1070 -0.5739
 5683WAT      O24536   0.945   8.986   6.415  0.6110 -0.3502 -0.6656
 5683WAT     H124537   0.925   9.040   6.338  1.9928 -2.1375 -2.4157
 5683WAT     H224538   0.907   8.901   6.395  0.2121 -0.6109  1.0859
 5683WAT    EPW24539   0.938   8.982   6.402  0.7406 -0.6208 -0.6654
 5684WAT      O24540  -1.110   0.808   8.853 -0.8591 -0.0708  0.5798
 5684WAT     H124541  -1.156   0.846   8.928 -2.2149 -2.9049  1.3504
 5684WAT     H224542  -1.147   0.853   8.777 -0.5604  1.8018  1.4956
 5684WAT    EPW24543  -1.121   0.819   8.853 -0.9986 -0.1976  0.8020
 5685WAT      O24544  -1.075   2.852   1.469  0.0640  0.0779  0.2354
 5685WAT     H124545  -1.020   2.893   1.535  0.0527  1.6473 -0.6699
 5685WAT     H224546  -1.104   2.925   1.414 -1.4836 -0.9303 -0.3553
 5685WAT    EPW24547  -1.072   2.867   1.471 -0.1416  0.1519  0.0381
 5686WAT      O24548  -3.275   2.766   6.225  0.0547  0.1992  0.2430
 5686WAT     H124549  -3.244   2.842   6.274  0.7718  0.7598 -1.0129
 5686WAT     H224550  -3.206   2.700   6.235 -0.2034 -0.0050  0.6917
 5686WAT    EPW24551  -3.262   2.767   6.233  0.1153  0.2462  0.1366
 5687WAT      O24552  -3.872   8.198   3.413  0.3091  0.1223  0.1800
 5687WAT     H124553  -3.881   8.121   3.469 -0.6173  1.0006  1.2873
 5687WAT     H224554  -3.919   8.267   3.459  0.4942  1.1799 -1.1454
 5687WAT    EPW24555  -3.879   8.197   3.426  0.2112  0.3777  0.1512
 5688WAT      O24556  -2.441   2.576   7.203  0.4531 -0.2427 -0.0054
 5688WAT     H124557  -2.363   2.560   7.151  0.6180 -1.0492  0.4638
 5688WAT     H224558  -2.414   2.639   7.269  1.1915 -1.7576  1.1929
 5688WAT    EPW24559  -2.427   2.582   7.205  0.5722 -0.5488  0.2146
 5689WAT      O24560   7.108   1.915   4.952  0.0535  0.3184  0.0174
 5689WAT     H124561   7.132   1.995   4.905  0.8247 -0.4134 -0.8952
 5689WAT     H224562   7.186   1.894   5.004  0.6237 -0.8381 -1.2144
 5689WAT    EPW24563   7.122   1.923   4.952  0.2303  0.0694 -0.2656
 5690WAT      O24564   2.332   4.476   6.598 -0.2667 -0.4572  0.3118
 5690WAT     H124565   2.241   4.449   6.584 -1.2196  2.5560  0.0189
 5690WAT     H224566   2.375   4.459   6.514 -1.4132  1.0168 -0.6152
 5690WAT    EPW24567   2.325   4.470   6.585 -0.5436  0.1345  0.1509
 5691WAT      O24568   5.826   2.939   1.609 -0.1134 -0.1024 -0.1127
 5691WAT     H124569   5.787   3.003   1.669  4.1157 -0.5482  3.6550
 5691WAT     H224570   5.867   2.992   1.541  1.9609  1.2789  2.0676
 5691WAT    EPW24571   5.826   2.955   1.608  0.7179  0.0210  0.6718
 5692WAT      O24572  -5.895   7.482   7.816  0.2993  0.1280  0.6678
 5692WAT     H124573  -5.983   7.481   7.777  0.5261  0.7957  0.1198
 5692WAT     H224574  -5.839   7.446   7.748  0.6875  1.2161  0.4085
 5692WAT    EPW24575  -5.899   7.477   7.802  0.3803  0.3593  0.5612
 5693WAT      O24576  -2.624   6.922   2.195  0.1649  0.2230 -0.2729
 5693WAT     H124577  -2.551   6.983   2.206  1.5909 -1.1047 -1.7587
 5693WAT     H224578  -2.702   6.978   2.192  1.2081  1.7845  0.2545
 5693WAT    EPW24579  -2.624   6.938   2.196  0.4907  0.2539 -0.3994
 5694WAT      O24580  -0.769   9.453   2.638 -0.5415  0.0351  0.4512
 5694WAT     H124581  -0.783   9.477   2.547  0.6916  0.0681  0.2574
 5694WAT     H224582  -0.709   9.519   2.672  0.5037 -1.0166  0.7428
 5694WAT    EPW24583  -0.763   9.465   2.631 -0.2410 -0.0997  0.4640
 5695WAT      O24584  -0.132   3.844   0.276  0.7602 -0.7826 -0.3218
 5695WAT     H124585  -0.175   3.882   0.200  0.6074  0.0779  0.1776
 5695WAT     H224586  -0.039   3.848   0.255  0.6503 -2.0422 -1.1300
 5695WAT    EPW24587  -0.126   3.850   0.263  0.7256 -0.8352 -0.3625
 5696WAT      O24588  -2.143   9.715   7.279  0.2719 -0.3122  0.4944
 5696WAT     H124589  -2.051   9.692   7.263  0.1518  0.7168 -2.2528
 5696WAT     H224590  -2.138   9.786   7.343  1.6517  1.1726 -1.1161
 5696WAT    EPW24591  -2.130   9.721   7.285  0.4381  0.0191 -0.0806
 5697WAT      O24592  -0.330   9.755   4.618 -0.1234  0.1608  0.2739
 5697WAT     H124593  -0.325   9.843   4.654 -0.8510 -0.9478  3.3639
 5697WAT     H224594  -0.246   9.715   4.639 -0.3231 -0.3259  0.1803
 5697WAT    EPW24595  -0.318   9.761   4.625 -0.2457 -0.0501  0.6692
 5698WAT      O24596   0.012   9.041   3.708  0.2515  0.0705 -0.2120
 5698WAT     H124597   0.046   8.966   3.658  1.2792  0.4193 -0.0526
 5698WAT     H224598   0.084   9.104   3.708 -0.7895  1.2916 -0.8102
 5698WAT    EPW24599   0.026   9.039   3.701  0.2498  0.2775 -0.2698
 5699WAT      O24600  -2.806   3.666   8.117  0.0487  0.0368 -0.8009
 5699WAT     H124601  -2.857   3.679   8.197 -0.3109  1.1297 -1.1927
 5699WAT     H224602  -2.727   3.718   8.131  0.2018 -0.1488 -0.9657
 5699WAT    EPW24603  -2.802   3.675   8.130  0.0216  0.1565 -0.8740
 5700WAT      O24604   6.539   6.297   2.275  0.1760  0.0908 -0.1922
 5700WAT     H124605   6.503   6.217   2.237  3.1846 -0.5459 -2.0325
 5700WAT     H224606   6.615   6.318   2.220  0.2826  3.5184  0.9903
 5700WAT    EPW24607   6.545   6.289   2.263  0.5870  0.4587 -0.2789
 5701WAT      O24608   6.603   6.349   0.606  0.0116  0.5915  0.4712
 5701WAT     H124609   6.665   6.281   0.632 -0.1632  0.1989 -0.1263
 5701WAT     H224610   6.517   6.313   0.629 -0.1148  0.4117 -0.2877
 5701WAT    EPW24611   6.600   6.335   0.613 -0.0281  0.5162  0.2923
 5702WAT      O24612  -1.760   7.691   2.855  0.8046 -0.3172  0.6646
 5702WAT     H124613  -1.678   7.701   2.904  0.1599  1.3909  1.4669
 5702WAT     H224614  -1.812   7.631   2.908  2.1163 -2.8353 -0.7150
 5702WAT    EPW24615  -1.756   7.684   2.868  0.8926 -0.4239  0.5884
 5703WAT      O24616   0.486   2.941   3.296 -0.1087  0.0653  0.2487
 5703WAT     H124617   0.428   2.936   3.219  2.1763  0.6485 -1.6385
 5703WAT     H224618   0.562   2.888   3.272  0.8535  0.6106  1.9422
 5703WAT    EPW24619   0.488   2.933   3.282  0.3196  0.2141  0.2232
 5704WAT      O24620  -3.613   9.343   2.730  0.2277 -0.1574  0.3374
 5704WAT     H124621  -3.539   9.403   2.724  2.7392 -2.2503  4.7056
 5704WAT     H224622  -3.682   9.394   2.772  0.8873  0.7119  0.3961
 5704WAT    EPW24623  -3.612   9.358   2.735  0.6460 -0.3185  0.9212
 5705WAT      O24624   6.037   8.384   0.160 -0.0620 -0.8438  0.4814
 5705WAT     H124625   5.947   8.351   0.152 -0.8073  1.2703 -0.6964
 5705WAT     H224626   6.059   8.374   0.252 -2.2042  0.2045  1.1664
 5705WAT    EPW24627   6.028   8.378   0.171 -0.4427 -0.4268  0.4164
 5706WAT      O24628  -0.307   6.909   6.813  0.0946  0.5289 -0.2162
 5706WAT     H124629  -0.264   6.829   6.844  0.5603  1.2385  1.0511
 5706WAT     H224630  -0.305   6.901   6.717  0.4793 -0.7860 -0.1303
 5706WAT    EPW24631  -0.301   6.897   6.804  0.2068  0.4489 -0.0379
 5707WAT      O24632   4.224   3.932   3.006 -0.9779  0.4485 -0.0922
 5707WAT     H124633   4.238   3.949   3.099 -0.5571  1.0467 -0.2539
 5707WAT     H224634   4.172   4.007   2.976 -1.6481 -0.0585 -0.2123
 5707WAT    EPW24635   4.219   3.944   3.014 -1.0109  0.4605 -0.1293
 5708WAT      O24636   4.143   3.237   4.426 -0.3873 -0.3226 -0.2425
 5708WAT     H124637   4.218   3.276   4.470 -0.3021 -0.8030  0.0496
 5708WAT     H224638   4.070   3.296   4.446 -0.7971 -1.5216  2.2552
 5708WAT    EPW24639   4.143   3.250   4.435 -0.4301 -0.5442  0.1254
 5709WAT      O24640   3.493   6.828   1.542 -0.0638 -0.1810  0.6254
 5709WAT     H124641   3.432   6.871   1.482  0.2675  2.1149  1.8018
 5709WAT     H224642   3.439   6.803   1.617  0.3571  2.2066  1.8440
 5709WAT    EPW24643   3.478   6.831   1.544  0.0353  0.4365  0.9413
 5710WAT      O24644   5.638   4.008   1.537 -0.6521 -0.0472 -0.1158
 5710WAT     H124645   5.635   3.916   1.510  0.4912  0.2232 -1.2592
 5710WAT     H224646   5.677   4.006   1.625  0.1149 -0.6020 -0.4624
 5710WAT    EPW24647   5.643   3.996   1.545 -0.4003 -0.0848 -0.3123
 5711WAT      O24648   1.424   7.701   7.717 -0.1331 -0.2058 -0.6353
 5711WAT     H124649   1.494   7.639   7.697 -1.0600 -1.1932 -0.9232
 5711WAT     H224650   1.469   7.777   7.754  1.1389 -0.5475 -1.4093
 5711WAT    EPW24651   1.439   7.703   7.719 -0.0876 -0.3810 -0.7753
 5712WAT      O24652   4.357   4.722   6.788 -0.0297  0.5736  0.6792
 5712WAT     H124653   4.424   4.688   6.729 -1.8200 -1.0484 -0.5313
 5712WAT     H224654   4.323   4.800   6.743  0.7725  1.2051  1.1386
 5712WAT    EPW24655   4.361   4.728   6.774 -0.1602  0.4430  0.5801
 5713WAT      O24656  -2.092   9.802   5.645  1.2313  0.8299  0.6232
 5713WAT     H124657  -2.114   9.714   5.615  2.2454 -0.1700  2.7116
 5713WAT     H224658  -2.174   9.852   5.633  0.2181 -0.7427  0.7357
 5713WAT    EPW24659  -2.106   9.797   5.639  1.2314  0.4902  0.9136
 5714WAT      O24660  -1.354   2.315   1.396  0.1404 -0.7074  0.8091
 5714WAT     H124661  -1.278   2.310   1.338  0.4627 -1.4286  1.2865
 5714WAT     H224662  -1.426   2.278   1.344  0.2866 -0.7588  0.6424
 5714WAT    EPW24663  -1.354   2.310   1.381  0.2022 -0.8093  0.8501
 5715WAT      O24664   5.686  10.012   1.570  0.0001  0.2724  0.9317
 5715WAT     H124665   5.693   9.918   1.560  0.2587  0.0529  2.7689
 5715WAT     H224666   5.600  10.026   1.611 -1.8482  1.2249 -2.8530
 5715WAT    EPW24667   5.675  10.002   1.574 -0.2093  0.3691  0.6748
 5716WAT      O24668   0.774   9.610   3.433 -0.8213 -0.2154 -0.5893
 5716WAT     H124669   0.786   9.622   3.527 -2.8736  1.2136 -0.4324
 5716WAT     H224670   0.786   9.698   3.396 -3.6071  0.0349 -1.1316
 5716WAT    EPW24671   0.777   9.623   3.441 -1.4594  0.0062 -0.6402
 5717WAT      O24672   4.691   3.408   1.329 -0.0820  0.2404 -0.0289
 5717WAT     H124673   4.780   3.434   1.305 -0.5126  0.5532 -1.3502
 5717WAT     H224674   4.650   3.489   1.361 -0.7537  0.7844 -2.1230
 5717WAT    EPW24675   4.697   3.422   1.330 -0.2272  0.3535 -0.4795
 5718WAT      O24676   5.278   1.698   0.738  0.2170 -0.6180 -0.2230
 5718WAT     H124677   5.359   1.742   0.711 -0.4229  1.0212  0.3735
 5718WAT     H224678   5.272   1.622   0.681  1.6118 -0.1667 -1.0310
 5718WAT    EPW24679   5.288   1.694   0.727  0.3164 -0.3422 -0.2508
 5719WAT      O24680   5.224   4.624   1.345 -0.3139  0.7645 -0.2730
 5719WAT     H124681   5.273   4.690   1.394 -0.4243 -0.2342  1.2566
 5719WAT     H224682   5.287   4.553   1.331 -0.1585  1.2139 -2.0079
 5719WAT    EPW24683   5.239   4.623   1.350 -0.3080  0.6921 -0.3002
 5720WAT      O24684  -3.838   7.443   5.158 -0.3053 -0.1177 -0.5175
 5720WAT     H124685  -3.801   7.375   5.214  0.8831  2.7162  2.4850
 5720WAT     H224686  -3.886   7.500   5.219 -0.5666  2.1578 -2.7010
 5720WAT    EPW24687  -3.839   7.441   5.174 -0.1830  0.5562 -0.4096
 5721WAT      O24688  -2.787   2.178   5.742 -0.6191  0.5252  0.1401
 5721WAT     H124689  -2.708   2.156   5.693  0.7601  0.3855  2.2584
 5721WAT     H224690  -2.839   2.098   5.742 -1.3322  0.9358 -2.1935
 5721WAT    EPW24691  -2.783   2.164   5.736 -0.5312  0.5610  0.1118
 5722WAT      O24692  -2.865   4.073   5.971  0.4643  0.2792 -0.0769
 5722WAT     H124693  -2.791   4.018   5.997  0.1171  0.0007  0.3375
 5722WAT     H224694  -2.899   4.032   5.891  0.7623  0.4191 -0.2793
 5722WAT    EPW24695  -2.860   4.061   5.964  0.4578  0.2608 -0.0489
 5723WAT      O24696  -2.106   4.095   6.437  0.0051  0.4463  0.9480
 5723WAT     H124697  -2.052   4.052   6.370  0.9318 -1.4106  2.7916
 5723WAT     H224698  -2.073   4.185   6.438 -1.3021  1.1274 -2.2938
 5723WAT    EPW24699  -2.094   4.101   6.428 -0.0451  0.2913  0.7637
 5724WAT      O24700   4.226   1.848   5.073 -0.1973  0.3490  0.1848
 5724WAT     H124701   4.160   1.790   5.035 -0.2945  0.6710 -0.1524
 5724WAT     H224702   4.269   1.888   4.997  2.4994 -2.1106  0.2644
 5724WAT    EPW24703   4.223   1.846   5.058  0.1454  0.0671  0.1509
 5725WAT      O24704  -6.259   4.331   8.159  0.3816  0.2683 -0.0657
 5725WAT     H124705  -6.346   4.359   8.188  0.2130 -0.6997  0.4191
 5725WAT     H224706  -6.267   4.236   8.148  1.8191 -0.1039  1.6481
 5725WAT    EPW24707  -6.271   4.322   8.161  0.5488  0.0916  0.2241
 5726WAT      O24708   5.698   5.381   3.630 -0.3890 -0.3262  0.4775
 5726WAT     H124709   5.766   5.441   3.660  2.3515 -4.1055  2.7767
 5726WAT     H224710   5.736   5.338   3.554 -0.3474 -2.0272  1.4066
 5726WAT    EPW24711   5.712   5.383   3.624 -0.0219 -1.0490  0.9032
 5727WAT      O24712   1.485   4.103   0.511  0.3704 -0.0362 -0.1599
 5727WAT     H124713   1.399   4.100   0.554 -0.2730 -0.1880 -1.4211
 5727WAT     H224714   1.540   4.153   0.572 -0.5622 -0.0646  0.7394
 5727WAT    EPW24715   1.481   4.109   0.525  0.1625 -0.0598 -0.2077
 5728WAT      O24716  -2.120   7.013   3.214  0.1705 -0.0053 -0.3583
 5728WAT     H124717  -2.071   6.931   3.201 -1.3432 -0.8408 -1.0259
 5728WAT     H224718  -2.212   6.988   3.206 -0.3075  1.9455 -1.6198
 5728WAT    EPW24719  -2.126   6.999   3.211 -0.0923  0.1416 -0.6127
 5729WAT      O24720   6.067   4.414   5.400 -0.3088 -0.5787 -0.9109
 5729WAT     H124721   5.989   4.450   5.442  0.9893  1.0762  0.2122
 5729WAT     H224722   6.043   4.325   5.376 -1.8791 -0.7880  1.2214
 5729WAT    EPW24723   6.053   4.407   5.402 -0.3445 -0.3879 -0.4814
 5730WAT      O24724   4.523   5.052   7.483 -0.7161  0.4161 -0.0102
 5730WAT     H124725   4.584   4.979   7.494  0.7529  1.3976 -1.2144
 5730WAT     H224726   4.512   5.087   7.571 -3.5967 -2.7700  1.1496
 5730WAT    EPW24727   4.530   5.047   7.496 -0.9022  0.1252 -0.0160
 5731WAT      O24728   1.232   0.394   8.056  0.2314 -0.1758  0.1568
 5731WAT     H124729   1.150   0.357   8.090 -1.6949  1.7393 -2.0512
 5731WAT     H224730   1.271   0.439   8.131 -0.3531 -1.6860  1.4247
 5731WAT    EPW24731   1.226   0.395   8.071 -0.0998 -0.1224  0.0324
 5732WAT      O24732  -1.739   2.168   3.890 -0.1254  0.3308  0.1248
 5732WAT     H124733  -1.687   2.162   3.970 -0.4337 -2.1395  0.2067
 5732WAT     H224734  -1.682   2.130   3.822  0.3817  2.9477 -1.0390
 5732WAT    EPW24735  -1.724   2.162   3.892 -0.0992  0.3501 -0.0179
 5733WAT      O24736   2.453   9.745   2.825 -0.3796  0.0134  0.3678
 5733WAT     H124737   2.470   9.652   2.808  0.4057  0.0488  0.9218
 5733WAT     H224738   2.430   9.748   2.918  0.0803  0.4339  0.4685
 5733WAT    EPW24739   2.452   9.733   2.835 -0.2154  0.0734  0.4541
 5734WAT      O24740   2.202   5.638   6.738  0.1737  0.3247  0.1160
 5734WAT     H124741   2.215   5.713   6.679 -0.8645  1.5165  1.3508
 5734WAT     H224742   2.164   5.676   6.817  0.4899 -1.4003  1.1355
 5734WAT    EPW24743   2.199   5.653   6.740  0.0784  0.2544  0.4132
 5735WAT      O24744   2.232   6.779   6.063 -0.3538  0.0353  0.5920
 5735WAT     H124745   2.302   6.844   6.076 -0.4469  0.1848  0.3609
 5735WAT     H224746   2.249   6.744   5.975 -0.3412 -0.2088  0.6919
 5735WAT    EPW24747   2.244   6.783   6.053 -0.3643  0.0229  0.5748
 5736WAT      O24748   0.825   2.325   8.038  1.2688 -0.4944 -0.4538
 5736WAT     H124749   0.891   2.390   8.063  2.0425 -1.2319 -0.5415
 5736WAT     H224750   0.776   2.308   8.118  0.9166  0.3517 -0.4809
 5736WAT    EPW24751   0.827   2.331   8.052  1.3244 -0.4801 -0.4692
 5737WAT      O24752   0.981   7.851   8.767  0.0163  0.0354 -0.5757
 5737WAT     H124753   0.982   7.944   8.791 -0.5611 -0.1166  0.0647
 5737WAT     H224754   0.925   7.810   8.833  0.2666 -0.7701 -0.8528
 5737WAT    EPW24755   0.974   7.858   8.779 -0.0269 -0.0908 -0.5279
 5738WAT      O24756   0.471   2.343   3.747  0.0462 -0.1657  0.9332
 5738WAT     H124757   0.564   2.364   3.753 -0.4264  2.3339  0.5074
 5738WAT     H224758   0.434   2.373   3.830 -0.5333 -0.3466  0.7501
 5738WAT    EPW24759   0.478   2.350   3.759 -0.0926  0.1401  0.8527
 5739WAT      O24760   3.521   4.861   0.169 -0.2423 -0.2745  0.5358
 5739WAT     H124761   3.567   4.944   0.180 -0.2638 -0.4068  1.7071
 5739WAT     H224762   3.529   4.841   0.075  1.7018 -0.0638  0.6234
 5739WAT    EPW24763   3.528   4.869   0.158  0.0112 -0.2642  0.7018
 5740WAT      O24764   3.665   5.779   3.726  0.3336  0.4186  0.1375
 5740WAT     H124765   3.743   5.817   3.684  0.9322  0.2172  1.0333
 5740WAT     H224766   3.663   5.821   3.812 -0.5672  0.4264  0.1165
 5740WAT    EPW24767   3.675   5.790   3.732  0.2936  0.3932  0.2528
 5741WAT      O24768   3.131   6.379   5.331  0.4626  0.4336 -0.1916
 5741WAT     H124769   3.085   6.442   5.386  0.9358  0.2300  0.4554
 5741WAT     H224770   3.219   6.415   5.322  1.5186 -1.2879  2.2411
 5741WAT    EPW24771   3.137   6.392   5.337  0.6642  0.1798  0.2146
 5742WAT      O24772   1.726   1.890   0.454  0.6198  0.8351 -0.4946
 5742WAT     H124773   1.635   1.874   0.481  0.8819 -2.5931 -1.2234
 5742WAT     H224774   1.749   1.973   0.497 -2.4343  1.2164  0.6803
 5742WAT    EPW24775   1.717   1.899   0.463  0.2515  0.4332 -0.4357
 5743WAT      O24776  -2.413   9.343   5.487 -0.7309  0.3067  0.0727
 5743WAT     H124777  -2.467   9.325   5.564 -0.0545  2.6305  1.1852
 5743WAT     H224778  -2.457   9.415   5.443  0.5977  1.1779  0.1228
 5743WAT    EPW24779  -2.426   9.350   5.491 -0.4666  0.7281  0.2260
 5744WAT      O24780   0.723   6.774   3.539  1.0862 -0.1230 -0.1149
 5744WAT     H124781   0.663   6.801   3.469  0.4132  1.0031  0.8652
 5744WAT     H224782   0.778   6.851   3.554  2.5870 -1.0315 -0.7593
 5744WAT    EPW24783   0.722   6.788   3.531  1.1954 -0.0942 -0.0706
 5745WAT      O24784   2.790   9.252   0.785 -0.6354 -0.7603  0.2988
 5745WAT     H124785   2.777   9.337   0.743  1.5360  0.6214  2.1246
 5745WAT     H224786   2.830   9.274   0.870  0.7100 -3.6307  0.5284
 5745WAT    EPW24787   2.794   9.266   0.791 -0.1715 -0.9561  0.5699
 5746WAT      O24788  -5.300   8.441   6.120 -0.4962 -0.6285 -0.1349
 5746WAT     H124789  -5.368   8.488   6.072  0.7693  2.3742  0.7801
 5746WAT     H224790  -5.288   8.493   6.200  2.9046 -0.9852 -0.3020
 5746WAT    EPW24791  -5.308   8.454   6.125  0.1192 -0.2794 -0.0362
 5747WAT      O24792   1.629   1.108   5.915  0.2121  0.3506  0.7049
 5747WAT     H124793   1.551   1.086   5.865  0.2112 -1.2585  1.3461
 5747WAT     H224794   1.596   1.153   5.992 -0.0360  0.1807  0.7000
 5747WAT    EPW24795   1.614   1.111   5.918  0.1792  0.1159  0.7889
 5748WAT      O24796   1.469   2.959   3.441  0.0212  0.0039 -0.4609
 5748WAT     H124797   1.504   3.013   3.370 -0.8123 -1.1480 -1.7926
 5748WAT     H224798   1.376   2.950   3.421  0.0330 -1.4630  0.0412
 5748WAT    EPW24799   1.461   2.965   3.429 -0.0873 -0.3415 -0.5704
 5749WAT      O24800  -0.574   4.827   4.579  0.4211  0.1392  0.1769
 5749WAT     H124801  -0.660   4.801   4.614 -0.2688  1.9044 -0.1240
 5749WAT     H224802  -0.512   4.770   4.624 -0.7005  0.3716  2.1382
 5749WAT    EPW24803  -0.577   4.816   4.590  0.1822  0.4027  0.3960
 5750WAT      O24804   1.235   2.872   3.351 -0.1338  0.0588  0.5431
 5750WAT     H124805   1.221   2.788   3.394  0.2875 -1.1213 -1.4962
 5750WAT     H224806   1.150   2.916   3.356 -0.7717 -1.1134  0.3997
 5750WAT    EPW24807   1.222   2.867   3.357 -0.1624 -0.2514  0.2552
 5751WAT      O24808   1.644   5.272   8.803  0.4923  0.5113  0.4162
 5751WAT     H124809   1.568   5.285   8.859 -1.8729  0.9330 -2.5794
 5751WAT     H224810   1.675   5.184   8.825 -1.1718  0.1271  1.4163
 5751WAT    EPW24811   1.638   5.262   8.813 -0.0392  0.5164  0.1526
 5752WAT      O24812   2.993   3.905   1.792 -0.1908 -0.2289 -0.5340
 5752WAT     H124813   2.965   3.874   1.879 -0.6578  0.5384 -0.3997
 5752WAT     H224814   2.915   3.948   1.756  0.5485  1.1411 -0.5390
 5752WAT    EPW24815   2.979   3.906   1.799 -0.1547  0.0530 -0.5170
 5753WAT      O24816   2.457   2.818   8.889  0.4555 -0.3406 -0.4998
 5753WAT     H124817   2.502   2.850   8.967  0.1725 -0.5840 -0.2327
 5753WAT     H224818   2.528   2.789   8.831  0.6430 -0.8277 -0.0351
 5753WAT    EPW24819   2.472   2.818   8.892  0.4430 -0.4369 -0.4034
 5754WAT      O24820  -0.350   6.726   8.870  0.1953 -0.7235 -0.5615
 5754WAT     H124821  -0.299   6.667   8.926  0.7222 -0.3949 -0.6969
 5754WAT     H224822  -0.420   6.670   8.835  0.8996 -1.3758 -0.9770
 5754WAT    EPW24823  -0.353   6.711   8.872  0.3577 -0.7660 -0.6342
 5755WAT      O24824  -1.388   2.931   0.996  0.4569  0.1433  0.5408
 5755WAT     H124825  -1.392   3.009   1.052 -0.1253  0.0956  0.5699
 5755WAT     H224826  -1.318   2.950   0.934  0.9072  0.3273  1.0955
 5755WAT    EPW24827  -1.379   2.944   0.995  0.4395  0.1613  0.6178
 5756WAT      O24828  -1.010   0.065   5.792  0.7799 -0.1744  0.3254
 5756WAT     H124829  -1.060   0.109   5.723  0.3921 -0.9277  0.1179
 5756WAT     H224830  -1.047   0.099   5.873 -0.1755 -0.8299  0.1746
 5756WAT    EPW24831  -1.021   0.075   5.794  0.6028 -0.3602  0.2780
 5757WAT      O24832  -2.964   0.059   7.451 -0.2352  0.7636  0.4212
 5757WAT     H124833  -2.921   0.062   7.365 -3.1891  0.6592 -1.1612
 5757WAT     H224834  -2.900   0.015   7.507  2.5164  2.3581 -1.2099
 5757WAT    EPW24835  -2.950   0.053   7.447 -0.2618  0.9599 -0.0024
 5758WAT      O24836   4.572   1.957   6.903  0.6171 -1.3717 -0.8913
 5758WAT     H124837   4.587   1.927   6.813 -0.2012  1.8995 -2.2667
 5758WAT     H224838   4.477   1.958   6.912  0.5451  1.0920 -1.1599
 5758WAT    EPW24839   4.561   1.953   6.892  0.4995 -0.6153 -1.1082
 5759WAT      O24840   1.104   1.200   0.912 -0.1888  0.3015  0.0877
 5759WAT     H124841   1.148   1.115   0.913 -0.2285  0.2248 -1.5168
 5759WAT     H224842   1.023   1.184   0.863  0.0745  1.3605 -0.7390
 5759WAT    EPW24843   1.099   1.187   0.905 -0.1593  0.4311 -0.2329
 5760WAT      O24844   2.484   0.703   8.998 -0.3960 -0.1456 -0.3002
 5760WAT     H124845   2.428   0.697   8.921 -1.5508  1.2701  0.3855
 5760WAT     H224846   2.561   0.751   8.969  0.4299 -1.9019 -1.1914
 5760WAT    EPW24847   2.487   0.708   8.984 -0.4393 -0.1906 -0.3271
 5761WAT      O24848   1.308   5.784   7.859 -0.3890 -0.0640  0.5186
 5761WAT     H124849   1.356   5.852   7.812 -0.8593  0.1098  0.2914
 5761WAT     H224850   1.374   5.743   7.915  0.3476 -0.7247 -0.7761
 5761WAT    EPW24851   1.323   5.787   7.860 -0.3539 -0.1285  0.3178
 5762WAT      O24852   7.316   5.308   0.098 -0.7699  0.5825  0.3699
 5762WAT     H124853   7.263   5.386   0.083 -3.0486 -0.5464  1.8859
 5762WAT     H224854   7.255   5.235   0.086  0.4274 -0.7998  2.1191
 5762WAT    EPW24855   7.301   5.308   0.095 -0.9127  0.2513  0.8005
 5763WAT      O24856  -5.043   5.727   7.596 -1.1409  0.1625 -0.0241
 5763WAT     H124857  -4.963   5.697   7.553  0.7764  2.8064  1.3891
 5763WAT     H224858  -5.094   5.647   7.611  1.3733 -1.6789 -0.6511
 5763WAT    EPW24859  -5.039   5.713   7.592 -0.5562  0.2682  0.0796
 5764WAT      O24860   0.773   6.513   1.434  0.6239  0.1020 -0.0122
 5764WAT     H124861   0.831   6.535   1.507  0.9100 -0.6415 -0.0083
 5764WAT     H224862   0.791   6.420   1.416  1.7324  0.6611 -2.1004
 5764WAT    EPW24863   0.783   6.504   1.441  0.8078  0.0775 -0.2871
 5765WAT      O24864   1.972   1.616   1.354  0.1558  0.9406 -0.3863
 5765WAT     H124865   1.952   1.690   1.297 -1.7676  0.9046  0.1650
 5765WAT     H224866   1.917   1.630   1.431 -0.0288 -0.8991 -0.1466
 5765WAT    EPW24867   1.962   1.628   1.356 -0.1222  0.6933 -0.2820
 5766WAT      O24868  -3.454   5.888   2.644  0.8825  0.1572 -0.4658
 5766WAT     H124869  -3.510   5.845   2.709 -0.1064 -0.1340 -1.4906
 5766WAT     H224870  -3.378   5.916   2.694  0.4144 -0.5839  0.7116
 5766WAT    EPW24871  -3.452   5.886   2.660  0.6905  0.0212 -0.4457
 5767WAT      O24872   4.290   9.279   5.450 -0.0022 -0.0496  0.1844
 5767WAT     H124873   4.231   9.303   5.521 -0.9567 -0.0503 -0.5827
 5767WAT     H224874   4.232   9.257   5.377  0.8180 -3.3677  0.3939
 5767WAT    EPW24875   4.274   9.279   5.450 -0.0200 -0.4873  0.1109
 5768WAT      O24876  -0.659   9.309   6.303  0.0676 -0.6869  0.3493
 5768WAT     H124877  -0.663   9.403   6.284  2.3442 -1.1624 -3.5132
 5768WAT     H224878  -0.750   9.279   6.292 -0.3345  0.7617 -0.6226
 5768WAT    EPW24879  -0.672   9.317   6.299  0.3148 -0.5579 -0.2882
 5769WAT      O24880   5.811   8.417   1.066 -0.3672 -0.5339 -0.0941
 5769WAT     H124881   5.727   8.371   1.064 -0.6532 -0.1826  1.6677
 5769WAT     H224882   5.849   8.402   0.980 -1.1233 -2.7699 -0.0907
 5769WAT    EPW24883   5.805   8.409   1.055 -0.5045 -0.7825  0.1388
 5770WAT      O24884  -2.095   4.119   7.806  0.4577  0.4186 -0.8254
 5770WAT     H124885  -2.100   4.065   7.728  0.8791 -0.7836 -0.0509
 5770WAT     H224886  -2.002   4.137   7.818  0.6004 -0.8995  0.3475
 5770WAT    EPW24887  -2.084   4.114   7.797  0.5322  0.0861 -0.5686
 5771WAT      O24888   5.335   8.345   3.253 -0.1650  0.1417 -0.0342
 5771WAT     H124889   5.328   8.367   3.160  0.5176 -1.9310 -0.6275
 5771WAT     H224890   5.259   8.289   3.269  1.3844 -2.1449 -0.2233
 5771WAT    EPW24891   5.324   8.341   3.243  0.1295 -0.4330 -0.1374
 5772WAT      O24892   2.938   6.547   4.599  0.1739 -0.2652  0.3926
 5772WAT     H124893   2.946   6.490   4.522  0.0785 -1.5766  1.3238
 5772WAT     H224894   2.910   6.632   4.563  0.4973 -0.7397 -1.0460
 5772WAT    EPW24895   2.935   6.551   4.584  0.2041 -0.5007  0.3257
 5773WAT      O24896  -1.889   1.149   8.441  0.3547  0.0796 -0.2203
 5773WAT     H124897  -1.844   1.100   8.372  0.3572  0.1469 -0.2667
 5773WAT     H224898  -1.846   1.120   8.522 -0.9053 -1.3947 -0.0515
 5773WAT    EPW24899  -1.877   1.139   8.443  0.1888 -0.1060 -0.2041
 5774WAT      O24900   2.316   1.974   0.617 -1.2372 -0.0993  0.0227
 5774WAT     H124901   2.363   2.057   0.629  0.9424 -1.2351 -0.1056
 5774WAT     H224902   2.384   1.907   0.625 -3.2096 -2.0344  2.1033
 5774WAT    EPW24903   2.331   1.976   0.620 -1.2099 -0.5043  0.2802
 5775WAT      O24904  -0.831   8.360   1.010  0.4293 -0.4640  0.0767
 5775WAT     H124905  -0.739   8.334   1.005  0.4764 -0.3763  0.4231
 5775WAT     H224906  -0.848   8.370   1.104  0.1225 -0.2825  0.0044
 5775WAT    EPW24907  -0.821   8.358   1.022  0.3951 -0.4287  0.1129
 5776WAT      O24908   4.556   9.958   0.206 -0.0906 -0.2440 -0.4895
 5776WAT     H124909   4.500  10.033   0.226  0.1343  0.0307 -0.8811
 5776WAT     H224910   4.507   9.907   0.142  0.6307  0.6606 -1.7997
 5776WAT    EPW24911   4.542   9.961   0.200  0.0343 -0.0882 -0.7140
 5777WAT      O24912   5.580   2.397   1.407 -0.7026 -0.1357 -0.1721
 5777WAT     H124913   5.581   2.459   1.480  0.6635 -0.2944 -0.0322
 5777WAT     H224914   5.487   2.384   1.388 -1.1223 -0.4154  1.8132
 5777WAT    EPW24915   5.568   2.403   1.414 -0.5777 -0.1935  0.1081
 5778WAT      O24916   1.177   5.422   4.719  0.2675 -0.1249  0.2585
 5778WAT     H124917   1.233   5.463   4.654  0.6772  0.4099  0.9416
 5778WAT     H224918   1.181   5.328   4.698  1.2188 -0.0697  0.1424
 5778WAT    EPW24919   1.185   5.415   4.707  0.4469 -0.0470  0.3333
 5779WAT      O24920   8.160   1.825   2.108 -0.3324 -0.7411 -0.1858
 5779WAT     H124921   8.242   1.805   2.153 -0.0579  1.8925  0.6847
 5779WAT     H224922   8.145   1.750   2.050  1.8119 -2.0446  0.8329
 5779WAT    EPW24923   8.169   1.813   2.106 -0.0138 -0.5657  0.0633
 5780WAT      O24924   1.218   9.144   2.980 -0.4351 -0.5766  0.2957
 5780WAT     H124925   1.152   9.116   2.917 -0.7956 -1.9769  1.2340
 5780WAT     H224926   1.278   9.199   2.930 -1.4103 -0.6029 -0.9528
 5780WAT    EPW24927   1.217   9.148   2.965 -0.6112 -0.7648  0.2548
 5781WAT      O24928  -1.795   4.949   4.198 -0.1878 -0.5123 -0.3945
 5781WAT     H124929  -1.715   4.994   4.224  0.7096 -1.4630 -1.4084
 5781WAT     H224930  -1.863   5.017   4.200  1.4984  1.5928 -4.0814
 5781WAT    EPW24931  -1.794   4.964   4.201  0.1529 -0.3600 -1.0147
 5782WAT      O24932  -4.318   1.388   7.354  0.2540  0.3458  0.7496
 5782WAT     H124933  -4.317   1.428   7.267  1.2951 -0.8831  0.1684
 5782WAT     H224934  -4.251   1.320   7.350 -0.0188 -0.0596  2.3677
 5782WAT    EPW24935  -4.309   1.385   7.342  0.3552  0.1302  0.8862
 5783WAT      O24936  -3.833   4.113   4.630 -0.1797  0.2519 -0.4172
 5783WAT     H124937  -3.903   4.161   4.585 -0.0262 -1.8716 -3.1816
 5783WAT     H224938  -3.753   4.142   4.587  0.0176 -1.5168 -1.3175
 5783WAT    EPW24939  -3.832   4.123   4.619 -0.1335 -0.2615 -0.9005
 5784WAT      O24940   1.023   4.625   2.629 -0.2681  0.0250  0.6703
 5784WAT     H124941   1.108   4.592   2.658  0.4102  1.5253  0.4813
 5784WAT     H224942   0.998   4.568   2.557  0.7686 -0.2118  0.4832
 5784WAT    EPW24943   1.031   4.613   2.624 -0.0420  0.1917  0.6207
 5785WAT      O24944  -1.214   1.404   7.085 -0.3637  0.5222 -0.1112
 5785WAT     H124945  -1.183   1.439   7.002 -0.4118  2.2680  0.5599
 5785WAT     H224946  -1.202   1.476   7.147  1.6635 -1.3786  1.9009
 5785WAT    EPW24947  -1.208   1.418   7.082 -0.1027  0.5018  0.2427
 5786WAT      O24948   1.760   2.092   5.951 -0.3293  0.6860  0.2941
 5786WAT     H124949   1.728   2.023   6.011  1.2213 -0.6833 -0.3693
 5786WAT     H224950   1.852   2.105   5.977  0.6088 -0.4502 -2.1573
 5786WAT    EPW24951   1.768   2.084   5.963 -0.0011  0.3556 -0.1166
 5787WAT      O24952  -1.319   4.063   2.906  0.3247 -0.8131 -0.8386
 5787WAT     H124953  -1.352   4.066   2.996 -0.8714  1.6580 -1.2703
 5787WAT     H224954  -1.254   4.133   2.903  1.1203 -1.5701 -1.6489
 5787WAT    EPW24955  -1.315   4.073   2.918  0.2719 -0.5870 -1.0024
 5788WAT      O24956   9.004   1.229   0.224  0.3658 -0.1276 -0.1125
 5788WAT     H124957   8.918   1.268   0.210  0.4498 -0.0213 -0.3436
 5788WAT     H224958   8.989   1.158   0.287  0.3694  0.9055  1.1041
 5788WAT    EPW24959   8.991   1.225   0.231  0.3772  0.0226  0.0175
 5789WAT      O24960   3.593   0.367   7.911  0.6040 -0.1707 -0.3961
 5789WAT     H124961   3.537   0.443   7.901  0.7327 -0.0245 -0.0200
 5789WAT     H224962   3.593   0.349   8.005 -0.5264 -1.4760 -0.6103
 5789WAT    EPW24963   3.586   0.374   7.922  0.4719 -0.3236 -0.3748
 5790WAT      O24964  -0.882   2.329   8.503 -0.3412 -0.0208 -0.7086
 5790WAT     H124965  -0.943   2.402   8.492  2.1089  2.2030 -0.4939
 5790WAT     H224966  -0.863   2.300   8.414 -1.7272 -0.8527 -0.7742
 5790WAT    EPW24967  -0.888   2.335   8.490 -0.2009  0.1627 -0.6890
 5791WAT      O24968  -5.435   2.725   8.214  0.5013  0.0596  1.0418
 5791WAT     H124969  -5.353   2.677   8.219  0.2331 -0.4984  0.3492
 5791WAT     H224970  -5.438   2.757   8.123 -0.4487 -0.6932  0.7828
 5791WAT    EPW24971  -5.425   2.723   8.202  0.3405 -0.1132  0.9160
 5792WAT      O24972   4.480   8.466   4.064  0.7293 -1.0350  0.8849
 5792WAT     H124973   4.388   8.466   4.091  1.1424 -2.3211  2.5027
 5792WAT     H224974   4.493   8.380   4.023  1.0417 -0.5618 -0.0286
 5792WAT    EPW24975   4.469   8.454   4.062  0.8249 -1.1425  0.9778
 5793WAT      O24976   2.253   8.688   3.449 -0.4578  0.0766 -0.7825
 5793WAT     H124977   2.217   8.652   3.530  0.0488  1.8109  0.2640
 5793WAT     H224978   2.291   8.612   3.405  2.5976 -0.5269  2.3870
 5793WAT    EPW24979   2.253   8.673   3.454  0.0120  0.2260 -0.2264
 5794WAT      O24980  -1.423   6.536   1.900  0.5294  0.3827 -0.8460
 5794WAT     H124981  -1.357   6.475   1.865 -1.7639 -2.0094 -1.3442
 5794WAT     H224982  -1.487   6.545   1.829 -1.2613  0.0851  0.6371
 5794WAT    EPW24983  -1.423   6.529   1.886 -0.0092  0.0281 -0.7161
 5795WAT      O24984  -0.620   4.355   1.461  0.6369  0.1446  0.1239
 5795WAT     H124985  -0.590   4.422   1.522  1.2287 -0.0807  0.0777
 5795WAT     H224986  -0.573   4.276   1.485  1.0371  0.1012 -0.7473
 5795WAT    EPW24987  -0.610   4.354   1.472  0.7677  0.1090  0.0029
 5796WAT      O24988   5.516   3.446   1.363  0.2137 -0.5598  0.3459
 5796WAT     H124989   5.557   3.409   1.441 -0.1691 -0.0585  0.7951
 5796WAT     H224990   5.579   3.432   1.293  1.9489  1.6982  1.3171
 5796WAT    EPW24991   5.530   3.439   1.364  0.3920 -0.1960  0.5333
 5797WAT      O24992   2.376   8.924   0.213  0.1362  0.6728 -0.2621
 5797WAT     H124993   2.378   8.829   0.204 -0.0602  0.7325 -0.9702
 5797WAT     H224994   2.284   8.947   0.201 -0.1057  0.8076  1.5706
 5797WAT    EPW24995   2.364   8.914   0.210  0.0784  0.6986 -0.1137
 5798WAT      O24996   1.827   7.697   2.403 -0.7306  0.3350  0.0028
 5798WAT     H124997   1.814   7.763   2.470 -0.4771 -0.1007  0.4865
 5798WAT     H224998   1.850   7.747   2.324 -1.7364  0.8879  0.0537
 5798WAT    EPW24999   1.829   7.712   2.401 -0.8298  0.3505  0.0733
 5799WAT      O25000  -4.569   2.834   6.783 -0.2810  0.6482  0.1697
 5799WAT     H125001  -4.646   2.781   6.804  0.1434 -0.2452 -0.4764
 5799WAT     H225002  -4.561   2.894   6.857 -0.8139 -0.1401  0.8960
 5799WAT    EPW25003  -4.578   2.835   6.795 -0.2952  0.4264  0.1802
 5800WAT      O25004   6.962   8.911   0.058 -0.2837  0.1074  0.1328
 5800WAT     H125005   7.044   8.947   0.091  0.5048  1.6245 -3.1102
 5800WAT     H225006   6.897   8.979   0.075 -0.4267 -0.1564  0.6831
 5800WAT    EPW25007   6.965   8.924   0.065 -0.1986  0.2728 -0.2224
 5801WAT      O25008   0.759   8.760   2.367 -0.6319  0.7757 -0.2197
 5801WAT     H125009   0.699   8.823   2.407  0.4267 -0.0664  2.9567
 5801WAT     H225010   0.834   8.813   2.338 -0.1640  1.1661  1.5712
 5801WAT    EPW25011   0.761   8.775   2.368 -0.4306  0.7162  0.4354
 5802WAT      O25012   2.936   4.199   2.751 -0.0513 -0.2881 -1.0452
 5802WAT     H125013   2.975   4.218   2.665  0.3985 -1.3462 -1.0896
 5802WAT     H225014   2.946   4.281   2.800  2.0091 -0.4232 -1.1449
 5802WAT    EPW25015   2.942   4.212   2.746  0.2798 -0.4456 -1.0643
 5803WAT      O25016   4.538   1.268   1.271  0.5473 -0.2583 -0.0759
 5803WAT     H125017   4.522   1.356   1.236  0.1241 -0.3268 -0.0700
 5803WAT     H225018   4.450   1.230   1.280  0.6981 -0.5119  0.3612
 5803WAT    EPW25019   4.524   1.275   1.268  0.5112 -0.3008 -0.0175
 5804WAT      O25020  -0.584   7.288   3.524  0.6107 -0.3401 -0.6270
 5804WAT     H125021  -0.669   7.246   3.509  1.1040 -2.0627  1.0070
 5804WAT     H225022  -0.599   7.380   3.506 -1.1854 -0.8262 -1.9205
 5804WAT    EPW25023  -0.597   7.294   3.519  0.4388 -0.6313 -0.5820
 5805WAT      O25024  -1.240   9.611   7.845  0.5756  0.2772  0.4387
 5805WAT     H125025  -1.286   9.694   7.853 -0.9605 -0.6203  1.4523
 5805WAT     H225026  -1.149   9.635   7.829 -0.3694  2.1661 -3.4927
 5805WAT    EPW25027  -1.234   9.625   7.844  0.2484  0.4077  0.0539
 5806WAT      O25028  -3.249   9.070   3.025 -0.0748  0.0348  0.1675
 5806WAT     H125029  -3.177   9.124   3.057  1.2436 -1.1490 -0.7002
 5806WAT     H225030  -3.297   9.128   2.964  0.5237  0.6339  0.2597
 5806WAT    EPW25031  -3.246   9.085   3.021  0.1781 -0.0420  0.0653
 5807WAT      O25032   2.983   7.947   0.645  0.4767  0.5728  0.5548
 5807WAT     H125033   3.070   7.914   0.667 -0.0343 -1.2184  0.0011
 5807WAT     H225034   2.926   7.912   0.713 -0.2377 -0.5217 -0.5945
 5807WAT    EPW25035   2.987   7.938   0.657  0.3151  0.1924  0.3302
 5808WAT      O25036   1.286   4.295   1.577  0.4320 -0.9250  0.2862
 5808WAT     H125037   1.205   4.258   1.543 -0.0635  1.7587 -1.8137
 5808WAT     H225038   1.258   4.372   1.626  1.6409  1.4712 -2.4601
 5808WAT    EPW25039   1.272   4.300   1.579  0.5261 -0.2551 -0.3530
 5809WAT      O25040   6.292   0.295   2.417 -0.5207  0.2966 -0.0043
 5809WAT     H125041   6.291   0.352   2.340 -1.4775  1.2883  0.7093
 5809WAT     H225042   6.208   0.312   2.460 -0.6681 -1.3848  0.4419
 5809WAT    EPW25043   6.281   0.305   2.412 -0.6664  0.2056  0.1487
 5810WAT      O25044  -7.041   7.932   8.379  0.5023 -0.1442  0.0257
 5810WAT     H125045  -7.042   8.025   8.356 -0.3375  0.1010  0.9610
 5810WAT     H225046  -7.024   7.887   8.297  1.0688  0.8426 -0.4131
 5810WAT    EPW25047  -7.039   7.938   8.365  0.4661  0.0184  0.0916
 5811WAT      O25048  -3.573   8.897   7.934 -0.1300  0.2649  0.8151
 5811WAT     H125049  -3.564   8.811   7.893 -1.2523  0.3249  0.4258
 5811WAT     H225050  -3.652   8.891   7.987 -0.9724  1.4515 -0.2571
 5811WAT    EPW25051  -3.582   8.885   7.935 -0.3892  0.4296  0.6223
 5812WAT      O25052   6.385   9.536   0.459 -0.9830 -0.4035 -0.0388
 5812WAT     H125053   6.473   9.539   0.421 -0.7405  0.3390  0.5754
 5812WAT     H225054   6.327   9.562   0.387 -0.3611  3.1819  0.6063
 5812WAT    EPW25055   6.389   9.540   0.444 -0.8690  0.1678  0.1273
 5813WAT      O25056   5.806   5.538   4.857 -0.6970  0.5868 -0.5054
 5813WAT     H125057   5.719   5.523   4.894  0.5016 -1.8884  1.6450
 5813WAT     H225058   5.851   5.590   4.923  0.2310 -0.4583 -0.2804
 5813WAT    EPW25059   5.800   5.543   4.871 -0.4165  0.1223 -0.1922
 5814WAT      O25060  -2.357   2.301   6.565 -0.5160  0.6840 -0.4500
 5814WAT     H125061  -2.424   2.245   6.525 -0.3792 -1.2299  1.7532
 5814WAT     H225062  -2.278   2.286   6.512 -0.9005  0.0022 -0.8416
 5814WAT    EPW25063  -2.355   2.292   6.553 -0.5487  0.3417 -0.2110
 5815WAT      O25064   5.489   0.001   5.222  0.6904 -0.1056  0.2662
 5815WAT     H125065   5.470   0.085   5.179  3.8711 -0.8123 -3.0875
 5815WAT     H225066   5.517   0.025   5.310  1.1707  2.3502 -0.4690
 5815WAT    EPW25067   5.490   0.015   5.228  1.1733  0.1251 -0.2732
 5816WAT      O25068  -4.868   8.306   3.953 -0.3069  0.5753  0.0435
 5816WAT     H125069  -4.905   8.374   3.897  1.4007  1.5294 -0.0118
 5816WAT     H225070  -4.850   8.233   3.894 -1.6441  0.2570  0.0012
 5816WAT    EPW25071  -4.870   8.306   3.938 -0.2580  0.6595  0.0306
 5817WAT      O25072   4.724   0.638   5.114 -0.0631 -0.0622 -0.3864
 5817WAT     H125073   4.639   0.675   5.137  0.4678  1.5649 -0.9059
 5817WAT     H225074   4.722   0.549   5.150 -2.8383 -0.9031 -2.2244
 5817WAT    EPW25075   4.713   0.631   5.121 -0.3593  0.0415 -0.6974
 5818WAT      O25076   1.162   6.517   2.531 -0.2008 -0.1404  0.1316
 5818WAT     H125077   1.137   6.428   2.505 -2.2682  0.9017 -1.7848
 5818WAT     H225078   1.083   6.554   2.569 -0.1428  1.6154 -1.3170
 5818WAT    EPW25079   1.148   6.510   2.532 -0.4659  0.2286 -0.3122
 5819WAT      O25080   5.532   2.041   5.865 -0.0991  0.0196  0.0452
 5819WAT     H125081   5.470   2.064   5.795  0.3736  0.2362 -0.3052
 5819WAT     H225082   5.525   2.114   5.927  2.3339  1.8663 -1.6810
 5819WAT    EPW25083   5.523   2.054   5.864  0.2842  0.2917 -0.2286
 5820WAT      O25084   3.388   2.703   4.288  0.2619 -0.1840 -1.0037
 5820WAT     H125085   3.331   2.674   4.217  1.0655 -2.2114 -0.8945
 5820WAT     H225086   3.406   2.624   4.339  2.4052  0.5398 -0.5068
 5820WAT    EPW25087   3.383   2.689   4.285  0.6506 -0.3561 -0.9239
 5821WAT      O25088   7.133   7.014   1.148 -0.6832  0.4407 -0.0002
 5821WAT     H125089   7.086   7.078   1.095  0.1357 -0.4490 -1.8576
 5821WAT     H225090   7.078   6.936   1.147 -1.0403  0.6456  1.1707
 5821WAT    EPW25091   7.119   7.012   1.141 -0.6223  0.3502 -0.0908
 5822WAT      O25092  -5.325   6.285   5.095  0.3606  0.5589 -0.9055
 5822WAT     H125093  -5.351   6.343   5.167 -0.9531 -1.7854  0.6452
 5822WAT     H225094  -5.281   6.211   5.138 -2.2573 -1.9438 -2.1352
 5822WAT    EPW25095  -5.323   6.283   5.110 -0.1578 -0.0806 -0.8631
 5823WAT      O25096   3.090   3.772   4.215 -0.2646 -0.9202  0.3315
 5823WAT     H125097   3.140   3.846   4.181 -0.7273 -0.1353  1.3124
 5823WAT     H225098   3.133   3.749   4.298 -0.5516 -1.2901  0.3853
 5823WAT    EPW25099   3.102   3.779   4.222 -0.3635 -0.8655  0.4678
 5824WAT      O25100  -2.311   1.398   6.727 -0.4285  0.8315  0.4712
 5824WAT     H125101  -2.302   1.351   6.644  1.9176  3.2552 -0.8210
 5824WAT     H225102  -2.254   1.351   6.788 -1.9478 -0.7957  0.7266
 5824WAT    EPW25103  -2.303   1.386   6.724 -0.3195  0.9366  0.3345
 5825WAT      O25104  -1.166   5.584   5.985  0.2805  0.0705  0.2154
 5825WAT     H125105  -1.209   5.528   6.050  1.4063  0.7348  1.5901
 5825WAT     H225106  -1.236   5.639   5.950 -0.1637  0.4750  1.6974
 5825WAT    EPW25107  -1.181   5.584   5.989  0.3704  0.2115  0.5920
 5826WAT      O25108   3.211   8.370   1.572 -0.0032 -1.1151 -0.0005
 5826WAT     H125109   3.124   8.338   1.549 -1.3162  2.4557 -0.7035
 5826WAT     H225110   3.265   8.349   1.497 -1.4783  0.5599 -1.6338
 5826WAT    EPW25111   3.206   8.363   1.559 -0.3710 -0.4234 -0.3086
 5827WAT      O25112  -1.710   3.740   2.132 -0.4311 -0.4435 -0.2424
 5827WAT     H125113  -1.752   3.677   2.190 -0.2217 -0.2929  0.0790
 5827WAT     H225114  -1.662   3.687   2.068 -0.5665 -0.6095 -0.2049
 5827WAT    EPW25115  -1.709   3.725   2.131 -0.4214 -0.4455 -0.1950
 5828WAT      O25116   1.678   3.926   6.103  0.2917  0.6824 -0.6435
 5828WAT     H125117   1.723   3.928   6.188  1.2214  0.8635 -1.1287
 5828WAT     H225118   1.632   3.842   6.103  1.8325 -0.1928 -0.7206
 5828WAT    EPW25119   1.678   3.915   6.115  0.6176  0.5909 -0.7176
 5829WAT      O25120   0.233   1.999   2.774  0.2961  0.2240 -0.4691
 5829WAT     H125121   0.239   1.924   2.714  1.4632  1.4733 -1.9926
 5829WAT     H225122   0.201   2.071   2.720 -2.3721  0.5342  1.3329
 5829WAT    EPW25123   0.230   1.998   2.759  0.0981  0.4297 -0.4324
 5830WAT      O25124  -2.819   3.805   4.396 -0.4185 -0.0888 -1.3091
 5830WAT     H125125  -2.836   3.844   4.482 -0.1175 -0.1349 -1.2291
 5830WAT     H225126  -2.803   3.712   4.415  1.2449  0.1930 -1.2312
 5830WAT    EPW25127  -2.819   3.798   4.410 -0.1594 -0.0577 -1.2879
 5831WAT      O25128   3.927   8.270   6.459  0.1491 -0.8228 -0.0423
 5831WAT     H125129   3.836   8.283   6.432 -0.9366 -2.4826  2.4261
 5831WAT     H225130   3.979   8.293   6.382 -2.1268  3.0143 -0.6945
 5831WAT    EPW25131   3.922   8.275   6.446 -0.2943 -0.5355  0.1972
 5832WAT      O25132   3.199   7.607   0.252  0.1788  0.3398 -0.0171
 5832WAT     H125133   3.124   7.638   0.200  0.3591 -0.1573 -0.5820
 5832WAT     H225134   3.244   7.687   0.278 -0.2865  0.6251 -0.0659
 5832WAT    EPW25135   3.195   7.622   0.248  0.1413  0.3123 -0.0981
 5833WAT      O25136   1.690   1.293   1.331  0.5701 -0.3233  0.3023
 5833WAT     H125137   1.732   1.345   1.263 -0.5157  0.7729  0.4460
 5833WAT     H225138   1.639   1.227   1.283 -1.8472  1.6981 -0.1025
 5833WAT    EPW25139   1.689   1.291   1.316  0.1080  0.0879  0.2679
 5834WAT      O25140  -1.911   4.357   6.416 -0.4665  0.3261 -0.2150
 5834WAT     H125141  -1.907   4.423   6.485  0.2641  1.0346 -0.9133
 5834WAT     H225142  -1.871   4.399   6.340 -1.5876 -0.2980 -1.1898
 5834WAT    EPW25143  -1.905   4.371   6.415 -0.5180  0.3371 -0.4356
 5835WAT      O25144   6.858   6.593   0.837 -0.1644 -0.1295  0.1278
 5835WAT     H125145   6.940   6.626   0.800 -0.5675 -1.4739 -2.1078
 5835WAT     H225146   6.794   6.660   0.814 -0.2760 -0.6129 -1.0043
 5835WAT    EPW25147   6.861   6.606   0.829 -0.2325 -0.3703 -0.3164
 5836WAT      O25148  -0.483   3.654   7.111  0.1996 -0.1640 -0.3264
 5836WAT     H125149  -0.531   3.711   7.172  1.7528  0.0123  0.7914
 5836WAT     H225150  -0.525   3.568   7.121  0.2992 -0.0913  0.8750
 5836WAT    EPW25151  -0.495   3.650   7.120  0.4175 -0.1311 -0.0203
 5837WAT      O25152  -1.281   2.689   5.250  0.5035  0.2172  0.9663
 5837WAT     H125153  -1.285   2.704   5.344 -2.3446 -0.6430  1.0725
 5837WAT     H225154  -1.295   2.775   5.211 -1.3719  0.1290  1.3934
 5837WAT    EPW25155  -1.283   2.702   5.257 -0.1196  0.0921  1.0366
 5838WAT      O25156  -2.793   3.711   7.637  0.3941  0.0401 -0.0862
 5838WAT     H125157  -2.868   3.737   7.584  0.5440  1.2186  0.2580
 5838WAT     H225158  -2.718   3.719   7.578  0.3242 -0.5629 -0.2594
 5838WAT    EPW25159  -2.793   3.715   7.622  0.4047  0.1159 -0.0637
 5839WAT      O25160   1.715  10.178   4.130  0.2462 -0.5925  0.2082
 5839WAT     H125161   1.683  10.186   4.220  0.3627  1.0409  0.1350
 5839WAT     H225162   1.781  10.247   4.122 -0.1867 -0.3164 -1.2995
 5839WAT    EPW25163   1.719  10.188   4.141  0.2044 -0.3405 -0.0005
 5840WAT      O25164  -6.854   7.877   7.224 -0.1206  0.5322  0.5719
 5840WAT     H125165  -6.806   7.877   7.142  1.0794 -1.2940  1.2137
 5840WAT     H225166  -6.787   7.887   7.291 -0.7178 -1.1039  1.4572
 5840WAT    EPW25167  -6.839   7.878   7.222 -0.0410  0.0753  0.7732
 5841WAT      O25168  -0.419   6.959   4.594 -0.5757 -0.4172 -0.1661
 5841WAT     H125169  -0.497   6.962   4.537 -0.4045  2.2570 -0.4254
 5841WAT     H225170  -0.452   6.985   4.680 -0.1282 -0.0801 -0.0929
 5841WAT    EPW25171  -0.434   6.963   4.598 -0.4941 -0.0200 -0.1907
 5842WAT      O25172  -3.640   2.350   4.958  0.9909 -0.2241 -0.2611
 5842WAT     H125173  -3.593   2.363   5.040  1.6153  0.5253 -0.7244
 5842WAT     H225174  -3.633   2.434   4.912  1.2870 -0.8525 -1.4091
 5842WAT    EPW25175  -3.633   2.363   4.963  1.1122 -0.2081 -0.4737
 5843WAT      O25176   3.701   6.360   0.407  0.0185  0.4944  0.5124
 5843WAT     H125177   3.773   6.424   0.402  0.4858 -0.0305  0.4470
 5843WAT     H225178   3.645   6.393   0.478  1.5287 -0.2972  2.1582
 5843WAT    EPW25179   3.704   6.373   0.416  0.2793  0.3207  0.7208
 5844WAT      O25180  -3.911   2.334   7.970 -0.2556 -0.2236  0.0795
 5844WAT     H125181  -3.949   2.421   7.959 -1.3085 -0.6148  0.4819
 5844WAT     H225182  -3.884   2.330   8.061 -0.1618 -0.2993  0.0487
 5844WAT    EPW25183  -3.913   2.345   7.980 -0.3821 -0.2853  0.1283
 5845WAT      O25184   6.381   3.304   1.535 -0.7695  0.0519 -0.1329
 5845WAT     H125185   6.452   3.240   1.530  1.3646  2.0238  2.1401
 5845WAT     H225186   6.425   3.388   1.545 -3.4629  1.7240 -1.2443
 5845WAT    EPW25187   6.396   3.307   1.536 -0.8435  0.5326  0.0204
 5846WAT      O25188   7.018   0.531   0.583  0.0043  0.0928 -0.1091
 5846WAT     H125189   6.929   0.513   0.552 -0.2009  2.4043 -1.0378
 5846WAT     H225190   7.016   0.512   0.677 -1.8873  1.4355  0.1620
 5846WAT    EPW25191   7.006   0.526   0.591 -0.2723  0.5747 -0.1958
 5847WAT      O25192   3.338   5.911   0.455  0.2877 -0.2374 -0.6957
 5847WAT     H125193   3.404   5.913   0.387 -1.0546  1.9149 -2.0754
 5847WAT     H225194   3.346   5.996   0.499 -2.3952  0.7546 -1.8832
 5847WAT    EPW25195   3.348   5.923   0.452 -0.2432  0.1774 -1.0343
 5848WAT      O25196  -0.253   5.511   4.238 -0.0356  0.1982 -0.6648
 5848WAT     H125197  -0.264   5.584   4.177  0.4264  1.5439  0.7772
 5848WAT     H225198  -0.158   5.503   4.249 -0.0636  2.4161  2.5279
 5848WAT    EPW25199  -0.242   5.519   4.232  0.0217  0.6683 -0.0536
 5849WAT      O25200   0.765   1.892   8.846 -0.3823  0.1133 -0.5545
 5849WAT     H125201   0.726   1.953   8.783  0.5291  1.5480  0.2257
 5849WAT     H225202   0.814   1.948   8.906 -0.3396 -1.3158  0.7914
 5849WAT    EPW25203   0.766   1.908   8.845 -0.2565  0.1140 -0.2742
 5850WAT      O25204  -0.265   7.579   4.677 -0.1919  0.1035  0.0205
 5850WAT     H125205  -0.331   7.511   4.662  1.1941 -1.2981 -0.0501
 5850WAT     H225206  -0.313   7.661   4.671 -1.7379 -0.8221 -0.9907
 5850WAT    EPW25207  -0.280   7.581   4.674 -0.2130 -0.2034 -0.1223
 5851WAT      O25208   0.101   7.514   6.720  0.3348  0.5174  0.0321
 5851WAT     H125209   0.030   7.500   6.783 -0.4284  3.5406  0.0045
 5851WAT     H225210   0.179   7.528   6.773  0.0770  1.1347  0.2580
 5851WAT    EPW25211   0.102   7.514   6.735  0.2001  0.9975  0.0582
 5852WAT      O25212  -1.807   5.673   6.474  0.5194  0.3773  0.4387
 5852WAT     H125213  -1.738   5.732   6.443  1.3147 -0.1289  1.2262
 5852WAT     H225214  -1.777   5.586   6.449 -0.1733  0.2094  0.1745
 5852WAT    EPW25215  -1.794   5.669   6.466  0.5330  0.2885  0.5076
 5853WAT      O25216   4.344   4.867   2.480 -0.2586 -0.7216  1.0935
 5853WAT     H125217   4.366   4.944   2.532 -0.0070 -1.9321  2.8685
 5853WAT     H225218   4.388   4.795   2.525  1.5140 -1.6234 -1.8460
 5853WAT    EPW25219   4.353   4.868   2.493  0.0083 -1.0004  0.9400
 5854WAT      O25220   1.594   0.984   0.146 -0.0219 -0.5465  0.2914
 5854WAT     H125221   1.635   0.988   0.060 -0.8413 -2.2379 -0.2252
 5854WAT     H225222   1.504   0.957   0.129 -0.6172  0.4856  1.5993
 5854WAT    EPW25223   1.588   0.981   0.133 -0.2086 -0.6334  0.3958
 5855WAT      O25224  -3.602   8.528   5.382 -0.1916  0.1510  0.4116
 5855WAT     H125225  -3.519   8.483   5.364 -0.1847  0.2929  0.0796
 5855WAT     H225226  -3.642   8.478   5.453  0.3288  0.2753  0.7903
 5855WAT    EPW25227  -3.597   8.515   5.389 -0.1221  0.1864  0.4179
 5856WAT      O25228   2.214   0.171   3.230 -0.5350 -0.0878  0.4356
 5856WAT     H125229   2.299   0.215   3.225 -1.4779  1.7299 -1.9855
 5856WAT     H225230   2.155   0.230   3.183 -2.5066 -2.7077 -0.5776
 5856WAT    EPW25231   2.217   0.185   3.223 -0.9195 -0.1936 -0.0175
 5857WAT      O25232  -0.112   5.990   8.815  0.4008 -0.8840  0.3700
 5857WAT     H125233  -0.128   6.084   8.806  0.4438 -0.5568  3.0246
 5857WAT     H225234  -0.017   5.984   8.825  0.4109 -1.2524  0.0676
 5857WAT    EPW25235  -0.102   6.002   8.815  0.4078 -0.8893  0.6804
 5858WAT      O25236   4.968   2.933   4.785 -0.3146 -0.3106 -0.6587
 5858WAT     H125237   4.923   2.994   4.726  0.9816  0.6374 -0.6932
 5858WAT     H225238   4.903   2.864   4.801 -2.0264  1.3240 -0.1839
 5858WAT    EPW25239   4.953   2.932   4.779 -0.3693  0.0300 -0.6006
 5859WAT      O25240   2.280   0.471   4.968  0.4502 -0.1550 -0.3037
 5859WAT     H125241   2.347   0.539   4.958  0.0074  0.5346  1.1481
 5859WAT     H225242   2.208   0.500   4.912  0.7316 -0.0411 -0.6072
 5859WAT    EPW25243   2.279   0.484   4.960  0.4290 -0.0490 -0.1523
 5860WAT      O25244   0.427   5.377   0.162  0.0844  0.1996 -0.7387
 5860WAT     H125245   0.426   5.443   0.092  1.0849  2.6772  1.4103
 5860WAT     H225246   0.350   5.397   0.215 -1.3668 -2.4348 -1.6560
 5860WAT    EPW25247   0.417   5.389   0.160  0.0250  0.1788 -0.5762
 5861WAT      O25248   0.786   3.756   6.447 -0.3984  0.5678  0.7979
 5861WAT     H125249   0.730   3.693   6.402  0.7612  0.9756 -1.3477
 5861WAT     H225250   0.738   3.839   6.442  0.7620  1.1773 -2.0737
 5861WAT    EPW25251   0.772   3.759   6.440 -0.0924  0.7020  0.1361
 5862WAT      O25252   5.989   1.258   0.492 -0.0534  0.0768  0.2190
 5862WAT     H125253   6.041   1.248   0.572  0.6446  0.7551 -0.1368
 5862WAT     H225254   5.917   1.315   0.518 -0.6477 -0.8862  0.7218
 5862WAT    EPW25255   5.987   1.265   0.506 -0.0396  0.0392  0.2384
 5863WAT      O25256   3.494   5.216   8.262 -0.1916  0.1352  0.2613
 5863WAT     H125257   3.532   5.261   8.338  0.2131  0.2999 -0.0382
 5863WAT     H225258   3.569   5.181   8.215 -0.2879  1.6212 -1.0790
 5863WAT    EPW25259   3.509   5.217   8.266 -0.1509  0.3531  0.0448
 5864WAT      O25260   0.178   3.802   7.234 -0.3620  0.4884  0.3581
 5864WAT     H125261   0.096   3.786   7.281  0.7115 -3.1577  1.2712
 5864WAT     H225262   0.246   3.769   7.292  1.2676 -1.5435 -2.4634
 5864WAT    EPW25263   0.176   3.796   7.248 -0.0055 -0.2606  0.1063
 5865WAT      O25264  -1.821   9.406   6.713  0.0158  0.8909 -0.3315
 5865WAT     H125265  -1.835   9.368   6.800  1.9870  1.9352  0.5174
 5865WAT     H225266  -1.861   9.344   6.653  1.1463 -1.4121  1.1271
 5865WAT    EPW25267  -1.828   9.393   6.717  0.4249  0.7248 -0.0272
 5866WAT      O25268   7.098   2.475   0.741  0.6715 -0.1705  0.4125
 5866WAT     H125269   7.099   2.570   0.734  0.6709  0.0619  2.7220
 5866WAT     H225270   7.187   2.452   0.767  1.1498 -1.0295 -1.7532
 5866WAT    EPW25271   7.109   2.484   0.743  0.7346 -0.2530  0.4314
 5867WAT      O25272   1.582   5.158   5.506  0.1514  0.4170 -0.1727
 5867WAT     H125273   1.543   5.111   5.432 -0.0495 -0.6679  0.6067
 5867WAT     H225274   1.673   5.128   5.508  0.0772  0.2079  0.1998
 5867WAT    EPW25275   1.589   5.148   5.496  0.1151  0.2463 -0.0207
 5868WAT      O25276   4.678   7.212   2.104  0.2627 -0.0594  0.1271
 5868WAT     H125277   4.767   7.220   2.137  0.7283  0.2103 -1.1250
 5868WAT     H225278   4.631   7.164   2.172  1.4573 -0.5639  0.6243
 5868WAT    EPW25279   4.683   7.207   2.117  0.4818 -0.0904  0.0277
 5869WAT      O25280   9.138   2.189   1.420  0.2385 -0.0958 -0.3890
 5869WAT     H125281   9.078   2.229   1.483  1.0072  0.9569 -0.3103
 5869WAT     H225282   9.140   2.250   1.346  1.6416  0.1761 -0.1499
 5869WAT    EPW25283   9.130   2.202   1.419  0.5250  0.0789 -0.3471
 5870WAT      O25284  -3.033   1.043   7.310 -0.6404 -0.5103 -0.4313
 5870WAT     H125285  -2.990   0.987   7.245 -2.9963 -1.3703 -1.3593
 5870WAT     H225286  -3.035   0.991   7.390  1.5663  0.2449  0.1755
 5870WAT    EPW25287  -3.028   1.029   7.312 -0.6601 -0.5241 -0.4735
 5871WAT      O25288  -4.782   4.208   7.875 -0.1019  0.4829  0.1800
 5871WAT     H125289  -4.765   4.170   7.789 -0.3901 -0.2292  0.4323
 5871WAT     H225290  -4.852   4.153   7.912  0.1058  0.7088  0.9163
 5871WAT    EPW25291  -4.789   4.196   7.868 -0.1128  0.4189  0.3102
 5872WAT      O25292   2.028   0.514   4.837 -0.4127  0.0213 -0.1344
 5872WAT     H125293   2.016   0.424   4.867  0.3091 -0.0083  0.0832
 5872WAT     H225294   1.992   0.514   4.748  0.4898 -0.7477 -0.5164
 5872WAT    EPW25295   2.022   0.502   4.829 -0.1985 -0.0840 -0.1562
 5873WAT      O25296   2.088   6.791   8.165 -0.0440  0.2791 -0.0369
 5873WAT     H125297   2.060   6.717   8.220  0.9591 -0.3125 -0.3019
 5873WAT     H225298   2.135   6.849   8.225 -1.1008  0.8769  0.2382
 5873WAT    EPW25299   2.091   6.789   8.180 -0.0511  0.2801 -0.0358
 5874WAT      O25300  -2.412   1.858   8.592  1.5336 -0.3582 -0.0950
 5874WAT     H125301  -2.441   1.779   8.545  0.4641 -1.2035  1.8787
 5874WAT     H225302  -2.469   1.928   8.558  2.1630 -0.5098 -1.5128
 5874WAT    EPW25303  -2.424   1.857   8.581  1.4756 -0.4897 -0.0215
 5875WAT      O25304   2.887   8.254   6.541 -1.0692 -0.1998  0.3513
 5875WAT     H125305   2.833   8.242   6.620  0.0651  1.4369  1.4338
 5875WAT     H225306   2.944   8.177   6.540 -1.7012 -0.6885  0.6120
 5875WAT    EPW25307   2.887   8.242   6.552 -1.0029 -0.0486  0.5283
 5876WAT      O25308   3.919   5.300   8.366 -0.2819  0.0840 -0.3317
 5876WAT     H125309   4.012   5.291   8.387 -0.3111  2.3907  1.1460
 5876WAT     H225310   3.899   5.391   8.387 -2.7985 -0.2491 -1.0240
 5876WAT    EPW25311   3.929   5.311   8.372 -0.6176  0.3440 -0.2279
 5877WAT      O25312   1.803   4.133   5.492 -0.1823  0.2545  0.7200
 5877WAT     H125313   1.740   4.204   5.504  0.6559  1.4293 -1.3130
 5877WAT     H225314   1.753   4.054   5.513 -2.0206  1.2275  0.2828
 5877WAT    EPW25315   1.788   4.132   5.496 -0.3142  0.5376  0.3939
 5878WAT      O25316  -0.944   6.451   7.897  0.3748  0.5554 -0.0552
 5878WAT     H125317  -0.870   6.442   7.958  1.1665  0.3231 -1.0203
 5878WAT     H225318  -0.986   6.365   7.897  1.2268  0.1251 -0.8830
 5878WAT    EPW25319  -0.940   6.438   7.905  0.5916  0.4680 -0.2921
 5879WAT      O25320  -2.380   3.700   3.777  0.7378  0.0337 -0.0556
 5879WAT     H125321  -2.371   3.773   3.715 -0.4015  1.3256  1.2239
 5879WAT     H225322  -2.324   3.724   3.850 -0.7236  0.3651  0.9996
 5879WAT    EPW25323  -2.372   3.713   3.778  0.3947  0.2480  0.2525
 5880WAT      O25324  -4.446   4.510   4.889  0.4698  0.3905 -0.7121
 5880WAT     H125325  -4.365   4.536   4.846 -0.2847  0.8861 -1.8862
 5880WAT     H225326  -4.508   4.580   4.869 -0.3477 -0.1367 -0.1203
 5880WAT    EPW25327  -4.443   4.522   4.880  0.2623  0.3862 -0.7889
 5881WAT      O25328   3.143   1.931   5.302 -0.3177  0.0322 -0.5083
 5881WAT     H125329   3.077   1.925   5.370 -0.3004  1.3806 -0.3320
 5881WAT     H225330   3.129   1.854   5.247 -3.6125  1.4444 -1.8660
 5881WAT    EPW25331   3.133   1.920   5.304 -0.7498  0.3963 -0.6642
 5882WAT      O25332   5.059   6.381   0.026  0.2508 -0.1358 -0.2537
 5882WAT     H125333   5.065   6.408  -0.065  0.5304 -1.4562 -0.6511
 5882WAT     H225334   5.130   6.427   0.070  0.3710  0.1888 -0.7836
 5882WAT    EPW25335   5.069   6.390   0.020  0.3035 -0.2673 -0.3760
 5883WAT      O25336   4.243   3.676   5.183 -0.9217 -0.3664 -0.2322
 5883WAT     H125337   4.333   3.705   5.194 -0.3305 -1.5153 -1.8052
 5883WAT     H225338   4.191   3.756   5.195  0.2968  0.3596  0.4232
 5883WAT    EPW25339   4.248   3.690   5.186 -0.6831 -0.4222 -0.3533
 5884WAT      O25340  -3.151   2.123   7.297 -0.9003  0.1905 -0.0789
 5884WAT     H125341  -3.060   2.093   7.295 -0.9732 -0.1108  0.6121
 5884WAT     H225342  -3.145   2.218   7.293 -0.6016  0.1386 -0.9856
 5884WAT    EPW25343  -3.138   2.131   7.297 -0.8705  0.1439 -0.1073
 5885WAT      O25344  -6.926   9.652   8.930  0.6810  0.7232  0.2861
 5885WAT     H125345  -6.882   9.736   8.939  1.3198  0.5327 -0.7602
 5885WAT     H225346  -6.883   9.611   8.854 -2.2316  1.0947 -1.7092
 5885WAT    EPW25347  -6.914   9.657   8.921  0.3810  0.7467 -0.1154
 5886WAT      O25348   2.365   6.523   5.316 -0.1336 -0.1511 -0.2493
 5886WAT     H125349   2.304   6.592   5.344  1.4567  1.1824  0.1128
 5886WAT     H225350   2.334   6.444   5.359 -0.0934  1.0222  2.0853
 5886WAT    EPW25351   2.352   6.522   5.325  0.0814  0.1795  0.1066
 5887WAT      O25352   1.456   2.082   2.488 -0.1156 -0.4522  0.0668
 5887WAT     H125353   1.400   2.018   2.443 -1.2777  1.9184 -2.1803
 5887WAT     H225354   1.395   2.148   2.520  1.1234  0.2162  1.1141
 5887WAT    EPW25355   1.441   2.082   2.486 -0.1055 -0.0515 -0.0916
 5888WAT      O25356  -5.538   8.362   6.996 -0.0701  0.6379  0.0934
 5888WAT     H125357  -5.502   8.440   7.039 -0.5896 -0.2853  2.3457
 5888WAT     H225358  -5.630   8.361   7.021 -1.0228  1.2445 -2.9883
 5888WAT    EPW25359  -5.545   8.372   7.005 -0.2642  0.5960 -0.0160
 5889WAT      O25360  -3.310   9.733   5.410 -0.3695  0.6292  0.0774
 5889WAT     H125361  -3.356   9.649   5.405 -1.5306  1.2800 -0.5652
 5889WAT     H225362  -3.240   9.725   5.345  1.2766 -0.8126  1.8811
 5889WAT    EPW25363  -3.307   9.721   5.400 -0.3055  0.5250  0.2306
 5890WAT      O25364  -1.515   3.025   0.698 -0.0547 -0.1037 -0.2180
 5890WAT     H125365  -1.552   3.040   0.785 -3.8884 -1.8146 -1.2919
 5890WAT     H225366  -1.448   2.957   0.711 -1.2348 -1.0252  1.3587
 5890WAT    EPW25367  -1.511   3.018   0.711 -0.7159 -0.4510 -0.1517
 5891WAT      O25368  -3.631   7.802   3.660  0.1029 -0.3797 -0.1714
 5891WAT     H125369  -3.561   7.749   3.698  1.0507  1.1327  0.2808
 5891WAT     H225370  -3.602   7.892   3.673 -2.1755  0.3268  0.5219
 5891WAT    EPW25371  -3.618   7.807   3.667 -0.0726 -0.0870 -0.0204
 5892WAT      O25372   3.076   7.552   2.502 -0.1167  0.3547 -0.5286
 5892WAT     H125373   3.092   7.509   2.586  0.6657  0.6008 -0.5359
 5892WAT     H225374   2.986   7.583   2.508  0.0612  0.7620  0.4176
 5892WAT    EPW25375   3.066   7.551   2.514  0.0099  0.4406 -0.4047
 5893WAT      O25376  -1.266   6.522   7.165 -0.4122  1.2221 -0.2635
 5893WAT     H125377  -1.235   6.605   7.201 -0.3196  1.4962 -0.9613
 5893WAT     H225378  -1.194   6.492   7.110 -1.1173  1.5372 -1.3722
 5893WAT    EPW25379  -1.252   6.529   7.163 -0.4929  1.2999 -0.5019
 5894WAT      O25380  -2.458   3.256   3.443  0.2908  0.4402  0.2647
 5894WAT     H125381  -2.508   3.326   3.401  1.1861  0.7275 -0.3565
 5894WAT     H225382  -2.411   3.300   3.514 -0.7776  0.0615  1.2254
 5894WAT    EPW25383  -2.458   3.271   3.447  0.2680  0.4282  0.3095
 5895WAT      O25384   8.332   3.884   1.002  0.5044  0.1545 -0.3178
 5895WAT     H125385   8.380   3.961   1.033  1.5173  0.0287 -1.4636
 5895WAT     H225386   8.399   3.830   0.960 -0.4059 -0.7616 -0.6417
 5895WAT    EPW25387   8.347   3.887   1.000  0.5178  0.0172 -0.5116
 5896WAT      O25388   7.185   6.268   1.928  0.0020 -0.1410 -0.0279
 5896WAT     H125389   7.210   6.195   1.872 -0.7696  0.2213 -0.8840
 5896WAT     H225390   7.243   6.339   1.902 -1.0278  0.3332 -1.1386
 5896WAT    EPW25391   7.196   6.268   1.917 -0.2356 -0.0308 -0.2874
 5897WAT      O25392   8.118   6.509   0.798 -0.5121 -0.0914  0.5696
 5897WAT     H125393   8.098   6.420   0.826 -0.4521  0.0886  1.2009
 5897WAT     H225394   8.052   6.529   0.732 -0.8244 -0.4241  0.7769
 5897WAT    EPW25395   8.107   6.500   0.793 -0.5450 -0.1113  0.6802
 5898WAT      O25396  -0.503   1.790   7.108  0.2792 -0.1327  0.1794
 5898WAT     H125397  -0.453   1.722   7.062  2.3442 -0.4145  2.6454
 5898WAT     H225398  -0.479   1.871   7.064 -0.3497 -0.6876 -1.2650
 5898WAT    EPW25399  -0.493   1.792   7.096  0.4686 -0.2431  0.3140
 5899WAT      O25400   4.122   4.507   2.026  0.5096 -0.2168  0.1990
 5899WAT     H125401   4.163   4.571   1.968 -0.2459  0.3560  0.2803
 5899WAT     H225402   4.195   4.466   2.072  0.9895  1.0030  0.5646
 5899WAT    EPW25403   4.137   4.510   2.025  0.4735  0.0196  0.2578
 5900WAT      O25404   0.754   0.873   5.607  0.2639 -0.0904  0.1300
 5900WAT     H125405   0.833   0.894   5.658  0.9408 -1.2649 -0.3837
 5900WAT     H225406   0.781   0.799   5.553 -0.1350  1.6391 -2.6121
 5900WAT    EPW25407   0.768   0.866   5.607  0.3006 -0.0172 -0.2995
 5901WAT      O25408   8.201   3.633   0.943  0.1273 -0.1132 -0.2085
 5901WAT     H125409   8.182   3.585   1.023 -0.1088 -0.1895 -0.3086
 5901WAT     H225410   8.223   3.721   0.972 -0.7018  0.0704 -0.1027
 5901WAT    EPW25411   8.201   3.638   0.957 -0.0134 -0.0991 -0.2078
 5902WAT      O25412  -2.138   7.036   6.414 -0.8545  0.4054  0.5359
 5902WAT     H125413  -2.211   7.058   6.473 -0.7518 -0.6304  1.0634
 5902WAT     H225414  -2.103   6.954   6.449 -0.9462 -0.3755 -1.1208
 5902WAT    EPW25415  -2.143   7.028   6.426 -0.8531  0.1657  0.3867
 5903WAT      O25416  -0.678   6.185   2.714 -0.0737  0.2551  0.4625
 5903WAT     H125417  -0.633   6.109   2.750  1.2723 -0.0189 -1.6398
 5903WAT     H225418  -0.659   6.256   2.775  1.1824 -0.4136  0.8750
 5903WAT    EPW25419  -0.670   6.184   2.727  0.2695  0.1309  0.2396
 5904WAT      O25420   3.363   1.372   5.716 -0.5757 -0.2766 -0.5257
 5904WAT     H125421   3.310   1.398   5.640  0.0218 -2.1406 -1.6369
 5904WAT     H225422   3.453   1.380   5.686 -0.2355  1.0387  0.7366
 5904WAT    EPW25423   3.368   1.377   5.702 -0.4520 -0.3490 -0.5059
 5905WAT      O25424   4.357   7.264   6.423  0.0528  0.2296 -0.3493
 5905WAT     H125425   4.448   7.273   6.393 -0.6021  0.6237 -2.4156
 5905WAT     H225426   4.361   7.279   6.517  1.9301  1.8646 -0.6055
 5905WAT    EPW25427   4.370   7.268   6.431  0.2141  0.4973 -0.6554
 5906WAT      O25428   6.236   4.021   4.128 -0.4363  0.8163  0.6195
 5906WAT     H125429   6.323   4.056   4.146 -1.1972  2.9591  0.3701
 5906WAT     H225430   6.176   4.078   4.176 -1.8790  1.0066 -1.2761
 5906WAT    EPW25431   6.240   4.033   4.137 -0.7269  1.1241  0.3364
 5907WAT      O25432  -4.404   1.500   7.107  0.4279  0.4977 -0.1081
 5907WAT     H125433  -4.388   1.586   7.145 -1.1605  0.8617 -0.1670
 5907WAT     H225434  -4.425   1.518   7.015 -1.0667  0.2200  0.1421
 5907WAT    EPW25435  -4.405   1.514   7.100  0.0212  0.5091 -0.0827
 5908WAT      O25436  -5.354   9.913   6.548 -0.2696 -0.3428 -0.3768
 5908WAT     H125437  -5.416   9.984   6.566 -0.2452 -0.4101 -0.0167
 5908WAT     H225438  -5.280   9.931   6.606 -0.2335 -0.6207 -0.3352
 5908WAT    EPW25439  -5.352   9.925   6.558 -0.2618 -0.3877 -0.3238
 5909WAT      O25440   5.441   4.473   2.139 -0.2470 -0.4276  0.3620
 5909WAT     H125441   5.451   4.520   2.057 -1.8118  0.6129  0.7277
 5909WAT     H225442   5.487   4.526   2.204  0.0784 -0.6955  0.3550
 5909WAT    EPW25443   5.448   4.486   2.137 -0.4106 -0.3257  0.4094
 5910WAT      O25444   2.310   4.026   8.086  0.4526  0.5811  0.0649
 5910WAT     H125445   2.342   3.950   8.038  1.3193  0.7910  0.2984
 5910WAT     H225446   2.223   4.001   8.116  0.7709 -0.3542  0.2186
 5910WAT    EPW25447   2.303   4.013   8.083  0.6089  0.4854  0.1159
 5911WAT      O25448  -5.889   5.048   7.365  0.1936 -0.1379  0.5205
 5911WAT     H125449  -5.885   5.023   7.273 -0.2663 -2.2850  1.0269
 5911WAT     H225450  -5.878   4.966   7.413 -2.7706  0.3502  2.3497
 5911WAT    EPW25451  -5.887   5.034   7.359 -0.2584 -0.3567  0.8287
 5912WAT      O25452   3.736   4.807   2.453 -0.5672 -0.0303  0.4612
 5912WAT     H125453   3.817   4.839   2.491 -0.4286  0.1825 -0.0080
 5912WAT     H225454   3.756   4.718   2.424 -1.1274 -0.8235  2.3364
 5912WAT    EPW25455   3.749   4.800   2.454 -0.6227 -0.1068  0.6467
 5913WAT      O25456   2.840   3.341   5.528 -0.2223 -0.0561  0.4029
 5913WAT     H125457   2.747   3.326   5.542 -0.3428 -0.7549 -1.0062
 5913WAT     H225458   2.857   3.426   5.568 -0.6702 -1.4681  3.9464
 5913WAT    EPW25459   2.830   3.350   5.535 -0.2973 -0.3346  0.6843
 5914WAT      O25460   2.582   8.765   7.779 -1.1682  0.4861  0.3646
 5914WAT     H125461   2.646   8.706   7.740 -0.1695 -0.1992  2.8636
 5914WAT     H225462   2.532   8.799   7.704 -0.2677 -1.7244 -1.3516
 5914WAT    EPW25463   2.584   8.762   7.764 -0.9177  0.1040  0.4678
 5915WAT      O25464   3.453   8.277   2.327  0.4787  0.4580  0.0103
 5915WAT     H125465   3.497   8.266   2.242 -1.4879  1.3523 -1.1838
 5915WAT     H225466   3.424   8.368   2.327 -0.6890  0.1030  1.0765
 5915WAT    EPW25467   3.455   8.287   2.316  0.0653  0.5293 -0.0066
 5916WAT      O25468   0.151   2.400   7.920  0.3035 -0.0718  0.2629
 5916WAT     H125469   0.139   2.321   7.867 -1.4610 -0.1378  0.6680
 5916WAT     H225470   0.100   2.382   7.999 -1.2677  1.9797 -0.2141
 5916WAT    EPW25471   0.142   2.387   7.924 -0.1365  0.1901  0.2537
 5917WAT      O25472   0.080   1.139   8.011 -0.3110 -0.0803 -0.0599
 5917WAT     H125473   0.123   1.088   8.079 -0.9747 -1.3269 -0.5424
 5917WAT     H225474   0.152   1.185   7.967  0.4623 -1.5561 -0.3940
 5917WAT    EPW25475   0.095   1.138   8.014 -0.2966 -0.4394 -0.1678
 5918WAT      O25476  -2.809   4.190   8.201 -0.1305  0.2309  0.3071
 5918WAT     H125477  -2.765   4.223   8.123  1.8889 -0.0347  1.2694
 5918WAT     H225478  -2.864   4.119   8.169  0.2802  0.4463 -0.9474
 5918WAT    EPW25479  -2.810   4.185   8.187  0.1900  0.2241  0.2689
 5919WAT      O25480  -1.199   8.504   2.190 -0.5577 -0.0063 -0.1268
 5919WAT     H125481  -1.117   8.555   2.188 -0.4677 -0.1401  0.1192
 5919WAT     H225482  -1.221   8.492   2.098  0.2151 -0.7835 -0.2236
 5919WAT    EPW25483  -1.191   8.509   2.177 -0.4439 -0.1264 -0.1072
 5920WAT      O25484  -2.101   4.593   6.216 -1.0372  0.0568 -0.3305
 5920WAT     H125485  -2.128   4.601   6.125  1.7356 -1.9415 -1.4715
 5920WAT     H225486  -2.140   4.511   6.245 -1.6508  0.5301  0.2129
 5920WAT    EPW25487  -2.110   4.583   6.208 -0.7524 -0.1442 -0.4091
 5921WAT      O25488  -1.791   5.270   0.697 -0.3556  0.1171  0.1951
 5921WAT     H125489  -1.886   5.263   0.696 -0.2837 -1.0172  0.2611
 5921WAT     H225490  -1.762   5.223   0.618  0.1328  0.8513 -0.0778
 5921WAT    EPW25491  -1.800   5.263   0.686 -0.2818  0.0644  0.1678
 5922WAT      O25492  -0.331   5.217   6.758  0.5808 -0.1221  0.2014
 5922WAT     H125493  -0.322   5.222   6.663  2.2740  0.8198  0.3772
 5922WAT     H225494  -0.411   5.267   6.777  1.4998  1.7256 -0.5713
 5922WAT    EPW25495  -0.341   5.224   6.748  0.9253  0.2460  0.1225
 5923WAT      O25496  -7.653   9.275   7.385  0.5713 -0.6521 -0.8180
 5923WAT     H125497  -7.679   9.240   7.471  1.0558 -1.5638 -1.0373
 5923WAT     H225498  -7.592   9.346   7.406  0.3115 -0.5456 -0.3982
 5923WAT    EPW25499  -7.648   9.280   7.399  0.6011 -0.7582 -0.7915
 5924WAT      O25500   6.336   7.683   0.319 -0.7218 -0.1550 -0.8339
 5924WAT     H125501   6.377   7.681   0.405  0.3346  2.4811 -1.1765
 5924WAT     H225502   6.306   7.593   0.304 -0.1135 -0.8787  1.8585
 5924WAT    EPW25503   6.338   7.671   0.328 -0.5023  0.0973 -0.5240
 5925WAT      O25504   7.923   0.737   1.277 -0.1513 -0.3841  0.4178
 5925WAT     H125505   7.926   0.772   1.188 -1.4506  0.1533  0.5661
 5925WAT     H225506   8.005   0.767   1.317  0.1338 -0.0628 -0.3879
 5925WAT    EPW25507   7.934   0.746   1.271 -0.2851 -0.2708  0.3312
 5926WAT      O25508  -0.803   1.715   5.288  0.6968  0.1461 -0.0022
 5926WAT     H125509  -0.880   1.771   5.283  0.1779 -0.6619 -1.2245
 5926WAT     H225510  -0.778   1.718   5.381 -1.4066 -0.4066  0.6335
 5926WAT    EPW25511  -0.810   1.723   5.300  0.3510 -0.0334 -0.0796
 5927WAT      O25512   7.537   0.683   0.177 -0.0579 -0.1282  0.1198
 5927WAT     H125513   7.550   0.611   0.238  0.7038  0.7721  1.0585
 5927WAT     H225514   7.442   0.685   0.163 -0.0112 -1.9997 -0.8386
 5927WAT    EPW25515   7.526   0.674   0.183  0.0486 -0.2562  0.1172
 5928WAT      O25516  -1.031   4.180   2.061  0.4540  0.1160  0.9740
 5928WAT     H125517  -1.092   4.253   2.053 -0.1266 -0.4038  0.4909
 5928WAT     H225518  -1.086   4.102   2.046  1.0221 -0.4252  1.6386
 5928WAT    EPW25519  -1.046   4.179   2.058  0.4524 -0.0241  0.9980
 5929WAT      O25520  -1.890   5.433   5.996  0.0300 -0.3683 -0.5894
 5929WAT     H125521  -1.857   5.343   5.998  0.1157 -0.3864 -1.8389
 5929WAT     H225522  -1.934   5.444   6.080 -0.7614 -1.8762 -0.7767
 5929WAT    EPW25523  -1.891   5.422   6.007 -0.0631 -0.5698 -0.7792
 5930WAT      O25524   4.173   6.069   3.874  0.0632  0.3805  0.2432
 5930WAT     H125525   4.191   5.985   3.917  0.3653  0.4414  0.2404
 5930WAT     H225526   4.096   6.052   3.820  0.9490 -0.2727 -0.8475
 5930WAT    EPW25527   4.165   6.055   3.873  0.2201  0.3023  0.0989
 5931WAT      O25528  -0.953   9.600   6.146  0.6213  0.5416  0.3814
 5931WAT     H125529  -0.922   9.625   6.059  1.2552  1.3756  0.8351
 5931WAT     H225530  -0.930   9.507   6.154  0.0396  0.3068 -0.5526
 5931WAT    EPW25531  -0.945   9.591   6.136  0.6282  0.6204  0.3178
 5932WAT      O25532   3.965   3.624   5.370 -0.0597 -0.2695  0.2958
 5932WAT     H125533   4.032   3.682   5.407 -0.8240  1.2897 -0.6863
 5932WAT     H225534   3.934   3.572   5.445  1.2583 -0.0569  1.0262
 5932WAT    EPW25535   3.970   3.625   5.385  0.0132 -0.0358  0.2623
 5933WAT      O25536   4.564   6.638   6.132  0.1639  0.3890  0.3507
 5933WAT     H125537   4.658   6.654   6.123 -0.0496  1.9900  0.7029
 5933WAT     H225538   4.553   6.603   6.220  0.4114  0.4756  0.4163
 5933WAT    EPW25539   4.575   6.636   6.142  0.1686  0.6115  0.4058
 5934WAT      O25540   1.694   4.370   5.119  0.1555  0.2808  0.1516
 5934WAT     H125541   1.611   4.363   5.165  0.0064  0.8090 -0.0257
 5934WAT     H225542   1.737   4.447   5.157 -0.1164  0.9244 -0.7924
 5934WAT    EPW25543   1.689   4.380   5.130  0.1000  0.4354  0.0038
 5935WAT      O25544   7.343   7.869   0.718 -0.6017  0.6696  0.0699
 5935WAT     H125545   7.382   7.786   0.745 -1.9758 -0.5562 -1.4992
 5935WAT     H225546   7.250   7.849   0.703 -1.6622  3.1413  2.3079
 5935WAT    EPW25547   7.336   7.856   0.720 -0.9229  0.8337  0.1581
 5936WAT      O25548   4.568   2.258   3.108  0.2093  0.2943  0.1361
 5936WAT     H125549   4.528   2.219   3.030 -2.6623  0.9936  1.1470
 5936WAT     H225550   4.515   2.224   3.181  0.4945  2.4916  1.4379
 5936WAT    EPW25551   4.556   2.248   3.107 -0.1318  0.6764  0.4411
 5937WAT      O25552   3.768   1.971  -0.003  0.5285 -0.4430  0.0477
 5937WAT     H125553   3.819   1.911  -0.058 -0.6584 -2.2421  0.8356
 5937WAT     H225554   3.732   1.915   0.066 -0.6956  1.1816  0.7742
 5937WAT    EPW25555   3.770   1.955  -0.001  0.2105 -0.4661  0.2475
 5938WAT      O25556   2.458   9.354   0.988 -0.0928  0.2582 -0.3582
 5938WAT     H125557   2.436   9.275   1.037 -0.3261  1.8790  2.3489
 5938WAT     H225558   2.525   9.326   0.926 -0.5592 -2.1466  0.1237
 5938WAT    EPW25559   2.464   9.340   0.986 -0.1850  0.1550  0.0624
 5939WAT      O25560   5.647   1.797   3.768  0.1278  0.1281 -0.1330
 5939WAT     H125561   5.635   1.805   3.673  3.2936  0.8590 -0.5852
 5939WAT     H225562   5.734   1.758   3.777  0.7227  1.8557  2.4778
 5939WAT    EPW25563   5.657   1.793   3.756  0.6239  0.4523  0.1518
 5940WAT      O25564  -0.343   7.794   3.197  0.2904 -0.4208  0.0538
 5940WAT     H125565  -0.399   7.836   3.262 -2.8069  0.1981 -2.7057
 5940WAT     H225566  -0.308   7.866   3.145 -0.2886 -0.9594 -1.1385
 5940WAT    EPW25567  -0.346   7.809   3.198 -0.1945 -0.4103 -0.4675
 5941WAT      O25568   7.541   7.528   0.763 -0.0670 -0.0532 -0.1734
 5941WAT     H125569   7.564   7.455   0.820  1.2601  1.3623  1.2043
 5941WAT     H225570   7.618   7.585   0.766 -1.4327  1.8865 -0.3842
 5941WAT    EPW25571   7.554   7.526   0.771 -0.0722  0.3896 -0.0195
 5942WAT      O25572  -0.538   3.933   8.871 -0.2042  0.3933 -0.4514
 5942WAT     H125573  -0.559   4.026   8.870  0.2257  0.5004 -1.9005
 5942WAT     H225574  -0.444   3.930   8.889 -0.6926  0.0661  2.5705
 5942WAT    EPW25575  -0.528   3.945   8.873 -0.2119  0.3643 -0.2441
 5943WAT      O25576  -0.894   4.017   3.693  0.2653 -0.3798  0.4646
 5943WAT     H125577  -0.828   4.033   3.626  0.4813 -2.8561 -0.0066
 5943WAT     H225578  -0.950   4.095   3.691 -0.3458 -0.7563 -3.3410
 5943WAT    EPW25579  -0.893   4.029   3.684  0.2132 -0.7560 -0.0995
 5944WAT      O25580   3.717   3.963   8.464  0.1062  0.4856  0.2868
 5944WAT     H125581   3.687   4.033   8.406 -1.2630  0.2431  0.6731
 5944WAT     H225582   3.719   3.885   8.409  1.2990  0.7415 -0.0565
 5944WAT    EPW25583   3.713   3.962   8.449  0.0829  0.4874  0.2928
 5945WAT      O25584  -0.249   3.137   4.898  0.8603  0.2744 -0.5538
 5945WAT     H125585  -0.184   3.076   4.931  0.9370  1.0188  0.7679
 5945WAT     H225586  -0.325   3.125   4.955 -0.1372 -0.4667 -1.9712
 5945WAT    EPW25587  -0.250   3.128   4.910  0.7389  0.2748 -0.5662
 5946WAT      O25588   6.354   9.869   0.321  0.4944  0.1327  0.0703
 5946WAT     H125589   6.435   9.819   0.310  1.0388  1.2377 -1.3276
 5946WAT     H225590   6.325   9.887   0.232  0.7879  2.9659  0.4326
 5946WAT    EPW25591   6.361   9.865   0.308  0.6051  0.6523 -0.0663
 5947WAT      O25592  -1.429   9.088   2.477  0.1919 -0.2409  0.1330
 5947WAT     H125593  -1.401   9.131   2.558 -1.3460  0.1406  0.4868
 5947WAT     H225594  -1.481   9.154   2.432 -2.6386 -1.8050  0.9028
 5947WAT    EPW25595  -1.432   9.103   2.482 -0.3842 -0.3967  0.2812
 5948WAT      O25596  -6.591   6.641   7.202 -0.3445  0.3141 -0.2975
 5948WAT     H125597  -6.512   6.692   7.185  1.1846 -1.7363  0.2435
 5948WAT     H225598  -6.624   6.619   7.115  0.3844  0.1806 -0.5476
 5948WAT    EPW25599  -6.585   6.645   7.188 -0.0467  0.0260 -0.2589
 5949WAT      O25600  -3.152   3.041   7.415  0.0504 -0.4043 -0.1779
 5949WAT     H125601  -3.067   3.031   7.371  0.0522 -1.2723 -0.0064
 5949WAT     H225602  -3.142   2.990   7.495 -0.3235  0.2679  0.3017
 5949WAT    EPW25603  -3.139   3.033   7.420  0.0013 -0.4302 -0.0918
 5950WAT      O25604  -0.394   1.256   8.575  0.0714 -0.2655 -0.0920
 5950WAT     H125605  -0.380   1.171   8.534  1.2947 -0.2546  0.2486
 5950WAT     H225606  -0.312   1.273   8.623  0.7700  2.0772 -1.9063
 5950WAT    EPW25607  -0.381   1.247   8.576  0.3249  0.0450 -0.2866
 5951WAT      O25608   1.264   0.079   6.287  0.2255 -0.6753 -0.3951
 5951WAT     H125609   1.250   0.062   6.380 -0.4816  1.0753 -0.1338
 5951WAT     H225610   1.288  -0.006   6.250  0.7158 -1.3697  1.4100
 5951WAT    EPW25611   1.265   0.066   6.295  0.1969 -0.5360 -0.1228
 5952WAT      O25612   0.662   4.631   8.404 -0.0041  0.1851  0.0238
 5952WAT     H125613   0.659   4.725   8.421 -0.5903  0.2780 -0.5654
 5952WAT     H225614   0.659   4.624   8.309  2.6056 -0.3454 -0.1128
 5952WAT    EPW25615   0.661   4.642   8.394  0.2628  0.1273 -0.0715
 5953WAT      O25616   5.118   0.659   3.722 -0.3656 -0.5246 -0.1247
 5953WAT     H125617   5.097   0.700   3.639 -0.2334 -0.8757 -0.3329
 5953WAT     H225618   5.209   0.630   3.712  0.3257  1.1409  0.8223
 5953WAT    EPW25619   5.127   0.661   3.710 -0.2570 -0.3512 -0.0273
 5954WAT      O25620   2.297   3.356   6.453  0.3725 -0.2053 -0.5064
 5954WAT     H125621   2.366   3.357   6.519  0.9583 -0.8569 -1.1041
 5954WAT     H225622   2.225   3.308   6.494  0.1847  0.6420  0.1877
 5954WAT    EPW25623   2.296   3.350   6.467  0.4251 -0.1795 -0.4938
 5955WAT      O25624  -1.697   3.853   1.612 -0.1298 -0.5100  0.5373
 5955WAT     H125625  -1.719   3.760   1.603  2.5773 -1.4484  2.3517
 5955WAT     H225626  -1.780   3.898   1.597 -2.4364 -3.4104  3.0662
 5955WAT    EPW25627  -1.711   3.846   1.609 -0.0769 -1.0163  1.1102
 5956WAT      O25628   4.705   1.967   6.464 -0.1664  0.2059  0.4048
 5956WAT     H125629   4.708   1.901   6.534 -3.0021  0.4024  0.8317
 5956WAT     H225630   4.748   2.044   6.502  0.5609 -0.4675  0.9912
 5956WAT    EPW25631   4.711   1.968   6.479 -0.4447  0.1431  0.5383
 5957WAT      O25632   0.766   5.570   6.243 -0.0394 -0.0313  0.3188
 5957WAT     H125633   0.860   5.556   6.242  0.1172  0.9227 -1.3031
 5957WAT     H225634   0.738   5.539   6.330  1.3993 -2.5210 -0.0043
 5957WAT    EPW25635   0.775   5.564   6.255  0.1710 -0.2339  0.0622
 5958WAT      O25636  -2.549   3.740   4.491  0.1045  0.2143  0.0790
 5958WAT     H125637  -2.627   3.774   4.446 -0.2018  0.3000  0.6582
 5958WAT     H225638  -2.560   3.770   4.581  1.5042  1.4166 -0.1251
 5958WAT    EPW25639  -2.561   3.748   4.497  0.2487  0.3841  0.1287
 5959WAT      O25640   8.763   4.308   0.531  0.7206  0.0920 -0.1227
 5959WAT     H125641   8.674   4.314   0.498  0.4486 -0.1907  0.5382
 5959WAT     H225642   8.763   4.231   0.588  1.7347 -0.6931 -1.1376
 5959WAT    EPW25643   8.752   4.299   0.534  0.8187 -0.0491 -0.1694
 5960WAT      O25644  -2.312   1.630   5.152 -0.1696  0.3364  0.0570
 5960WAT     H125645  -2.367   1.619   5.229  0.1718  0.3730  0.3116
 5960WAT     H225646  -2.281   1.721   5.157 -1.6788  0.9672 -1.1646
 5960WAT    EPW25647  -2.315   1.641   5.163 -0.3237  0.4244 -0.0706
 5961WAT      O25648   3.928   4.344   0.035 -0.4153  0.6708 -0.9758
 5961WAT     H125649   3.991   4.318   0.102  0.4496  0.0269 -1.9933
 5961WAT     H225650   3.881   4.263   0.013 -1.6332  1.1439 -0.2223
 5961WAT    EPW25651   3.930   4.330   0.041 -0.4618  0.6483 -1.0106
 5962WAT      O25652  -2.219   6.957   2.126 -0.0408 -0.1704  0.3014
 5962WAT     H125653  -2.233   7.052   2.129  2.6501  0.2820  1.8875
 5962WAT     H225654  -2.176   6.943   2.041 -1.1269 -0.1342 -0.2774
 5962WAT    EPW25655  -2.215   6.968   2.115  0.1708 -0.1061  0.4344
 5963WAT      O25656   5.627   9.515   2.857 -0.1328 -0.5467  0.3742
 5963WAT     H125657   5.659   9.434   2.897 -0.0856 -0.6229  0.1805
 5963WAT     H225658   5.705   9.558   2.823  0.0283  0.2493  1.6894
 5963WAT    EPW25659   5.641   9.510   2.858 -0.1054 -0.4516  0.5221
 5964WAT      O25660   2.676   1.405   2.915  0.0866 -0.1994 -0.3258
 5964WAT     H125661   2.687   1.480   2.974 -1.9724  2.9156 -3.4863
 5964WAT     H225662   2.582   1.386   2.917  0.2896 -1.4094 -1.0305
 5964WAT    EPW25663   2.665   1.413   2.923 -0.1581  0.0518 -0.8355
 5965WAT      O25664   1.136   8.145   6.670  0.4535 -0.6718 -0.2497
 5965WAT     H125665   1.059   8.090   6.653  0.9098 -0.3122 -4.7039
 5965WAT     H225666   1.204   8.108   6.614  0.9723  3.8311 -3.0642
 5965WAT    EPW25667   1.135   8.133   6.660  0.5822 -0.0305 -1.2085
 5966WAT      O25668   4.465   2.940   0.679 -0.5543 -0.3942  0.3927
 5966WAT     H125669   4.394   2.943   0.743  1.1747 -0.7434  2.4454
 5966WAT     H225670   4.517   3.018   0.698  2.0626 -2.3832  2.0648
 5966WAT    EPW25671   4.463   2.951   0.690  0.0188 -0.7026  0.8839
 5967WAT      O25672   4.042   0.293   1.609 -0.6569 -0.2010  0.0740
 5967WAT     H125673   4.127   0.259   1.581  0.0168  2.1207 -1.0367
 5967WAT     H225674   3.980   0.263   1.542  0.3915  2.6818 -2.4696
 5967WAT    EPW25675   4.045   0.285   1.596 -0.4296  0.4854 -0.4080
 5968WAT      O25676   5.982   9.249   0.497  0.2278 -0.1101  0.3889
 5968WAT     H125677   6.063   9.249   0.446 -0.3541  1.5284 -0.6125
 5968WAT     H225678   5.925   9.188   0.452  1.3077 -2.3477  1.8873
 5968WAT    EPW25679   5.985   9.241   0.484  0.2937 -0.1893  0.4545
 5969WAT      O25680  -4.761   9.537   2.414  0.3326 -0.4085  0.5714
 5969WAT     H125681  -4.684   9.586   2.386 -0.8305  0.9863 -0.3127
 5969WAT     H225682  -4.794   9.497   2.334 -0.4017 -0.1948  0.7605
 5969WAT    EPW25683  -4.755   9.538   2.400  0.0823 -0.1960  0.4797
 5970WAT      O25684   0.153   8.803   5.057 -0.0753 -0.3199 -0.0672
 5970WAT     H125685   0.247   8.808   5.039  0.1225 -3.5695 -0.5988
 5970WAT     H225686   0.113   8.864   4.995  1.5798 -0.4208 -1.3001
 5970WAT    EPW25687   0.160   8.812   5.046  0.1691 -0.7615 -0.2999
 5971WAT      O25688  -0.413   7.696   1.474 -0.5944  0.1031  0.5300
 5971WAT     H125689  -0.369   7.741   1.402  3.4396  0.2165  2.7610
 5971WAT     H225690  -0.403   7.603   1.455  0.8991  0.1267  1.0981
 5971WAT    EPW25691  -0.406   7.690   1.462  0.1346  0.1214  0.8992
 5972WAT      O25692   4.521   7.760   5.980  0.8440 -0.4253  1.4112
 5972WAT     H125693   4.580   7.797   5.915 -0.8120 -2.0261 -1.1927
 5972WAT     H225694   4.578   7.711   6.039  2.2235 -1.1496 -0.4317
 5972WAT    EPW25695   4.536   7.758   5.979  0.8075 -0.7319  0.8247
 5973WAT      O25696   0.422   3.150   6.083 -0.3251 -0.2841 -0.4673
 5973WAT     H125697   0.449   3.098   6.159 -1.8177  0.1900  0.4201
 5973WAT     H225698   0.361   3.093   6.036 -0.3524 -0.1140 -0.6368
 5973WAT    EPW25699   0.418   3.135   6.087 -0.5256 -0.1991 -0.3726
 5974WAT      O25700   0.125   8.706   5.834 -0.1058  0.0481 -0.5867
 5974WAT     H125701   0.188   8.683   5.765 -1.6128 -2.5225 -1.2187
 5974WAT     H225702   0.162   8.669   5.914  1.0896  2.0592 -0.1462
 5974WAT    EPW25703   0.138   8.698   5.835 -0.1469 -0.0253 -0.6120
 5975WAT      O25704  -6.795   5.351   8.428  0.0871  0.0614 -0.9746
 5975WAT     H125705  -6.768   5.408   8.356  0.8890  0.4425 -0.3864
 5975WAT     H225706  -6.753   5.389   8.505 -1.7444  0.3877 -0.0833
 5975WAT    EPW25707  -6.786   5.364   8.429 -0.0486  0.1547 -0.7796
 5976WAT      O25708  -0.195   2.467   2.085  0.2401  0.4513 -0.0007
 5976WAT     H125709  -0.132   2.538   2.094 -1.3405  2.0836 -1.3085
 5976WAT     H225710  -0.227   2.473   1.995 -0.0724 -1.8284 -0.1017
 5976WAT    EPW25711  -0.191   2.477   2.075 -0.0096  0.3659 -0.1866
 5977WAT      O25712  -1.933   3.866   8.464 -1.0297 -0.9323 -0.1944
 5977WAT     H125713  -1.932   3.917   8.544  1.0515 -1.1548 -0.0163
 5977WAT     H225714  -1.952   3.930   8.395 -0.7099 -0.3473  0.2513
 5977WAT    EPW25715  -1.935   3.881   8.465 -0.7131 -0.8845 -0.1125
 5978WAT      O25716   2.826   8.690   0.942  0.3845 -0.4338  0.4419
 5978WAT     H125717   2.813   8.742   0.863  1.4147  1.5228  1.5056
 5978WAT     H225718   2.770   8.732   1.008  0.4292 -1.3200  1.0611
 5978WAT    EPW25719   2.817   8.702   0.940  0.5263 -0.2923  0.6638
 5979WAT      O25720  -3.030   8.694   0.638 -0.6816  0.2769  0.4295
 5979WAT     H125721  -2.967   8.694   0.710  0.7530 -1.5716 -0.7141
 5979WAT     H225722  -2.976   8.684   0.560 -2.3585 -0.8662 -0.6443
 5979WAT    EPW25723  -3.015   8.693   0.637 -0.7135 -0.1178  0.1371
 5980WAT      O25724  -2.679   8.854   2.726 -0.2755 -0.3811 -0.4854
 5980WAT     H125725  -2.609   8.864   2.790  0.1208  0.1374 -0.9845
 5980WAT     H225726  -2.677   8.761   2.703 -0.5401 -0.6064  0.3802
 5980WAT    EPW25727  -2.669   8.843   2.731 -0.2581 -0.3428 -0.4371
 5981WAT      O25728  -0.438   3.953   3.002  0.9606 -0.3146  0.1039
 5981WAT     H125729  -0.401   3.910   2.925  1.6765 -1.6231  1.1541
 5981WAT     H225730  -0.480   3.883   3.051 -2.4736  0.9671 -0.6958
 5981WAT    EPW25731  -0.439   3.938   2.998  0.6021 -0.3182  0.1369
 5982WAT      O25732  -2.871   9.056   8.610  0.1324  0.3081  0.0057
 5982WAT     H125733  -2.802   9.076   8.547  0.7742  0.1794  0.6546
 5982WAT     H225734  -2.940   9.119   8.591 -1.0453 -1.6800 -2.8810
 5982WAT    EPW25735  -2.871   9.067   8.600  0.0618  0.0286 -0.2899
 5983WAT      O25736  -0.283   5.166   1.759 -0.0725  0.2832  0.3295
 5983WAT     H125737  -0.241   5.213   1.687 -0.9781 -2.6195 -2.2976
 5983WAT     H225738  -0.375   5.160   1.733 -0.0338 -2.6210  0.6257
 5983WAT    EPW25739  -0.289   5.172   1.746 -0.1869 -0.4826  0.0221
 5984WAT      O25740   0.153   4.916   3.210  0.2149 -0.0521  0.7935
 5984WAT     H125741   0.088   4.866   3.259 -1.1313  1.6312  0.8055
 5984WAT     H225742   0.194   4.973   3.275  3.9658 -3.0780  1.4446
 5984WAT    EPW25743   0.150   4.917   3.225  0.5321 -0.2291  0.8810
 5985WAT      O25744  -4.309   4.576   6.551  0.2070 -0.7496 -0.1702
 5985WAT     H125745  -4.380   4.531   6.595  0.6671  0.6571  2.2257
 5985WAT     H225746  -4.279   4.641   6.615  0.4139  2.0678 -2.8735
 5985WAT    EPW25747  -4.314   4.579   6.566  0.2949 -0.1924 -0.2108
 5986WAT      O25748   2.121   7.414   2.089  0.0518  0.0716 -0.2356
 5986WAT     H125749   2.068   7.334   2.094 -1.6733  1.2415  1.0387
 5986WAT     H225750   2.140   7.436   2.180 -0.4403  1.7226 -0.5098
 5986WAT    EPW25751   2.117   7.406   2.101 -0.2407  0.4435 -0.1037
 5987WAT      O25752   3.481   8.864   0.424 -0.2694 -0.2719  0.1705
 5987WAT     H125753   3.442   8.801   0.363 -0.1608  0.6722 -0.9058
 5987WAT     H225754   3.532   8.923   0.368 -0.3324  0.7492  1.1524
 5987WAT    EPW25755   3.483   8.863   0.408 -0.2633 -0.0124  0.1581
 5988WAT      O25756   5.886   4.254   3.473 -0.0508 -0.2914  0.7642
 5988WAT     H125757   5.886   4.173   3.525  1.9896 -0.5299  0.4706
 5988WAT     H225758   5.928   4.229   3.390 -0.6294  0.7692  0.1250
 5988WAT    EPW25759   5.892   4.240   3.469  0.1421 -0.1829  0.6412
 5989WAT      O25760   1.229   6.906   3.788 -0.0989 -0.4599 -1.3517
 5989WAT     H125761   1.139   6.919   3.817  0.1018 -0.0712 -0.8772
 5989WAT     H225762   1.238   6.812   3.777  0.1627 -0.7997  1.1133
 5989WAT    EPW25763   1.219   6.896   3.790 -0.0379 -0.4537 -0.9639
 5990WAT      O25764  -1.905   9.935   5.475 -0.3225  0.3489  0.0613
 5990WAT     H125765  -1.952   9.880   5.538 -0.4316 -1.7612 -1.7140
 5990WAT     H225766  -1.816   9.942   5.511 -0.9697  1.1856  1.5666
 5990WAT    EPW25767  -1.899   9.928   5.488 -0.4222  0.1812  0.0257
 5991WAT      O25768   3.493   6.453   0.525  0.0238  0.1179 -0.0194
 5991WAT     H125769   3.447   6.440   0.443 -0.9950 -1.2608  0.7293
 5991WAT     H225770   3.495   6.548   0.537  2.5496  0.5746 -2.8796
 5991WAT    EPW25771   3.487   6.464   0.516  0.2227 -0.0036 -0.2979
 5992WAT      O25772  -1.107   1.923   2.730  0.7379 -0.4366  1.0505
 5992WAT     H125773  -1.085   1.860   2.662  1.5371 -1.3707  2.1556
 5992WAT     H225774  -1.189   1.890   2.768  1.5655 -1.2682  2.1544
 5992WAT    EPW25775  -1.115   1.911   2.726  0.9525 -0.6694  1.3419
 5993WAT      O25776  -2.697   9.611   8.083  0.0281 -0.3382 -0.3970
 5993WAT     H125777  -2.626   9.655   8.036 -0.2773 -1.5389 -2.0644
 5993WAT     H225778  -2.732   9.549   8.020 -0.9015 -1.5121  1.2132
 5993WAT    EPW25779  -2.692   9.609   8.069 -0.1348 -0.6514 -0.4044
 5994WAT      O25780  -4.604   3.633   7.258  0.3126  0.2888  0.1940
 5994WAT     H125781  -4.633   3.541   7.257 -1.3721  0.7751  1.1738
 5994WAT     H225782  -4.510   3.628   7.243 -0.0091 -1.4736 -1.7337
 5994WAT    EPW25783  -4.595   3.620   7.256  0.0479  0.1205  0.0689
 5995WAT      O25784  -0.602   2.912   3.778 -0.0918  0.2240 -0.8864
 5995WAT     H125785  -0.646   2.954   3.853 -1.0143 -0.6782 -0.8991
 5995WAT     H225786  -0.520   2.880   3.814 -1.9835 -3.3864  0.7895
 5995WAT    EPW25787  -0.597   2.914   3.793 -0.4630 -0.3712 -0.6670
 5996WAT      O25788  -6.509   4.272   8.857  0.2932  0.4328 -0.5902
 5996WAT     H125789  -6.495   4.178   8.850  1.7661  0.6156 -0.5277
 5996WAT     H225790  -6.484   4.293   8.947  1.5712  1.0932 -1.0652
 5996WAT    EPW25791  -6.504   4.262   8.868  0.6559  0.5441 -0.6447
 5997WAT      O25792   1.978   2.497   2.635 -0.0342  0.0261  0.3202
 5997WAT     H125793   1.965   2.453   2.719 -0.8368  2.9335  1.8634
 5997WAT     H225794   2.072   2.514   2.631  0.3254 -1.9537 -0.4253
 5997WAT    EPW25795   1.988   2.494   2.646 -0.0926  0.1485  0.4253
 5998WAT      O25796   2.610   5.393   2.566 -0.5005  0.5954 -0.0807
 5998WAT     H125797   2.664   5.375   2.489  1.2574  0.5330  1.0967
 5998WAT     H225798   2.584   5.306   2.598 -0.5074  0.5812 -0.1254
 5998WAT    EPW25799   2.614   5.379   2.560 -0.2697  0.5856  0.0687
 5999WAT      O25800  -1.409   2.560   8.516 -0.8621  0.3624 -0.3024
 5999WAT     H125801  -1.470   2.615   8.565 -1.7187 -0.0134 -0.9379
 5999WAT     H225802  -1.328   2.564   8.567 -1.6059  0.3102  0.9354
 5999WAT    EPW25803  -1.406   2.567   8.529 -1.0732  0.3060 -0.2232
 6000WAT      O25804   6.181   4.730   5.074  0.2456  0.2638  0.0164
 6000WAT     H125805   6.193   4.654   5.130  0.1849 -1.9328 -2.7509
 6000WAT     H225806   6.086   4.743   5.069  0.2879  1.2048  1.2777
 6000WAT    EPW25807   6.170   4.722   5.081  0.2432  0.0982 -0.1822
 6001WAT      O25808   4.987   9.405   2.864 -0.0599 -0.2315 -0.2185
 6001WAT     H125809   5.034   9.451   2.934 -0.5953  1.8222 -1.1381
 6001WAT     H225810   5.042   9.415   2.787 -0.2338 -1.0972 -0.4627
 6001WAT    EPW25811   5.000   9.413   2.863 -0.1535 -0.0744 -0.3719
 6002WAT      O25812   4.603   5.074   3.913  0.2661  0.1141 -0.2253
 6002WAT     H125813   4.605   5.114   4.000 -1.6835  0.0110 -0.0914
 6002WAT     H225814   4.563   5.140   3.857  1.7598  0.2890 -1.1481
 6002WAT    EPW25815   4.598   5.088   3.917  0.2060  0.1237 -0.3294
 6003WAT      O25816  -5.981   9.775   6.752 -0.4559 -0.0155 -0.5413
 6003WAT     H125817  -5.940   9.729   6.678  2.1162 -0.9915  1.3319
 6003WAT     H225818  -6.072   9.746   6.750 -0.2863 -0.6323 -2.8238
 6003WAT    EPW25819  -5.987   9.765   6.742 -0.0944 -0.2251 -0.5956
 6004WAT      O25820  -2.707   2.228   6.055 -0.0685  0.0981 -0.4098
 6004WAT     H125821  -2.631   2.256   6.002  0.4025 -3.8605 -2.1858
 6004WAT     H225822  -2.778   2.222   5.992 -0.1340 -2.3731 -0.1693
 6004WAT    EPW25823  -2.706   2.231   6.039 -0.0150 -0.7499 -0.6123
 6005WAT      O25824  -0.802   7.404   3.946  0.0829  0.1222  0.0738
 6005WAT     H125825  -0.800   7.434   3.855  1.8926 -2.2217 -0.7407
 6005WAT     H225826  -0.895   7.388   3.963 -0.3675  1.2327 -1.0972
 6005WAT    EPW25827  -0.814   7.406   3.936  0.2621 -0.0405 -0.1881
 6006WAT      O25828  -7.116   7.407   8.661  0.3175 -0.7189 -0.0496
 6006WAT     H125829  -7.110   7.419   8.756 -0.4321 -0.6752 -0.0047
 6006WAT     H225830  -7.064   7.329   8.643 -1.1698 -1.9052  0.6626
 6006WAT    EPW25831  -7.108   7.398   8.671  0.0224 -0.8695  0.0501
 6007WAT      O25832  -3.925  10.029   6.083 -0.9862  0.0748  0.3620
 6007WAT     H125833  -3.879  10.110   6.059  1.5501 -2.0156 -2.6488
 6007WAT     H225834  -3.954  10.044   6.173  0.7950  3.6798  0.5368
 6007WAT    EPW25835  -3.923  10.042   6.092 -0.4168  0.2742 -0.0122
 6008WAT      O25836  -0.726   8.797   8.298  0.0913 -0.0117 -0.1358
 6008WAT     H125837  -0.778   8.744   8.238  2.2237 -0.8788 -1.3191
 6008WAT     H225838  -0.720   8.743   8.378 -1.2726  0.3731  0.2575
 6008WAT    EPW25839  -0.732   8.783   8.301  0.1926 -0.0753 -0.2398
 6009WAT      O25840  -3.028   2.454   5.619  0.0673  0.3968  0.4039
 6009WAT     H125841  -2.973   2.492   5.551 -0.6129 -0.1689 -0.4751
 6009WAT     H225842  -2.966   2.412   5.679  0.9134  3.2985  1.7587
 6009WAT    EPW25843  -3.012   2.453   5.618  0.0892  0.7048  0.4666
 6010WAT      O25844  -3.481   7.105   2.229 -0.0213  0.3376 -0.1867
 6010WAT     H125845  -3.483   7.047   2.153 -0.7367  0.4919 -0.2913
 6010WAT     H225846  -3.517   7.188   2.196 -1.5956  0.0197  0.6331
 6010WAT    EPW25847  -3.486   7.109   2.214 -0.3233  0.3161 -0.0924
 6011WAT      O25848   2.617   7.453   8.634  0.3577  0.6092 -1.0862
 6011WAT     H125849   2.697   7.449   8.686  0.5727  2.1461 -1.2490
 6011WAT     H225850   2.634   7.395   8.560  0.2774 -1.1263  0.2047
 6011WAT    EPW25851   2.630   7.445   8.631  0.3754  0.5829 -0.9375
 6012WAT      O25852   0.125   9.998   8.534 -0.2306  0.4211  0.1780
 6012WAT     H125853   0.057   9.930   8.544  1.4024 -1.1923  0.9758
 6012WAT     H225854   0.152   9.992   8.443 -0.5131  0.4335  0.0925
 6012WAT    EPW25855   0.120   9.988   8.523 -0.0525  0.2103  0.2723
 6013WAT      O25856   0.610   9.643   5.995 -0.4505 -0.7205  0.6150
 6013WAT     H125857   0.625   9.625   6.088  1.2021 -1.5732  0.2329
 6013WAT     H225858   0.554   9.571   5.966 -1.0369 -0.4089  0.9545
 6013WAT    EPW25859   0.604   9.631   6.003 -0.3099 -0.7920  0.6094
 6014WAT      O25860  -3.735   7.941   5.844 -0.0705 -0.9386 -0.4591
 6014WAT     H125861  -3.672   8.012   5.832 -0.5022 -0.5330 -0.3451
 6014WAT     H225862  -3.751   7.908   5.755  1.3422 -1.9723 -0.3724
 6014WAT    EPW25863  -3.729   7.946   5.830  0.0589 -1.0214 -0.4327
 6015WAT      O25864   2.066   2.025   4.806  0.3052 -0.7579  0.1423
 6015WAT     H125865   2.016   1.946   4.785  1.4758 -1.8691  1.3496
 6015WAT     H225866   2.036   2.049   4.894  1.0623 -0.7774  0.4128
 6015WAT    EPW25867   2.055   2.018   4.815  0.5594 -0.9071  0.3374
 6016WAT      O25868   0.963   9.374   2.426 -0.6806 -0.4257  0.5674
 6016WAT     H125869   0.937   9.392   2.335 -1.4140  1.6784  1.1330
 6016WAT     H225870   1.057   9.390   2.427 -0.7838  0.2540  0.3096
 6016WAT    EPW25871   0.972   9.379   2.414 -0.7909 -0.0587  0.6080
 6017WAT      O25872   1.415   4.586   2.389  0.2161 -0.1129 -0.4859
 6017WAT     H125873   1.496   4.632   2.366 -0.4294  1.3735  0.0793
 6017WAT     H225874   1.346   4.652   2.376 -0.7285 -0.8753  0.5118
 6017WAT    EPW25875   1.417   4.601   2.384  0.0064 -0.0176 -0.2798
 6018WAT      O25876   5.294   3.842   6.732 -0.3208 -0.0429 -0.0305
 6018WAT     H125877   5.237   3.869   6.804  0.1679  2.0161 -0.3447
 6018WAT     H225878   5.247   3.870   6.653  0.3416  0.1251 -0.3686
 6018WAT    EPW25879   5.280   3.849   6.731 -0.1690  0.2508 -0.1166
 6019WAT      O25880  -1.453   7.107   5.195  0.2067  0.3913  0.0688
 6019WAT     H125881  -1.477   7.035   5.137  0.3461  0.9831 -0.7296
 6019WAT     H225882  -1.414   7.173   5.138 -0.2206  1.2513  0.7363
 6019WAT    EPW25883  -1.451   7.106   5.180  0.1687  0.5827  0.0515
 6020WAT      O25884   0.088   2.423   3.862 -0.2362  0.6273 -0.2893
 6020WAT     H125885   0.183   2.431   3.851 -0.2616  0.3796 -0.6972
 6020WAT     H225886   0.054   2.508   3.835 -0.3305 -0.0788 -2.6137
 6020WAT    EPW25887   0.096   2.435   3.857 -0.2520  0.5015 -0.6497
 6021WAT      O25888  -4.848   5.481   8.270  0.2571  0.6499  0.2293
 6021WAT     H125889  -4.808   5.546   8.329 -1.7572 -0.2521  2.7778
 6021WAT     H225890  -4.897   5.423   8.328  0.0769 -1.8042 -2.1773
 6021WAT    EPW25891  -4.849   5.482   8.285 -0.0322  0.2072  0.2475
 6022WAT      O25892  -1.869   7.038   0.782 -0.6509 -0.5759 -0.7229
 6022WAT     H125893  -1.917   6.977   0.725  2.2839 -2.8729 -0.9497
 6022WAT     H225894  -1.863   6.993   0.866  0.2605  0.0800 -0.4198
 6022WAT    EPW25895  -1.875   7.024   0.785 -0.1436 -0.7925 -0.7128
 6023WAT      O25896   4.224   3.292   1.958  0.2404 -0.0502 -0.1554
 6023WAT     H125897   4.254   3.205   1.981 -2.0742 -1.5044 -2.1372
 6023WAT     H225898   4.215   3.290   1.863 -2.9412  1.1920 -0.0165
 6023WAT    EPW25899   4.227   3.281   1.948 -0.4845 -0.0782 -0.3985
 6024WAT      O25900   1.522   0.685   1.826  0.1386 -0.3623 -0.1481
 6024WAT     H125901   1.495   0.688   1.734 -0.5404 -0.9870  0.0197
 6024WAT     H225902   1.462   0.744   1.871 -0.0418 -0.6559  0.0050
 6024WAT    EPW25903   1.511   0.693   1.820  0.0252 -0.4834 -0.1057
 6025WAT      O25904  -0.575   9.294   8.426  0.1445  0.7138  0.2634
 6025WAT     H125905  -0.581   9.287   8.521  2.0767 -0.8741  0.3194
 6025WAT     H225906  -0.519   9.222   8.399  0.0961  1.4367 -2.0552
 6025WAT    EPW25907  -0.569   9.284   8.435  0.3930  0.5994 -0.0353
 6026WAT      O25908   2.016   8.120   8.264  0.2233  0.0012 -0.0589
 6026WAT     H125909   2.091   8.063   8.248  0.0086 -0.5945  1.0243
 6026WAT     H225910   2.055   8.206   8.281  0.5341  0.2958 -2.0267
 6026WAT    EPW25911   2.031   8.124   8.264  0.2359 -0.0386 -0.1755
 6027WAT      O25912  -3.241   7.413   2.092  0.5626 -0.2198 -0.5513
 6027WAT     H125913  -3.269   7.432   2.181  4.1601 -0.9970  0.9105
 6027WAT     H225914  -3.231   7.499   2.050  1.0911  0.2974  0.6079
 6027WAT    EPW25915  -3.243   7.427   2.098  1.1069 -0.2542 -0.2056
 6028WAT      O25916   5.247   9.132   0.272 -0.3498  0.3218 -0.4039
 6028WAT     H125917   5.316   9.197   0.284 -0.1263  0.1429 -0.7251
 6028WAT     H225918   5.203   9.158   0.191 -0.5245  0.3104 -0.3141
 6028WAT    EPW25919   5.250   9.144   0.263 -0.3433  0.2966 -0.4344
 6029WAT      O25920  -0.724   4.247   1.041 -0.3150  0.1651 -0.3697
 6029WAT     H125921  -0.777   4.205   1.109 -1.0017 -1.4738 -1.8537
 6029WAT     H225922  -0.765   4.220   0.959  1.0107  1.3852 -1.4680
 6029WAT    EPW25923  -0.736   4.238   1.039 -0.2307  0.1099 -0.7103
 6030WAT      O25924   0.232   7.406   6.163 -0.1644  0.4874 -0.0817
 6030WAT     H125925   0.212   7.460   6.239  1.7964  1.2383 -0.0365
 6030WAT     H225926   0.309   7.447   6.123  0.4765 -1.3932 -0.9439
 6030WAT    EPW25927   0.240   7.418   6.167  0.1788  0.3386 -0.1895
 6031WAT      O25928  -3.090   9.856   5.224 -0.1655 -0.4431 -0.1919
 6031WAT     H125929  -3.066   9.809   5.144  1.3422  0.2206 -0.1617
 6031WAT     H225930  -3.154   9.921   5.196 -0.5443 -1.0061 -0.6388
 6031WAT    EPW25931  -3.095   9.858   5.210 -0.0166 -0.4296 -0.2468
 6032WAT      O25932  -5.701   7.421   8.498 -0.1736  0.4682  0.2899
 6032WAT     H125933  -5.739   7.430   8.585  0.3424  0.1717  0.5513
 6032WAT     H225934  -5.666   7.332   8.495 -1.1800  0.0774 -0.6307
 6032WAT    EPW25935  -5.701   7.411   8.509 -0.2382  0.3774  0.2027
 6033WAT      O25936  -1.227   3.784   2.863 -0.1076 -0.5384  0.2413
 6033WAT     H125937  -1.254   3.754   2.950  2.1237  1.5348  1.8121
 6033WAT     H225938  -1.256   3.875   2.859 -0.2349 -0.6167 -1.2511
 6033WAT    EPW25939  -1.234   3.792   2.874  0.1699 -0.2754  0.2518
 6034WAT      O25940   0.250   4.559   3.361 -0.1763 -0.1429 -0.3190
 6034WAT     H125941   0.279   4.596   3.277  0.4710  2.6955  1.0412
 6034WAT     H225942   0.156   4.579   3.364  0.3232  2.3297  0.7654
 6034WAT    EPW25943   0.241   4.566   3.350 -0.0251  0.5577  0.0035
 6035WAT      O25944  -3.007   2.126   8.222 -0.0607  0.1317 -0.3909
 6035WAT     H125945  -2.912   2.140   8.224  0.1197 -0.5578 -2.1952
 6035WAT     H225946  -3.042   2.186   8.288  1.1970  4.0261 -2.9274
 6035WAT    EPW25947  -2.999   2.136   8.231  0.1290  0.5543 -0.9637
 6036WAT      O25948  -2.781   8.835   7.107 -0.6320 -0.2589 -0.1679
 6036WAT     H125949  -2.708   8.774   7.095 -1.5168 -1.0854 -1.6734
 6036WAT     H225950  -2.771   8.869   7.196  2.9469  1.4878 -1.0630
 6036WAT    EPW25951  -2.770   8.832   7.117 -0.2767 -0.1378 -0.4847
 6037WAT      O25952   0.056   2.072   0.031  0.0627 -0.0323 -0.3220
 6037WAT     H125953   0.028   2.002  -0.027 -1.0703 -1.4188  1.7749
 6037WAT     H225954  -0.016   2.135   0.029 -0.0296 -0.1379 -0.3147
 6037WAT    EPW25955   0.043   2.071   0.023 -0.0989 -0.2291 -0.0445
 6038WAT      O25956   2.548   5.333   8.413 -0.2258  0.1679  0.0195
 6038WAT     H125957   2.602   5.269   8.460  0.2309  0.3360 -0.2670
 6038WAT     H225958   2.474   5.282   8.381  0.5174 -0.3981 -0.8674
 6038WAT    EPW25959   2.546   5.318   8.415 -0.0676  0.1156 -0.1354
 6039WAT      O25960   3.880   9.119   1.160 -0.2381  0.5495  0.0970
 6039WAT     H125961   3.806   9.163   1.203  0.7825  1.3215  1.1295
 6039WAT     H225962   3.883   9.032   1.201 -0.2711  0.6978  0.4169
 6039WAT    EPW25963   3.871   9.113   1.171 -0.1078  0.6704  0.2754
 6040WAT      O25964   2.871   1.153   3.007  0.0944 -0.0233  0.4889
 6040WAT     H125965   2.858   1.186   2.918  0.6130 -0.6418  0.1701
 6040WAT     H225966   2.926   1.218   3.050 -2.0579  1.4680  1.1279
 6040WAT    EPW25967   2.877   1.166   3.001 -0.1211  0.0919  0.5311
 6041WAT      O25968   4.576   3.193   5.710  0.0852 -0.5208 -0.8386
 6041WAT     H125969   4.534   3.278   5.714 -0.3196 -0.7746  1.2123
 6041WAT     H225970   4.535   3.150   5.635 -1.0290  0.4086 -0.7923
 6041WAT    EPW25971   4.565   3.198   5.701 -0.1149 -0.4317 -0.5620
 6042WAT      O25972   2.411   3.944   3.406 -0.1124  0.2866 -0.1534
 6042WAT     H125973   2.400   3.967   3.498 -1.7749 -0.3456 -0.1583
 6042WAT     H225974   2.322   3.938   3.372  0.3026 -2.5314 -1.0213
 6042WAT    EPW25975   2.398   3.946   3.414 -0.2769 -0.1684 -0.2686
 6043WAT      O25976   0.130   5.998   7.160 -0.9347 -0.8823 -0.2414
 6043WAT     H125977   0.216   5.998   7.118 -0.7070  1.1315  0.1143
 6043WAT     H225978   0.099   5.908   7.151  1.1685 -1.6507 -0.4314
 6043WAT    EPW25979   0.138   5.986   7.153 -0.6273 -0.7181 -0.2193
 6044WAT      O25980   4.048   4.875   1.681  0.3606 -0.0831 -0.3156
 6044WAT     H125981   4.066   4.783   1.659  0.0073 -0.0343 -0.8175
 6044WAT     H225982   4.010   4.912   1.602  0.4621  0.4920 -0.1037
 6044WAT    EPW25983   4.045   4.868   1.668  0.3273 -0.0007 -0.3539
 6045WAT      O25984  -1.121   2.302   6.970 -0.3797 -0.6625 -0.8157
 6045WAT     H125985  -1.077   2.292   6.886  1.1537  1.5966 -0.3638
 6045WAT     H225986  -1.068   2.365   7.018 -1.5668 -1.3939  1.6280
 6045WAT    EPW25987  -1.108   2.309   6.965 -0.3340 -0.4611 -0.4337
 6046WAT      O25988   3.170   0.469   7.998 -0.0743 -0.3579 -0.3130
 6046WAT     H125989   3.125   0.513   8.070  0.0595  0.5991 -0.8054
 6046WAT     H225990   3.167   0.376   8.021 -0.9196 -0.1549  0.4291
 6046WAT    EPW25991   3.164   0.462   8.010 -0.1681 -0.2049 -0.2799
 6047WAT      O25992  -1.110   5.850   8.524  0.7503 -0.1508  0.1313
 6047WAT     H125993  -1.111   5.806   8.438  1.6761 -0.6309  0.3565
 6047WAT     H225994  -1.163   5.793   8.580  1.7843 -0.8969  0.3720
 6047WAT    EPW25995  -1.117   5.837   8.520  1.0088 -0.3126  0.1926
 6048WAT      O25996   1.193   1.159   4.730 -0.1328 -0.4842 -0.3177
 6048WAT     H125997   1.212   1.160   4.636 -2.8396 -3.2873 -1.0243
 6048WAT     H225998   1.245   1.086   4.764  0.8042  0.4930  0.4281
 6048WAT    EPW25999   1.203   1.150   4.722 -0.3662 -0.7250 -0.3126
 6049WAT      O26000   1.298   8.811   8.358  0.2696 -0.0791  0.5786
 6049WAT     H126001   1.270   8.750   8.426  1.1316 -0.6692  0.4100
 6049WAT     H226002   1.317   8.892   8.405  0.0619 -0.2250  0.9234
 6049WAT    EPW26003   1.297   8.814   8.373  0.3559 -0.1764  0.6018
 6050WAT      O26004  -0.757   6.864   6.648  0.1344 -0.4687  0.2299
 6050WAT     H126005  -0.821   6.869   6.577  0.3335 -0.9095  0.0113
 6050WAT     H226006  -0.810   6.851   6.727 -0.3099  2.9242  0.6307
 6050WAT    EPW26007  -0.773   6.863   6.649  0.1020 -0.0792  0.2539
 6051WAT      O26008  -4.959   5.996   5.056 -0.3757 -0.2356 -0.0905
 6051WAT     H126009  -4.932   5.944   5.131  1.1392  1.4129  0.5791
 6051WAT     H226010  -4.879   6.007   5.004 -1.2413 -0.7505 -1.6009
 6051WAT    EPW26011  -4.945   5.990   5.059 -0.2902 -0.0858 -0.2017
 6052WAT      O26012  -1.788   7.988   6.296 -0.1155  0.7143  0.4090
 6052WAT     H126013  -1.804   7.894   6.298  5.6080 -0.6706  1.7375
 6052WAT     H226014  -1.759   8.007   6.207  2.6761  0.0807  1.0866
 6052WAT    EPW26015  -1.786   7.978   6.285  1.0076  0.4482  0.6738
 6053WAT      O26016   5.778   7.067   1.544  0.3278 -0.3966  0.1472
 6053WAT     H126017   5.700   7.112   1.578  0.5860  1.8521 -1.9821
 6053WAT     H226018   5.828   7.044   1.623 -2.8474 -2.8857  1.6687
 6053WAT    EPW26019   5.775   7.070   1.559 -0.0570 -0.4284  0.0670
 6054WAT      O26020   0.837   7.384   7.913 -0.8756 -0.4256 -0.0144
 6054WAT     H126021   0.818   7.349   8.000 -0.0116  0.4447  0.5395
 6054WAT     H226022   0.843   7.478   7.925  0.3079 -0.3773 -0.8028
 6054WAT    EPW26023   0.835   7.392   7.926 -0.6056 -0.3045 -0.0453
 6055WAT      O26024  -0.863   3.059   0.644 -0.0929 -0.6178 -0.0279
 6055WAT     H126025  -0.814   3.123   0.696 -1.3499 -1.0709  1.8164
 6055WAT     H226026  -0.796   2.998   0.612  0.9742  0.9196 -0.8307
 6055WAT    EPW26027  -0.848   3.059   0.647 -0.1180 -0.4748  0.1095
 6056WAT      O26028   0.433   9.532   2.638  0.9044 -0.1377 -0.2547
 6056WAT     H126029   0.474   9.612   2.607 -1.1236 -0.1271 -3.2619
 6056WAT     H226030   0.349   9.560   2.674  0.4115 -0.8296 -0.8367
 6056WAT    EPW26031   0.428   9.546   2.639  0.5720 -0.2275 -0.7281
 6057WAT      O26032  -0.187   2.489   4.959 -0.2092  0.5559 -0.2059
 6057WAT     H126033  -0.257   2.426   4.978  0.2275  0.5306  1.4577
 6057WAT     H226034  -0.134   2.446   4.891 -1.3429  0.2479 -0.9250
 6057WAT    EPW26035  -0.189   2.475   4.952 -0.3011  0.5119 -0.0813
 6058WAT      O26036   1.684   5.835   8.609 -0.2094  0.0118 -0.2371
 6058WAT     H126037   1.665   5.869   8.697  3.0623  1.1647  0.1548
 6058WAT     H226038   1.624   5.882   8.552 -0.7224  1.1110  1.1286
 6058WAT    EPW26039   1.674   5.846   8.613  0.1545  0.3088 -0.0052
 6059WAT      O26040  -4.767  10.304   8.290 -0.1747 -0.3548  0.7528
 6059WAT     H126041  -4.701  10.266   8.232 -1.4337 -1.2420 -0.1626
 6059WAT     H226042  -4.717  10.348   8.358  1.3622  0.3021 -0.7323
 6059WAT    EPW26043  -4.752  10.305   8.291 -0.1380 -0.3853  0.4358
 6060WAT      O26044   8.072   2.296   2.083  0.3084 -0.1575 -0.5107
 6060WAT     H126045   8.128   2.348   2.142 -0.8507  0.0251  0.4817
 6060WAT     H226046   8.129   2.271   2.011  1.9168 -0.7304  0.8928
 6060WAT    EPW26047   8.087   2.300   2.082  0.3676 -0.2090 -0.1947
 6061WAT      O26048  -1.533   2.087   8.348  0.4288  0.7176  0.1075
 6061WAT     H126049  -1.453   2.038   8.368  1.3447  1.0032 -2.4303
 6061WAT     H226050  -1.603   2.023   8.355  1.4998 -0.8671 -2.3598
 6061WAT    EPW26051  -1.532   2.072   8.351  0.6909  0.5461 -0.5527
 6062WAT      O26052   2.747   0.187   1.960 -0.3287  0.5481  0.1284
 6062WAT     H126053   2.677   0.244   1.990 -0.8212 -0.1727  0.3913
 6062WAT     H226054   2.765   0.214   1.870  0.6892  2.2945  0.7984
 6062WAT    EPW26055   2.740   0.198   1.952 -0.2594  0.6834  0.2514
 6063WAT      O26056   0.179   7.826   8.910 -0.0577 -0.2105  0.4333
 6063WAT     H126057   0.204   7.876   8.832  2.1871  2.5301  2.6813
 6063WAT     H226058   0.083   7.827   8.909 -0.0916  0.3219 -1.8760
 6063WAT    EPW26059   0.170   7.833   8.899  0.2339  0.2213  0.4253
 6064WAT      O26060   5.881   3.760   1.716 -0.0673  0.0866  0.1016
 6064WAT     H126061   5.870   3.776   1.622  0.2883 -0.8653 -0.1092
 6064WAT     H226062   5.916   3.842   1.750 -2.5812  1.3641 -0.1260
 6064WAT    EPW26063   5.884   3.773   1.708 -0.3519  0.1296  0.0437
 6065WAT      O26064  -0.532   7.208   3.013  0.4877 -0.8693 -0.1390
 6065WAT     H126065  -0.546   7.218   3.108 -0.6383  0.6784 -0.4217
 6065WAT     H226066  -0.499   7.119   3.003  1.2804 -0.8550  1.7747
 6065WAT    EPW26067  -0.529   7.198   3.024  0.4438 -0.6633  0.0762
 6066WAT      O26068  -0.641   2.357   7.508  1.2134  0.1787  0.0875
 6066WAT     H126069  -0.637   2.295   7.435  2.1801 -1.1165  1.1641
 6066WAT     H226070  -0.581   2.427   7.484 -0.0821  0.8715 -1.2695
 6066WAT    EPW26071  -0.633   2.358   7.495  1.1700  0.0993  0.0505
 6067WAT      O26072   3.367   7.428   3.186 -0.0738 -0.3218  0.0691
 6067WAT     H126073   3.321   7.353   3.225  1.6473 -2.0482 -1.0574
 6067WAT     H226074   3.297   7.490   3.166 -1.4625 -1.1469  1.9659
 6067WAT    EPW26075   3.352   7.426   3.189 -0.0299 -0.6585  0.1707
 6068WAT      O26076  -1.746   4.459   2.237  0.6922 -0.5763  0.0912
 6068WAT     H126077  -1.720   4.418   2.320 -1.0875 -1.3383  0.3335
 6068WAT     H226078  -1.799   4.535   2.264  0.4451 -0.5917 -0.3476
 6068WAT    EPW26079  -1.750   4.464   2.252  0.4249 -0.6790  0.0653
 6069WAT      O26080   0.812   1.587   8.121  0.7652 -0.1127 -0.2857
 6069WAT     H126081   0.722   1.619   8.135 -0.1569 -0.7042 -3.8443
 6069WAT     H226082   0.801   1.492   8.109  1.7434 -0.1017 -1.3819
 6069WAT    EPW26083   0.798   1.578   8.122  0.7726 -0.1892 -0.8993
 6070WAT      O26084  -5.639   7.512   6.448  0.3400  0.7027  0.6205
 6070WAT     H126085  -5.717   7.482   6.402  0.2574 -0.9737  1.7434
 6070WAT     H226086  -5.597   7.574   6.388 -1.9460  1.8469  0.0945
 6070WAT    EPW26087  -5.644   7.516   6.434  0.0277  0.6325  0.6993
 6071WAT      O26088  -3.993   3.588   7.395 -0.2134 -0.4134  0.7660
 6071WAT     H126089  -3.950   3.515   7.439  3.1657  1.3058  0.6768
 6071WAT     H226090  -4.037   3.636   7.465 -1.5666 -1.8825  0.9707
 6071WAT    EPW26091  -3.993   3.585   7.410  0.0538 -0.3804  0.7813
 6072WAT      O26092  -6.360   7.013   8.295 -0.5801 -0.7034  0.4016
 6072WAT     H126093  -6.335   7.052   8.378  0.6959  0.3356 -0.4281
 6072WAT     H226094  -6.444   7.055   8.273  0.2839  0.9091  0.0088
 6072WAT    EPW26095  -6.368   7.024   8.303 -0.2978 -0.3536  0.2403
 6073WAT      O26096   5.353   3.547   5.896 -0.2531 -0.3824 -0.4038
 6073WAT     H126097   5.353   3.545   5.992 -0.9031 -0.0197 -0.3873
 6073WAT     H226098   5.440   3.578   5.872  0.0497 -0.8715  0.0599
 6073WAT    EPW26099   5.364   3.551   5.905 -0.2987 -0.3991 -0.3405
 6074WAT      O26100  -5.256   6.572   7.702 -0.0515  0.9850 -0.2818
 6074WAT     H126101  -5.317   6.505   7.673  0.0913  1.0240 -0.6837
 6074WAT     H226102  -5.286   6.596   7.789 -1.0253  1.4917 -0.7367
 6074WAT    EPW26103  -5.268   6.567   7.710 -0.1612  1.0571 -0.3948
 6075WAT      O26104   3.869   0.908   5.744  0.5946 -0.0282 -0.5708
 6075WAT     H126105   3.849   0.840   5.680 -0.6874  1.1599 -1.4940
 6075WAT     H226106   3.961   0.928   5.730  0.1272  0.9172 -2.8257
 6075WAT    EPW26107   3.878   0.902   5.734  0.3639  0.2532 -0.9899
 6076WAT      O26108   7.019   1.677   4.503 -0.4649  0.2200 -0.2812
 6076WAT     H126109   7.034   1.607   4.439  0.2223 -0.5500  0.6853
 6076WAT     H226110   7.051   1.756   4.460  2.0070 -0.6127 -0.1470
 6076WAT    EPW26111   7.025   1.678   4.489 -0.0482  0.0086 -0.1361
 6077WAT      O26112   3.104   0.454   0.432  0.8840 -0.1762 -0.0328
 6077WAT     H126113   3.057   0.517   0.377  2.4647  1.1046  0.0252
 6077WAT     H226114   3.181   0.430   0.381  0.9273 -1.1625  0.4657
 6077WAT    EPW26115   3.108   0.459   0.418  1.0982 -0.1373  0.0406
 6078WAT      O26116  -2.072   4.757   8.419  0.0438  0.4076  0.2357
 6078WAT     H126117  -2.097   4.713   8.337  0.6597  1.2569 -0.4218
 6078WAT     H226118  -1.977   4.744   8.425 -0.1333 -0.5707  1.3837
 6078WAT    EPW26119  -2.063   4.749   8.409  0.1017  0.3908  0.3009
 6079WAT      O26120  -1.424   0.342   4.719  0.1041  0.3378  0.1319
 6079WAT     H126121  -1.358   0.327   4.787 -1.3820  0.3640  1.6475
 6079WAT     H226122  -1.500   0.291   4.747 -0.3012 -0.3287 -1.9739
 6079WAT    EPW26123  -1.425   0.333   4.732 -0.1454  0.2533  0.0539
 6080WAT      O26124   0.087   0.677   3.886  0.3828  0.1860  0.7670
 6080WAT     H126125   0.121   0.588   3.895  0.8817  0.5619  3.1334
 6080WAT     H226126   0.029   0.688   3.961  0.9089  2.1134  0.9377
 6080WAT    EPW26127   0.084   0.667   3.897  0.5180  0.4898  1.1016
 6081WAT      O26128   2.687   5.018   3.024  0.0598 -0.0799  0.5414
 6081WAT     H126129   2.674   5.101   2.978  2.1841  1.1831  2.0455
 6081WAT     H226130   2.765   4.980   2.983 -1.3675 -1.8705 -0.7270
 6081WAT    EPW26131   2.696   5.024   3.012  0.1516 -0.1495  0.5726
 6082WAT      O26132  -3.230   5.493   5.699  0.3441 -0.7284  0.0243
 6082WAT     H126133  -3.277   5.437   5.637 -0.9537 -0.2038  0.4942
 6082WAT     H226134  -3.156   5.527   5.649 -0.7114 -0.2483 -1.2894
 6082WAT    EPW26135  -3.226   5.490   5.684  0.0339 -0.5960 -0.0870
 6083WAT      O26136   2.683   1.320   5.660  0.6466  0.1317  0.3393
 6083WAT     H126137   2.663   1.329   5.567  0.4107  1.1068  0.4692
 6083WAT     H226138   2.606   1.356   5.705  1.2790  0.8570  0.8851
 6083WAT    EPW26139   2.670   1.326   5.654  0.6988  0.3560  0.4284
 6084WAT      O26140   3.642   3.199   0.691  0.0299  0.0395 -0.1735
 6084WAT     H126141   3.550   3.199   0.665 -0.4540  1.9230  1.3522
 6084WAT     H226142   3.687   3.242   0.618 -0.6491  1.2035  0.0761
 6084WAT    EPW26143   3.636   3.204   0.678 -0.1235  0.4414  0.0607
 6085WAT      O26144  -0.883   4.746   3.475 -0.0266 -0.1331 -0.1662
 6085WAT     H126145  -0.938   4.708   3.544 -0.9244 -2.6354 -2.0805
 6085WAT     H226146  -0.920   4.833   3.461 -0.3792  0.0961  1.8308
 6085WAT    EPW26147  -0.895   4.752   3.482 -0.1915 -0.4330 -0.1552
 6086WAT      O26148   3.401   7.524   4.354 -0.0429  0.3533 -0.5950
 6086WAT     H126149   3.320   7.572   4.369 -0.1471  0.7946 -2.3995
 6086WAT     H226150   3.390   7.443   4.404 -0.7355  1.2532  0.7911
 6086WAT    EPW26151   3.389   7.520   4.363 -0.1479  0.5302 -0.6502
 6087WAT      O26152   1.499   2.319   4.407  0.1814  0.9137 -0.6771
 6087WAT     H126153   1.513   2.312   4.312  2.2939 -0.5765 -0.3381
 6087WAT     H226154   1.584   2.298   4.445 -1.3683 -1.9618  1.6220
 6087WAT    EPW26155   1.512   2.315   4.399  0.2556  0.3380 -0.3288
 6088WAT      O26156  -1.017   2.572   0.743 -0.6813 -0.0424  0.2349
 6088WAT     H126157  -0.946   2.635   0.755 -2.1438  1.8245 -0.5196
 6088WAT     H226158  -1.018   2.555   0.648 -0.6370 -0.8378  0.3664
 6088WAT    EPW26159  -1.008   2.578   0.732 -0.8683  0.0988  0.1527
 6089WAT      O26160  -1.937   0.520   5.733 -0.1662 -0.6201  0.3581
 6089WAT     H126161  -1.917   0.572   5.656 -0.8848 -0.9397 -0.0460
 6089WAT     H226162  -1.851   0.498   5.770  0.1773 -0.4511 -0.3378
 6089WAT    EPW26163  -1.923   0.524   5.728 -0.2158 -0.6400  0.2131
 6090WAT      O26164  -1.028   3.371   5.036  0.0755  0.7136 -0.4078
 6090WAT     H126165  -1.075   3.291   5.013 -0.9078  0.6439  1.6231
 6090WAT     H226166  -0.956   3.376   4.972 -0.4287 -1.2223 -1.2033
 6090WAT    EPW26167  -1.025   3.361   5.024 -0.1207  0.4491 -0.2449
 6091WAT      O26168   1.084   8.402   3.349 -0.5973  0.3252  0.0161
 6091WAT     H126169   1.035   8.478   3.316  0.0957  1.1168  0.7746
 6091WAT     H226170   1.017   8.336   3.365 -0.9382 -0.4070 -3.6195
 6091WAT    EPW26171   1.069   8.403   3.347 -0.5509  0.3328 -0.3633
 6092WAT      O26172  -1.185   9.131   1.708 -0.5023 -0.2792 -0.3073
 6092WAT     H126173  -1.204   9.124   1.614  0.1357  0.5317 -0.5045
 6092WAT     H226174  -1.149   9.219   1.719 -2.9756  0.6649  1.1266
 6092WAT    EPW26175  -1.183   9.142   1.697 -0.7444 -0.0472 -0.1442
 6093WAT      O26176   0.298   8.713   2.938 -0.1699  0.0817 -0.4566
 6093WAT     H126177   0.239   8.638   2.934 -0.7623  0.5195 -0.1297
 6093WAT     H226178   0.339   8.707   3.025 -1.3627  0.9665  0.1968
 6093WAT    EPW26179   0.296   8.702   2.949 -0.4053  0.2561 -0.3273
 6094WAT      O26180   4.606   9.848   0.686  1.2758 -0.1666 -0.0214
 6094WAT     H126181   4.592   9.924   0.742 -0.0262 -1.1127  1.0084
 6094WAT     H226182   4.633   9.778   0.747 -0.6205 -1.3468 -0.4510
 6094WAT    EPW26183   4.608   9.849   0.701  0.8540 -0.4468  0.0578
 6095WAT      O26184   7.055   2.078   1.759 -0.4175 -0.1013  0.0724
 6095WAT     H126185   6.970   2.081   1.716 -0.1443  0.1237 -0.4651
 6095WAT     H226186   7.058   2.158   1.812 -1.4400 -1.1917  1.8739
 6095WAT    EPW26187   7.044   2.089   1.760 -0.5162 -0.2154  0.2392
 6096WAT      O26188  -2.153   6.592   1.154  0.2983  0.1881 -0.1627
 6096WAT     H126189  -2.237   6.638   1.148  0.7560  0.9097 -2.2566
 6096WAT     H226190  -2.121   6.590   1.063  1.6457 -1.7951  0.2916
 6096WAT    EPW26191  -2.160   6.598   1.141  0.5363  0.0217 -0.3789
 6097WAT      O26192   2.970   5.915   1.171  0.3449  0.2443  0.6280
 6097WAT     H126193   2.875   5.926   1.167  0.4653  1.1281 -1.0457
 6097WAT     H226194   2.992   5.923   1.264 -1.2207 -0.1395  1.0558
 6097WAT    EPW26195   2.960   5.918   1.182  0.1543  0.3102  0.4636
 6098WAT      O26196   6.122   9.248   2.257 -0.0224 -0.1750  0.1631
 6098WAT     H126197   6.077   9.235   2.340  1.2758 -2.4577  0.5930
 6098WAT     H226198   6.201   9.194   2.264  0.3015 -0.1552 -2.4270
 6098WAT    EPW26199   6.127   9.239   2.269  0.1915 -0.4735 -0.1218
 6099WAT      O26200   1.290   0.395   1.062  0.0641 -0.0646 -0.1879
 6099WAT     H126201   1.286   0.365   1.153 -0.8506  2.1142  0.5412
 6099WAT     H226202   1.383   0.390   1.040  0.3698 -0.1888  1.0329
 6099WAT    EPW26203   1.302   0.390   1.071 -0.0162  0.2064  0.0693
 6100WAT      O26204   0.681   3.730   5.813  0.4228 -0.4919 -0.7295
 6100WAT     H126205   0.614   3.744   5.880 -0.2913 -0.5893 -1.4033
 6100WAT     H226206   0.662   3.643   5.778  0.5524 -0.2913 -1.3103
 6100WAT    EPW26207   0.670   3.721   5.817  0.3457 -0.4783 -0.8950
 6101WAT      O26208   1.750   8.447   6.248 -0.0987  0.0201  0.0405
 6101WAT     H126209   1.767   8.502   6.172  3.4162 -0.8346  0.0193
 6101WAT     H226210   1.700   8.374   6.214 -2.0364  1.5407 -0.5637
 6101WAT    EPW26211   1.746   8.445   6.234  0.1093  0.1082 -0.0420
 6102WAT      O26212   2.126   7.752   7.321 -0.5048  0.8094 -0.5473
 6102WAT     H126213   2.157   7.839   7.346  0.9795  0.6481 -1.6779
 6102WAT     H226214   2.149   7.697   7.396  3.2937  0.4645 -1.7161
 6102WAT    EPW26215   2.133   7.756   7.334  0.1919  0.7427 -0.8507
 6103WAT      O26216  -2.254   9.560   1.336  0.1364  0.4370  0.5065
 6103WAT     H126217  -2.260   9.586   1.428  1.9694  1.5679  0.3456
 6103WAT     H226218  -2.261   9.464   1.338 -1.4173  0.5377  1.6410
 6103WAT    EPW26219  -2.256   9.551   1.348  0.1732  0.5994  0.6350
 6104WAT      O26220  -3.879   1.309   8.751 -0.1025 -0.0404 -0.6552
 6104WAT     H126221  -3.971   1.297   8.729  0.1205  0.5498 -2.0527
 6104WAT     H226222  -3.843   1.220   8.753 -0.8556 -0.3311  0.7031
 6104WAT    EPW26223  -3.886   1.296   8.748 -0.1725 -0.0010 -0.6604
 6105WAT      O26224   4.374   0.976   8.956 -0.2439  0.0810  0.6818
 6105WAT     H126225   4.420   0.896   8.932  0.8925  0.4696  1.4891
 6105WAT     H226226   4.283   0.948   8.967  0.1495 -1.1413  1.0567
 6105WAT    EPW26227   4.368   0.962   8.955 -0.0422 -0.0289  0.8383
 6106WAT      O26228  -4.199   1.289   8.720  0.0729 -0.3172 -0.3415
 6106WAT     H126229  -4.204   1.297   8.624 -0.3471 -0.8098 -0.3620
 6106WAT     H226230  -4.261   1.354   8.752 -1.5122 -1.7132 -0.4625
 6106WAT    EPW26231  -4.207   1.299   8.711 -0.1917 -0.5662 -0.3600
 6107WAT      O26232   4.232   2.873   3.310 -0.2327  0.6586  0.6145
 6107WAT     H126233   4.196   2.961   3.318 -2.0360  0.2548 -1.9609
 6107WAT     H226234   4.299   2.881   3.242  0.5290  0.2784  1.3111
 6107WAT    EPW26235   4.236   2.886   3.302 -0.3700  0.5553  0.3668
 6108WAT      O26236  -0.774  10.182   7.630 -0.0154  0.1562  0.4957
 6108WAT     H126237  -0.764  10.276   7.612 -1.8433  0.4202  0.7069
 6108WAT     H226238  -0.694  10.143   7.595  0.4579  1.7045 -0.2633
 6108WAT    EPW26239  -0.762  10.189   7.623 -0.1940  0.3953  0.4237
 6109WAT      O26240  -4.379   9.369   5.177 -0.5518  0.0758  0.0823
 6109WAT     H126241  -4.454   9.429   5.175  1.3095  2.6113  0.4278
 6109WAT     H226242  -4.343   9.373   5.088 -0.7529 -1.0219 -0.0517
 6109WAT    EPW26243  -4.384   9.378   5.165 -0.3326  0.2651  0.1101
 6110WAT      O26244   5.722   0.617   6.460 -0.4064 -0.3797  0.4732
 6110WAT     H126245   5.687   0.668   6.534 -1.0397 -1.1660  0.7242
 6110WAT     H226246   5.668   0.644   6.385  2.0642  2.6428 -0.4594
 6110WAT    EPW26247   5.710   0.628   6.460 -0.1640 -0.0848  0.3831
 6111WAT      O26248  -1.856   0.131   8.747  0.7772 -0.2224 -0.3653
 6111WAT     H126249  -1.849   0.110   8.841 -1.8658 -0.9532 -0.2429
 6111WAT     H226250  -1.802   0.064   8.704 -0.5258 -1.9575  0.5330
 6111WAT    EPW26251  -1.848   0.119   8.754  0.2567 -0.5477 -0.2308
 6112WAT      O26252  -0.749   2.260   0.545 -0.1379 -0.8412 -0.3687
 6112WAT     H126253  -0.722   2.171   0.522 -2.4262 -1.4227 -1.0521
 6112WAT     H226254  -0.672   2.298   0.587  0.7988 -3.2675  0.3094
 6112WAT    EPW26255  -0.735   2.253   0.548 -0.3162 -1.2380 -0.3695
 6113WAT      O26256   0.398   4.317   0.795 -0.0858 -0.6305 -0.4326
 6113WAT     H126257   0.363   4.284   0.878 -2.0084 -2.1048 -1.7401
 6113WAT     H226258   0.412   4.238   0.743  1.0781  0.2788 -1.5355
 6113WAT    EPW26259   0.395   4.302   0.799 -0.1858 -0.7050 -0.7505
 6114WAT      O26260   3.517   1.063   2.604 -0.0835 -0.9027 -0.4622
 6114WAT     H126261   3.538   0.985   2.655 -0.7145 -1.1228 -0.5379
 6114WAT     H226262   3.562   1.134   2.650 -0.9624 -1.0335  0.6269
 6114WAT    EPW26263   3.526   1.062   2.617 -0.2826 -0.9490 -0.3285
 6115WAT      O26264  -0.758   1.638   3.501  0.1610 -0.5483  0.0980
 6115WAT     H126265  -0.707   1.719   3.498 -0.0868 -0.3687  0.7193
 6115WAT     H226266  -0.822   1.652   3.570  0.5005 -1.4942  0.6210
 6115WAT    EPW26267  -0.759   1.650   3.509  0.1731 -0.6494  0.2489
 6116WAT      O26268   7.478   2.667   2.283 -0.8532  0.6247 -0.0992
 6116WAT     H126269   7.555   2.689   2.335 -0.5326  0.4205 -0.4828
 6116WAT     H226270   7.505   2.593   2.229 -1.3523  0.4783 -0.1588
 6116WAT    EPW26271   7.492   2.660   2.283 -0.8767  0.5784 -0.1577
 6117WAT      O26272   1.395   7.181   8.218  0.0470 -0.0697 -0.3479
 6117WAT     H126273   1.482   7.144   8.206  0.6404  1.5121 -1.2661
 6117WAT     H226274   1.343   7.144   8.146 -0.8406 -3.0501  1.6566
 6117WAT    EPW26275   1.399   7.171   8.207  0.0082 -0.2544 -0.2046
 6118WAT      O26276  -1.951   1.961   2.381  0.2079  0.8680  0.2109
 6118WAT     H126277  -1.878   1.911   2.419 -0.5171 -0.0354  0.4460
 6118WAT     H226278  -2.024   1.945   2.440 -1.9075 -3.2044 -3.0033
 6118WAT    EPW26279  -1.951   1.952   2.393 -0.1668  0.2117 -0.1820
 6119WAT      O26280  -3.074   4.177   7.858 -0.3565  0.1141 -0.2293
 6119WAT     H126281  -3.120   4.107   7.904 -1.0970  0.3177 -0.6364
 6119WAT     H226282  -3.053   4.241   7.927  0.4032 -0.5316  0.1557
 6119WAT    EPW26283  -3.077   4.176   7.873 -0.3539  0.0558 -0.2325
 6120WAT      O26284  -1.254   7.084   2.018 -0.5859 -0.6982  0.1532
 6120WAT     H126285  -1.241   7.080   1.923 -1.7194  0.1112 -0.0467
 6120WAT     H226286  -1.175   7.044   2.054 -0.1922 -1.1306 -1.1293
 6120WAT    EPW26287  -1.242   7.078   2.010 -0.6835 -0.6485 -0.0423
 6121WAT      O26288   3.097   3.185   1.046  0.4888  0.3051 -0.3452
 6121WAT     H126289   3.015   3.163   1.089  0.6793  0.8849  0.3434
 6121WAT     H226290   3.073   3.205   0.956 -0.2927  1.5127  0.1025
 6121WAT    EPW26291   3.083   3.185   1.040  0.4108  0.5410 -0.1953
 6122WAT      O26292  -0.658   8.622   8.858 -0.3628  1.0552  0.0914
 6122WAT     H126293  -0.686   8.697   8.910 -0.7585  0.8346  0.2054
 6122WAT     H226294  -0.567   8.609   8.882 -0.5305  0.9816  0.7090
 6122WAT    EPW26295  -0.650   8.630   8.868 -0.4371  1.0161  0.1879
 6123WAT      O26296  -0.818   9.991   0.101 -0.5425 -0.2270  0.0567
 6123WAT     H126297  -0.799   9.897   0.105 -0.3434 -0.1543  0.8882
 6123WAT     H226298  -0.909   9.997   0.074 -0.9347 -0.6896  1.2385
 6123WAT    EPW26299  -0.827   9.979   0.098 -0.5680 -0.2785  0.3222
 6124WAT      O26300  -5.630   6.681   5.378 -0.0402  0.2337 -0.4438
 6124WAT     H126301  -5.700   6.695   5.442  0.2789 -0.9174  0.1769
 6124WAT     H226302  -5.639   6.754   5.317 -0.9100  0.8633  0.4105
 6124WAT    EPW26303  -5.640   6.692   5.378 -0.1128  0.1652 -0.2491
 6125WAT      O26304   7.119   6.397   1.226 -0.0053 -0.2272 -0.3737
 6125WAT     H126305   7.048   6.392   1.162 -2.9966  3.0606  2.2804
 6125WAT     H226306   7.159   6.483   1.212  0.1812 -0.0170  1.1990
 6125WAT    EPW26307   7.115   6.408   1.216 -0.3750  0.2341  0.1838
 6126WAT      O26308   6.780   2.315   4.628  0.1760  0.1285 -0.0898
 6126WAT     H126309   6.793   2.285   4.718 -1.3243 -0.7150 -0.1258
 6126WAT     H226310   6.692   2.351   4.627  0.6805  1.4257 -0.9135
 6126WAT    EPW26311   6.770   2.316   4.640  0.0446  0.1882 -0.2034
 6127WAT      O26312  -4.490   9.663   6.674  0.3599  0.5487  0.1057
 6127WAT     H126313  -4.440   9.587   6.646 -0.0255  0.4960 -0.4562
 6127WAT     H226314  -4.566   9.626   6.720  0.9704  0.6325  1.2182
 6127WAT    EPW26315  -4.493   9.648   6.677  0.3898  0.5531  0.1783
 6128WAT      O26316   6.486   6.091   2.486 -0.0613  0.2125 -0.4142
 6128WAT     H126317   6.510   6.174   2.444 -0.8850  0.2013 -0.9269
 6128WAT     H226318   6.570   6.047   2.501  0.4008  1.2359  0.0949
 6128WAT    EPW26319   6.500   6.096   2.482 -0.1090  0.3462 -0.4146
 6129WAT      O26320   4.371   6.124   0.818 -0.2658  0.0073  0.3748
 6129WAT     H126321   4.300   6.083   0.867 -0.4526 -1.2847 -0.9116
 6129WAT     H226322   4.444   6.062   0.825  1.2997  1.8857  2.7910
 6129WAT    EPW26323   4.371   6.110   0.826 -0.0839  0.0844  0.5238
 6130WAT      O26324   3.013   0.857   3.505  0.5134  0.3205  0.3091
 6130WAT     H126325   3.073   0.811   3.446  0.6197 -0.0749  0.7152
 6130WAT     H226326   3.039   0.828   3.592 -1.5183 -1.4316  0.4206
 6130WAT    EPW26327   3.025   0.847   3.509  0.2594  0.0373  0.3774
 6131WAT      O26328   1.575   6.576   8.390 -0.1882 -0.1391 -0.6252
 6131WAT     H126329   1.529   6.624   8.459 -1.4898  0.1092 -1.6338
 6131WAT     H226330   1.631   6.641   8.349 -1.2156  0.3081 -1.3501
 6131WAT    EPW26331   1.576   6.591   8.394 -0.4954 -0.0474 -0.8540
 6132WAT      O26332   1.951   8.864   7.372 -0.5109 -0.0766  0.2619
 6132WAT     H126333   1.933   8.870   7.279  2.0840  0.2631 -0.3056
 6132WAT     H226334   1.979   8.773   7.385 -4.2359 -1.2399  1.5251
 6132WAT    EPW26335   1.952   8.853   7.362 -0.6599 -0.1850  0.3538
 6133WAT      O26336  -0.979   4.472   0.970 -0.2754 -0.4652 -0.0200
 6133WAT     H126337  -1.018   4.559   0.969 -2.4915 -1.4068  0.2149
 6133WAT     H226338  -1.051   4.413   0.949  1.0755 -2.3023  0.2808
 6133WAT    EPW26339  -0.993   4.476   0.967 -0.3895 -0.8316  0.0507
 6134WAT      O26340  -2.589   6.192   5.566 -0.6109  0.0959 -0.4482
 6134WAT     H126341  -2.668   6.198   5.512 -1.4158  0.7505  0.7657
 6134WAT     H226342  -2.608   6.246   5.642  1.0126  0.2422 -0.1193
 6134WAT    EPW26343  -2.602   6.200   5.569 -0.5028  0.2015 -0.2446
 6135WAT      O26344  -4.330   5.883   5.129 -0.8560  0.2427  0.3538
 6135WAT     H126345  -4.425   5.893   5.134 -0.7977  0.8380  0.2553
 6135WAT     H226346  -4.311   5.808   5.186 -1.5053 -0.6172 -0.5206
 6135WAT    EPW26347  -4.340   5.874   5.137 -0.9339  0.2079  0.2255
 6136WAT      O26348  -3.807   7.837   5.595  0.4543 -0.1921 -0.3260
 6136WAT     H126349  -3.839   7.909   5.540 -0.8281  0.9328  1.7347
 6136WAT     H226350  -3.743   7.792   5.541 -0.5664  0.9413 -2.6402
 6136WAT    EPW26351  -3.803   7.841   5.581  0.1506  0.1059 -0.3595
 6137WAT      O26352   8.240   0.517   2.364 -0.0029 -0.6592  0.7013
 6137WAT     H126353   8.152   0.536   2.397 -0.2484 -3.2172  1.7464
 6137WAT     H226354   8.227   0.447   2.300  1.2737 -0.9289  0.7062
 6137WAT    EPW26355   8.227   0.511   2.360  0.1330 -1.0321  0.8398
 6138WAT      O26356  -2.901   3.007   3.763 -0.6263 -0.0780 -0.2922
 6138WAT     H126357  -2.835   3.015   3.695  0.0072 -2.4077 -0.0367
 6138WAT     H226358  -2.982   3.038   3.721  0.1824  0.6984 -1.3306
 6138WAT    EPW26359  -2.903   3.012   3.748 -0.4362 -0.2829 -0.3955
 6139WAT      O26360   2.764   8.559   5.053  0.3175  0.0971 -0.1452
 6139WAT     H126361   2.842   8.607   5.028 -0.1091  1.1334  0.4126
 6139WAT     H226362   2.722   8.615   5.120 -1.5368  0.2053 -1.3107
 6139WAT    EPW26363   2.769   8.573   5.059  0.0167  0.2480 -0.2253
 6140WAT      O26364   3.137   7.580   8.142  0.3826  1.2288 -0.5056
 6140WAT     H126365   3.132   7.673   8.119 -1.8632  1.5056  0.8648
 6140WAT     H226366   3.059   7.541   8.103  0.7302  0.1305 -0.1487
 6140WAT    EPW26367   3.126   7.587   8.134  0.1323  1.1206 -0.2780
 6141WAT      O26368   4.312   3.976   5.470 -0.4798  0.1386 -0.0573
 6141WAT     H126369   4.288   4.019   5.552 -0.4523  0.6305 -0.3043
 6141WAT     H226370   4.400   3.941   5.485 -0.1364  0.9573 -0.1573
 6141WAT    EPW26371   4.320   3.977   5.482 -0.4311  0.3114 -0.1030
 6142WAT      O26372  -2.993   3.226   6.606  0.8821 -0.2367 -0.2397
 6142WAT     H126373  -2.968   3.156   6.546 -0.6427 -1.8355  0.8588
 6142WAT     H226374  -2.987   3.186   6.693  3.5571  2.1640  0.8398
 6142WAT    EPW26375  -2.989   3.212   6.610  1.0339 -0.1310  0.0474
 6143WAT      O26376  -3.280   9.371   2.485 -0.8038 -0.4874  0.6587
 6143WAT     H126377  -3.257   9.306   2.418  1.6238  0.6884  0.2219
 6143WAT     H226378  -3.360   9.411   2.453  2.0446  2.5620 -3.7283
 6143WAT    EPW26379  -3.287   9.368   2.472 -0.1079  0.0701  0.0225
 6144WAT      O26380  -1.165   5.630   1.227  0.2292 -0.3173 -0.5850
 6144WAT     H126381  -1.117   5.615   1.145  2.3997  2.2395  0.0587
 6144WAT     H226382  -1.257   5.618   1.203  0.9340 -2.3856 -2.6665
 6144WAT    EPW26383  -1.170   5.627   1.213  0.6084 -0.2530 -0.7746
 6145WAT      O26384  -6.545   7.712   7.679  0.3734 -0.3737  0.9408
 6145WAT     H126385  -6.596   7.781   7.636 -1.4069 -1.9855  0.3329
 6145WAT     H226386  -6.531   7.745   7.768  0.2472  1.0803  0.4539
 6145WAT    EPW26387  -6.550   7.725   7.685  0.1221 -0.3948  0.7966
 6146WAT      O26388   2.048   9.322   5.833 -0.1462  0.5926  0.5600
 6146WAT     H126389   2.057   9.383   5.907 -0.1756 -0.5282  1.5302
 6146WAT     H226390   1.954   9.303   5.829  0.0000 -0.3574  1.1214
 6146WAT    EPW26391   2.037   9.328   5.842 -0.1308  0.3195  0.7620
 6147WAT      O26392   2.684   5.754   4.691  0.1554 -0.3268 -0.2398
 6147WAT     H126393   2.681   5.674   4.639  0.8031 -1.9681  2.0944
 6147WAT     H226394   2.689   5.724   4.781  3.8389  2.2891  0.6469
 6147WAT    EPW26395   2.684   5.740   4.696  0.7266 -0.1979  0.1850
 6148WAT      O26396  -5.559   6.506   5.945 -0.4229  0.3419  0.2312
 6148WAT     H126397  -5.551   6.577   6.008 -0.6732  2.2124 -1.7305
 6148WAT     H226398  -5.475   6.460   5.950  0.2336  1.5472  0.6708
 6148WAT    EPW26399  -5.547   6.509   5.954 -0.3691  0.7474  0.0303
 6149WAT      O26400   2.400   7.274   3.697  0.3537 -0.5947 -0.2495
 6149WAT     H126401   2.464   7.316   3.640  1.2524 -0.5348  0.7892
 6149WAT     H226402   2.420   7.306   3.785 -1.3824 -0.2153  0.0598
 6149WAT    EPW26403   2.411   7.283   3.701  0.2433 -0.5367 -0.0716
 6150WAT      O26404   0.071   3.630   6.233 -0.1893 -0.5193 -0.1311
 6150WAT     H126405   0.128   3.562   6.269 -0.9342 -1.9363 -1.4921
 6150WAT     H226406   0.127   3.706   6.223  0.4950 -0.6709  2.1474
 6150WAT    EPW26407   0.086   3.631   6.236 -0.1973 -0.7261 -0.0100
 6151WAT      O26408   4.941   0.965   4.506 -0.3812  0.4618 -0.6364
 6151WAT     H126409   4.996   1.043   4.508 -0.6682  0.6597  0.5682
 6151WAT     H226410   4.889   0.971   4.586 -1.4562 -0.2181 -1.2656
 6151WAT    EPW26411   4.941   0.976   4.517 -0.5608  0.3982 -0.5605
 6152WAT      O26412  -5.098   9.273   4.835 -0.1405 -0.0699  0.0921
 6152WAT     H126413  -5.124   9.193   4.881 -1.3720  0.2094 -0.0881
 6152WAT     H226414  -5.126   9.259   4.745  0.0003  0.4052 -0.0273
 6152WAT    EPW26415  -5.105   9.260   4.829 -0.2844  0.0291  0.0525
 6153WAT      O26416   6.201   2.116   1.628  0.1428 -0.3033  0.5169
 6153WAT     H126417   6.109   2.140   1.637 -0.1846 -0.9321 -0.9119
 6153WAT     H226418   6.239   2.137   1.713 -1.8134 -2.1660  1.9740
 6153WAT    EPW26419   6.194   2.122   1.640 -0.1585 -0.6319  0.5206
 6154WAT      O26420  -2.930   5.246   2.023 -0.0931  0.6260 -0.4730
 6154WAT     H126421  -2.853   5.193   2.040 -1.6193 -1.5155  0.2726
 6154WAT     H226422  -2.941   5.299   2.102  0.4476  0.7389 -0.4725
 6154WAT    EPW26423  -2.922   5.246   2.036 -0.2230  0.3586 -0.3747
 6155WAT      O26424   3.810   1.771   8.893  0.7023  0.3121 -0.5139
 6155WAT     H126425   3.850   1.684   8.885  2.1250  0.9893 -1.2858
 6155WAT     H226426   3.881   1.832   8.872  0.2799  1.7642  1.8533
 6155WAT    EPW26427   3.825   1.768   8.889  0.8341  0.5929 -0.3033
 6156WAT      O26428  -0.982   3.917   7.578  0.3122 -0.9339  0.0507
 6156WAT     H126429  -0.952   4.004   7.553  0.3578 -1.2666 -1.0871
 6156WAT     H226430  -1.048   3.933   7.646  1.9235 -0.1269  1.5155
 6156WAT    EPW26431  -0.987   3.931   7.584  0.5307 -0.8714  0.0937
 6157WAT      O26432  -2.028   2.758   8.205  0.1501  0.4815  0.1245
 6157WAT     H126433  -2.092   2.817   8.167  0.3294  1.2846  1.0266
 6157WAT     H226434  -2.011   2.693   8.136  0.0389  1.5445 -0.9426
 6157WAT    EPW26435  -2.034   2.757   8.191  0.1591  0.7277  0.1025
 6158WAT      O26436   0.310   4.655   7.537  0.7911 -1.0831  0.5134
 6158WAT     H126437   0.379   4.695   7.590  1.4212 -1.7279  0.1873
 6158WAT     H226438   0.286   4.575   7.584 -1.1654  0.1133  1.6899
 6158WAT    EPW26439   0.316   4.650   7.550  0.6161 -1.0104  0.6254
 6159WAT      O26440   4.212   3.311   7.298 -0.7202 -0.0376 -0.1613
 6159WAT     H126441   4.161   3.389   7.321  1.6835  1.8833 -0.9129
 6159WAT     H226442   4.188   3.293   7.207  0.2816  1.2260 -0.7103
 6159WAT    EPW26443   4.202   3.319   7.289 -0.2708  0.3824 -0.3328
 6160WAT      O26444  -2.125  10.164   0.836  0.2427 -0.1196 -0.5465
 6160WAT     H126445  -2.103  10.086   0.887 -2.3465 -1.0498 -0.6958
 6160WAT     H226446  -2.082  10.151   0.752 -0.6537 -1.7427 -0.7937
 6160WAT    EPW26447  -2.117  10.152   0.832 -0.2171 -0.4563 -0.5988
 6161WAT      O26448   4.515   7.967   5.320 -0.1761 -0.2776  0.2114
 6161WAT     H126449   4.585   7.916   5.279  0.6832  1.5122 -0.6799
 6161WAT     H226450   4.550   7.989   5.407  0.2249  0.2854 -0.0857
 6161WAT    EPW26451   4.529   7.963   5.326 -0.0098  0.0324  0.0546
 6162WAT      O26452   4.694   0.025   0.886  0.4218 -0.0152 -0.7892
 6162WAT     H126453   4.654   0.110   0.865 -0.7386 -0.9394 -2.5544
 6162WAT     H226454   4.689  -0.025   0.804 -1.4841 -2.7905  0.8490
 6162WAT    EPW26455   4.688   0.030   0.872  0.0174 -0.5031 -0.8059
 6163WAT      O26456  -1.260   7.637   4.316 -0.8787  0.3976  0.1123
 6163WAT     H126457  -1.309   7.589   4.250 -0.1693 -0.9225  0.5119
 6163WAT     H226458  -1.266   7.583   4.395  1.8062 -0.2269 -0.0153
 6163WAT    EPW26459  -1.267   7.624   4.318 -0.4310  0.1411  0.1483
 6164WAT      O26460   2.871   0.174   2.896  0.2886 -0.3453  0.0261
 6164WAT     H126461   2.812   0.146   2.966 -0.7232 -3.7227 -1.9112
 6164WAT     H226462   2.854   0.268   2.886 -2.3281 -0.5327  1.7679
 6164WAT    EPW26463   2.861   0.183   2.904 -0.1900 -0.8154  0.0002
 6165WAT      O26464  -0.897   5.407   2.634  0.5878  0.1980 -0.1920
 6165WAT     H126465  -0.872   5.323   2.595  0.7040 -1.7507  3.5848
 6165WAT     H226466  -0.990   5.416   2.613  0.0655 -1.9567  0.8946
 6165WAT    EPW26467  -0.906   5.397   2.626  0.5342 -0.3433  0.4494
 6166WAT      O26468   5.999   2.842   1.792 -0.1512  0.1613 -0.6926
 6166WAT     H126469   6.005   2.896   1.870 -0.8982  0.9344 -1.1474
 6166WAT     H226470   5.951   2.896   1.729  1.2976 -0.0531 -2.0387
 6166WAT    EPW26471   5.993   2.856   1.794 -0.0587  0.2351 -0.9301
 6167WAT      O26472   0.255   7.411   8.677 -0.4212  0.2298 -0.3963
 6167WAT     H126473   0.200   7.487   8.655  0.1657 -0.2042 -4.0855
 6167WAT     H226474   0.257   7.360   8.596 -1.5586 -4.3344  2.1218
 6167WAT    EPW26475   0.248   7.414   8.663 -0.4938 -0.4294 -0.5512
 6168WAT      O26476  -1.183   7.513   5.578 -0.1798  0.1898  0.3176
 6168WAT     H126477  -1.109   7.460   5.547  0.2550  1.2390 -0.4952
 6168WAT     H226478  -1.254   7.493   5.517 -0.0139  0.5602  0.0068
 6168WAT    EPW26479  -1.182   7.503   5.566 -0.1006  0.3769  0.1695
 6169WAT      O26480   0.110   3.220   4.901  0.7608 -0.2922  0.8436
 6169WAT     H126481   0.146   3.249   4.818  1.3575 -1.6625  0.5855
 6169WAT     H226482   0.047   3.287   4.926 -1.2357 -0.9918 -1.9026
 6169WAT    EPW26483   0.107   3.232   4.894  0.5762 -0.5652  0.4475
 6170WAT      O26484  -4.707   1.310   8.252 -0.8694 -0.2668 -0.2730
 6170WAT     H126485  -4.627   1.321   8.201 -0.1528  1.5725  1.1022
 6170WAT     H226486  -4.742   1.226   8.224  2.2093 -1.7817 -0.0501
 6170WAT    EPW26487  -4.701   1.301   8.242 -0.3688 -0.2241 -0.0625
 6171WAT      O26488  -5.236   4.862   5.959 -1.6854 -0.2575  0.1451
 6171WAT     H126489  -5.308   4.905   6.006 -2.3263 -0.5156 -0.5800
 6171WAT     H226490  -5.280   4.803   5.897 -0.8511 -1.6031  0.7752
 6171WAT    EPW26491  -5.252   4.860   5.957 -1.6599 -0.4690  0.1326
 6172WAT      O26492   2.209   1.343   4.283  0.1039  0.7009 -0.2932
 6172WAT     H126493   2.236   1.254   4.305 -1.5624 -0.2358 -1.7406
 6172WAT     H226494   2.277   1.375   4.224  0.3214  0.0858 -0.3753
 6172WAT    EPW26495   2.222   1.336   4.278 -0.0873  0.4962 -0.4947
 6173WAT      O26496  -1.110   5.354   5.730  0.0440  0.8294 -0.6368
 6173WAT     H126497  -1.180   5.305   5.773 -0.8981  1.3592 -1.5219
 6173WAT     H226498  -1.152   5.397   5.655  1.3726  0.9511 -1.3560
 6173WAT    EPW26499  -1.125   5.353   5.726  0.0950  0.9155 -0.8485
 6174WAT      O26500   2.432   7.777   7.314  0.2651 -0.3071 -0.2016
 6174WAT     H126501   2.439   7.814   7.226  0.8494 -1.5401 -0.6827
 6174WAT     H226502   2.394   7.690   7.301  0.2429 -0.4553  0.7775
 6174WAT    EPW26503   2.428   7.771   7.301  0.3393 -0.4892 -0.1359
 6175WAT      O26504   8.422   1.238   0.915  1.3558 -0.2081  0.1992
 6175WAT     H126505   8.338   1.231   0.959  1.1245 -1.1431 -0.3633
 6175WAT     H226506   8.463   1.316   0.953  0.0603  0.5086  0.1700
 6175WAT    EPW26507   8.416   1.248   0.926  1.1544 -0.2369  0.1212
 6176WAT      O26508  -5.162   5.938   6.713  0.1989 -0.0104 -0.5674
 6176WAT     H126509  -5.209   5.934   6.796  0.8773 -0.9714 -0.2200
 6176WAT     H226510  -5.098   5.867   6.717  1.7444  1.2987 -0.9940
 6176WAT    EPW26511  -5.160   5.928   6.724  0.4921  0.0355 -0.5779
 6177WAT      O26512   7.460   0.555   1.899 -0.3132 -0.0508 -0.3833
 6177WAT     H126513   7.549   0.531   1.927  0.8537  1.0732 -2.8347
 6177WAT     H226514   7.417   0.472   1.880  0.0875 -0.6196  1.0484
 6177WAT    EPW26515   7.466   0.541   1.900 -0.1066  0.0224 -0.5177
 6178WAT      O26516   2.213   6.071   8.597  0.7874  0.3172 -0.1675
 6178WAT     H126517   2.143   6.047   8.537  0.0832 -0.2392  0.8405
 6178WAT     H226518   2.288   6.018   8.571  0.4361 -0.0459 -0.4354
 6178WAT    EPW26519   2.214   6.061   8.586  0.6481  0.1960 -0.0701
 6179WAT      O26520   3.772   6.152   1.701 -0.1802 -0.2889  0.4089
 6179WAT     H126521   3.799   6.064   1.675  0.1920  0.1128 -0.6035
 6179WAT     H226522   3.700   6.137   1.763  0.3704 -1.3091  0.8279
 6179WAT    EPW26523   3.766   6.138   1.705 -0.0585 -0.3705  0.3306
 6180WAT      O26524  -2.655   6.760   8.954 -0.7356  1.3013 -0.3226
 6180WAT     H126525  -2.743   6.728   8.971 -0.4694  0.1213 -1.0657
 6180WAT     H226526  -2.666   6.827   8.887 -0.7808 -1.5685 -3.4628
 6180WAT    EPW26527  -2.668   6.764   8.947 -0.7064  0.7672 -0.8345
 6181WAT      O26528  -3.413   0.879   7.990 -0.8211 -0.1903  0.2557
 6181WAT     H126529  -3.324   0.857   7.964 -0.3097 -1.7425  2.8930
 6181WAT     H226530  -3.460   0.894   7.908  2.0523  1.7189 -1.1890
 6181WAT    EPW26531  -3.408   0.878   7.976 -0.3748 -0.1432  0.4132
 6182WAT      O26532  -2.552   2.717   6.067  0.4662 -0.1536 -0.5085
 6182WAT     H126533  -2.615   2.646   6.065  1.4001 -1.0759  1.1382
 6182WAT     H226534  -2.493   2.696   6.139  1.4755  1.6939 -0.7178
 6182WAT    EPW26535  -2.552   2.705   6.076  0.7224 -0.0316 -0.3190
 6183WAT      O26536   0.986  10.078   2.816 -0.4803  0.4728 -0.3643
 6183WAT     H126537   1.053  10.088   2.884 -1.9266  0.5658  1.1338
 6183WAT     H226538   0.965  10.167   2.789 -0.2786  0.4667 -0.5407
 6183WAT    EPW26539   0.992  10.091   2.822 -0.6444  0.4840 -0.1900
 6184WAT      O26540  -4.928   6.391   7.870 -0.3424 -0.2629 -0.1606
 6184WAT     H126541  -4.928   6.474   7.822 -0.7026 -1.0199 -1.5474
 6184WAT     H226542  -4.997   6.401   7.935 -0.4054  0.5238 -0.3433
 6184WAT    EPW26543  -4.937   6.403   7.872 -0.3984 -0.2587 -0.3674
 6185WAT      O26544   0.599   5.163   0.717 -0.3911 -0.4874 -0.6455
 6185WAT     H126545   0.588   5.099   0.646  0.4800 -0.8458 -0.4657
 6185WAT     H226546   0.541   5.235   0.692  1.9845  0.7331 -3.3126
 6185WAT    EPW26547   0.590   5.164   0.704  0.0372 -0.3736 -0.9736
 6186WAT      O26548  -0.154   3.571   0.511  0.5948  0.1314  0.3080
 6186WAT     H126549  -0.127   3.614   0.592 -0.8997  0.1017  0.8401
 6186WAT     H226550  -0.088   3.598   0.447  0.3924  2.2487  0.9168
 6186WAT    EPW26551  -0.142   3.580   0.513  0.3710  0.4067  0.4584
 6187WAT      O26552   1.484   1.181   2.824  0.2203  0.3199 -0.5628
 6187WAT     H126553   1.498   1.194   2.730  0.1173  0.9834 -0.4926
 6187WAT     H226554   1.471   1.269   2.858  0.4858  0.1014  0.1123
 6187WAT    EPW26555   1.484   1.194   2.816  0.2417  0.3785 -0.4644
 6188WAT      O26556   0.301   7.795   2.153 -0.0630 -0.5970 -0.3289
 6188WAT     H126557   0.276   7.719   2.207 -1.0257 -1.2115 -1.5689
 6188WAT     H226558   0.278   7.769   2.064  2.4635 -0.0433 -1.2314
 6188WAT    EPW26559   0.295   7.781   2.149  0.1432 -0.6049 -0.6115
 6189WAT      O26560  -0.713   8.973   8.690  0.1282 -0.5026 -0.1703
 6189WAT     H126561  -0.788   9.032   8.682  0.9222  0.4898 -0.5294
 6189WAT     H226562  -0.655   9.016   8.752  1.3280 -0.2051 -1.4339
 6189WAT    EPW26563  -0.715   8.986   8.697  0.3912 -0.3328 -0.3848
 6190WAT      O26564   0.281   1.615   6.375 -0.2427 -0.3670 -0.0034
 6190WAT     H126565   0.275   1.544   6.311 -0.1397 -1.5372  1.2563
 6190WAT     H226566   0.345   1.675   6.337  1.4560 -2.0989 -0.0127
 6190WAT    EPW26567   0.288   1.614   6.361 -0.0051 -0.7498  0.1616
 6191WAT      O26568   6.855   0.033   4.653  0.0847  0.4673  0.0672
 6191WAT     H126569   6.843  -0.052   4.696  1.8744  0.2459  0.2438
 6191WAT     H226570   6.893   0.089   4.722  1.1787  0.6763 -0.6732
 6191WAT    EPW26571   6.859   0.029   4.668  0.4652  0.4656 -0.0072
 6192WAT      O26572  -3.243  -0.006   7.331  0.5364 -0.4140 -0.0801
 6192WAT     H126573  -3.156   0.018   7.363 -0.2316  2.2551  0.1604
 6192WAT     H226574  -3.304   0.036   7.391 -0.9149  0.6167 -2.1626
 6192WAT    EPW26575  -3.239   0.002   7.343  0.2437  0.0744 -0.3231
 6193WAT      O26576  -1.306   4.839   2.830 -0.4011 -0.1296  0.2828
 6193WAT     H126577  -1.262   4.809   2.909  1.5750  1.0049 -0.3166
 6193WAT     H226578  -1.380   4.780   2.820 -0.5604 -0.4452  2.8233
 6193WAT    EPW26579  -1.310   4.827   2.839 -0.1615 -0.0217  0.5388
 6194WAT      O26580   4.659   7.496   4.030  0.2453  0.4621 -1.0882
 6194WAT     H126581   4.652   7.560   4.101 -0.7355 -0.3683 -0.4016
 6194WAT     H226582   4.631   7.543   3.952  0.5679  1.1621 -0.7886
 6194WAT    EPW26583   4.655   7.510   4.029  0.1585  0.4449 -0.9580
 6195WAT      O26584   3.252   5.422   7.910  0.0762  0.1771  0.5794
 6195WAT     H126585   3.262   5.387   7.822  2.0530 -0.8302  1.1620
 6195WAT     H226586   3.242   5.517   7.897  0.6898  0.0861 -0.7041
 6195WAT    EPW26587   3.252   5.430   7.897  0.4178  0.0319  0.4871
 6196WAT      O26588   7.986   1.202   3.617 -0.2128 -0.1664 -0.1499
 6196WAT     H126589   7.900   1.178   3.582  0.0979 -1.0901 -0.3219
 6196WAT     H226590   8.019   1.121   3.656 -0.7305  0.8871  2.7404
 6196WAT    EPW26591   7.979   1.188   3.618 -0.2401 -0.1493  0.2086
 6197WAT      O26592  -4.139   8.975   3.630 -0.3816  0.2546  0.3179
 6197WAT     H126593  -4.059   8.982   3.577 -1.2856  0.5437 -1.0557
 6197WAT     H226594  -4.132   9.047   3.692  0.1533  0.6334 -0.1689
 6197WAT    EPW26595  -4.128   8.985   3.631 -0.4303  0.3424  0.0725
 6198WAT      O26596   1.428   7.669   7.352 -0.5329  0.0391  0.5782
 6198WAT     H126597   1.443   7.623   7.434  0.0043 -1.2145 -0.1910
 6198WAT     H226598   1.509   7.658   7.302 -1.2699 -0.2751 -0.6056
 6198WAT    EPW26599   1.440   7.662   7.356 -0.5593 -0.1676  0.3204
 6199WAT      O26600   4.552   1.442   2.862 -0.7063  0.2891  0.1212
 6199WAT     H126601   4.566   1.469   2.772  0.0241  1.2384  0.5039
 6199WAT     H226602   4.463   1.472   2.882  0.4213  3.5066  0.8526
 6199WAT    EPW26603   4.542   1.449   2.853 -0.4611  0.8387  0.2682
 6200WAT      O26604   3.111   0.837   1.096 -0.1817  0.1339  0.4365
 6200WAT     H126605   3.162   0.907   1.137 -0.4736 -0.7110  2.3140
 6200WAT     H226606   3.141   0.757   1.139 -1.7845 -0.5984  0.2468
 6200WAT    EPW26607   3.122   0.835   1.107 -0.4317 -0.0741  0.6591
 6201WAT      O26608  -0.053   9.496   0.352  1.0941  0.7387 -0.2701
 6201WAT     H126609  -0.082   9.538   0.271  0.8490 -0.4636 -0.8262
 6201WAT     H226610  -0.134   9.465   0.393  1.2253  1.2527  0.4007
 6201WAT    EPW26611  -0.068   9.498   0.347  1.0791  0.6475 -0.2550
 6202WAT      O26612   2.104   5.473   5.456 -0.4257  0.2284 -0.0918
 6202WAT     H126613   2.140   5.552   5.416 -1.0201  0.0316 -1.0343
 6202WAT     H226614   2.020   5.460   5.412 -0.9730 -0.1535  1.0341
 6202WAT    EPW26615   2.098   5.482   5.445 -0.5763  0.1519 -0.0675
 6203WAT      O26616   1.235   1.850   8.173 -0.4019  0.5365 -0.0878
 6203WAT     H126617   1.166   1.909   8.140 -0.1712  0.2974 -1.0278
 6203WAT     H226618   1.283   1.903   8.236  1.0173  2.0843 -2.3029
 6203WAT    EPW26619   1.232   1.865   8.177 -0.1844  0.7091 -0.5040
 6204WAT      O26620   4.408   2.349   3.806 -0.5179  0.5749  0.1131
 6204WAT     H126621   4.335   2.297   3.771 -1.6105  2.2594 -0.2624
 6204WAT     H226622   4.373   2.438   3.810  0.8487  1.0770  1.9546
 6204WAT    EPW26623   4.394   2.354   3.802 -0.4816  0.8633  0.3065
 6205WAT      O26624   0.558   4.726   0.089  0.2924 -0.1922 -0.3066
 6205WAT     H126625   0.638   4.741   0.039  0.4126  0.2976  0.0275
 6205WAT     H226626   0.589   4.702   0.177  0.0803 -0.8036 -0.3914
 6205WAT    EPW26627   0.573   4.724   0.094  0.2803 -0.2081 -0.2737
 6206WAT      O26628   5.932   4.576   2.932 -0.7368  0.3184  0.1960
 6206WAT     H126629   5.988   4.610   2.863  1.2190 -2.5993  0.1390
 6206WAT     H226630   5.963   4.620   3.012 -1.1831  1.7051 -0.3672
 6206WAT    EPW26631   5.944   4.586   2.934 -0.5379  0.1163  0.1142
 6207WAT      O26632   5.247   0.161   7.893 -0.2133  0.1704  0.1053
 6207WAT     H126633   5.314   0.093   7.887  0.3327  0.4241  2.3514
 6207WAT     H226634   5.269   0.222   7.823  1.8514  0.1689  0.6752
 6207WAT    EPW26635   5.259   0.160   7.883  0.1311  0.2037  0.4768
 6208WAT      O26636  -1.887   6.582   6.587 -0.0560 -0.2911  0.8179
 6208WAT     H126637  -1.955   6.537   6.537 -0.2996  0.0894  0.8109
 6208WAT     H226638  -1.899   6.552   6.677 -2.3902  2.3167  1.4814
 6208WAT    EPW26639  -1.897   6.572   6.592 -0.3960  0.1030  0.9046
 6209WAT      O26640  -3.744   7.221   7.107 -0.6868  0.0460 -0.3668
 6209WAT     H126641  -3.663   7.270   7.120 -0.7605 -0.0522  0.5532
 6209WAT     H226642  -3.778   7.252   7.023  0.8358 -0.7038 -1.2945
 6209WAT    EPW26643  -3.738   7.232   7.098 -0.4957 -0.0658 -0.3676
 6210WAT      O26644  -4.843   7.305   5.760 -0.8224 -0.4910  0.3450
 6210WAT     H126645  -4.783   7.233   5.778 -0.9280 -0.5547  0.4388
 6210WAT     H226646  -4.893   7.315   5.841 -2.2906 -1.7257 -0.3722
 6210WAT    EPW26647  -4.841   7.297   5.773 -1.0300 -0.6623  0.2627
 6211WAT      O26648   2.042   3.157   2.194  0.9256  0.2824 -0.1030
 6211WAT     H126649   2.090   3.152   2.276  1.2067  0.5511 -0.2462
 6211WAT     H226650   2.001   3.244   2.196 -0.7224 -0.4608  0.6467
 6211WAT    EPW26651   2.043   3.168   2.205  0.7453  0.2198 -0.0230
 6212WAT      O26652  -3.378   5.034   3.763 -0.1715  0.2752  0.0902
 6212WAT     H126653  -3.377   4.982   3.843 -0.0899 -1.2131 -0.8309
 6212WAT     H226654  -3.289   5.069   3.756 -0.0517  0.0410  0.4125
 6212WAT    EPW26655  -3.366   5.032   3.773 -0.1448  0.0482  0.0112
 6213WAT      O26656  -2.304   9.253   2.496 -0.4440 -1.3039 -0.1751
 6213WAT     H126657  -2.384   9.260   2.444  0.6149 -0.7584 -1.8151
 6213WAT     H226658  -2.245   9.319   2.459  0.6209 -1.3595  1.2998
 6213WAT    EPW26659  -2.306   9.263   2.485 -0.1639 -1.2393 -0.1968
 6214WAT      O26660  -3.112   0.560   5.870 -0.0095 -0.7348 -0.3528
 6214WAT     H126661  -3.192   0.508   5.879  1.0209 -2.3382 -0.0127
 6214WAT     H226662  -3.102   0.572   5.776 -0.4722 -0.8322 -0.4164
 6214WAT    EPW26663  -3.121   0.555   5.859  0.0654 -0.9592 -0.3161
 6215WAT      O26664   3.128   1.127   3.121  0.3686  0.5206 -0.5156
 6215WAT     H126665   3.076   1.073   3.181 -0.0016  2.0556  0.6061
 6215WAT     H226666   3.219   1.104   3.141  0.4031  2.6640  2.4222
 6215WAT    EPW26667   3.133   1.117   3.132  0.3244  1.0057  0.0198
 6216WAT      O26668   2.405   5.268   7.710  0.2697 -0.5969 -0.1004
 6216WAT     H126669   2.323   5.316   7.723  1.4780  1.2388  1.3953
 6216WAT     H226670   2.435   5.249   7.799  1.6941 -0.7950 -0.6055
 6216WAT    EPW26671   2.398   5.272   7.723  0.6170 -0.3810  0.0305
 6217WAT      O26672   4.483   3.179   2.684 -0.2863  0.1867 -0.0621
 6217WAT     H126673   4.393   3.156   2.707 -0.4331 -1.4486 -2.0101
 6217WAT     H226674   4.534   3.100   2.701  0.4041  0.4450 -0.8277
 6217WAT    EPW26675   4.478   3.166   2.689 -0.2143  0.0050 -0.4200
 6218WAT      O26676  -1.294   5.435   8.583  0.0237  0.4738  0.1930
 6218WAT     H126677  -1.377   5.443   8.535  0.8531 -1.8168 -1.8539
 6218WAT     H226678  -1.302   5.353   8.631  0.4962  1.0816  1.3277
 6218WAT    EPW26679  -1.306   5.425   8.583  0.1954  0.2518  0.0725
 6219WAT      O26680  -1.011   9.462   7.453  0.5430  0.4089 -0.3838
 6219WAT     H126681  -1.075   9.533   7.447  0.7822  0.6370 -0.2607
 6219WAT     H226682  -1.050   9.389   7.404  0.1660  0.5292 -0.2595
 6219WAT    EPW26683  -1.024   9.461   7.445  0.5249  0.4549 -0.3512
 6220WAT      O26684  -1.372   3.046   7.975 -0.5269  0.4241 -1.0994
 6220WAT     H126685  -1.342   2.975   7.919  2.1399  0.4065  0.2202
 6220WAT     H226686  -1.330   3.124   7.940 -2.4465  1.2260 -1.7788
 6220WAT    EPW26687  -1.362   3.047   7.963 -0.4283  0.5276 -1.0149
 6221WAT      O26688   5.454   8.591   2.437 -0.7687  0.0366 -0.1530
 6221WAT     H126689   5.387   8.655   2.461 -0.3239  1.3347 -2.1126
 6221WAT     H226690   5.405   8.510   2.422 -1.7060  0.5778 -0.1041
 6221WAT    EPW26691   5.439   8.589   2.438 -0.8337  0.2794 -0.4050
 6222WAT      O26692   0.506   7.939   5.465  0.2188 -0.0064  0.0287
 6222WAT     H126693   0.504   7.975   5.376 -1.7758 -0.1361 -0.0398
 6222WAT     H226694   0.489   8.015   5.521  0.5271 -0.0810  0.2202
 6222WAT    EPW26695   0.503   7.954   5.460 -0.0036 -0.0334  0.0451
 6223WAT      O26696  -2.649   8.844   0.480 -0.1730 -0.1171 -0.2099
 6223WAT     H126697  -2.739   8.819   0.462 -1.5508  2.4044  2.3299
 6223WAT     H226698  -2.625   8.902   0.407 -1.7002  1.4265  0.4414
 6223WAT    EPW26699  -2.657   8.848   0.468 -0.5561  0.4191  0.2110
 6224WAT      O26700  -1.716   8.704   6.153  0.2794  0.0686 -0.0903
 6224WAT     H126701  -1.770   8.684   6.077  0.8855  0.4825 -0.6458
 6224WAT     H226702  -1.778   8.724   6.222 -0.3477 -2.5648  0.2082
 6224WAT    EPW26703  -1.731   8.704   6.152  0.2766 -0.2236 -0.1242
 6225WAT      O26704   6.526   2.624   3.800  0.3715  0.0689 -0.7491
 6225WAT     H126705   6.591   2.553   3.804  0.6758  0.3875  0.8731
 6225WAT     H226706   6.445   2.585   3.832  0.5017  0.4028  0.0033
 6225WAT    EPW26707   6.524   2.609   3.805  0.4289  0.1550 -0.4358
 6226WAT      O26708   3.503   3.363   5.346 -0.6262 -0.6759 -0.5997
 6226WAT     H126709   3.418   3.399   5.321 -0.7016 -0.9271 -0.7055
 6226WAT     H226710   3.553   3.439   5.375 -0.8186 -0.4990 -0.7266
 6226WAT    EPW26711   3.498   3.378   5.347 -0.6616 -0.6858 -0.6304
 6227WAT      O26712  -0.311   9.706   5.323 -0.3383 -0.3009  0.2299
 6227WAT     H126713  -0.289   9.756   5.402 -0.1598  0.6889 -0.4207
 6227WAT     H226714  -0.352   9.627   5.355  0.4006 -0.2532  1.3412
 6227WAT    EPW26715  -0.314   9.702   5.338 -0.2173 -0.1636  0.2906
 6228WAT      O26716   2.093   5.273   3.835  0.0436 -0.1469 -0.3404
 6228WAT     H126717   2.145   5.350   3.856 -0.2056  0.7137 -2.5586
 6228WAT     H226718   2.119   5.251   3.745 -2.1099 -0.7811 -0.8737
 6228WAT    EPW26719   2.104   5.280   3.826 -0.2732 -0.1171 -0.7035
 6229WAT      O26720   2.006   9.370   4.988  0.1648  0.3428  0.0872
 6229WAT     H126721   2.077   9.308   4.974 -0.6896 -0.4985 -0.7165
 6229WAT     H226722   1.928   9.324   4.958 -0.9961  0.5939  2.4318
 6229WAT    EPW26723   2.005   9.356   4.982 -0.1010  0.2646  0.2906
 6230WAT      O26724   5.754   4.365   1.522  0.0761  0.1915  0.0295
 6230WAT     H126725   5.794   4.416   1.593  2.0037  2.0041 -2.2148
 6230WAT     H226726   5.662   4.390   1.522 -0.1418 -0.3858  2.2589
 6230WAT    EPW26727   5.747   4.375   1.532  0.3016  0.3543  0.0275
 6231WAT      O26728  -0.863   5.037   4.133  0.4871  0.4439  0.0467
 6231WAT     H126729  -0.880   4.977   4.061 -0.9999 -0.0469  0.7721
 6231WAT     H226730  -0.824   5.114   4.091 -4.0097  1.9432 -1.9916
 6231WAT    EPW26731  -0.860   5.040   4.118 -0.3022  0.5767 -0.1264
 6232WAT      O26732  -1.690   8.153   7.751  0.7966  0.3971  0.0593
 6232WAT     H126733  -1.696   8.187   7.662  1.4644  1.7330  0.4943
 6232WAT     H226734  -1.778   8.165   7.787  0.8767  1.1425  0.0147
 6232WAT    EPW26735  -1.702   8.159   7.744  0.8953  0.6714  0.1109
 6233WAT      O26736  -1.833   5.173   7.434 -0.3756  0.4286 -0.3756
 6233WAT     H126737  -1.846   5.113   7.361 -2.5423  0.1216  0.1964
 6233WAT     H226738  -1.900   5.240   7.422 -0.3730  0.6980  0.9886
 6233WAT    EPW26739  -1.843   5.174   7.423 -0.6610  0.4237 -0.1204
 6234WAT      O26740   2.436   2.164   5.259 -0.2299  0.1490 -0.1920
 6234WAT     H126741   2.503   2.121   5.312  1.8981  2.2480 -1.0151
 6234WAT     H226742   2.450   2.131   5.171 -2.3270 -1.6562  0.0649
 6234WAT    EPW26743   2.447   2.154   5.255 -0.2258  0.1878 -0.2666
 6235WAT      O26744  -1.341  10.355   1.127  0.0886  0.1351  0.1021
 6235WAT     H126745  -1.362  10.313   1.210  0.2893 -0.0453  0.0614
 6235WAT     H226746  -1.296  10.436   1.152 -1.5673  1.0630  0.2278
 6235WAT    EPW26747  -1.338  10.360   1.141 -0.1034  0.2337  0.1133
 6236WAT      O26748   3.307   3.494   8.741  0.3407 -0.1455  0.3728
 6236WAT     H126749   3.239   3.562   8.747  0.4907 -0.0532  1.1714
 6236WAT     H226750   3.314   3.461   8.830  0.0751 -1.4157 -0.0623
 6236WAT    EPW26751   3.299   3.499   8.754  0.3254 -0.3009  0.4210
 6237WAT      O26752   2.360   8.789   4.897 -0.0896  0.4346 -0.1517
 6237WAT     H126753   2.268   8.782   4.872  0.3779 -0.5274 -1.7004
 6237WAT     H226754   2.387   8.700   4.916  0.6617  0.6391 -0.2070
 6237WAT    EPW26755   2.352   8.777   4.896  0.0712  0.3347 -0.3631
 6238WAT      O26756   0.538   4.414   5.510 -0.9324 -0.6383 -0.5802
 6238WAT     H126757   0.478   4.349   5.546 -0.8522 -0.9819 -1.0605
 6238WAT     H226758   0.545   4.391   5.417 -0.5377 -0.2282 -0.6537
 6238WAT    EPW26759   0.531   4.402   5.503 -0.8698 -0.6294 -0.6535
 6239WAT      O26760   6.764   0.989   0.434  1.0007 -0.1479 -1.0677
 6239WAT     H126761   6.789   1.067   0.483  1.3950  0.9190 -2.8864
 6239WAT     H226762   6.838   0.929   0.444 -0.2596 -1.3967  2.3282
 6239WAT    EPW26763   6.777   0.991   0.441  0.8864 -0.1719 -0.8597
 6240WAT      O26764  -1.400   5.380   4.384 -0.4332  0.3262  0.2319
 6240WAT     H126765  -1.313   5.418   4.371 -0.0103  0.2530  2.4207
 6240WAT     H226766  -1.460   5.454   4.370 -0.1182  0.2196 -1.9737
 6240WAT    EPW26767  -1.397   5.395   4.381 -0.3359  0.3026  0.2298
 6241WAT      O26768   1.796   4.023   5.233 -0.5119 -0.3072  0.2202
 6241WAT     H126769   1.808   4.066   5.318 -0.7123  0.9330 -0.3600
 6241WAT     H226770   1.712   3.979   5.240 -0.5497 -0.1733  0.6515
 6241WAT    EPW26771   1.787   4.023   5.245 -0.5433 -0.1261  0.2003
 6242WAT      O26772  -1.807   4.950   8.304 -0.5287 -0.8959 -0.5337
 6242WAT     H126773  -1.897   4.956   8.338 -0.1482  3.7104  0.3551
 6242WAT     H226774  -1.817   4.958   8.210 -1.1254  1.1399 -0.3515
 6242WAT    EPW26775  -1.820   4.952   8.296 -0.5572 -0.0196 -0.3924
 6243WAT      O26776  -0.181   3.373   3.872  0.2975  0.2510  0.1839
 6243WAT     H126777  -0.183   3.443   3.807 -2.1479 -0.4273 -0.5788
 6243WAT     H226778  -0.114   3.313   3.840  0.5304  0.9137 -0.6136
 6243WAT    EPW26779  -0.172   3.374   3.859  0.0057  0.2489 -0.0219
 6244WAT      O26780   1.492   1.751   3.189  0.3990 -0.6698 -0.0743
 6244WAT     H126781   1.583   1.780   3.194 -0.1339  1.0403  0.4013
 6244WAT     H226782   1.475   1.744   3.095  0.0875  2.3822 -0.3644
 6244WAT    EPW26783   1.502   1.754   3.177  0.2877 -0.0417 -0.0498
 6245WAT      O26784  -2.601   6.823   6.852  0.3285 -0.2920  0.2728
 6245WAT     H126785  -2.560   6.864   6.929  1.9924 -1.4940  0.0926
 6245WAT     H226786  -2.594   6.729   6.869 -3.0931 -0.6098  0.5319
 6245WAT    EPW26787  -2.594   6.816   6.865  0.0967 -0.4926  0.2832
 6246WAT      O26788   1.496   8.891   0.194 -0.3920  0.1354 -0.1360
 6246WAT     H126789   1.587   8.916   0.177 -0.1167 -0.6295  0.1825
 6246WAT     H226790   1.502   8.826   0.263 -1.2148  0.3295  0.1228
 6246WAT    EPW26791   1.509   8.886   0.201 -0.4642  0.0601 -0.0599
 6247WAT      O26792   0.758   0.894   1.065 -0.4550 -0.1361  0.4481
 6247WAT     H126793   0.839   0.918   1.020 -0.7501 -0.9098 -0.5297
 6247WAT     H226794   0.750   0.799   1.052 -2.2796  0.1411 -0.7963
 6247WAT    EPW26795   0.768   0.885   1.057 -0.7346 -0.2016  0.1550
 6248WAT      O26796   0.939   3.395   5.712 -0.1114  0.3197  0.2948
 6248WAT     H126797   0.973   3.397   5.622 -3.4045 -0.3354 -1.1278
 6248WAT     H226798   0.932   3.302   5.733  0.2360  0.4631  1.0671
 6248WAT    EPW26799   0.942   3.383   5.703 -0.4999  0.2521  0.2091
 6249WAT      O26800   3.170   0.901   3.955  0.3411 -0.1520 -0.0495
 6249WAT     H126801   3.165   0.994   3.932  2.5628  0.3083  0.9881
 6249WAT     H226802   3.105   0.859   3.899  1.2717  1.6443 -2.7425
 6249WAT    EPW26803   3.161   0.908   3.944  0.7569  0.1456 -0.2679
 6250WAT      O26804  -2.007   3.743   2.499  0.9548 -0.4530  0.9439
 6250WAT     H126805  -2.021   3.808   2.568  0.7368  0.1644  0.3237
 6250WAT     H226806  -2.091   3.697   2.491  0.0743  1.3437 -0.8132
 6250WAT    EPW26807  -2.020   3.745   2.507  0.8099 -0.1345  0.6304
 6251WAT      O26808   1.816   0.612   2.195  0.5057 -0.2104 -0.2628
 6251WAT     H126809   1.909   0.594   2.178  1.1022  1.1185  1.3392
 6251WAT     H226810   1.814   0.647   2.284 -1.5416 -0.1355 -0.2906
 6251WAT    EPW26811   1.828   0.614   2.204  0.3143 -0.0252 -0.0553
 6252WAT      O26812   3.592   6.115   4.196 -0.4106 -0.1358  0.2314
 6252WAT     H126813   3.672   6.063   4.189 -0.7455 -0.7234  0.7034
 6252WAT     H226814   3.595   6.173   4.120 -0.1399 -0.9918 -0.4316
 6252WAT    EPW26815   3.603   6.116   4.185 -0.4191 -0.3262  0.2062
 6253WAT      O26816   3.337   7.750   5.959 -0.1937  0.1036  0.5662
 6253WAT     H126817   3.282   7.708   6.026  0.7655 -0.8424  0.7882
 6253WAT     H226818   3.417   7.773   6.005 -0.4699  1.6759  0.2908
 6253WAT    EPW26819   3.340   7.747   5.974 -0.1037  0.1860  0.5593
 6254WAT      O26820   4.607   1.532   3.605 -0.4906 -0.1551  0.0038
 6254WAT     H126821   4.582   1.610   3.654  1.0373  1.1571 -1.1896
 6254WAT     H226822   4.570   1.546   3.518  1.0759 -0.0049 -0.6648
 6254WAT    EPW26823   4.599   1.544   3.600 -0.0825  0.0378 -0.2418
 6255WAT      O26824   4.583   0.245   7.330  0.2357 -0.7939 -0.0531
 6255WAT     H126825   4.660   0.199   7.364  1.3984  0.2494 -1.1609
 6255WAT     H226826   4.605   0.264   7.239 -1.8498 -1.5313 -0.7898
 6255WAT    EPW26827   4.596   0.242   7.322  0.1142 -0.7535 -0.2964
 6256WAT      O26828   1.547   4.354   1.808  0.4039 -0.9354  0.4214
 6256WAT     H126829   1.486   4.314   1.869  0.6478 -0.8081  0.7519
 6256WAT     H226830   1.522   4.446   1.807  0.2770 -0.9724  0.1816
 6256WAT    EPW26831   1.536   4.361   1.816  0.4194 -0.9234  0.4334
 6257WAT      O26832   4.708   2.227   6.205  0.2493 -0.3269 -0.4053
 6257WAT     H126833   4.723   2.310   6.251  2.2646 -0.5872 -0.5041
 6257WAT     H226834   4.786   2.176   6.222 -0.4649 -1.7824 -1.2988
 6257WAT    EPW26835   4.720   2.232   6.213  0.4208 -0.5533 -0.5360
 6258WAT      O26836  -0.177   2.653   1.380 -0.8164 -0.0486  0.1333
 6258WAT     H126837  -0.273   2.656   1.382 -0.8327  3.2293  0.1194
 6258WAT     H226838  -0.151   2.674   1.470 -0.1956  1.2973 -0.3286
 6258WAT    EPW26839  -0.186   2.657   1.392 -0.7367  0.5612  0.0706
 6259WAT      O26840  -3.131   7.531   8.871  0.2384  0.4342  0.4596
 6259WAT     H126841  -3.218   7.570   8.879 -1.8563 -3.9446  2.0377
 6259WAT     H226842  -3.136   7.477   8.793  0.8806 -1.2548  1.5418
 6259WAT    EPW26843  -3.143   7.529   8.862  0.0468 -0.3660  0.8106
 6260WAT      O26844  -2.689   6.084   7.648  0.6589 -0.7768  0.0650
 6260WAT     H126845  -2.666   6.171   7.681  2.9577 -1.5333  0.6250
 6260WAT     H226846  -2.655   6.082   7.558 -1.4683 -0.3355 -0.8021
 6260WAT    EPW26847  -2.681   6.095   7.640  0.6815 -0.8183  0.0246
 6261WAT      O26848  -1.232  10.100   4.594  0.3766 -0.5596  0.1090
 6261WAT     H126849  -1.305  10.157   4.569 -1.9803 -3.0184  0.9226
 6261WAT     H226850  -1.193  10.143   4.670  1.7854  2.2521 -1.9869
 6261WAT    EPW26851  -1.236  10.113   4.601  0.2516 -0.5131 -0.0603
 6262WAT      O26852  -3.780   5.968   2.913 -0.0794 -0.1181 -0.0642
 6262WAT     H126853  -3.761   5.980   3.006 -0.3963  3.9731 -0.3766
 6262WAT     H226854  -3.842   6.038   2.891 -0.7288 -1.4742 -3.2106
 6262WAT    EPW26855  -3.786   5.979   2.922 -0.2069  0.2425 -0.5203
 6263WAT      O26856   1.734   4.968   0.205 -0.7542  0.0957  0.1670
 6263WAT     H126857   1.757   4.927   0.288  1.3896 -1.0627 -0.9333
 6263WAT     H226858   1.816   5.004   0.172 -1.1232 -1.1269 -2.3183
 6263WAT    EPW26859   1.747   4.967   0.211 -0.5201 -0.2184 -0.3059
 6264WAT      O26860  -2.645   3.747   3.702 -0.3229  0.3994  0.3132
 6264WAT     H126861  -2.676   3.658   3.685  1.3229 -0.6474  2.2846
 6264WAT     H226862  -2.556   3.735   3.736 -0.9403  2.6091  3.0734
 6264WAT    EPW26863  -2.637   3.734   3.704 -0.1873  0.5528  0.9372
 6265WAT      O26864  -4.220   8.469   5.305  0.0151 -0.3713  1.0363
 6265WAT     H126865  -4.257   8.468   5.394 -1.0216 -0.7053  0.6196
 6265WAT     H226866  -4.252   8.550   5.266  1.3846  0.3380  1.3121
 6265WAT    EPW26867  -4.229   8.479   5.312  0.0589 -0.3219  1.0176
 6266WAT      O26868   4.973   7.208   4.096 -0.1479 -0.2923  0.0376
 6266WAT     H126869   4.945   7.162   4.017  0.1129  0.7138 -0.6635
 6266WAT     H226870   5.051   7.161   4.125 -0.6773 -1.1212  0.1297
 6266WAT    EPW26871   4.979   7.196   4.090 -0.1833 -0.2692 -0.0429
 6267WAT      O26872  -0.687   3.275   2.560 -0.3803  0.1711 -0.1833
 6267WAT     H126873  -0.615   3.327   2.597 -0.5025  1.9122 -2.1723
 6267WAT     H226874  -0.674   3.281   2.465 -2.2728 -0.8115 -0.5509
 6267WAT    EPW26875  -0.676   3.283   2.552 -0.6461  0.2711 -0.4941
 6268WAT      O26876  -3.722   5.255   3.278 -0.0827  0.2015 -0.2203
 6268WAT     H126877  -3.753   5.238   3.189  1.0554 -0.8283 -0.4301
 6268WAT     H226878  -3.633   5.222   3.280  0.2282  1.0287  1.0549
 6268WAT    EPW26879  -3.714   5.249   3.266  0.1085  0.1748 -0.0798
 6269WAT      O26880   6.543   8.441   1.220  0.5504  0.3646 -0.4052
 6269WAT     H126881   6.598   8.513   1.252 -0.3851  0.5633  0.8136
 6269WAT     H226882   6.514   8.470   1.134 -1.8179  2.6403  1.0222
 6269WAT    EPW26883   6.546   8.454   1.213  0.1144  0.6909 -0.0561
 6270WAT      O26884  -4.722   4.218   8.958 -0.1953 -0.1716 -0.1379
 6270WAT     H126885  -4.712   4.127   8.928 -1.2448 -1.4161  2.7803
 6270WAT     H226886  -4.680   4.218   9.044 -1.4731  1.7027  0.5418
 6270WAT    EPW26887  -4.715   4.206   8.966 -0.5023 -0.0887  0.3366
 6271WAT      O26888   5.443   3.565   5.172  0.3646 -0.2245  0.3040
 6271WAT     H126889   5.416   3.654   5.148  0.6603  0.0144  0.8289
 6271WAT     H226890   5.504   3.578   5.245  0.8023 -0.8362  0.0470
 6271WAT    EPW26891   5.447   3.579   5.179  0.4616 -0.2737  0.3395
 6272WAT      O26892   0.252   4.756   0.423  0.0278 -0.4449 -0.5026
 6272WAT     H126893   0.249   4.811   0.502  2.7416 -0.0414 -0.5735
 6272WAT     H226894   0.202   4.678   0.446 -0.2377  0.1861  1.2025
 6272WAT    EPW26895   0.245   4.753   0.437  0.3507 -0.3085 -0.2870
 6273WAT      O26896  -3.575   9.819   1.487  0.4145  0.1475  0.7356
 6273WAT     H126897  -3.616   9.899   1.456 -0.6215 -0.4052  0.6453
 6273WAT     H226898  -3.501   9.848   1.540  1.7755  1.1603 -1.5288
 6273WAT    EPW26899  -3.570   9.833   1.490  0.4574  0.2079  0.4250
 6274WAT      O26900  -0.710   9.271   5.398 -0.0801  1.0743 -0.5138
 6274WAT     H126901  -0.769   9.250   5.471  1.0185  2.1802  0.7440
 6274WAT     H226902  -0.693   9.187   5.356 -2.2840  0.6758 -0.7472
 6274WAT    EPW26903  -0.715   9.258   5.402 -0.2259  1.1673 -0.3786
 6275WAT      O26904  -4.888   3.201   6.190 -0.0098  0.5500 -0.1433
 6275WAT     H126905  -4.904   3.169   6.279  1.1285 -3.4949 -1.1883
 6275WAT     H226906  -4.794   3.220   6.189 -0.0188  0.5680 -0.5099
 6275WAT    EPW26907  -4.878   3.200   6.202  0.1392  0.0188 -0.3295
 6276WAT      O26908   2.162   1.716   5.640  0.4791  0.0611 -0.1764
 6276WAT     H126909   2.131   1.791   5.691 -0.2387 -0.2401 -0.1684
 6276WAT     H226910   2.211   1.755   5.567 -0.7584  0.5796 -0.7471
 6276WAT    EPW26911   2.164   1.731   5.637  0.2211  0.0898 -0.2508
 6277WAT      O26912  -0.396   5.696   0.235 -0.3017  0.3906 -0.8637
 6277WAT     H126913  -0.464   5.732   0.292 -0.0816  2.4643 -1.8065
 6277WAT     H226914  -0.400   5.602   0.249  0.9270  0.7545  3.9775
 6277WAT    EPW26915  -0.405   5.689   0.244 -0.1106  0.7122 -0.3495
 6278WAT      O26916   5.952   1.211   5.957  0.1098  0.3890  0.1758
 6278WAT     H126917   5.993   1.243   6.037 -2.0388 -0.2682  1.6168
 6278WAT     H226918   5.925   1.122   5.978 -1.4830  0.5828 -0.9059
 6278WAT    EPW26919   5.954   1.203   5.970 -0.3839  0.3279  0.2232
 6279WAT      O26920  -4.211  10.318   1.591  0.2991  0.2849 -0.2296
 6279WAT     H126921  -4.228  10.391   1.531  0.0568  2.3181  2.1563
 6279WAT     H226922  -4.134  10.347   1.641 -0.9977 -0.1223  2.1385
 6279WAT    EPW26923  -4.203  10.332   1.589  0.0963  0.4992  0.3974
 6280WAT      O26924   2.203   7.348   7.371  0.4259  0.4575  0.2425
 6280WAT     H126925   2.230   7.401   7.296  0.8855  0.0936  0.1468
 6280WAT     H226926   2.285   7.322   7.413  0.1667  0.9849  1.1074
 6280WAT    EPW26927   2.217   7.352   7.367  0.4524  0.4792  0.3438
 6281WAT      O26928  -4.657   0.430   7.816  0.4082 -0.7140 -0.4260
 6281WAT     H126929  -4.600   0.395   7.748  3.3197  1.3418  0.7331
 6281WAT     H226930  -4.601   0.491   7.864 -2.5811  0.7453  1.4649
 6281WAT    EPW26931  -4.642   0.433   7.814  0.3979 -0.2504 -0.0238
 6282WAT      O26932   0.706   8.413   4.838 -0.0571  0.0435 -0.0911
 6282WAT     H126933   0.719   8.419   4.743  1.0747  3.5162  0.1243
 6282WAT     H226934   0.611   8.409   4.849 -0.1977 -0.6627 -1.3498
 6282WAT    EPW26935   0.696   8.414   4.827  0.0737  0.4086 -0.2289
 6283WAT      O26936   5.520   5.121   4.239 -0.4399 -0.2705  0.3392
 6283WAT     H126937   5.582   5.154   4.175  0.9137 -0.4707  1.4902
 6283WAT     H226938   5.547   5.030   4.253 -3.7141 -1.8604 -2.3344
 6283WAT    EPW26939   5.532   5.113   4.233 -0.6931 -0.5066  0.1385
 6284WAT      O26940   1.087   6.944   8.478  0.4823 -0.0464 -0.4306
 6284WAT     H126941   1.139   6.891   8.539  0.6996 -0.6883 -1.1607
 6284WAT     H226942   1.137   7.025   8.468  0.1002  0.3529  0.7690
 6284WAT    EPW26943   1.101   6.947   8.485  0.4606 -0.0782 -0.3686
 6285WAT      O26944  -0.045   3.752   5.842 -0.1413  0.2827 -0.1287
 6285WAT     H126945  -0.069   3.690   5.911 -0.2165  0.6652  0.1887
 6285WAT     H226946  -0.128   3.792   5.816 -0.0193  0.6503  0.0486
 6285WAT    EPW26947  -0.059   3.749   5.848 -0.1351  0.3816 -0.0634
 6286WAT      O26948   6.489   1.080   1.088 -0.0691  1.0550  0.3766
 6286WAT     H126949   6.436   1.156   1.067 -1.3359 -0.1815 -1.1255
 6286WAT     H226950   6.573   1.116   1.116 -0.7704  2.9909  0.1125
 6286WAT    EPW26951   6.493   1.094   1.089 -0.3285  1.1473  0.1436
 6287WAT      O26952   0.559   2.589   7.090  0.5613  0.3717 -0.1631
 6287WAT     H126953   0.598   2.533   7.022  0.1868 -0.0540 -0.0282
 6287WAT     H226954   0.635   2.619   7.141  0.6747 -1.0590  0.5571
 6287WAT    EPW26955   0.574   2.586   7.087  0.5269  0.1267 -0.0503
 6288WAT      O26956   5.537   2.285   2.678  0.0009  0.6363  0.9915
 6288WAT     H126957   5.506   2.280   2.769 -0.8705 -1.4068  0.6447
 6288WAT     H226958   5.613   2.228   2.676 -1.9907 -2.2131 -0.2135
 6288WAT    EPW26959   5.543   2.277   2.690 -0.3767 -0.0089  0.7868
 6289WAT      O26960   3.948   3.579   6.766  0.2954  0.1741 -0.2853
 6289WAT     H126961   3.896   3.657   6.781  2.7219  1.7644  0.3972
 6289WAT     H226962   3.988   3.561   6.851 -0.3457 -1.9770 -0.3743
 6289WAT    EPW26963   3.946   3.587   6.780  0.5310  0.1000 -0.2069
 6290WAT      O26964  -2.985   4.243   7.208  0.6548  0.2325 -0.2744
 6290WAT     H126965  -2.985   4.327   7.162  1.2177  0.7497  0.6293
 6290WAT     H226966  -2.975   4.178   7.139 -0.0626  0.8816 -1.0167
 6290WAT    EPW26967  -2.984   4.246   7.193  0.6346  0.3862 -0.2530
 6291WAT      O26968   3.598   4.933   0.612  0.2179  0.2067  0.0179
 6291WAT     H126969   3.628   4.990   0.542  0.1533  0.9703  0.6047
 6291WAT     H226970   3.508   4.960   0.628 -1.7394 -3.3833 -3.1394
 6291WAT    EPW26971   3.590   4.944   0.605 -0.0488 -0.1659 -0.3211
 6292WAT      O26972   0.435   4.430   8.531  0.4258  0.2012  0.3906
 6292WAT     H126973   0.370   4.470   8.473  0.2677 -0.1265  0.3364
 6292WAT     H226974   0.507   4.493   8.535 -0.6399  1.4187  1.8823
 6292WAT    EPW26975   0.436   4.443   8.524  0.2644  0.3188  0.5803
 6293WAT      O26976   0.480   0.221   2.926 -0.2550  0.3412 -0.1106
 6293WAT     H126977   0.549   0.253   2.868  1.4129  1.1474  2.1796
 6293WAT     H226978   0.468   0.130   2.901 -1.7370  1.3211 -3.6115
 6293WAT    EPW26979   0.487   0.213   2.915 -0.2305  0.5768 -0.2704
 6294WAT      O26980   5.994   0.913   0.462 -0.6944 -0.1140  0.7330
 6294WAT     H126981   5.921   0.972   0.442  0.4037  0.5925 -1.5264
 6294WAT     H226982   6.046   0.911   0.382  1.5490 -0.9338  2.1115
 6294WAT    EPW26983   5.991   0.921   0.449 -0.2537 -0.1290  0.6168
 6295WAT      O26984   3.431   0.767   2.424  0.5718 -0.0962 -0.7867
 6295WAT     H126985   3.457   0.846   2.377 -0.1892  1.0622  0.6166
 6295WAT     H226986   3.368   0.724   2.366 -0.7824  1.5848 -0.6654
 6295WAT    EPW26987   3.426   0.772   2.411  0.2928  0.2783 -0.5857
 6296WAT      O26988   5.139   3.768   6.068 -0.2719 -0.3016 -0.2206
 6296WAT     H126989   5.183   3.731   6.144 -0.8978  0.5353  0.5765
 6296WAT     H226990   5.095   3.846   6.101 -0.0044  0.4660 -1.5849
 6296WAT    EPW26991   5.139   3.773   6.082 -0.3190 -0.0900 -0.2956
 6297WAT      O26992   6.459   1.269   3.942 -0.2396 -0.4543  0.3697
 6297WAT     H126993   6.532   1.211   3.921 -0.8283 -2.1155  2.4648
 6297WAT     H226994   6.493   1.329   4.008 -0.4612 -0.5016  0.5305
 6297WAT    EPW26995   6.473   1.269   3.948 -0.3467 -0.6797  0.6673
 6298WAT      O26996   5.820   7.013   0.778  0.3556 -0.2197  0.1285
 6298WAT     H126997   5.822   7.079   0.848  1.7099 -0.2467  0.1389
 6298WAT     H226998   5.792   7.062   0.701  1.5236  0.4463  0.0919
 6298WAT    EPW26999   5.817   7.028   0.777  0.6883 -0.1354  0.1251
 6299WAT      O27000   8.202   0.280   1.093 -0.2298 -0.2397  0.5786
 6299WAT     H127001   8.203   0.206   1.032 -0.3588  0.4546 -0.2816
 6299WAT     H227002   8.144   0.251   1.163  0.4407 -1.3069  0.7136
 6299WAT    EPW27003   8.194   0.266   1.094 -0.1583 -0.2889  0.4830
 6300WAT      O27004  -2.036   3.829   5.596  0.1664 -0.1619 -0.3097
 6300WAT     H127005  -2.065   3.758   5.539 -3.1016 -0.3538  1.3804
 6300WAT     H227006  -2.064   3.909   5.553 -0.4623 -0.1883  0.0458
 6300WAT    EPW27007  -2.043   3.830   5.583 -0.3476 -0.1909 -0.0401
 6301WAT      O27008   0.965   5.865   5.379  0.9943  0.1009 -0.4966
 6301WAT     H127009   0.922   5.913   5.308  1.3823  2.0335  0.4890
 6301WAT     H227010   0.893   5.824   5.427  0.8288 -3.2181 -3.1900
 6301WAT    EPW27011   0.950   5.866   5.376  1.0237 -0.0818 -0.7219
 6302WAT      O27012  -4.055   7.674   5.720  0.5263  0.3914 -0.5171
 6302WAT     H127013  -3.971   7.719   5.710  0.4586  0.3908 -1.1653
 6302WAT     H227014  -4.040   7.587   5.684 -0.4064  1.1892 -3.0645
 6302WAT    EPW27015  -4.042   7.669   5.714  0.3943  0.4964 -0.9387
 6303WAT      O27016   1.217   4.668   8.344 -0.4530 -0.0422 -0.7477
 6303WAT     H127017   1.134   4.626   8.321 -0.4048 -0.4730 -0.1742
 6303WAT     H227018   1.198   4.715   8.425 -0.0690 -0.3898 -0.4496
 6303WAT    EPW27019   1.204   4.668   8.352 -0.3960 -0.1450 -0.6328
 6304WAT      O27020   1.775   7.556   4.144  0.2307  0.4488 -0.3176
 6304WAT     H127021   1.721   7.588   4.071 -0.0930 -1.2942 -0.8854
 6304WAT     H227022   1.748   7.609   4.218 -0.2186  1.5302 -1.2254
 6304WAT    EPW27023   1.764   7.567   4.144  0.1287  0.3617 -0.5124
 6305WAT      O27024  -0.053  10.269   5.914 -0.5645  0.4541  0.9820
 6305WAT     H127025  -0.066  10.175   5.923 -1.5861  0.2983 -1.4277
 6305WAT     H227026  -0.141  10.306   5.923 -1.0713  0.6160 -2.9948
 6305WAT    EPW27027  -0.067  10.262   5.917 -0.7661  0.4549  0.1397
 6306WAT      O27028  -4.296   6.559   8.366 -0.6917 -0.0713  0.5171
 6306WAT     H127029  -4.298   6.542   8.272 -1.8345  2.1883  0.0375
 6306WAT     H227030  -4.387   6.549   8.394 -0.3423 -0.8574  1.4389
 6306WAT    EPW27031  -4.309   6.556   8.357 -0.7963  0.1230  0.5751
 6307WAT      O27032   4.333   0.855   4.551 -0.1619  0.1988 -0.6590
 6307WAT     H127033   4.322   0.761   4.565  0.1657  0.5678  3.4517
 6307WAT     H227034   4.401   0.861   4.484 -0.1485 -2.4734 -1.0205
 6307WAT    EPW27035   4.340   0.843   4.544 -0.1168 -0.1049 -0.1645
 6308WAT      O27036   1.831  10.374   7.903 -0.1836  0.0913 -0.6181
 6308WAT     H127037   1.866  10.414   7.982 -0.8274 -1.2026  0.3597
 6308WAT     H227038   1.862  10.283   7.907 -1.4207 -0.3773 -1.0856
 6308WAT    EPW27039   1.840  10.367   7.914 -0.4317 -0.1411 -0.5507
 6309WAT      O27040   1.774   6.615   3.952 -0.6002  0.1113  0.2002
 6309WAT     H127041   1.742   6.694   3.995 -1.5499 -0.9593  1.5522
 6309WAT     H227042   1.704   6.589   3.893 -0.5567 -0.0653  0.2234
 6309WAT    EPW27043   1.761   6.622   3.950 -0.7198 -0.0532  0.3815
 6310WAT      O27044  -4.065   3.943   6.849  0.0554  0.0881  0.5900
 6310WAT     H127045  -4.102   3.952   6.937 -0.9304 -0.5156  0.2553
 6310WAT     H227046  -4.106   3.864   6.814  0.9520 -0.0523 -0.1663
 6310WAT    EPW27047  -4.075   3.934   6.856  0.0436 -0.0100  0.4461
 6311WAT      O27048  -4.850   8.586   8.892 -0.1205  0.0876  0.6750
 6311WAT     H127049  -4.858   8.675   8.928  1.4478  0.3333  0.4730
 6311WAT     H227050  -4.841   8.600   8.797 -1.8296 -0.4276  0.3960
 6311WAT    EPW27051  -4.850   8.600   8.884 -0.1392  0.0525  0.6118
 6312WAT      O27052  -4.727   0.739   8.349  0.2896  0.3768  0.2816
 6312WAT     H127053  -4.731   0.804   8.419 -0.2749  0.6832 -0.0311
 6312WAT     H227054  -4.762   0.659   8.390  0.4656  0.4128  0.5059
 6312WAT    EPW27055  -4.732   0.737   8.364  0.2384  0.4219  0.2699
 6313WAT      O27056   7.199   0.122   5.027  0.9186  0.2720 -0.3307
 6313WAT     H127057   7.136   0.139   5.097  2.1670  1.2467  0.6253
 6313WAT     H227058   7.224   0.209   4.995  2.1402 -0.0438 -0.3191
 6313WAT    EPW27059   7.194   0.136   5.032  1.2443  0.3589 -0.2029
 6314WAT      O27060   1.463   7.298   3.651  0.6143 -0.0561  0.8300
 6314WAT     H127061   1.444   7.207   3.673  0.9984 -0.5029 -0.6059
 6314WAT     H227062   1.377   7.339   3.641  0.2454 -1.3988 -2.9627
 6314WAT    EPW27063   1.449   7.292   3.652  0.6163 -0.2923  0.1404
 6315WAT      O27064  -3.469  10.250   7.819 -0.2170  0.3295 -0.4302
 6315WAT     H127065  -3.448  10.343   7.819 -3.2589  1.1556  0.8349
 6315WAT     H227066  -3.562  10.247   7.845  0.1284 -3.1129  0.9074
 6315WAT    EPW27067  -3.479  10.262   7.823 -0.5727 -0.0153 -0.0868
 6316WAT      O27068   3.955  10.350   1.938  1.0937  0.1730 -0.4556
 6316WAT     H127069   4.039  10.338   1.982  0.5569  1.1238  0.9126
 6316WAT     H227070   3.894  10.299   1.991  0.4785  1.1365 -0.2049
 6316WAT    EPW27071   3.958  10.342   1.951  0.9419  0.4258 -0.2420
 6317WAT      O27072  -1.376   6.244   0.821  0.8142 -0.5832  0.5916
 6317WAT     H127073  -1.346   6.313   0.879 -0.3729  0.3446  0.1457
 6317WAT     H227074  -1.448   6.283   0.771  3.4854 -0.3299 -3.5682
 6317WAT    EPW27075  -1.382   6.258   0.822  1.0099 -0.4275 -0.0159
 6318WAT      O27076   1.581   7.420   6.903 -0.3779 -0.4059 -0.0359
 6318WAT     H127077   1.566   7.327   6.885 -2.2365  0.1635 -1.8806
 6318WAT     H227078   1.493   7.458   6.902  0.3992  1.4799  0.0021
 6318WAT    EPW27079   1.567   7.412   6.900 -0.5206 -0.0820 -0.2742
 6319WAT      O27080   1.277   4.586   0.650  0.7165  0.6072 -1.0001
 6319WAT     H127081   1.340   4.650   0.617  1.0489 -0.9138 -3.6319
 6319WAT     H227082   1.195   4.634   0.656  1.3456  1.7344 -1.0003
 6319WAT    EPW27083   1.275   4.601   0.646  0.8433  0.5550 -1.3472
 6320WAT      O27084  -6.932   7.475   7.454 -0.2393 -0.0644  0.1696
 6320WAT     H127085  -6.852   7.449   7.408 -1.3573 -1.3037 -1.1996
 6320WAT     H227086  -6.970   7.543   7.398 -1.7376 -1.7547 -0.9998
 6320WAT    EPW27087  -6.927   7.481   7.440 -0.5844 -0.4508 -0.1652
 6321WAT      O27088   1.832   1.894   5.157 -0.2458  0.0364  0.0374
 6321WAT     H127089   1.922   1.875   5.130 -0.3934  0.8686 -1.1073
 6321WAT     H227090   1.834   1.888   5.252  1.0878  0.3166  0.0442
 6321WAT    EPW27091   1.844   1.891   5.166 -0.0893  0.1832 -0.1128
 6322WAT      O27092   1.108   3.948   3.500  0.2058 -1.2678 -0.0644
 6322WAT     H127093   1.032   3.934   3.557 -0.5328  0.8290 -0.4636
 6322WAT     H227094   1.101   4.039   3.472  2.2602 -1.3524 -1.0441
 6322WAT    EPW27095   1.097   3.958   3.504  0.3794 -1.0024 -0.2463
 6323WAT      O27096   1.192   4.083   5.254 -0.1714 -0.4427 -0.3710
 6323WAT     H127097   1.134   4.069   5.329  0.5158  0.3222  0.3140
 6323WAT     H227098   1.195   3.998   5.210 -1.0186 -0.7513  0.1521
 6323WAT    EPW27099   1.185   4.070   5.258 -0.1925 -0.3824 -0.2117
 6324WAT      O27100   6.811   5.832   2.969 -0.4452  0.1108 -0.1596
 6324WAT     H127101   6.823   5.924   2.949 -0.7667  0.1280 -0.2763
 6324WAT     H227102   6.887   5.809   3.023 -1.0302  0.7647  0.9597
 6324WAT    EPW27103   6.823   5.841   2.973 -0.5646  0.1993 -0.0274
 6325WAT      O27104  -3.117   2.482   4.887 -0.2566  0.2918  0.1231
 6325WAT     H127105  -3.130   2.562   4.939  0.0833 -1.2452  2.7336
 6325WAT     H227106  -3.200   2.470   4.841 -0.9089  1.2951  0.9814
 6325WAT    EPW27107  -3.130   2.491   4.888 -0.2978  0.2215  0.5805
 6326WAT      O27108  -4.530   0.668   7.332 -0.1833 -0.0518  0.4581
 6326WAT     H127109  -4.527   0.763   7.319  0.4547 -0.0377  0.6535
 6326WAT     H227110  -4.610   0.640   7.288  0.6649  0.3112 -1.4282
 6326WAT    EPW27111  -4.540   0.677   7.325  0.0126 -0.0020  0.2351
 6327WAT      O27112   1.648   8.004   5.201 -0.2398 -0.1388 -0.2677
 6327WAT     H127113   1.713   8.051   5.149  2.5708 -2.5200  0.7884
 6327WAT     H227114   1.601   7.950   5.138  2.5748 -2.3796 -0.6726
 6327WAT    EPW27115   1.650   8.003   5.186  0.5020 -0.7486 -0.1819
 6328WAT      O27116  -1.004   2.324   3.252  0.5351  0.5648  0.6564
 6328WAT     H127117  -0.961   2.331   3.167  0.4187 -1.3651  0.4009
 6328WAT     H227118  -0.978   2.238   3.285 -1.2788  0.2968  1.5232
 6328WAT    EPW27119  -0.995   2.313   3.245  0.2805  0.2749  0.7371
 6329WAT      O27120  -0.206   7.999   0.369 -0.3210  0.0573 -0.6428
 6329WAT     H127121  -0.147   8.049   0.313 -1.2995 -0.0912 -1.8512
 6329WAT     H227122  -0.248   8.065   0.424 -0.3537  0.3710 -1.0395
 6329WAT    EPW27123  -0.204   8.014   0.369 -0.4544  0.0792 -0.8545
 6330WAT      O27124  -2.222   8.595   5.358 -0.1932 -0.4005  0.3604
 6330WAT     H127125  -2.170   8.637   5.426 -1.0684 -1.1291  1.5180
 6330WAT     H227126  -2.158   8.565   5.294  0.7533 -0.6738  1.4105
 6330WAT    EPW27127  -2.207   8.597   5.359 -0.1838 -0.5326  0.6516
 6331WAT      O27128   7.582   5.370   1.197  0.5930 -0.0165 -0.3641
 6331WAT     H127129   7.676   5.355   1.205  0.6122 -0.4351 -1.2183
 6331WAT     H227130   7.574   5.436   1.128  0.3768  2.2708  1.7240
 6331WAT    EPW27131   7.594   5.377   1.189  0.5672  0.2298 -0.2014
 6332WAT      O27132   6.589   0.534   5.309  0.1276  0.5063  0.4261
 6332WAT     H127133   6.573   0.575   5.223  1.8352  2.5800  1.0012
 6332WAT     H227134   6.675   0.566   5.335  0.2909 -1.2488  2.2973
 6332WAT    EPW27135   6.598   0.544   5.301  0.3743  0.5484  0.7489
 6333WAT      O27136  -1.626   9.431   5.108  0.6672  0.9284 -0.4040
 6333WAT     H127137  -1.660   9.387   5.186  0.3471  0.3745 -0.8554
 6333WAT     H227138  -1.584   9.362   5.057 -1.3159  0.7706 -1.9403
 6333WAT    EPW27139  -1.625   9.416   5.112  0.3634  0.8345 -0.6661
 6334WAT      O27140   5.522   5.547   2.171 -0.1540 -0.0756 -0.1782
 6334WAT     H127141   5.564   5.585   2.249 -1.4578  1.2128 -0.0553
 6334WAT     H227142   5.560   5.594   2.098  1.8364 -1.9942 -0.4798
 6334WAT    EPW27143   5.532   5.558   2.172 -0.0634 -0.1588 -0.2018
 6335WAT      O27144   2.460   7.446   6.674  0.4484  0.2428  0.0808
 6335WAT     H127145   2.377   7.417   6.711  1.1455  0.3795  1.8579
 6335WAT     H227146   2.463   7.540   6.691  0.9461  0.2448 -0.0021
 6335WAT    EPW27147   2.450   7.454   6.681  0.6059  0.2611  0.3045
 6336WAT      O27148  -1.045   8.848   6.354  0.1131 -0.0582 -0.1479
 6336WAT     H127149  -0.952   8.866   6.337  0.4101  0.0361  1.4299
 6336WAT     H227150  -1.068   8.907   6.426 -0.5376 -1.6301  1.0078
 6336WAT    EPW27151  -1.036   8.858   6.361  0.0665 -0.2532  0.2127
 6337WAT      O27152  -0.430   4.866   6.003  0.2483 -0.2672  0.5951
 6337WAT     H127153  -0.339   4.837   5.991  0.4091 -0.3104  1.7982
 6337WAT     H227154  -0.480   4.785   6.014 -0.2002 -0.3318 -1.4773
 6337WAT    EPW27155  -0.424   4.852   6.003  0.2103 -0.2816  0.4804
 6338WAT      O27156   2.827   9.612   2.892  0.6178 -0.3387 -0.0093
 6338WAT     H127157   2.892   9.681   2.890 -1.3870  1.6652 -1.1291
 6338WAT     H227158   2.791   9.614   2.981  1.5387 -0.9477  0.3860
 6338WAT    EPW27159   2.831   9.621   2.903  0.4749 -0.1545 -0.1048
 6339WAT      O27160   1.702   0.153   0.944  0.8204 -0.0049  0.4744
 6339WAT     H127161   1.687   0.228   1.002 -1.9389 -0.9757  1.2095
 6339WAT     H227162   1.750   0.189   0.869  0.8059  2.1766  1.4472
 6339WAT    EPW27163   1.706   0.167   0.941  0.4546  0.1548  0.6997
 6340WAT      O27164   8.841   1.592   2.137 -0.1049 -0.3232 -0.4937
 6340WAT     H127165   8.754   1.563   2.108 -0.1860  0.0241 -0.5937
 6340WAT     H227166   8.843   1.685   2.117 -0.3739  0.0601  1.1068
 6340WAT    EPW27167   8.830   1.600   2.130 -0.1512 -0.2269 -0.2958
 6341WAT      O27168   2.804   3.215   0.838 -0.2556  0.2440  0.2047
 6341WAT     H127169   2.879   3.265   0.807  1.1778 -2.0617 -0.3422
 6341WAT     H227170   2.733   3.239   0.778  0.4174  1.4348 -0.1465
 6341WAT    EPW27171   2.805   3.224   0.826  0.0222  0.0969  0.0862
 6342WAT      O27172   5.355   5.848   1.484  0.6418  0.4210  1.0103
 6342WAT     H127173   5.312   5.768   1.512  2.2630 -0.8304  0.1078
 6342WAT     H227174   5.423   5.864   1.549  0.3851  1.0193  1.1384
 6342WAT    EPW27175   5.358   5.840   1.496  0.8218  0.3350  0.9082
 6343WAT      O27176  -2.589   8.118   4.884  0.0513 -0.5939 -0.5331
 6343WAT     H127177  -2.608   8.209   4.863  1.2931  0.2763  1.7617
 6343WAT     H227178  -2.665   8.089   4.935  0.6713 -0.0482  0.7486
 6343WAT    EPW27179  -2.601   8.126   4.888  0.2968 -0.4067 -0.0615
 6344WAT      O27180   0.138   4.704   6.529  0.2031  0.1636 -0.0199
 6344WAT     H127181   0.216   4.759   6.521 -0.8497  1.8607  0.6306
 6344WAT     H227182   0.127   4.664   6.443  1.7465 -0.0767 -0.1241
 6344WAT    EPW27183   0.147   4.706   6.517  0.2678  0.3557  0.0522
 6345WAT      O27184   6.689   8.164   0.285  0.2028  0.1554  0.3906
 6345WAT     H127185   6.672   8.155   0.191  0.4575 -3.1223  0.5616
 6345WAT     H227186   6.781   8.191   0.289  0.8758 -1.8385 -0.3462
 6345WAT    EPW27187   6.699   8.167   0.273  0.3252 -0.5398  0.3160
 6346WAT      O27188   2.613   7.991   1.676 -0.3479 -0.3668  0.3658
 6346WAT     H127189   2.690   7.972   1.730 -0.7990 -0.2356  1.0636
 6346WAT     H227190   2.543   7.939   1.715 -0.3312 -1.5726 -1.0805
 6346WAT    EPW27191   2.614   7.982   1.688 -0.4052 -0.5085  0.2671
 6347WAT      O27192   5.165   6.421   3.665  0.1186  0.0296  0.0659
 6347WAT     H127193   5.146   6.442   3.756 -2.0135  0.8971 -0.5248
 6347WAT     H227194   5.115   6.341   3.648 -0.5764  0.5999 -0.6693
 6347WAT    EPW27195   5.156   6.413   3.674 -0.2544  0.2191 -0.1091
 6348WAT      O27196  -1.310   3.481   2.854  0.1882 -0.1358 -0.4845
 6348WAT     H127197  -1.266   3.415   2.801 -0.4945 -0.5267 -0.5715
 6348WAT     H227198  -1.262   3.562   2.836  2.7788 -1.0487  1.6401
 6348WAT    EPW27199  -1.298   3.483   2.845  0.4398 -0.3079 -0.2158
 6349WAT      O27200   2.864   4.504   1.249  0.6842 -0.5481  0.2338
 6349WAT     H127201   2.825   4.579   1.203  1.0512  0.6939  1.8788
 6349WAT     H227202   2.944   4.485   1.199  1.5435  1.3432  0.7734
 6349WAT    EPW27203   2.869   4.511   1.236  0.8459 -0.1347  0.5220
 6350WAT      O27204  -1.530   1.972   8.705  0.2280  0.0711 -0.9792
 6350WAT     H127205  -1.493   2.051   8.745 -0.9033  0.4167 -0.5728
 6350WAT     H227206  -1.572   2.004   8.625  0.3316 -0.2185 -1.1480
 6350WAT    EPW27207  -1.531   1.987   8.700  0.0925  0.0786 -0.9480
 6351WAT      O27208   2.890   1.501   8.936  0.0955 -0.6193 -0.1651
 6351WAT     H127209   2.890   1.452   8.854 -1.4538  2.0742 -1.9404
 6351WAT     H227210   2.826   1.457   8.992 -1.2880 -0.6173 -1.7019
 6351WAT    EPW27211   2.882   1.489   8.933 -0.2913 -0.2638 -0.6022
 6352WAT      O27212  -5.705   8.024   8.329 -0.2815 -0.3605 -0.3037
 6352WAT     H127213  -5.659   8.032   8.246 -0.7162 -0.8469 -0.5931
 6352WAT     H227214  -5.702   7.930   8.349  0.9351 -0.1214  0.8700
 6352WAT    EPW27215  -5.698   8.012   8.321 -0.1783 -0.3934 -0.1874
 6353WAT      O27216   3.719   1.539   4.890  0.2070  0.6949 -0.0930
 6353WAT     H127217   3.805   1.561   4.853  0.8781  0.1206  1.0744
 6353WAT     H227218   3.714   1.443   4.882 -1.9803  0.8974 -3.6265
 6353WAT    EPW27219   3.730   1.529   4.884  0.0070  0.6459 -0.4051
 6354WAT      O27220   1.394   8.750   7.666  0.1583 -0.1036  0.1473
 6354WAT     H127221   1.394   8.654   7.673  0.2675 -0.0788  0.5225
 6354WAT     H227222   1.397   8.780   7.757 -0.0758  0.2565  0.0371
 6354WAT    EPW27223   1.394   8.741   7.679  0.1418 -0.0529  0.1824
 6355WAT      O27224  -7.153   8.467   8.468  0.4992  0.3397  0.0434
 6355WAT     H127225  -7.216   8.471   8.396  0.0298  2.1784  0.5251
 6355WAT     H227226  -7.068   8.471   8.425  0.4053 -2.6610 -0.6516
 6355WAT    EPW27227  -7.150   8.468   8.453  0.4251  0.1869  0.0153
 6356WAT      O27228  -4.183   2.015   8.171  0.2071 -0.5501  0.5601
 6356WAT     H127229  -4.140   1.952   8.229 -0.3328  0.3697  2.0272
 6356WAT     H227230  -4.267   1.975   8.150  0.0440 -0.5219  1.1339
 6356WAT    EPW27231  -4.188   2.002   8.176  0.1144 -0.4251  0.8297
 6357WAT      O27232  -3.275   5.500   8.770  0.1577  0.1186 -0.2139
 6357WAT     H127233  -3.260   5.469   8.681 -1.3693 -2.7907  0.4364
 6357WAT     H227234  -3.357   5.549   8.765 -1.5958 -2.5761 -0.0264
 6357WAT    EPW27235  -3.284   5.503   8.758 -0.2750 -0.6206 -0.1035
 6358WAT      O27236   4.850   4.742   4.513  0.7721 -0.4681  0.0031
 6358WAT     H127237   4.798   4.682   4.566 -0.4914  1.3218  0.8967
 6358WAT     H227238   4.939   4.707   4.519  1.1242  0.5308  4.8906
 6358WAT    EPW27239   4.855   4.729   4.521  0.6518 -0.1004  0.7656
 6359WAT      O27240  -4.835   9.728   6.173  0.3395  0.5199 -0.3053
 6359WAT     H127241  -4.746   9.729   6.210  0.1942 -0.5850  0.1160
 6359WAT     H227242  -4.892   9.725   6.249 -0.0956  1.8438 -0.5626
 6359WAT    EPW27243  -4.831   9.728   6.188  0.2630  0.5488 -0.2835
 6360WAT      O27244   3.399   1.296   8.170 -0.0833 -0.4036  0.8906
 6360WAT     H127245   3.394   1.387   8.198  0.9817 -0.4475  1.2531
 6360WAT     H227246   3.307   1.268   8.162 -0.4577  1.0919 -0.5574
 6360WAT    EPW27247   3.386   1.304   8.172  0.0079 -0.2121  0.7477
 6361WAT      O27248   0.792   3.848   1.344 -0.3159 -0.5823  0.5466
 6361WAT     H127249   0.805   3.768   1.293 -1.0974  2.0228 -4.4475
 6361WAT     H227250   0.701   3.843   1.373 -0.2773 -1.5761  0.5288
 6361WAT    EPW27251   0.781   3.837   1.341 -0.4138 -0.3698 -0.1144
 6362WAT      O27252   2.676   8.464   3.210  0.3525  0.4528  0.7181
 6362WAT     H127253   2.692   8.558   3.208  1.0506  0.3313 -1.0927
 6362WAT     H227254   2.746   8.429   3.265  1.5556  0.7652 -0.5725
 6362WAT    EPW27255   2.687   8.471   3.217  0.6032  0.4778  0.3090
 6363WAT      O27256  -2.156   6.691   0.140 -0.0572 -0.4098 -0.4672
 6363WAT     H127257  -2.233   6.748   0.132  1.5542  2.6422  2.9825
 6363WAT     H227258  -2.188   6.614   0.187 -1.3083  0.0959 -0.4540
 6363WAT    EPW27259  -2.171   6.689   0.145 -0.0097  0.0594 -0.0104
 6364WAT      O27260   0.922   1.911   1.800 -0.2424  0.4414  0.6006
 6364WAT     H127261   0.982   1.913   1.875 -1.2229 -0.2842  1.4169
 6364WAT     H227262   0.843   1.869   1.833 -1.6122  2.2973 -0.1795
 6364WAT    EPW27263   0.920   1.906   1.814 -0.5524  0.5904  0.6053
 6365WAT      O27264   1.984   5.160   6.964 -0.7518  0.2981  0.3035
 6365WAT     H127265   1.929   5.208   6.903 -0.0820  0.3405 -0.2710
 6365WAT     H227266   2.071   5.163   6.926 -0.2985  0.4383  1.3299
 6365WAT    EPW27267   1.988   5.166   6.951 -0.6037  0.3221  0.3633
 6366WAT      O27268   3.865   9.825   3.467 -0.1206  0.4092  0.4092
 6366WAT     H127269   3.863   9.760   3.397  0.5984 -0.5117  1.2088
 6366WAT     H227270   3.812   9.787   3.536 -1.5634  1.7102  0.0725
 6366WAT    EPW27271   3.858   9.811   3.467 -0.2161  0.4592  0.4703
 6367WAT      O27272   2.405   5.007   2.187 -0.2244 -0.3181 -0.5082
 6367WAT     H127273   2.492   5.010   2.147 -0.9289  3.4825 -2.2115
 6367WAT     H227274   2.345   5.030   2.117 -2.7750 -2.9749  0.5781
 6367WAT    EPW27275   2.409   5.010   2.173 -0.6537 -0.1671 -0.5897
 6368WAT      O27276  -7.195   9.758   8.671 -0.0417 -0.2623 -0.4888
 6368WAT     H127277  -7.126   9.785   8.732 -1.9936  0.8831  1.3460
 6368WAT     H227278  -7.213   9.837   8.619 -0.5577 -0.2874 -0.3520
 6368WAT    EPW27279  -7.188   9.772   8.672 -0.3669 -0.1144 -0.2284
 6369WAT      O27280  -6.578   7.573   6.377  0.3307 -0.3697 -0.2089
 6369WAT     H127281  -6.657   7.613   6.341 -0.0019 -1.9742 -1.3994
 6369WAT     H227282  -6.529   7.646   6.416 -2.4886  0.4782  2.1199
 6369WAT    EPW27283  -6.582   7.588   6.378 -0.0851 -0.4697 -0.0591
 6370WAT      O27284  -0.425   7.510   0.286  0.2476  0.5480  0.3918
 6370WAT     H127285  -0.347   7.469   0.249  0.7430  1.2781  0.5960
 6370WAT     H227286  -0.473   7.544   0.211  0.1076  0.0841  0.2652
 6370WAT    EPW27287  -0.421   7.509   0.271  0.2945  0.5829  0.4020
 6371WAT      O27288   0.623   0.420   3.120  0.5044 -0.3732  0.4005
 6371WAT     H127289   0.594   0.340   3.077 -0.6087  0.0827  0.2848
 6371WAT     H227290   0.574   0.422   3.202  2.2809 -1.0161  1.5508
 6371WAT    EPW27291   0.613   0.409   3.125  0.5919 -0.3979  0.5370
 6372WAT      O27292  -3.467   4.599   6.965  0.2936 -0.1877  0.2631
 6372WAT     H127293  -3.442   4.512   6.997 -2.3632 -0.9973  0.3295
 6372WAT     H227294  -3.532   4.582   6.897 -0.0314  1.7364  0.0477
 6372WAT    EPW27295  -3.472   4.585   6.960 -0.0997 -0.0408  0.2434
 6373WAT      O27296  -4.954   9.926   4.466 -0.1725  0.7606 -0.1970
 6373WAT     H127297  -4.956   9.833   4.487 -0.5283  1.2064  2.0533
 6373WAT     H227298  -5.039   9.959   4.496  0.0016  1.8325 -0.8251
 6373WAT    EPW27299  -4.965   9.918   4.473 -0.1965  0.9608  0.0169
 6374WAT      O27300   3.988   9.893   0.942 -0.4083  0.1008 -0.5927
 6374WAT     H127301   3.997   9.888   0.847  0.9948 -1.8586 -0.4305
 6374WAT     H227302   3.978   9.802   0.970  1.0564  0.4364  1.2533
 6374WAT    EPW27303   3.988   9.880   0.934 -0.0300 -0.1135 -0.3278
 6375WAT      O27304   0.509   3.367   3.153  0.2457 -0.1899  0.0098
 6375WAT     H127305   0.516   3.403   3.065  1.3810 -2.9796 -1.1581
 6375WAT     H227306   0.512   3.272   3.141  1.9463 -0.6769  3.1452
 6375WAT    EPW27307   0.510   3.359   3.140  0.6198 -0.6220  0.2694
 6376WAT      O27308   2.752   7.708   7.743 -0.4144  0.6948 -0.1731
 6376WAT     H127309   2.789   7.675   7.661 -3.9641 -2.4215 -0.8038
 6376WAT     H227310   2.703   7.786   7.718  0.0575  0.8475 -0.6366
 6376WAT    EPW27311   2.750   7.714   7.729 -0.8204  0.3040 -0.3173
 6377WAT      O27312   0.923   1.062   6.313 -0.9482 -0.1902 -0.5444
 6377WAT     H127313   1.002   1.117   6.314  0.2348 -1.6798  2.4765
 6377WAT     H227314   0.920   1.023   6.400 -3.8538 -1.9358 -1.2776
 6377WAT    EPW27315   0.933   1.064   6.324 -1.1754 -0.6169 -0.2429
 6378WAT      O27316   7.090   0.106   1.252  0.0951 -0.1113  0.0565
 6378WAT     H127317   7.017   0.078   1.306 -0.4260 -1.5151 -1.2878
 6378WAT     H227318   7.163   0.117   1.313 -0.0662 -3.0495  0.9476
 6378WAT    EPW27319   7.090   0.104   1.267  0.0052 -0.6840 -0.0033
 6379WAT      O27320  -2.304   0.320   7.927 -0.1710 -0.2222  0.5155
 6379WAT     H127321  -2.312   0.231   7.893 -1.7863  0.3905 -0.8537
 6379WAT     H227322  -2.314   0.311   8.022 -1.3858 -1.3943  0.2958
 6379WAT    EPW27323  -2.306   0.307   7.935 -0.5443 -0.2960  0.3057
 6380WAT      O27324   2.737   1.733   4.551 -0.1722 -0.5058 -0.8420
 6380WAT     H127325   2.752   1.823   4.581 -2.7849  0.5395 -2.2958
 6380WAT     H227326   2.771   1.731   4.462  1.4947 -1.5557 -0.2209
 6380WAT    EPW27327   2.743   1.745   4.543 -0.2968 -0.5065 -0.9520
 6381WAT      O27328   6.802   3.481   4.516  0.3635  0.5148  0.0313
 6381WAT     H127329   6.861   3.549   4.483 -1.7250  1.4328 -2.1138
 6381WAT     H227330   6.860   3.411   4.545  2.5085  1.7722 -0.9837
 6381WAT    EPW27331   6.817   3.481   4.516  0.3710  0.8017 -0.3853
 6382WAT      O27332  -3.119   0.183   8.520  0.0496  0.4362 -0.5468
 6382WAT     H127333  -3.039   0.234   8.534  1.5706 -1.8043 -0.6805
 6382WAT     H227334  -3.088   0.096   8.496 -2.3932 -1.2238  1.7932
 6382WAT    EPW27335  -3.104   0.179   8.519 -0.0720 -0.0782 -0.2561
 6383WAT      O27336   3.903   9.437   5.475 -0.0175 -0.0790 -0.3476
 6383WAT     H127337   3.979   9.400   5.519  0.0343 -1.3435 -1.4299
 6383WAT     H227338   3.829   9.411   5.530  0.2939  1.0316  0.6304
 6383WAT    EPW27339   3.903   9.429   5.488  0.0305 -0.0992 -0.3614
 6384WAT      O27340   2.575   7.292   0.306  0.0713  0.4046  0.0837
 6384WAT     H127341   2.579   7.200   0.279 -1.3577 -0.3942  2.3164
 6384WAT     H227342   2.482   7.315   0.298  0.4846  1.8638 -0.9686
 6384WAT    EPW27343   2.563   7.283   0.301 -0.0627  0.4919  0.2394
 6385WAT      O27344  -0.259   5.559   6.836 -0.9878  0.1152 -0.4076
 6385WAT     H127345  -0.240   5.510   6.756  3.6266 -0.1266  0.5284
 6385WAT     H227346  -0.269   5.649   6.808 -1.3670 -0.2218 -1.3996
 6385WAT    EPW27347  -0.258   5.564   6.822 -0.4292  0.0389 -0.4148
 6386WAT      O27348  -1.030   2.334   5.800  0.0178 -0.5394  0.6180
 6386WAT     H127349  -1.049   2.422   5.832  1.9096 -0.2577  1.0714
 6386WAT     H227350  -0.967   2.299   5.863  0.8327 -1.4547 -0.6767
 6386WAT    EPW27351  -1.024   2.341   5.813  0.3748 -0.6230  0.5071
 6387WAT      O27352   7.255   5.428   2.953 -0.1811 -0.1577  0.0131
 6387WAT     H127353   7.201   5.351   2.970  0.0620 -1.1429 -3.0771
 6387WAT     H227354   7.221   5.495   3.012 -2.5191 -1.7110  0.5424
 6387WAT    EPW27355   7.243   5.427   2.963 -0.4574 -0.4926 -0.3246
 6388WAT      O27356   5.954   6.165   2.100  0.2927 -0.4140 -0.1565
 6388WAT     H127357   6.025   6.102   2.114 -0.5576 -1.3885 -0.1451
 6388WAT     H227358   5.925   6.149   2.010 -0.2221 -0.3408 -0.0057
 6388WAT    EPW27359   5.960   6.155   2.090  0.1125 -0.5329 -0.1351
 6389WAT      O27360  -4.126   0.545   7.744  0.1858 -0.1229 -0.4798
 6389WAT     H127361  -4.216   0.517   7.761  0.3142  0.1748  0.7596
 6389WAT     H227362  -4.100   0.591   7.823  1.2825  0.1888 -1.0080
 6389WAT    EPW27363  -4.134   0.547   7.756  0.3474 -0.0425 -0.3860
 6390WAT      O27364   5.795   3.834   3.311  0.1529 -0.2206  0.0355
 6390WAT     H127365   5.854   3.862   3.381  0.9014 -0.5929 -0.4388
 6390WAT     H227366   5.749   3.914   3.286 -1.9110 -0.4961  2.5629
 6390WAT    EPW27367   5.797   3.848   3.317 -0.0205 -0.3060  0.3064
 6391WAT      O27368   1.830   7.988   3.625  0.0435  0.4277  0.3778
 6391WAT     H127369   1.882   7.936   3.686  0.8301  2.2284  1.3159
 6391WAT     H227370   1.832   7.938   3.543  1.7113 -0.4511  0.9164
 6391WAT    EPW27371   1.837   7.974   3.622  0.3672  0.5493  0.5726
 6392WAT      O27372   0.586   1.420   5.136 -0.8126 -0.5790 -0.0966
 6392WAT     H127373   0.600   1.508   5.171 -3.7788 -0.2751  0.6229
 6392WAT     H227374   0.672   1.393   5.102  0.7621  1.5904  1.8396
 6392WAT    EPW27375   0.599   1.428   5.137 -0.9961 -0.2528  0.2537
 6393WAT      O27376   5.746   0.233   5.576  0.0997  0.4437 -0.0191
 6393WAT     H127377   5.735   0.288   5.498  1.3442  2.6616  1.2627
 6393WAT     H227378   5.712   0.287   5.647  1.0473 -0.6284  1.2770
 6393WAT    EPW27379   5.740   0.247   5.575  0.3889  0.5949  0.3211
 6394WAT      O27380  -2.966   5.461   2.257 -0.1348  0.3861  0.2458
 6394WAT     H127381  -2.929   5.414   2.332  1.5297 -0.0893 -0.8013
 6394WAT     H227382  -2.942   5.552   2.271  2.1484  0.0139 -0.7061
 6394WAT    EPW27383  -2.958   5.467   2.269  0.3859  0.2742 -0.0179
 6395WAT      O27384  -0.529   2.808   8.915 -0.3616 -0.5950  0.2821
 6395WAT     H127385  -0.563   2.723   8.941  0.4658 -0.6485  1.2502
 6395WAT     H227386  -0.603   2.868   8.928 -0.2858 -0.7886  1.8559
 6395WAT    EPW27387  -0.543   2.805   8.920 -0.2425 -0.6276  0.6175
 6396WAT      O27388   3.136   8.561   1.230  0.3002 -0.1405  0.5250
 6396WAT     H127389   3.112   8.555   1.137  2.0850  1.7968 -0.1470
 6396WAT     H227390   3.180   8.478   1.249 -2.5729 -1.7993  0.5364
 6396WAT    EPW27391   3.138   8.549   1.220  0.1568 -0.1035  0.4379
 6397WAT      O27392  -2.402   9.496   7.781  0.2704 -0.9681  0.0974
 6397WAT     H127393  -2.326   9.533   7.736  0.6534 -1.3589  0.4151
 6397WAT     H227394  -2.447   9.445   7.713 -1.1731  1.3278 -0.7835
 6397WAT    EPW27395  -2.398   9.494   7.766  0.1307 -0.7172  0.0231
 6398WAT      O27396   1.856   8.048   7.032 -0.5081 -0.1254  0.1568
 6398WAT     H127397   1.796   8.099   7.087 -0.8282 -0.1196 -0.1899
 6398WAT     H227398   1.829   7.957   7.045 -0.1123 -0.1807  0.5691
 6398WAT    EPW27399   1.844   8.043   7.041 -0.4981 -0.1316  0.1655
 6399WAT      O27400  -0.428   3.869   8.076 -0.6136  0.4332 -0.1859
 6399WAT     H127401  -0.373   3.801   8.115 -0.2721  1.9358  2.1323
 6399WAT     H227402  -0.516   3.830   8.073 -0.2930 -0.3471  0.4502
 6399WAT    EPW27403  -0.433   3.855   8.080 -0.5263  0.5285  0.2041
 6400WAT      O27404  -0.183   6.732   5.260 -0.3383 -0.0976  0.6343
 6400WAT     H127405  -0.178   6.699   5.349 -2.0912  1.3778  1.3444
 6400WAT     H227406  -0.254   6.683   5.220  0.7008 -1.0371 -0.1228
 6400WAT    EPW27407  -0.191   6.721   5.266 -0.4325 -0.0269  0.6280
 6401WAT      O27408   4.891   7.353   0.590  0.0463  0.1269  0.5343
 6401WAT     H127409   4.954   7.322   0.655 -2.4641 -0.7406  2.7407
 6401WAT     H227410   4.876   7.278   0.532 -1.3571 -0.8517  2.0644
 6401WAT    EPW27411   4.897   7.339   0.591 -0.4699 -0.1166  1.0271
 6402WAT      O27412  -7.534   8.954   8.587  0.4589  0.2389  0.0588
 6402WAT     H127413  -7.549   9.034   8.636  1.4783  0.2369  0.3909
 6402WAT     H227414  -7.562   8.884   8.646  1.0805  0.2689  0.3899
 6402WAT    EPW27415  -7.540   8.955   8.601  0.6754  0.2422  0.1464
 6403WAT      O27416   5.591   2.729   2.856  0.0930  0.2908 -0.6193
 6403WAT     H127417   5.560   2.812   2.893 -0.2896 -0.9164  1.9532
 6403WAT     H227418   5.665   2.705   2.910  0.4218 -0.8990 -1.5565
 6403WAT    EPW27419   5.596   2.737   2.868  0.0858 -0.0253 -0.4036
 6404WAT      O27420   1.691   5.785   3.077  0.6525 -0.6159 -0.3984
 6404WAT     H127421   1.651   5.866   3.106 -0.8917 -1.9972  1.5820
 6404WAT     H227422   1.723   5.804   2.989 -1.2761  1.5995 -0.7092
 6404WAT    EPW27423   1.690   5.798   3.069  0.1944 -0.5059 -0.1781
 6405WAT      O27424   3.527   4.817   3.259 -0.6446  0.2230  0.1883
 6405WAT     H127425   3.583   4.746   3.227  1.6588  2.0058 -0.0360
 6405WAT     H227426   3.531   4.810   3.354 -1.8068 -0.9152  0.1717
 6405WAT    EPW27427   3.535   4.807   3.267 -0.4940  0.3080  0.1566
 6406WAT      O27428   2.142   7.500   3.739 -0.1857  0.1416 -0.9518
 6406WAT     H127429   2.053   7.466   3.735 -0.2422 -0.4590  2.4074
 6406WAT     H227430   2.197   7.427   3.711 -0.6517 -0.2024 -0.9769
 6406WAT    EPW27431   2.138   7.486   3.735 -0.2546  0.0169 -0.5120
 6407WAT      O27432   5.127   1.329   0.819 -0.3683  0.5940  0.4963
 6407WAT     H127433   5.152   1.238   0.837  2.0948  1.2219  0.7336
 6407WAT     H227434   5.122   1.370   0.906 -0.7112  0.8393  0.3596
 6407WAT    EPW27435   5.130   1.322   0.833 -0.0887  0.7091  0.5096
 6408WAT      O27436   0.393   5.004   6.776  0.9503  0.0194  0.3446
 6408WAT     H127437   0.329   5.063   6.815  0.1706 -0.3545 -0.3353
 6408WAT     H227438   0.379   5.011   6.681  1.4993 -0.5265  0.2096
 6408WAT    EPW27439   0.383   5.012   6.768  0.9199 -0.1020  0.2370
 6409WAT      O27440  -3.055   5.590   8.581 -0.4295  0.3358 -0.4157
 6409WAT     H127441  -2.979   5.535   8.601  0.1329  1.9578  2.3811
 6409WAT     H227442  -3.074   5.636   8.663 -3.8595  0.7333 -1.2882
 6409WAT    EPW27443  -3.047   5.589   8.594 -0.8078  0.6022 -0.1616
 6410WAT      O27444   0.770   7.386   6.036 -0.0513  0.1150 -0.2381
 6410WAT     H127445   0.754   7.473   6.072 -0.6672  0.0165 -0.2622
 6410WAT     H227446   0.850   7.395   5.984 -0.2185  0.7040 -0.3947
 6410WAT    EPW27447   0.778   7.398   6.034 -0.1546  0.1795 -0.2620
 6411WAT      O27448   6.189   8.009   1.893 -0.1131 -0.4394 -0.1029
 6411WAT     H127449   6.200   7.919   1.863 -1.3365 -0.4642 -0.5394
 6411WAT     H227450   6.162   8.058   1.814 -0.0314  0.1859  0.2487
 6411WAT    EPW27451   6.187   8.004   1.878 -0.2635 -0.3600 -0.1141
 6412WAT      O27452   4.686   2.895   7.757  0.0076  1.0141 -0.0551
 6412WAT     H127453   4.713   2.830   7.823  1.0577  1.4328 -0.0569
 6412WAT     H227454   4.768   2.925   7.718 -0.3801  3.0452  0.6010
 6412WAT    EPW27455   4.701   2.890   7.761  0.0949  1.3373  0.0312
 6413WAT      O27456   0.945   1.936   0.693  0.1850 -0.2019 -0.3250
 6413WAT     H127457   0.904   1.996   0.756  0.3911  0.8087 -1.1442
 6413WAT     H227458   0.885   1.934   0.619  1.6633  1.5039 -1.6628
 6413WAT    EPW27459   0.932   1.943   0.692  0.4072  0.1565 -0.6095
 6414WAT      O27460   2.189   7.528   5.385 -0.2755  0.0600 -0.4882
 6414WAT     H127461   2.159   7.551   5.297 -0.5746  1.7102  0.0070
 6414WAT     H227462   2.131   7.459   5.414 -1.8566  1.2814 -0.6210
 6414WAT    EPW27463   2.178   7.522   5.377 -0.5234  0.4387 -0.4404
 6415WAT      O27464  -2.170   0.869   6.980  0.1734  0.0703  0.9888
 6415WAT     H127465  -2.075   0.879   6.969  0.1869 -0.1514  0.8990
 6415WAT     H227466  -2.184   0.881   7.074  0.4692 -1.2532  1.2289
 6415WAT    EPW27467  -2.159   0.872   6.991  0.2143 -0.1335  1.0085
 6416WAT      O27468   1.146   1.989   6.130  0.3956 -0.3564 -0.2698
 6416WAT     H127469   1.068   1.948   6.166  0.3709 -0.6110 -0.6122
 6416WAT     H227470   1.165   2.062   6.190 -0.9085  0.5630 -0.9362
 6416WAT    EPW27471   1.139   1.993   6.143  0.2204 -0.2688 -0.4027
 6417WAT      O27472  -2.016   2.218   7.134 -0.8900  0.3486 -0.5644
 6417WAT     H127473  -2.065   2.139   7.111  1.2031 -1.3826  0.5667
 6417WAT     H227474  -1.936   2.213   7.082 -0.4576  1.4224 -0.0291
 6417WAT    EPW27475  -2.012   2.207   7.124 -0.5568  0.2619 -0.3448
 6418WAT      O27476  -6.273   7.361   7.206  0.4787  0.5221 -0.2266
 6418WAT     H127477  -6.294   7.305   7.281 -1.2407  1.6661  0.1839
 6418WAT     H227478  -6.349   7.355   7.149  1.4986  0.1699 -1.6221
 6418WAT    EPW27479  -6.286   7.353   7.208  0.3862  0.6263 -0.3564
 6419WAT      O27480   2.362   5.508   4.741  0.3754  0.4153 -0.2136
 6419WAT     H127481   2.335   5.523   4.651 -0.3062 -0.9131 -0.2500
 6419WAT     H227482   2.304   5.563   4.793 -1.6721 -1.4652 -0.3772
 6419WAT    EPW27483   2.351   5.518   4.736  0.0154 -0.0081 -0.2401
 6420WAT      O27484   4.108   8.427   4.585 -0.1401  0.1292 -0.0513
 6420WAT     H127485   4.106   8.493   4.654 -0.5564 -1.0383  1.0908
 6420WAT     H227486   4.170   8.361   4.616 -1.9975 -1.5459  0.3416
 6420WAT    EPW27487   4.116   8.427   4.598 -0.4399 -0.2460  0.1512
 6421WAT      O27488   3.786   3.182   4.851  0.2774 -0.4120  0.2953
 6421WAT     H127489   3.788   3.193   4.946  0.6183 -1.6813  0.4614
 6421WAT     H227490   3.799   3.088   4.838  1.4407 -0.1028 -1.0409
 6421WAT    EPW27491   3.788   3.171   4.862  0.4756 -0.5387  0.1407
 6422WAT      O27492  -1.025   0.604   4.269 -0.2832 -0.3745  0.0878
 6422WAT     H127493  -0.962   0.670   4.298  0.9392 -2.4273  2.5094
 6422WAT     H227494  -1.100   0.615   4.327 -0.3364 -0.6877  0.0798
 6422WAT    EPW27495  -1.026   0.614   4.281 -0.1290 -0.6866  0.4060
 6423WAT      O27496  -5.175   9.490   5.307  0.6139 -0.0971  0.1100
 6423WAT     H127497  -5.207   9.549   5.238  0.5353  0.3472  0.5195
 6423WAT     H227498  -5.192   9.402   5.273 -0.5962  0.1225  0.1157
 6423WAT    EPW27499  -5.181   9.487   5.293  0.4439 -0.0091  0.1647
 6424WAT      O27500   3.785   5.365   7.721 -0.7714  1.0112  0.7003
 6424WAT     H127501   3.822   5.304   7.658 -1.9804  1.3011 -0.3301
 6424WAT     H227502   3.730   5.311   7.778  1.4510  0.5096  2.5066
 6424WAT    EPW27503   3.783   5.350   7.720 -0.6378  0.9832  0.8028
 6425WAT      O27504   3.708   0.662   4.578  0.3339 -0.3991 -0.3076
 6425WAT     H127505   3.621   0.635   4.607 -0.4312  1.6797 -0.4559
 6425WAT     H227506   3.696   0.692   4.488  0.6627  1.9758  0.3529
 6425WAT    EPW27507   3.695   0.663   4.570  0.2764  0.1883 -0.2401
 6426WAT      O27508   7.989   5.681   1.178 -0.0957 -0.4197  0.4992
 6426WAT     H127509   7.990   5.764   1.225  0.6778  1.0065 -1.8406
 6426WAT     H227510   8.077   5.646   1.189  0.4073  0.4222 -0.6473
 6426WAT    EPW27511   8.000   5.688   1.186  0.0730 -0.1204  0.0393
 6427WAT      O27512   4.241   5.950   3.601  0.2795  0.5394  0.0467
 6427WAT     H127513   4.169   6.013   3.607  0.7508  1.0434  0.4974
 6427WAT     H227514   4.301   5.988   3.537  1.3920  1.4112  1.5523
 6427WAT    EPW27515   4.239   5.963   3.593  0.4885  0.7210  0.3046
 6428WAT      O27516  -4.123   3.401   4.962 -0.2514 -0.3623  0.5248
 6428WAT     H127517  -4.175   3.448   5.027  0.3335  0.3128  0.5039
 6428WAT     H227518  -4.169   3.317   4.952 -0.7967 -0.1555  1.2089
 6428WAT    EPW27519  -4.136   3.396   4.969 -0.2460 -0.2459  0.6120
 6429WAT      O27520  -2.438   6.247   8.474 -0.3427  0.3876  0.3801
 6429WAT     H127521  -2.368   6.182   8.473 -1.0813 -0.4122  0.3920
 6429WAT     H227522  -2.514   6.200   8.507 -1.0971  1.0450 -0.3963
 6429WAT    EPW27523  -2.439   6.232   8.478 -0.5397  0.3686  0.2789
 6430WAT      O27524  -5.975   7.195   8.258  0.4486  0.0000 -0.3383
 6430WAT     H127525  -5.898   7.149   8.226 -0.3969 -0.8879 -1.1836
 6430WAT     H227526  -5.956   7.287   8.245  1.2919 -0.2240 -0.6952
 6430WAT    EPW27527  -5.963   7.201   8.252  0.4485 -0.1466 -0.4969
 6431WAT      O27528   4.746   7.706   3.245 -0.3545  0.3025  0.9188
 6431WAT     H127529   4.679   7.750   3.193 -0.3235 -0.3939  0.2698
 6431WAT     H227530   4.706   7.694   3.332 -0.8981  0.3088  0.6723
 6431WAT    EPW27531   4.732   7.710   3.250 -0.4222  0.2112  0.8007
 6432WAT      O27532  -3.622   4.128   7.922  0.0794  0.6872  0.3265
 6432WAT     H127533  -3.598   4.212   7.883  1.3216 -0.9137 -2.7083
 6432WAT     H227534  -3.546   4.102   7.974  1.0762  0.0399 -1.3798
 6432WAT    EPW27535  -3.609   4.135   7.924  0.3747  0.3908 -0.2990
 6433WAT      O27536   4.671   7.772   1.201 -0.4719  0.0500  0.1121
 6433WAT     H127537   4.733   7.699   1.194 -0.5781  0.0482 -0.9913
 6433WAT     H227538   4.724   7.850   1.183 -0.3212  0.2843  1.4574
 6433WAT    EPW27539   4.686   7.773   1.198 -0.4659  0.0806  0.1441
 6434WAT      O27540   2.587   6.369   3.832 -0.3766  0.1962  0.2159
 6434WAT     H127541   2.628   6.433   3.890  0.2643 -1.9010  2.2303
 6434WAT     H227542   2.494   6.392   3.833 -0.3115  0.5224  1.6997
 6434WAT    EPW27543   2.580   6.381   3.840 -0.2835 -0.0372  0.6772
 6435WAT      O27544  -2.978   5.524   4.340 -0.2010  0.7197 -0.2398
 6435WAT     H127545  -2.925   5.500   4.417 -0.2074  0.0440 -0.4363
 6435WAT     H227546  -2.915   5.529   4.268 -0.2014  1.3101 -0.2036
 6435WAT    EPW27547  -2.963   5.521   4.341 -0.2018  0.7086 -0.2611
 6436WAT      O27548   5.918   5.758   4.080 -0.0837 -0.5598 -0.0455
 6436WAT     H127549   5.895   5.764   4.173 -0.1278 -1.9874  0.0655
 6436WAT     H227550   6.013   5.745   4.080  0.2365  1.5255 -0.3222
 6436WAT    EPW27551   5.927   5.757   4.092 -0.0472 -0.4730 -0.0675
 6437WAT      O27552   7.531   3.022   1.838  0.4577 -0.5855  0.6602
 6437WAT     H127553   7.574   3.083   1.898  1.4316  0.1453 -0.7302
 6437WAT     H227554   7.454   3.070   1.807  0.1285 -0.8406  1.0753
 6437WAT    EPW27555   7.526   3.036   1.841  0.5426 -0.5226  0.5316
 6438WAT      O27556  -3.281   2.193   4.953  0.1625  0.4047  0.1574
 6438WAT     H127557  -3.341   2.258   4.918  1.7816  1.6065 -0.5380
 6438WAT     H227558  -3.217   2.244   5.004  0.5807 -0.8104  0.8917
 6438WAT    EPW27559  -3.280   2.208   4.955  0.4312  0.4029  0.1626
 6439WAT      O27560  -4.075   7.245   7.912  0.0706  0.3729  0.0978
 6439WAT     H127561  -3.985   7.276   7.928  0.0876 -0.7222  2.4726
 6439WAT     H227562  -4.065   7.152   7.891 -0.5781 -0.4312  2.9033
 6439WAT    EPW27563  -4.062   7.237   7.911 -0.0126  0.1223  0.7811
 6440WAT      O27564   6.715   5.446   1.891 -0.0385 -0.1765 -0.6938
 6440WAT     H127565   6.683   5.443   1.801 -0.6797  0.3396 -0.4926
 6440WAT     H227566   6.668   5.519   1.930  0.6238 -0.0667 -0.0839
 6440WAT    EPW27567   6.705   5.455   1.884 -0.0360 -0.0939 -0.5869
 6441WAT      O27568  -4.049   9.794   8.721  0.1079  0.7066  0.3053
 6441WAT     H127569  -3.960   9.807   8.687 -0.2749 -0.4669 -1.2826
 6441WAT     H227570  -4.092   9.739   8.655 -1.4920  0.4078  1.5264
 6441WAT    EPW27571  -4.043   9.788   8.708 -0.1535  0.5121  0.2565
 6442WAT      O27572   1.547   5.806   0.507 -0.3327 -0.0835 -0.1726
 6442WAT     H127573   1.551   5.750   0.584 -0.8832  1.2591  0.8551
 6442WAT     H227574   1.464   5.782   0.464  0.4167 -1.4930 -0.9094
 6442WAT    EPW27575   1.536   5.795   0.511 -0.3065 -0.0923 -0.1342
 6443WAT      O27576  -2.874   2.189   8.702 -0.2034 -0.5362 -0.0053
 6443WAT     H127577  -2.864   2.247   8.627  1.3983 -1.4842 -0.5667
 6443WAT     H227578  -2.935   2.121   8.672  1.0890 -1.3834 -0.7650
 6443WAT    EPW27579  -2.881   2.188   8.688  0.1783 -0.7730 -0.1793
 6444WAT      O27580   2.638   9.139   4.393  0.2281  0.1050 -0.3869
 6444WAT     H127581   2.675   9.092   4.468  1.7148  0.3726 -0.9076
 6444WAT     H227582   2.683   9.101   4.317  0.4217  1.3900 -0.9385
 6444WAT    EPW27583   2.649   9.128   4.393  0.4498  0.3095 -0.5283
 6445WAT      O27584   3.564   7.526   0.419 -0.6844 -0.0084  0.2529
 6445WAT     H127585   3.509   7.458   0.381  1.1713 -2.6728  1.9667
 6445WAT     H227586   3.591   7.580   0.344 -2.8197 -0.6563 -1.0600
 6445WAT    EPW27587   3.560   7.524   0.404 -0.7212 -0.4451  0.3058
 6446WAT      O27588  -5.853   4.916   7.091  0.4485  0.7858 -0.5815
 6446WAT     H127589  -5.855   4.938   6.998  0.5027  0.6634 -0.6124
 6446WAT     H227590  -5.849   4.820   7.092  0.1007  0.7696 -0.4511
 6446WAT    EPW27591  -5.853   4.906   7.079  0.4098  0.7675 -0.5684
 6447WAT      O27592   1.401   2.257   3.535  0.0316 -0.1513 -0.1893
 6447WAT     H127593   1.431   2.173   3.501  3.0371  0.0235  1.6791
 6447WAT     H227594   1.413   2.318   3.462  0.0564 -0.9036 -0.8258
 6447WAT    EPW27595   1.406   2.254   3.521  0.4313 -0.2275 -0.0268
 6448WAT      O27596   2.719   2.359   2.047 -0.5386  0.1040 -0.6366
 6448WAT     H127597   2.754   2.394   1.965  1.0123 -1.2904 -0.6042
 6448WAT     H227598   2.782   2.387   2.114 -2.3139  2.1366  0.3423
 6448WAT    EPW27599   2.732   2.368   2.045 -0.5682  0.1881 -0.5033
 6449WAT      O27600   7.986   4.601   0.706  0.0908 -0.0832 -0.7774
 6449WAT     H127601   7.935   4.653   0.644  2.1817  0.9025 -1.7840
 6449WAT     H227602   8.013   4.664   0.774 -0.7414 -0.7830  0.2310
 6449WAT    EPW27603   7.983   4.616   0.707  0.2570 -0.0455 -0.7771
 6450WAT      O27604  -2.077   3.666   8.381  0.0178 -0.0197 -0.0526
 6450WAT     H127605  -2.010   3.733   8.397  0.2691 -0.4766  0.8999
 6450WAT     H227606  -2.050   3.592   8.435  0.6023 -1.5099 -2.2573
 6450WAT    EPW27607  -2.064   3.665   8.390  0.1281 -0.2766 -0.2184
 6451WAT      O27608   0.163   4.361   6.907  0.2453 -0.1560  0.9452
 6451WAT     H127609   0.242   4.382   6.956  0.8275 -1.2486  0.5081
 6451WAT     H227610   0.143   4.271   6.932  0.1171 -0.4698 -0.2497
 6451WAT    EPW27611   0.170   4.352   6.917  0.3052 -0.3414  0.7300
 6452WAT      O27612  -3.037   3.892   6.100 -0.6465  0.3305 -0.7946
 6452WAT     H127613  -3.018   3.911   6.192  0.1456 -2.3736 -0.3199
 6452WAT     H227614  -2.991   3.961   6.051  1.0367  0.3895  0.7726
 6452WAT    EPW27615  -3.029   3.904   6.105 -0.3201 -0.0185 -0.5252
 6453WAT      O27616  -2.109   7.884   8.824  0.0133  0.3925  0.0473
 6453WAT     H127617  -2.178   7.836   8.778 -0.6871  0.8518  0.5912
 6453WAT     H227618  -2.090   7.958   8.766 -2.7730  2.5052  1.5937
 6453WAT    EPW27619  -2.116   7.888   8.810 -0.4466  0.7319  0.3228
 6454WAT      O27620  -3.535   9.912   3.569  0.8874  0.4271  0.2957
 6454WAT     H127621  -3.458   9.967   3.553  1.0667  0.1109  0.0451
 6454WAT     H227622  -3.567   9.891   3.481 -0.4721  1.9033  0.3936
 6454WAT    EPW27623  -3.529   9.916   3.555  0.7317  0.5798  0.2756
 6455WAT      O27624   0.005   2.426   5.491  0.2816 -0.0376  0.2853
 6455WAT     H127625  -0.053   2.351   5.477 -0.8325  0.7421  0.6790
 6455WAT     H227626  -0.001   2.445   5.584 -0.1903  1.1194  0.0413
 6455WAT    EPW27627  -0.003   2.419   5.501  0.0724  0.2179  0.3049
 6456WAT      O27628   3.208   1.754   3.014  0.0989 -0.2337 -0.0583
 6456WAT     H127629   3.148   1.730   3.084  0.0340 -1.2016 -0.4319
 6456WAT     H227630   3.291   1.711   3.037  0.9979  1.9166  0.9922
 6456WAT    EPW27631   3.211   1.745   3.026  0.2090 -0.0778  0.0309
 6457WAT      O27632   1.423   1.306   1.714 -0.6945 -0.2378 -0.0799
 6457WAT     H127633   1.337   1.294   1.754 -0.9082  0.7053 -0.2243
 6457WAT     H227634   1.483   1.261   1.773 -1.3789 -1.7362 -0.4816
 6457WAT    EPW27635   1.419   1.299   1.727 -0.8129 -0.3111 -0.1519
 6458WAT      O27636  -4.806   9.380   5.824  0.0807  0.1253  0.2604
 6458WAT     H127637  -4.745   9.425   5.766  0.0567  1.2085  1.0363
 6458WAT     H227638  -4.795   9.288   5.804  1.5931  0.3365  0.0110
 6458WAT    EPW27639  -4.796   9.374   5.814  0.2770  0.2961  0.3300
 6459WAT      O27640  -3.195   9.462   8.791 -0.1260 -0.2336  0.3930
 6459WAT     H127641  -3.246   9.458   8.872 -0.5054  0.1589  0.1781
 6459WAT     H227642  -3.133   9.390   8.798 -1.8205 -1.8243 -0.1024
 6459WAT    EPW27643  -3.194   9.452   8.803 -0.3996 -0.3920  0.2990
 6460WAT      O27644  -0.517   2.510   6.430  0.5520 -0.4672 -0.5258
 6460WAT     H127645  -0.497   2.430   6.479  1.6082 -1.1703 -2.0415
 6460WAT     H227646  -0.608   2.500   6.403  0.3842 -0.6975  0.1184
 6460WAT    EPW27647  -0.526   2.498   6.433  0.6692 -0.5903 -0.6409
 6461WAT      O27648  -2.865   0.509   4.922  0.1279  0.0926 -0.2916
 6461WAT     H127649  -2.770   0.496   4.924 -0.0565 -1.4316 -0.1582
 6461WAT     H227650  -2.885   0.548   5.007  0.1593 -3.7797  1.7067
 6461WAT    EPW27651  -2.855   0.512   4.934  0.1076 -0.6191 -0.0105
 6462WAT      O27652   3.695   8.981   2.028 -0.0383  0.3048  0.0287
 6462WAT     H127653   3.631   9.050   2.043 -0.5805  0.6758 -3.3066
 6462WAT     H227654   3.650   8.918   1.972  1.2878 -1.4632  0.8595
 6462WAT    EPW27655   3.681   8.982   2.022  0.0651  0.1202 -0.3016
 6463WAT      O27656  -1.839   9.158   1.436 -0.4363 -0.3424 -0.2555
 6463WAT     H127657  -1.779   9.152   1.510  2.0649  0.5376 -2.0758
 6463WAT     H227658  -1.896   9.232   1.457 -0.3857 -0.6910  1.1731
 6463WAT    EPW27659  -1.839   9.167   1.448 -0.0998 -0.2728 -0.3071
 6464WAT      O27660  -0.336   8.702   2.455  0.2067 -0.0495 -0.7720
 6464WAT     H127661  -0.426   8.672   2.439 -0.0272  0.4898 -0.4967
 6464WAT     H227662  -0.346   8.795   2.476  1.0769  0.7527 -3.5307
 6464WAT    EPW27663  -0.349   8.710   2.456  0.2906  0.1278 -1.0996
 6465WAT      O27664   1.459   3.612   1.532 -0.0351 -0.3488  0.1651
 6465WAT     H127665   1.413   3.652   1.606 -0.6231  0.0683 -0.4177
 6465WAT     H227666   1.420   3.525   1.524 -2.5191  0.8259 -1.8277
 6465WAT    EPW27667   1.448   3.605   1.541 -0.4402 -0.1389 -0.1746
 6466WAT      O27668   1.083   7.514   8.554  0.3128  0.1451  0.2209
 6466WAT     H127669   1.165   7.550   8.588 -0.1775  2.3161 -0.7161
 6466WAT     H227670   1.104   7.486   8.465  0.2503 -0.1607  0.3017
 6466WAT    EPW27671   1.096   7.515   8.547  0.2398  0.3910  0.1078
 6467WAT      O27672   3.819   4.868   1.238  0.0082 -0.0743  0.5225
 6467WAT     H127673   3.809   4.956   1.201  2.8281  0.4701  0.8848
 6467WAT     H227674   3.773   4.872   1.322  0.6542  1.2692  0.8360
 6467WAT    EPW27675   3.812   4.880   1.244  0.4653  0.1750  0.6116
 6468WAT      O27676   1.910   2.284   4.244 -0.0458 -0.0704  0.5034
 6468WAT     H127677   1.976   2.229   4.202 -0.5726 -0.3778  0.0610
 6468WAT     H227678   1.827   2.240   4.225 -0.3627  0.2089  1.2046
 6468WAT    EPW27679   1.908   2.271   4.236 -0.1571 -0.0740  0.5376
 6469WAT      O27680   7.804   4.332   0.773 -0.8658  0.1902  0.0944
 6469WAT     H127681   7.742   4.261   0.792 -1.1840  0.2062 -0.8090
 6469WAT     H227682   7.881   4.311   0.825  0.4226 -2.7516 -2.6691
 6469WAT    EPW27683   7.806   4.320   0.782 -0.7377 -0.1955 -0.3892
 6470WAT      O27684  -2.189   1.677   3.301  0.4846  0.5916  0.0775
 6470WAT     H127685  -2.176   1.728   3.220 -1.1770  1.1373  0.1143
 6470WAT     H227686  -2.180   1.586   3.273 -0.1895  0.7657 -0.7782
 6470WAT    EPW27687  -2.186   1.672   3.286  0.1765  0.6865 -0.0306
 6471WAT      O27688   3.048   7.797   1.957 -0.2775 -0.3676 -0.0677
 6471WAT     H127689   3.114   7.767   1.894 -0.8316  0.8447 -1.2835
 6471WAT     H227690   3.099   7.830   2.031  0.3678 -2.5920  0.5417
 6471WAT    EPW27691   3.063   7.798   1.959 -0.2655 -0.5009 -0.1477
 6472WAT      O27692  -3.602   7.258   4.589 -0.3680  0.0296 -0.1191
 6472WAT     H127693  -3.653   7.188   4.549  0.6376 -0.1713 -1.0905
 6472WAT     H227694  -3.540   7.284   4.521 -0.4303  1.5751  0.3663
 6472WAT    EPW27695  -3.601   7.252   4.575 -0.2435  0.2067 -0.1831
 6473WAT      O27696   5.043   0.991   8.399 -0.0505 -0.1343 -0.4403
 6473WAT     H127697   5.014   1.053   8.332  2.6617  1.7507 -0.0057
 6473WAT     H227698   5.039   0.906   8.355 -1.1838  0.6665 -1.9854
 6473WAT    EPW27699   5.039   0.988   8.384  0.1576  0.2199 -0.5865
 6474WAT      O27700   3.301   2.908   0.670  0.5518 -0.3017 -0.8253
 6474WAT     H127701   3.309   3.003   0.671 -0.7684 -0.1338  0.9245
 6474WAT     H227702   3.279   2.886   0.580  1.2781  0.9994 -1.3390
 6474WAT    EPW27703   3.299   2.917   0.658  0.4735 -0.1079 -0.6623
 6475WAT      O27704   3.373   1.158   4.990  0.1707 -0.6190 -0.0892
 6475WAT     H127705   3.314   1.145   4.916  2.9426 -2.8748 -2.1120
 6475WAT     H227706   3.457   1.178   4.951  1.3427  0.1727  2.5880
 6475WAT    EPW27707   3.376   1.159   4.975  0.6908 -0.8121 -0.0029
 6476WAT      O27708   0.243   1.380   1.161 -0.1518  0.1746  0.6002
 6476WAT     H127709   0.220   1.445   1.228 -1.4047  0.0623  0.3029
 6476WAT     H227710   0.328   1.347   1.188 -0.0411  1.0789  1.4176
 6476WAT    EPW27711   0.251   1.384   1.173 -0.3024  0.2791  0.6688
 6477WAT      O27712  -5.404   8.797   7.698 -0.2969  0.2393  0.1846
 6477WAT     H127713  -5.455   8.731   7.653  1.3447  0.0156 -1.4561
 6477WAT     H227714  -5.468   8.864   7.724 -1.8018 -1.3759  0.8235
 6477WAT    EPW27715  -5.419   8.797   7.696 -0.2789 -0.0033  0.0525
 6478WAT      O27716   2.216   0.656   4.305 -0.2263  0.1453 -0.8025
 6478WAT     H127717   2.280   0.591   4.335 -1.6207  0.3007  3.1159
 6478WAT     H227718   2.178   0.617   4.226  2.1536 -1.6094 -1.1938
 6478WAT    EPW27719   2.219   0.642   4.299 -0.0964 -0.0656 -0.3374
 6479WAT      O27720  -3.662   3.378   5.824  0.0868  0.1101  0.2357
 6479WAT     H127721  -3.608   3.456   5.839  1.4680 -0.5769 -0.9353
 6479WAT     H227722  -3.617   3.308   5.872  0.2492 -0.4676 -0.7389
 6479WAT    EPW27723  -3.649   3.379   5.832  0.2904 -0.0567 -0.0472
 6480WAT      O27724  -1.096   3.882   2.478 -0.3583 -0.0667  0.1401
 6480WAT     H127725  -1.049   3.955   2.519  2.1318 -1.7460  0.5221
 6480WAT     H227726  -1.074   3.806   2.532 -0.6070 -1.5901 -1.7672
 6480WAT    EPW27727  -1.087   3.881   2.491 -0.0626 -0.4892 -0.0612
 6481WAT      O27728   4.582   9.510   3.940 -0.6829  0.4898 -0.0454
 6481WAT     H127729   4.549   9.420   3.937 -1.2292  0.6614  0.6591
 6481WAT     H227730   4.537   9.555   3.869  1.2644 -0.3226 -1.8967
 6481WAT    EPW27731   4.572   9.504   3.931 -0.4983  0.4053 -0.1965
 6482WAT      O27732   1.637   5.059   7.752  0.3508 -0.3960  0.1328
 6482WAT     H127733   1.723   5.018   7.764 -0.1922 -1.4236  0.6561
 6482WAT     H227734   1.575   4.993   7.783 -0.6954 -0.1269 -1.2588
 6482WAT    EPW27735   1.640   5.045   7.757  0.1412 -0.4961  0.0181
 6483WAT      O27736   9.155   0.424   2.116 -0.0503  0.0688 -0.2623
 6483WAT     H127737   9.216   0.450   2.185 -0.3865  1.4729 -0.4768
 6483WAT     H227738   9.204   0.360   2.064  0.4460 -0.4905  0.8503
 6483WAT    EPW27739   9.170   0.419   2.119 -0.0286  0.1802 -0.1439
 6484WAT      O27740  -1.228   0.256   1.889 -0.6526  0.3153  0.2501
 6484WAT     H127741  -1.280   0.319   1.839  0.5160  0.2021 -1.1490
 6484WAT     H227742  -1.144   0.301   1.903 -0.2096 -0.4972  0.2307
 6484WAT    EPW27743  -1.224   0.270   1.885 -0.4400  0.1933  0.0629
 6485WAT      O27744  -2.275   7.761   7.450  0.4031  0.0455  0.7450
 6485WAT     H127745  -2.191   7.767   7.406  1.0594  0.6775  2.0094
 6485WAT     H227746  -2.337   7.737   7.381  1.6139 -0.4773 -0.1964
 6485WAT    EPW27747  -2.272   7.759   7.435  0.6493  0.0598  0.7877
 6486WAT      O27748  -3.288   5.297   7.600  0.5099 -0.1772 -0.6454
 6486WAT     H127749  -3.192   5.290   7.600  0.4125 -1.7793 -0.4084
 6486WAT     H227750  -3.308   5.348   7.521  1.4937 -0.8425 -1.3423
 6486WAT    EPW27751  -3.278   5.303   7.589  0.6268 -0.4764 -0.7060
 6487WAT      O27752   1.097   4.302   0.779  0.2010  0.8384 -0.1553
 6487WAT     H127753   1.033   4.311   0.849  2.0891  0.9447  1.6395
 6487WAT     H227754   1.045   4.280   0.702 -1.7496 -1.7909  1.7567
 6487WAT    EPW27755   1.082   4.301   0.778  0.1928  0.5057  0.3335
 6488WAT      O27756   0.566   4.163   3.905  0.6680 -0.1282 -0.0966
 6488WAT     H127757   0.654   4.144   3.939  0.9918  1.6187  0.1454
 6488WAT     H227758   0.581   4.225   3.833 -0.3032 -0.6180 -0.7367
 6488WAT    EPW27759   0.580   4.169   3.900  0.5826  0.0377 -0.1491
 6489WAT      O27760   5.644   3.943   2.280 -0.0707  0.5628 -0.0176
 6489WAT     H127761   5.656   3.891   2.200 -1.6185  1.5961 -1.0019
 6489WAT     H227762   5.549   3.948   2.290  0.0609  2.1407  0.7272
 6489WAT    EPW27763   5.633   3.937   2.271 -0.2573  0.9072 -0.0491
 6490WAT      O27764  -3.952   4.605   6.000  0.6119 -1.0220 -0.5045
 6490WAT     H127765  -3.862   4.606   5.968  0.6162 -0.4510 -0.4893
 6490WAT     H227766  -3.991   4.527   5.960  0.5692 -0.2389 -2.0437
 6490WAT    EPW27767  -3.945   4.595   5.990  0.6068 -0.8433 -0.7052
 6491WAT      O27768  -3.642   5.554   8.508  0.1994 -0.6887 -0.2130
 6491WAT     H127769  -3.569   5.491   8.510  0.3735 -0.4741  0.7457
 6491WAT     H227770  -3.637   5.594   8.422  1.2418 -0.6632 -0.1521
 6491WAT    EPW27771  -3.631   5.551   8.497  0.3599 -0.6568 -0.0787
 6492WAT      O27772  -0.753   7.838   5.399 -0.0317 -0.3440  0.0396
 6492WAT     H127773  -0.670   7.877   5.373 -0.5057  1.5946  1.2388
 6492WAT     H227774  -0.803   7.833   5.317  0.9021 -0.6291 -0.5272
 6492WAT    EPW27775  -0.749   7.843   5.384  0.0289 -0.1259  0.1230
 6493WAT      O27776   8.559   1.691   1.283 -0.5082  0.5651  0.2279
 6493WAT     H127777   8.597   1.759   1.338 -1.5705  2.3081 -1.0528
 6493WAT     H227778   8.466   1.711   1.281 -1.0920 -1.7499  0.8317
 6493WAT    EPW27779   8.552   1.703   1.290 -0.7253  0.4897  0.1386
 6494WAT      O27780  -1.628   3.933   2.990 -1.1748 -0.7002 -0.0491
 6494WAT     H127781  -1.699   3.882   2.951 -1.5951 -2.4452  2.7312
 6494WAT     H227782  -1.672   3.997   3.046 -0.5839  1.5662 -2.0066
 6494WAT    EPW27783  -1.643   3.935   2.993 -1.1522 -0.6315  0.0594
 6495WAT      O27784   3.254   1.738   0.826  0.1453  0.4436  0.4352
 6495WAT     H127785   3.231   1.651   0.794  1.0198  0.4398 -0.2272
 6495WAT     H227786   3.313   1.721   0.900 -0.4615  0.4716  0.9328
 6495WAT    EPW27787   3.259   1.724   0.831  0.1806  0.4467  0.4135
 6496WAT      O27788   3.560   1.174   8.653  0.2234 -0.2366  0.2252
 6496WAT     H127789   3.650   1.203   8.669  0.3383 -0.6161  0.2633
 6496WAT     H227790   3.536   1.218   8.572  0.4197 -0.0762  0.2520
 6496WAT    EPW27791   3.569   1.184   8.644  0.2644 -0.2655  0.2341
 6497WAT      O27792  -2.894   9.504   1.085 -0.6737 -0.7435 -0.3089
 6497WAT     H127793  -2.822   9.442   1.070  1.1713  0.5780  2.3319
 6497WAT     H227794  -2.851   9.589   1.093 -2.4352  0.0295  1.8128
 6497WAT    EPW27795  -2.879   9.507   1.084 -0.6627 -0.4678  0.3192
 6498WAT      O27796  -6.341   3.774   8.276 -0.2957 -0.2028 -0.6224
 6498WAT     H127797  -6.275   3.735   8.333 -0.7934 -1.2942 -0.7770
 6498WAT     H227798  -6.323   3.738   8.189 -1.4593 -1.0240 -0.5518
 6498WAT    EPW27799  -6.330   3.764   8.272 -0.5147 -0.4550 -0.6332
 6499WAT      O27800   5.087   0.591   7.142 -0.9080 -0.7105 -1.0646
 6499WAT     H127801   5.057   0.574   7.232  2.5336  0.9985  0.6244
 6499WAT     H227802   5.123   0.508   7.113 -0.8936 -0.9670 -0.3462
 6499WAT    EPW27803   5.088   0.578   7.150 -0.4523 -0.5189 -0.7470
 6500WAT      O27804   2.456   8.960   5.427  0.1018  0.7886 -0.1147
 6500WAT     H127805   2.403   8.969   5.506 -2.1814  1.7425 -1.6451
 6500WAT     H227806   2.545   8.946   5.459 -1.0177 -0.8921  2.6028
 6500WAT    EPW27807   2.461   8.959   5.442 -0.3470  0.6928  0.0420
 6501WAT      O27808   4.337   8.243   2.505 -0.5178 -0.0291  1.2323
 6501WAT     H127809   4.380   8.275   2.426  1.3822 -1.1811  1.7440
 6501WAT     H227810   4.351   8.312   2.570  0.5977 -0.3992  1.3959
 6501WAT    EPW27811   4.344   8.257   2.503 -0.1202 -0.2298  1.3214
 6502WAT      O27812   1.355   4.284   6.848  0.8075 -0.5167  0.0595
 6502WAT     H127813   1.286   4.334   6.805 -0.0805 -1.1300  0.7329
 6502WAT     H227814   1.404   4.349   6.898 -1.1914 -0.4413  2.0533
 6502WAT    EPW27815   1.352   4.299   6.849  0.4267 -0.5877  0.4113
 6503WAT      O27816   0.252  10.263   2.202 -0.2012 -0.0605  0.2475
 6503WAT     H127817   0.197  10.185   2.207  1.6375 -1.3873  1.0489
 6503WAT     H227818   0.251  10.300   2.290 -1.6692  1.3366 -0.2985
 6503WAT    EPW27819   0.245  10.258   2.214 -0.1523 -0.0515  0.2812
 6504WAT      O27820  -0.346  10.309   0.686 -0.0948  0.9835  0.7385
 6504WAT     H127821  -0.367  10.381   0.746 -0.7011  0.4111  1.2323
 6504WAT     H227822  -0.319  10.237   0.744  1.9875  1.2648  0.1919
 6504WAT    EPW27823  -0.345  10.309   0.702  0.0999  0.9446  0.7315
 6505WAT      O27824  -1.310   5.515   0.798  0.1281  0.5302 -0.2249
 6505WAT     H127825  -1.247   5.587   0.801 -0.4030  0.9821  0.6113
 6505WAT     H227826  -1.391   5.553   0.832  0.1273 -0.7346  1.3120
 6505WAT    EPW27827  -1.313   5.530   0.803  0.0580  0.4232  0.0881
 6506WAT      O27828   6.050   2.698   5.386  0.4689  0.0704 -0.1228
 6506WAT     H127829   6.116   2.629   5.397  0.3591 -0.1163 -0.6113
 6506WAT     H227830   6.064   2.756   5.460 -0.2248 -1.1223  0.9995
 6506WAT    EPW27831   6.061   2.696   5.397  0.3629 -0.1115 -0.0391
 6507WAT      O27832  -6.095   4.748   8.782  0.6111 -0.4089  0.7439
 6507WAT     H127833  -6.012   4.795   8.787  0.2828  0.4720 -1.1997
 6507WAT     H227834  -6.073   4.665   8.740  0.4126  0.2274 -0.6921
 6507WAT    EPW27835  -6.081   4.743   8.777  0.5414 -0.2089  0.2985
 6508WAT      O27836  -1.187   0.615   5.280 -0.1902  0.6686 -0.4692
 6508WAT     H127837  -1.179   0.531   5.324 -1.6796 -0.0325 -1.4456
 6508WAT     H227838  -1.231   0.595   5.198 -1.0296  2.4532 -0.5145
 6508WAT    EPW27839  -1.192   0.601   5.275 -0.4973  0.8115 -0.6039
 6509WAT      O27840  -0.610   6.652   0.290  0.2877  0.7213 -0.3985
 6509WAT     H127841  -0.661   6.633   0.369 -0.8764  0.9793 -1.0522
 6509WAT     H227842  -0.557   6.573   0.276  2.4521  1.6231  2.0154
 6509WAT    EPW27843  -0.610   6.639   0.299  0.4196  0.8743 -0.1664
 6510WAT      O27844   6.882   3.681   1.680 -0.3876 -0.2750  0.0218
 6510WAT     H127845   6.808   3.713   1.733  1.4119  2.2739  1.1859
 6510WAT     H227846   6.897   3.749   1.616  3.5306  1.5866  2.5145
 6510WAT    EPW27847   6.874   3.694   1.679  0.3664  0.3068  0.5041
 6511WAT      O27848   6.778   1.261   4.227  0.0175 -0.2087 -1.2292
 6511WAT     H127849   6.850   1.249   4.166  0.9789 -0.0954 -0.1432
 6511WAT     H227850   6.819   1.296   4.306 -1.0141 -1.4876 -0.0842
 6511WAT    EPW27851   6.793   1.264   4.229  0.0083 -0.3625 -0.9348
 6512WAT      O27852   5.425   1.372   6.266 -0.0628  0.1311  0.5197
 6512WAT     H127853   5.503   1.426   6.252 -0.7286  0.3848 -3.0701
 6512WAT     H227854   5.451   1.309   6.333  2.7301  1.0909  0.4501
 6512WAT    EPW27855   5.439   1.371   6.273  0.2179  0.2912  0.0370
 6513WAT      O27856   0.057   8.466   4.449 -0.2715  0.2196 -0.3131
 6513WAT     H127857  -0.038   8.471   4.459 -0.1488  0.2265  1.0920
 6513WAT     H227858   0.087   8.556   4.459 -0.0352  0.0610  0.5380
 6513WAT    EPW27859   0.049   8.478   4.452 -0.2241  0.1998 -0.0157
 6514WAT      O27860  -0.070   1.332   6.490  0.1158  0.8553  0.0810
 6514WAT     H127861  -0.020   1.403   6.531 -0.4982  0.8508  0.8538
 6514WAT     H227862  -0.133   1.377   6.433 -1.3452  1.0387  1.7647
 6514WAT    EPW27863  -0.071   1.347   6.488 -0.1579  0.8789  0.4051
 6515WAT      O27864  -1.179  10.020   2.949 -0.1892 -0.4763  0.5584
 6515WAT     H127865  -1.138   9.954   2.893 -1.7650 -1.8406  0.9065
 6515WAT     H227866  -1.216  10.084   2.888  3.7233  1.7655  0.2523
 6515WAT    EPW27867  -1.179  10.020   2.934  0.1190 -0.3605  0.5639
 6516WAT      O27868   5.186   3.822   0.837  0.0952  0.7538 -0.9350
 6516WAT     H127869   5.182   3.914   0.863 -1.3219  0.2908  0.7088
 6516WAT     H227870   5.248   3.783   0.898 -1.2517  0.1560  0.0935
 6516WAT    EPW27871   5.194   3.829   0.849 -0.2694  0.6139 -0.5825
 6517WAT      O27872   4.797   2.015   4.617  0.4601  0.1257  0.5922
 6517WAT     H127873   4.793   1.942   4.678  1.8195  0.1590  0.7687
 6517WAT     H227874   4.879   2.060   4.640 -0.1562  1.4705  0.2387
 6517WAT    EPW27875   4.807   2.011   4.628  0.5579  0.3074  0.5689
 6518WAT      O27876   1.205   8.781   0.859  0.1158 -0.0482  0.1049
 6518WAT     H127877   1.254   8.734   0.927 -0.1121  1.1632  1.1360
 6518WAT     H227878   1.116   8.788   0.893 -0.5052 -1.1486 -1.2141
 6518WAT    EPW27879   1.200   8.776   0.873  0.0039 -0.0339  0.0670
 6519WAT      O27880  -5.017  10.297   2.429 -0.0631  0.1661 -0.0160
 6519WAT     H127881  -4.976  10.365   2.482  1.8218 -1.1953  0.3861
 6519WAT     H227882  -5.102  10.334   2.403 -1.0177  1.0135  3.7174
 6519WAT    EPW27883  -5.023  10.311   2.433  0.0596  0.0982  0.5294
 6520WAT      O27884   2.169   6.428   6.058 -0.1784  0.0589 -0.5358
 6520WAT     H127885   2.237   6.391   6.113 -1.3821 -1.7842 -0.2150
 6520WAT     H227886   2.197   6.408   5.968  1.4987  2.5815 -0.6959
 6520WAT    EPW27887   2.182   6.421   6.053 -0.1160  0.1485 -0.5145
 6521WAT      O27888  -1.684   8.144   7.243 -0.6016 -0.4925 -0.2064
 6521WAT     H127889  -1.624   8.162   7.171  1.0507 -0.1157  1.1998
 6521WAT     H227890  -1.771   8.168   7.209  0.3316  1.1835 -1.5359
 6521WAT    EPW27891  -1.688   8.149   7.229 -0.2606 -0.2217 -0.1965
 6522WAT      O27892   5.853   0.036   5.263 -0.6530 -0.7096 -0.8127
 6522WAT     H127893   5.922   0.022   5.198  1.5308  2.9131  0.4721
 6522WAT     H227894   5.841   0.130   5.266 -2.8281 -0.9453  1.9379
 6522WAT    EPW27895   5.861   0.046   5.254 -0.6518 -0.2629 -0.2804
 6523WAT      O27896   4.003   0.497   8.111  0.8860  0.4327  0.0450
 6523WAT     H127897   3.988   0.403   8.125 -4.0893  0.7215 -1.3309
 6523WAT     H227898   4.012   0.533   8.199 -0.1063 -1.0675  0.8029
 6523WAT    EPW27899   4.002   0.489   8.125  0.0987  0.2729 -0.0367
 6524WAT      O27900   4.149   6.084   4.945 -0.1826  0.3139  0.4177
 6524WAT     H127901   4.130   6.109   4.855  2.3194  1.7838  0.2198
 6524WAT     H227902   4.244   6.072   4.948 -0.4217 -1.9735  2.3617
 6524WAT    EPW27903   4.159   6.085   4.934  0.1159  0.2060  0.6480
 6525WAT      O27904  -0.736   9.705   0.597 -0.1699 -0.2937 -0.0487
 6525WAT     H127905  -0.691   9.623   0.618 -0.1012 -0.3622 -0.4627
 6525WAT     H227906  -0.677   9.750   0.537  0.1911  0.4536  0.8354
 6525WAT    EPW27907  -0.723   9.700   0.592 -0.1132 -0.2041  0.0133
 6526WAT      O27908   6.507   5.235   1.745 -0.1803  0.0934  0.3133
 6526WAT     H127909   6.578   5.196   1.695 -0.9561 -0.5869 -0.2761
 6526WAT     H227910   6.506   5.187   1.828 -0.8659 -0.9074 -0.2477
 6526WAT    EPW27911   6.516   5.223   1.750 -0.3729 -0.1283  0.1616
 6527WAT      O27912  -0.501   8.386   0.146  0.0080 -0.0405 -0.5472
 6527WAT     H127913  -0.532   8.322   0.211 -0.2314  0.3053 -0.3167
 6527WAT     H227914  -0.549   8.364   0.066 -1.1973  0.7651 -0.0798
 6527WAT    EPW27915  -0.512   8.374   0.144 -0.1825  0.1116 -0.4551
 6528WAT      O27916  -2.439   4.987   5.331 -0.3610 -0.0884  0.1019
 6528WAT     H127917  -2.433   5.081   5.349  1.2364  0.2269 -1.8146
 6528WAT     H227918  -2.348   4.958   5.324 -0.8178 -1.1188 -2.4149
 6528WAT    EPW27919  -2.426   4.996   5.333 -0.2106 -0.1829 -0.4828
 6529WAT      O27920  -0.030   1.756   6.068 -0.0930 -0.2332 -0.1263
 6529WAT     H127921  -0.050   1.826   6.006  0.5744 -0.7132 -0.9096
 6529WAT     H227922   0.042   1.709   6.027  1.2680  0.2234  1.6402
 6529WAT    EPW27923  -0.023   1.759   6.054  0.1746 -0.2363  0.0033
 6530WAT      O27924   1.983   4.483   1.118 -0.2658  0.2548 -0.4899
 6530WAT     H127925   2.027   4.402   1.146  0.1409 -0.2235 -2.3098
 6530WAT     H227926   1.940   4.458   1.036 -2.0337  1.3343  0.0722
 6530WAT    EPW27927   1.983   4.469   1.111 -0.4454  0.3343 -0.6558
 6531WAT      O27928  -1.352   8.734   6.423  0.0501  0.2383  0.6693
 6531WAT     H127929  -1.406   8.659   6.446  0.1668 -0.4135 -1.0024
 6531WAT     H227930  -1.414   8.802   6.397 -0.0306 -0.3209 -0.7038
 6531WAT    EPW27931  -1.367   8.733   6.422  0.0548  0.0782  0.2675
 6532WAT      O27932   0.248   3.333   8.338  0.4284 -1.0929 -0.3638
 6532WAT     H127933   0.211   3.254   8.299 -0.2925 -0.3317 -1.2693
 6532WAT     H227934   0.215   3.405   8.284  3.3859 -0.3547 -1.4186
 6532WAT    EPW27935   0.239   3.332   8.326  0.7234 -0.8950 -0.6227
 6533WAT      O27936  -4.404   6.854   5.709  0.2991  0.3323 -0.4350
 6533WAT     H127937  -4.499   6.848   5.725  0.0635  2.3980 -0.8429
 6533WAT     H227938  -4.372   6.766   5.727 -1.7971 -0.6016 -0.9314
 6533WAT    EPW27939  -4.413   6.842   5.713 -0.0086  0.4816 -0.5543
 6534WAT      O27940  -1.884   1.338   2.805  0.0960  0.2546 -0.8032
 6534WAT     H127941  -1.940   1.262   2.790  0.3562 -0.3038  0.8505
 6534WAT     H227942  -1.806   1.302   2.846 -1.0262  1.6321  2.9903
 6534WAT    EPW27943  -1.881   1.323   2.809 -0.0176  0.3626 -0.0848
 6535WAT      O27944   5.029   8.502   3.172 -0.4775 -0.2528 -0.2084
 6535WAT     H127945   5.085   8.440   3.219 -0.4509 -0.8037 -0.9584
 6535WAT     H227946   4.940   8.476   3.195 -0.5151 -1.3978 -1.5098
 6535WAT    EPW27947   5.025   8.491   3.181 -0.4792 -0.4764 -0.4790
 6536WAT      O27948   2.873   1.917   4.191  0.7613  0.6710  0.5976
 6536WAT     H127949   2.881   1.974   4.268  0.8176  0.0844  1.0350
 6536WAT     H227950   2.792   1.945   4.149  1.1344  1.5221  0.4315
 6536WAT    EPW27951   2.863   1.928   4.196  0.8179  0.7059  0.6332
 6537WAT      O27952   2.479  10.311   4.814  0.0134  0.0810  0.2820
 6537WAT     H127953   2.474  10.403   4.788 -1.3558  0.1814  0.8076
 6537WAT     H227954   2.391  10.277   4.801  0.5443 -1.2202 -0.0798
 6537WAT    EPW27955   2.467  10.318   4.809 -0.0970 -0.0772  0.3035
 6538WAT      O27956   3.570   0.232   1.359  0.0285 -1.0136 -0.2934
 6538WAT     H127957   3.522   0.290   1.418  0.5309  1.8937 -2.5550
 6538WAT     H227958   3.662   0.255   1.373  0.1667 -0.4096 -1.9774
 6538WAT    EPW27959   3.576   0.243   1.369  0.1129 -0.5505 -0.8138
 6539WAT      O27960   6.419   2.034   5.119 -0.5133 -0.4554 -0.2934
 6539WAT     H127961   6.333   2.075   5.104 -1.0721 -2.0804 -1.8378
 6539WAT     H227962   6.472   2.062   5.044  0.5564  0.9972  0.9330
 6539WAT    EPW27963   6.415   2.043   5.107 -0.4458 -0.4781 -0.3352
 6540WAT      O27964   4.745   8.706   3.202  0.1411 -0.9150  0.4413
 6540WAT     H127965   4.839   8.689   3.203  0.0091 -1.8307  2.4653
 6540WAT     H227966   4.722   8.721   3.294 -1.2433  2.1736 -0.2944
 6540WAT    EPW27967   4.754   8.705   3.214 -0.0589 -0.6285  0.6112
 6541WAT      O27968  -7.190  10.080   6.561 -0.1912  1.0408  0.6822
 6541WAT     H127969  -7.166  10.171   6.542 -2.4052  1.2998 -1.4438
 6541WAT     H227970  -7.115  10.029   6.531  0.5380  2.0955  0.6595
 6541WAT    EPW27971  -7.177  10.086   6.554 -0.3870  1.2140  0.3986
 6542WAT      O27972   2.617  10.122   2.713  0.0955 -0.0535  0.3353
 6542WAT     H127973   2.642  10.181   2.785 -0.5731  0.3321  0.2561
 6542WAT     H227974   2.651  10.165   2.635  1.7569 -0.9951  0.5005
 6542WAT    EPW27975   2.625  10.136   2.712  0.2264 -0.1268  0.3467
 6543WAT      O27976   3.713   8.115   2.503 -0.4693  0.1056 -0.1367
 6543WAT     H127977   3.690   8.065   2.425 -1.9117  1.9550 -0.9793
 6543WAT     H227978   3.631   8.123   2.552  0.1680 -0.0394  0.9876
 6543WAT    EPW27979   3.699   8.110   2.500 -0.5755  0.3300 -0.0995
 6544WAT      O27980   1.827   3.318   7.183 -0.2121  0.1537 -0.1488
 6544WAT     H127981   1.871   3.393   7.223 -0.6142 -0.4317  1.4810
 6544WAT     H227982   1.735   3.344   7.178 -0.3429 -0.1847  0.3651
 6544WAT    EPW27983   1.820   3.332   7.188 -0.2824  0.0318  0.1338
 6545WAT      O27984   1.038   3.747   6.517 -0.7636  0.7761  0.5301
 6545WAT     H127985   0.943   3.750   6.504 -0.6606  2.8990 -0.2541
 6545WAT     H227986   1.065   3.666   6.475 -1.9986  1.2619 -1.3731
 6545WAT    EPW27987   1.029   3.737   6.510 -0.9130  1.1203  0.1757
 6546WAT      O27988  -1.011  10.220   5.017  0.0269  0.5450  0.6560
 6546WAT     H127989  -1.082  10.169   5.057 -0.5090  1.2387  0.6204
 6546WAT     H227990  -0.931  10.185   5.056 -0.2859 -0.6688  0.2299
 6546WAT    EPW27991  -1.010  10.209   5.028 -0.0851  0.4764  0.5951
 6547WAT      O27992  -1.676   8.549   4.956  0.2660 -0.0835  0.7640
 6547WAT     H127993  -1.722   8.488   4.898 -1.2817  1.4275  0.3278
 6547WAT     H227994  -1.733   8.626   4.960  0.8576  0.3299  3.3907
 6547WAT    EPW27995  -1.690   8.551   4.949  0.1400  0.1702  1.0529
 6548WAT      O27996   1.750   8.903   0.079 -0.3301 -0.6635  0.0274
 6548WAT     H127997   1.753   8.989   0.121  1.5862 -0.8772  0.4114
 6548WAT     H227998   1.820   8.906   0.014  0.8465 -2.4625  1.1466
 6548WAT    EPW27999   1.759   8.915   0.076  0.0778 -0.9294  0.2256
 6549WAT      O28000   0.417  10.239   0.123  0.8352  0.2206 -0.0469
 6549WAT     H128001   0.357  10.307   0.093  2.2624  0.9770 -1.3303
 6549WAT     H228002   0.407  10.168   0.061 -0.2742 -0.5749  0.9958
 6549WAT    EPW28003   0.408  10.239   0.111  0.8771  0.2151 -0.0786
 6550WAT      O28004   0.436   5.495   5.430  0.3874  0.3084 -0.3986
 6550WAT     H128005   0.425   5.559   5.500 -1.4260  0.5661 -0.8617
 6550WAT     H228006   0.530   5.495   5.411  1.2590 -0.9448  3.0792
 6550WAT    EPW28007   0.447   5.503   5.436  0.2632  0.1771 -0.0010
 6551WAT      O28008  -4.424   6.117   8.720  0.3248 -0.1570  0.6225
 6551WAT     H128009  -4.355   6.108   8.654 -1.0567  0.3549 -0.9572
 6551WAT     H228010  -4.444   6.027   8.747 -0.6662 -0.5871 -1.3873
 6551WAT    EPW28011  -4.417   6.104   8.715  0.0119 -0.1464  0.1488
 6552WAT      O28012   0.590   3.581   1.092 -0.1282  0.3785 -0.1960
 6552WAT     H128013   0.559   3.669   1.114  0.5542  0.3559  0.8951
 6552WAT     H228014   0.669   3.569   1.144 -0.1101 -0.8164 -0.4672
 6552WAT    EPW28015   0.596   3.591   1.101 -0.0358  0.2179 -0.0879
 6553WAT      O28016   0.043   4.001   2.120 -0.4216 -0.4499  0.8230
 6553WAT     H128017  -0.039   4.028   2.161 -1.2989  2.2689 -2.2159
 6553WAT     H228018   0.017   3.969   2.033  1.6801  1.0833 -0.4785
 6553WAT    EPW28019   0.029   4.001   2.114 -0.2601  0.1109  0.2505
 6554WAT      O28020  -2.341   2.956   6.274  0.0974  1.1667  0.4536
 6554WAT     H128021  -2.320   2.979   6.184  2.7695 -1.8824  0.0860
 6554WAT     H228022  -2.358   2.861   6.271 -2.3733  1.4014  2.8160
 6554WAT    EPW28023  -2.341   2.946   6.262  0.1240  0.7955  0.7167
 6555WAT      O28024   1.868   4.644   7.432  0.3166 -0.1550  0.5297
 6555WAT     H128025   1.922   4.721   7.416  1.0767 -0.7828 -0.0171
 6555WAT     H228026   1.788   4.661   7.383 -0.5193  1.3094  2.2958
 6555WAT    EPW28027   1.865   4.656   7.423  0.3066 -0.0448  0.6907
 6556WAT      O28028  -0.794   8.958   7.749  0.5766 -0.0930  0.1891
 6556WAT     H128029  -0.730   8.958   7.820 -0.4751 -0.0085  1.1544
 6556WAT     H228030  -0.818   9.050   7.738  1.2052 -0.0181 -0.7441
 6556WAT    EPW28031  -0.788   8.970   7.757  0.5208 -0.0715  0.1934
 6557WAT      O28032  -0.680   2.005   0.480 -0.0252  0.1300  0.5093
 6557WAT     H128033  -0.741   1.963   0.421 -1.8679  2.2658  0.7753
 6557WAT     H228034  -0.600   1.952   0.474 -0.8980 -1.0188 -2.0940
 6557WAT    EPW28035  -0.677   1.993   0.472 -0.3833  0.2601  0.2010
 6558WAT      O28036  -3.445   2.726   8.534 -0.0458  0.0595 -0.4078
 6558WAT     H128037  -3.431   2.642   8.489  1.3312 -0.2721  0.5832
 6558WAT     H228038  -3.540   2.736   8.536 -0.2253  0.2198 -3.5861
 6558WAT    EPW28039  -3.456   2.716   8.528  0.1122  0.0370 -0.6962
 6559WAT      O28040  -2.411   8.595   2.620  0.5026 -0.2570  0.2698
 6559WAT     H128041  -2.316   8.599   2.610  0.6298 -0.7541  1.1560
 6559WAT     H228042  -2.429   8.635   2.705 -0.0091 -0.7797  0.4179
 6559WAT    EPW28043  -2.401   8.600   2.630  0.4519 -0.3920  0.4063
 6560WAT      O28044  -1.954   4.255   0.811  0.9033 -0.0203 -0.5271
 6560WAT     H128045  -1.916   4.185   0.758  2.3669 -0.2822  0.8261
 6560WAT     H228046  -1.916   4.244   0.898  0.0303  1.5752  0.1074
 6560WAT    EPW28047  -1.944   4.244   0.815  0.9812  0.1557 -0.2649
 6561WAT      O28048   5.049   3.019   1.923 -0.1034 -0.6278  0.6967
 6561WAT     H128049   4.986   3.010   1.852  0.0162 -3.0095  0.8111
 6561WAT     H228050   4.996   3.035   2.001 -0.3389  0.3038  0.3589
 6561WAT    EPW28051   5.034   3.020   1.924 -0.1190 -0.8191  0.6672
 6562WAT      O28052  -1.253   0.879   5.384 -1.1868 -0.6663  0.1125
 6562WAT     H128053  -1.228   0.790   5.361 -0.8698 -0.6546  0.4060
 6562WAT     H228054  -1.220   0.932   5.312 -0.8056 -0.7133  0.2477
 6562WAT    EPW28055  -1.245   0.875   5.372 -1.0946 -0.6710  0.1690
 6563WAT      O28056   7.722   1.276   1.824 -0.0919 -0.1153 -0.5198
 6563WAT     H128057   7.764   1.343   1.879 -0.1993 -0.5722  0.1400
 6563WAT     H228058   7.634   1.267   1.862 -0.5183  0.2669 -1.3981
 6563WAT    EPW28059   7.716   1.284   1.836 -0.1626 -0.1252 -0.5486
 6564WAT      O28060   7.392   0.159   4.084  0.1276  0.6583  0.4878
 6564WAT     H128061   7.448   0.227   4.124 -0.1133  1.1449  0.0154
 6564WAT     H228062   7.377   0.096   4.154  1.5729  0.3273  0.5256
 6564WAT    EPW28063   7.398   0.160   4.098  0.2866  0.6788  0.4303
 6565WAT      O28064  -0.728   4.070   6.334  0.3387 -0.2599  0.2512
 6565WAT     H128065  -0.782   4.058   6.412  0.5211 -2.0314  0.1428
 6565WAT     H228066  -0.723   3.983   6.295  2.5731  0.0126 -0.2025
 6565WAT    EPW28067  -0.734   4.057   6.339  0.6575 -0.4575  0.1771
 6566WAT      O28068  -0.678  10.380   6.329 -0.2069  0.0889 -0.1133
 6566WAT     H128069  -0.670  10.320   6.255 -0.3597 -0.5752  0.4050
 6566WAT     H228070  -0.762  10.357   6.370 -0.3479  0.7651 -0.0062
 6566WAT    EPW28071  -0.688  10.369   6.324 -0.2456  0.0911 -0.0310
 6567WAT      O28072   1.687   8.251   4.557 -0.1091 -0.2502 -0.1424
 6567WAT     H128073   1.679   8.156   4.545  0.4403 -0.2085 -0.8931
 6567WAT     H228074   1.608   8.286   4.516  0.0489 -0.3415 -0.5335
 6567WAT    EPW28075   1.675   8.243   4.550 -0.0158 -0.2565 -0.2930
 6568WAT      O28076   6.758   3.393   1.929  0.0406 -0.0893 -0.2320
 6568WAT     H128077   6.701   3.366   2.000 -1.1387 -0.4348 -1.2735
 6568WAT     H228078   6.721   3.476   1.899  0.4291 -0.0224 -0.5391
 6568WAT    EPW28079   6.746   3.401   1.934 -0.0639 -0.1261 -0.4098
 6569WAT      O28080   0.298   1.497   7.970  0.2405  0.4307  0.3754
 6569WAT     H128081   0.244   1.564   7.929  0.0402 -0.7197 -1.3225
 6569WAT     H228082   0.388   1.521   7.948  0.3649  1.4404  1.8285
 6569WAT    EPW28083   0.302   1.509   7.962  0.2305  0.4121  0.3431
 6570WAT      O28084   4.737   0.171   0.376  0.6141 -0.6397 -0.2252
 6570WAT     H128085   4.660   0.225   0.394 -0.2130 -1.7130 -0.4337
 6570WAT     H228086   4.812   0.229   0.393 -0.2143  0.1662  0.8256
 6570WAT    EPW28087   4.737   0.186   0.381  0.3958 -0.6750 -0.1141
 6571WAT      O28088   5.083   1.974   6.200 -0.4244 -0.1618 -0.3518
 6571WAT     H128089   4.992   1.942   6.201  0.0551 -1.6325  1.7718
 6571WAT     H228090   5.130   1.910   6.146 -0.3021 -0.5182  0.1705
 6571WAT    EPW28091   5.077   1.961   6.193 -0.3450 -0.4028 -0.0029
 6572WAT      O28092  -2.551   4.056   1.933  0.3929 -0.0557  0.0652
 6572WAT     H128093  -2.638   4.054   1.972 -0.4608 -0.9116 -1.7412
 6572WAT     H228094  -2.507   3.978   1.967  0.3275  0.1763  0.6918
 6572WAT    EPW28095  -2.556   4.046   1.942  0.2716 -0.1378 -0.0904
 6573WAT      O28096   1.039   2.580   2.899 -1.1007 -0.4050 -0.1383
 6573WAT     H128097   1.097   2.636   2.849  1.5407  0.6569  3.6499
 6573WAT     H228098   0.963   2.635   2.919 -0.0656  0.7625  0.7488
 6573WAT    EPW28099   1.036   2.594   2.895 -0.6158 -0.1110  0.4781
 6574WAT      O28100  -3.980   3.836   8.436 -0.0988 -0.2687  0.6299
 6574WAT     H128101  -3.926   3.807   8.510  1.0548 -1.1659 -0.5210
 6574WAT     H228102  -4.070   3.825   8.467  0.3084  1.2481  2.5948
 6574WAT    EPW28103  -3.984   3.830   8.450  0.1070 -0.1870  0.7372
 6575WAT      O28104  -5.535   8.316   5.653  0.4294  0.0225 -0.6633
 6575WAT     H128105  -5.562   8.357   5.736  0.2402 -1.3253 -0.0327
 6575WAT     H228106  -5.521   8.224   5.675  0.5786 -0.3234 -2.0959
 6575WAT    EPW28107  -5.537   8.310   5.667  0.4241 -0.2012 -0.7691
 6576WAT      O28108   1.253   3.940   5.568  0.0222  0.2699 -0.0226
 6576WAT     H128109   1.175   3.946   5.623 -0.7150  0.8077 -1.1166
 6576WAT     H228110   1.247   3.854   5.527  1.3863 -0.8258  1.8739
 6576WAT    EPW28111   1.242   3.930   5.570  0.1048  0.1963  0.0832
 6577WAT      O28112  -1.134   4.846   8.224 -0.3134  0.0762  0.3053
 6577WAT     H128113  -1.129   4.887   8.138  0.9886  0.0870  0.3644
 6577WAT     H228114  -1.181   4.764   8.208  1.1416 -0.6018 -0.7087
 6577WAT    EPW28115  -1.140   4.841   8.211  0.0502 -0.0119  0.1793
 6578WAT      O28116   3.259   3.543   5.325 -0.3881 -0.0447  0.2928
 6578WAT     H128117   3.288   3.563   5.414  0.6044 -0.1369  0.0019
 6578WAT     H228118   3.299   3.611   5.271 -1.5699  0.4372 -0.0034
 6578WAT    EPW28119   3.268   3.555   5.330 -0.4131  0.0067  0.2153
 6579WAT      O28120   5.835   6.222   1.773 -0.7720  0.2008  0.3419
 6579WAT     H128121   5.750   6.179   1.781  0.2800 -2.3816 -1.3143
 6579WAT     H228122   5.862   6.206   1.683  1.7496  0.3730  0.9966
 6579WAT    EPW28123   5.827   6.214   1.762 -0.3006 -0.1171  0.2098
 6580WAT      O28124   1.254   4.838   8.698  0.0072  0.2337 -0.0711
 6580WAT     H128125   1.213   4.752   8.708  0.8860 -0.4224 -1.7308
 6580WAT     H228126   1.278   4.863   8.787 -0.8448 -0.9271  0.5263
 6580WAT    EPW28127   1.252   4.830   8.711  0.0107 -0.0060 -0.2112
 6581WAT      O28128  -2.530   5.575   8.887  0.5350  0.2302 -0.0183
 6581WAT     H128129  -2.474   5.615   8.953  1.3691 -0.1324 -0.4857
 6581WAT     H228130  -2.549   5.488   8.921  0.8579  0.0905 -0.1904
 6581WAT    EPW28131  -2.525   5.569   8.900  0.6876  0.1640 -0.1025
 6582WAT      O28132  -0.566   3.302   4.250 -0.1311 -0.4975  0.7573
 6582WAT     H128133  -0.591   3.373   4.309  2.5438  0.4255  0.8927
 6582WAT     H228134  -0.554   3.226   4.307  1.4532  0.1427  1.3367
 6582WAT    EPW28135  -0.568   3.302   4.265  0.4307 -0.2912  0.8514
 6583WAT      O28136   7.576   4.941   1.752  0.2420  0.1845  0.4389
 6583WAT     H128137   7.564   4.958   1.658 -1.4045  1.7088  0.8705
 6583WAT     H228138   7.487   4.942   1.788  0.9582  1.5962  2.3127
 6583WAT    EPW28139   7.563   4.943   1.744  0.1192  0.5720  0.7430
 6584WAT      O28140   0.684   9.810   1.024 -0.5339 -0.3282  0.4805
 6584WAT     H128141   0.741   9.849   1.091 -2.4116  0.8188  1.5132
 6584WAT     H228142   0.606   9.784   1.072 -1.7956  0.1746 -1.2108
 6584WAT    EPW28143   0.681   9.812   1.039 -0.9480 -0.1111  0.3937
 6585WAT      O28144   5.790   6.497   1.763  0.5891  0.4514  0.1265
 6585WAT     H128145   5.790   6.402   1.758  0.3070  0.3983  0.9582
 6585WAT     H228146   5.775   6.516   1.856 -0.6686  1.3059 -0.2190
 6585WAT    EPW28147   5.788   6.487   1.775  0.3860  0.5572  0.1906
 6586WAT      O28148   2.379   7.539   2.923  0.0484 -0.2965  1.1934
 6586WAT     H128149   2.462   7.584   2.939  0.4078 -0.1443 -0.7909
 6586WAT     H228150   2.336   7.592   2.855 -1.1985 -0.9640  1.4326
 6586WAT    EPW28151   2.384   7.552   2.916 -0.0687 -0.3648  0.9632
 6587WAT      O28152  -2.764   9.955   2.885  0.0623  0.3554 -0.1008
 6587WAT     H128153  -2.764   9.867   2.850  0.0996  0.3335 -0.0475
 6587WAT     H228154  -2.826   9.952   2.958  0.7418  0.1347  0.4853
 6587WAT    EPW28155  -2.772   9.943   2.890  0.1569  0.3233 -0.0165
 6588WAT      O28156   2.470   5.223   4.647 -0.1285 -0.0348 -1.0101
 6588WAT     H128157   2.484   5.179   4.731  0.2949  0.1961 -0.9565
 6588WAT     H228158   2.444   5.312   4.670 -0.3765 -0.0782 -1.1227
 6588WAT    EPW28159   2.469   5.229   4.661 -0.1054 -0.0100 -1.0178
 6589WAT      O28160  -1.443   9.301   7.713  0.0947 -0.7864 -0.3429
 6589WAT     H128161  -1.458   9.230   7.775 -3.3749  0.3770  0.3224
 6589WAT     H228162  -1.429   9.257   7.630  1.4991 -2.2825  0.6169
 6589WAT    EPW28163  -1.443   9.286   7.711 -0.1777 -0.8302 -0.1285
 6590WAT      O28164   5.556   4.909   2.689  0.4437 -0.2623  0.6980
 6590WAT     H128165   5.630   4.890   2.747 -0.0357 -0.0618  1.3974
 6590WAT     H228166   5.524   4.994   2.720  0.9371  0.4507 -0.6653
 6590WAT    EPW28167   5.561   4.918   2.701  0.4456 -0.1419  0.6105
 6591WAT      O28168   1.726   9.862   1.331 -0.5654 -0.0237 -0.6614
 6591WAT     H128169   1.809   9.881   1.374 -0.9182 -2.5823  1.3680
 6591WAT     H228170   1.744   9.786   1.276 -0.9817  1.0589 -2.3673
 6591WAT    EPW28171   1.739   9.855   1.329 -0.6668 -0.2179 -0.6187
 6592WAT      O28172   5.939   3.328   3.933 -0.0319  0.0211  0.4408
 6592WAT     H128173   5.935   3.423   3.946  0.6552 -0.3964  6.2945
 6592WAT     H228174   6.019   3.314   3.883 -0.8986  2.4340 -1.8779
 6592WAT    EPW28175   5.949   3.338   3.928 -0.0556  0.2843  0.9071
 6593WAT      O28176  -1.572   1.599   4.527  0.4817  1.2160  0.3359
 6593WAT     H128177  -1.612   1.645   4.600 -1.7036  0.3789 -0.2633
 6593WAT     H228178  -1.585   1.658   4.452  2.5325  1.9840  0.5094
 6593WAT    EPW28179  -1.579   1.613   4.526  0.4640  1.2069  0.2797
 6594WAT      O28180   0.683   3.904   6.754  0.4974  0.0377 -0.1353
 6594WAT     H128181   0.661   3.874   6.666  0.4751 -1.8153  0.4704
 6594WAT     H228182   0.604   3.949   6.784 -0.8922 -2.4911  0.2641
 6594WAT    EPW28183   0.670   3.906   6.746  0.3112 -0.5401 -0.0026
 6595WAT      O28184   4.122   1.266   1.390  0.6146  0.2709  0.4067
 6595WAT     H128185   4.147   1.270   1.482  0.7685  0.8778  0.3414
 6595WAT     H228186   4.056   1.335   1.380  0.6857  0.2883  0.0353
 6595WAT    EPW28187   4.116   1.275   1.401  0.6444  0.3532  0.3491
 6596WAT      O28188   1.345   4.064   6.053 -0.1297 -0.0584  0.4048
 6596WAT     H128189   1.337   4.073   5.958  3.3331  0.3722  0.0244
 6596WAT     H228190   1.434   4.095   6.073 -0.8824  0.3261  3.8711
 6596WAT    EPW28191   1.356   4.069   6.043  0.2277  0.0489  0.8118
 6597WAT      O28192   6.286   6.092   1.688  0.3298  0.0237 -0.2740
 6597WAT     H128193   6.373   6.126   1.709  0.7323  1.2447 -3.4092
 6597WAT     H228194   6.237   6.169   1.657 -2.3153 -0.4083  2.4061
 6597WAT    EPW28195   6.291   6.107   1.687  0.0339  0.1278 -0.3340
 6598WAT      O28196   5.597   4.296   3.643  0.0641 -0.2574  0.3430
 6598WAT     H128197   5.568   4.306   3.552  0.0943 -0.4702  0.3102
 6598WAT     H228198   5.519   4.318   3.695  0.3626  0.9644  0.2879
 6598WAT    EPW28199   5.583   4.300   3.638  0.1073 -0.1242  0.3314
 6599WAT      O28200  -3.200   7.252   2.575 -0.1334  0.0789  0.7244
 6599WAT     H128201  -3.186   7.336   2.619  1.7031 -0.3869  1.0934
 6599WAT     H228202  -3.147   7.189   2.625 -2.8854 -1.7442  1.6475
 6599WAT    EPW28203  -3.191   7.254   2.588 -0.2542 -0.2229  0.8949
 6600WAT      O28204  -2.039   3.134   5.400  0.1802  0.6531  0.9611
 6600WAT     H128205  -2.035   3.085   5.318 -2.1332 -0.5293  1.4625
 6600WAT     H228206  -1.986   3.212   5.384 -0.1959  0.4585 -1.6585
 6600WAT    EPW28207  -2.031   3.138   5.387 -0.1746  0.4714  0.6816
 6601WAT      O28208   3.991   3.429   3.348 -0.1176  0.6163 -0.6539
 6601WAT     H128209   3.918   3.491   3.360  0.8073  1.7612 -0.7615
 6601WAT     H228210   4.037   3.431   3.432 -1.1652 -1.4535  0.0488
 6601WAT    EPW28211   3.987   3.438   3.361 -0.1338  0.4944 -0.5755
 6602WAT      O28212  -0.533   4.671   2.930  0.3685  0.3334 -0.2563
 6602WAT     H128213  -0.562   4.595   2.881  2.0624 -0.4820 -0.0607
 6602WAT     H228214  -0.509   4.636   3.016  0.8391  1.1445 -0.0487
 6602WAT    EPW28215  -0.534   4.656   2.935  0.6540  0.3328 -0.2031
 6603WAT      O28216   4.157   2.061   3.432  0.2446  0.7522 -0.5134
 6603WAT     H128217   4.164   2.124   3.503  1.4985  2.5662 -2.1582
 6603WAT     H228218   4.083   2.092   3.379 -1.2188 -1.0517  0.3652
 6603WAT    EPW28219   4.148   2.073   3.434  0.2172  0.7535 -0.6144
 6604WAT      O28220   3.872   8.232   5.900  0.1894  0.1669  0.4214
 6604WAT     H128221   3.818   8.232   5.979  0.2555 -0.6266  0.4685
 6604WAT     H228222   3.920   8.315   5.904  1.7238 -0.7388  2.2592
 6604WAT    EPW28223   3.871   8.243   5.911  0.4007 -0.0572  0.6702
 6605WAT      O28224   3.466   7.429   3.911  0.3133  0.1089 -0.4485
 6605WAT     H128225   3.518   7.440   3.831 -0.6016 -0.9784 -1.2154
 6605WAT     H228226   3.419   7.347   3.898 -2.8342  1.7787 -0.4979
 6605WAT    EPW28227   3.467   7.420   3.898 -0.2226  0.1857 -0.5561
 6606WAT      O28228   3.570   7.999   0.343 -0.0767 -0.8976 -0.1728
 6606WAT     H128229   3.483   8.036   0.356 -0.5019 -2.0686  0.4979
 6606WAT     H228230   3.608   8.052   0.273 -1.1835 -0.1289 -0.2262
 6606WAT    EPW28231   3.563   8.011   0.336 -0.2788 -0.9503 -0.0914
 6607WAT      O28232   5.316   8.377   2.979 -0.1332 -0.0839 -1.6962
 6607WAT     H128233   5.350   8.288   2.979 -0.1831 -0.1026 -2.1948
 6607WAT     H228234   5.221   8.366   2.992 -0.1808 -0.1214 -2.0618
 6607WAT    EPW28235   5.308   8.364   2.981 -0.1459 -0.0916 -1.8102
 6608WAT      O28236   1.503  10.235   6.491 -0.1530  1.0146 -0.6484
 6608WAT     H128237   1.441  10.182   6.441  0.7194  2.9455 -4.1628
 6608WAT     H228238   1.579  10.179   6.502 -1.3059 -0.3242  0.9598
 6608WAT    EPW28239   1.505  10.221   6.485 -0.1900  1.0924 -0.8998
 6609WAT      O28240  -3.660   8.267   3.663 -0.5222 -0.1719 -0.2305
 6609WAT     H128241  -3.658   8.237   3.572 -1.0232  0.9252 -0.6122
 6609WAT     H228242  -3.654   8.187   3.714 -1.5371 -0.9056 -1.2233
 6609WAT    EPW28243  -3.659   8.252   3.658 -0.7222 -0.1240 -0.4117
 6610WAT      O28244   3.206   1.991   7.150  0.7847 -0.1000  0.5688
 6610WAT     H128245   3.223   2.065   7.092  0.7743  1.6686  2.7128
 6610WAT     H228246   3.144   2.025   7.215  1.6996 -1.6017  2.3213
 6610WAT    EPW28247   3.200   2.005   7.151  0.9040 -0.0648  1.0827
 6611WAT      O28248   1.781   9.625   5.824  0.3866  0.7152 -0.7126
 6611WAT     H128249   1.752   9.711   5.794  0.1169  0.4578 -1.2016
 6611WAT     H228250   1.860   9.608   5.774 -0.7607 -0.2794 -2.2869
 6611WAT    EPW28251   1.787   9.634   5.814  0.1998  0.5503 -0.9847
 6612WAT      O28252   5.834   1.357   3.406  0.0351  0.1150  0.1218
 6612WAT     H128253   5.873   1.279   3.367 -1.2959  0.0832 -1.1888
 6612WAT     H228254   5.784   1.324   3.480  0.9746 -0.0376  0.7134
 6612WAT    EPW28255   5.833   1.343   3.411 -0.0165  0.0907  0.0269
 6613WAT      O28256  -6.743   9.213   6.637  0.0484  0.6242  0.1873
 6613WAT     H128257  -6.749   9.137   6.695 -1.6100 -0.8626 -1.7778
 6613WAT     H228258  -6.753   9.288   6.695 -0.1178 -0.7117  1.9833
 6613WAT    EPW28259  -6.745   9.213   6.652 -0.1924  0.2518  0.1650
 6614WAT      O28260   2.756   0.183   3.873  0.0814  0.2735 -0.6189
 6614WAT     H128261   2.742   0.094   3.840  2.2894 -0.2721 -0.2591
 6614WAT     H228262   2.758   0.173   3.968  0.8841  0.5999 -0.5988
 6614WAT    EPW28263   2.754   0.170   3.881  0.4785  0.2446 -0.5689
 6615WAT      O28264  -3.591   6.981   7.035 -0.5084 -0.0000  0.3657
 6615WAT     H128265  -3.662   6.917   7.035  0.9377 -1.6462  0.4315
 6615WAT     H228266  -3.633   7.062   7.065 -2.0783 -1.2524  1.7442
 6615WAT    EPW28267  -3.606   6.983   7.039 -0.5248 -0.3824  0.5562
 6616WAT      O28268   5.108   8.447   2.551  0.6777  0.4932  0.3649
 6616WAT     H128269   5.116   8.541   2.569 -1.8452  0.2405  3.7870
 6616WAT     H228270   5.184   8.409   2.594  1.8504  0.9022 -1.2510
 6616WAT    EPW28271   5.119   8.455   2.559  0.4997  0.5140  0.6031
 6617WAT      O28272   3.651   0.778   7.499  0.0110 -0.3347  0.0644
 6617WAT     H128273   3.582   0.720   7.532  0.2607 -0.0515  1.1126
 6617WAT     H228274   3.630   0.864   7.536  1.0718 -0.3046  0.6466
 6617WAT    EPW28275   3.639   0.781   7.508  0.1838 -0.2934  0.2794
 6618WAT      O28276   6.554   7.555   1.823 -0.0090  0.6810 -0.7256
 6618WAT     H128277   6.551   7.582   1.915  1.2281 -0.5625 -0.2960
 6618WAT     H228278   6.628   7.603   1.786  0.9207 -0.5353 -0.4758
 6618WAT    EPW28279   6.563   7.565   1.830  0.2768  0.3564 -0.6360
 6619WAT      O28280  -4.642   8.071   8.946 -0.0816  0.2204  0.0923
 6619WAT     H128281  -4.585   8.040   9.016  1.5382  1.5121 -0.5861
 6619WAT     H228282  -4.718   8.012   8.948 -0.9307  1.2112  3.9748
 6619WAT    EPW28283  -4.644   8.059   8.955  0.0200  0.5212  0.5150
 6620WAT      O28284  -0.575   8.988   2.441  0.2203 -0.3433 -0.1235
 6620WAT     H128285  -0.591   8.966   2.349  0.6882 -4.0440  0.5371
 6620WAT     H228286  -0.661   9.018   2.473 -0.1528  0.1589 -1.4953
 6620WAT    EPW28287  -0.589   8.989   2.433  0.2328 -0.7648 -0.2173
 6621WAT      O28288  -2.912   2.556   4.697  0.4349 -0.0938 -0.0268
 6621WAT     H128289  -2.916   2.515   4.611  1.8134 -0.0610 -0.1209
 6621WAT     H228290  -2.985   2.516   4.746 -0.5382  0.1025 -1.2759
 6621WAT    EPW28291  -2.922   2.545   4.692  0.4884 -0.0638 -0.2041
 6622WAT      O28292  -2.502   4.306   8.586  0.8492  0.4688 -0.9930
 6622WAT     H128293  -2.574   4.367   8.605 -0.6619 -1.5035 -0.0344
 6622WAT     H228294  -2.544   4.221   8.576  3.2172 -1.2291  1.9211
 6622WAT    EPW28295  -2.517   4.303   8.587  0.9623 -0.0150 -0.4826
 6623WAT      O28296   2.711  10.115   6.615 -0.4293 -0.4219 -1.1356
 6623WAT     H128297   2.724  10.194   6.668  0.8682  0.5576 -2.7948
 6623WAT     H228298   2.750  10.045   6.666 -2.1246 -0.1514  0.6448
 6623WAT    EPW28299   2.718  10.116   6.628 -0.4818 -0.2570 -1.1196
 6624WAT      O28300   1.764   4.448   8.213  0.1905 -0.0550  0.5570
 6624WAT     H128301   1.821   4.372   8.202  1.1350  0.5130  1.3389
 6624WAT     H228302   1.727   4.463   8.126 -0.1933 -1.5269  0.4468
 6624WAT    EPW28303   1.767   4.440   8.200  0.2645 -0.1743  0.6461
 6625WAT      O28304   2.643   9.219   5.107  0.2974 -0.1028  0.2618
 6625WAT     H128305   2.696   9.271   5.047  0.3013  1.4915  1.5705
 6625WAT     H228306   2.587   9.283   5.152 -1.9807 -1.5840 -0.2613
 6625WAT    EPW28307   2.642   9.234   5.105 -0.0026 -0.0877  0.3655
 6626WAT      O28308   1.559   8.497   8.553  0.2017 -0.2525 -0.1365
 6626WAT     H128309   1.586   8.580   8.514 -0.5826  0.7469  1.3292
 6626WAT     H228310   1.464   8.498   8.546 -0.0318  0.2257  2.1432
 6626WAT    EPW28311   1.550   8.508   8.547  0.0675 -0.0577  0.3576
 6627WAT      O28312   1.006   5.602   4.943  0.0116  0.1262 -0.0196
 6627WAT     H128313   1.087   5.574   4.901 -0.7912 -0.2393 -1.3654
 6627WAT     H228314   0.988   5.534   5.009  0.2357 -0.3465 -0.4430
 6627WAT    EPW28315   1.014   5.589   4.946 -0.0648  0.0157 -0.2530
 6628WAT      O28316  -0.366   0.473   5.354  0.0012 -0.4174 -0.6708
 6628WAT     H128317  -0.390   0.535   5.423  1.4179 -1.6167  0.9786
 6628WAT     H228318  -0.432   0.404   5.359 -1.8825  1.0873 -2.8516
 6628WAT    EPW28319  -0.378   0.472   5.364 -0.0604 -0.3771 -0.7408
 6629WAT      O28320   0.159   4.385   5.008 -0.7581 -0.1369 -0.5318
 6629WAT     H128321   0.167   4.295   4.978  0.6951  0.4651 -2.1209
 6629WAT     H228322   0.072   4.390   5.047 -1.8050 -1.6505 -2.4847
 6629WAT    EPW28323   0.149   4.374   5.009 -0.7045 -0.2573 -0.9987
 6630WAT      O28324   7.181   8.783   0.285  0.1441  0.0733  0.6210
 6630WAT     H128325   7.156   8.722   0.215  0.9105  1.4857 -0.9768
 6630WAT     H228326   7.255   8.831   0.249  0.1061  1.3652  2.1451
 6630WAT    EPW28327   7.187   8.782   0.271  0.2403  0.4296  0.6113
 6631WAT      O28328   7.579   4.179   1.107  0.0467 -0.0753 -0.1188
 6631WAT     H128329   7.539   4.102   1.147 -0.0803  0.8751  1.7083
 6631WAT     H228330   7.508   4.243   1.101  0.3491  0.2093 -0.7742
 6631WAT    EPW28331   7.564   4.177   1.111  0.0699  0.0875  0.0358
 6632WAT      O28332   8.643   1.381   0.580 -0.4416  0.4658 -0.4086
 6632WAT     H128333   8.729   1.422   0.574 -0.0366  0.2563  2.6753
 6632WAT     H228334   8.581   1.453   0.564  0.2543  0.8528 -1.4700
 6632WAT    EPW28335   8.646   1.396   0.577 -0.2961  0.4892 -0.1418
 6633WAT      O28336   2.588   2.847   2.277 -0.1525  0.3316  0.4110
 6633WAT     H128337   2.564   2.772   2.222  2.4908  0.7199 -1.4478
 6633WAT     H228338   2.505   2.893   2.290 -1.1887 -0.6841 -1.9067
 6633WAT    EPW28339   2.574   2.843   2.271  0.0595  0.2489 -0.1398
 6634WAT      O28340  -2.187   6.200   1.379  0.3432 -0.2670  0.1462
 6634WAT     H128341  -2.156   6.118   1.342  0.6800 -0.0534 -0.0533
 6634WAT     H228342  -2.178   6.189   1.474  1.6831  0.0304  0.0765
 6634WAT    EPW28343  -2.182   6.188   1.387  0.5643 -0.1996  0.1107
 6635WAT      O28344   0.375   4.937   3.854 -0.1600 -0.3271  0.0533
 6635WAT     H128345   0.411   4.857   3.817 -0.9582  0.6033 -3.0340
 6635WAT     H228346   0.366   4.919   3.947  2.4347 -2.7224 -0.0582
 6635WAT    EPW28347   0.378   4.924   3.861  0.0769 -0.5205 -0.3686
 6636WAT      O28348   1.902   1.158   4.199 -0.5812 -0.5785 -0.1854
 6636WAT     H128349   1.913   1.146   4.293  2.3149  2.3858  0.0475
 6636WAT     H228350   1.930   1.248   4.183 -4.2668  0.2359 -3.4926
 6636WAT    EPW28351   1.907   1.168   4.209 -0.6853 -0.0800 -0.5908
 6637WAT      O28352   6.921   3.552   3.149 -0.1188  0.4886 -0.6397
 6637WAT     H128353   6.885   3.507   3.072 -0.5314  0.1533 -0.2571
 6637WAT     H228354   7.009   3.578   3.123  1.5161 -3.4945  0.2059
 6637WAT    EPW28355   6.928   3.550   3.136  0.0424 -0.0811 -0.4777
 6638WAT      O28356  -0.097   1.303   5.666  0.5707  0.5380 -0.3218
 6638WAT     H128357  -0.157   1.241   5.708  1.3710  1.5719  2.6216
 6638WAT     H228358  -0.039   1.249   5.613 -0.2700 -0.9447  0.2140
 6638WAT    EPW28359  -0.097   1.288   5.665  0.5654  0.4787  0.1371
 6639WAT      O28360   7.235   4.692   1.921 -0.3441 -0.1909  0.4290
 6639WAT     H128361   7.300   4.648   1.867 -0.3056 -0.8607  1.0163
 6639WAT     H228362   7.226   4.779   1.881 -0.9221 -0.9388 -1.1608
 6639WAT    EPW28363   7.242   4.698   1.909 -0.4153 -0.3779  0.2968
 6640WAT      O28364  -1.171   7.621   6.066  0.2448 -0.3669  0.3276
 6640WAT     H128365  -1.162   7.687   6.134  2.4109 -0.9247  0.6670
 6640WAT     H228366  -1.163   7.670   5.984 -4.4173  0.6305  0.1966
 6640WAT    EPW28367  -1.169   7.636   6.064 -0.0845 -0.3090  0.3550
 6641WAT      O28368   0.087   6.765   6.794  0.2112 -0.6326  0.3690
 6641WAT     H128369   0.010   6.739   6.744  0.6564 -0.6595 -0.3268
 6641WAT     H228370   0.078   6.719   6.878 -2.0160  1.6598  1.4998
 6641WAT    EPW28371   0.076   6.755   6.798 -0.0238 -0.3338  0.4263
 6642WAT      O28372   3.590   9.582   4.672  0.0100  0.1735  0.3254
 6642WAT     H128373   3.601   9.616   4.583  1.0081  1.1698  0.8137
 6642WAT     H228374   3.496   9.565   4.679 -0.3541  1.7866 -0.3140
 6642WAT    EPW28375   3.579   9.584   4.661  0.0937  0.5178  0.3054
 6643WAT      O28376  -2.738   9.102   2.987  0.3204  0.3388 -0.2427
 6643WAT     H128377  -2.652   9.072   3.017  0.0782 -1.6763 -1.3694
 6643WAT     H228378  -2.732   9.100   2.891 -0.5182  1.6481 -0.3480
 6643WAT    EPW28379  -2.726   9.098   2.978  0.1777  0.2451 -0.4052
 6644WAT      O28380   5.237   6.313   1.406  0.0459 -0.2949  0.3628
 6644WAT     H128381   5.234   6.398   1.451 -1.3006  1.8429 -3.3114
 6644WAT     H228382   5.145   6.295   1.384  0.1590 -3.3503  1.8956
 6644WAT    EPW28383   5.224   6.322   1.409 -0.1168 -0.4160  0.0803
 6645WAT      O28384  -3.428   5.995   8.704  0.3761 -0.3268 -0.1210
 6645WAT     H128385  -3.513   6.016   8.664  0.4911  1.1247  0.3518
 6645WAT     H228386  -3.370   6.065   8.675  0.6882  0.2840  1.8139
 6645WAT    EPW28387  -3.432   6.007   8.695  0.4323 -0.0548  0.1969
 6646WAT      O28388  -4.413   8.812   8.553 -0.6596  0.8807 -0.0930
 6646WAT     H128389  -4.428   8.822   8.647 -1.4611 -1.7086  0.1461
 6646WAT     H228390  -4.396   8.718   8.542  0.0975  1.2313 -2.4615
 6646WAT    EPW28391  -4.413   8.801   8.564 -0.6652  0.5856 -0.3738
 6647WAT      O28392   5.783   6.853   0.319 -0.0950  0.2294 -0.3204
 6647WAT     H128393   5.865   6.883   0.278  1.7170 -1.4503  1.8397
 6647WAT     H228394   5.734   6.813   0.247  0.5514  1.9984 -1.8352
 6647WAT    EPW28395   5.787   6.852   0.304  0.2294  0.2413 -0.2353
 6648WAT      O28396   2.338   8.216   6.853 -0.9457  0.0531  0.2727
 6648WAT     H128397   2.331   8.195   6.760  3.0187  2.0896 -0.7214
 6648WAT     H228398   2.310   8.137   6.898  0.2339 -2.2765 -2.7565
 6648WAT    EPW28399   2.333   8.203   6.847 -0.2673  0.0148 -0.2580
 6649WAT      O28400  -3.122   5.776   3.821 -0.0986 -0.5314 -0.2470
 6649WAT     H128401  -3.128   5.681   3.833 -0.8507 -0.3250  1.2604
 6649WAT     H228402  -3.210   5.807   3.840  0.0987  0.4716 -0.9110
 6649WAT    EPW28403  -3.134   5.767   3.825 -0.1719 -0.3717 -0.1358
 6650WAT      O28404  -4.317   8.633   3.909  0.1092  0.1563 -0.2309
 6650WAT     H128405  -4.344   8.645   4.000 -0.0508 -2.0217  0.0663
 6650WAT     H228406  -4.224   8.658   3.908 -0.1374  1.1297  0.2843
 6650WAT    EPW28407  -4.308   8.638   3.921  0.0556 -0.0024 -0.1237
 6651WAT      O28408   4.732   2.538   0.078 -0.1397 -0.1926 -0.0408
 6651WAT     H128409   4.661   2.557   0.139  0.6591 -0.5536  1.0346
 6651WAT     H228410   4.811   2.544   0.131  0.4708 -2.2873 -0.5979
 6651WAT    EPW28411   4.733   2.541   0.093  0.0460 -0.5165  0.0275
 6652WAT      O28412   5.398   1.352   7.560  0.2217  0.3357  0.1794
 6652WAT     H128413   5.367   1.375   7.648  0.7878  1.0445  0.2043
 6652WAT     H228414   5.493   1.350   7.568  0.2296 -0.7452 -0.1487
 6652WAT    EPW28415   5.406   1.355   7.573  0.2973  0.2866  0.1395
 6653WAT      O28416   3.550   1.485   4.022  1.0038 -1.0587 -0.5687
 6653WAT     H128417   3.641   1.513   4.019  1.1875 -1.7099 -1.3292
 6653WAT     H228418   3.524   1.479   3.930  1.0592 -3.6083 -0.4970
 6653WAT    EPW28419   3.559   1.488   4.010  1.0353 -1.4808 -0.6595
 6654WAT      O28420   4.004   2.092   0.483  0.1786 -0.5400  0.3655
 6654WAT     H128421   3.917   2.116   0.452  0.2557 -2.7851 -1.8181
 6654WAT     H228422   4.031   2.166   0.538 -1.9069  1.5344 -1.2352
 6654WAT    EPW28423   3.996   2.105   0.486 -0.0862 -0.5624 -0.1336
 6655WAT      O28424   0.365   7.190   8.978  0.0474 -0.0826  0.3266
 6655WAT     H128425   0.302   7.127   9.015  0.4949 -0.3170  0.7115
 6655WAT     H228426   0.319   7.229   8.904  0.1964 -1.7719 -0.7042
 6655WAT    EPW28427   0.350   7.186   8.973  0.1261 -0.3362  0.2413
 6656WAT      O28428  -1.700   0.384   7.103 -0.7058 -0.3380  0.3039
 6656WAT     H128429  -1.709   0.293   7.129  2.3804 -1.1922 -1.1917
 6656WAT     H228430  -1.663   0.428   7.180  1.3179 -1.2219 -0.1088
 6656WAT    EPW28431  -1.697   0.378   7.117 -0.0318 -0.5672  0.0520
 6657WAT      O28432   1.496   7.800   0.614 -1.1025 -0.4704 -0.5908
 6657WAT     H128433   1.447   7.794   0.696  0.6604  2.5013  0.8689
 6657WAT     H228434   1.574   7.747   0.629  0.8407  2.5508  1.1707
 6657WAT    EPW28435   1.500   7.792   0.627 -0.6137  0.3200 -0.1659
 6658WAT      O28436   1.201   6.270   8.553  0.1943  0.7887  0.1181
 6658WAT     H128437   1.154   6.212   8.493  0.2722  0.7137  0.1296
 6658WAT     H228438   1.292   6.241   8.548  0.0691  0.2179  0.9219
 6658WAT    EPW28439   1.207   6.258   8.545  0.1881  0.7036  0.2251
 6659WAT      O28440   5.479   6.097   3.074  0.4664 -0.2079 -0.2770
 6659WAT     H128441   5.491   6.011   3.034 -0.7557 -0.3309 -0.3981
 6659WAT     H228442   5.422   6.081   3.149  1.1469  0.3342  0.3789
 6659WAT    EPW28443   5.473   6.084   3.079  0.3951 -0.1526 -0.2065
 6660WAT      O28444   4.879   1.688   0.161  0.1934 -0.1095 -0.1118
 6660WAT     H128445   4.824   1.695   0.239  1.0836 -1.1386  0.6355
 6660WAT     H228446   4.822   1.647   0.096  0.0811 -1.2648  0.6837
 6660WAT    EPW28447   4.864   1.684   0.163  0.2959 -0.3976  0.0917
 6661WAT      O28448  -5.035   8.484   3.775 -0.1266 -0.1010 -0.6367
 6661WAT     H128449  -5.042   8.481   3.680 -1.2446 -1.9451 -0.5426
 6661WAT     H228450  -5.078   8.566   3.800  3.5720  2.5002 -1.8577
 6661WAT    EPW28451  -5.042   8.494   3.766  0.2136 -0.0014 -0.7852
 6662WAT      O28452   3.812   9.067   6.145  0.6327 -0.0922  0.3280
 6662WAT     H128453   3.811   9.151   6.100 -2.1852 -0.1726  0.0760
 6662WAT     H228454   3.784   9.087   6.235  0.2087 -0.7168  0.3401
 6662WAT    EPW28455   3.808   9.080   6.151  0.2050 -0.1850  0.2964
 6663WAT      O28456  -3.670   5.395   4.034  0.6593 -0.8465  0.1744
 6663WAT     H128457  -3.698   5.305   4.018  0.6288 -0.9848  0.9962
 6663WAT     H228458  -3.588   5.403   3.986  1.9751 -2.0978  2.1140
 6663WAT    EPW28459  -3.663   5.384   4.025  0.8287 -1.0297  0.5386
 6664WAT      O28460   2.746   0.551   6.015  0.5361 -0.4303 -0.3036
 6664WAT     H128461   2.813   0.529   6.079 -0.7565 -0.8985  0.9338
 6664WAT     H228462   2.713   0.466   5.985 -1.2679 -0.2554  1.0386
 6664WAT    EPW28463   2.750   0.537   6.019  0.1277 -0.4690  0.0367
 6665WAT      O28464   0.372   3.630   5.733  0.4157 -0.0788 -0.4422
 6665WAT     H128465   0.331   3.715   5.752  0.5830  0.7949 -3.4413
 6665WAT     H228466   0.457   3.652   5.696  0.9918 -1.6412 -0.1166
 6665WAT    EPW28467   0.377   3.645   5.731  0.5138 -0.1696 -0.7946
 6666WAT      O28468  -1.028   9.846   7.773  0.6402  0.0753 -0.2934
 6666WAT     H128469  -0.968   9.907   7.816  1.3306  0.3592 -1.5946
 6666WAT     H228470  -1.110   9.895   7.765  1.4082  1.1766 -2.0154
 6666WAT    EPW28471  -1.031   9.860   7.778  0.8326  0.2580 -0.6921
 6667WAT      O28472  -0.850   3.213   3.583  0.3652 -0.0656  0.3842
 6667WAT     H128473  -0.852   3.208   3.487  1.1592  0.1535  0.3426
 6667WAT     H228474  -0.907   3.142   3.612 -1.4730  1.0808 -0.2509
 6667WAT    EPW28475  -0.858   3.203   3.574  0.2275  0.1146  0.2950
 6668WAT      O28476   4.375   3.307   6.221 -0.3973 -0.0314  0.1312
 6668WAT     H128477   4.285   3.341   6.225 -0.2561  0.4758 -0.7891
 6668WAT     H228478   4.364   3.212   6.216 -0.9850  0.0879 -1.9344
 6668WAT    EPW28479   4.362   3.299   6.221 -0.4561  0.0511 -0.2627
 6669WAT      O28480  -4.006   2.384   8.835 -0.5528 -0.8378  0.4483
 6669WAT     H128481  -4.078   2.368   8.897 -1.9439 -1.7157 -1.3053
 6669WAT     H228482  -4.025   2.326   8.761  1.0663  0.1504 -0.7992
 6669WAT    EPW28483  -4.018   2.374   8.834 -0.5226 -0.8231  0.0525
 6670WAT      O28484   6.701   2.944   4.677 -0.4806  0.4306  0.3051
 6670WAT     H128485   6.719   2.948   4.771 -1.7630 -0.5304  0.6287
 6670WAT     H228486   6.614   2.983   4.667 -1.0827 -0.9441 -0.2171
 6670WAT    EPW28487   6.692   2.949   4.688 -0.7288  0.1225  0.2789
 6671WAT      O28488   7.481   0.710   3.713  0.3084  0.3190  0.0826
 6671WAT     H128489   7.421   0.641   3.741 -1.6726  1.9578  0.1557
 6671WAT     H228490   7.568   0.677   3.734 -0.6336 -1.7266  0.9853
 6671WAT    EPW28491   7.484   0.697   3.720 -0.0770  0.2654  0.2114
 6672WAT      O28492   3.599   2.772   2.672  0.3731  1.0068  0.0538
 6672WAT     H128493   3.550   2.697   2.706  0.4692  2.0372  2.6683
 6672WAT     H228494   3.545   2.805   2.599 -0.5590 -0.5097  0.0159
 6672WAT    EPW28495   3.585   2.766   2.667  0.2629  0.9426  0.3937
 6673WAT      O28496  -3.774   9.838   5.413  0.5026 -0.3242 -0.0616
 6673WAT     H128497  -3.845   9.899   5.432  0.0797 -1.0770  0.8086
 6673WAT     H228498  -3.696   9.894   5.408 -0.0286  0.4146 -0.3013
 6673WAT    EPW28499  -3.773   9.854   5.415  0.3767 -0.3266  0.0217
 6674WAT      O28500   1.687   2.126   5.181 -0.3243  0.2262  0.5027
 6674WAT     H128501   1.737   2.044   5.182 -0.3255  0.2253  0.4806
 6674WAT     H228502   1.599   2.101   5.207 -0.4508  0.1402 -0.0191
 6674WAT    EPW28503   1.682   2.112   5.185 -0.3411  0.2147  0.4308
 6675WAT      O28504  -0.616   4.694   7.814 -0.3276 -0.1995 -0.4479
 6675WAT     H128505  -0.539   4.722   7.863  0.2635  1.5343 -2.2167
 6675WAT     H228506  -0.685   4.686   7.880  1.4326 -2.4449  1.2841
 6675WAT    EPW28507  -0.615   4.697   7.830 -0.0175 -0.2670 -0.4528
 6676WAT      O28508   3.924   6.620   3.243 -0.2082  0.1152  0.0063
 6676WAT     H128509   3.945   6.568   3.166  0.6566  2.2220 -1.2829
 6676WAT     H228510   4.008   6.631   3.289 -0.1334  1.2995 -0.3807
 6676WAT    EPW28511   3.938   6.615   3.239 -0.0844  0.5491 -0.2148
 6677WAT      O28512  -0.454  10.312   2.556  0.2610 -0.9648 -0.0215
 6677WAT     H128513  -0.498  10.292   2.639 -1.4032 -0.4724 -0.7439
 6677WAT     H228514  -0.364  10.336   2.582 -0.1060 -1.2113  1.5895
 6677WAT    EPW28515  -0.448  10.313   2.571 -0.0069 -0.9324  0.0957
 6678WAT      O28516   5.750   2.714   4.342 -0.0849  0.3815 -0.1191
 6678WAT     H128517   5.816   2.755   4.398 -2.7727  2.6314  1.6472
 6678WAT     H228518   5.667   2.751   4.371 -2.0577 -1.2399 -3.1400
 6678WAT    EPW28519   5.748   2.724   4.353 -0.6995  0.4644 -0.2847
 6679WAT      O28520   1.976   3.293   7.818 -0.7878 -0.3519  0.3045
 6679WAT     H128521   1.956   3.286   7.725  0.1408  0.5508  0.0282
 6679WAT     H228522   1.964   3.385   7.839  1.3615 -0.0730  0.5049
 6679WAT    EPW28523   1.972   3.304   7.809 -0.3819 -0.1961  0.2947
 6680WAT      O28524   5.740   5.718   4.621 -0.3533  0.2095 -0.0855
 6680WAT     H128525   5.700   5.666   4.691  0.6307 -1.3047 -0.5963
 6680WAT     H228526   5.817   5.758   4.662 -0.4349  0.2809 -0.0015
 6680WAT    EPW28527   5.745   5.716   4.635 -0.2344  0.0193 -0.1419
 6681WAT      O28528  -1.783   9.378   5.648  0.0630 -0.2395  0.3035
 6681WAT     H128529  -1.767   9.461   5.602  0.2715 -1.0482 -1.1320
 6681WAT     H228530  -1.723   9.380   5.722  2.0619 -0.2567 -1.2227
 6681WAT    EPW28531  -1.773   9.389   5.651  0.3541 -0.3486 -0.0873
 6682WAT      O28532   2.766   0.148   7.759 -0.5470 -0.2773  0.1964
 6682WAT     H128533   2.809   0.233   7.756  0.5714 -0.8109  0.6053
 6682WAT     H228534   2.704   0.154   7.831 -1.8391  0.8013 -0.9690
 6682WAT    EPW28535   2.764   0.160   7.768 -0.5699 -0.2054  0.0966
 6683WAT      O28536   1.570   5.235   7.081  0.6661  0.0482 -0.2040
 6683WAT     H128537   1.573   5.330   7.091  1.4596  0.1387 -1.1581
 6683WAT     H228538   1.484   5.210   7.114  1.3945  0.7735  2.4804
 6683WAT    EPW28539   1.559   5.244   7.086  0.8668  0.1559  0.0241
 6684WAT      O28540  -4.592  10.330   6.396 -0.4307 -0.2054 -0.2405
 6684WAT     H128541  -4.636  10.364   6.318  0.0956 -1.0015 -0.8796
 6684WAT     H228542  -4.504  10.366   6.392 -0.8678  1.1352  0.8879
 6684WAT    EPW28543  -4.586  10.339   6.385 -0.4187 -0.1340 -0.1760
 6685WAT      O28544   6.235   0.822   4.908  0.3598 -0.0306 -0.2954
 6685WAT     H128545   6.326   0.852   4.915  0.0044  1.1267 -0.3498
 6685WAT     H228546   6.219   0.815   4.814 -0.2041  1.8310 -0.3947
 6685WAT    EPW28547   6.245   0.825   4.897  0.2384  0.3676 -0.3157
 6686WAT      O28548  -2.127   7.573   6.866 -0.6278 -0.6056  0.2994
 6686WAT     H128549  -2.220   7.595   6.869 -0.2821  1.0242 -0.3241
 6686WAT     H228550  -2.125   7.477   6.866 -2.3689 -0.6884 -1.5406
 6686WAT    EPW28551  -2.139   7.563   6.867 -0.8118 -0.4015 -0.0257
 6687WAT      O28552  -1.319   6.034   6.845  0.1017 -0.0408 -0.3509
 6687WAT     H128553  -1.408   6.032   6.808  0.3323  0.2417 -0.9230
 6687WAT     H228554  -1.296   5.942   6.855 -1.3302 -0.2091  2.4406
 6687WAT    EPW28555  -1.328   6.022   6.842 -0.0567 -0.0257 -0.0584
 6688WAT      O28556   1.923   2.155   5.017  0.2003  0.1718 -0.2289
 6688WAT     H128557   1.828   2.165   5.008  0.1065 -0.6200 -0.1536
 6688WAT     H228558   1.958   2.242   4.997 -0.6819  1.1095  1.9432
 6688WAT    EPW28559   1.915   2.168   5.013  0.0716  0.1910  0.0675
 6689WAT      O28560   0.733   1.173   4.237 -0.6816  0.3946 -0.0367
 6689WAT     H128561   0.809   1.167   4.295 -0.9093 -0.6473  0.1623
 6689WAT     H228562   0.716   1.083   4.210  0.3588  0.9789 -2.9654
 6689WAT    EPW28563   0.741   1.160   4.241 -0.5744  0.3342 -0.3967
 6690WAT      O28564   4.994   2.488   2.924  0.5082  0.6218 -0.4382
 6690WAT     H128565   4.994   2.580   2.899  3.1524  1.0208  0.6728
 6690WAT     H228566   5.045   2.445   2.856 -0.7271 -0.0730 -0.9598
 6690WAT    EPW28567   5.001   2.494   2.912  0.6940  0.5828 -0.3605
 6691WAT      O28568   4.244   5.144   4.042 -0.0684  0.6218  0.1032
 6691WAT     H128569   4.189   5.127   3.966  0.0652  0.9499 -0.0684
 6691WAT     H228570   4.282   5.060   4.064  0.1902  0.6015 -0.4200
 6691WAT    EPW28571   4.242   5.131   4.035 -0.0169  0.6626  0.0114
 6692WAT      O28572  -8.008   9.368   7.695  0.3829 -0.3032 -0.1251
 6692WAT     H128573  -8.095   9.331   7.678 -0.0310  0.4891  0.1767
 6692WAT     H228574  -7.979   9.326   7.776  0.7316 -1.3250 -0.7695
 6692WAT    EPW28575  -8.016   9.358   7.703  0.3742 -0.3338 -0.1705
 6693WAT      O28576   0.808   7.877   1.778 -0.6365  0.3554 -0.3757
 6693WAT     H128577   0.810   7.782   1.791  0.7755  0.7272  3.5832
 6693WAT     H228578   0.716   7.897   1.764 -1.4161 -1.3964  1.6434
 6693WAT    EPW28579   0.796   7.867   1.778 -0.5531  0.1733  0.4128
 6694WAT      O28580  -4.187   7.569   2.732 -0.0821 -0.7028  0.0945
 6694WAT     H128581  -4.256   7.546   2.794 -2.2070 -0.3887 -1.9743
 6694WAT     H228582  -4.179   7.664   2.739 -1.0860 -0.5346 -0.7875
 6694WAT    EPW28583  -4.195   7.579   2.741 -0.4947 -0.6392 -0.2947
 6695WAT      O28584   3.078   8.375   4.811  0.2769  0.1501  0.4148
 6695WAT     H128585   3.069   8.370   4.906 -2.7386 -1.6265  0.1509
 6695WAT     H228586   2.994   8.409   4.780  0.9153  0.0044 -1.6628
 6695WAT    EPW28587   3.066   8.379   4.819 -0.0366 -0.1035  0.1059
 6696WAT      O28588  -0.894   1.443   7.640  0.2192  0.1566 -0.8818
 6696WAT     H128589  -0.875   1.350   7.633  0.7893  0.1106  0.8041
 6696WAT     H228590  -0.989   1.449   7.647  0.1190 -0.2146 -1.8020
 6696WAT    EPW28591  -0.904   1.432   7.640  0.2812  0.1016 -0.7811
 6697WAT      O28592   7.966   3.859   0.323 -0.7554 -0.4573  0.2783
 6697WAT     H128593   8.003   3.946   0.304 -0.8611 -0.3499  0.5562
 6697WAT     H228594   8.003   3.835   0.408 -0.1273 -1.0252 -0.1511
 6697WAT    EPW28595   7.975   3.868   0.332 -0.6864 -0.5181  0.2583
 6698WAT      O28596  -1.676   6.800   6.528  0.2360 -0.3880  0.0618
 6698WAT     H128597  -1.635   6.831   6.609  2.7588 -1.4833 -0.6909
 6698WAT     H228598  -1.742   6.737   6.557  1.3252 -1.0085  1.3173
 6698WAT    EPW28599  -1.679   6.796   6.542  0.7124 -0.6144  0.1280
 6699WAT      O28600   7.968   1.440   0.428 -0.5901 -0.7664  0.3493
 6699WAT     H128601   8.063   1.445   0.419 -0.4718  1.5695  1.9532
 6699WAT     H228602   7.943   1.360   0.381  1.8594 -0.1485 -2.2977
 6699WAT    EPW28603   7.977   1.430   0.420 -0.2513 -0.3768  0.2117
 6700WAT      O28604  -0.448   8.842   1.721 -0.6730  0.1093 -0.6644
 6700WAT     H128605  -0.468   8.896   1.644  0.0720 -0.4572 -1.2675
 6700WAT     H228606  -0.528   8.845   1.773 -0.6005  1.9479 -0.5734
 6700WAT    EPW28607  -0.461   8.850   1.717 -0.5652  0.2770 -0.7319
 6701WAT      O28608   1.510   8.493   5.848 -0.1519  0.5501 -0.0610
 6701WAT     H128609   1.510   8.589   5.850 -2.4912  0.7155 -2.1935
 6701WAT     H228610   1.467   8.472   5.765  0.2363 -2.3717  0.4001
 6701WAT    EPW28611   1.504   8.503   5.837 -0.4092  0.1860 -0.2813
 6702WAT      O28612   3.900   2.151   4.485 -0.4471  0.0666  0.2068
 6702WAT     H128613   3.858   2.101   4.416 -2.7430  1.6435  0.3454
 6702WAT     H228614   3.984   2.176   4.449 -1.0592 -0.2389 -1.5195
 6702WAT    EPW28615   3.905   2.148   4.471 -0.8307  0.2342 -0.0026
 6703WAT      O28616   3.677  10.152   2.862 -0.2665  0.3373 -0.1449
 6703WAT     H128617   3.587  10.122   2.875  0.6146 -2.5308  0.1015
 6703WAT     H228618   3.692  10.144   2.768  0.1315 -0.6971 -0.0177
 6703WAT    EPW28619   3.667  10.147   2.852 -0.0978 -0.1779 -0.0957
 6704WAT      O28620  -1.822   0.888   8.334  0.0743  0.0755 -0.0842
 6704WAT     H128621  -1.736   0.881   8.292 -0.2078 -1.9061 -0.3942
 6704WAT     H228622  -1.877   0.825   8.287 -0.0920 -2.8631  3.6090
 6704WAT    EPW28623  -1.818   0.879   8.322  0.0152 -0.5735  0.3619
 6705WAT      O28624   7.051   5.033   1.426 -0.9817  0.8984  0.1355
 6705WAT     H128625   6.976   5.029   1.368 -1.4106 -0.5309  0.7504
 6705WAT     H228626   7.067   4.943   1.452  1.1266  1.1198 -0.1747
 6705WAT    EPW28627   7.043   5.021   1.422 -0.7601  0.7391  0.1757
 6706WAT      O28628   6.499   3.055   1.966  0.1794  0.1574 -0.1479
 6706WAT     H128629   6.525   2.980   1.912 -0.3477  1.1567 -1.8722
 6706WAT     H228630   6.427   3.023   2.019  1.0718 -1.0147  0.4080
 6706WAT    EPW28631   6.493   3.041   1.966  0.2275  0.1346 -0.3020
 6707WAT      O28632   5.501   7.435   1.472  1.0639  0.8257 -0.3053
 6707WAT     H128633   5.418   7.432   1.423 -0.5411  1.4089  2.1740
 6707WAT     H228634   5.566   7.403   1.411 -1.0514  0.0059 -2.2787
 6707WAT    EPW28635   5.499   7.430   1.458  0.5732  0.7946 -0.2385
 6708WAT      O28636  -2.558   8.364   3.802 -0.1318  0.1372  0.4824
 6708WAT     H128637  -2.599   8.332   3.883  0.9607 -3.0633 -0.0822
 6708WAT     H228638  -2.471   8.395   3.830  0.0025 -0.3677  0.6381
 6708WAT    EPW28639  -2.552   8.364   3.817  0.0300 -0.3510  0.4286
 6709WAT      O28640   5.949   2.208   1.599 -0.0525  0.5825  0.2606
 6709WAT     H128641   5.871   2.157   1.623  1.0042 -0.9577  0.4990
 6709WAT     H228642   5.929   2.241   1.511 -1.1523  0.5837  0.4886
 6709WAT    EPW28643   5.936   2.206   1.590 -0.0582  0.3794  0.3221
 6710WAT      O28644   4.133   2.209   7.961 -0.2586  0.0927 -0.3145
 6710WAT     H128645   4.148   2.114   7.959 -2.3512 -0.3577  1.5903
 6710WAT     H228646   4.130   2.234   7.868  4.0794 -0.9119 -0.9746
 6710WAT    EPW28647   4.135   2.200   7.948  0.0374 -0.0992 -0.1504
 6711WAT      O28648   1.239   7.091   6.637  0.1709  0.2487  0.3939
 6711WAT     H128649   1.270   7.034   6.707 -1.2001  0.2901  1.0582
 6711WAT     H228650   1.229   7.033   6.561 -1.1438 -0.4193  1.0452
 6711WAT    EPW28651   1.242   7.076   6.636 -0.1833  0.1659  0.5674
 6712WAT      O28652   0.298   8.559   3.456  0.2931  0.1185  0.0599
 6712WAT     H128653   0.360   8.531   3.388  1.1779  3.2774 -0.6131
 6712WAT     H228654   0.314   8.500   3.529  0.6999 -2.1573 -1.7317
 6712WAT    EPW28655   0.308   8.547   3.456  0.4635  0.2346 -0.2652
 6713WAT      O28656   3.589   0.921   1.207 -0.2161  0.2874  0.1520
 6713WAT     H128657   3.494   0.922   1.213 -0.2159  3.5036  1.8219
 6713WAT     H228658   3.618   0.873   1.285 -0.4664  0.8472  0.5906
 6713WAT    EPW28659   3.581   0.915   1.218 -0.2491  0.7854  0.4301
 6714WAT      O28660  -0.982   1.456   3.662 -0.5512 -0.0333  0.5429
 6714WAT     H128661  -1.009   1.422   3.748  0.2408 -0.2314  0.7261
 6714WAT     H228662  -0.974   1.550   3.675 -0.1138 -0.0986  0.7882
 6714WAT    EPW28663  -0.984   1.464   3.675 -0.3890 -0.0680  0.5995
 6715WAT      O28664   1.185   9.212   3.257  0.0506 -0.6292 -0.2717
 6715WAT     H128665   1.165   9.160   3.179  0.7067 -1.1074 -0.1265
 6715WAT     H228666   1.190   9.302   3.224 -2.9306 -0.3651 -0.2021
 6715WAT    EPW28667   1.183   9.217   3.242 -0.2561 -0.6576 -0.2434
 6716WAT      O28668   1.429   6.123   5.831 -0.1007 -0.9125 -0.4159
 6716WAT     H128669   1.486   6.198   5.819  2.8081 -2.3321  2.8092
 6716WAT     H228670   1.370   6.148   5.902 -0.3420 -1.0830 -0.5519
 6716WAT    EPW28671   1.429   6.136   5.839  0.2512 -1.1222 -0.0083
 6717WAT      O28672   6.028   1.056   4.627 -0.3034 -0.3972  0.2180
 6717WAT     H128673   6.052   1.144   4.657  2.6421 -0.8675 -0.4569
 6717WAT     H228674   5.982   1.072   4.544 -0.1373  0.5262  0.2877
 6717WAT    EPW28675   6.025   1.070   4.620  0.1068 -0.3375  0.1383
 6718WAT      O28676  -3.219   8.618   4.114  0.0387  0.4349 -0.1846
 6718WAT     H128677  -3.292   8.565   4.146  1.4223 -2.2665 -1.1971
 6718WAT     H228678  -3.219   8.604   4.019  2.5857 -0.8016 -0.1016
 6718WAT    EPW28679  -3.229   8.609   4.106  0.5571 -0.0844 -0.3073
 6719WAT      O28680  -8.590   9.635   8.778  0.1276  0.8086 -0.2896
 6719WAT     H128681  -8.658   9.662   8.716  0.1975 -0.2080 -0.8237
 6719WAT     H228682  -8.522   9.596   8.723  0.5308  0.5882  0.3609
 6719WAT    EPW28683  -8.590   9.634   8.763  0.1898  0.6456 -0.2742
 6720WAT      O28684   6.734   2.188   2.376 -1.2291 -0.1439 -0.5257
 6720WAT     H128685   6.737   2.279   2.403  2.4320 -0.3181  0.1217
 6720WAT     H228686   6.743   2.139   2.458  2.5118 -0.8301 -1.1655
 6720WAT    EPW28687   6.736   2.193   2.391 -0.2527 -0.2574 -0.5248
 6721WAT      O28688  -3.956   9.467   6.232  0.3235 -0.6523  0.1327
 6721WAT     H128689  -3.996   9.414   6.300  0.1003 -0.5378  0.0904
 6721WAT     H228690  -3.995   9.553   6.241 -0.7238 -0.9752 -0.9929
 6721WAT    EPW28691  -3.966   9.471   6.242  0.1559 -0.6795 -0.0212
 6722WAT      O28692  -4.950   4.323   5.887 -0.0398  0.7435 -0.4786
 6722WAT     H128693  -4.999   4.250   5.850  1.5062 -0.7033  0.2045
 6722WAT     H228694  -4.872   4.329   5.832  1.9721 -1.0183  2.0010
 6722WAT    EPW28695  -4.946   4.314   5.875  0.4292  0.3204 -0.0618
 6723WAT      O28696   1.695   8.537   2.001  0.0227 -0.3421 -0.6496
 6723WAT     H128697   1.684   8.466   2.063  0.4055  0.0218 -0.1613
 6723WAT     H228698   1.643   8.511   1.925 -0.7715 -0.6024 -0.0228
 6723WAT    EPW28699   1.687   8.525   1.999 -0.0315 -0.3285 -0.5025
 6724WAT      O28700   5.037   5.670   0.188  0.3424 -0.4783  0.2055
 6724WAT     H128701   5.005   5.734   0.252  2.8731  0.8247  0.2736
 6724WAT     H228702   5.036   5.717   0.105 -1.5893 -1.7159 -0.5452
 6724WAT    EPW28703   5.032   5.685   0.185  0.4218 -0.4697  0.1154
 6725WAT      O28704  -1.126   0.748   4.692 -0.4320 -0.1225  0.2676
 6725WAT     H128705  -1.046   0.704   4.722 -0.8938 -0.0540  1.7060
 6725WAT     H228706  -1.170   0.775   4.773 -1.8004  0.0546 -0.5022
 6725WAT    EPW28707  -1.121   0.746   4.707 -0.6734 -0.0901  0.3557
 6726WAT      O28708  -3.435   0.679   5.622  0.1671  0.1284  0.5389
 6726WAT     H128709  -3.441   0.722   5.537  0.7028  0.5768  0.7220
 6726WAT     H228710  -3.380   0.602   5.607 -0.5013 -0.3005  0.2850
 6726WAT    EPW28711  -3.428   0.675   5.609  0.1496  0.1310  0.5295
 6727WAT      O28712  -3.450   7.951   4.782 -0.4769 -0.5508 -0.0017
 6727WAT     H128713  -3.533   7.913   4.753 -1.8422  1.5403  0.9367
 6727WAT     H228714  -3.427   8.013   4.712 -0.9515  0.5532  0.7980
 6727WAT    EPW28715  -3.458   7.954   4.769 -0.7195 -0.1292  0.2272
 6728WAT      O28716   2.519   1.879   7.116 -0.2789  0.3198 -0.6084
 6728WAT     H128717   2.511   1.794   7.159 -1.1652  1.6232  1.9759
 6728WAT     H228718   2.574   1.931   7.174 -1.5931  2.1921 -0.9529
 6728WAT    EPW28719   2.525   1.875   7.129 -0.5691  0.7386 -0.3128
 6729WAT      O28720  -0.397   6.313   6.445  0.6389 -0.1766 -0.1773
 6729WAT     H128721  -0.476   6.365   6.454  0.7399  0.4187 -2.1102
 6729WAT     H228722  -0.357   6.344   6.363  2.8417 -0.4862  0.6931
 6729WAT    EPW28723  -0.402   6.324   6.435  0.9428 -0.1388 -0.3173
 6730WAT      O28724   6.338   1.647   5.594 -0.4960  0.4303  0.0678
 6730WAT     H128725   6.296   1.727   5.627 -1.2032  0.1771 -0.1794
 6730WAT     H228726   6.310   1.642   5.502  3.0700  2.2246 -1.2956
 6730WAT    EPW28727   6.328   1.657   5.586 -0.1192  0.6336 -0.1445
 6731WAT      O28728   6.604   2.447   4.018 -0.2885 -0.5071 -0.3303
 6731WAT     H128729   6.554   2.366   4.006  2.7112 -2.4043 -1.2948
 6731WAT     H228730   6.641   2.438   4.106 -1.2392  0.6580  0.2067
 6731WAT    EPW28731   6.602   2.435   4.028 -0.0184 -0.6037 -0.3867
 6732WAT      O28732  10.360   0.120   0.042  0.0529 -0.1791  0.4630
 6732WAT     H128733  10.357   0.209   0.008  0.6418 -1.0020 -1.9628
 6732WAT     H228734  10.273   0.084   0.024  1.0485 -1.3820 -2.7319
 6732WAT    EPW28735  10.349   0.127   0.035  0.2619 -0.4463 -0.2785
 6733WAT      O28736   0.031   9.881   7.975 -0.7726 -0.4687 -0.0674
 6733WAT     H128737   0.120   9.903   8.005  0.2510 -2.8432 -1.0655
 6733WAT     H228738  -0.011   9.966   7.961  1.0714  0.7429  1.1623
 6733WAT    EPW28739   0.037   9.895   7.977 -0.3943 -0.6218 -0.0370
 6734WAT      O28740  -0.849   9.197   8.396  0.3160  0.5118 -0.0740
 6734WAT     H128741  -0.872   9.141   8.322  0.1020 -1.5316  1.4262
 6734WAT     H228742  -0.756   9.215   8.384  0.5322 -0.6780 -0.3189
 6734WAT    EPW28743  -0.840   9.192   8.385  0.3163  0.0854  0.0916
 6735WAT      O28744   0.105   3.697   4.553 -0.2276  0.3853 -0.4505
 6735WAT     H128745   0.072   3.767   4.497 -0.6851  0.8730  0.3953
 6735WAT     H228746   0.200   3.707   4.551 -0.3063  2.6141  1.5194
 6735WAT    EPW28747   0.113   3.708   4.546 -0.2983  0.7436 -0.0789
 6736WAT      O28748   0.511   6.538   1.564  0.0382 -0.6450  0.5768
 6736WAT     H128749   0.488   6.446   1.582 -0.2560 -0.6696  0.0863
 6736WAT     H228750   0.595   6.533   1.519  0.7127 -0.5897  1.7742
 6736WAT    EPW28751   0.519   6.525   1.560  0.0884 -0.6411  0.6701
 6737WAT      O28752   2.615   0.653   1.426 -0.0648  0.4728 -0.3251
 6737WAT     H128753   2.546   0.678   1.488  1.9511  0.6029  1.9919
 6737WAT     H228754   2.608   0.558   1.420  0.6126  0.2858  1.3063
 6737WAT    EPW28755   2.605   0.644   1.433  0.2905  0.4654  0.1957
 6738WAT      O28756  -3.338   9.891   4.677  0.9518  0.1333 -0.0418
 6738WAT     H128757  -3.363   9.880   4.769  1.2237 -0.4621 -0.0354
 6738WAT     H228758  -3.308   9.804   4.650  1.6086  0.4902 -0.4692
 6738WAT    EPW28759  -3.337   9.878   4.685  1.0744  0.1016 -0.0973
 6739WAT      O28760   4.988   0.206   6.235  0.6653  0.0750 -0.0622
 6739WAT     H128761   5.057   0.200   6.169  0.8677 -1.2146  0.2515
 6739WAT     H228762   5.034   0.198   6.319  0.4826  2.2369  0.3228
 6739WAT    EPW28763   5.003   0.204   6.238  0.6678  0.1901  0.0298
 6740WAT      O28764   3.062   9.073   7.595  0.8131  0.8761 -0.3547
 6740WAT     H128765   2.992   9.083   7.530 -0.7558  0.0301  1.1441
 6740WAT     H228766   3.085   9.162   7.618  2.4477  1.2686 -3.0736
 6740WAT    EPW28767   3.056   9.086   7.589  0.8217  0.8163 -0.5157
 6741WAT      O28768   4.676   2.424   2.311 -0.3978  0.7816 -0.2679
 6741WAT     H128769   4.696   2.394   2.222  0.0242  4.9804 -1.8077
 6741WAT     H228770   4.606   2.365   2.340  0.2149 -1.4587 -2.9034
 6741WAT    EPW28771   4.669   2.412   2.303 -0.2613  1.0399 -0.8185
 6742WAT      O28772   0.434   7.659   3.279 -0.0068  0.4393  0.4975
 6742WAT     H128773   0.510   7.717   3.280  1.0097 -0.8084  2.2171
 6742WAT     H228774   0.381   7.688   3.354  0.1555 -0.3428  0.9356
 6742WAT    EPW28775   0.437   7.670   3.289  0.1487  0.1714  0.7823
 6743WAT      O28776   0.060   5.484   5.608 -0.2477 -0.4309 -0.6524
 6743WAT     H128777   0.076   5.557   5.548 -2.0589  0.7154  0.1783
 6743WAT     H228778   0.111   5.411   5.571  1.4472  1.1553 -1.6234
 6743WAT    EPW28779   0.069   5.484   5.595 -0.2631 -0.0706 -0.6709
 6744WAT      O28780   5.747   0.269   5.936 -0.2203 -0.0623  0.7674
 6744WAT     H128781   5.825   0.213   5.928 -1.6179 -2.0894  0.4688
 6744WAT     H228782   5.676   0.208   5.953 -1.7233  1.7629  1.3293
 6744WAT    EPW28783   5.748   0.253   5.937 -0.6030 -0.0889  0.8020
 6745WAT      O28784   1.812   9.864   7.063  0.7080  0.7038 -0.2000
 6745WAT     H128785   1.871   9.793   7.041 -1.4976 -0.7176 -1.9490
 6745WAT     H228786   1.798   9.911   6.981  0.0349  1.5215  0.3551
 6745WAT    EPW28787   1.818   9.861   7.049  0.3283  0.6242 -0.3574
 6746WAT      O28788   0.933   8.292   2.274  0.6726  0.3022 -0.0121
 6746WAT     H128789   0.891   8.345   2.206 -0.1375 -0.7516 -0.3562
 6746WAT     H228790   1.019   8.270   2.237  0.6257  0.5524 -0.2732
 6746WAT    EPW28791   0.939   8.296   2.260  0.5595  0.1960 -0.0919
 6747WAT      O28792   4.254   3.020   6.196  0.6729  0.2278  0.4708
 6747WAT     H128793   4.224   2.988   6.111 -0.0586 -3.3481  1.9153
 6747WAT     H228794   4.293   2.944   6.238 -0.4851  1.3781  4.0088
 6747WAT    EPW28795   4.255   3.006   6.190  0.4237 -0.0920  1.1282
 6748WAT      O28796  -1.194   5.929   6.295 -0.3069  0.3602 -0.3219
 6748WAT     H128797  -1.152   5.975   6.222 -0.7062 -0.2195 -0.9218
 6748WAT     H228798  -1.122   5.882   6.338  0.3272  2.3723  0.9870
 6748WAT    EPW28799  -1.179   5.929   6.291 -0.2759  0.5491 -0.2284
 6749WAT      O28800   3.535   4.817   3.531 -0.0138  0.4840 -0.2782
 6749WAT     H128801   3.629   4.836   3.525  0.3385 -0.6230  1.2089
 6749WAT     H228802   3.529   4.742   3.590 -2.0147  2.4189  2.2446
 6749WAT    EPW28803   3.547   4.810   3.538 -0.2313  0.5932  0.2508
 6750WAT      O28804  -1.349   9.879   1.444 -0.9387 -0.2684 -0.6214
 6750WAT     H128805  -1.340   9.874   1.348 -0.5348 -3.6106 -0.5189
 6750WAT     H228806  -1.407   9.807   1.466  0.1839 -0.5082  1.7971
 6750WAT    EPW28807  -1.355   9.869   1.434 -0.7374 -0.7410 -0.2889
 6751WAT      O28808   1.793   1.981   4.095  0.3294  0.2381 -0.1972
 6751WAT     H128809   1.791   1.921   4.170  0.8830 -2.7698 -2.4101
 6751WAT     H228810   1.885   1.983   4.068  0.1111  1.1811 -0.9209
 6751WAT    EPW28811   1.805   1.973   4.102  0.3737 -0.0343 -0.5846
 6752WAT      O28812   6.780   6.498   1.102 -0.1702 -0.1588 -0.4596
 6752WAT     H128813   6.764   6.404   1.113 -1.9121  0.1425 -0.1100
 6752WAT     H228814   6.795   6.509   1.008 -0.6506 -0.7030 -0.6031
 6752WAT    EPW28815   6.780   6.487   1.091 -0.4635 -0.1907 -0.4325
 6753WAT      O28816   7.403   0.115   0.059 -0.2795 -0.5685  0.0572
 6753WAT     H128817   7.350   0.156  -0.009  0.1597  0.3363  0.2572
 6753WAT     H228818   7.406   0.179   0.130 -0.5346 -1.4040  0.8461
 6753WAT    EPW28819   7.396   0.129   0.059 -0.2551 -0.5594  0.1876
 6754WAT      O28820  -0.557   8.517   2.955  0.0654  0.5834 -0.3782
 6754WAT     H128821  -0.483   8.461   2.931 -0.5424 -0.7574  0.7258
 6754WAT     H228822  -0.630   8.483   2.904 -0.6108 -0.5365  1.2531
 6754WAT    EPW28823  -0.557   8.505   2.945 -0.1040  0.2594 -0.0174
 6755WAT      O28824  -1.406   3.768   5.493  0.6598  0.2235 -0.4383
 6755WAT     H128825  -1.479   3.779   5.432 -1.3453  2.7170  2.1652
 6755WAT     H228826  -1.439   3.706   5.558  2.0153 -0.8543 -0.7309
 6755WAT    EPW28827  -1.420   3.761   5.494  0.5742  0.4103 -0.1335
 6756WAT      O28828   0.824   0.696   4.788  0.4481  0.3184  0.0368
 6756WAT     H128829   0.769   0.718   4.713 -0.3807 -0.0402  0.5228
 6756WAT     H228830   0.850   0.781   4.824 -0.6721  0.5172  0.4255
 6756WAT    EPW28831   0.820   0.711   4.783  0.1910  0.2973  0.1523
 6757WAT      O28832  -4.317   5.322   6.517  0.7894  0.0823 -0.1939
 6757WAT     H128833  -4.293   5.412   6.538  1.2951 -0.5585  2.2067
 6757WAT     H228834  -4.375   5.296   6.588  0.1961 -1.3231 -1.1621
 6757WAT    EPW28835  -4.321   5.331   6.529  0.7777 -0.1876 -0.0050
 6758WAT      O28836   1.699   8.196   7.202 -0.1154 -0.3971  0.6124
 6758WAT     H128837   1.604   8.190   7.200 -0.2240  0.9267  1.0261
 6758WAT     H228838   1.719   8.250   7.278  0.9680 -0.5845  0.4853
 6758WAT    EPW28839   1.689   8.202   7.211  0.0132 -0.2475  0.6502
 6759WAT      O28840   0.789   6.063   5.264 -0.3071 -0.3219  0.0579
 6759WAT     H128841   0.747   5.996   5.210  0.9440 -1.2321  0.1627
 6759WAT     H228842   0.757   6.046   5.352 -1.9284  0.8248 -0.2630
 6759WAT    EPW28843   0.779   6.052   5.268 -0.3559 -0.2906  0.0296
 6760WAT      O28844  -0.723   3.359   3.925 -0.1768  0.2291  0.2108
 6760WAT     H128845  -0.661   3.428   3.949  0.4952  0.7144 -2.4841
 6760WAT     H228846  -0.796   3.369   3.986  0.9639  1.7646  1.4088
 6760WAT    EPW28847  -0.724   3.370   3.936  0.0623  0.4957  0.0135
 6761WAT      O28848  -1.587   2.821   2.118  0.3412  0.7162 -0.1846
 6761WAT     H128849  -1.574   2.777   2.201 -0.6181  2.1034  0.7343
 6761WAT     H228850  -1.677   2.802   2.094  0.7447 -0.0659 -1.1797
 6761WAT    EPW28851  -1.597   2.813   2.125  0.2679  0.7961 -0.1947
 6762WAT      O28852   5.104   4.198   5.132  0.0958 -0.8470  0.2332
 6762WAT     H128853   5.189   4.217   5.170 -0.4746  1.5382  0.4833
 6762WAT     H228854   5.109   4.106   5.105  3.4756 -0.2776 -1.6824
 6762WAT    EPW28855   5.116   4.188   5.133  0.4663 -0.4573  0.0136
 6763WAT      O28856  -1.848   7.516   3.404  0.0292 -0.4422 -0.1814
 6763WAT     H128857  -1.763   7.531   3.363  0.6543  1.5801  1.6430
 6763WAT     H228858  -1.865   7.423   3.392  3.7816 -1.5734  1.7006
 6763WAT    EPW28859  -1.839   7.506   3.397  0.6066 -0.3247  0.3076
 6764WAT      O28860   2.926   5.333   7.872  0.5002  0.0591  0.2033
 6764WAT     H128861   2.910   5.394   7.800 -0.0544 -0.2464  0.0601
 6764WAT     H228862   2.990   5.378   7.927  2.1014 -0.3480 -1.2550
 6764WAT    EPW28863   2.932   5.347   7.870  0.6382 -0.0348 -0.0079
 6765WAT      O28864  -4.664   7.133   8.628  0.0567  0.6269 -0.1206
 6765WAT     H128865  -4.698   7.044   8.636  0.1022  0.4476 -1.5802
 6765WAT     H228866  -4.726   7.188   8.677 -1.0945  0.0368 -0.8803
 6765WAT    EPW28867  -4.677   7.129   8.635 -0.0889  0.5252 -0.4134
 6766WAT      O28868   2.036   9.989   1.168  0.0375  0.9833  0.1729
 6766WAT     H128869   2.024   9.895   1.156  0.7833  0.8921  0.1083
 6766WAT     H228870   2.020  10.003   1.261  0.1558  0.7542  0.2286
 6766WAT    EPW28871   2.032   9.978   1.179  0.1515  0.9413  0.1717
 6767WAT      O28872   5.688   0.847   1.808  0.1355 -0.1048  0.5114
 6767WAT     H128873   5.775   0.879   1.832  0.3178 -1.2669  1.5517
 6767WAT     H228874   5.652   0.914   1.750  2.4894 -0.4941 -1.5717
 6767WAT    EPW28875   5.695   0.860   1.804  0.4702 -0.3094  0.3738
 6768WAT      O28876  -0.805   5.083   8.920 -0.0391 -0.3370 -0.4207
 6768WAT     H128877  -0.713   5.056   8.914  0.7566  1.9998  0.1955
 6768WAT     H228878  -0.836   5.043   9.001 -0.0542 -2.3364 -1.3509
 6768WAT    EPW28879  -0.797   5.074   8.930  0.0638 -0.2925 -0.4625
 6769WAT      O28880   3.617   5.462   1.290 -0.2092 -0.6404 -0.0176
 6769WAT     H128881   3.565   5.433   1.365  0.1000 -0.6151  0.2053
 6769WAT     H228882   3.560   5.524   1.245 -0.8951 -1.6249 -0.5293
 6769WAT    EPW28883   3.602   5.467   1.294 -0.2588 -0.7672 -0.0557
 6770WAT      O28884  -4.166   0.400   7.214 -0.8135 -0.2905 -0.3456
 6770WAT     H128885  -4.238   0.436   7.163 -2.1318  0.9023  2.1705
 6770WAT     H228886  -4.161   0.308   7.188 -2.5957 -0.1487 -1.3051
 6770WAT    EPW28887  -4.174   0.393   7.204 -1.2226 -0.1145 -0.1402
 6771WAT      O28888  -2.688   8.936   0.171  0.3363  0.1517  0.0493
 6771WAT     H128889  -2.648   9.015   0.135  0.4268  0.2579  0.3833
 6771WAT     H228890  -2.642   8.864   0.128 -0.1922  0.2826 -0.7478
 6771WAT    EPW28891  -2.677   8.937   0.160  0.2784  0.1826 -0.0118
 6772WAT      O28892   3.684   2.428   6.878  0.5107 -0.0378 -0.3385
 6772WAT     H128893   3.728   2.444   6.962  1.1824 -1.6227 -0.3604
 6772WAT     H228894   3.752   2.442   6.812  0.1767  0.4794 -0.5770
 6772WAT    EPW28895   3.698   2.432   6.881  0.5553 -0.1786 -0.3729
 6773WAT      O28896   0.416   3.312   7.169 -0.1641  0.6525 -0.2308
 6773WAT     H128897   0.457   3.323   7.083  2.1027 -0.8673  0.5620
 6773WAT     H228898   0.436   3.393   7.215  0.9270  0.4142 -0.2687
 6773WAT    EPW28899   0.424   3.324   7.163  0.2788  0.4206 -0.1311
 6774WAT      O28900  -0.036   8.404   7.601  0.4966  0.1459  0.4340
 6774WAT     H128901  -0.072   8.317   7.588  0.1899  0.3926 -0.4213
 6774WAT     H228902  -0.088   8.442   7.671  0.1011 -0.0676  0.2562
 6774WAT    EPW28903  -0.048   8.397   7.608  0.4040  0.1502  0.2978
 6775WAT      O28904   2.251   8.636   1.756 -0.3233 -0.0695  0.2198
 6775WAT     H128905   2.341   8.608   1.771 -0.7196 -1.4336  0.1980
 6775WAT     H228906   2.256   8.731   1.747  1.8479 -0.3658 -4.8053
 6775WAT    EPW28907   2.263   8.645   1.757 -0.0892 -0.2885 -0.4458
 6776WAT      O28908   8.929   0.130   2.013  0.2978  0.3075  0.1597
 6776WAT     H128909   8.886   0.211   2.042  0.4013  0.6008 -0.4828
 6776WAT     H228910   8.858   0.066   2.006 -0.1504  0.9305 -1.4002
 6776WAT    EPW28911   8.914   0.132   2.016  0.2522  0.4284 -0.1308
 6777WAT      O28912  -0.030   4.864   1.943  0.0153 -0.3807  0.3647
 6777WAT     H128913   0.022   4.786   1.965 -0.0154 -0.5827 -0.2817
 6777WAT     H228914  -0.088   4.835   1.873  0.0295  0.2402  0.0978
 6777WAT    EPW28915  -0.031   4.850   1.937  0.0131 -0.3257  0.2442
 6778WAT      O28916   2.453   7.550   7.592  0.8852 -0.1595  0.1911
 6778WAT     H128917   2.492   7.636   7.603 -0.7660  0.7213 -0.5105
 6778WAT     H228918   2.510   7.506   7.529  0.6420  1.1748 -1.0041
 6778WAT    EPW28919   2.466   7.555   7.585  0.6354  0.1328 -0.0589
 6779WAT      O28920   2.428   6.198   6.488 -0.9323 -0.1880  0.3389
 6779WAT     H128921   2.507   6.251   6.475 -0.0027 -1.4767  0.5675
 6779WAT     H228922   2.371   6.253   6.542  0.8182 -0.1339  2.2693
 6779WAT    EPW28923   2.431   6.213   6.493 -0.5788 -0.3510  0.6237
 6780WAT      O28924   1.556   3.941   3.342  0.5128 -0.3609 -0.1558
 6780WAT     H128925   1.515   3.908   3.262  3.7036  0.3198 -2.2775
 6780WAT     H228926   1.543   4.036   3.338  0.7328 -0.3207  0.0614
 6780WAT    EPW28927   1.549   3.949   3.331  0.9626 -0.2660 -0.4070
 6781WAT      O28928   1.214   7.562   0.665 -0.1954  0.6065 -0.3754
 6781WAT     H128929   1.118   7.562   0.657 -0.0342 -0.0584 -2.9128
 6781WAT     H228930   1.246   7.566   0.575  2.1858  0.0179  0.3766
 6781WAT    EPW28931   1.205   7.563   0.652  0.1400  0.4413 -0.6109
 6782WAT      O28932   5.894  10.277   1.877  0.1840 -0.2721  0.5382
 6782WAT     H128933   5.909  10.263   1.971 -3.3188 -1.4274  1.0658
 6782WAT     H228934   5.854  10.364   1.871 -2.1879 -1.3031  0.5468
 6782WAT    EPW28935   5.891  10.287   1.889 -0.5910 -0.5603  0.6089
 6783WAT      O28936   1.383   4.384   0.305 -0.1502 -0.1823 -0.1236
 6783WAT     H128937   1.420   4.402   0.219 -1.9721 -1.7536 -1.2935
 6783WAT     H228938   1.454   4.405   0.366  2.1328 -1.5862 -2.1279
 6783WAT    EPW28939   1.397   4.389   0.302 -0.0893 -0.5746 -0.5423
 6784WAT      O28940   4.027   9.081   3.682 -0.1774 -0.2323  0.1609
 6784WAT     H128941   3.990   9.026   3.751 -0.8966 -0.1424 -0.1499
 6784WAT     H228942   4.122   9.074   3.695 -0.2855 -0.7798  0.7184
 6784WAT    EPW28943   4.035   9.073   3.693 -0.2866 -0.2923  0.1935
 6785WAT      O28944   2.346   8.455   0.572  0.2732  0.1143  0.2934
 6785WAT     H128945   2.397   8.523   0.616  0.3636  0.2940 -0.0911
 6785WAT     H228946   2.407   8.382   0.562  0.8721  0.8014 -1.3727
 6785WAT    EPW28947   2.361   8.454   0.577  0.3642  0.2284  0.0230
 6786WAT      O28948   2.177   7.698   4.682  0.1782  0.1911 -0.0178
 6786WAT     H128949   2.249   7.640   4.705  1.0099  1.3030  0.2961
 6786WAT     H228950   2.101   7.661   4.727  0.4052 -1.3261 -0.8272
 6786WAT    EPW28951   2.177   7.686   4.691  0.3178  0.1378 -0.0832
 6787WAT      O28952   2.555   3.622   5.075 -0.0784 -0.1934 -0.8557
 6787WAT     H128953   2.519   3.584   4.994 -3.2660  1.7088 -0.4837
 6787WAT     H228954   2.617   3.689   5.045 -2.3714  1.5768 -1.8909
 6787WAT    EPW28955   2.559   3.625   5.060 -0.8012  0.2910 -0.9432
 6788WAT      O28956   2.042   9.893   5.632 -0.0259  0.4066 -0.2372
 6788WAT     H128957   2.085   9.978   5.625 -0.4650  0.5702 -1.2292
 6788WAT     H228958   1.950   9.913   5.645 -0.4243  0.1525 -2.2582
 6788WAT    EPW28959   2.035   9.906   5.633 -0.1364  0.3948 -0.6344
 6789WAT      O28960   3.655   8.523   3.173 -0.2586  0.2346 -0.3131
 6789WAT     H128961   3.565   8.547   3.150 -0.1041  0.8783 -0.2419
 6789WAT     H228962   3.702   8.523   3.090  0.0755  1.6205 -0.1481
 6789WAT    EPW28963   3.649   8.526   3.159 -0.1941  0.5026 -0.2819
 6790WAT      O28964   4.968   4.109   4.757 -0.2356 -0.8142 -0.4793
 6790WAT     H128965   5.016   4.079   4.680 -0.5404 -3.6391  0.2882
 6790WAT     H228966   4.882   4.136   4.723  0.2270 -0.3680 -1.3086
 6790WAT    EPW28967   4.963   4.108   4.743 -0.2151 -1.1277 -0.4876
 6791WAT      O28968   7.756   2.247   0.537  0.1433  0.6664  0.1872
 6791WAT     H128969   7.735   2.193   0.461 -2.1943  0.2391  1.0559
 6791WAT     H228970   7.671   2.266   0.577  1.3081  0.5347  2.9416
 6791WAT    EPW28971   7.742   2.243   0.532 -0.0114  0.5926  0.6651
 6792WAT      O28972   4.227   7.046   1.968  0.0669  0.2093  0.1788
 6792WAT     H128973   4.206   7.098   1.890 -2.0156 -0.6760  0.0787
 6792WAT     H228974   4.284   6.976   1.937  0.2278  0.5521 -0.3037
 6792WAT    EPW28975   4.232   7.044   1.954 -0.1864  0.1378  0.1020
 6793WAT      O28976  -1.289   3.082   7.644  0.3682  0.1847  0.3794
 6793WAT     H128977  -1.363   3.029   7.616 -0.7266  1.2618  1.1357
 6793WAT     H228978  -1.251   3.116   7.562 -1.0618  1.0230  0.0344
 6793WAT    EPW28979  -1.293   3.080   7.630  0.0352  0.4374  0.4337
 6794WAT      O28980   9.666   0.491   1.734 -0.2456  0.3077  0.2438
 6794WAT     H128981   9.646   0.452   1.649 -3.3324  1.2016  0.4146
 6794WAT     H228982   9.749   0.537   1.721  1.1788 -2.4208 -1.2124
 6794WAT    EPW28983   9.674   0.492   1.721 -0.4649  0.0657  0.0743
 6795WAT      O28984   5.264   5.930   5.625  0.2529  0.3566  0.3366
 6795WAT     H128985   5.333   5.986   5.591  0.3216  1.0240  1.5105
 6795WAT     H228986   5.189   5.988   5.638 -0.9980 -0.5721 -2.0685
 6795WAT    EPW28987   5.263   5.945   5.622  0.0968  0.3223  0.1740
 6796WAT      O28988   1.181   3.038   2.869 -0.2956  0.3835 -0.4261
 6796WAT     H128989   1.215   2.995   2.947 -1.2091  0.4948  0.0482
 6796WAT     H228990   1.183   3.132   2.890  0.4429  0.4946 -0.9481
 6796WAT    EPW28991   1.186   3.045   2.882 -0.3186  0.4128 -0.4324
 6797WAT      O28992   0.457   8.900   4.680 -0.3221 -0.4346  0.0140
 6797WAT     H128993   0.493   8.812   4.680  0.7289 -0.0896 -2.5519
 6797WAT     H228994   0.496   8.942   4.603 -1.1851  2.1086  0.8614
 6797WAT    EPW28995   0.467   8.894   4.670 -0.2973 -0.0534 -0.2127
 6798WAT      O28996   2.318   6.500   8.192  0.2679 -0.7035 -0.1242
 6798WAT     H128997   2.230   6.537   8.187  0.6935  0.3270 -0.2801
 6798WAT     H228998   2.347   6.494   8.101  1.4710  1.8304 -0.0224
 6798WAT    EPW28999   2.310   6.504   8.179  0.4827 -0.2332 -0.1311
 6799WAT      O29000   3.003   6.532   1.657 -0.5172 -0.5873  0.3292
 6799WAT     H129001   3.024   6.527   1.750  0.1159  0.3670  0.2565
 6799WAT     H229002   2.908   6.519   1.653 -0.7297  0.4751  1.2357
 6799WAT    EPW29003   2.993   6.530   1.669 -0.4616 -0.3211  0.4392
 6800WAT      O29004  -2.245   4.068   3.850 -0.5685 -0.1808  0.1703
 6800WAT     H129005  -2.287   4.111   3.925 -0.7900  2.0346 -1.1424
 6800WAT     H229006  -2.175   4.016   3.889 -0.8535  0.6841  1.9591
 6800WAT    EPW29007  -2.241   4.067   3.865 -0.6353  0.2255  0.2332
 6801WAT      O29008   5.579   7.737   2.993  0.3486 -0.4383  0.7396
 6801WAT     H129009   5.484   7.733   2.987  0.4570 -1.1083 -1.2433
 6801WAT     H229010   5.608   7.645   2.992  1.0134 -0.2527  1.5523
 6801WAT    EPW29011   5.571   7.724   2.992  0.4504 -0.5021  0.5853
 6802WAT      O29012   5.074   0.570   0.959  0.1310  0.4039 -0.0230
 6802WAT     H129013   5.000   0.627   0.981 -1.4947 -0.7436 -2.1431
 6802WAT     H229014   5.137   0.628   0.916 -1.5600  0.7052 -2.3072
 6802WAT    EPW29015   5.072   0.585   0.956 -0.3064  0.2923 -0.6039
 6803WAT      O29016   1.184   8.231   1.618  0.3111 -0.3773 -0.5191
 6803WAT     H129017   1.136   8.273   1.546 -0.2644  2.1604  1.1851
 6803WAT     H229018   1.140   8.147   1.630 -1.5260  0.4075 -1.2675
 6803WAT    EPW29019   1.172   8.225   1.610 -0.0072  0.0610 -0.3930
 6804WAT      O29020   4.062   2.111   0.053  0.2411  0.4711  0.6424
 6804WAT     H129021   4.155   2.114   0.075  0.5107  1.2836 -0.5043
 6804WAT     H229022   4.019   2.155   0.127  0.7731  0.1697  1.1372
 6804WAT    EPW29023   4.069   2.117   0.066  0.3467  0.5386  0.5564
 6805WAT      O29024  -0.367   5.931   0.062 -0.0732 -0.0633 -0.2890
 6805WAT     H129025  -0.376   5.851   0.113 -1.1488  0.5709  0.5470
 6805WAT     H229026  -0.274   5.935   0.041 -0.3322 -2.9015 -2.6482
 6805WAT    EPW29027  -0.356   5.921   0.066 -0.2492 -0.3538 -0.4899
 6806WAT      O29028   7.157   1.343   2.831 -0.0029  0.0414 -0.1228
 6806WAT     H129029   7.116   1.424   2.803 -0.9777 -0.6635 -0.7769
 6806WAT     H229030   7.141   1.340   2.926  0.0319  0.5966 -0.0940
 6806WAT    EPW29031   7.150   1.353   2.840 -0.1268  0.0216 -0.2053
 6807WAT      O29032  -1.929   9.292   0.215 -0.2210  0.1383  0.1906
 6807WAT     H129033  -2.022   9.312   0.209 -0.1396  0.0900 -2.0240
 6807WAT     H229034  -1.913   9.229   0.144  1.7171  1.1203 -0.3183
 6807WAT    EPW29035  -1.939   9.286   0.205  0.0454  0.2618 -0.1686
 6808WAT      O29036   2.934   9.355   1.432  0.2819 -0.3368  0.4058
 6808WAT     H129037   2.915   9.419   1.500  2.1256  0.3982  0.2867
 6808WAT     H229038   2.937   9.406   1.351  0.6398 -0.7690  0.1382
 6808WAT    EPW29039   2.932   9.370   1.430  0.5723 -0.2971  0.3548
 6809WAT      O29040  -2.630   0.737   8.776 -0.0642  0.5166 -0.3296
 6809WAT     H129041  -2.620   0.826   8.740 -1.8503  0.8290 -0.1335
 6809WAT     H229042  -2.559   0.729   8.839  1.0773  1.2209 -1.4673
 6809WAT    EPW29043  -2.619   0.748   8.779 -0.1493  0.6507 -0.4535
 6810WAT      O29044  -1.536   6.136   6.070 -0.3889 -0.0180 -0.6990
 6810WAT     H129045  -1.460   6.094   6.031 -0.4343  0.8822 -1.8253
 6810WAT     H229046  -1.609   6.115   6.011 -0.3565  1.8014 -1.4602
 6810WAT    EPW29047  -1.536   6.128   6.057 -0.3906  0.3407 -0.9480
 6811WAT      O29048  -1.690   6.111   0.034  0.2568 -0.8562  0.0111
 6811WAT     H129049  -1.603   6.083   0.060  1.5234  0.5658 -2.3784
 6811WAT     H229050  -1.693   6.205   0.053 -0.5113 -0.7628 -0.4800
 6811WAT    EPW29051  -1.679   6.120   0.040  0.3226 -0.6564 -0.3688
 6812WAT      O29052  -5.417   7.436   4.763  0.2273 -0.2040  0.7650
 6812WAT     H129053  -5.503   7.402   4.789  0.5182  0.3153  2.5438
 6812WAT     H229054  -5.401   7.509   4.823  0.3536  2.1130 -1.8598
 6812WAT    EPW29055  -5.426   7.441   4.775  0.2823  0.1702  0.6535
 6813WAT      O29056   2.907   5.465   7.132 -0.1032  0.6817  0.5289
 6813WAT     H129057   2.946   5.529   7.073  0.1225  1.0502  1.0624
 6813WAT     H229058   2.865   5.518   7.200 -1.3114  0.2883  0.1227
 6813WAT    EPW29059   2.907   5.480   7.133 -0.2328  0.6783  0.5457
 6814WAT      O29060   0.575   4.455   1.938 -0.6561  0.1700  0.1053
 6814WAT     H129061   0.524   4.399   1.880 -2.0486  1.5461 -0.0537
 6814WAT     H229062   0.567   4.543   1.901  0.9867  0.5934  0.6759
 6814WAT    EPW29063   0.567   4.459   1.926 -0.6231  0.4077  0.1596
 6815WAT      O29064   2.288   7.869   0.337 -0.7431  0.0198  0.3854
 6815WAT     H129065   2.233   7.938   0.373 -0.0358  0.9203 -0.2267
 6815WAT     H229066   2.243   7.842   0.257  0.6665  2.2171 -1.2764
 6815WAT    EPW29067   2.275   7.874   0.331 -0.4640  0.4284  0.0855
 6816WAT      O29068   2.502   5.524   7.309  0.0961 -0.0295 -0.1275
 6816WAT     H129069   2.413   5.493   7.296 -0.5938  2.4012 -1.8818
 6816WAT     H229070   2.556   5.466   7.256 -0.3853 -1.5087  0.9318
 6816WAT    EPW29071   2.498   5.512   7.301 -0.0584  0.0961 -0.2191
 6817WAT      O29072  -1.175   7.749   2.120 -0.0646  0.0448  0.4277
 6817WAT     H129073  -1.215   7.707   2.043  0.7878  1.4484 -0.8417
 6817WAT     H229074  -1.171   7.680   2.186 -0.8987 -1.1888 -0.7592
 6817WAT    EPW29075  -1.180   7.734   2.118 -0.0622  0.0670  0.1037
 6818WAT      O29076   4.797   4.935   4.720  0.1134 -0.2049 -0.4733
 6818WAT     H129077   4.823   4.864   4.662  0.2485  0.4064 -1.1724
 6818WAT     H229078   4.813   4.901   4.808  0.5501 -0.8887 -0.8104
 6818WAT    EPW29079   4.802   4.921   4.724  0.1888 -0.2146 -0.6101
 6819WAT      O29080  -4.314   9.050   1.831 -0.2168 -0.6211 -0.5216
 6819WAT     H129081  -4.253   8.979   1.812  0.3499 -0.7048  1.3782
 6819WAT     H229082  -4.260   9.129   1.830 -0.4151 -0.4864 -0.5386
 6819WAT    EPW29083  -4.299   9.051   1.829 -0.1683 -0.6146 -0.2733
 6820WAT      O29084  -2.644   5.058   7.792 -0.2952  0.4397  0.5971
 6820WAT     H129085  -2.694   5.022   7.719 -2.5941  4.5295 -0.1307
 6820WAT     H229086  -2.564   5.092   7.751  1.2196 -2.2629  1.0760
 6820WAT    EPW29087  -2.640   5.058   7.777 -0.3986  0.6225  0.5643
 6821WAT      O29088   6.081   1.035   5.040 -0.7380  0.6933  0.7124
 6821WAT     H129089   6.150   0.990   4.992  0.4416  2.5515  0.5834
 6821WAT     H229090   6.127   1.089   5.104 -1.9673  2.9159 -0.1727
 6821WAT    EPW29091   6.096   1.036   5.042 -0.7446  1.2316  0.5786
 6822WAT      O29092   7.726   6.182   0.448 -0.4789  0.9085 -0.7841
 6822WAT     H129093   7.688   6.264   0.480 -0.4460  0.8853 -0.6853
 6822WAT     H229094   7.820   6.193   0.459 -0.3356  1.5081 -2.2874
 6822WAT    EPW29095   7.734   6.194   0.453 -0.4556  0.9847 -0.9694
 6823WAT      O29096   3.153   7.009   7.419 -0.2804  0.0250  0.3856
 6823WAT     H129097   3.152   6.916   7.397 -1.0568  0.4008 -1.3509
 6823WAT     H229098   3.197   7.013   7.504  1.0144 -1.7760 -0.1305
 6823WAT    EPW29099   3.159   6.997   7.427 -0.2120 -0.1631  0.0885
 6824WAT      O29100  10.331   0.394   0.037 -0.3908 -0.2780 -0.2898
 6824WAT     H129101  10.246   0.394  -0.007 -1.2591  0.4706  1.2868
 6824WAT     H229102  10.320   0.455   0.110  1.8636  0.7255 -0.6883
 6824WAT    EPW29103  10.319   0.402   0.041 -0.2079 -0.0469 -0.1345
 6825WAT      O29104   0.989   7.542   3.201 -0.2280  0.2683 -0.5779
 6825WAT     H129105   0.902   7.582   3.210  0.0899  1.1951 -1.4566
 6825WAT     H229106   1.025   7.543   3.289 -1.8021 -1.8085  0.1609
 6825WAT    EPW29107   0.982   7.548   3.213 -0.3937  0.1163 -0.5964
 6826WAT      O29108  -3.826   9.521   7.809 -0.0941  0.1517 -0.8326
 6826WAT     H129109  -3.782   9.473   7.738 -0.9478 -0.8213 -0.7240
 6826WAT     H229110  -3.754   9.554   7.863  0.5480  0.2807 -1.7519
 6826WAT    EPW29111  -3.810   9.519   7.807 -0.1221  0.0405 -0.9394
 6827WAT      O29112   4.953   4.456   0.009 -0.6155  0.3877 -0.9018
 6827WAT     H129113   4.926   4.530   0.064  0.3475  0.7277 -0.8687
 6827WAT     H229114   4.941   4.379   0.065  1.1815  0.8043  0.1435
 6827WAT    EPW29115   4.947   4.456   0.023 -0.2515  0.4878 -0.7595
 6828WAT      O29116   2.629   7.253   8.397 -0.1069  0.1225 -0.6574
 6828WAT     H129117   2.535   7.256   8.383 -0.2736  0.8196  0.4876
 6828WAT     H229118   2.641   7.180   8.459 -0.3935  2.3865  2.3124
 6828WAT    EPW29119   2.618   7.244   8.404 -0.1668  0.5131 -0.1149
 6829WAT      O29120   4.459   8.267   3.862  0.2223  0.4885  0.2181
 6829WAT     H129121   4.471   8.341   3.802  0.5139  2.2275  2.3231
 6829WAT     H229122   4.364   8.261   3.874  0.0633 -0.6505 -1.2661
 6829WAT    EPW29123   4.448   8.276   3.855  0.2398  0.5679  0.3000
 6830WAT      O29124   6.163   8.543   2.543  0.1849  0.3198  0.1884
 6830WAT     H129125   6.235   8.585   2.495  0.5463 -0.4513  0.0494
 6830WAT     H229126   6.084   8.572   2.497  0.4600  0.4435 -0.2142
 6830WAT    EPW29127   6.162   8.552   2.531  0.2687  0.2346  0.1171
 6831WAT      O29128  -4.921   9.649   7.370  0.6702  0.2488 -0.3969
 6831WAT     H129129  -4.989   9.713   7.350 -0.6055  0.1231  2.9951
 6831WAT     H229130  -4.845   9.702   7.394  1.0145  0.3975 -1.7346
 6831WAT    EPW29131  -4.920   9.665   7.370  0.5472  0.2518 -0.1261
 6832WAT      O29132  -6.064   5.213   7.218 -0.3423 -0.2233  0.6385
 6832WAT     H129133  -5.987   5.188   7.270 -0.0696  0.8002  0.7523
 6832WAT     H229134  -6.096   5.131   7.181  0.7847 -0.6766  0.6306
 6832WAT    EPW29135  -6.058   5.199   7.220 -0.1578 -0.1481  0.6523
 6833WAT      O29136  -0.167   8.835   8.961 -0.4812 -0.2022 -0.0969
 6833WAT     H129137  -0.238   8.819   9.024 -1.4799  3.5940  0.0111
 6833WAT     H229138  -0.211   8.877   8.887  1.0336 -2.4380 -2.4044
 6833WAT    EPW29139  -0.182   8.839   8.960 -0.4131  0.0033 -0.3872
 6834WAT      O29140   5.592   5.640   2.732  0.4600 -0.2328  0.3988
 6834WAT     H129141   5.561   5.724   2.700  2.0048  0.0713 -0.3315
 6834WAT     H229142   5.515   5.583   2.727  0.0046  0.4829 -1.4255
 6834WAT    EPW29143   5.577   5.643   2.727  0.6037 -0.0982  0.0620
 6835WAT      O29144  -6.244   8.673   8.893  0.9493  1.1408  0.0008
 6835WAT     H129145  -6.223   8.755   8.937 -3.4126  1.9506  0.9492
 6835WAT     H229146  -6.311   8.696   8.829 -0.7781 -1.6778  0.6164
 6835WAT    EPW29147  -6.250   8.687   8.890  0.1462  0.8759  0.2069
 6836WAT      O29148  -4.798   7.369   4.705 -0.0228 -0.1267  0.2552
 6836WAT     H129149  -4.718   7.363   4.654 -0.0496  2.0239 -0.1560
 6836WAT     H229150  -4.831   7.279   4.710  0.0955 -0.5167 -3.3220
 6836WAT    EPW29151  -4.792   7.357   4.699 -0.0107  0.1054 -0.2711
 6837WAT      O29152   1.270   2.982   2.608 -0.9590  0.0232 -0.4352
 6837WAT     H129153   1.266   3.005   2.701  0.0555  1.1827 -0.6524
 6837WAT     H229154   1.362   2.959   2.593 -1.2379 -0.7689 -1.0280
 6837WAT    EPW29155   1.282   2.982   2.618 -0.8620  0.0716 -0.5420
 6838WAT      O29156   8.383   5.424   0.560 -0.2838 -0.4263  0.0853
 6838WAT     H129157   8.350   5.512   0.579  0.9752  0.3168 -0.9756
 6838WAT     H229158   8.464   5.417   0.610 -0.9673 -1.4373  1.0656
 6838WAT    EPW29159   8.389   5.435   0.569 -0.2079 -0.4616  0.0747
 6839WAT      O29160   7.268   1.433   0.832 -0.2299  0.2749 -0.0655
 6839WAT     H129161   7.180   1.425   0.869 -0.9710 -0.9765 -1.9369
 6839WAT     H229162   7.325   1.389   0.895 -1.1875 -0.2567  0.4486
 6839WAT    EPW29163   7.264   1.426   0.845 -0.4539  0.0397 -0.2445
 6840WAT      O29164   0.464   1.727   0.382 -0.4872  0.4036 -0.0382
 6840WAT     H129165   0.409   1.651   0.400 -0.7216  0.6335  0.2356
 6840WAT     H229166   0.484   1.721   0.289  1.3260 -1.1933  0.3912
 6840WAT    EPW29167   0.460   1.716   0.372 -0.2790  0.2233  0.0545
 6841WAT      O29168   3.326   4.805   5.574  0.1879  0.2723 -0.0034
 6841WAT     H129169   3.328   4.888   5.623 -0.7732  1.6394 -2.0877
 6841WAT     H229170   3.246   4.762   5.604  0.0600  0.6763  0.2470
 6841WAT    EPW29171   3.315   4.811   5.585  0.0442  0.5059 -0.2451
 6842WAT      O29172  -4.136   7.479   3.631 -0.2646  0.3121  0.3601
 6842WAT     H129173  -4.216   7.531   3.625 -0.0126  0.6105 -0.6854
 6842WAT     H229174  -4.165   7.388   3.628 -0.4994  0.3811 -2.2132
 6842WAT    EPW29175  -4.150   7.474   3.629 -0.2625  0.3605 -0.1172
 6843WAT      O29176  -1.005   5.401   7.843  0.8241  0.4158  0.2604
 6843WAT     H129177  -0.962   5.481   7.875 -1.1374  2.3301 -1.5911
 6843WAT     H229178  -1.075   5.385   7.907  0.8665  0.4873  0.3255
 6843WAT    EPW29179  -1.008   5.410   7.856  0.5710  0.6776  0.0248
 6844WAT      O29180   5.477   0.840   4.424 -0.0346 -0.2598  0.1430
 6844WAT     H129181   5.532   0.782   4.476 -0.7673 -0.6919  0.4505
 6844WAT     H229182   5.506   0.826   4.334  0.2331 -0.6272  0.2842
 6844WAT    EPW29183   5.488   0.831   4.419 -0.0961 -0.3653  0.2019
 6845WAT      O29184   6.116   2.400   1.711 -0.0590  0.3759  0.0717
 6845WAT     H129185   6.037   2.347   1.719 -0.4735  1.1442  1.5366
 6845WAT     H229186   6.171   2.353   1.649  0.1462 -2.5157  2.2182
 6845WAT    EPW29187   6.113   2.387   1.704 -0.0865  0.0960  0.5481
 6846WAT      O29188   0.376   6.354   0.237  0.3090  0.6678  0.7794
 6846WAT     H129189   0.293   6.360   0.286  0.6241  0.7545  1.3130
 6846WAT     H229190   0.443   6.350   0.305  0.6658 -0.8754  0.3763
 6846WAT    EPW29191   0.374   6.355   0.252  0.3976  0.4756  0.7966
 6847WAT      O29192   4.131   2.006   3.045 -0.3938 -0.2954 -0.1495
 6847WAT     H129193   4.209   2.019   3.099 -0.7089  2.7293 -0.2692
 6847WAT     H229194   4.166   1.969   2.963  1.0154  1.1513 -0.2707
 6847WAT    EPW29195   4.146   2.003   3.041 -0.2496  0.2943 -0.1813
 6848WAT      O29196  -0.982   6.095   1.206 -0.0021  0.0197  0.6422
 6848WAT     H129197  -0.896   6.126   1.178 -0.4197  0.3405 -0.3338
 6848WAT     H229198  -0.966   6.007   1.241  0.5221 -0.5555 -0.9359
 6848WAT    EPW29199  -0.968   6.087   1.207  0.0120 -0.0138  0.3054
 6849WAT      O29200   1.651   1.938   8.937 -0.3788 -0.4122 -0.0024
 6849WAT     H129201   1.647   2.033   8.929  2.4575 -0.0741  1.2952
 6849WAT     H229202   1.745   1.918   8.933 -0.5593 -2.7269  3.1368
 6849WAT    EPW29203   1.663   1.948   8.936 -0.0285 -0.6729  0.5827
 6850WAT      O29204  -0.587   8.502   4.029  0.2501  0.2017 -0.0861
 6850WAT     H129205  -0.569   8.436   4.095 -0.6491 -0.2903 -0.3189
 6850WAT     H229206  -0.676   8.483   3.999  0.5359  0.5861 -1.2360
 6850WAT    EPW29207  -0.597   8.491   4.034  0.1692  0.1879 -0.2687
 6851WAT      O29208   4.008   2.652   5.942  0.4034  0.6472 -0.5885
 6851WAT     H129209   4.048   2.671   6.026  1.0223  3.8817 -1.5098
 6851WAT     H229210   4.071   2.681   5.877 -0.5565 -0.6575 -2.2108
 6851WAT    EPW29211   4.021   2.658   5.944  0.3586  0.9017 -0.9239
 6852WAT      O29212   2.011   9.118   4.192 -0.2120 -0.4569 -0.6841
 6852WAT     H129213   1.934   9.067   4.167  0.6109 -1.5290 -1.1330
 6852WAT     H229214   2.038   9.080   4.276 -0.6411  0.4613 -0.1238
 6852WAT    EPW29215   2.005   9.106   4.200 -0.1600 -0.4768 -0.6692
 6853WAT      O29216  -5.953   6.170   6.724  0.0896 -0.2928 -0.7070
 6853WAT     H129217  -5.916   6.097   6.774  0.4506 -0.8605 -1.7724
 6853WAT     H229218  -5.941   6.246   6.781  1.5555 -0.7210 -0.3857
 6853WAT    EPW29219  -5.946   6.170   6.738  0.3304 -0.4241 -0.8051
 6854WAT      O29220  -2.472   8.320   2.674 -0.6601 -0.3526  0.4775
 6854WAT     H129221  -2.550   8.315   2.619 -0.3282 -3.2049  0.0855
 6854WAT     H229222  -2.441   8.410   2.664 -2.5550  0.1919 -1.2182
 6854WAT    EPW29223  -2.478   8.331   2.665 -0.8663 -0.6576  0.2022
 6855WAT      O29224  -3.063   0.055   6.286 -0.4190 -0.5032 -0.4728
 6855WAT     H129225  -3.097   0.058   6.197  0.6243  1.7899 -0.8460
 6855WAT     H229226  -3.020   0.139   6.299 -0.0362 -0.9960  2.0156
 6855WAT    EPW29227  -3.062   0.066   6.276 -0.2309 -0.2658 -0.1938
 6856WAT      O29228  -5.496   9.426   7.481 -1.1403  0.6068 -0.7920
 6856WAT     H129229  -5.515   9.359   7.547 -1.2204  1.5280  0.1371
 6856WAT     H229230  -5.479   9.376   7.401  0.8272 -0.6445  0.3274
 6856WAT    EPW29231  -5.496   9.411   7.479 -0.8912  0.5631 -0.5219
 6857WAT      O29232   0.814   9.580   2.636  0.0943 -0.1790 -0.1036
 6857WAT     H129233   0.767   9.506   2.598 -1.3289  1.2905 -1.3602
 6857WAT     H229234   0.906   9.563   2.614 -0.5530  0.2140 -3.8134
 6857WAT    EPW29235   0.820   9.568   2.628 -0.1788  0.0668 -0.7586
 6858WAT      O29236  -7.201   7.505   7.621 -0.2513  0.8389  0.5877
 6858WAT     H129237  -7.236   7.583   7.663  0.6852  1.7361 -0.2346
 6858WAT     H229238  -7.127   7.537   7.569  2.4008 -1.0699  2.9032
 6858WAT    EPW29239  -7.196   7.519   7.620  0.2220  0.7052  0.7844
 6859WAT      O29240   5.011   4.964   0.832  0.3661  0.7813  0.5232
 6859WAT     H129241   5.098   4.924   0.828  0.0705  0.1557  0.2406
 6859WAT     H229242   4.957   4.899   0.876 -0.8716 -0.5605 -2.6699
 6859WAT    EPW29243   5.016   4.950   0.837  0.1636  0.5219  0.0648
 6860WAT      O29244   3.294   0.463   6.189  0.0343 -0.2855  0.6861
 6860WAT     H129245   3.366   0.435   6.132  2.8158  0.9549  3.2868
 6860WAT     H229246   3.269   0.383   6.236  0.8396 -0.4187  0.8981
 6860WAT    EPW29247   3.300   0.448   6.188  0.5074 -0.1395  1.0571
 6861WAT      O29248  -4.593   5.991   5.400  0.8072  0.1264  0.0935
 6861WAT     H129249  -4.578   5.985   5.306 -0.8568  0.2077 -0.2152
 6861WAT     H229250  -4.515   6.035   5.434  1.0249  0.9542 -1.3689
 6861WAT    EPW29251  -4.581   5.996   5.392  0.6163  0.2460 -0.1402
 6862WAT      O29252  -1.303   4.608   8.216  1.2279  0.1856 -0.2405
 6862WAT     H129253  -1.254   4.527   8.201  0.7951 -0.1667  0.1936
 6862WAT     H229254  -1.393   4.579   8.227  1.3791  0.4642  2.2378
 6862WAT    EPW29255  -1.308   4.593   8.215  1.1908  0.1760  0.1440
 6863WAT      O29256  -3.247   2.177   6.612 -0.4943  0.1590  0.5217
 6863WAT     H129257  -3.228   2.251   6.554 -2.1743  0.4671  0.3192
 6863WAT     H229258  -3.177   2.114   6.593  1.1604  1.7675  0.9207
 6863WAT    EPW29259  -3.235   2.178   6.602 -0.4976  0.4117  0.5476
 6864WAT      O29260   6.459   5.654   1.951 -0.1945  0.2211  0.5892
 6864WAT     H129261   6.451   5.734   2.003  1.0928  2.1540 -1.9152
 6864WAT     H229262   6.405   5.671   1.874  1.2293 -0.6635 -0.6643
 6864WAT    EPW29263   6.451   5.667   1.948  0.1631  0.3593  0.0936
 6865WAT      O29264  -4.241   8.962   4.444 -0.4610  0.2010 -0.7945
 6865WAT     H129265  -4.215   9.037   4.497 -3.4541  1.9801 -1.5858
 6865WAT     H229266  -4.246   8.889   4.506 -0.0873  1.2856  0.5455
 6865WAT    EPW29267  -4.238   8.962   4.459 -0.8066  0.5789 -0.7222
 6866WAT      O29268   4.883   9.950   1.876 -0.3070  0.2417  1.0715
 6866WAT     H129269   4.955   9.938   1.813  0.6710  0.8298  2.0420
 6866WAT     H229270   4.846   9.863   1.887 -1.7134  0.3720 -1.6740
 6866WAT    EPW29271   4.888   9.937   1.869 -0.3633  0.3366  0.8374
 6867WAT      O29272   3.156   3.460   1.466 -0.4685 -0.3705  0.3664
 6867WAT     H129273   3.154   3.370   1.497 -1.5150  0.3897  2.8384
 6867WAT     H229274   3.150   3.513   1.546  2.7731  1.9879 -0.7507
 6867WAT    EPW29275   3.155   3.455   1.481 -0.1789  0.0408  0.5450
 6868WAT      O29276   4.480   0.829   3.203  0.1205  0.2827  0.3697
 6868WAT     H129277   4.404   0.828   3.145 -0.0920  1.7319  0.5794
 6868WAT     H229278   4.454   0.885   3.276  0.3283 -1.5851  1.9821
 6868WAT    EPW29279   4.467   0.836   3.205  0.1199  0.2275  0.6100
 6869WAT      O29280   3.849   6.361   1.118  0.0135  0.4561 -0.1503
 6869WAT     H129281   3.780   6.374   1.052 -0.0919  1.4393  0.1427
 6869WAT     H229282   3.869   6.267   1.113 -0.6014  0.3567 -0.9763
 6869WAT    EPW29283   3.842   6.350   1.108 -0.0814  0.5727 -0.2207
 6870WAT      O29284  -1.395   1.804   2.752  0.5926  0.0831 -0.7842
 6870WAT     H129285  -1.420   1.864   2.682  0.4564 -0.8687 -1.5759
 6870WAT     H229286  -1.416   1.717   2.717 -0.8960 -0.3439  1.0270
 6870WAT    EPW29287  -1.401   1.800   2.738  0.3782 -0.0987 -0.6497
 6871WAT      O29288  -6.071   7.353   6.875  0.2494 -0.5932 -0.9353
 6871WAT     H129289  -6.038   7.440   6.897 -0.4512 -0.1193 -1.6905
 6871WAT     H229290  -6.041   7.297   6.947  0.1233  0.4041 -0.0793
 6871WAT    EPW29291  -6.063   7.357   6.887  0.1402 -0.3991 -0.9217
 6872WAT      O29292   3.991   9.693   2.407 -0.0970  0.3820  0.7666
 6872WAT     H129293   4.066   9.654   2.362 -0.8066 -0.4021  0.2300
 6872WAT     H229294   3.933   9.722   2.336 -0.5815  0.4111  1.1656
 6872WAT    EPW29295   3.993   9.692   2.391 -0.2545  0.2823  0.7484
 6873WAT      O29296   2.962   9.766   2.524  0.3437 -0.3852  0.0987
 6873WAT     H129297   2.879   9.719   2.528 -0.0534  0.3788  1.2159
 6873WAT     H229298   2.959   9.826   2.599  1.6794  0.0147 -0.1512
 6873WAT    EPW29299   2.951   9.768   2.535  0.4674 -0.2313  0.2131
 6874WAT      O29300  -2.180   6.795   3.944 -0.1080  0.2183  0.1019
 6874WAT     H129301  -2.165   6.816   4.036  0.8271  0.9568 -0.2067
 6874WAT     H229302  -2.223   6.872   3.908  1.6638  0.9355 -0.6036
 6874WAT    EPW29303  -2.183   6.808   3.951  0.2490  0.4101 -0.0318
 6875WAT      O29304  -1.574   2.704   5.420 -0.1741 -0.1628  1.0578
 6875WAT     H129305  -1.561   2.639   5.350  0.3445  1.4003 -0.3748
 6875WAT     H229306  -1.631   2.770   5.381  1.6561  1.7253  1.3988
 6875WAT    EPW29307  -1.580   2.704   5.405  0.1357  0.2925  0.9136
 6876WAT      O29308   3.146   4.373   0.473 -0.5566 -0.1856 -1.0691
 6876WAT     H129309   3.073   4.391   0.414 -3.2865  0.0479  2.0934
 6876WAT     H229310   3.117   4.297   0.523  0.0784  1.4944  2.0827
 6876WAT    EPW29311   3.132   4.365   0.472 -0.8329  0.0670 -0.2363
 6877WAT      O29312   4.208   7.043   3.480  0.4873  0.0568 -0.2937
 6877WAT     H129313   4.253   7.073   3.401 -0.3988  2.2476 -0.0415
 6877WAT     H229314   4.182   6.953   3.460  2.3837 -0.2752 -1.5369
 6877WAT    EPW29315   4.210   7.035   3.467  0.6206  0.3018 -0.4244
 6878WAT      O29316   1.542   6.628   7.324  0.2608  0.0659  0.0674
 6878WAT     H129317   1.546   6.561   7.256 -0.2738 -0.7011  0.7747
 6878WAT     H229318   1.450   6.655   7.326  0.5131  0.9971 -0.3678
 6878WAT    EPW29319   1.530   6.623   7.316  0.2235  0.0875  0.1032
 6879WAT      O29320  -2.470   7.445   5.932  0.7277 -0.2275  0.0719
 6879WAT     H129321  -2.456   7.359   5.970  0.6972  1.2943  4.0158
 6879WAT     H229322  -2.381   7.478   5.915  0.7671 -0.5924 -0.4797
 6879WAT    EPW29323  -2.456   7.438   5.935  0.7290 -0.0751  0.5193
 6880WAT      O29324   0.762   6.807   8.979 -0.6624 -0.1513 -0.5213
 6880WAT     H129325   0.711   6.877   9.021  1.2067  1.0107 -0.0891
 6880WAT     H229326   0.812   6.852   8.911  1.1633 -0.8919  0.2661
 6880WAT    EPW29327   0.762   6.822   8.976 -0.1750 -0.0957 -0.3604
 6881WAT      O29328  -0.957   8.850   4.506  0.4802 -0.4154  0.2798
 6881WAT     H129329  -0.916   8.782   4.452 -2.8251  0.0037 -3.1652
 6881WAT     H229330  -0.934   8.932   4.463 -0.0053  0.2040  1.1794
 6881WAT    EPW29331  -0.948   8.852   4.493 -0.0198 -0.2785 -0.0563
 6882WAT      O29332  -2.492   6.856   4.245 -0.0009 -0.1574  0.3459
 6882WAT     H129333  -2.398   6.840   4.258  0.1959 -1.6889 -2.3002
 6882WAT     H229334  -2.509   6.937   4.294  3.1305  1.2343 -0.6010
 6882WAT    EPW29335  -2.482   6.865   4.253  0.4381 -0.1757 -0.1278
 6883WAT      O29336   1.988   3.440   1.116 -0.7562  0.9955  0.8639
 6883WAT     H129337   1.920   3.421   1.181 -2.5909 -1.1055 -1.4873
 6883WAT     H229338   2.047   3.366   1.121  0.9465  2.3671  2.2384
 6883WAT    EPW29339   1.986   3.428   1.125 -0.7735  0.8993  0.7351
 6884WAT      O29340   4.721   2.498   2.942 -0.0211 -0.3004  0.1514
 6884WAT     H129341   4.813   2.520   2.958 -0.4136  0.3396  1.7141
 6884WAT     H229342   4.679   2.582   2.924 -0.5950 -0.3652  1.1225
 6884WAT    EPW29343   4.728   2.512   2.942 -0.1488 -0.2244  0.4857
 6885WAT      O29344  -2.405   6.950   5.527 -0.3610 -0.1567  0.7974
 6885WAT     H129345  -2.456   6.968   5.447  0.9180  0.0744  0.0124
 6885WAT     H229346  -2.355   6.871   5.506  1.3703  0.9246  0.6618
 6885WAT    EPW29347  -2.405   6.942   5.514  0.0361  0.0165  0.6759
 6886WAT      O29348   0.593   7.491   7.119 -0.7796  0.1642 -0.4841
 6886WAT     H129349   0.541   7.452   7.190 -0.3748 -0.8631 -0.7279
 6886WAT     H229350   0.550   7.574   7.100 -3.0691 -1.1627 -1.5008
 6886WAT    EPW29351   0.580   7.496   7.126 -1.0282 -0.1464 -0.6504
 6887WAT      O29352  -4.345   5.792   8.298 -0.6090  0.4500 -0.4259
 6887WAT     H129353  -4.276   5.815   8.236  0.9417  0.8926  1.3648
 6887WAT     H229354  -4.422   5.839   8.266 -0.0333  0.2352 -2.2815
 6887WAT    EPW29355  -4.346   5.801   8.285 -0.3285  0.4802 -0.4344
 6888WAT      O29356   2.374   4.972   5.519 -0.7498  0.1016  1.2239
 6888WAT     H129357   2.439   5.011   5.461 -2.6610  0.3063 -0.9036
 6888WAT     H229358   2.394   4.878   5.517 -0.8921  0.0790  0.0465
 6888WAT    EPW29359   2.385   4.965   5.511 -1.0207  0.1259  0.7880
 6889WAT      O29360  -0.009   3.409   0.945 -0.3702  0.3231  0.1308
 6889WAT     H129361  -0.029   3.463   0.869 -1.9736  0.1503  0.4047
 6889WAT     H229362  -0.050   3.454   1.019 -1.8949 -1.2800  0.3466
 6889WAT    EPW29363  -0.017   3.422   0.945 -0.7828  0.0889  0.1954
 6890WAT      O29364   6.483   7.488   0.755  1.4919 -0.2192 -0.3554
 6890WAT     H129365   6.527   7.538   0.824  0.9358 -1.6820  1.1458
 6890WAT     H229366   6.421   7.549   0.716 -0.9256 -0.2259  3.0451
 6890WAT    EPW29367   6.480   7.503   0.759  1.0998 -0.4132  0.2911
 6891WAT      O29368   5.077   3.627   5.790  0.7169  0.4844 -0.5671
 6891WAT     H129369   5.003   3.636   5.851  0.5704 -1.9798 -0.2877
 6891WAT     H229370   5.154   3.646   5.843  0.4313  1.0259 -0.3311
 6891WAT    EPW29371   5.077   3.631   5.805  0.6597  0.2308 -0.4990
 6892WAT      O29372  -1.706   5.293   0.404 -0.2526 -0.5831  0.3038
 6892WAT     H129373  -1.728   5.200   0.401 -1.2291 -0.3469 -2.3260
 6892WAT     H229374  -1.789   5.337   0.386  0.7469  0.6633 -1.5029
 6892WAT    EPW29375  -1.720   5.287   0.401 -0.2496 -0.3874 -0.2814
 6893WAT      O29376   1.393   4.197   1.985  0.4315  0.0880 -0.1419
 6893WAT     H129377   1.308   4.164   2.015  1.0640 -1.6226 -0.0651
 6893WAT     H229378   1.419   4.262   2.051 -0.1171 -0.5213  0.7000
 6893WAT    EPW29379   1.386   4.201   1.998  0.4425 -0.2179 -0.0207
 6894WAT      O29380   1.522   5.323   4.198  0.6293  0.4119  0.2181
 6894WAT     H129381   1.523   5.280   4.112  0.3900 -1.1465  0.9695
 6894WAT     H229382   1.488   5.411   4.180 -2.5012 -0.8675 -0.8723
 6894WAT    EPW29383   1.518   5.329   4.184  0.1849  0.0377  0.1733
 6895WAT      O29384   3.807   2.887   4.544 -0.3990  0.1323 -0.4076
 6895WAT     H129385   3.894   2.851   4.559  0.4110  2.2375  0.2211
 6895WAT     H229386   3.769   2.830   4.477  0.8376 -1.7560  0.4174
 6895WAT    EPW29387   3.813   2.874   4.537 -0.1291  0.1608 -0.2158
 6896WAT      O29388   0.461   8.561   4.431 -0.2096 -0.4523 -0.4555
 6896WAT     H129389   0.420   8.643   4.407 -1.9629 -1.2064 -0.1798
 6896WAT     H229390   0.397   8.518   4.489  2.3932 -0.1565  2.9772
 6896WAT    EPW29391   0.447   8.566   4.436 -0.0976 -0.5126  0.0336
 6897WAT      O29392   6.913   0.955   1.590  0.1057 -0.4362  0.5414
 6897WAT     H129393   6.891   1.044   1.563 -0.2392  0.3696  3.1870
 6897WAT     H229394   6.856   0.900   1.537  1.0358  0.7893 -1.8850
 6897WAT    EPW29395   6.902   0.960   1.580  0.1826 -0.1683  0.5703
 6898WAT      O29396   1.645   2.003   4.672 -0.9644 -0.6896  0.2574
 6898WAT     H129397   1.579   1.975   4.609 -0.3456  2.4656 -2.0400
 6898WAT     H229398   1.598   2.010   4.755 -2.9441 -0.6371 -0.8251
 6898WAT    EPW29399   1.630   2.000   4.674 -1.1439 -0.2666 -0.1884
 6899WAT      O29400   7.660   0.367   0.118  0.9147 -0.2980 -0.2265
 6899WAT     H129401   7.632   0.337   0.032 -0.6290 -0.1163  0.1888
 6899WAT     H229402   7.753   0.387   0.107  1.4211 -2.8354 -1.1451
 6899WAT    EPW29403   7.669   0.366   0.106  0.7780 -0.6087 -0.2929
 6900WAT      O29404   7.351   2.142   1.262  0.8991  0.1592 -0.4234
 6900WAT     H129405   7.305   2.206   1.316  0.9376  0.9010 -1.2384
 6900WAT     H229406   7.360   2.065   1.318  0.0561  0.5499  0.2754
 6900WAT    EPW29407   7.346   2.140   1.277  0.7930  0.3086 -0.4387
 6901WAT      O29408  -2.367   9.454   0.553 -0.1795 -1.0173 -0.7330
 6901WAT     H129409  -2.435   9.387   0.561 -0.5179 -0.5971  0.1496
 6901WAT     H229410  -2.416   9.534   0.531  0.0602 -0.7824 -0.4232
 6901WAT    EPW29411  -2.383   9.456   0.551 -0.1925 -0.9308 -0.5758
 6902WAT      O29412  -4.102   3.495   8.747  0.2163  0.0988 -0.1153
 6902WAT     H129413  -4.089   3.440   8.825 -0.3577  2.1026  1.4781
 6902WAT     H229414  -4.161   3.443   8.692 -0.9343 -0.6286  1.6757
 6902WAT    EPW29415  -4.108   3.481   8.750 -0.0112  0.2671  0.3314
 6903WAT      O29416   4.388   0.575   1.501  0.2144 -0.4820  0.0569
 6903WAT     H129417   4.425   0.555   1.414 -1.3837 -0.9390 -0.5600
 6903WAT     H229418   4.354   0.664   1.493 -0.8546 -0.8926 -0.1387
 6903WAT    EPW29419   4.388   0.584   1.488 -0.1373 -0.5964 -0.0503
 6904WAT      O29420   2.195   5.432   7.674 -0.5782  0.3295 -0.2584
 6904WAT     H129421   2.226   5.514   7.712 -1.1763  0.7297 -0.6092
 6904WAT     H229422   2.105   5.424   7.704  0.2638 -1.6129  2.0242
 6904WAT    EPW29423   2.187   5.442   7.683 -0.5460  0.1261 -0.0038
 6905WAT      O29424  -0.868   1.639   2.019  0.2788 -0.4204  0.8074
 6905WAT     H129425  -0.798   1.699   2.044 -1.8725  1.8882  1.6641
 6905WAT     H229426  -0.902   1.674   1.937 -0.1221 -1.2948  0.5881
 6905WAT    EPW29427  -0.863   1.651   2.011 -0.0578 -0.2313  0.8916
 6906WAT      O29428   6.242   1.444   3.520 -0.1362 -0.0974  0.2875
 6906WAT     H129429   6.237   1.486   3.434  1.8116 -0.7976 -0.2033
 6906WAT     H229430   6.243   1.351   3.501  0.7655 -0.2509  1.0413
 6906WAT    EPW29431   6.241   1.438   3.507  0.2396 -0.2100  0.3221
 6907WAT      O29432  -0.189   1.821   2.427  0.3514  0.1729  0.2437
 6907WAT     H129433  -0.135   1.742   2.422 -0.1618 -0.2774  1.5895
 6907WAT     H229434  -0.202   1.846   2.335 -2.6995 -3.5039 -0.5366
 6907WAT    EPW29435  -0.183   1.814   2.414 -0.1187 -0.3713  0.3183
 6908WAT      O29436  -0.497  10.037   7.703 -0.5191  0.1426 -1.1602
 6908WAT     H129437  -0.578  10.025   7.754  0.7816 -1.1176  0.7581
 6908WAT     H229438  -0.470   9.949   7.679  0.1969  0.5595 -1.9488
 6908WAT    EPW29439  -0.504  10.024   7.707 -0.2531  0.0315 -1.0111
 6909WAT      O29440  -4.076   5.046   7.320  0.4136  0.0942  0.7875
 6909WAT     H129441  -4.160   5.054   7.364  0.9305  1.2277  1.6253
 6909WAT     H229442  -4.048   4.956   7.337 -0.1891  0.0008  1.3158
 6909WAT    EPW29443  -4.083   5.035   7.328  0.4025  0.2313  0.9677
 6910WAT      O29444  -0.902   6.701   8.851  0.0468 -0.2744  0.5251
 6910WAT     H129445  -0.866   6.651   8.777  0.3978  0.7859 -0.0416
 6910WAT     H229446  -0.890   6.644   8.927  2.9778  0.0132  0.3843
 6910WAT    EPW29447  -0.896   6.687   8.851  0.4797 -0.0966  0.4315
 6911WAT      O29448  -4.699   2.956   7.522  0.1283  0.1710  0.4481
 6911WAT     H129449  -4.637   2.929   7.590 -0.0686  1.6333  1.2622
 6911WAT     H229450  -4.649   3.017   7.467 -0.2650  0.4878  0.4379
 6911WAT    EPW29451  -4.684   2.960   7.524  0.0503  0.4055  0.5543
 6912WAT      O29452   1.744   1.043   2.080 -0.4329  0.5440  0.2147
 6912WAT     H129453   1.751   0.955   2.043  0.0306  0.3207  0.8193
 6912WAT     H229454   1.690   1.032   2.158 -0.1282  0.7424  0.4559
 6912WAT    EPW29455   1.737   1.030   2.085 -0.3315  0.5407  0.3262
 6913WAT      O29456   0.582   8.526   2.434 -0.5355  0.1104  0.4354
 6913WAT     H129457   0.652   8.578   2.394 -1.3946  0.8128 -0.2152
 6913WAT     H229458   0.563   8.458   2.369  0.1112 -0.6056  0.9831
 6913WAT    EPW29459   0.589   8.524   2.420 -0.5635  0.1087  0.4219
 6914WAT      O29460  -1.498   2.488   7.062  0.2874  0.3328 -0.1050
 6914WAT     H129461  -1.490   2.395   7.040 -7.8454 -1.6698  1.7766
 6914WAT     H229462  -1.464   2.495   7.151  0.0960 -1.1857  0.1186
 6914WAT    EPW29463  -1.493   2.476   7.071 -0.8105 -0.1316  0.1729
 6915WAT      O29464  -0.228   6.813   3.051 -0.4623 -0.0145  0.1944
 6915WAT     H129465  -0.239   6.893   3.103 -1.4355  0.0619 -0.1084
 6915WAT     H229466  -0.209   6.745   3.116 -1.8939  0.0343  0.7092
 6915WAT    EPW29467  -0.227   6.814   3.066 -0.7795  0.0021  0.2223
 6916WAT      O29468   2.195   4.745   1.628  0.0387  0.4716  0.1192
 6916WAT     H129469   2.128   4.677   1.635  1.0449 -0.9213 -2.3357
 6916WAT     H229470   2.278   4.697   1.633  0.7910  1.3272 -2.3414
 6916WAT    EPW29471   2.197   4.729   1.630  0.2705  0.4005 -0.5292
 6917WAT      O29472   2.231   7.381   0.065  0.5989  0.1276 -0.6502
 6917WAT     H129473   2.222   7.436   0.143  0.1470 -3.3022  1.9574
 6917WAT     H229474   2.156   7.406   0.010 -1.7003 -0.2047  2.0726
 6917WAT    EPW29475   2.220   7.391   0.068  0.2362 -0.3686  0.0528
 6918WAT      O29476   4.459   7.118   0.595 -0.0525  0.1075 -0.3720
 6918WAT     H129477   4.501   7.195   0.633  1.1659 -0.0242 -1.3562
 6918WAT     H229478   4.480   7.047   0.655 -0.0028  0.3001 -0.1606
 6918WAT    EPW29479   4.468   7.119   0.608  0.1147  0.1154 -0.4739
 6919WAT      O29480   3.833   1.206   8.676  0.1268 -0.1974 -0.0377
 6919WAT     H129481   3.860   1.298   8.679 -0.6515  0.0161  2.6766
 6919WAT     H229482   3.870   1.173   8.594  0.9995  2.3372 -0.7563
 6919WAT    EPW29483   3.841   1.214   8.665  0.1392  0.1650  0.2255
 6920WAT      O29484   0.961   5.172   4.833  0.1163  0.5939 -0.4214
 6920WAT     H129485   0.884   5.168   4.890  0.6261  0.1045  0.2452
 6920WAT     H229486   0.933   5.228   4.760 -0.3567  1.6967  0.5706
 6920WAT    EPW29487   0.947   5.179   4.831  0.1211  0.6747 -0.2027
 6921WAT      O29488   0.126   4.831   2.639 -0.1869  0.4976 -0.6552
 6921WAT     H129489   0.044   4.879   2.649 -2.2299 -2.9720  1.0174
 6921WAT     H229490   0.164   4.830   2.727 -0.4849 -1.3159 -0.5165
 6921WAT    EPW29491   0.120   4.837   2.652 -0.4957 -0.1993 -0.4163
 6922WAT      O29492   3.176   3.923   2.157  0.1471  0.2177  0.5622
 6922WAT     H129493   3.137   3.923   2.245  1.0914  1.1272  1.0044
 6922WAT     H229494   3.245   3.857   2.162  1.4139  1.5312  1.0999
 6922WAT    EPW29495   3.180   3.914   2.170  0.4387  0.5108  0.6914
 6923WAT      O29496   3.271   5.774   4.762 -0.5594 -0.8658 -0.3577
 6923WAT     H129497   3.366   5.784   4.770 -0.4201 -1.5633 -1.0574
 6923WAT     H229498   3.244   5.740   4.848 -0.5797  1.8154  0.8111
 6923WAT    EPW29499   3.280   5.771   4.775 -0.5437 -0.6042 -0.2959
 6924WAT      O29500   6.782   1.644   2.631 -0.8829  0.2828 -0.4074
 6924WAT     H129501   6.722   1.635   2.557 -1.6707  1.4609  0.0553
 6924WAT     H229502   6.734   1.698   2.694 -0.1739 -0.5706  0.9131
 6924WAT    EPW29503   6.768   1.650   2.630 -0.8934  0.3256 -0.1723
 6925WAT      O29504   2.785   1.814   5.342  0.6284  0.3290 -0.3594
 6925WAT     H129505   2.719   1.871   5.381 -0.3454 -0.7344 -0.4040
 6925WAT     H229506   2.863   1.828   5.395  0.4028  1.6769 -0.3593
 6925WAT    EPW29507   2.786   1.823   5.354  0.4702  0.3664 -0.3653
 6926WAT      O29508  -5.075   4.986   6.349 -0.4968 -0.0165  0.8356
 6926WAT     H129509  -4.981   4.981   6.330 -0.9918  1.0933 -2.7707
 6926WAT     H229510  -5.097   4.899   6.382  1.3325 -1.3378 -1.1194
 6926WAT    EPW29511  -5.065   4.974   6.350 -0.3209 -0.0446  0.1020
 6927WAT      O29512  -0.356   6.195   6.811  0.3242  0.3403 -0.1976
 6927WAT     H129513  -0.377   6.284   6.785  0.6048  0.8123  1.0858
 6927WAT     H229514  -0.367   6.142   6.732 -0.2135  1.4509 -0.8738
 6927WAT    EPW29515  -0.360   6.199   6.797  0.2903  0.5491 -0.1175
 6928WAT      O29516  -6.941   8.490   6.731  0.3309 -0.7920  0.2604
 6928WAT     H129517  -7.037   8.488   6.741  0.3620 -2.9424  0.5193
 6928WAT     H229518  -6.911   8.408   6.769  2.1545 -0.8546 -1.1622
 6928WAT    EPW29519  -6.950   8.479   6.737  0.5755 -1.0839  0.1068
 6929WAT      O29520  -2.710   0.557   5.660  0.4426 -0.0365 -0.3685
 6929WAT     H129521  -2.738   0.557   5.568  0.4998  0.1085 -0.3860
 6929WAT     H229522  -2.791   0.546   5.710  0.2103  1.4339 -0.3813
 6929WAT    EPW29523  -2.725   0.556   5.655  0.4195  0.1766 -0.3724
 6930WAT      O29524   2.896   5.747   7.231  0.2058  0.2085 -0.1765
 6930WAT     H129525   2.878   5.841   7.221  1.9780  0.5749 -0.2389
 6930WAT     H229526   2.973   5.732   7.176  1.7639 -0.6459  2.0724
 6930WAT    EPW29527   2.904   5.758   7.222  0.6450  0.1442  0.1121
 6931WAT      O29528   1.819   1.604   4.792 -0.5474 -0.4870 -0.3046
 6931WAT     H129529   1.760   1.674   4.821  0.3935 -0.2858  1.2027
 6931WAT     H229530   1.804   1.533   4.854  0.7323 -0.4600  0.0535
 6931WAT    EPW29531   1.809   1.604   4.804 -0.2545 -0.4569 -0.0584
 6932WAT      O29532  -2.250   2.202   2.577  0.0180 -0.1026  0.4424
 6932WAT     H129533  -2.325   2.159   2.616  0.6156 -1.9975 -0.3783
 6932WAT     H229534  -2.249   2.172   2.486  0.4451  1.7432 -0.2250
 6932WAT    EPW29535  -2.259   2.193   2.570  0.1532 -0.1092  0.2462
 6933WAT      O29536  -3.806   3.295   7.384  0.3782  0.6173 -0.0581
 6933WAT     H129537  -3.794   3.374   7.436  1.4581  0.0814  0.5618
 6933WAT     H229538  -3.741   3.233   7.419 -1.6300 -1.1912  0.7157
 6933WAT    EPW29539  -3.796   3.297   7.396  0.2558  0.3080  0.1256
 6934WAT      O29540   1.176   4.673   3.954  0.0218 -0.6646  1.2308
 6934WAT     H129541   1.247   4.640   4.009  1.3100 -2.4996 -1.3283
 6934WAT     H229542   1.113   4.602   3.952  0.7677 -1.3227 -0.8822
 6934WAT    EPW29543   1.177   4.660   3.961  0.2902 -0.9935  0.6146
 6935WAT      O29544  -2.603   6.513   6.939 -0.9048  0.0217  0.6697
 6935WAT     H129545  -2.512   6.494   6.962 -0.4351 -0.1484 -1.1673
 6935WAT     H229546  -2.651   6.434   6.966 -0.8922  0.8512  3.3894
 6935WAT    EPW29547  -2.597   6.500   6.946 -0.8413  0.1087  0.7861
 6936WAT      O29548   7.061   4.888   3.446 -0.7907  0.2770  0.6102
 6936WAT     H129549   7.156   4.889   3.454 -0.8312 -0.6514  1.4745
 6936WAT     H229550   7.032   4.971   3.485 -0.4271 -0.2775  2.1296
 6936WAT    EPW29551   7.070   4.899   3.452 -0.7482  0.0813  0.9246
 6937WAT      O29552   9.000   5.205   0.194  0.0143  0.1024  0.5789
 6937WAT     H129553   9.044   5.134   0.147 -0.8186 -3.0240  4.0219
 6937WAT     H229554   8.908   5.195   0.171 -0.0364  0.4641  0.6173
 6937WAT    EPW29555   8.994   5.194   0.185 -0.1020 -0.2620  1.0381
 6938WAT      O29556   1.969   9.243   6.872  0.5206 -0.7680  0.0287
 6938WAT     H129557   1.883   9.258   6.832 -0.0178 -0.1214  1.3686
 6938WAT     H229558   2.018   9.194   6.806  0.0250  1.0914 -1.8394
 6938WAT    EPW29559   1.964   9.239   6.858  0.3843 -0.4377 -0.0410
 6939WAT      O29560   5.682   6.663   2.004  0.4955 -0.5160 -0.3375
 6939WAT     H129561   5.723   6.740   2.043  1.6580 -1.7016  0.8873
 6939WAT     H229562   5.732   6.589   2.038 -0.4651 -1.8207 -1.6188
 6939WAT    EPW29563   5.694   6.663   2.013  0.5221 -0.8445 -0.3449
 6940WAT      O29564   2.375   3.054   0.336 -0.4722  0.2422 -0.3250
 6940WAT     H129565   2.402   3.121   0.273 -2.1605  1.7343  0.4280
 6940WAT     H229566   2.301   3.094   0.382  0.5986 -0.8269  2.5179
 6940WAT    EPW29567   2.369   3.069   0.334 -0.5537  0.2979  0.1493
 6941WAT      O29568   0.678   0.726   4.545 -0.2395 -0.0014  0.0966
 6941WAT     H129569   0.662   0.820   4.535 -0.3520  0.0761  0.9060
 6941WAT     H229570   0.591   0.686   4.543 -0.5798  0.2865  3.1641
 6941WAT    EPW29571   0.664   0.733   4.544 -0.2992  0.0468  0.6082
 6942WAT      O29572  -0.758   2.894   7.706 -0.7781  0.3417  0.2154
 6942WAT     H129573  -0.726   2.804   7.715 -1.2872  0.2551  1.3054
 6942WAT     H229574  -0.691   2.948   7.747  0.8979  0.7950 -2.8033
 6942WAT    EPW29575  -0.745   2.889   7.713 -0.6242  0.3902 -0.0389
 6943WAT      O29576  -1.076   2.781   6.796 -0.3056  0.3045 -0.2751
 6943WAT     H129577  -1.137   2.716   6.830 -0.5596  0.2937 -0.7381
 6943WAT     H229578  -1.050   2.833   6.872  0.0118 -0.4305  0.1294
 6943WAT    EPW29579  -1.081   2.779   6.810 -0.2972  0.2062 -0.2828
 6944WAT      O29580   1.409   3.347   4.634  1.2708 -0.0090  0.6639
 6944WAT     H129581   1.327   3.388   4.660  1.2018 -0.6481  1.5107
 6944WAT     H229582   1.409   3.263   4.680  1.7111 -0.6743 -0.5047
 6944WAT    EPW29583   1.398   3.341   4.643  1.3197 -0.1811  0.6213
 6945WAT      O29584  -0.027  10.284   5.616  0.2668  0.0314 -0.4985
 6945WAT     H129585  -0.110  10.286   5.569  0.0311 -2.2008 -0.2657
 6945WAT     H229586  -0.051  10.276   5.708  0.7460 -0.3977 -0.4091
 6945WAT    EPW29587  -0.041  10.283   5.622  0.2989 -0.3195 -0.4559
 6946WAT      O29588   5.307   1.250   3.781 -0.1035 -0.5829 -0.1866
 6946WAT     H129589   5.376   1.287   3.836 -0.3639 -2.2580  1.3726
 6946WAT     H229590   5.262   1.325   3.744 -0.9977  0.7683  3.2599
 6946WAT    EPW29591   5.310   1.265   3.784 -0.2556 -0.6256  0.4736
 6947WAT      O29592   2.932   3.014   8.285  0.1950 -0.1231 -0.0664
 6947WAT     H129593   3.010   2.985   8.333  0.2872  0.9456  0.4545
 6947WAT     H229594   2.878   3.057   8.351 -2.0466 -2.9566  0.1547
 6947WAT    EPW29595   2.935   3.015   8.300 -0.0886 -0.3558  0.0315
 6948WAT      O29596   6.143   2.165   5.058 -0.3276 -0.1477  0.3487
 6948WAT     H129597   6.137   2.260   5.071  1.4273  0.0564 -0.0787
 6948WAT     H229598   6.089   2.148   4.981 -1.7555  0.2730  1.2148
 6948WAT    EPW29599   6.135   2.175   5.050 -0.2847 -0.0654  0.4065
 6949WAT      O29600  -1.340   7.181   4.342 -0.2179 -0.5558 -0.5460
 6949WAT     H129601  -1.285   7.140   4.275 -0.2383  0.6932 -1.3520
 6949WAT     H229602  -1.301   7.152   4.425 -0.8833 -3.0711 -1.0163
 6949WAT    EPW29603  -1.327   7.171   4.344 -0.3083 -0.7229 -0.7143
 6950WAT      O29604  -1.732   3.158   4.474 -0.1213  0.1242 -0.7449
 6950WAT     H129605  -1.637   3.150   4.464 -0.2934 -2.0233 -1.0987
 6950WAT     H229606  -1.766   3.166   4.385 -0.4345 -1.9021 -0.8454
 6950WAT    EPW29607  -1.724   3.158   4.461 -0.1854 -0.4263 -0.8049
 6951WAT      O29608  -4.538   4.440   7.865  0.9694 -0.1637 -0.2555
 6951WAT     H129609  -4.591   4.385   7.923 -0.3360  1.8657  0.5645
 6951WAT     H229610  -4.597   4.466   7.795  1.5949  0.1797 -0.6669
 6951WAT    EPW29611  -4.553   4.436   7.864  0.8798  0.1493 -0.2017
 6952WAT      O29612   4.246   0.077   1.055 -0.0302 -0.3663  0.2052
 6952WAT     H129613   4.233   0.094   1.148 -0.4099 -1.8327  0.4367
 6952WAT     H229614   4.159   0.088   1.016 -0.4265 -2.2560  0.4626
 6952WAT    EPW29615   4.233   0.081   1.062 -0.1326 -0.8090  0.2697
 6953WAT      O29616  -3.513   9.941   7.485  0.3004 -0.0558 -0.2749
 6953WAT     H129617  -3.536   9.902   7.570 -1.7103  0.8245 -0.3717
 6953WAT     H229618  -3.465  10.021   7.508 -3.0486  1.9705  0.2467
 6953WAT    EPW29619  -3.510   9.947   7.499 -0.4065  0.3276 -0.2186
 6954WAT      O29620   5.775   3.643   2.343 -0.2017  0.1382  0.6784
 6954WAT     H129621   5.830   3.576   2.301  0.9966  0.2146  2.0604
 6954WAT     H229622   5.687   3.625   2.310  0.3575 -1.1027 -0.2324
 6954WAT    EPW29623   5.771   3.632   2.333  0.0300 -0.0153  0.7405
 6955WAT      O29624   3.600   9.066   2.710  0.0576 -0.0243 -0.2517
 6955WAT     H129625   3.543   9.132   2.750 -0.2565  0.8646 -2.0738
 6955WAT     H229626   3.544   8.989   2.702  0.2658 -0.3843  1.3927
 6955WAT    EPW29627   3.585   9.065   2.714  0.0436  0.0453 -0.2751
 6956WAT      O29628   3.179   4.029   8.757 -0.9068  0.2566  0.0333
 6956WAT     H129629   3.106   4.084   8.729 -1.7248 -0.9667 -0.3088
 6956WAT     H229630   3.158   4.006   8.848 -0.6623  0.3518  0.1133
 6956WAT    EPW29631   3.167   4.033   8.765 -0.9825  0.1080 -0.0010
 6957WAT      O29632   3.198   8.430   5.679  0.7701  0.2508 -0.3599
 6957WAT     H129633   3.191   8.482   5.759  0.7565  0.8604 -0.7516
 6957WAT     H229634   3.108   8.407   5.658  0.8843 -1.4556  0.7775
 6957WAT    EPW29635   3.186   8.433   5.687  0.7834  0.1059 -0.2618
 6958WAT      O29636   1.800   8.712   1.666  0.2840  0.6892 -0.0495
 6958WAT     H129637   1.838   8.746   1.747  0.6752 -1.5292  0.7598
 6958WAT     H229638   1.873   8.671   1.620 -0.5867 -1.4062  0.3304
 6958WAT    EPW29639   1.815   8.711   1.671  0.2208  0.1202  0.1073
 6959WAT      O29640  -4.981   9.926   6.316 -0.9030  0.6349  0.2874
 6959WAT     H129641  -5.077   9.931   6.322 -1.0889 -0.3780 -1.2605
 6959WAT     H229642  -4.964   9.912   6.223  0.6377 -1.4547  0.8209
 6959WAT    EPW29643  -4.992   9.925   6.305 -0.7243  0.2255  0.1535
 6960WAT      O29644   2.026   5.586   4.336 -0.4494 -0.1787 -0.1657
 6960WAT     H129645   2.081   5.559   4.409  0.2350 -0.0508 -0.6266
 6960WAT     H229646   1.943   5.610   4.377 -0.9733 -2.5845  0.3088
 6960WAT    EPW29647   2.022   5.586   4.351 -0.4282 -0.4790 -0.1638
 6961WAT      O29648  -2.784   9.523   7.252  0.3062 -0.3574 -0.5905
 6961WAT     H129649  -2.701   9.552   7.290  0.8070 -3.8072  1.3839
 6961WAT     H229650  -2.760   9.486   7.167  0.6687 -0.4999 -0.4288
 6961WAT    EPW29651  -2.770   9.522   7.246  0.4201 -0.8316 -0.3088
 6962WAT      O29652   1.744   9.476   1.439  0.1015  0.4443 -1.1667
 6962WAT     H129653   1.686   9.515   1.505 -1.1777  0.4598 -2.2496
 6962WAT     H229654   1.685   9.425   1.383  1.2320 -0.0305 -1.9589
 6962WAT    EPW29655   1.728   9.474   1.440  0.0819  0.3834 -1.4141
 6963WAT      O29656   4.867   4.738   4.260 -0.7005 -0.0498  0.1673
 6963WAT     H129657   4.855   4.767   4.351 -1.2407  0.1531  0.0330
 6963WAT     H229658   4.956   4.767   4.238 -1.3852  1.9542 -0.1175
 6963WAT    EPW29659   4.877   4.745   4.269 -0.8621  0.2413  0.1121
 6964WAT      O29660  -2.148   3.094   2.408 -0.1581 -0.6556 -0.0075
 6964WAT     H129661  -2.172   3.161   2.345 -2.9366 -1.5642 -0.0612
 6964WAT     H229662  -2.167   3.011   2.363  1.3246 -1.4596  0.7560
 6964WAT    EPW29663  -2.154   3.092   2.394 -0.3290 -0.8816  0.0862
 6965WAT      O29664  -2.950   9.699   6.447 -0.3478 -0.6655 -0.1102
 6965WAT     H129665  -2.907   9.694   6.361  0.0027 -0.1399  0.0300
 6965WAT     H229666  -2.906   9.771   6.491 -2.0821  0.5918 -0.3538
 6965WAT    EPW29667  -2.938   9.707   6.441 -0.5302 -0.4306 -0.1240
 6966WAT      O29668  -0.041   2.150   3.335  0.3647  0.4743  0.1212
 6966WAT     H129669  -0.080   2.070   3.369  0.6982  1.1680  2.2488
 6966WAT     H229670   0.003   2.123   3.255 -0.0191 -1.3391  0.4827
 6966WAT    EPW29671  -0.040   2.136   3.329  0.3581  0.3266  0.4495
 6967WAT      O29672   0.022   3.276   8.115 -0.6225  1.2901  0.8556
 6967WAT     H129673  -0.047   3.242   8.058  0.5846  0.2514 -0.0152
 6967WAT     H229674  -0.025   3.332   8.177 -2.2040  0.9037  0.0625
 6967WAT    EPW29675   0.006   3.279   8.116 -0.6719  1.1022  0.6361
 6968WAT      O29676  -5.022   5.949   7.780 -0.6389  0.1317 -0.2323
 6968WAT     H129677  -5.111   5.943   7.813  0.6266 -1.8256  3.4211
 6968WAT     H229678  -5.014   5.877   7.718 -1.4186 -0.1401 -0.0231
 6968WAT    EPW29679  -5.033   5.939   7.776 -0.5751 -0.1624  0.2773
 6969WAT      O29680   3.432   2.478   0.393  0.6211  0.2775 -0.1456
 6969WAT     H129681   3.419   2.408   0.457 -6.0500  0.0084 -1.1211
 6969WAT     H229682   3.450   2.556   0.446  0.5449 -0.8471  1.6272
 6969WAT    EPW29683   3.433   2.479   0.409 -0.2688  0.0937 -0.0404
 6970WAT      O29684   5.558   3.630   6.254  0.3705 -0.1380 -0.0534
 6970WAT     H129685   5.626   3.610   6.318 -0.8537 -0.8272  1.0921
 6970WAT     H229686   5.605   3.640   6.171  2.1284  1.7918  1.0768
 6970WAT    EPW29687   5.573   3.629   6.251  0.4408  0.0257  0.2465
 6971WAT      O29688  -2.019   0.756   8.460  0.5852 -0.8203 -0.1117
 6971WAT     H129689  -1.939   0.803   8.440  1.2585 -1.1741  1.5273
 6971WAT     H229690  -2.072   0.818   8.511  0.3942 -1.0136 -0.0697
 6971WAT    EPW29691  -2.015   0.770   8.464  0.6487 -0.8925  0.1097
 6972WAT      O29692   4.434  10.325   3.303 -0.2961  0.5045 -0.7473
 6972WAT     H129693   4.492  10.385   3.256  0.4139  0.6693  0.2911
 6972WAT     H229694   4.346  10.358   3.286  0.1259  3.1960  1.4805
 6972WAT    EPW29695   4.430  10.337   3.295 -0.1469  0.8817 -0.3165
 6973WAT      O29696  -2.246   8.947   5.021  0.6210 -0.1079 -0.4334
 6973WAT     H129697  -2.290   8.862   5.014 -0.0024  0.3452 -2.9538
 6973WAT     H229698  -2.175   8.932   5.083 -0.7889 -1.8691  0.8489
 6973WAT    EPW29699  -2.242   8.934   5.028  0.3529 -0.2804 -0.5968
 6974WAT      O29700   0.483   8.170   5.608 -0.5415  0.0025 -0.7694
 6974WAT     H129701   0.421   8.242   5.595  1.6040  2.0066 -0.4856
 6974WAT     H229702   0.525   8.189   5.691 -0.8693 -2.3960  0.0185
 6974WAT    EPW29703   0.480   8.182   5.617 -0.3017 -0.0496 -0.6282
 6975WAT      O29704  -5.025   5.604   8.075  0.7102  0.2096  0.8075
 6975WAT     H129705  -4.952   5.666   8.085  0.3676  0.7229  0.1868
 6975WAT     H229706  -5.002   5.531   8.132  1.0661  0.9581  1.6515
 6975WAT    EPW29707  -5.012   5.603   8.083  0.7119  0.3760  0.8368
 6976WAT      O29708   2.187   3.184   0.509 -0.2632  0.6021 -0.3884
 6976WAT     H129709   2.136   3.238   0.448 -1.0546  0.3703  0.0556
 6976WAT     H229710   2.124   3.122   0.544  0.4620 -0.0811 -0.2681
 6976WAT    EPW29711   2.172   3.183   0.505 -0.2719  0.4815 -0.3139
 6977WAT      O29712   4.907   2.080   6.953 -0.1009 -0.4013 -0.2578
 6977WAT     H129713   4.953   2.148   7.002 -0.9323 -1.1366  1.6248
 6977WAT     H229714   4.966   2.059   6.880  1.7394 -0.0619  1.0575
 6977WAT    EPW29715   4.921   2.086   6.950  0.0322 -0.4535  0.1640
 6978WAT      O29716   3.218   6.829   7.971  0.4241 -0.2759  1.0381
 6978WAT     H129717   3.150   6.886   8.007 -0.6709 -0.9507  0.0872
 6978WAT     H229718   3.236   6.767   8.042 -1.8257 -1.6838  0.5025
 6978WAT    EPW29719   3.211   6.828   7.985 -0.0170 -0.5507  0.8421
 6979WAT      O29720   1.756   5.688   5.442  0.0729 -0.4493 -0.7252
 6979WAT     H129721   1.756   5.619   5.508 -0.1811  0.4573  0.2610
 6979WAT     H229722   1.664   5.699   5.419 -0.1559  0.9468  0.6730
 6979WAT    EPW29723   1.744   5.681   5.448  0.0093 -0.1454 -0.4108
 6980WAT      O29724  -4.741   9.029   6.090  0.3066 -0.0363 -0.2248
 6980WAT     H129725  -4.761   9.010   5.998 -1.3601  1.4694 -0.2141
 6980WAT     H229726  -4.765   9.121   6.102 -0.2117 -0.3881  1.9073
 6980WAT    EPW29727  -4.747   9.038   6.079  0.0184  0.1159  0.0579
 6981WAT      O29728  -1.326   2.867   5.021 -0.1330  0.2687  0.0250
 6981WAT     H129729  -1.301   2.846   4.931  0.3926  1.5663 -0.1527
 6981WAT     H229730  -1.403   2.923   5.012 -0.2691  0.1497  0.4066
 6981WAT    EPW29731  -1.333   2.871   5.008 -0.0816  0.4243  0.0517
 6982WAT      O29732   4.124   4.688   0.157 -0.5091 -0.0639  0.6910
 6982WAT     H129733   4.124   4.771   0.204 -0.7561 -0.2711  1.0624
 6982WAT     H229734   4.041   4.687   0.109 -1.1080 -0.6335  1.6746
 6982WAT    EPW29735   4.113   4.699   0.157 -0.6208 -0.1664  0.8697
 6983WAT      O29736   2.650   7.260   1.503 -0.0563  0.2774 -0.8608
 6983WAT     H129737   2.717   7.248   1.435 -1.3554 -0.1835 -2.0938
 6983WAT     H229738   2.627   7.353   1.498  0.1407  0.3331 -0.7576
 6983WAT    EPW29739   2.656   7.271   1.494 -0.2017  0.2239 -1.0098
 6984WAT      O29740   1.288   2.082  -0.006 -1.2795  0.2762 -0.2141
 6984WAT     H129741   1.232   2.017  -0.048  0.7569 -1.2353 -0.7591
 6984WAT     H229742   1.310   2.044   0.079  0.2375  0.0077 -0.6855
 6984WAT    EPW29743   1.284   2.069   0.000 -0.8106  0.0412 -0.3481
 6985WAT      O29744   4.463   9.608   4.460  0.4519 -0.7398  0.0395
 6985WAT     H129745   4.473   9.542   4.529  3.6959 -0.8973 -0.4178
 6985WAT     H229746   4.488   9.562   4.380  1.5151  0.6610 -0.4700
 6985WAT    EPW29747   4.468   9.593   4.459  1.0202 -0.5760 -0.0880
 6986WAT      O29748  -0.712   2.010   4.004  0.2826 -0.9708 -0.3276
 6986WAT     H129749  -0.699   1.916   3.988  0.1925 -0.9377 -0.5964
 6986WAT     H229750  -0.638   2.052   3.961 -0.6379 -0.7887 -1.7787
 6986WAT    EPW29751  -0.700   2.003   3.996  0.1493 -0.9425 -0.5544
 6987WAT      O29752   2.381   1.282   3.065  0.7283  0.6119 -0.0777
 6987WAT     H129753   2.307   1.343   3.063  0.9233  0.8180 -1.4335
 6987WAT     H229754   2.428   1.307   3.145  0.4518  1.8213 -0.2608
 6987WAT    EPW29755   2.377   1.294   3.075  0.7175  0.7985 -0.2807
 6988WAT      O29756  -4.962   1.117   7.613 -1.0596 -0.1616 -0.1202
 6988WAT     H129757  -5.020   1.174   7.663  0.1892  0.7255  0.3350
 6988WAT     H229758  -4.874   1.148   7.631 -0.4824 -0.6267 -1.8597
 6988WAT    EPW29759  -4.958   1.128   7.622 -0.8187 -0.1059 -0.2897
 6989WAT      O29760   4.266   7.971   6.345 -0.1593 -0.6042 -0.6598
 6989WAT     H129761   4.254   8.011   6.431  1.9423 -3.1715  1.0038
 6989WAT     H229762   4.200   7.902   6.342  0.1546 -0.8978 -0.8485
 6989WAT    EPW29763   4.255   7.967   6.356  0.1590 -0.9816 -0.4654
 6990WAT      O29764  -2.052   9.071   7.621  0.8146 -0.1447 -0.7083
 6990WAT     H129765  -2.081   9.075   7.711  3.8477 -1.3234  0.4629
 6990WAT     H229766  -1.995   9.148   7.611  1.1871 -0.4864 -1.3093
 6990WAT    EPW29767  -2.048   9.082   7.631  1.2637 -0.3457 -0.6330
 6991WAT      O29768   3.550   3.332   2.028 -0.2336 -0.0570  0.2764
 6991WAT     H129769   3.602   3.322   1.948  0.2729  2.0189  0.2855
 6991WAT     H229770   3.613   3.357   2.095 -1.1851  3.5149  0.0777
 6991WAT    EPW29771   3.565   3.334   2.026 -0.2924  0.6878  0.2514
 6992WAT      O29772  -1.722   8.503   7.453 -0.0682  0.3594 -0.1066
 6992WAT     H129773  -1.790   8.570   7.447  0.7876  1.3180  0.4641
 6992WAT     H229774  -1.657   8.528   7.387  1.2198  1.2732  1.4407
 6992WAT    EPW29775  -1.722   8.515   7.443  0.2145  0.6061  0.1726
 6993WAT      O29776   0.415   6.099   0.488  0.5085 -0.2209  0.3699
 6993WAT     H129777   0.367   6.078   0.407  0.8648  1.3344 -0.2866
 6993WAT     H229778   0.379   6.184   0.515  0.3014 -0.7862  1.9504
 6993WAT    EPW29779   0.404   6.107   0.481  0.5282 -0.0904  0.4918
 6994WAT      O29780  -1.073   2.124   0.522 -0.0753  0.1184 -0.7436
 6994WAT     H129781  -1.156   2.161   0.554  0.1607 -1.0917  1.4094
 6994WAT     H229782  -1.006   2.184   0.553  0.1023 -0.7480  0.6577
 6994WAT    EPW29783  -1.075   2.137   0.530 -0.0208 -0.1557 -0.2748
 6995WAT      O29784   0.336   6.585   6.706  0.4858 -0.4058 -0.1453
 6995WAT     H129785   0.428   6.566   6.721  0.2023 -0.6619  1.4733
 6995WAT     H229786   0.290   6.507   6.738 -0.3140 -0.1691 -0.6877
 6995WAT    EPW29787   0.342   6.572   6.712  0.3429 -0.4086 -0.0033
 6996WAT      O29788   5.787   3.189   5.772  0.6293  0.1672 -0.5697
 6996WAT     H129789   5.792   3.263   5.711  2.3531 -0.0449 -0.7319
 6996WAT     H229790   5.767   3.229   5.857  2.2575  0.9256 -0.5196
 6996WAT    EPW29791   5.785   3.204   5.776  1.0715  0.2393 -0.5846
 6997WAT      O29792   0.720   3.640   0.670  0.4098  0.1047 -0.0385
 6997WAT     H129793   0.721   3.714   0.730 -1.3400 -0.8064  1.1780
 6997WAT     H229794   0.669   3.670   0.595 -4.1901 -1.0985  2.3041
 6997WAT    EPW29795   0.714   3.654   0.668 -0.4277 -0.1742  0.4309
 6998WAT      O29796  -1.144   4.557   0.134  0.7400  0.0605 -0.4924
 6998WAT     H129797  -1.200   4.490   0.095  1.8943 -0.4009 -1.3901
 6998WAT     H229798  -1.061   4.550   0.087  1.0192  1.8476 -0.3327
 6998WAT    EPW29799  -1.141   4.547   0.123  0.9291  0.2353 -0.5897
 6999WAT      O29800  -3.923   8.062   3.998 -0.2231  0.3981  0.7664
 6999WAT     H129801  -3.855   8.000   3.971  0.2849  0.5809  1.5902
 6999WAT     H229802  -3.920   8.060   4.094 -1.0770  0.7429  0.8052
 6999WAT    EPW29803  -3.914   8.053   4.008 -0.2688  0.4678  0.8802
 7000WAT      O29804   1.820   1.039   5.014  0.0812 -0.3640 -0.8158
 7000WAT     H129805   1.815   1.071   4.924 -0.5227 -1.7119 -1.2764
 7000WAT     H229806   1.910   1.058   5.040  0.1311  0.4697 -1.5307
 7000WAT    EPW29807   1.831   1.046   5.005  0.0081 -0.4318 -0.9711
 7001WAT      O29808   1.117   2.431   6.591 -0.1891 -0.2817 -0.0036
 7001WAT     H129809   1.211   2.425   6.575 -0.0812  1.6419 -0.3575
 7001WAT     H229810   1.080   2.465   6.509 -0.8216  1.2672  0.8647
 7001WAT    EPW29811   1.124   2.435   6.578 -0.2583  0.1763  0.0644
 7002WAT      O29812   4.048   3.306   4.777 -0.3528 -0.3473  0.5888
 7002WAT     H129813   4.110   3.233   4.771  0.4896  0.3330  0.7969
 7002WAT     H229814   3.962   3.264   4.786  0.2688 -1.3422  2.3535
 7002WAT    EPW29815   4.045   3.290   4.778 -0.1595 -0.3887  0.8490
 7003WAT      O29816   4.289   1.529   1.442  0.2612  0.2853  0.2051
 7003WAT     H129817   4.350   1.565   1.506  1.0908 -1.8895  0.7321
 7003WAT     H229818   4.208   1.515   1.492  0.5768 -0.4210  0.5389
 7003WAT    EPW29819   4.286   1.532   1.457  0.4122 -0.0947  0.3186
 7004WAT      O29820   2.533   9.732   6.455  0.0740 -0.4721  0.2991
 7004WAT     H129821   2.539   9.739   6.550 -0.5234 -2.0501  0.4953
 7004WAT     H229822   2.461   9.670   6.440  2.0947 -2.6527 -1.0527
 7004WAT    EPW29823   2.524   9.724   6.465  0.2617 -0.9680  0.1466
 7005WAT      O29824  -1.129   9.273   2.303 -0.4585 -0.4446 -0.6816
 7005WAT     H129825  -1.166   9.259   2.216 -0.1880  0.7437 -1.0098
 7005WAT     H229826  -1.122   9.369   2.310 -1.8239 -0.4277  1.1902
 7005WAT    EPW29827  -1.133   9.284   2.292 -0.6029 -0.2851 -0.4780
 7006WAT      O29828   2.861   4.834   6.728 -0.0260 -0.3704 -0.0652
 7006WAT     H129829   2.899   4.748   6.710  0.8752 -0.3007  1.4214
 7006WAT     H229830   2.882   4.852   6.819 -1.3129  0.8781  0.0224
 7006WAT    EPW29831   2.869   4.825   6.738 -0.0769 -0.1967  0.1423
 7007WAT      O29832   1.353   7.108   5.444  0.5755  0.2156  0.2056
 7007WAT     H129833   1.426   7.105   5.506 -0.6162 -0.1565  1.6423
 7007WAT     H229834   1.337   7.016   5.421 -1.6647 -0.1596  2.7055
 7007WAT    EPW29835   1.360   7.095   5.449  0.1228  0.1171  0.7250
 7008WAT      O29836  -1.255   1.980   4.769  0.0242 -0.2419  0.2691
 7008WAT     H129837  -1.260   2.068   4.731 -0.4934 -0.9235 -1.3546
 7008WAT     H229838  -1.217   1.927   4.699 -0.2104 -1.4129  1.0148
 7008WAT    EPW29839  -1.251   1.985   4.755 -0.0750 -0.4862  0.1533
 7009WAT      O29840   7.180   0.879   3.411 -0.2890 -0.2649  0.3739
 7009WAT     H129841   7.202   0.899   3.502 -2.9888  1.6432  0.7398
 7009WAT     H229842   7.140   0.792   3.415  1.6773 -1.2078  0.5736
 7009WAT    EPW29843   7.177   0.870   3.423 -0.3858 -0.1376  0.4485
 7010WAT      O29844  -0.192   2.104   8.443 -0.3117 -0.3162 -0.9882
 7010WAT     H129845  -0.248   2.179   8.426  0.2222  0.1824 -0.5732
 7010WAT     H229846  -0.190   2.096   8.539  1.2451  0.3998 -0.9235
 7010WAT    EPW29847  -0.199   2.113   8.454 -0.0360 -0.1559 -0.9251
 7011WAT      O29848   3.205   3.093   2.213  0.8605 -0.4833 -0.0471
 7011WAT     H129849   3.142   3.023   2.201  0.5396 -0.3914  1.0387
 7011WAT     H229850   3.206   3.109   2.307 -0.6376  2.3992 -0.4131
 7011WAT    EPW29851   3.197   3.086   2.223  0.6205 -0.0911  0.0478
 7012WAT      O29852   0.430   9.281   2.172 -0.7242  0.3217 -0.0468
 7012WAT     H129853   0.419   9.186   2.169  0.7667  0.1289  0.1358
 7012WAT     H229854   0.367   9.314   2.108 -1.9159 -0.7090  0.5305
 7012WAT    EPW29855   0.420   9.273   2.163 -0.6848  0.1607  0.0534
 7013WAT      O29856   6.277   9.963   0.076  0.5874  0.7177  0.6957
 7013WAT     H129857   6.211  10.029   0.099  0.2753  0.9848 -0.8590
 7013WAT     H229858   6.228   9.897   0.027  1.0828 -0.1897  1.4099
 7013WAT    EPW29859   6.262   9.963   0.072  0.6115  0.6328  0.5848
 7014WAT      O29860  -0.506   8.233   8.401  0.7558 -0.4346  0.2220
 7014WAT     H129861  -0.542   8.208   8.486  1.9487 -0.2359  0.8093
 7014WAT     H229862  -0.412   8.242   8.417  1.0608 -0.8300 -1.2242
 7014WAT    EPW29863  -0.498   8.231   8.415  0.9534 -0.4606  0.1087
 7015WAT      O29864  -4.613   9.071   2.355 -0.1214  0.0100 -0.6302
 7015WAT     H129865  -4.561   9.035   2.283  0.9977 -1.7119  0.9484
 7015WAT     H229866  -4.681   9.005   2.370 -0.1197  0.1816  0.1393
 7015WAT    EPW29867  -4.615   9.057   2.347  0.0265 -0.1945 -0.3204
 7016WAT      O29868  -2.578   9.562   2.151  0.2188 -0.8297  0.5651
 7016WAT     H129869  -2.508   9.623   2.130 -0.8692  0.5703  0.8452
 7016WAT     H229870  -2.588   9.509   2.071  1.2332 -0.7068  0.3441
 7016WAT    EPW29871  -2.570   9.563   2.137  0.2091 -0.6289  0.5729
 7017WAT      O29872   7.601   5.713   1.406  0.3741 -0.7905 -0.3410
 7017WAT     H129873   7.562   5.755   1.329  1.6671 -0.7237 -0.9920
 7017WAT     H229874   7.603   5.620   1.384 -1.4549 -1.1198  0.6418
 7017WAT    EPW29875   7.596   5.706   1.393  0.3035 -0.8249 -0.2972
 7018WAT      O29876   8.250   1.706   2.763  0.8389 -0.2890  0.7325
 7018WAT     H129877   8.216   1.625   2.801  1.9515 -0.5284  1.2370
 7018WAT     H229878   8.339   1.685   2.735  0.7742  0.4711 -0.1142
 7018WAT    EPW29879   8.257   1.693   2.764  0.9775 -0.2204  0.6874
 7019WAT      O29880   1.413   6.860   1.019  0.1197  0.1135  0.3358
 7019WAT     H129881   1.415   6.951   0.989  0.4199  0.5543  1.6370
 7019WAT     H229882   1.453   6.811   0.947  1.4486  1.2081  0.2820
 7019WAT    EPW29883   1.418   6.866   1.005  0.3346  0.3161  0.5003
 7020WAT      O29884  -0.490   4.726   2.142 -0.6130  0.0018 -0.0824
 7020WAT     H129885  -0.542   4.732   2.222  0.7562 -1.6812  1.0061
 7020WAT     H229886  -0.414   4.673   2.167  0.9826  1.2945 -1.9255
 7020WAT    EPW29887  -0.487   4.720   2.156 -0.2220 -0.0498 -0.1820
 7021WAT      O29888   1.101   5.656   2.997  0.1878  0.1795  0.2718
 7021WAT     H129889   1.185   5.617   3.025 -0.3241  0.7446  2.8398
 7021WAT     H229890   1.101   5.743   3.037 -1.8158  0.0126  0.7089
 7021WAT    EPW29891   1.112   5.662   3.006 -0.1439  0.2320  0.6682
 7022WAT      O29892  -3.750   0.889   5.944 -0.3219 -0.1994 -0.7813
 7022WAT     H129893  -3.672   0.877   5.999 -0.0161  1.6597 -0.7410
 7022WAT     H229894  -3.762   0.984   5.940 -0.9300 -0.3314 -3.1406
 7022WAT    EPW29895  -3.741   0.900   5.951 -0.3618  0.0284 -1.0872
 7023WAT      O29896  -3.411   9.540   3.025 -0.1165 -0.6755  0.3720
 7023WAT     H129897  -3.407   9.456   2.978 -0.7362  0.1251 -1.1791
 7023WAT     H229898  -3.381   9.519   3.114 -0.0682 -2.4923 -0.0338
 7023WAT    EPW29899  -3.406   9.526   3.030 -0.1918 -0.8097  0.1138
 7024WAT      O29900   1.525   0.372   1.825  0.0784 -0.4748 -0.9604
 7024WAT     H129901   1.552   0.464   1.823  0.2781 -0.4488  0.7680
 7024WAT     H229902   1.437   0.371   1.788  0.8039  0.0935 -2.7923
 7024WAT    EPW29903   1.517   0.384   1.820  0.2004 -0.3964 -0.9741
 7025WAT      O29904  -0.342   2.938   0.845 -0.2413  0.0968  0.2632
 7025WAT     H129905  -0.355   2.934   0.750 -2.8200  0.5636  0.5420
 7025WAT     H229906  -0.262   2.990   0.855 -0.4828  0.9342 -1.6263
 7025WAT    EPW29907  -0.333   2.945   0.834 -0.6133  0.2689  0.0508
 7026WAT      O29908  -1.838   6.124   4.746  0.8453 -0.8627 -0.2628
 7026WAT     H129909  -1.906   6.073   4.702 -1.2066  2.2772 -1.0332
 7026WAT     H229910  -1.757   6.100   4.700  0.2312 -4.0053  0.0623
 7026WAT    EPW29911  -1.836   6.114   4.734  0.4937 -0.8631 -0.3219
 7027WAT      O29912  -4.300   8.740   2.114  0.5254  0.0973 -0.9001
 7027WAT     H129913  -4.310   8.821   2.063 -1.1806  0.6660  0.2485
 7027WAT     H229914  -4.310   8.768   2.205  3.0985 -0.9582 -0.2270
 7027WAT    EPW29915  -4.303   8.755   2.119  0.6397  0.0329 -0.6599
 7028WAT      O29916   4.761   8.298   3.265  0.3531  0.2769 -0.0678
 7028WAT     H129917   4.686   8.293   3.206  0.7148  1.1014 -0.6239
 7028WAT     H229918   4.725   8.331   3.347 -0.2873 -1.5814  0.4522
 7028WAT    EPW29919   4.746   8.302   3.268  0.3161  0.1402 -0.0725
 7029WAT      O29920  -1.084   6.761   7.056  0.2278 -0.2305 -0.1693
 7029WAT     H129921  -1.161   6.816   7.069  0.5250 -0.1935  1.7715
 7029WAT     H229922  -1.051   6.785   6.970 -2.8198 -1.4304 -1.7858
 7029WAT    EPW29923  -1.090   6.772   7.047 -0.1349 -0.3839 -0.1266
 7030WAT      O29924  -3.474   7.266   8.216 -0.5200 -0.0931  0.5424
 7030WAT     H129925  -3.430   7.260   8.301  0.3313 -0.2810  0.0984
 7030WAT     H229926  -3.493   7.175   8.193 -2.3420  0.0494  1.3249
 7030WAT    EPW29927  -3.471   7.253   8.225 -0.6480 -0.0992  0.5870
 7031WAT      O29928  -3.129   6.089   8.143 -0.3529  0.9330  0.1838
 7031WAT     H129929  -3.038   6.061   8.152 -1.2045 -2.4959 -0.5592
 7031WAT     H229930  -3.124   6.169   8.091  2.1966  0.3379 -0.6265
 7031WAT    EPW29931  -3.116   6.096   8.137 -0.1290  0.4025 -0.0210
 7032WAT      O29932   0.522   6.650   4.753 -0.0274  0.5603 -0.2270
 7032WAT     H129933   0.502   6.634   4.845 -0.8073 -0.5967 -0.5713
 7032WAT     H229934   0.589   6.585   4.732  2.3566  2.7226  0.2395
 7032WAT    EPW29935   0.528   6.639   4.762  0.1842  0.6928 -0.2108
 7033WAT      O29936   1.553   1.515   2.226  0.7059 -0.0006  0.2495
 7033WAT     H129937   1.466   1.536   2.193  0.5596 -2.2605 -1.0105
 7033WAT     H229938   1.609   1.516   2.147  1.4587 -0.2567  0.7661
 7033WAT    EPW29939   1.549   1.518   2.211  0.7858 -0.3324  0.1516
 7034WAT      O29940  -3.768   3.572   8.852  0.3572  0.0083  0.0431
 7034WAT     H129941  -3.776   3.477   8.866  1.5839 -0.5328 -2.5241
 7034WAT     H229942  -3.674   3.590   8.856  0.2592  0.8468 -0.9876
 7034WAT    EPW29943  -3.757   3.562   8.855  0.5062  0.0476 -0.4315
 7035WAT      O29944   0.551   5.859   2.475 -0.4576  0.5724 -0.0886
 7035WAT     H129945   0.513   5.837   2.560  1.6101 -1.8224  0.3350
 7035WAT     H229946   0.606   5.936   2.492 -1.3221  1.1150  0.3318
 7035WAT    EPW29947   0.553   5.866   2.489 -0.2989  0.3281  0.0228
 7036WAT      O29948   1.058   3.203   8.380  0.4514  0.0461  0.5138
 7036WAT     H129949   1.122   3.139   8.349  1.3227  0.5386  1.2320
 7036WAT     H229950   1.045   3.180   8.472 -3.7311 -2.7668 -0.5077
 7036WAT    EPW29951   1.065   3.191   8.388  0.0147 -0.2600  0.4740
 7037WAT      O29952   4.903   9.788   4.079  0.3125  0.1913  0.2982
 7037WAT     H129953   4.982   9.814   4.030 -0.4605  3.0023  0.3631
 7037WAT     H229954   4.936   9.755   4.162  1.4693 -0.5925 -0.4373
 7037WAT    EPW29955   4.918   9.787   4.083  0.3633  0.4587  0.2096
 7038WAT      O29956   8.490   3.053   1.374 -0.2306  0.9868 -0.1249
 7038WAT     H129957   8.439   3.103   1.310  0.2109  0.0242 -1.2537
 7038WAT     H229958   8.443   2.970   1.383  2.0359 -0.7451 -2.6651
 7038WAT    EPW29959   8.477   3.049   1.367  0.1268  0.6315 -0.6088
 7039WAT      O29960   0.247   6.470   0.817  0.5165  0.2651 -0.0073
 7039WAT     H129961   0.183   6.532   0.783  0.5166  1.6405  2.3164
 7039WAT     H229962   0.201   6.422   0.886  1.0064 -1.2373 -0.6723
 7039WAT    EPW29963   0.233   6.472   0.822  0.5811  0.2484  0.2114
 7040WAT      O29964   7.740   6.655   0.687 -0.3777  0.7533 -0.2386
 7040WAT     H129965   7.709   6.722   0.749 -0.2453  0.1177  0.5339
 7040WAT     H229966   7.835   6.667   0.684 -0.4849  1.4935 -1.1780
 7040WAT    EPW29967   7.749   6.665   0.695 -0.3743  0.7672 -0.2607
 7041WAT      O29968   8.421   4.975   1.042  0.4370  0.3683  0.5268
 7041WAT     H129969   8.440   4.998   1.133 -0.7278  1.8110  0.4369
 7041WAT     H229970   8.397   5.058   1.001  0.3520 -0.3602 -0.9587
 7041WAT    EPW29971   8.421   4.989   1.048  0.2723  0.4625  0.3190
 7042WAT      O29972  -5.078   5.937   8.213 -0.2001 -0.2185  0.5221
 7042WAT     H129973  -4.996   5.976   8.182 -0.5523 -0.9990 -1.5588
 7042WAT     H229974  -5.113   5.891   8.136 -2.4093 -0.2256  1.4691
 7042WAT    EPW29975  -5.071   5.936   8.198 -0.5379 -0.3223  0.3729
 7043WAT      O29976   4.074   6.791   5.947  0.1993 -0.2545 -0.6699
 7043WAT     H129977   4.011   6.720   5.932 -0.1998  0.5444 -3.3550
 7043WAT     H229978   4.160   6.749   5.936 -0.0361 -0.3583 -2.4066
 7043WAT    EPW29979   4.077   6.776   5.944  0.1156 -0.1628 -1.2531
 7044WAT      O29980  -4.383   3.576   7.669 -0.5741 -0.0072  0.8136
 7044WAT     H129981  -4.478   3.586   7.665 -0.5233  0.4101  0.5229
 7044WAT     H229982  -4.368   3.519   7.744 -1.1092 -0.8485  0.2972
 7044WAT    EPW29983  -4.394   3.570   7.678 -0.6380 -0.0632  0.7071
 7045WAT      O29984  -2.510   9.139   1.424  0.2501  0.4793  0.1230
 7045WAT     H129985  -2.480   9.227   1.401  1.3484 -0.1119 -0.7958
 7045WAT     H229986  -2.432   9.084   1.417 -0.2939 -0.4910  1.2265
 7045WAT    EPW29987  -2.496   9.144   1.420  0.3231  0.2732  0.1473
 7046WAT      O29988  -4.361   7.106   8.542  0.0605 -0.1549 -0.5115
 7046WAT     H129989  -4.448   7.147   8.535  1.0429  1.8741 -1.7129
 7046WAT     H229990  -4.344   7.102   8.636 -0.4019  1.6145 -0.3135
 7046WAT    EPW29991  -4.370   7.111   8.554  0.1290  0.3459 -0.6437
 7047WAT      O29992   1.781   2.141   7.963 -0.6253  0.3436 -0.0182
 7047WAT     H129993   1.747   2.094   8.038 -1.2307 -0.2774 -0.6664
 7047WAT     H229994   1.866   2.101   7.946 -0.7925  0.0191 -0.0871
 7047WAT    EPW29995   1.788   2.130   7.970 -0.7271  0.2189 -0.1125
 7048WAT      O29996   7.762   4.152   1.684 -0.6471 -0.4105  0.4039
 7048WAT     H129997   7.717   4.073   1.715  1.6631 -1.8135  0.4546
 7048WAT     H229998   7.737   4.220   1.747 -2.6156 -1.0914  0.4231
 7048WAT    EPW29999   7.753   4.150   1.696 -0.6020 -0.6852  0.4132
 7049WAT      O30000  -1.668   9.405   7.997  1.0769  0.2968  0.1139
 7049WAT     H130001  -1.581   9.364   8.004  1.5815  0.9802 -1.5393
 7049WAT     H230002  -1.660   9.463   7.921 -0.8345  0.3856 -0.0556
 7049WAT    EPW30003  -1.655   9.407   7.988  0.8914  0.3986 -0.1266
 7050WAT      O30004  -3.187   5.108   6.142  0.1145  0.1855  0.1300
 7050WAT     H130005  -3.178   5.108   6.047  0.6603 -1.4168  0.1546
 7050WAT     H230006  -3.099   5.126   6.174  0.1530 -0.3247  0.3255
 7050WAT    EPW30007  -3.174   5.110   6.134  0.1915 -0.0930  0.1590
 7051WAT      O30008   2.788   7.926   4.933  0.6574 -0.3507 -0.5433
 7051WAT     H130009   2.718   7.989   4.920  0.8540 -0.1203 -0.5101
 7051WAT     H230010   2.828   7.952   5.016 -0.6089 -1.8216  0.5834
 7051WAT    EPW30011   2.784   7.938   4.942  0.5162 -0.5143 -0.3903
 7052WAT      O30012  -2.736   6.175   7.909 -0.5760  0.5869  0.1436
 7052WAT     H130013  -2.715   6.118   7.835  2.2833 -1.2327  2.1605
 7052WAT     H230014  -2.729   6.264   7.873  0.0885 -0.2303 -1.8999
 7052WAT    EPW30015  -2.732   6.179   7.894 -0.1111  0.2394  0.1400
 7053WAT      O30016  -3.665   9.021   5.243 -0.8516 -0.7686 -0.2155
 7053WAT     H130017  -3.721   9.093   5.215  2.7563  2.9223  0.9472
 7053WAT     H230018  -3.661   9.031   5.339  0.9851 -1.4504 -0.1918
 7053WAT    EPW30019  -3.672   9.032   5.252 -0.1335 -0.3715 -0.0589
 7054WAT      O30020  -2.567   4.427   8.349  0.8105  0.8102 -0.3145
 7054WAT     H130021  -2.535   4.414   8.438  1.1724 -0.8627 -0.6509
 7054WAT     H230022  -2.662   4.437   8.358  1.1042  3.7548  0.4990
 7054WAT    EPW30023  -2.575   4.427   8.362  0.8969  0.9780 -0.2518
 7055WAT      O30024   5.609   2.682   1.607 -0.7069 -0.3056  0.6294
 7055WAT     H130025   5.531   2.735   1.621 -1.4953 -1.4565  0.7362
 7055WAT     H230026   5.682   2.743   1.619 -1.5917  1.0987 -0.7581
 7055WAT    EPW30027   5.608   2.697   1.610 -0.9274 -0.2722  0.4605
 7056WAT      O30028   1.136   1.523   5.193 -0.5181 -0.4173  0.6401
 7056WAT     H130029   1.176   1.436   5.196 -0.0600 -0.1849  1.9428
 7056WAT     H230030   1.163   1.564   5.275 -1.7103  0.5301  0.5751
 7056WAT    EPW30031   1.145   1.517   5.204 -0.6149 -0.2617  0.8035
 7057WAT      O30032   2.296   7.835   8.399 -0.3261 -0.2466  0.2824
 7057WAT     H130033   2.384   7.808   8.371 -1.4913 -3.6780 -0.6654
 7057WAT     H230034   2.309   7.874   8.485  1.9894 -2.9945  1.3614
 7057WAT    EPW30035   2.309   7.836   8.407 -0.1744 -1.0614  0.2999
 7058WAT      O30036   0.504   3.355   2.845 -0.3710 -0.1151 -0.3354
 7058WAT     H130037   0.460   3.390   2.767  0.4599  2.2799  0.1867
 7058WAT     H230038   0.440   3.293   2.882 -0.7714 -1.3627 -2.8726
 7058WAT    EPW30039   0.489   3.351   2.840 -0.3142  0.0361 -0.6011
 7059WAT      O30040   6.296   0.482   1.570  0.7964  0.5432  0.0208
 7059WAT     H130041   6.344   0.544   1.626  0.7290  0.0817  0.6064
 7059WAT     H230042   6.338   0.398   1.586  0.2625  0.2631 -0.0108
 7059WAT    EPW30043   6.308   0.479   1.580  0.7172  0.4454  0.0939
 7060WAT      O30044   7.104   0.611   3.471  0.3345 -0.3257 -0.5119
 7060WAT     H130045   7.110   0.573   3.559 -0.3028 -0.0298 -0.3317
 7060WAT     H230046   7.100   0.536   3.412  0.4268 -0.5277 -0.2640
 7060WAT    EPW30047   7.104   0.596   3.475  0.2627 -0.3133 -0.4555
 7061WAT      O30048   6.496   5.709   3.592  0.0179 -0.2481 -0.3548
 7061WAT     H130049   6.410   5.668   3.586 -0.3249  0.1829  1.2459
 7061WAT     H230050   6.523   5.723   3.500 -0.5832 -2.4505 -0.9124
 7061WAT    EPW30051   6.489   5.705   3.579 -0.1066 -0.4816 -0.2172
 7062WAT      O30052  -1.342   1.385   4.491 -0.0345 -0.8474  0.9440
 7062WAT     H130053  -1.396   1.462   4.509 -0.9371 -1.3101  0.3344
 7062WAT     H230054  -1.263   1.398   4.543  0.0362  0.7073  0.5076
 7062WAT    EPW30055  -1.339   1.397   4.500 -0.1442 -0.7034  0.8061
 7063WAT      O30056   5.950   2.309   1.337 -0.1802  0.1068 -0.0404
 7063WAT     H130057   6.043   2.319   1.318 -0.3690  4.8686  0.3724
 7063WAT     H230058   5.906   2.349   1.262 -1.9399 -1.7707 -0.0786
 7063WAT    EPW30059   5.957   2.316   1.325 -0.4373  0.4872  0.0090
 7064WAT      O30060  -0.274   8.899   5.273  0.3423  0.5904 -0.0871
 7064WAT     H130061  -0.264   8.919   5.366 -1.4786  0.6322  0.1326
 7064WAT     H230062  -0.255   8.981   5.228  2.9034  0.1707  0.0723
 7064WAT    EPW30063  -0.270   8.912   5.279  0.4399  0.5407 -0.0370
 7065WAT      O30064   9.300   1.053   0.599 -0.3469  0.0145 -0.2721
 7065WAT     H130065   9.218   1.076   0.644  0.0986  0.4897  0.3025
 7065WAT     H230066   9.305   0.957   0.607 -0.9490 -0.0431 -0.5010
 7065WAT    EPW30067   9.290   1.043   0.606 -0.3676  0.0696 -0.2265
 7066WAT      O30068   5.366   5.282   1.627  0.0650 -0.7979  0.0896
 7066WAT     H130069   5.432   5.218   1.655  0.1258 -2.1540 -2.8389
 7066WAT     H230070   5.332   5.247   1.544  0.0730  2.9258 -1.6632
 7066WAT    EPW30071   5.370   5.269   1.620  0.0741 -0.4857 -0.5278
 7067WAT      O30072   1.474   5.148   4.921  0.5487 -0.5076 -0.0286
 7067WAT     H130073   1.551   5.141   4.978 -0.1392  0.1760  1.0115
 7067WAT     H230074   1.430   5.228   4.949 -1.2222 -1.5149  0.2578
 7067WAT    EPW30075   1.478   5.158   4.932  0.2244 -0.5503  0.1464
 7068WAT      O30076   1.498   9.161   1.733  1.0901  0.0162  0.1157
 7068WAT     H130077   1.455   9.092   1.783  4.1222 -1.3616  1.0445
 7068WAT     H230078   1.426   9.205   1.687 -1.7136  0.1541  4.0894
 7068WAT    EPW30079   1.483   9.158   1.733  1.1202 -0.1473  0.7623
 7069WAT      O30080   0.903   7.706   4.037 -0.4836  0.3022  0.1167
 7069WAT     H130081   0.911   7.800   4.020 -0.5598  0.5695  1.4911
 7069WAT     H230082   0.816   7.683   4.003 -1.3812  1.1913  1.6963
 7069WAT    EPW30083   0.893   7.716   4.030 -0.6121  0.4547  0.5064
 7070WAT      O30084   2.846   3.712   7.360 -0.6358  0.6318 -0.3574
 7070WAT     H130085   2.886   3.726   7.275 -2.2625 -1.5937 -1.6137
 7070WAT     H230086   2.755   3.740   7.349 -1.6206 -2.2473 -0.3195
 7070WAT    EPW30087   2.839   3.717   7.347 -0.9801 -0.0414 -0.5181
 7071WAT      O30088   3.080   3.227   5.645  0.3765 -0.7892  0.0912
 7071WAT     H130089   3.146   3.211   5.577  0.3020 -0.2602 -0.1085
 7071WAT     H230090   2.999   3.241   5.596  0.4601  0.3343  0.2438
 7071WAT    EPW30091   3.078   3.227   5.629  0.3778 -0.5713  0.0849
 7072WAT      O30092  -3.951   8.020   5.398 -0.7626 -0.3299  0.4903
 7072WAT     H130093  -3.935   8.054   5.310  0.5588  0.0021  0.8444
 7072WAT     H230094  -3.963   8.098   5.451  0.1644 -0.4787  0.9209
 7072WAT    EPW30095  -3.951   8.035   5.393 -0.4660 -0.3057  0.5937
 7073WAT      O30096  -5.981   5.623   7.339 -0.6054 -0.0749 -0.2053
 7073WAT     H130097  -5.959   5.675   7.417 -1.0955 -0.3742  0.1417
 7073WAT     H230098  -6.077   5.627   7.335 -0.5484  0.4741 -1.1661
 7073WAT    EPW30099  -5.991   5.631   7.349 -0.6623 -0.0420 -0.2861
 7074WAT      O30100   3.440   6.221   2.081 -0.8826  0.1419 -0.0871
 7074WAT     H130101   3.448   6.154   2.149 -0.5525 -0.2513 -0.5132
 7074WAT     H230102   3.501   6.290   2.109 -2.0953  0.8389  0.9933
 7074WAT    EPW30103   3.449   6.221   2.094 -0.9991  0.1819 -0.0008
 7075WAT      O30104   4.330   5.224   0.233  0.4277 -0.3447 -0.1952
 7075WAT     H130105   4.300   5.240   0.322  2.4588 -1.0915  0.6654
 7075WAT     H230106   4.345   5.312   0.197  1.0780 -0.0522  0.7471
 7075WAT    EPW30107   4.328   5.238   0.240  0.7813 -0.4048  0.0426
 7076WAT      O30108  -3.206   8.402   8.691 -0.4848 -0.4672  0.7811
 7076WAT     H130109  -3.291   8.360   8.703  0.8236 -3.4216  0.7148
 7076WAT     H230110  -3.178   8.426   8.779 -0.3239 -1.9380  1.1688
 7076WAT    EPW30111  -3.213   8.399   8.704 -0.2911 -1.0509  0.8240
 7077WAT      O30112  -0.379   7.944   8.300 -0.0571  0.5729 -0.6823
 7077WAT     H130113  -0.474   7.953   8.289 -0.1268 -0.6695 -1.2641
 7077WAT     H230114  -0.368   7.868   8.357  0.5891  0.9664 -0.2697
 7077WAT    EPW30115  -0.390   7.936   8.306  0.0189  0.4611 -0.7048
 7078WAT      O30116   2.299   9.091   8.147 -0.8634 -0.2131  0.2797
 7078WAT     H130117   2.358   9.036   8.096  1.6741  0.8428  1.9107
 7078WAT     H230118   2.250   9.140   8.080  1.3201  0.0992 -1.2155
 7078WAT    EPW30119   2.300   9.090   8.131 -0.2407 -0.0329  0.2980
 7079WAT      O30120  -4.449   2.368   5.871 -0.0602 -0.6060 -0.0416
 7079WAT     H130121  -4.424   2.276   5.862  1.2236 -0.2256 -0.4777
 7079WAT     H230122  -4.371   2.411   5.906 -0.5848  0.3576 -0.0212
 7079WAT    EPW30123  -4.435   2.361   5.875  0.0401 -0.4288 -0.0966
 7080WAT      O30124   1.591   9.386   0.952 -0.5719  0.5230  0.2465
 7080WAT     H130125   1.529   9.328   0.908 -0.0876 -0.2292  0.5280
 7080WAT     H230126   1.677   9.348   0.933 -0.3753 -0.1144  2.2099
 7080WAT    EPW30127   1.594   9.373   0.944 -0.4821  0.3400  0.5426
 7081WAT      O30128  -1.137   8.299   1.352 -0.3961  0.9252  0.0732
 7081WAT     H130129  -1.051   8.332   1.325 -0.6008  3.0604  1.7613
 7081WAT     H230130  -1.187   8.378   1.374 -2.4157 -0.3304  0.1996
 7081WAT    EPW30131  -1.132   8.314   1.352 -0.6895  1.0409  0.3125
 7082WAT      O30132  -3.571   9.410   5.586 -0.2391  0.2632  0.4843
 7082WAT     H130133  -3.491   9.422   5.637 -0.6772 -0.5272  1.3705
 7082WAT     H230134  -3.567   9.319   5.556 -0.3565  0.4971 -0.2588
 7082WAT    EPW30135  -3.560   9.400   5.589 -0.3123  0.1898  0.5031
 7083WAT      O30136  -5.472   7.411   6.944  0.8800 -0.7540 -0.2493
 7083WAT     H130137  -5.520   7.415   6.861 -2.0721  1.7465  1.3596
 7083WAT     H230138  -5.540   7.414   7.011  3.1464 -2.6636  2.3352
 7083WAT    EPW30139  -5.488   7.412   6.942  0.7896 -0.6759  0.3040
 7084WAT      O30140   8.105   3.844   0.551  0.2910 -0.4358 -0.1261
 7084WAT     H130141   8.148   3.927   0.529  0.0910 -0.2823  0.0557
 7084WAT     H230142   8.177   3.782   0.560  0.5054 -0.1128  0.4773
 7084WAT    EPW30143   8.120   3.847   0.549  0.2928 -0.3730 -0.0225
 7085WAT      O30144  -2.259   0.499   5.329 -0.5433 -1.0171  0.7483
 7085WAT     H130145  -2.230   0.583   5.292 -1.9730 -1.2466 -1.0299
 7085WAT     H230146  -2.286   0.521   5.418  0.0407  0.2203  0.6470
 7085WAT    EPW30147  -2.259   0.513   5.336 -0.6547 -0.8842  0.5002
 7086WAT      O30148   2.035   8.888   0.236  0.0035 -0.2979 -0.1407
 7086WAT     H130149   2.018   8.868   0.328  0.7748 -2.8954 -0.5033
 7086WAT     H230150   2.029   8.804   0.191  1.9465  0.5183 -2.1229
 7086WAT    EPW30151   2.032   8.874   0.242  0.3616 -0.5326 -0.4499
 7087WAT      O30152   3.646   3.340   5.804 -0.2610  0.5686  0.7231
 7087WAT     H130153   3.589   3.410   5.835 -0.2305  0.3017  1.3970
 7087WAT     H230154   3.735   3.372   5.822 -0.1715  1.0750 -0.5161
 7087WAT    EPW30155   3.650   3.353   5.811 -0.2452  0.6002  0.6485
 7088WAT      O30156   1.035   6.440   6.778  0.4421 -0.0729 -0.2482
 7088WAT     H130157   1.126   6.428   6.751 -0.5152 -0.9708 -3.4940
 7088WAT     H230158   0.989   6.364   6.742 -1.8207  1.0345  0.1385
 7088WAT    EPW30159   1.041   6.429   6.770  0.0173 -0.0451 -0.6254
 7089WAT      O30160   0.551   7.293   5.453  0.1139 -0.0384  0.7415
 7089WAT     H130161   0.531   7.250   5.370 -3.2670 -0.7967  1.7977
 7089WAT     H230162   0.605   7.368   5.428 -1.5117  0.2987 -2.3076
 7089WAT    EPW30163   0.555   7.297   5.439 -0.5465 -0.0939  0.4787
 7090WAT      O30164  -4.341   7.318   5.240  0.4104  0.2471 -0.1037
 7090WAT     H130165  -4.364   7.227   5.257 -2.4990  0.8197 -0.3127
 7090WAT     H230166  -4.386   7.367   5.310  1.0126  1.5814 -0.6237
 7090WAT    EPW30167  -4.350   7.313   5.252  0.1061  0.4985 -0.1998
 7091WAT      O30168   6.812   0.627   3.695  0.5931 -0.3188 -0.0188
 7091WAT     H130169   6.780   0.631   3.785 -1.3037  1.5373 -0.6806
 7091WAT     H230170   6.879   0.696   3.691  0.0381  0.2175 -0.2278
 7091WAT    EPW30171   6.816   0.637   3.706  0.2697 -0.0033 -0.1338
 7092WAT      O30172   7.925   0.023   2.329 -0.1052  0.2847 -0.6388
 7092WAT     H130173   7.903   0.075   2.406 -0.7882 -1.5323  0.4728
 7092WAT     H230174   8.021   0.018   2.330 -0.1312 -0.3789  0.5967
 7092WAT    EPW30175   7.935   0.029   2.339 -0.1986 -0.0425 -0.3293
 7093WAT      O30176   4.718   8.417   0.871 -0.2067  0.2548 -0.1026
 7093WAT     H130177   4.634   8.384   0.837 -0.9641  0.6531  1.3036
 7093WAT     H230178   4.729   8.373   0.955  0.3475  1.1571  0.3156
 7093WAT    EPW30179   4.708   8.407   0.877 -0.2337  0.4263  0.1380
 7094WAT      O30180   0.146   5.586   6.195 -1.2650 -0.2517  0.4706
 7094WAT     H130181   0.054   5.566   6.175 -1.6322  1.5779  0.1332
 7094WAT     H230182   0.179   5.629   6.116  1.0346 -4.0021 -0.8514
 7094WAT    EPW30183   0.138   5.589   6.182 -1.0102 -0.5050  0.2518
 7095WAT      O30184   5.548   1.868   0.423  0.1574 -0.1973 -0.2126
 7095WAT     H130185   5.630   1.860   0.374  1.4681 -0.0677  1.8253
 7095WAT     H230186   5.533   1.962   0.429  0.7444 -0.1459  0.7234
 7095WAT    EPW30187   5.557   1.879   0.417  0.4077 -0.1734  0.1797
 7096WAT      O30188   0.997   0.617   2.800  0.1977 -0.6433 -0.3242
 7096WAT     H130189   0.994   0.523   2.785  0.1659 -0.5564 -0.8887
 7096WAT     H230190   0.954   0.629   2.885  1.0766 -1.2227  0.2142
 7096WAT    EPW30191   0.991   0.606   2.810  0.3094 -0.7083 -0.3277
 7097WAT      O30192  -5.054  10.149   3.731  0.2200  0.0530  0.5144
 7097WAT     H130193  -5.138  10.111   3.707  2.2775 -3.1457 -2.6546
 7097WAT     H230194  -5.046  10.226   3.676 -0.4636  0.1775  0.5778
 7097WAT    EPW30195  -5.064  10.154   3.721  0.4013 -0.3529  0.1048
 7098WAT      O30196   2.170   7.260   3.498 -0.3020 -0.4538 -1.1801
 7098WAT     H130197   2.159   7.324   3.427  0.6264 -0.0707 -0.9829
 7098WAT     H230198   2.263   7.261   3.517 -0.2528 -1.9610 -1.2529
 7098WAT    EPW30199   2.181   7.269   3.491 -0.1731 -0.6020 -1.1637
 7099WAT      O30200   9.573   1.053   0.314  0.6001 -0.3533 -1.3411
 7099WAT     H130201   9.536   1.139   0.335 -2.0368 -1.4963 -0.8690
 7099WAT     H230202   9.546   1.037   0.223 -0.9441 -1.5658 -0.7176
 7099WAT    EPW30203   9.564   1.062   0.305  0.0482 -0.6639 -1.1966
 7100WAT      O30204   4.189   0.213   4.237  0.3197 -0.2301 -0.0575
 7100WAT     H130205   4.251   0.254   4.298  1.2677 -0.1984 -1.0042
 7100WAT     H230206   4.155   0.138   4.285 -0.9012  1.2080  1.4463
 7100WAT    EPW30207   4.193   0.208   4.251  0.2837 -0.0363  0.0160
 7101WAT      O30208  -0.494   2.709   4.296 -0.1676  0.7232  0.4054
 7101WAT     H130209  -0.567   2.764   4.323 -2.7909 -2.3141  0.1496
 7101WAT     H230210  -0.473   2.657   4.374  1.9859  1.6742  0.5428
 7101WAT    EPW30211  -0.501   2.709   4.310 -0.2295  0.4481  0.3898
 7102WAT      O30212   3.776   2.859   5.339  0.7765  0.5370 -0.5218
 7102WAT     H130213   3.843   2.813   5.390  1.1702  0.4931 -1.0727
 7102WAT     H230214   3.798   2.952   5.349  0.2582  0.5880  0.2063
 7102WAT    EPW30215   3.787   2.866   5.347  0.7602  0.5379 -0.4985
 7103WAT      O30216  -7.204   9.201   8.423 -0.2474  0.3883  0.3466
 7103WAT     H130217  -7.161   9.187   8.507  0.4887  0.8966  0.0609
 7103WAT     H230218  -7.241   9.115   8.401  0.8367 -0.1228  0.4737
 7103WAT    EPW30219  -7.203   9.188   8.431 -0.0072  0.3877  0.3257
 7104WAT      O30220   4.019   4.286   6.582 -0.0469  0.2799 -0.5104
 7104WAT     H130221   4.010   4.326   6.668 -0.7906  3.0837 -1.7618
 7104WAT     H230222   3.949   4.221   6.577  0.6186 -0.6233  1.2988
 7104WAT    EPW30223   4.009   4.283   6.592 -0.0570  0.5307 -0.4368
 7105WAT      O30224  -3.448   6.715   7.065 -0.2466 -0.2632  0.1494
 7105WAT     H130225  -3.435   6.806   7.090  1.2196  0.4403 -2.7578
 7105WAT     H230226  -3.542   6.702   7.072 -0.5552  1.6484  0.0954
 7105WAT    EPW30227  -3.459   6.725   7.070 -0.0939  0.0815 -0.2410
 7106WAT      O30228   0.719   5.107   4.937  0.2663  0.3667 -0.0499
 7106WAT     H130229   0.764   5.067   5.012  4.2236  2.4700 -1.0001
 7106WAT     H230230   0.662   5.173   4.976 -1.3490 -1.6067  1.1789
 7106WAT    EPW30231   0.717   5.110   4.952  0.5752  0.3839 -0.0131
 7107WAT      O30232   1.262  10.122   4.689 -0.3417 -0.3575 -0.4083
 7107WAT     H130233   1.258  10.194   4.626  2.1781  1.2231  1.0589
 7107WAT     H230234   1.343  10.076   4.667 -1.5332 -2.3846 -0.8530
 7107WAT    EPW30235   1.272  10.125   4.678 -0.1665 -0.4168 -0.2735
 7108WAT      O30236   3.092   6.286   4.996  0.0290 -0.3780  0.1056
 7108WAT     H130237   3.052   6.270   4.911 -2.4675  2.9156  0.4841
 7108WAT     H230238   3.182   6.312   4.976  0.3358 -2.2163 -1.2224
 7108WAT    EPW30239   3.099   6.287   4.983 -0.2598 -0.1862 -0.0198
 7109WAT      O30240  -5.329   1.701   8.044  0.2427  0.4097  0.0031
 7109WAT     H130241  -5.274   1.663   8.113  0.7622  0.4423 -0.3830
 7109WAT     H230242  -5.355   1.786   8.077  0.8511  0.6100 -0.0106
 7109WAT    EPW30243  -5.325   1.707   8.057  0.3915  0.4404 -0.0496
 7110WAT      O30244  -1.588  10.352   1.692 -0.0499  0.5988  0.3715
 7110WAT     H130245  -1.521  10.376   1.756  0.4298  4.4654 -1.3006
 7110WAT     H230246  -1.671  10.372   1.736  0.2829  3.4936 -0.0670
 7110WAT    EPW30247  -1.590  10.358   1.706  0.0572  1.4901  0.0932
 7111WAT      O30248  -1.153   7.161   5.534  0.1950  0.2783 -0.2921
 7111WAT     H130249  -1.235   7.203   5.559  0.3456 -1.2010  3.1251
 7111WAT     H230250  -1.178   7.103   5.462 -1.1653  1.7755 -1.1061
 7111WAT    EPW30251  -1.167   7.159   5.528  0.0354  0.2804  0.0510
 7112WAT      O30252  -2.650   8.135   5.608  0.1024  0.3548  0.1834
 7112WAT     H130253  -2.601   8.195   5.664  0.4150  0.0440  0.2380
 7112WAT     H230254  -2.706   8.085   5.668 -1.3987  1.7236  0.0069
 7112WAT    EPW30255  -2.651   8.137   5.623 -0.0544  0.4940  0.1671
 7113WAT      O30256   5.019   4.648   5.232  0.9571 -0.9868  0.3465
 7113WAT     H130257   4.999   4.637   5.139  0.2206 -0.2890  0.4064
 7113WAT     H230258   4.935   4.669   5.272  1.3018 -1.0946  1.1425
 7113WAT    EPW30259   5.005   4.649   5.225  0.9053 -0.9089  0.4594
 7114WAT      O30260  -2.610   3.541   2.787  0.1016 -0.3838 -0.7133
 7114WAT     H130261  -2.694   3.542   2.742  0.2348  0.2117 -0.9584
 7114WAT     H230262  -2.617   3.469   2.850 -0.4388 -0.5986 -1.0141
 7114WAT    EPW30263  -2.622   3.532   2.789  0.0477 -0.3337 -0.7854
 7115WAT      O30264  -0.721   7.367   2.366  0.7012 -0.3099 -0.5217
 7115WAT     H130265  -0.654   7.339   2.428 -0.3710 -1.5760  0.1272
 7115WAT     H230266  -0.802   7.330   2.401 -0.3377  1.0954 -1.3253
 7115WAT    EPW30267  -0.723   7.359   2.379  0.4227 -0.2916 -0.5420
 7116WAT      O30268   2.835   6.895   0.342 -0.0337 -0.4988 -0.8029
 7116WAT     H130269   2.834   6.799   0.338 -1.8041 -0.6846  1.6921
 7116WAT     H230270   2.770   6.917   0.409  1.6167  2.3886  0.0287
 7116WAT    EPW30271   2.826   6.885   0.350 -0.0496 -0.1426 -0.3642
 7117WAT      O30272   3.035   8.866   0.460 -0.2137  0.3315  0.6907
 7117WAT     H130273   3.085   8.938   0.500  0.1875 -0.2715  1.2962
 7117WAT     H230274   2.996   8.820   0.534 -0.2572 -0.2238  0.3256
 7117WAT    EPW30275   3.037   8.870   0.475 -0.1665  0.1788  0.7224
 7118WAT      O30276   4.505   4.960   5.687  0.6382 -0.0254  0.5294
 7118WAT     H130277   4.568   5.012   5.639 -0.6653  0.2786 -0.9327
 7118WAT     H230278   4.436   5.021   5.712 -0.1148 -0.7232  0.2258
 7118WAT    EPW30279   4.504   4.975   5.684  0.3672 -0.0775  0.2964
 7119WAT      O30280  -1.243   7.661   3.969  0.0021  0.3383  0.1453
 7119WAT     H130281  -1.260   7.749   3.935 -0.3706  1.5327  3.0712
 7119WAT     H230282  -1.327   7.633   4.006  0.9716  0.4522  2.6264
 7119WAT    EPW30283  -1.257   7.669   3.969  0.0808  0.5109  0.8584
 7120WAT      O30284   1.577   2.581   4.636 -0.0657  0.5252 -0.9619
 7120WAT     H130285   1.648   2.644   4.625  0.7824 -0.0867  0.7023
 7120WAT     H230286   1.620   2.501   4.665 -1.5131  0.4187  1.0910
 7120WAT    EPW30287   1.592   2.579   4.638 -0.1448  0.4306 -0.4716
 7121WAT      O30288   2.379   4.349   1.927  0.2455 -0.0660 -0.9033
 7121WAT     H130289   2.332   4.342   2.010 -1.9035 -2.9775 -2.1768
 7121WAT     H230290   2.435   4.426   1.937  0.3736 -0.5081  3.3161
 7121WAT    EPW30291   2.380   4.359   1.939 -0.0211 -0.5081 -0.5147
 7122WAT      O30292   8.636   4.806   0.966 -0.4420  0.1449 -0.3648
 7122WAT     H130293   8.578   4.868   1.011 -1.2670 -1.2265  0.5346
 7122WAT     H230294   8.709   4.859   0.937 -1.5136  1.6945 -0.3472
 7122WAT    EPW30295   8.638   4.821   0.968 -0.6919  0.1686 -0.2438
 7123WAT      O30296  -2.558   9.042   2.545 -0.8981  0.0145 -0.6737
 7123WAT     H130297  -2.623   8.983   2.583 -0.9814  0.2976 -0.3740
 7123WAT     H230298  -2.596   9.069   2.461 -0.2708 -1.4129 -1.4635
 7123WAT    EPW30299  -2.571   9.038   2.539 -0.8264 -0.1369 -0.7384
 7124WAT      O30300   6.717   0.111   1.153 -0.3322 -0.2605  0.2836
 7124WAT     H130301   6.746   0.032   1.109  0.9125  1.4663 -2.2225
 7124WAT     H230302   6.738   0.182   1.092 -5.2968  1.7076  0.3728
 7124WAT    EPW30303   6.724   0.110   1.139 -0.8230  0.2268 -0.0351
 7125WAT      O30304   1.479   6.467   0.023 -0.0956  0.2881 -0.3985
 7125WAT     H130305   1.528   6.387   0.042 -0.5743  0.6607  3.2627
 7125WAT     H230306   1.545   6.532   0.001  0.3986 -0.7522 -2.1236
 7125WAT    EPW30307   1.494   6.465   0.023 -0.0935  0.2000 -0.1431
 7126WAT      O30308  -2.853   5.511   7.948 -0.3179 -0.2770 -0.2316
 7126WAT     H130309  -2.823   5.432   7.903 -1.7426 -0.7088 -0.4522
 7126WAT     H230310  -2.939   5.489   7.982 -0.8529  1.2640 -0.5121
 7126WAT    EPW30311  -2.860   5.498   7.947 -0.5765 -0.1307 -0.2978
 7127WAT      O30312  -6.491   4.654   8.085  0.5035  0.0749  0.4646
 7127WAT     H130313  -6.435   4.681   8.158  0.3178  0.9519  0.2971
 7127WAT     H230314  -6.461   4.707   8.011  0.3770 -0.4665  0.0201
 7127WAT    EPW30315  -6.479   4.664   8.085  0.4623  0.1192  0.3839
 7128WAT      O30316  -2.102   3.001   6.097 -0.0916 -0.4313 -0.0136
 7128WAT     H130317  -2.081   2.939   6.027 -0.5392  0.1277 -0.6595
 7128WAT     H230318  -2.058   2.966   6.174  1.6503 -0.2924 -0.8838
 7128WAT    EPW30319  -2.093   2.988   6.098  0.0792 -0.3393 -0.2136
 7129WAT      O30320   2.483   0.320   2.383  1.0702 -0.2703  0.0109
 7129WAT     H130321   2.433   0.346   2.461 -1.6040 -0.1768 -1.5973
 7129WAT     H230322   2.565   0.369   2.390 -0.2832  2.0056  1.3236
 7129WAT    EPW30323   2.487   0.330   2.395  0.5391  0.0422 -0.0280
 7130WAT      O30324   1.388   8.977   2.290 -0.1752  0.6070 -0.1956
 7130WAT     H130325   1.365   8.886   2.309 -2.0929  1.0039 -0.4248
 7130WAT     H230326   1.308   9.015   2.253  1.2778  1.7460 -2.4031
 7130WAT    EPW30327   1.374   8.970   2.287 -0.2365  0.8097 -0.5171
 7131WAT      O30328   3.942   9.384   4.196  0.1294  0.1175 -0.5314
 7131WAT     H130329   3.987   9.355   4.276 -1.9412  0.7670  0.9750
 7131WAT     H230330   3.877   9.316   4.180  0.2388  0.2166 -1.4147
 7131WAT    EPW30331   3.939   9.371   4.205 -0.1293  0.2165 -0.4492
 7132WAT      O30332  -2.713   5.054   4.247 -0.1754  0.0960 -0.1579
 7132WAT     H130333  -2.665   5.052   4.164 -1.0904  0.6703 -0.7179
 7132WAT     H230334  -2.689   5.138   4.285 -0.0559  0.0006 -0.0237
 7132WAT    EPW30335  -2.703   5.065   4.241 -0.2803  0.1590 -0.2141
 7133WAT      O30336  -7.348   8.893   7.573 -1.0227  0.0401  0.0710
 7133WAT     H130337  -7.282   8.892   7.503 -1.7371  1.6028 -0.6807
 7133WAT     H230338  -7.301   8.863   7.651  0.5811  1.0647 -0.4577
 7133WAT    EPW30339  -7.333   8.889   7.574 -0.9055  0.3810 -0.0980
 7134WAT      O30340   1.247   0.785   3.396 -0.6929 -0.1285  0.0884
 7134WAT     H130341   1.289   0.744   3.471 -1.3912  0.7319  0.9750
 7134WAT     H230342   1.313   0.784   3.328  1.0019  1.6797  1.5973
 7134WAT    EPW30343   1.261   0.780   3.397 -0.5614  0.2235  0.4044
 7135WAT      O30344   0.714   9.663   4.650  0.5245 -0.3448  2.0650
 7135WAT     H130345   0.651   9.592   4.665 -0.0210 -0.0542  1.2625
 7135WAT     H230346   0.666   9.724   4.594  1.9498 -0.7378  0.3342
 7135WAT    EPW30347   0.699   9.661   4.644  0.6405 -0.3581  1.7309
 7136WAT      O30348  -3.932   7.580   5.967  0.1428  0.0258  0.3032
 7136WAT     H130349  -4.015   7.616   5.936  0.3195  0.4280  0.2999
 7136WAT     H230350  -3.909   7.514   5.902  1.2082  1.8038 -1.2153
 7136WAT    EPW30351  -3.940   7.576   5.955  0.3066  0.3133  0.1025
 7137WAT      O30352  -6.799   7.779   8.142 -0.4365  0.0549 -0.1484
 7137WAT     H130353  -6.883   7.735   8.129  0.3338 -1.1785 -1.3239
 7137WAT     H230354  -6.778   7.816   8.056 -0.8298  2.3872  0.6911
 7137WAT    EPW30355  -6.807   7.778   8.129 -0.3870  0.1998 -0.1926
 7138WAT      O30356   3.820   8.432   0.551 -0.0905 -0.0073  0.0443
 7138WAT     H130357   3.789   8.522   0.559  1.0437  0.4668 -0.5942
 7138WAT     H230358   3.829   8.419   0.457  3.2856  0.5265  0.1772
 7138WAT    EPW30359   3.817   8.442   0.540  0.5044  0.1259 -0.0224
 7139WAT      O30360   2.764   2.297   6.149 -0.3590 -0.0598  0.0498
 7139WAT     H130361   2.849   2.322   6.112 -0.8724  0.9558 -0.4884
 7139WAT     H230362   2.766   2.329   6.239 -0.1000 -0.2193  0.1014
 7139WAT    EPW30363   2.775   2.305   6.156 -0.3926  0.0532 -0.0143
 7140WAT      O30364   2.944   5.329   5.214 -0.5136  0.1069 -0.0032
 7140WAT     H130365   2.876   5.286   5.162  0.2780 -0.3207 -0.7187
 7140WAT     H230366   3.024   5.317   5.163 -0.0663  1.4643  0.3391
 7140WAT    EPW30367   2.946   5.321   5.201 -0.3501  0.2294 -0.0522
 7141WAT      O30368  -1.433   4.340   5.882 -0.3963 -0.0895  0.2734
 7141WAT     H130369  -1.408   4.272   5.943  2.0758  1.5231  1.2103
 7141WAT     H230370  -1.431   4.298   5.796 -1.9593 -1.8779  1.0321
 7141WAT    EPW30371  -1.430   4.326   5.879 -0.2763 -0.1128  0.4971
 7142WAT      O30372  -2.114   2.701   4.409  0.1434 -0.0492  0.5302
 7142WAT     H130373  -2.197   2.662   4.436  0.7549 -1.0877  0.9470
 7142WAT     H230374  -2.061   2.702   4.488  0.5481  0.5710  0.2579
 7142WAT    EPW30375  -2.118   2.696   4.423  0.2774 -0.1043  0.5496
 7143WAT      O30376   7.219   3.218   0.507  0.1058  0.3187  0.1713
 7143WAT     H130377   7.207   3.134   0.553 -0.7018  0.1452 -0.3380
 7143WAT     H230378   7.314   3.230   0.504  0.2028  1.0296  3.1103
 7143WAT    EPW30379   7.230   3.208   0.513  0.0122  0.3896  0.4918
 7144WAT      O30380   2.361   3.203   3.517  0.0934 -0.3084  0.0992
 7144WAT     H130381   2.399   3.269   3.459 -0.7937 -1.7548 -2.2725
 7144WAT     H230382   2.408   3.123   3.495 -1.5170 -1.2709  0.0352
 7144WAT    EPW30383   2.372   3.201   3.506 -0.2359 -0.6261 -0.2221
 7145WAT      O30384   4.144   5.618   7.988 -0.2902 -0.3100 -0.2400
 7145WAT     H130385   4.099   5.537   8.010 -0.4606 -0.2021 -0.1962
 7145WAT     H230386   4.075   5.680   7.967 -0.1494 -0.2552 -0.5471
 7145WAT    EPW30387   4.129   5.616   7.988 -0.2940 -0.2885 -0.2749
 7146WAT      O30388  -2.260   5.714   8.587 -0.2153 -0.2653 -0.4153
 7146WAT     H130389  -2.197   5.772   8.632 -0.0317 -1.0016  0.2994
 7146WAT     H230390  -2.285   5.650   8.653 -0.6847 -0.7991 -1.0978
 7146WAT    EPW30391  -2.255   5.713   8.602 -0.2530 -0.4330 -0.4110
 7147WAT      O30392   1.942   3.267   5.778 -0.0394  0.0995  0.3276
 7147WAT     H130393   1.906   3.228   5.858  2.1763  0.2423  1.4765
 7147WAT     H230394   1.873   3.256   5.712 -1.1892 -1.7530  1.7559
 7147WAT    EPW30395   1.928   3.261   5.780  0.1011 -0.1261  0.6676
 7148WAT      O30396   4.633   7.743   1.590  0.1777 -0.4470 -0.0936
 7148WAT     H130397   4.591   7.785   1.515 -2.4717 -0.0752  1.4483
 7148WAT     H230398   4.624   7.649   1.574  0.3255 -0.3794 -0.5832
 7148WAT    EPW30399   4.626   7.736   1.578 -0.1521 -0.3891  0.0452
 7149WAT      O30400  -0.696   5.690   4.526  0.2114  0.0588  0.3887
 7149WAT     H130401  -0.700   5.716   4.618 -2.0911 -1.2654  0.7449
 7149WAT     H230402  -0.737   5.763   4.479  0.5431  0.3325  0.5255
 7149WAT    EPW30403  -0.702   5.703   4.532 -0.0485 -0.0799  0.4539
 7150WAT      O30404  -7.487   9.937   8.817  0.6679  0.0534  0.4745
 7150WAT     H130405  -7.518   9.916   8.905 -0.2529  1.8691  0.6225
 7150WAT     H230406  -7.476   9.851   8.775 -1.7823 -0.8154  1.3767
 7150WAT    EPW30407  -7.490   9.923   8.823  0.2234  0.1783  0.6127
 7151WAT      O30408  -4.124   9.934   8.251  0.4400 -0.2005  0.0935
 7151WAT     H130409  -4.047   9.897   8.209  0.6540 -0.9357  1.0978
 7151WAT     H230410  -4.193   9.871   8.235 -0.0330  0.5540 -0.9776
 7151WAT    EPW30411  -4.123   9.921   8.244  0.4055 -0.1979  0.0849
 7152WAT      O30412  -1.600   9.990   5.583 -0.1419 -0.2380  0.1144
 7152WAT     H130413  -1.582  10.005   5.676  0.4094  1.9536 -0.2778
 7152WAT     H230414  -1.521   9.949   5.549  0.0412 -0.1451  0.4255
 7152WAT    EPW30415  -1.588   9.987   5.591 -0.0450  0.0634  0.1037
 7153WAT      O30416   3.206   2.437   5.287 -0.3277 -0.6244  0.1088
 7153WAT     H130417   3.257   2.398   5.357  0.1862  0.6867  0.4977
 7153WAT     H230418   3.225   2.531   5.293 -1.0480 -0.3744 -1.1531
 7153WAT    EPW30419   3.215   2.444   5.297 -0.3549 -0.4187 -0.0062
 7154WAT      O30420  -1.091   7.471   4.055 -0.1741 -0.1595 -0.6932
 7154WAT     H130421  -1.158   7.537   4.070  0.0237  0.1024 -0.9515
 7154WAT     H230422  -1.136   7.401   4.007 -0.8263 -1.0221  1.0816
 7154WAT    EPW30423  -1.106   7.470   4.051 -0.2340 -0.2387 -0.4930
 7155WAT      O30424  -5.178  10.081   6.756 -0.1308  0.9560  0.3944
 7155WAT     H130425  -5.226  10.087   6.839 -0.0458  0.6000  0.4736
 7155WAT     H230426  -5.086  10.074   6.782 -0.0237  1.7281  0.2400
 7155WAT    EPW30427  -5.172  10.081   6.771 -0.1056  1.0109  0.3846
 7156WAT      O30428   0.954   1.861   0.145 -0.0259  0.1007 -0.2779
 7156WAT     H130429   0.893   1.933   0.126 -0.8741 -0.9350 -1.5915
 7156WAT     H230430   0.989   1.836   0.060 -0.1724 -1.4083  0.0860
 7156WAT    EPW30431   0.951   1.867   0.131 -0.1571 -0.2349 -0.4031
 7157WAT      O30432  -4.377   6.786   5.112 -0.5634 -0.3689  0.1362
 7157WAT     H130433  -4.358   6.720   5.045 -0.3698 -2.6523  2.2837
 7157WAT     H230434  -4.468   6.771   5.136 -1.0705  1.3766 -0.5271
 7157WAT    EPW30435  -4.386   6.775   5.106 -0.6049 -0.4399  0.3319
 7158WAT      O30436   6.478   4.412   4.159 -0.1446 -0.4349 -0.0440
 7158WAT     H130437   6.395   4.459   4.167 -0.5853 -0.9141 -1.4919
 7158WAT     H230438   6.536   4.475   4.116 -0.3418 -0.7213 -0.7576
 7158WAT    EPW30439   6.474   4.426   4.154 -0.2289 -0.5362 -0.3293
 7159WAT      O30440   0.718   8.444   3.167  0.4437 -0.7220 -0.2225
 7159WAT     H130441   0.772   8.509   3.122 -2.1426  2.7515  1.1994
 7159WAT     H230442   0.757   8.436   3.254 -1.0974  1.8452  0.8316
 7159WAT    EPW30443   0.730   8.452   3.172 -0.1007  0.0749  0.1040
 7160WAT      O30444  -1.426   8.655   2.737  0.5428 -0.0825 -0.6760
 7160WAT     H130445  -1.465   8.733   2.698  2.6136  1.9790  1.1203
 7160WAT     H230446  -1.396   8.683   2.823  1.0284 -3.0048  0.2316
 7160WAT    EPW30447  -1.427   8.669   2.743  0.8800 -0.1960 -0.3194
 7161WAT      O30448   6.518   0.331   2.873  0.2190  0.3716 -0.1608
 7161WAT     H130449   6.496   0.293   2.788  0.7267  0.0723 -0.1655
 7161WAT     H230450   6.484   0.268   2.937  0.1124  0.4435 -0.1458
 7161WAT    EPW30451   6.511   0.318   2.870  0.2720  0.3416 -0.1594
 7162WAT      O30452  -3.171   9.278   8.131 -0.3812 -0.4458  0.0953
 7162WAT     H130453  -3.098   9.230   8.170  0.2058 -0.0632 -0.5117
 7162WAT     H230454  -3.244   9.264   8.192  0.6822  0.7268  1.7347
 7162WAT    EPW30455  -3.171   9.270   8.145 -0.1636 -0.2408  0.2317
 7163WAT      O30456   1.934   3.314   4.343  0.4359 -0.3087  0.1373
 7163WAT     H130457   1.868   3.370   4.304  1.9085  1.7075  0.3962
 7163WAT     H230458   1.997   3.299   4.272  0.7165 -0.5585  0.4352
 7163WAT    EPW30459   1.934   3.319   4.328  0.6672 -0.0757  0.2108
 7164WAT      O30460   1.154   2.008   8.518  0.4648  0.4850 -0.5939
 7164WAT     H130461   1.212   2.081   8.498  0.1890  0.1713 -2.7703
 7164WAT     H230462   1.183   1.978   8.604 -0.1180  3.7612  0.9004
 7164WAT    EPW30463   1.166   2.013   8.526  0.3515  0.8757 -0.6838
 7165WAT      O30464   0.605   6.769   0.172  0.3567  0.5514 -0.1534
 7165WAT     H130465   0.584   6.763   0.265 -0.0726  0.0889 -0.2712
 7165WAT     H230466   0.695   6.802   0.169  0.3533  0.6195  0.4222
 7165WAT    EPW30467   0.614   6.772   0.184  0.2996  0.4995 -0.0930
 7166WAT      O30468  -1.772   4.477   5.184  0.9383 -0.0068 -0.0019
 7166WAT     H130469  -1.694   4.470   5.239  0.3959 -0.8021  0.7086
 7166WAT     H230470  -1.750   4.542   5.118  2.8071 -1.4274 -0.8626
 7166WAT    EPW30471  -1.759   4.484   5.183  1.1132 -0.2990 -0.0215
 7167WAT      O30472   5.265   2.024   1.440  0.0102  0.3507 -0.2391
 7167WAT     H130473   5.236   1.945   1.396  0.7245  1.4152 -2.7750
 7167WAT     H230474   5.356   2.036   1.412 -0.0040  1.9431  0.2537
 7167WAT    EPW30475   5.273   2.015   1.431  0.1025  0.7012 -0.5086
 7168WAT      O30476  -0.010   3.008   2.956  0.3188 -0.0560  0.3090
 7168WAT     H130477  -0.056   3.058   2.889  0.5285  1.4289  1.2145
 7168WAT     H230478  -0.077   2.956   2.998 -0.3967  1.3073  0.9339
 7168WAT    EPW30479  -0.025   3.008   2.952  0.2521  0.3196  0.5108
 7169WAT      O30480   3.344   1.163   1.601  0.8912 -0.4915 -0.0817
 7169WAT     H130481   3.427   1.139   1.561 -0.3543 -0.2258 -3.1410
 7169WAT     H230482   3.338   1.258   1.588  1.1291 -0.0959  2.3258
 7169WAT    EPW30483   3.354   1.172   1.594  0.7583 -0.4044 -0.1676
 7170WAT      O30484   7.490   2.221   0.632 -0.0936 -0.6758 -0.5108
 7170WAT     H130485   7.441   2.222   0.550 -1.5993  0.4856  0.3703
 7170WAT     H230486   7.455   2.146   0.680  0.8738 -1.4310 -0.9356
 7170WAT    EPW30487   7.479   2.211   0.627 -0.1647 -0.6223 -0.4506
 7171WAT      O30488   2.060   2.086   5.305 -0.1819 -0.4767 -0.0511
 7171WAT     H130489   2.117   2.103   5.230 -1.0168  0.4444 -0.4883
 7171WAT     H230490   1.972   2.081   5.268 -0.6122  0.0654  0.8697
 7171WAT    EPW30491   2.056   2.087   5.290 -0.3488 -0.2837  0.0126
 7172WAT      O30492   4.736  10.251   3.546 -0.5269  0.1956  0.5459
 7172WAT     H130493   4.803  10.242   3.477  0.4158  1.3970  1.2619
 7172WAT     H230494   4.654  10.260   3.498  0.1374  1.2027 -0.4743
 7172WAT    EPW30495   4.734  10.251   3.530 -0.3152  0.4869  0.5058
 7173WAT      O30496  -5.274   8.367   5.705  0.1445  0.3244  0.4241
 7173WAT     H130497  -5.263   8.435   5.639  1.5982 -0.8580 -0.6277
 7173WAT     H230498  -5.345   8.312   5.671  1.2349 -0.5794 -0.4776
 7173WAT    EPW30499  -5.282   8.369   5.692  0.4802  0.0486  0.1664
 7174WAT      O30500   1.163   2.162   0.420 -0.6518  0.1223 -0.1737
 7174WAT     H130501   1.075   2.140   0.389 -0.2313 -2.1817  0.0888
 7174WAT     H230502   1.148   2.225   0.491 -2.0225  0.3242 -0.6124
 7174WAT    EPW30503   1.149   2.168   0.426 -0.7771 -0.1550 -0.1969
 7175WAT      O30504  -2.409   8.010   6.313  0.2107  0.1924  0.0767
 7175WAT     H130505  -2.328   8.061   6.306  0.7710 -0.6509  0.3523
 7175WAT     H230506  -2.422   7.974   6.225  0.9066 -0.8173  0.3719
 7175WAT    EPW30507  -2.400   8.012   6.301  0.3763 -0.0520  0.1521
 7176WAT      O30508   1.212   2.296   8.449  0.1010 -0.9269 -0.0328
 7176WAT     H130509   1.123   2.266   8.430  0.1544 -0.6908 -0.6681
 7176WAT     H230510   1.264   2.266   8.375  0.2129  0.4725 -0.5429
 7176WAT    EPW30511   1.207   2.288   8.437  0.1228 -0.7112 -0.1836
 7177WAT      O30512  -2.559  10.146   1.950  0.0376  0.3440 -0.1706
 7177WAT     H130513  -2.503  10.091   2.005  0.3531  1.5803  0.7889
 7177WAT     H230514  -2.507  10.226   1.936 -0.3186  0.3419 -1.7083
 7177WAT    EPW30515  -2.545  10.150   1.956  0.0323  0.5064 -0.2468
 7178WAT      O30516   2.201   5.561   6.138 -0.2976  0.3313 -0.1038
 7178WAT     H130517   2.282   5.552   6.087 -0.8250  0.8775 -1.0686
 7178WAT     H230518   2.133   5.526   6.082 -0.7452 -0.1321  0.7097
 7178WAT    EPW30519   2.203   5.555   6.124 -0.4262  0.3421 -0.1237
 7179WAT      O30520  -2.447   7.525   2.373 -0.6321 -0.2401  0.1744
 7179WAT     H130521  -2.502   7.583   2.426 -0.8098 -0.1687 -0.0852
 7179WAT     H230522  -2.493   7.441   2.374 -2.2889  0.5181 -2.3640
 7179WAT    EPW30523  -2.461   7.522   2.380 -0.8740 -0.1307 -0.1947
 7180WAT      O30524   0.622   7.425   3.348  0.1786 -0.2170 -0.0434
 7180WAT     H130525   0.640   7.418   3.442 -0.2325  3.2389  0.4281
 7180WAT     H230526   0.527   7.438   3.342  0.2933  0.3750 -0.8304
 7180WAT    EPW30527   0.612   7.426   3.359  0.1395  0.3169 -0.0850
 7181WAT      O30528  -4.705   2.849   8.006 -0.4810 -0.7856  0.3954
 7181WAT     H130529  -4.731   2.799   7.928  1.8387 -1.3763 -0.0725
 7181WAT     H230530  -4.757   2.812   8.077  0.3884 -3.1913 -0.1341
 7181WAT    EPW30531  -4.715   2.838   8.005 -0.0603 -1.1808  0.2642
 7182WAT      O30532   3.261   2.135   6.539 -0.6281 -0.3339 -0.2536
 7182WAT     H130533   3.170   2.145   6.568 -1.1126 -0.9558 -1.4423
 7182WAT     H230534   3.253   2.098   6.450  0.7728  0.3149 -0.6750
 7182WAT    EPW30535   3.248   2.131   6.531 -0.5072 -0.3304 -0.4659
 7183WAT      O30536   1.074   4.170   0.508 -0.0147  0.1803  1.1362
 7183WAT     H130537   1.050   4.135   0.422 -1.7722  1.3212  1.1101
 7183WAT     H230538   1.095   4.262   0.491  0.7774  0.1275  1.7731
 7183WAT    EPW30539   1.074   4.178   0.494 -0.1420  0.3240  1.2168
 7184WAT      O30540  -1.620   9.635   3.505  0.1733 -0.0664 -0.2544
 7184WAT     H130541  -1.588   9.579   3.435 -0.7676 -1.1662  0.1727
 7184WAT     H230542  -1.693   9.683   3.466 -0.6477 -1.0188  0.0872
 7184WAT    EPW30543  -1.625   9.634   3.491 -0.0591 -0.3371 -0.1529
 7185WAT      O30544  -4.460   8.121   6.899  0.6069  0.2126  0.1677
 7185WAT     H130545  -4.496   8.173   6.970  0.0218 -0.1761  0.1612
 7185WAT     H230546  -4.395   8.178   6.858 -0.6621  1.2898 -0.4293
 7185WAT    EPW30547  -4.456   8.135   6.903  0.3622  0.3028  0.0882
 7186WAT      O30548  -3.345   6.753   1.898  0.3831  0.1400 -0.0082
 7186WAT     H130549  -3.286   6.772   1.824  1.4048 -2.5144  0.0470
 7186WAT     H230550  -3.345   6.658   1.905  2.2041  0.2470  4.8848
 7186WAT    EPW30551  -3.337   6.743   1.889  0.7581 -0.1960  0.6444
 7187WAT      O30552   8.354   1.421   3.285 -0.0288  0.2431 -0.3162
 7187WAT     H130553   8.424   1.368   3.246 -1.7138 -0.9275 -1.8823
 7187WAT     H230554   8.330   1.374   3.365 -0.9353 -0.9392 -1.2572
 7187WAT    EPW30555   8.360   1.408   3.291 -0.3710 -0.0673 -0.6468
 7188WAT      O30556  -2.503   7.667   3.247  0.5567  0.1080  0.1106
 7188WAT     H130557  -2.479   7.699   3.159  0.7637 -0.9906 -0.2530
 7188WAT     H230558  -2.442   7.595   3.263  0.5696  0.3487  1.2015
 7188WAT    EPW30559  -2.492   7.661   3.237  0.5859 -0.0050  0.2066
 7189WAT      O30560   3.208   9.722   5.412 -0.1697  0.3857 -0.2927
 7189WAT     H130561   3.279   9.693   5.354 -0.7979  0.1814 -0.9760
 7189WAT     H230562   3.245   9.795   5.461  0.9803 -0.6399  0.4057
 7189WAT    EPW30563   3.222   9.728   5.411 -0.1009  0.2236 -0.2909
 7190WAT      O30564  -2.681   6.826   0.632 -0.3888  0.1911 -0.0343
 7190WAT     H130565  -2.683   6.734   0.604 -1.1183  0.4028 -0.6978
 7190WAT     H230566  -2.772   6.847   0.652 -0.2194  0.7729  0.1345
 7190WAT    EPW30567  -2.693   6.817   0.631 -0.4627  0.2959 -0.0995
 7191WAT      O30568   3.866   6.266   2.194 -0.2802  0.0047  0.2829
 7191WAT     H130569   3.903   6.338   2.143 -0.1209  1.7581  2.6825
 7191WAT     H230570   3.797   6.231   2.138  0.7048  0.9445 -1.6295
 7191WAT    EPW30571   3.862   6.271   2.180 -0.1292  0.3600  0.3471
 7192WAT      O30572   5.020   8.703   0.009 -0.6443  0.7897 -0.4777
 7192WAT     H130573   5.099   8.694   0.062  0.2595  0.7995 -1.7802
 7192WAT     H230574   4.977   8.618   0.016  0.0146  0.4395 -0.5845
 7192WAT    EPW30575   5.025   8.691   0.017 -0.4382  0.7448 -0.6636
 7193WAT      O30576   5.697   5.011   3.606 -0.1576  0.7206  0.5523
 7193WAT     H130577   5.685   4.934   3.550  2.9940  0.7535 -0.4122
 7193WAT     H230578   5.638   5.076   3.570  0.8884  0.3497 -2.1052
 7193WAT    EPW30579   5.688   5.009   3.594  0.3960  0.6762  0.0746
 7194WAT      O30580  -0.594   0.851   6.584 -0.2946 -0.0917 -0.0241
 7194WAT     H130581  -0.625   0.765   6.615  1.3178 -0.6090  0.2371
 7194WAT     H230582  -0.500   0.839   6.571 -0.0024  1.7090  0.2171
 7194WAT    EPW30583  -0.586   0.838   6.587 -0.0434  0.0775  0.0422
 7195WAT      O30584   0.309   7.102   1.176 -0.4790 -0.0534  0.5890
 7195WAT     H130585   0.317   7.024   1.231 -1.0241  1.1091  2.3838
 7195WAT     H230586   0.377   7.091   1.109 -0.8163 -2.2410  0.5392
 7195WAT    EPW30587   0.319   7.090   1.175 -0.5954 -0.1886  0.8192
 7196WAT      O30588   0.003   5.898   2.474 -0.1138 -0.9668 -0.4757
 7196WAT     H130589   0.071   5.831   2.473 -1.0883 -2.0234 -2.2441
 7196WAT     H230590   0.027   5.956   2.402  0.7089  0.6449  1.0260
 7196WAT    EPW30591   0.016   5.897   2.464 -0.1338 -0.8936 -0.5109
 7197WAT      O30592  -2.484   4.152   3.722  0.3483  0.4766 -0.5430
 7197WAT     H130593  -2.474   4.115   3.634 -1.6423 -1.9396  0.1300
 7197WAT     H230594  -2.420   4.105   3.775 -2.6249 -2.8564  0.4500
 7197WAT    EPW30595  -2.474   4.141   3.717 -0.3064 -0.2818 -0.3233
 7198WAT      O30596  -2.267   2.111   3.493  0.1592 -0.0835 -0.1197
 7198WAT     H130597  -2.194   2.050   3.475  0.8161  0.4915  0.5415
 7198WAT     H230598  -2.270   2.117   3.588  0.2070  1.0416 -0.1802
 7198WAT    EPW30599  -2.258   2.103   3.503  0.2520  0.1407 -0.0405
 7199WAT      O30600   2.394   9.259   5.433 -0.2944 -0.1429  0.1093
 7199WAT     H130601   2.415   9.167   5.421 -0.1183 -0.1613  0.5245
 7199WAT     H230602   2.412   9.275   5.526  3.3647  1.2488 -0.6666
 7199WAT    EPW30603   2.399   9.249   5.444  0.2115  0.0386  0.0620
 7200WAT      O30604  -1.272  10.031   4.089 -0.3610  0.3008 -0.2018
 7200WAT     H130605  -1.218   9.992   4.020 -1.0882 -0.3541 -0.4184
 7200WAT     H230606  -1.263   9.971   4.163 -0.9426  0.0798 -0.3063
 7200WAT    EPW30607  -1.264  10.018   4.090 -0.5336  0.1855 -0.2439
 7201WAT      O30608  -2.323   2.686   3.606  0.1192 -0.1602  0.6392
 7201WAT     H130609  -2.294   2.757   3.549 -0.6018  0.6483  1.2391
 7201WAT     H230610  -2.317   2.723   3.694 -3.4234  0.4048  0.7910
 7201WAT    EPW30611  -2.318   2.700   3.610 -0.4431  0.0209  0.7384
 7202WAT      O30612   5.633  10.292   1.690 -0.5390  0.0518  0.5381
 7202WAT     H130613   5.724  10.268   1.674 -0.7656 -1.4407  1.3251
 7202WAT     H230614   5.584  10.247   1.621 -0.8096 -0.3383  0.9823
 7202WAT    EPW30615   5.639  10.283   1.678 -0.6044 -0.1969  0.7005
 7203WAT      O30616  -2.070   4.103   6.068  0.2099  0.3836  0.1548
 7203WAT     H130617  -2.055   4.110   5.974  0.8956  1.3701  0.3195
 7203WAT     H230618  -2.068   4.009   6.086  0.6169  0.2097 -0.7325
 7203WAT    EPW30619  -2.068   4.092   6.058  0.3539  0.4907  0.0596
 7204WAT      O30620   4.805   5.224   2.671 -0.1387  0.1702  0.6330
 7204WAT     H130621   4.777   5.313   2.649  0.5022 -0.0137 -1.0518
 7204WAT     H230622   4.872   5.235   2.738 -2.2645  0.7480  2.8124
 7204WAT    EPW30623   4.810   5.237   2.677 -0.3345  0.2220  0.6982
 7205WAT      O30624   6.567   0.616   5.053 -0.1275 -0.1855 -0.1831
 7205WAT     H130625   6.581   0.711   5.058  0.0024 -0.1882 -0.4528
 7205WAT     H230626   6.616   0.589   4.975 -1.4091 -0.2414 -1.0075
 7205WAT    EPW30627   6.575   0.625   5.043 -0.2794 -0.1932 -0.3276
 7206WAT      O30628   1.455   5.277   3.556 -0.1180 -0.1024  0.2614
 7206WAT     H130629   1.498   5.318   3.481 -1.4928  1.6701  0.3707
 7206WAT     H230630   1.527   5.249   3.612  0.9127 -0.1299 -1.0287
 7206WAT    EPW30631   1.471   5.279   3.554 -0.1634  0.1280  0.1057
 7207WAT      O30632   2.307   1.219   5.740  0.3807  0.0943  0.3035
 7207WAT     H130633   2.225   1.204   5.787  0.2876 -0.5902 -0.0594
 7207WAT     H230634   2.354   1.283   5.793 -0.4856  0.6660  0.3957
 7207WAT    EPW30635   2.302   1.225   5.754  0.2542  0.0795  0.2677
 7208WAT      O30636   0.292   8.812   3.325 -0.2522 -0.2232  0.3180
 7208WAT     H130637   0.284   8.750   3.397 -0.1075 -1.1727 -0.4576
 7208WAT     H230638   0.247   8.769   3.252  0.6234  0.1929 -0.4832
 7208WAT    EPW30639   0.285   8.798   3.324 -0.1176 -0.2942  0.1100
 7209WAT      O30640  -4.201   2.416   6.969 -0.2801 -0.0281  0.2986
 7209WAT     H130641  -4.211   2.394   6.877 -0.6546  0.2003  0.2814
 7209WAT     H230642  -4.257   2.493   6.981 -1.2978 -0.8530  1.0162
 7209WAT    EPW30643  -4.210   2.424   6.958 -0.4637 -0.1068  0.3910
 7210WAT      O30644  -2.390   5.226   1.291  0.4180 -0.5297  0.2529
 7210WAT     H130645  -2.435   5.273   1.361 -0.1203 -1.7001  0.7339
 7210WAT     H230646  -2.405   5.133   1.312 -3.2860 -1.0699 -3.5878
 7210WAT    EPW30647  -2.398   5.220   1.303 -0.1416 -0.7555 -0.1903
 7211WAT      O30648  -3.581  10.333   5.553 -0.1854 -0.1491  0.1509
 7211WAT     H130649  -3.630  10.300   5.628 -1.6399  0.4237 -0.4974
 7211WAT     H230650  -3.489  10.318   5.575 -0.6403 -1.2020  1.4502
 7211WAT    EPW30651  -3.575  10.326   5.566 -0.4373 -0.2127  0.2370
 7212WAT      O30652  -4.809   9.605   2.930 -0.2856  0.1374 -0.0661
 7212WAT     H130653  -4.720   9.584   2.960  0.3685 -0.4756 -2.2181
 7212WAT     H230654  -4.813   9.700   2.932  0.8590  0.2348 -0.9915
 7212WAT    EPW30655  -4.798   9.615   2.934 -0.0484  0.0696 -0.4719
 7213WAT      O30656  -2.201   4.268   1.221  0.1602 -0.1113  0.3289
 7213WAT     H130657  -2.165   4.236   1.304  2.1552  0.7852 -0.1444
 7213WAT     H230658  -2.292   4.291   1.242  0.4971 -0.3192  2.1659
 7213WAT    EPW30659  -2.209   4.267   1.235  0.4678 -0.0205  0.5087
 7214WAT      O30660  -7.547   9.205   8.702  0.0972  0.7274  0.2743
 7214WAT     H130661  -7.489   9.254   8.644 -0.4157 -0.0232 -0.9037
 7214WAT     H230662  -7.498   9.198   8.784  1.6359  0.2335 -0.6408
 7214WAT    EPW30663  -7.533   9.210   8.705  0.2322  0.5631 -0.0019
 7215WAT      O30664   4.140   5.090   7.334 -0.1770  0.4806  0.5783
 7215WAT     H130665   4.070   5.153   7.318  0.0104  0.5132 -0.1886
 7215WAT     H230666   4.109   5.037   7.407 -1.0015  0.4939  0.2502
 7215WAT    EPW30667   4.127   5.091   7.341 -0.2608  0.4866  0.4339
 7216WAT      O30668  -3.654   8.805   3.643  0.0758  0.1156  0.1119
 7216WAT     H130669  -3.567   8.764   3.632  0.2223  0.8886 -2.0529
 7216WAT     H230670  -3.639   8.898   3.627 -1.2656  0.1473 -1.2176
 7216WAT    EPW30671  -3.640   8.812   3.639 -0.0819  0.2217 -0.3490
 7217WAT      O30672   0.958   9.081   1.324 -0.1867  0.4282 -0.1843
 7217WAT     H130673   1.054   9.081   1.328 -0.1746 -0.3136 -0.3449
 7217WAT     H230674   0.935   8.991   1.301 -0.8861  0.8376 -1.1221
 7217WAT    EPW30675   0.967   9.069   1.322 -0.2773  0.3843 -0.3292
 7218WAT      O30676  -1.267   1.891   6.572 -0.1761  0.1993  0.6271
 7218WAT     H130677  -1.189   1.850   6.536  0.3372  0.1219  1.7914
 7218WAT     H230678  -1.302   1.944   6.500 -0.1726 -1.2985 -0.5299
 7218WAT    EPW30679  -1.261   1.892   6.558 -0.1079 -0.0085  0.6280
 7219WAT      O30680   2.240   6.925   2.385  0.5250 -0.5431 -0.1244
 7219WAT     H130681   2.254   6.961   2.298 -1.4881  0.4601 -0.1087
 7219WAT     H230682   2.265   6.833   2.378  1.3100 -0.2454 -1.4748
 7219WAT    EPW30683   2.245   6.917   2.373  0.3630 -0.3717 -0.3004
 7220WAT      O30684  -4.202   9.333   6.822 -0.5554  0.0045  0.0338
 7220WAT     H130685  -4.251   9.287   6.890  0.3901 -1.7791 -0.4227
 7220WAT     H230686  -4.168   9.412   6.865 -2.5882  0.5580  0.7327
 7220WAT    EPW30687  -4.204   9.338   6.836 -0.6986 -0.1578  0.0660
 7221WAT      O30688   1.550   8.505   6.412  0.3638 -0.4145  0.0443
 7221WAT     H130689   1.632   8.490   6.364  0.5484  1.7974 -0.4273
 7221WAT     H230690   1.549   8.436   6.478  1.9549 -1.2947 -0.7746
 7221WAT    EPW30691   1.561   8.494   6.415  0.5981 -0.2394 -0.1261
 7222WAT      O30692   0.859   1.493   6.942 -0.3327 -0.3019 -0.0117
 7222WAT     H130693   0.924   1.560   6.922 -0.7194  0.8518  2.1837
 7222WAT     H230694   0.909   1.413   6.956  0.2965 -0.1163 -1.1541
 7222WAT    EPW30695   0.874   1.492   6.941 -0.3007 -0.1253  0.1271
 7223WAT      O30696   0.168   2.039   0.713  0.3219 -0.0023  0.1782
 7223WAT     H130697   0.077   2.060   0.735  1.1699  2.3555  1.6968
 7223WAT     H230698   0.163   2.011   0.621 -2.1594 -1.9795  0.7760
 7223WAT    EPW30699   0.155   2.038   0.703  0.1064  0.0479  0.4573
 7224WAT      O30700   5.354   3.861   2.211  0.7114 -0.1614  0.7676
 7224WAT     H130701   5.268   3.882   2.248  0.3581  0.0860 -0.1777
 7224WAT     H230702   5.363   3.766   2.222  1.1592  0.0333  2.5975
 7224WAT    EPW30703   5.344   3.851   2.218  0.7241 -0.1031  0.8842
 7225WAT      O30704   5.472   0.147   8.494 -0.3565  0.4163 -0.1013
 7225WAT     H130705   5.555   0.118   8.531 -0.0470  0.8219 -0.4713
 7225WAT     H230706   5.496   0.215   8.431 -0.9811  0.6344 -0.1092
 7225WAT    EPW30707   5.486   0.152   8.490 -0.3982  0.4985 -0.1516
 7226WAT      O30708  -0.041   3.046   4.669 -0.4453 -0.1276  1.2607
 7226WAT     H130709  -0.049   3.135   4.635 -0.8676 -1.0744 -1.2975
 7226WAT     H230710   0.047   3.043   4.707  0.0881  1.0069  0.1743
 7226WAT    EPW30711  -0.030   3.057   4.670 -0.4306 -0.1029  0.7801
 7227WAT      O30712   4.520   9.003   4.381  0.4431  0.0072 -0.2370
 7227WAT     H130713   4.426   9.015   4.376 -0.1805 -3.7090 -0.8618
 7227WAT     H230714   4.538   8.989   4.474  0.0595 -0.8431 -0.2783
 7227WAT    EPW30715   4.510   9.002   4.392  0.3102 -0.5951 -0.3247
 7228WAT      O30716  -0.727   1.672   0.410  1.1798 -0.1553 -0.9581
 7228WAT     H130717  -0.740   1.588   0.454 -0.8760  1.0899  1.0068
 7228WAT     H230718  -0.637   1.697   0.432  0.1222  0.6690  3.3041
 7228WAT    EPW30719  -0.717   1.664   0.419  0.7691  0.1177 -0.1368
 7229WAT      O30720  -3.517   3.137   5.928 -0.5927  0.2612 -0.1401
 7229WAT     H130721  -3.557   3.063   5.973 -1.2343 -0.4205 -1.7410
 7229WAT     H230722  -3.462   3.097   5.861 -3.3227  1.0487 -3.1308
 7229WAT    EPW30723  -3.515   3.122   5.925 -1.0372  0.2751 -0.7455
 7230WAT      O30724  -3.455   4.339   7.125 -0.4296  0.5987 -0.2862
 7230WAT     H130725  -3.392   4.297   7.183 -3.0141  0.2526  2.5186
 7230WAT     H230726  -3.452   4.289   7.044  1.1769 -0.8638  0.6362
 7230WAT    EPW30727  -3.447   4.327   7.122 -0.5586  0.3603  0.2055
 7231WAT      O30728   7.465   7.144   0.499 -0.2726  0.0095  0.8223
 7231WAT     H130729   7.383   7.192   0.506 -0.9335 -1.0461  0.4879
 7231WAT     H230730   7.440   7.052   0.499  0.8244 -0.3240 -0.2741
 7231WAT    EPW30731   7.451   7.139   0.500 -0.2151 -0.1738  0.6336
 7232WAT      O30732   6.874   2.768   2.722 -0.6643 -0.2862  0.1130
 7232WAT     H130733   6.902   2.755   2.632  1.2507 -1.1640  0.7742
 7232WAT     H230734   6.836   2.855   2.723  0.3367  0.2034 -1.3099
 7232WAT    EPW30735   6.872   2.777   2.711 -0.2799 -0.3375  0.0125
 7233WAT      O30736   3.712   6.415   2.723 -0.1511  0.5892  0.5390
 7233WAT     H130737   3.754   6.494   2.755  1.9023 -0.7923  1.4847
 7233WAT     H230738   3.783   6.352   2.714 -1.6579 -1.0623 -0.4808
 7233WAT    EPW30739   3.727   6.417   2.726 -0.0790  0.1893  0.5293
 7234WAT      O30740  -0.144   6.471   0.533 -0.0432 -0.2669  0.1625
 7234WAT     H130741  -0.214   6.406   0.537 -1.4658  1.1980  0.9998
 7234WAT     H230742  -0.189   6.551   0.505  1.6488  0.3424 -0.9127
 7234WAT    EPW30743  -0.159   6.473   0.530 -0.0077  0.0067  0.1311
 7235WAT      O30744   2.161   1.434   6.410  0.1299  0.5421 -0.0378
 7235WAT     H130745   2.151   1.524   6.440  4.4445  0.7494  1.5458
 7235WAT     H230746   2.242   1.436   6.358 -0.8362 -2.1005 -1.8642
 7235WAT    EPW30747   2.171   1.446   6.407  0.5716  0.2210 -0.0699
 7236WAT      O30748  -1.668   1.898   5.585 -0.2924 -0.0569 -0.0070
 7236WAT     H130749  -1.605   1.901   5.657 -0.9770 -0.2620  0.6181
 7236WAT     H230750  -1.616   1.912   5.507  0.1772  2.5790  0.6825
 7236WAT    EPW30751  -1.653   1.900   5.584 -0.3209  0.2637  0.1664
 7237WAT      O30752  -4.300   4.880   5.742 -0.1704 -0.4626 -0.0804
 7237WAT     H130753  -4.288   4.962   5.695 -1.8481 -0.5566 -0.7496
 7237WAT     H230754  -4.211   4.850   5.761  0.5254  0.4155 -1.7414
 7237WAT    EPW30755  -4.287   4.887   5.739 -0.2999 -0.3591 -0.3877
 7238WAT      O30756   6.347   8.748   1.823 -0.4720  0.3831 -0.6019
 7238WAT     H130757   6.381   8.671   1.867  0.5409  0.6995 -0.8174
 7238WAT     H230758   6.252   8.736   1.823 -0.4275 -0.0515  0.8553
 7238WAT    EPW30759   6.339   8.736   1.829 -0.3324  0.3676 -0.4382
 7239WAT      O30760  -0.876   6.062   4.924  0.0414 -0.4699  0.1696
 7239WAT     H130761  -0.906   5.971   4.923 -2.1010  0.1798  0.2516
 7239WAT     H230762  -0.957   6.114   4.918  1.2317  1.4313 -0.2609
 7239WAT    EPW30763  -0.891   6.057   4.923 -0.0842 -0.1333  0.1237
 7240WAT      O30764   1.544   8.609   4.888  0.2694 -0.7853  0.4517
 7240WAT     H130765   1.586   8.563   4.815  2.3080  2.1865 -0.4541
 7240WAT     H230766   1.611   8.671   4.918 -3.2227  4.2120 -0.8869
 7240WAT    EPW30767   1.559   8.611   4.883  0.0777  0.2661  0.1557
 7241WAT      O30768   2.746   4.288   7.936 -0.1119 -0.0036  0.4872
 7241WAT     H130769   2.678   4.277   8.002  1.1735 -1.5421  1.6500
 7241WAT     H230770   2.727   4.221   7.870  0.9951 -1.4433  1.5422
 7241WAT    EPW30771   2.735   4.277   7.936  0.2036 -0.3965  0.7799
 7242WAT      O30772  -1.548   2.562   1.288  0.0175 -1.0508 -0.2148
 7242WAT     H130773  -1.467   2.582   1.334 -0.8023 -0.3752  0.9881
 7242WAT     H230774  -1.552   2.628   1.218  0.7359 -1.4017 -0.5954
 7242WAT    EPW30775  -1.538   2.574   1.285  0.0042 -1.0079 -0.1063
 7243WAT      O30776  -5.546   9.235   5.728 -0.1075 -0.6014  0.0960
 7243WAT     H130777  -5.576   9.276   5.647  1.8377 -1.7377 -1.2772
 7243WAT     H230778  -5.467   9.187   5.704  0.3003 -1.3675  2.5867
 7243WAT    EPW30779  -5.540   9.234   5.714  0.2027 -0.8521  0.2434
 7244WAT      O30780  -5.183   8.031   6.867  0.9329  0.0097 -0.0041
 7244WAT     H130781  -5.265   8.026   6.916  2.1386 -0.7924  2.0258
 7244WAT     H230782  -5.155   8.121   6.877 -0.6554  0.8921 -2.4815
 7244WAT    EPW30783  -5.190   8.042   6.875  0.8824  0.0205 -0.0629
 7245WAT      O30784   1.745   1.486   8.849 -0.0843  0.0126 -0.1227
 7245WAT     H130785   1.756   1.567   8.898 -0.4662 -1.0613  1.8135
 7245WAT     H230786   1.660   1.495   8.806  1.4665  2.1638 -3.0880
 7245WAT    EPW30787   1.736   1.497   8.850  0.0699  0.1547 -0.2580
 7246WAT      O30788  -5.377   5.190   8.510  0.2316 -0.0034  0.1350
 7246WAT     H130789  -5.416   5.257   8.566  0.2947  0.7629 -0.7146
 7246WAT     H230790  -5.326   5.135   8.570 -0.9621 -0.1489  1.0467
 7246WAT    EPW30791  -5.375   5.192   8.525  0.0825  0.0787  0.1435
 7247WAT      O30792   5.572   4.887   0.690 -0.2765  0.4008  0.2705
 7247WAT     H130793   5.531   4.967   0.657 -1.1632 -0.6260 -1.2313
 7247WAT     H230794   5.615   4.849   0.614  0.7073 -0.2195  1.1159
 7247WAT    EPW30795   5.572   4.893   0.676 -0.2637  0.1836  0.1839
 7248WAT      O30796  -0.176   2.093   7.090 -0.0249 -0.0628  0.3840
 7248WAT     H130797  -0.195   2.165   7.030 -0.8778 -0.5050  0.1003
 7248WAT     H230798  -0.090   2.062   7.063 -1.0676 -1.3300 -1.7696
 7248WAT    EPW30799  -0.167   2.098   7.079 -0.2749 -0.2882  0.0627
 7249WAT      O30800  -0.323   7.862   7.248  0.1754  0.1927  0.3937
 7249WAT     H130801  -0.296   7.919   7.320  1.9320 -0.0052 -0.0655
 7249WAT     H230802  -0.285   7.777   7.271  1.5321  0.3344 -1.1587
 7249WAT    EPW30803  -0.314   7.858   7.261  0.5861  0.1853  0.1283
 7250WAT      O30804  -4.675   5.894   6.020 -0.5208  0.5817  0.5429
 7250WAT     H130805  -4.671   5.988   6.033  0.1635  0.3350  2.4325
 7250WAT     H230806  -4.653   5.857   6.106 -2.8774 -1.2860  0.4610
 7250WAT    EPW30807  -4.672   5.901   6.033 -0.7415  0.3030  0.7813
 7251WAT      O30808   5.799   8.604   2.507 -0.3812 -0.2309  0.2061
 7251WAT     H130809   5.745   8.643   2.576 -3.5095 -1.5613 -1.2662
 7251WAT     H230810   5.796   8.510   2.526  0.2177 -0.4532 -0.7416
 7251WAT    EPW30811   5.791   8.596   2.519 -0.7148 -0.4354 -0.1130
 7252WAT      O30812   0.668   2.074   6.789  0.1663  0.0029 -0.4230
 7252WAT     H130813   0.687   2.100   6.699 -0.4689  2.0612 -0.0223
 7252WAT     H230814   0.578   2.104   6.804 -0.2047 -1.4947  0.4970
 7252WAT    EPW30815   0.659   2.082   6.779  0.0336  0.0769 -0.2487
 7253WAT      O30816   0.700   5.071   4.400  0.2729 -0.0075 -0.4686
 7253WAT     H130817   0.606   5.052   4.389 -0.1153 -0.1543  2.3345
 7253WAT     H230818   0.743   4.987   4.385 -0.2420 -0.3628  0.0049
 7253WAT    EPW30819   0.693   5.057   4.397  0.1538 -0.0739 -0.0365
 7254WAT      O30820   4.379   7.170   3.174  0.3181 -0.0128  0.1026
 7254WAT     H130821   4.292   7.209   3.172  0.1217 -0.4263  0.4365
 7254WAT     H230822   4.434   7.230   3.124  0.3708  1.5561  1.9139
 7254WAT    EPW30823   4.375   7.183   3.167  0.2992  0.1395  0.3856
 7255WAT      O30824  -3.016   8.327   8.497  0.1282  0.3183  0.7656
 7255WAT     H130825  -3.085   8.382   8.534 -0.9137 -0.1040 -0.4862
 7255WAT     H230826  -2.937   8.352   8.546 -0.8127  1.1099  1.9334
 7255WAT    EPW30827  -3.015   8.338   8.509 -0.1333  0.3667  0.7544
 7256WAT      O30828   3.341   2.105   2.341  0.2133  0.1562  0.4631
 7256WAT     H130829   3.252   2.117   2.374  1.1687  2.2637  2.5244
 7256WAT     H230830   3.339   2.144   2.253 -1.0722 -0.5483  0.1590
 7256WAT    EPW30831   3.329   2.112   2.334  0.1696  0.3413  0.6949
 7257WAT      O30832   5.446   9.600   2.354  0.2677  0.0759 -0.2574
 7257WAT     H130833   5.351   9.609   2.362  0.0433  0.2733 -2.4671
 7257WAT     H230834   5.480   9.686   2.380 -0.0380 -0.3300  1.6031
 7257WAT    EPW30835   5.438   9.613   2.359  0.1976  0.0482 -0.3034
 7258WAT      O30836   2.708   5.589   1.014  0.1041  0.8912 -0.1459
 7258WAT     H130837   2.617   5.566   0.996  0.3304 -0.3690  0.2281
 7258WAT     H230838   2.703   5.675   1.054 -1.1783 -0.2136  2.2657
 7258WAT    EPW30839   2.695   5.597   1.017 -0.0352  0.5791  0.2215
 7259WAT      O30840  -0.565   4.313   6.495 -0.5882 -0.3588 -0.8787
 7259WAT     H130841  -0.649   4.322   6.449 -0.5089 -2.3514 -1.4816
 7259WAT     H230842  -0.522   4.238   6.453  1.6639  0.7972 -0.8059
 7259WAT    EPW30843  -0.570   4.304   6.483 -0.2807 -0.4692 -0.9484
 7260WAT      O30844  -1.735   4.996   2.305 -0.1724  0.7621 -0.1491
 7260WAT     H130845  -1.773   5.064   2.361 -0.4494  1.1822 -0.8286
 7260WAT     H230846  -1.697   4.933   2.366 -0.0769  1.4314  0.5025
 7260WAT    EPW30847  -1.735   4.997   2.320 -0.1963  0.9058 -0.1527
 7261WAT      O30848   1.026   9.842   4.160 -0.0173  0.8485  0.0390
 7261WAT     H130849   1.009   9.773   4.096  0.7034  0.0382  0.6839
 7261WAT     H230850   1.118   9.864   4.147 -0.0904  1.2784  0.2363
 7261WAT    EPW30851   1.036   9.836   4.150  0.0681  0.7987  0.1500
 7262WAT      O30852   9.528   1.168   0.679 -0.0176  0.0437 -0.1266
 7262WAT     H130853   9.542   1.255   0.642  1.6715 -1.0471 -2.2751
 7262WAT     H230854   9.465   1.127   0.619 -0.5810 -0.3248  0.7055
 7262WAT    EPW30855   9.521   1.174   0.666  0.1311 -0.1488 -0.3002
 7263WAT      O30856   2.683   8.710   4.285 -0.1523  0.0237 -0.1707
 7263WAT     H130857   2.613   8.763   4.248  0.5198  0.8467 -0.2907
 7263WAT     H230858   2.640   8.628   4.311 -1.3929  0.9656  0.8669
 7263WAT    EPW30859   2.668   8.706   4.284 -0.2272  0.2570 -0.0496
 7264WAT      O30860   0.956   4.588   5.444 -0.5258  0.7815  0.3899
 7264WAT     H130861   1.050   4.609   5.443 -0.3117 -0.0152  1.2418
 7264WAT     H230862   0.913   4.671   5.463  0.0219  1.1299  0.1465
 7264WAT    EPW30863   0.963   4.601   5.446 -0.4253  0.7222  0.4702
 7265WAT      O30864  -6.728   9.340   6.014  0.0543 -0.0873 -0.3480
 7265WAT     H130865  -6.807   9.314   6.062  0.4872 -1.3695 -0.2881
 7265WAT     H230866  -6.710   9.429   6.044  1.1122 -1.2698  3.0127
 7265WAT    EPW30867  -6.736   9.348   6.024  0.2511 -0.4125  0.1032
 7266WAT      O30868  -0.053   3.510   4.117  0.1960 -0.4643  0.2770
 7266WAT     H130869  -0.118   3.476   4.055  1.0753 -1.9495  0.1319
 7266WAT     H230870   0.031   3.480   4.084  0.7655 -0.5708  1.7264
 7266WAT    EPW30871  -0.051   3.502   4.105  0.3871 -0.6742  0.4489
 7267WAT      O30872   1.456   3.891   8.641 -0.5110 -0.4001  0.2822
 7267WAT     H130873   1.463   3.965   8.582 -0.8359 -0.7365 -0.1865
 7267WAT     H230874   1.518   3.910   8.711 -3.2394  2.1383  2.2081
 7267WAT    EPW30875   1.465   3.903   8.642 -0.9137 -0.1097  0.4745
 7268WAT      O30876  -3.527   3.221   7.043  0.2028 -0.3290 -0.0064
 7268WAT     H130877  -3.595   3.240   6.978 -0.1509 -0.8478  0.2038
 7268WAT     H230878  -3.455   3.183   6.992  0.9240  1.5085 -0.4340
 7268WAT    EPW30879  -3.527   3.218   7.027  0.2512 -0.1550 -0.0350
 7269WAT      O30880   2.299  10.222   6.343  0.4264  0.4093 -0.0047
 7269WAT     H130881   2.366  10.208   6.409  0.9294  1.8570 -0.1836
 7269WAT     H230882   2.217  10.230   6.393  0.6016  0.1297  0.3305
 7269WAT    EPW30883   2.297  10.221   6.358  0.5158  0.5636  0.0160
 7270WAT      O30884   3.345   7.148   6.834  0.1528 -0.5431  0.0727
 7270WAT     H130885   3.306   7.185   6.755 -2.4499 -1.1937  0.9747
 7270WAT     H230886   3.305   7.197   6.906  1.5107 -0.8219  1.0575
 7270WAT    EPW30887   3.335   7.159   6.833 -0.0114 -0.6657  0.3216
 7271WAT      O30888   7.029   2.173   1.260 -0.4026 -0.0792 -0.0693
 7271WAT     H130889   7.049   2.235   1.330 -1.0336  0.2626 -0.1764
 7271WAT     H230890   7.066   2.214   1.181  2.1778 -1.4495  0.3295
 7271WAT    EPW30891   7.036   2.187   1.259 -0.1457 -0.2149 -0.0309
 7272WAT      O30892   3.436   8.603   5.032 -0.5182  0.3478  0.3277
 7272WAT     H130893   3.492   8.579   5.105 -1.9141  0.0176  1.3163
 7272WAT     H230894   3.482   8.570   4.955  0.5813 -0.0081  1.1125
 7272WAT    EPW30895   3.450   8.596   5.031 -0.5573  0.2575  0.5615
 7273WAT      O30896  -6.469   7.273   6.975 -0.3223  0.0869  0.0068
 7273WAT     H130897  -6.494   7.362   6.952 -1.1143 -0.2015 -0.2714
 7273WAT     H230898  -6.551   7.231   7.003 -0.2866 -1.0567 -1.4901
 7273WAT    EPW30899  -6.483   7.279   6.976 -0.4220 -0.1020 -0.2275
 7274WAT      O30900  -3.732   8.312   5.575  0.4396  0.9348 -0.0169
 7274WAT     H130901  -3.817   8.343   5.546  0.0997 -0.3070 -0.4087
 7274WAT     H230902  -3.735   8.319   5.670 -0.4399  0.0927  0.0284
 7274WAT    EPW30903  -3.744   8.317   5.584  0.2788  0.6599 -0.0625
 7275WAT      O30904   0.787   2.459   7.624 -0.0163 -0.2871  0.0001
 7275WAT     H130905   0.753   2.385   7.675  0.7750 -1.7237 -1.4419
 7275WAT     H230906   0.835   2.512   7.687  1.5302 -2.3726  0.7169
 7275WAT    EPW30907   0.789   2.456   7.639  0.2920 -0.7517 -0.0954
 7276WAT      O30908  -4.161   1.920   8.658 -0.0340  0.1263  0.3942
 7276WAT     H130909  -4.142   1.843   8.604 -0.6227  2.1585 -3.0309
 7276WAT     H230910  -4.246   1.901   8.698  1.1791 -2.1290  2.1204
 7276WAT    EPW30911  -4.170   1.907   8.656  0.0482  0.0969  0.1702
 7277WAT      O30912  -4.770   8.163   8.174 -0.0148 -0.6229 -0.1461
 7277WAT     H130913  -4.848   8.109   8.161 -0.6612  0.2867 -0.1572
 7277WAT     H230914  -4.804   8.252   8.187  0.9923 -0.2892  0.3693
 7277WAT    EPW30915  -4.785   8.168   8.174  0.0329 -0.4587 -0.0801
 7278WAT      O30916   2.305   7.673   6.403 -0.4468  0.2405  0.1313
 7278WAT     H130917   2.324   7.693   6.311 -0.9080 -0.9918 -0.2555
 7278WAT     H230918   2.314   7.577   6.408  0.9354  0.4195  1.6896
 7278WAT    EPW30919   2.309   7.663   6.391 -0.3254  0.1013  0.2861
 7279WAT      O30920  -3.728   8.070   7.183 -0.0420 -0.6721 -0.1103
 7279WAT     H130921  -3.657   8.120   7.222 -0.4245  0.0581 -0.3491
 7279WAT     H230922  -3.743   7.998   7.245  0.5038 -0.4960  0.2290
 7279WAT    EPW30923  -3.721   8.067   7.197 -0.0204 -0.5522 -0.0970
 7280WAT      O30924  -0.279   0.729   8.262  0.6072  0.1976 -0.3636
 7280WAT     H130925  -0.348   0.695   8.318  1.2614  0.9531  0.9346
 7280WAT     H230926  -0.326   0.780   8.195 -0.1551 -0.3825 -0.2852
 7280WAT    EPW30927  -0.295   0.731   8.260  0.5929  0.2208 -0.1822
 7281WAT      O30928  -1.149   9.288   8.775  0.3066 -0.2733  0.1771
 7281WAT     H130929  -1.125   9.324   8.860 -2.2711  2.0098  0.0673
 7281WAT     H230930  -1.077   9.228   8.754  1.3356 -0.4751  3.6264
 7281WAT    EPW30931  -1.136   9.285   8.783  0.1023  0.0005  0.6175
 7282WAT      O30932   4.424   3.372   4.922 -0.0970  0.1247  0.7712
 7282WAT     H130933   4.447   3.373   5.015  0.8529  2.2825  0.5646
 7282WAT     H230934   4.363   3.445   4.912  0.9456  0.8498 -0.5368
 7282WAT    EPW30935   4.419   3.382   4.933  0.1659  0.5050  0.5715
 7283WAT      O30936   7.808   3.200   0.125 -0.1134 -0.0722 -0.5900
 7283WAT     H130937   7.786   3.114   0.089 -3.2462 -0.7593  2.4286
 7283WAT     H230938   7.777   3.262   0.059 -0.5269 -1.2446 -1.5388
 7283WAT    EPW30939   7.801   3.197   0.111 -0.5813 -0.3175 -0.3170
 7284WAT      O30940   0.285   3.679   5.146 -0.2592  0.3465 -0.4640
 7284WAT     H130941   0.309   3.613   5.210 -1.1964 -1.2261 -1.6710
 7284WAT     H230942   0.193   3.697   5.164 -0.6116 -0.3302 -1.5371
 7284WAT    EPW30943   0.276   3.673   5.157 -0.4293  0.0498 -0.7648
 7285WAT      O30944  -2.767   3.653   7.195 -0.0958  0.6334  0.1183
 7285WAT     H130945  -2.858   3.631   7.175  0.0463 -0.7221  0.8657
 7285WAT     H230946  -2.768   3.748   7.208 -1.8160  0.4348  2.0173
 7285WAT    EPW30947  -2.779   3.663   7.194 -0.3039  0.4284  0.4675
 7286WAT      O30948  -5.601   7.626   7.309 -0.3631  0.5391  0.4066
 7286WAT     H130949  -5.596   7.632   7.405 -0.6134  0.3410  0.4331
 7286WAT     H230950  -5.594   7.533   7.290  2.8523  0.7480  0.0300
 7286WAT    EPW30951  -5.600   7.615   7.319  0.0279  0.5407  0.3605
 7287WAT      O30952   2.180   3.577   4.746  0.5088 -0.4637  0.5836
 7287WAT     H130953   2.175   3.667   4.713 -0.0337 -0.2684  1.1668
 7287WAT     H230954   2.110   3.572   4.811  3.0170 -0.0871  3.5110
 7287WAT    EPW30955   2.170   3.588   4.750  0.7681 -0.3884  1.0467
 7288WAT      O30956  -3.719   9.506   5.352  0.2014  0.2123  0.2043
 7288WAT     H130957  -3.690   9.486   5.441 -1.0360 -0.0601  0.5747
 7288WAT     H230958  -3.719   9.602   5.348 -2.6959  0.3781  1.6053
 7288WAT    EPW30959  -3.715   9.516   5.364 -0.3439  0.1984  0.4380
 7289WAT      O30960  -2.050   8.884   0.050  0.4487  0.8462  0.7364
 7289WAT     H130961  -2.064   8.808   0.107  1.3340  0.1528  0.0525
 7289WAT     H230962  -2.139   8.914   0.028 -0.1424 -2.3880 -2.1130
 7289WAT    EPW30963  -2.064   8.878   0.055  0.4874  0.3281  0.2704
 7290WAT      O30964  -1.993   4.035   8.219 -0.1726  0.1897  0.4436
 7290WAT     H130965  -2.068   4.094   8.214 -0.1645  0.1078 -0.7406
 7290WAT     H230966  -1.928   4.084   8.271 -0.6957  0.6372  0.6850
 7290WAT    EPW30967  -1.994   4.049   8.225 -0.2406  0.2379  0.3195
 7291WAT      O30968   1.278   6.165   3.679 -0.7384 -0.0654 -0.0965
 7291WAT     H130969   1.338   6.219   3.628 -0.5129 -0.6326 -0.4402
 7291WAT     H230970   1.323   6.151   3.763 -0.2617 -0.7208 -0.4563
 7291WAT    EPW30971   1.292   6.170   3.684 -0.6458 -0.2270 -0.1893
 7292WAT      O30972   2.826   4.335   5.767  0.3209 -0.0104  0.6277
 7292WAT     H130973   2.758   4.325   5.699 -0.1377  0.1915  1.0501
 7292WAT     H230974   2.845   4.245   5.794  1.4758 -0.1911 -0.6974
 7292WAT    EPW30975   2.819   4.322   5.762  0.4127 -0.0076  0.5088
 7293WAT      O30976   4.209   5.532   3.424  0.2681 -0.4927  0.7109
 7293WAT     H130977   4.128   5.516   3.375 -0.1458 -0.7741  1.4712
 7293WAT     H230978   4.192   5.613   3.473  0.7581 -0.0950  0.2394
 7293WAT    EPW30979   4.196   5.541   3.424  0.2782 -0.4776  0.7490
 7294WAT      O30980   0.714   5.651   2.325  0.1348  0.1610  0.1558
 7294WAT     H130981   0.657   5.582   2.289 -0.1548  0.0609  0.7782
 7294WAT     H230982   0.656   5.702   2.382  1.0061 -1.0203  2.2260
 7294WAT    EPW30983   0.699   5.648   2.328  0.2115 -0.0079  0.5111
 7295WAT      O30984   3.028   6.994   2.357 -0.0898  0.3191 -0.2460
 7295WAT     H130985   3.027   7.089   2.351 -1.5581  0.2260 -3.0786
 7295WAT     H230986   2.936   6.970   2.369  0.1944 -0.7604 -0.0936
 7295WAT    EPW30987   3.016   7.003   2.358 -0.2460  0.1645 -0.5996
 7296WAT      O30988  -2.134   8.355   0.754 -0.0366  0.3394 -0.1433
 7296WAT     H130989  -2.159   8.290   0.820 -3.6827  1.6470 -0.0031
 7296WAT     H230990  -2.111   8.304   0.677 -0.9119 -1.1700  0.5557
 7296WAT    EPW30991  -2.134   8.340   0.753 -0.6329  0.3128 -0.0326
 7297WAT      O30992  -0.653   6.073   5.324  0.6934 -0.1012 -0.3710
 7297WAT     H130993  -0.697   6.014   5.385 -0.0629  0.6736 -0.1527
 7297WAT     H230994  -0.724   6.123   5.283  1.1503 -0.8023 -2.1150
 7297WAT    EPW30995  -0.668   6.072   5.327  0.6539 -0.0913 -0.5722
 7298WAT      O30996   5.555   2.113   7.612 -0.2513 -0.1269  0.2633
 7298WAT     H130997   5.467   2.150   7.606 -0.3094 -0.3664 -0.5064
 7298WAT     H230998   5.558   2.047   7.542  0.7249  0.2748 -0.0952
 7298WAT    EPW30999   5.544   2.109   7.602 -0.1302 -0.1055  0.1144
 7299WAT      O31000  -2.996   8.819   5.583 -0.5925  0.0615  0.3280
 7299WAT     H131001  -2.969   8.727   5.580 -3.7713 -1.0136  0.9280
 7299WAT     H231002  -2.978   8.846   5.673 -0.1813 -0.1486  0.3127
 7299WAT    EPW31003  -2.990   8.810   5.595 -0.9575 -0.1082  0.4053
 7300WAT      O31004  -1.638   6.631   3.355 -0.3380  0.0303  0.4877
 7300WAT     H131005  -1.666   6.718   3.325  0.1918 -0.4390 -1.5229
 7300WAT     H231006  -1.713   6.574   3.337 -0.8220  0.0964  2.1419
 7300WAT    EPW31007  -1.652   6.635   3.349 -0.3319 -0.0229  0.4407
 7301WAT      O31008   5.691   1.381   3.662 -0.4948 -0.2827  0.3028
 7301WAT     H131009   5.757   1.450   3.664 -0.7328 -0.0723  0.9231
 7301WAT     H231010   5.649   1.385   3.748 -1.8705  0.1296 -0.3639
 7301WAT    EPW31011   5.694   1.390   3.674 -0.7079 -0.2006  0.2967
 7302WAT      O31012   7.947   0.280   3.696 -0.7694  0.1904  0.2153
 7302WAT     H131013   7.946   0.209   3.632  1.1593 -0.2317  0.6137
 7302WAT     H231014   8.039   0.304   3.706 -1.0428  0.6119  2.4209
 7302WAT    EPW31015   7.959   0.274   3.689 -0.5510  0.1903  0.5587
 7303WAT      O31016   0.249   5.838   3.567  0.2477 -0.0224  0.0320
 7303WAT     H131017   0.222   5.913   3.619  1.3487 -0.4329  1.2432
 7303WAT     H231018   0.220   5.859   3.478 -3.7643 -0.3495  1.0694
 7303WAT    EPW31019   0.242   5.850   3.562 -0.1362 -0.1197  0.3285
 7304WAT      O31020  -0.343   3.210   4.664  0.0902 -0.4359  0.3130
 7304WAT     H131021  -0.276   3.271   4.634 -0.4038  0.5438  1.1520
 7304WAT     H231022  -0.311   3.180   4.749 -0.0880 -0.6959  0.2894
 7304WAT    EPW31023  -0.330   3.214   4.671  0.0015 -0.3409  0.4203
 7305WAT      O31024  -0.479   2.245   3.519  0.1036 -0.1627 -0.1451
 7305WAT     H131025  -0.556   2.188   3.516 -0.6702  0.7443  1.3057
 7305WAT     H231026  -0.447   2.248   3.429 -1.6502 -0.4340 -0.7998
 7305WAT    EPW31027  -0.485   2.238   3.507 -0.2298 -0.0788 -0.0401
 7306WAT      O31028  -6.900   8.227   6.826  0.4594 -0.1452  0.2285
 7306WAT     H131029  -6.845   8.171   6.771 -0.3544 -0.7728  0.0192
 7306WAT     H231030  -6.989   8.208   6.796 -0.2578 -2.2176  3.2500
 7306WAT    EPW31031  -6.905   8.217   6.815  0.2577 -0.5016  0.5991
 7307WAT      O31032  -4.848   8.291   6.071  0.3395 -0.0851  0.0855
 7307WAT     H131033  -4.926   8.266   6.119  0.2610 -0.6046 -0.3125
 7307WAT     H231034  -4.875   8.367   6.019  0.4624  0.5692  0.9535
 7307WAT    EPW31035  -4.862   8.298   6.071  0.3452 -0.0672  0.1476
 7308WAT      O31036  -5.820   8.205   7.861  0.2164  0.2821 -0.2478
 7308WAT     H131037  -5.757   8.276   7.848 -0.1244  0.6414  0.0546
 7308WAT     H231038  -5.814   8.153   7.781  0.3987  0.7079 -0.5132
 7308WAT    EPW31039  -5.811   8.207   7.849  0.1953  0.3853 -0.2427
 7309WAT      O31040   1.685   4.647   1.938  0.6529  0.9306  0.9956
 7309WAT     H131041   1.774   4.619   1.918  0.2334  1.1015 -1.4570
 7309WAT     H231042   1.636   4.633   1.856 -0.7103  4.2833  1.0429
 7309WAT    EPW31043   1.690   4.641   1.924  0.4178  1.3955  0.6783
 7310WAT      O31044  -2.126   9.009   1.238 -0.4495  0.4279  0.4804
 7310WAT     H131045  -2.126   9.102   1.261 -1.1074  0.2653  1.1622
 7310WAT     H231046  -2.197   8.971   1.289 -0.1966 -0.4555  0.2001
 7310WAT    EPW31047  -2.135   9.016   1.248 -0.5029  0.2894  0.5333
 7311WAT      O31048  -5.766   6.504   8.351 -0.1809  0.0340  0.1475
 7311WAT     H131049  -5.814   6.570   8.302  2.0585  2.2968  0.8003
 7311WAT     H231050  -5.794   6.515   8.441  0.8108  0.7108  0.3860
 7311WAT    EPW31051  -5.776   6.514   8.356  0.2453  0.4218  0.2651
 7312WAT      O31052   3.478   4.578   0.131  0.5774 -0.0071 -0.7957
 7312WAT     H131053   3.517   4.531   0.205 -1.1814 -1.0736 -0.4789
 7312WAT     H231054   3.494   4.670   0.151  0.7395 -0.3028  0.5745
 7312WAT    EPW31055   3.485   4.584   0.144  0.3668 -0.1864 -0.5732
 7313WAT      O31056  -0.576   7.354   5.759 -0.2623  0.5705  0.5106
 7313WAT     H131057  -0.545   7.276   5.712  0.7164  0.6726  0.9453
 7313WAT     H231058  -0.500   7.380   5.812  0.0449  2.8702 -0.9633
 7313WAT    EPW31059  -0.562   7.347   5.760 -0.0927  0.8874  0.3736
 7314WAT      O31060  -5.614   7.757   6.810  0.2702  0.3236 -0.7297
 7314WAT     H131061  -5.610   7.822   6.740 -0.4326  0.4356 -0.6680
 7314WAT     H231062  -5.522   7.737   6.828  0.4740  0.7227 -1.2819
 7314WAT    EPW31063  -5.601   7.763   6.803  0.2043  0.3910 -0.7946
 7315WAT      O31064   5.545   1.353   2.132  0.6546 -0.0062 -0.0805
 7315WAT     H131065   5.483   1.281   2.137  0.2727  0.3375  0.1332
 7315WAT     H231066   5.631   1.311   2.140  0.4716 -0.5110 -0.6640
 7315WAT    EPW31067   5.548   1.338   2.133  0.5803 -0.0274 -0.1293
 7316WAT      O31068   3.807   2.642   2.505 -0.0512  0.4740 -0.2731
 7316WAT     H131069   3.789   2.681   2.420 -2.7539  0.5910  0.2379
 7316WAT     H231070   3.752   2.691   2.566  2.6224  1.1394  1.8065
 7316WAT    EPW31071   3.797   2.654   2.502 -0.0551  0.5772  0.0687
 7317WAT      O31072   6.976   0.406   4.430  0.4577 -0.9250 -0.5626
 7317WAT     H131073   7.020   0.374   4.352  1.6239 -0.1328 -0.2607
 7317WAT     H231074   7.037   0.386   4.502  0.3616  0.2009 -0.1375
 7317WAT    EPW31075   6.990   0.399   4.429  0.5987 -0.6720 -0.4666
 7318WAT      O31076  -4.296   7.706   4.254  0.1953  0.1712 -0.7197
 7318WAT     H131077  -4.244   7.658   4.190  0.0465 -2.1287  0.7667
 7318WAT     H231078  -4.354   7.639   4.292 -1.1602  1.8745  0.3476
 7318WAT    EPW31079  -4.297   7.691   4.250 -0.0031  0.0927 -0.3829
 7319WAT      O31080  -0.491  10.174   2.277  0.1148 -0.3789  0.2609
 7319WAT     H131081  -0.515  10.202   2.365 -1.2536 -2.4485  0.6153
 7319WAT     H231082  -0.398  10.196   2.270 -0.2665  1.8537  1.3529
 7319WAT    EPW31083  -0.482  10.181   2.288 -0.1160 -0.3572  0.4517
 7320WAT      O31084   3.425   6.866   3.580  0.0048 -0.1211 -0.5028
 7320WAT     H131085   3.496   6.808   3.553 -1.6113 -2.7964  0.6457
 7320WAT     H231086   3.384   6.893   3.497  1.1666 -0.0696 -1.0813
 7320WAT    EPW31087   3.429   6.862   3.565 -0.0552 -0.4671 -0.4275
 7321WAT      O31088  -6.469   8.935   7.584  0.1427  0.5839  1.2757
 7321WAT     H131089  -6.520   8.854   7.593  0.5137  0.4442  2.2388
 7321WAT     H231090  -6.519   8.988   7.521  1.2189 -1.4215 -1.4621
 7321WAT    EPW31091  -6.483   8.931   7.577  0.3338  0.3009  1.0417
 7322WAT      O31092   3.209   9.127   0.817  0.3459 -0.5121  0.5268
 7322WAT     H131093   3.147   9.137   0.745 -1.7413  0.4144  2.3191
 7322WAT     H231094   3.278   9.071   0.782 -0.2812  0.3292 -2.3121
 7322WAT    EPW31095   3.210   9.121   0.803 -0.0120 -0.2789  0.3887
 7323WAT      O31096   4.166   8.990   2.037 -0.2805  0.5540 -0.1532
 7323WAT     H131097   4.185   9.062   1.976  0.5225  0.9337  0.5252
 7323WAT     H231098   4.251   8.967   2.073 -0.5027 -0.8918 -0.5121
 7323WAT    EPW31099   4.180   8.997   2.034 -0.2038  0.4134 -0.1111
 7324WAT      O31100   1.781   1.251   5.535  0.2155 -0.0562  0.1601
 7324WAT     H131101   1.771   1.294   5.450  1.7564  1.1994  0.5715
 7324WAT     H231102   1.696   1.208   5.550 -0.3162  0.2546 -1.6786
 7324WAT    EPW31103   1.768   1.251   5.526  0.3486  0.1504 -0.0281
 7325WAT      O31104   0.561   4.324   6.039 -0.0631 -0.3407  0.7582
 7325WAT     H131105   0.551   4.359   6.127  0.2834 -1.2644  1.1766
 7325WAT     H231106   0.655   4.318   6.026 -0.1029 -1.7647  0.9748
 7325WAT    EPW31107   0.572   4.328   6.049 -0.0226 -0.6504  0.8421
 7326WAT      O31108   4.501   6.856   1.303  0.2519  0.0978 -0.4839
 7326WAT     H131109   4.552   6.829   1.379  0.8217  0.7286 -0.6228
 7326WAT     H231110   4.417   6.885   1.338  1.1747  2.2085  0.1701
 7326WAT    EPW31111   4.497   6.856   1.318  0.4489  0.4594 -0.4160
 7327WAT      O31112   5.829   3.281   0.049 -0.4708  0.9538 -0.2110
 7327WAT     H131113   5.874   3.357   0.011 -2.6430  2.5692  0.2360
 7327WAT     H231114   5.770   3.251  -0.019 -1.1059  0.9888  0.3096
 7327WAT    EPW31115   5.827   3.287   0.035 -0.8411  1.1714 -0.0834
 7328WAT      O31116  -0.276   9.022   8.733 -0.1133 -0.1917  0.5464
 7328WAT     H131117  -0.299   9.106   8.771 -1.7574  0.2373 -1.2491
 7328WAT     H231118  -0.223   9.045   8.656 -1.2197 -0.7188 -0.3996
 7328WAT    EPW31119  -0.272   9.036   8.728 -0.4761 -0.2050  0.1850
 7329WAT      O31120  -2.208   2.959   8.113  0.3299  1.1509  0.2360
 7329WAT     H131121  -2.141   3.026   8.101  0.2183  1.4353  1.1286
 7329WAT     H231122  -2.291   3.008   8.111  0.1803  0.8802 -0.2922
 7329WAT    EPW31123  -2.210   2.974   8.111  0.2955  1.1526  0.2842
 7330WAT      O31124   0.731  10.213   6.165  0.0154  0.0752 -0.8149
 7330WAT     H131125   0.732  10.120   6.187  0.7270 -0.6491 -3.5977
 7330WAT     H231126   0.653  10.225   6.112 -2.2603  2.0033  2.5554
 7330WAT    EPW31127   0.721  10.202   6.161 -0.1909  0.2341 -0.7374
 7331WAT      O31128  -1.292   1.707   4.534  1.1274  0.3018 -0.3069
 7331WAT     H131129  -1.234   1.720   4.459  0.2640  3.5266 -0.5631
 7331WAT     H231130  -1.375   1.682   4.496  0.6485  2.0829 -0.5235
 7331WAT    EPW31131  -1.295   1.706   4.520  0.9504  0.9621 -0.3695
 7332WAT      O31132   2.863   6.679   2.718 -0.0855  0.0016 -0.4928
 7332WAT     H131133   2.843   6.773   2.723 -2.1037 -0.4320  0.7585
 7332WAT     H231134   2.784   6.636   2.751  0.3729 -2.2054 -2.0829
 7332WAT    EPW31135   2.850   6.686   2.723 -0.2912 -0.3467 -0.5375
 7333WAT      O31136   4.541   6.133   5.143  0.2268  0.4542 -0.4788
 7333WAT     H131137   4.509   6.096   5.225  1.8817 -2.1445 -0.9054
 7333WAT     H231138   4.490   6.090   5.075  0.5603  0.7233 -0.9086
 7333WAT    EPW31139   4.530   6.123   5.145  0.4890  0.1469 -0.5920
 7334WAT      O31140   1.551   2.232   7.730 -0.2264 -0.6335  0.1770
 7334WAT     H131141   1.599   2.202   7.807 -1.3811 -0.2649  1.0757
 7334WAT     H231142   1.507   2.154   7.697 -0.2007 -0.6752  0.2415
 7334WAT    EPW31143   1.552   2.218   7.735 -0.3752 -0.5903  0.3040
 7335WAT      O31144   1.380   2.875   3.684  0.6432 -0.2292  0.1101
 7335WAT     H131145   1.315   2.944   3.698  1.8988  0.8475  0.8229
 7335WAT     H231146   1.424   2.900   3.603  1.1807 -0.1270  0.4326
 7335WAT    EPW31147   1.377   2.888   3.675  0.8797 -0.0737  0.2466
 7336WAT      O31148   7.949   0.504   0.876 -0.4444 -0.0658 -0.4735
 7336WAT     H131149   7.878   0.486   0.814 -2.0231 -0.6690  1.4133
 7336WAT     H231150   8.018   0.442   0.851 -0.5265  0.5150 -2.3327
 7336WAT    EPW31151   7.948   0.493   0.864 -0.6633 -0.0688 -0.4699
 7337WAT      O31152  -0.351   7.409   0.536 -0.0776 -0.7201  0.0419
 7337WAT     H131153  -0.412   7.395   0.609  0.2475 -0.3597  0.3883
 7337WAT     H231154  -0.407   7.438   0.464 -0.4608 -1.5267  0.0049
 7337WAT    EPW31155  -0.366   7.411   0.536 -0.0853 -0.7787  0.0827
 7338WAT      O31156   3.545   7.155   4.163 -0.0645 -0.5849 -0.6703
 7338WAT     H131157   3.510   7.158   4.075 -0.2261 -0.7564 -0.6134
 7338WAT     H231158   3.589   7.239   4.175 -3.9521  1.5016  0.7065
 7338WAT    EPW31159   3.546   7.167   4.153 -0.5985 -0.3321 -0.4814
 7339WAT      O31160   2.395   6.961   6.220 -0.2910  0.0707  0.5091
 7339WAT     H131161   2.387   7.016   6.142  4.2411  2.0075  1.0995
 7339WAT     H231162   2.452   6.889   6.194 -1.7747 -1.4269  1.1761
 7339WAT    EPW31163   2.401   6.959   6.207  0.1110  0.1285  0.6750
 7340WAT      O31164  -3.179   1.078   7.881 -0.4876  0.0139  0.5927
 7340WAT     H131165  -3.232   1.020   7.827 -1.1943 -0.0915  1.3859
 7340WAT     H231166  -3.135   1.136   7.818 -2.2808  0.7384 -0.0493
 7340WAT    EPW31167  -3.180   1.078   7.866 -0.8173  0.0955  0.6127
 7341WAT      O31168   4.784   6.930   1.293 -0.1715  0.5430 -0.2184
 7341WAT     H131169   4.694   6.924   1.260 -0.2805 -1.7323  0.3663
 7341WAT     H231170   4.839   6.913   1.216 -0.4115 -3.7919  0.3490
 7341WAT    EPW31171   4.780   6.927   1.278 -0.2174 -0.3288 -0.0665
 7342WAT      O31172   2.278   5.802   4.255 -0.7984 -0.0270 -0.3829
 7342WAT     H131173   2.227   5.791   4.174 -3.8202 -1.3307  1.5060
 7342WAT     H231174   2.213   5.825   4.321  1.3137 -0.4618  2.0105
 7342WAT    EPW31175   2.263   5.804   4.253 -0.9183 -0.2565  0.1819
 7343WAT      O31176   1.538   6.453   4.921  0.0505  0.3009  0.1023
 7343WAT     H131177   1.520   6.524   4.983 -0.5051  2.6058 -2.4945
 7343WAT     H231178   1.629   6.466   4.894 -0.5155  1.1364 -1.5776
 7343WAT    EPW31179   1.547   6.464   4.925 -0.0975  0.7150 -0.4618
 7344WAT      O31180   6.882   5.470   2.314 -0.1559 -0.5072  1.1964
 7344WAT     H131181   6.958   5.430   2.356  1.4440  0.1290 -0.9478
 7344WAT     H231182   6.889   5.563   2.337  1.3006  0.0274 -1.1358
 7344WAT    EPW31183   6.893   5.477   2.323  0.2472 -0.3529  0.6062
 7345WAT      O31184   5.368   8.460   0.813  0.0439 -0.0719 -0.2588
 7345WAT     H131185   5.416   8.381   0.789 -1.9535 -1.5302  0.2721
 7345WAT     H231186   5.296   8.429   0.868 -0.6656  2.1571  0.1960
 7345WAT    EPW31187   5.365   8.445   0.817 -0.3133  0.0300 -0.1287
 7346WAT      O31188   0.807   4.346   6.287  0.0133 -0.4948 -0.0008
 7346WAT     H131189   0.721   4.311   6.308 -0.2540  0.2491  0.1473
 7346WAT     H231190   0.867   4.296   6.342 -0.6551  1.3736  2.6124
 7346WAT    EPW31191   0.804   4.335   6.297 -0.1101 -0.1502  0.3633
 7347WAT      O31192  -0.981   6.795   6.804  0.2503  0.6175  0.1697
 7347WAT     H131193  -1.069   6.786   6.767  0.5084  3.0408 -1.2385
 7347WAT     H231194  -0.939   6.711   6.784 -1.5116 -0.3631  0.3296
 7347WAT    EPW31195  -0.987   6.782   6.796  0.0519  0.8078  0.0050
 7348WAT      O31196  -3.120   3.084   5.582  0.6532  0.2794  0.6076
 7348WAT     H131197  -3.070   3.003   5.572  1.8672  1.2666 -2.7544
 7348WAT     H231198  -3.206   3.063   5.545  0.7648  0.3252  0.3153
 7348WAT    EPW31199  -3.125   3.071   5.575  0.8280  0.4157  0.1256
 7349WAT      O31200   3.082   6.087   8.442 -0.4330 -0.1914 -0.1717
 7349WAT     H131201   3.125   6.173   8.451  0.4038 -0.5264 -0.8270
 7349WAT     H231202   3.067   6.078   8.347 -0.3645 -0.8469 -0.1207
 7349WAT    EPW31203   3.086   6.097   8.430 -0.3135 -0.3221 -0.2513
 7350WAT      O31204   3.789   2.273   4.056 -0.5712 -0.8006  0.4371
 7350WAT     H131205   3.790   2.227   3.972 -3.0648 -0.1975  0.0136
 7350WAT     H231206   3.712   2.330   4.052  1.8947  2.9228  1.2493
 7350WAT    EPW31207   3.779   2.274   4.045 -0.5748 -0.2300  0.4883
 7351WAT      O31208  -5.397   9.392   4.602 -0.3296 -0.5377 -0.1675
 7351WAT     H131209  -5.333   9.401   4.531  0.0012  2.3998  0.3848
 7351WAT     H231210  -5.470   9.447   4.575 -0.1498  0.7163  1.7787
 7351WAT    EPW31211  -5.398   9.400   4.589 -0.2623  0.0153  0.1621
 7352WAT      O31212   3.172   5.687   7.876  0.2561 -0.1917  0.3427
 7352WAT     H131213   3.134   5.758   7.927 -1.4363 -2.5766  2.6848
 7352WAT     H231214   3.190   5.725   7.790 -1.8905  2.6556  1.0200
 7352WAT    EPW31215   3.169   5.701   7.871 -0.2503 -0.1307  0.7410
 7353WAT      O31216   6.336   3.408   2.472  0.4696  0.4838  0.1822
 7353WAT     H131217   6.259   3.441   2.425  0.7417 -1.1258 -1.5369
 7353WAT     H231218   6.311   3.411   2.564 -1.3051  0.8986 -0.2791
 7353WAT    EPW31219   6.322   3.412   2.478  0.2716  0.3263 -0.1054
 7354WAT      O31220   6.951   5.392   3.257 -0.0391  0.6573 -0.9381
 7354WAT     H131221   6.929   5.374   3.166 -1.6413  2.5849 -1.0010
 7354WAT     H231222   6.874   5.437   3.292  1.2830  1.6742  0.8344
 7354WAT    EPW31223   6.938   5.395   3.250 -0.0761  1.0457 -0.7128
 7355WAT      O31224  -0.814   5.404   0.436  0.6400  0.1537 -0.2370
 7355WAT     H131225  -0.896   5.396   0.387 -0.3934  0.3878  1.3784
 7355WAT     H231226  -0.791   5.496   0.431  0.1045  0.3255  0.3596
 7355WAT    EPW31227  -0.821   5.415   0.429  0.4330  0.2074  0.0548
 7356WAT      O31228   0.264   6.509   7.411  0.2944  0.2721 -0.3891
 7356WAT     H131229   0.329   6.532   7.477  0.6910  4.4389 -1.9061
 7356WAT     H231230   0.312   6.509   7.329 -1.0956  0.6117 -1.2420
 7356WAT    EPW31231   0.279   6.512   7.409  0.1634  0.8667 -0.7017
 7357WAT      O31232   3.019   4.591   6.761  0.2258 -0.1067  0.2882
 7357WAT     H131233   2.993   4.507   6.798  1.7169 -1.0135 -0.6188
 7357WAT     H231234   3.089   4.622   6.818  0.1785  0.1804  0.1950
 7357WAT    EPW31235   3.025   4.584   6.773  0.4163 -0.1884  0.1564
 7358WAT      O31236   0.759   8.158   2.576  0.4757  0.5556 -0.2942
 7358WAT     H131237   0.736   8.124   2.489  0.7513  0.7006 -0.4231
 7358WAT     H231238   0.676   8.159   2.624  0.2520  0.8312 -0.6794
 7358WAT    EPW31239   0.745   8.154   2.571  0.4826  0.6108 -0.3620
 7359WAT      O31240   1.701   3.370   7.820  0.2624 -0.3512 -0.1861
 7359WAT     H131241   1.666   3.369   7.731 -0.7104 -2.4045  0.1672
 7359WAT     H231242   1.693   3.280   7.850  0.8257  0.2355  1.8971
 7359WAT    EPW31243   1.695   3.358   7.812  0.2084 -0.5447  0.1352
 7360WAT      O31244   1.603   4.671   4.499 -0.9110 -0.0956  0.4448
 7360WAT     H131245   1.598   4.607   4.428 -0.6905 -0.2616  0.5767
 7360WAT     H231246   1.636   4.621   4.573 -3.9513 -0.6624  1.5550
 7360WAT    EPW31247   1.607   4.656   4.499 -1.2829 -0.1924  0.6087
 7361WAT      O31248   4.361   2.264   0.097 -0.9076  0.2118  0.6449
 7361WAT     H131249   4.299   2.286   0.028 -0.7020  3.1578  1.2676
 7361WAT     H231250   4.317   2.290   0.178 -0.8510 -2.4961  1.6376
 7361WAT    EPW31251   4.347   2.270   0.098 -0.8731  0.2432  0.8580
 7362WAT      O31252  -1.789   6.516   8.350 -0.3010  0.0698  1.0465
 7362WAT     H131253  -1.750   6.552   8.429  2.4690  1.7469 -0.9049
 7362WAT     H231254  -1.803   6.592   8.293 -1.1347 -1.1788 -0.5143
 7362WAT    EPW31255  -1.786   6.531   8.353 -0.0456  0.1264  0.5832
 7363WAT      O31256  -3.007   0.566   5.617 -0.4090  0.1989  1.1339
 7363WAT     H131257  -3.010   0.661   5.605  2.9579  0.3367  0.6236
 7363WAT     H231258  -3.030   0.530   5.532 -1.0286  0.5274  1.1518
 7363WAT    EPW31259  -3.011   0.574   5.604 -0.0467  0.2604  1.0691
 7364WAT      O31260   4.722   5.371  -0.030 -0.5781 -0.2697 -0.3007
 7364WAT     H131261   4.676   5.419   0.039 -1.7530 -0.8190 -0.6720
 7364WAT     H231262   4.781   5.311   0.018 -1.0340 -0.3084  0.2156
 7364WAT    EPW31263   4.724   5.369  -0.014 -0.7932 -0.3471 -0.2816
 7365WAT      O31264   1.152   5.779   1.982 -0.1666  0.7945 -0.3112
 7365WAT     H131265   1.061   5.750   1.980  0.6529 -2.2724  0.6291
 7365WAT     H231266   1.196   5.716   2.039  3.1308  0.1904 -3.1636
 7365WAT    EPW31267   1.146   5.767   1.989  0.3763  0.3104 -0.5634
 7366WAT      O31268   6.169   4.859   1.334  0.2720 -0.8773  0.0359
 7366WAT     H131269   6.107   4.827   1.399  0.1421 -0.2115  0.2405
 7366WAT     H231270   6.124   4.849   1.250 -0.5643  0.6263  0.2750
 7366WAT    EPW31271   6.155   4.853   1.331  0.1447 -0.5910  0.0944
 7367WAT      O31272   1.741   8.696   8.807  0.1849  0.7405 -0.5350
 7367WAT     H131273   1.707   8.715   8.720  0.1134 -0.7235 -0.8372
 7367WAT     H231274   1.769   8.605   8.804 -0.5544  0.3966  1.1973
 7367WAT    EPW31275   1.740   8.687   8.795  0.0780  0.5021 -0.3462
 7368WAT      O31276   4.151  10.302   4.047  0.3400 -0.8815  0.8856
 7368WAT     H131277   4.155  10.245   4.124 -0.6952 -1.8193  0.2722
 7368WAT     H231278   4.119  10.246   3.977 -0.6007  0.4314  0.2237
 7368WAT    EPW31279   4.147  10.287   4.048  0.0792 -0.8321  0.7172
 7369WAT      O31280   1.332   1.142   7.128  0.5177  0.6290  0.1902
 7369WAT     H131281   1.422   1.148   7.097  0.3807 -2.4139 -1.0843
 7369WAT     H231282   1.279   1.132   7.049 -0.4054 -1.9560  1.0179
 7369WAT    EPW31283   1.337   1.141   7.114  0.3779 -0.1133  0.1314
 7370WAT      O31284   3.407   2.684   4.812 -0.0332 -0.5351 -0.1797
 7370WAT     H131285   3.355   2.611   4.779 -0.4332  0.1008 -0.9768
 7370WAT     H231286   3.490   2.644   4.837 -0.7279 -1.4873  0.6867
 7370WAT    EPW31287   3.411   2.669   4.811 -0.1776 -0.5767 -0.1707
 7371WAT      O31288  -5.859   7.923   6.953  0.6364 -0.1033  0.0814
 7371WAT     H131289  -5.814   7.858   6.900  1.0395 -0.7517  1.1706
 7371WAT     H231290  -5.789   7.978   6.988  0.5231 -0.4968  0.9756
 7371WAT    EPW31291  -5.844   7.922   6.951  0.6747 -0.2406  0.3428
 7372WAT      O31292   0.543   3.581   5.351 -0.2210  0.0445  0.4405
 7372WAT     H131293   0.571   3.632   5.427  0.1110 -0.6712  0.8007
 7372WAT     H231294   0.508   3.500   5.388  3.2392 -1.9316 -0.2674
 7372WAT    EPW31295   0.542   3.577   5.366  0.2791 -0.3105  0.3943
 7373WAT      O31296   5.673   1.178   3.203  0.4855  0.0486  1.2496
 7373WAT     H131297   5.623   1.188   3.122  2.5814 -0.6983 -0.2297
 7373WAT     H231298   5.609   1.191   3.272 -1.5890 -0.1311 -0.5158
 7373WAT    EPW31299   5.658   1.181   3.201  0.4883 -0.0737  0.8216
 7374WAT      O31300  -1.611   3.182   8.017 -0.6167  0.2232  0.2332
 7374WAT     H131301  -1.658   3.126   8.079  0.6389 -0.5469  0.5058
 7374WAT     H231302  -1.520   3.181   8.046 -0.2349  0.9373 -0.8389
 7374WAT    EPW31303  -1.605   3.175   8.029 -0.4007  0.2159  0.1273
 7375WAT      O31304   6.958   4.820   1.764  0.2000 -0.7495  0.7940
 7375WAT     H131305   7.001   4.905   1.759 -0.5649 -0.3884 -0.1435
 7375WAT     H231306   6.948   4.793   1.672 -0.9972 -1.0961  1.0044
 7375WAT    EPW31307   6.962   4.828   1.751 -0.0587 -0.7474  0.6981
 7376WAT      O31308   1.396   4.762   8.166  0.5005  0.0939  0.4334
 7376WAT     H131309   1.329   4.707   8.207 -0.9786  1.0520 -0.6178
 7376WAT     H231310   1.373   4.763   8.073  2.4610 -0.1953 -0.1032
 7376WAT    EPW31311   1.384   4.755   8.159  0.5640  0.1819  0.2241
 7377WAT      O31312   0.778   2.309   2.800  0.3324 -0.4078  0.0385
 7377WAT     H131313   0.790   2.367   2.875  1.8381 -0.2985 -0.2611
 7377WAT     H231314   0.825   2.229   2.823 -0.4723 -0.9538 -0.1677
 7377WAT    EPW31315   0.786   2.306   2.813  0.4248 -0.4654 -0.0281
 7378WAT      O31316  -4.244   3.526   7.269 -0.2059 -0.3017 -0.2107
 7378WAT     H131317  -4.198   3.473   7.335  1.2394  0.8518 -0.2240
 7378WAT     H231318  -4.269   3.606   7.316 -0.3891 -0.0534 -0.7206
 7378WAT    EPW31319  -4.241   3.530   7.284 -0.0393 -0.1167 -0.2797
 7379WAT      O31320   3.197   6.443   6.039  0.9325 -0.3673  0.0308
 7379WAT     H131321   3.271   6.382   6.035  0.6634 -0.7755  0.8873
 7379WAT     H231322   3.234   6.522   6.078  0.7114 -0.9599  1.5394
 7379WAT    EPW31323   3.211   6.445   6.044  0.8677 -0.4992  0.3428
 7380WAT      O31324  -1.822   4.232   4.486 -0.1297  0.6403  0.1422
 7380WAT     H131325  -1.881   4.260   4.417  1.9879  1.1123 -1.5846
 7380WAT     H231326  -1.774   4.311   4.510  3.2399 -0.5026 -2.0960
 7380WAT    EPW31327  -1.823   4.246   4.480  0.5940  0.5517 -0.3805
 7381WAT      O31328   0.965   1.917   6.658 -0.0453 -0.7823 -0.1012
 7381WAT     H131329   0.984   1.959   6.742  0.6503 -0.5037 -0.3852
 7381WAT     H231330   1.052   1.901   6.620 -0.3572  0.0796 -1.2457
 7381WAT    EPW31331   0.979   1.921   6.664  0.0053 -0.6319 -0.2897
 7382WAT      O31332  -7.522  10.091   6.955  0.6780 -0.1137 -0.4012
 7382WAT     H131333  -7.437  10.130   6.934  0.2886  0.5692 -0.7695
 7382WAT     H231334  -7.562  10.075   6.869  0.3953 -0.3313 -0.2293
 7382WAT    EPW31335  -7.516  10.094   6.941  0.5894 -0.0520 -0.4272
 7383WAT      O31336   7.190   0.073   4.420 -0.5223 -0.4416 -0.6117
 7383WAT     H131337   7.197   0.167   4.400  0.3992  0.1307  2.0152
 7383WAT     H231338   7.097   0.053   4.406 -1.0719  1.2822  0.3312
 7383WAT    EPW31339   7.178   0.083   4.415 -0.4735 -0.1388 -0.1409
 7384WAT      O31340  -4.986   6.585   8.819  0.0237  0.1480 -0.2329
 7384WAT     H131341  -4.998   6.532   8.899 -3.3665  2.0655  0.7374
 7384WAT     H231342  -4.936   6.529   8.761 -0.5395 -2.8388  1.9017
 7384WAT    EPW31343  -4.981   6.571   8.822 -0.4978  0.0069  0.1764
 7385WAT      O31344   3.295   6.460   2.115  0.0929 -0.1865  0.4682
 7385WAT     H131345   3.377   6.481   2.158  0.2376  0.2626 -0.0179
 7385WAT     H231346   3.292   6.364   2.116  0.1521 -0.1860  1.3401
 7385WAT    EPW31347   3.305   6.450   2.120  0.1198 -0.1273  0.5190
 7386WAT      O31348   0.134   1.667   3.375  0.2751 -0.2738 -0.3954
 7386WAT     H131349   0.061   1.714   3.335  0.9623 -0.0080 -1.3633
 7386WAT     H231350   0.210   1.723   3.360  0.7506 -0.7266  0.2646
 7386WAT    EPW31351   0.134   1.680   3.368  0.4284 -0.2984 -0.4361
 7387WAT      O31352  -4.796   9.891   2.881  0.6270 -0.6049  0.0974
 7387WAT     H131353  -4.862   9.956   2.859 -0.9198 -0.8664  3.3615
 7387WAT     H231354  -4.725   9.907   2.820 -0.9278  2.1431 -1.1679
 7387WAT    EPW31355  -4.796   9.902   2.870  0.2179 -0.2766  0.3611
 7388WAT      O31356   2.156   2.941   6.007 -0.1564 -0.3046  0.0405
 7388WAT     H131357   2.173   2.938   5.912  0.6789 -1.6770  0.2078
 7388WAT     H231358   2.169   3.032   6.030  1.2572 -0.2325 -0.9031
 7388WAT    EPW31359   2.160   2.952   5.997  0.1403 -0.4760 -0.0618
 7389WAT      O31360  -2.630   1.663   4.304  1.1697 -0.1312 -0.6019
 7389WAT     H131361  -2.674   1.726   4.360 -0.1959 -0.5192 -1.2095
 7389WAT     H231362  -2.557   1.712   4.266  1.4898  0.4260  0.6696
 7389WAT    EPW31363  -2.626   1.678   4.306  1.0318 -0.1089 -0.5143
 7390WAT      O31364  -2.876   8.866   1.727 -0.1977 -0.2959 -0.1546
 7390WAT     H131365  -2.946   8.801   1.730 -0.0591 -0.4087  1.0122
 7390WAT     H231366  -2.898   8.929   1.795 -2.1780  2.9235 -3.3736
 7390WAT    EPW31367  -2.888   8.865   1.736 -0.4406  0.1140 -0.4252
 7391WAT      O31368   0.784   1.483   4.753  0.7853  0.1316  0.0613
 7391WAT     H131369   0.694   1.483   4.787  0.7409 -1.5257  0.0220
 7391WAT     H231370   0.776   1.459   4.661  1.2633 -0.1779  0.0923
 7391WAT    EPW31371   0.771   1.480   4.746  0.8425 -0.1278  0.0601
 7392WAT      O31372   5.427   5.791   5.335  0.7542  0.2298  0.1039
 7392WAT     H131373   5.355   5.758   5.388 -0.6812  0.6343 -1.4730
 7392WAT     H231374   5.487   5.717   5.326  1.2394  0.2631  2.5194
 7392WAT    EPW31375   5.426   5.777   5.341  0.6289  0.2875  0.2143
 7393WAT      O31376   4.677   6.926   5.541 -0.3993 -0.3834 -0.6833
 7393WAT     H131377   4.600   6.916   5.485 -1.0463 -0.0297  0.1261
 7393WAT     H231378   4.669   7.014   5.578  1.2122  0.2778 -1.7835
 7393WAT    EPW31379   4.666   6.936   5.539 -0.2720 -0.2496 -0.7215
 7394WAT      O31380  -4.091   7.128   4.592  0.0216 -0.6629  0.4565
 7394WAT     H131381  -4.093   7.204   4.650 -3.1025  0.5478 -0.9615
 7394WAT     H231382  -4.154   7.067   4.631 -0.8337 -0.5516 -0.6809
 7394WAT    EPW31383  -4.100   7.130   4.605 -0.5033 -0.4885  0.1194
 7395WAT      O31384   4.564   7.028   1.080 -0.0848  0.4576 -0.2215
 7395WAT     H131385   4.518   6.955   1.120  0.7305 -0.6744 -1.2850
 7395WAT     H231386   4.495   7.084   1.044 -0.7106  0.1975  0.5462
 7395WAT    EPW31387   4.549   7.026   1.081 -0.0598  0.2739 -0.2605
 7396WAT      O31388   3.759   9.604   2.566  0.3094 -0.6996 -0.5703
 7396WAT     H131389   3.833   9.608   2.505  0.9988 -0.1835  0.2742
 7396WAT     H231390   3.696   9.547   2.524  0.3369  0.4317 -2.2358
 7396WAT    EPW31391   3.760   9.597   2.553  0.4040 -0.4826 -0.6785
 7397WAT      O31392   2.235   6.142   0.798  0.3151  0.7580 -0.2507
 7397WAT     H131393   2.169   6.075   0.813  0.6683  0.3131 -0.6538
 7397WAT     H231394   2.313   6.094   0.770  1.0610  1.2054  0.9746
 7397WAT    EPW31395   2.237   6.127   0.796  0.4600  0.7582 -0.1422
 7398WAT      O31396   0.343   1.645   2.815 -0.0178  0.6389 -0.1570
 7398WAT     H131397   0.431   1.658   2.781 -1.0150  1.9288 -2.4539
 7398WAT     H231398   0.314   1.562   2.778  0.7001 -0.5873  1.8451
 7398WAT    EPW31399   0.351   1.636   2.806 -0.0547  0.6473 -0.1960
 7399WAT      O31400   3.105   2.768   8.720 -0.4949  0.0837 -0.2352
 7399WAT     H131401   3.033   2.725   8.674 -1.7594  0.6095  1.1845
 7399WAT     H231402   3.131   2.840   8.662  1.8953 -2.5707 -2.8339
 7399WAT    EPW31403   3.099   2.771   8.706 -0.3463 -0.1972 -0.3910
 7400WAT      O31404   1.738   3.309   3.606  0.0803  0.3139 -0.0843
 7400WAT     H131405   1.727   3.356   3.523  0.2447  2.5602  1.0910
 7400WAT     H231406   1.653   3.265   3.619  0.2769 -0.6367 -1.7183
 7400WAT    EPW31407   1.725   3.309   3.597  0.1279  0.4848 -0.1448
 7401WAT      O31408  -0.737   5.955   8.452 -0.2235  0.4781  0.0860
 7401WAT     H131409  -0.676   5.952   8.379  0.0847 -3.9771  0.2320
 7401WAT     H231410  -0.818   5.918   8.417 -0.6233 -0.0933  1.5275
 7401WAT    EPW31411  -0.740   5.949   8.438 -0.2356 -0.1848  0.2956
 7402WAT      O31412   1.778   9.481   5.527 -0.5996 -0.1576 -0.3274
 7402WAT     H131413   1.864   9.493   5.567 -0.7402  1.3214 -0.4076
 7402WAT     H231414   1.776   9.544   5.455 -1.2320 -1.1482 -1.2069
 7402WAT    EPW31415   1.789   9.491   5.523 -0.7016 -0.0930 -0.4539
 7403WAT      O31416  -0.143   5.142   7.123 -0.3240 -0.2718 -0.5110
 7403WAT     H131417  -0.179   5.082   7.057 -2.0419  0.0497  0.0716
 7403WAT     H231418  -0.184   5.226   7.103 -0.7914 -0.1435  0.8803
 7403WAT    EPW31419  -0.153   5.145   7.112 -0.6123 -0.2124 -0.2508
 7404WAT      O31420  -1.848   8.285   5.073 -0.3284  0.0085 -0.0533
 7404WAT     H131421  -1.844   8.272   4.978 -2.8291  1.0984 -0.3771
 7404WAT     H231422  -1.914   8.353   5.085 -0.5262 -0.5442  2.5196
 7404WAT    EPW31423  -1.856   8.292   5.062 -0.6843  0.0792  0.2434
 7405WAT      O31424   6.399   3.576   4.341 -0.1622  0.3841  0.0101
 7405WAT     H131425   6.391   3.509   4.273 -3.2423  0.0973  0.4729
 7405WAT     H231426   6.470   3.633   4.312 -1.3130  0.2663 -3.4465
 7405WAT    EPW31427   6.407   3.575   4.328 -0.7203  0.3309 -0.3848
 7406WAT      O31428   3.195   6.450   3.744 -0.3600  0.0752 -0.4911
 7406WAT     H131429   3.100   6.461   3.755 -0.2406 -0.8484  2.3863
 7406WAT     H231430   3.226   6.427   3.832  2.6133  0.7620 -1.2634
 7406WAT    EPW31431   3.186   6.448   3.757  0.0479  0.0441 -0.2135
 7407WAT      O31432  -1.596   7.107   0.957  0.7358  0.4293  0.1464
 7407WAT     H131433  -1.609   7.104   1.051  0.1713 -1.0234  0.0472
 7407WAT     H231434  -1.664   7.167   0.925  1.1571  1.2092  0.6744
 7407WAT    EPW31435  -1.607   7.115   0.965  0.7169  0.3405  0.2030
 7408WAT      O31436  -1.772   3.023   8.226 -0.1368  0.7720  0.0669
 7408WAT     H131437  -1.765   2.947   8.285 -0.2684 -1.8903 -3.0307
 7408WAT     H231438  -1.831   2.993   8.157  2.9590  2.1253 -3.5058
 7408WAT    EPW31439  -1.779   3.009   8.225  0.2542  0.5994 -0.8125
 7409WAT      O31440   1.881   8.248   3.520 -0.1445 -0.1657  0.5201
 7409WAT     H131441   1.844   8.267   3.434  0.6430 -0.9696 -0.0052
 7409WAT     H231442   1.867   8.154   3.532 -1.0048  0.0747  1.6549
 7409WAT    EPW31443   1.874   8.238   3.510 -0.1541 -0.2398  0.6006
 7410WAT      O31444   1.535   2.819   1.474  0.1392  0.3323 -0.6278
 7410WAT     H131445   1.562   2.866   1.553  0.9772 -2.1923  0.7000
 7410WAT     H231446   1.444   2.794   1.491 -0.0300  0.7383 -0.9441
 7410WAT    EPW31447   1.527   2.822   1.487  0.2274  0.0529 -0.4944
 7411WAT      O31448   5.451   2.822   5.124  0.2215 -0.5509  0.4890
 7411WAT     H131449   5.360   2.846   5.137 -0.1013  0.9789 -3.1554
 7411WAT     H231450   5.448   2.734   5.087  0.4385 -1.3467  2.2997
 7411WAT    EPW31451   5.439   2.814   5.121  0.2077 -0.4541  0.2470
 7412WAT      O31452  -0.556   2.939   3.506  0.2422  0.0743  0.1213
 7412WAT     H131453  -0.477   2.993   3.509 -0.2203  0.7440  0.6656
 7412WAT     H231454  -0.592   2.944   3.595  0.9040 -2.2525  0.5963
 7412WAT    EPW31455  -0.550   2.947   3.519  0.2685 -0.1442  0.2557
 7413WAT      O31456   2.691   9.656   1.903 -0.4947 -0.4730  0.0923
 7413WAT     H131457   2.769   9.694   1.943 -0.4349 -0.0847 -0.3782
 7413WAT     H231458   2.724   9.583   1.851 -0.4058 -0.1482 -0.3157
 7413WAT    EPW31459   2.705   9.651   1.901 -0.4749 -0.3786 -0.0236
 7414WAT      O31460   5.261   5.200   0.692 -0.0539 -0.0055  0.1795
 7414WAT     H131461   5.203   5.276   0.688  2.0554  1.6825 -0.8217
 7414WAT     H231462   5.226   5.139   0.628 -0.1966  1.4055 -1.1449
 7414WAT    EPW31463   5.249   5.202   0.683  0.2055  0.4032 -0.1273
 7415WAT      O31464   2.732   4.270   2.308 -0.0967  0.1199  0.0359
 7415WAT     H131465   2.690   4.198   2.262 -0.9478 -0.1573  1.2146
 7415WAT     H231466   2.826   4.253   2.299 -0.2565 -2.4826  2.3074
 7415WAT    EPW31467   2.739   4.259   2.300 -0.2301 -0.2599  0.4908
 7416WAT      O31468  -5.633   6.457   5.661 -0.2924  0.1587 -0.4391
 7416WAT     H131469  -5.636   6.506   5.743 -0.8789  0.0319 -0.3822
 7416WAT     H231470  -5.693   6.504   5.603 -0.8822 -0.5003 -0.3724
 7416WAT    EPW31471  -5.642   6.470   5.665 -0.4478  0.0551 -0.4230
 7417WAT      O31472  -6.118   6.596   7.349  0.4193  0.7549  0.2355
 7417WAT     H131473  -6.156   6.619   7.264  0.1905  0.1303  0.1632
 7417WAT     H231474  -6.047   6.659   7.361  0.7325  0.5760 -0.6169
 7417WAT    EPW31475  -6.114   6.607   7.340  0.4303  0.6487  0.1137
 7418WAT      O31476  -7.645   7.890   8.723  0.0450  0.2772  0.9785
 7418WAT     H131477  -7.565   7.932   8.755  2.1522 -1.1361 -1.9913
 7418WAT     H231478  -7.621   7.798   8.715 -2.6052 -0.5570  1.9049
 7418WAT    EPW31479  -7.631   7.884   8.726 -0.0267 -0.0191  0.7086
 7419WAT      O31480  -0.854   1.149   7.914  0.2306 -0.1221 -0.5385
 7419WAT     H131481  -0.765   1.174   7.938  0.1124 -1.5467  1.5480
 7419WAT     H231482  -0.909   1.189   7.981 -0.8001  1.0575 -2.0104
 7419WAT    EPW31483  -0.850   1.158   7.926  0.0791 -0.1544 -0.4575
 7420WAT      O31484   6.909   0.010   1.433 -0.8304  0.3304 -0.2668
 7420WAT     H131485   6.874   0.066   1.502 -1.7360 -0.5915  0.0439
 7420WAT     H231486   6.837  -0.050   1.412  0.4297 -1.3623  0.1129
 7420WAT    EPW31487   6.895   0.010   1.439 -0.7837 -0.0144 -0.1758
 7421WAT      O31488   6.395   2.539   1.796 -0.0634  0.1035 -0.0267
 7421WAT     H131489   6.430   2.464   1.748  2.5645  0.0897  1.7250
 7421WAT     H231490   6.303   2.544   1.768  0.5647 -1.5791 -2.8345
 7421WAT    EPW31491   6.387   2.530   1.786  0.3660 -0.1203 -0.1659
 7422WAT      O31492   0.492   4.820   2.417 -0.0800  0.2593 -0.3690
 7422WAT     H131493   0.519   4.907   2.386 -1.4698  0.4662 -1.0685
 7422WAT     H231494   0.546   4.759   2.367  0.1584  0.6905 -0.6467
 7422WAT    EPW31495   0.503   4.824   2.406 -0.2319  0.3436 -0.4979
 7423WAT      O31496   8.609   4.593   0.361  0.1832 -0.4376  0.1306
 7423WAT     H131497   8.675   4.633   0.417  0.5481 -0.8809  0.0257
 7423WAT     H231498   8.551   4.547   0.422  0.8999 -1.3874  0.1178
 7423WAT    EPW31499   8.610   4.592   0.376  0.3262 -0.6216  0.1151
 7424WAT      O31500  -2.228   2.355   8.532 -0.1960  0.2063 -0.3324
 7424WAT     H131501  -2.225   2.295   8.457  2.1993  0.1836 -0.2930
 7424WAT     H231502  -2.203   2.440   8.495  2.8504 -0.1412  0.6136
 7424WAT    EPW31503  -2.224   2.358   8.517  0.5218  0.1576 -0.2027
 7425WAT      O31504  -0.509   5.919   3.311  0.4232  0.4051 -0.4029
 7425WAT     H131505  -0.423   5.952   3.286  0.0758  0.3780 -1.7275
 7425WAT     H231506  -0.559   5.919   3.229 -0.5525 -0.4487  0.1721
 7425WAT    EPW31507  -0.505   5.924   3.297  0.2487  0.2890 -0.5018
 7426WAT      O31508   5.003   5.041   5.774  0.5696 -0.2357  0.2610
 7426WAT     H131509   4.919   5.001   5.795  0.7503 -0.8011 -0.0603
 7426WAT     H231510   5.052   5.039   5.856  1.4920 -2.9713 -0.2437
 7426WAT    EPW31511   4.999   5.035   5.788  0.7150 -0.6709  0.1519
 7427WAT      O31512  -3.229   5.071   4.809  0.3668 -0.2714  0.0085
 7427WAT     H131513  -3.265   5.008   4.870  0.8958  0.9243  1.6274
 7427WAT     H231514  -3.171   5.126   4.862 -1.0251  2.3689 -1.0039
 7427WAT    EPW31515  -3.226   5.070   4.824  0.2530  0.2346  0.0887
 7428WAT      O31516  -3.779   9.036   1.996  0.2104  0.5930 -0.3574
 7428WAT     H131517  -3.840   9.073   2.060  0.3277  1.2196 -0.5935
 7428WAT     H231518  -3.767   8.945   2.023  0.5331  0.9349  0.7260
 7428WAT    EPW31519  -3.785   9.029   2.008  0.2683  0.7210 -0.2457
 7429WAT      O31520  -4.606   5.888   8.191  0.2003  0.3723 -0.0421
 7429WAT     H131521  -4.621   5.834   8.113 -1.9235  0.0601  0.5492
 7429WAT     H231522  -4.667   5.961   8.182  0.4731  0.7418  0.9716
 7429WAT    EPW31523  -4.616   5.890   8.179 -0.0439  0.3798  0.1693
 7430WAT      O31524   1.816   3.687   3.691  0.1728  0.4471 -0.5924
 7430WAT     H131525   1.827   3.764   3.636 -2.0232 -0.4433 -2.4181
 7430WAT     H231526   1.745   3.637   3.650 -0.2161 -1.3011  1.9298
 7430WAT    EPW31527   1.808   3.691   3.678 -0.1681  0.0991 -0.5006
 7431WAT      O31528  -2.163   6.930   4.804 -0.2917 -0.3220 -0.0618
 7431WAT     H131529  -2.215   6.923   4.723 -0.4298 -0.8978  0.0722
 7431WAT     H231530  -2.148   6.839   4.830 -0.6880 -0.1398  0.8386
 7431WAT    EPW31531  -2.168   6.917   4.797 -0.3622 -0.3738  0.0746
 7432WAT      O31532   3.696   8.934   4.932 -0.3698  0.0684 -0.1547
 7432WAT     H131533   3.707   8.844   4.963  0.9802 -0.4747 -1.9995
 7432WAT     H231534   3.763   8.984   4.979 -1.0454  0.1024  0.7883
 7432WAT    EPW31535   3.706   8.929   4.943 -0.2809  0.0010 -0.2737
 7433WAT      O31536  -0.835   2.403   7.157  0.6823 -0.0270  0.4521
 7433WAT     H131537  -0.908   2.430   7.213  2.0115  1.4785  1.5343
 7433WAT     H231538  -0.850   2.447   7.074  1.2307  1.7276  1.2376
 7433WAT    EPW31539  -0.847   2.412   7.154  0.9300  0.4030  0.6983
 7434WAT      O31540   6.836   3.253   1.511 -0.5995 -0.2582  0.0689
 7434WAT     H131541   6.928   3.265   1.532 -0.2756 -0.4592 -1.1324
 7434WAT     H231542   6.796   3.223   1.592  0.5546 -0.9944  0.3924
 7434WAT    EPW31543   6.843   3.251   1.524 -0.4046 -0.3818 -0.0469
 7435WAT      O31544  -0.082   8.189   0.196  1.1755 -0.2921  0.2233
 7435WAT     H131545  -0.135   8.198   0.117 -1.4660  1.2011  2.0252
 7435WAT     H231546  -0.063   8.279   0.223 -1.6049 -0.4854  3.4435
 7435WAT    EPW31547  -0.086   8.202   0.189  0.4604 -0.1206  0.8857
 7436WAT      O31548   6.718   5.046   3.707  0.6635  0.0607 -0.7195
 7436WAT     H131549   6.627   5.026   3.729 -0.3622  1.2627 -3.3155
 7436WAT     H231550   6.765   4.964   3.721 -0.9029 -0.7220  0.2807
 7436WAT    EPW31551   6.712   5.033   3.712  0.3216  0.1161 -0.9301
 7437WAT      O31552  -1.260   7.895   1.094 -0.5987 -0.5737 -0.6589
 7437WAT     H131553  -1.292   7.960   1.158 -0.9022  1.4509 -2.7258
 7437WAT     H231554  -1.166   7.893   1.108 -0.6124  0.1276 -0.3864
 7437WAT    EPW31555  -1.252   7.904   1.105 -0.6405 -0.2141 -0.8956
 7438WAT      O31556   2.533   1.796   0.623  0.8296  0.1495 -0.2356
 7438WAT     H131557   2.584   1.837   0.553  0.7023  2.2178  0.8140
 7438WAT     H231558   2.583   1.814   0.703 -0.5400  0.5284  0.5677
 7438WAT    EPW31559   2.546   1.804   0.624  0.6322  0.4722  0.0088
 7439WAT      O31560   2.212   9.973   7.438 -0.2736  0.4426 -0.1159
 7439WAT     H131561   2.220   9.941   7.528  0.3258 -0.2331 -0.3984
 7439WAT     H231562   2.223  10.067   7.444  3.1323  0.1274  0.1601
 7439WAT    EPW31563   2.214   9.981   7.450  0.2548  0.3123 -0.1166
 7440WAT      O31564  -0.504   3.765   5.343 -1.1539  0.2127 -0.3976
 7440WAT     H131565  -0.540   3.775   5.255 -0.4030  0.6329 -0.6686
 7440WAT     H231566  -0.460   3.680   5.341 -1.0671  0.2579 -0.4648
 7440WAT    EPW31567  -0.503   3.755   5.331 -1.0434  0.2741 -0.4423
 7441WAT      O31568   0.771   1.582   3.094 -0.4714  0.5579 -1.3784
 7441WAT     H131569   0.844   1.584   3.155 -1.9646  0.0756  0.5342
 7441WAT     H231570   0.728   1.666   3.105 -1.6541 -0.1229 -0.5335
 7441WAT    EPW31571   0.775   1.593   3.104 -0.8244  0.4045 -1.0147
 7442WAT      O31572   0.414   1.349   0.287  0.1728  1.1523  0.0213
 7442WAT     H131573   0.458   1.297   0.220 -0.2287 -0.7647  1.1548
 7442WAT     H231574   0.467   1.336   0.366 -0.1714  2.1678  0.4379
 7442WAT    EPW31575   0.427   1.341   0.289  0.0744  1.0334  0.2257
 7443WAT      O31576  -1.625   3.671   8.240 -0.0139  0.0977 -0.6493
 7443WAT     H131577  -1.602   3.634   8.325 -1.5491 -0.5634 -0.4975
 7443WAT     H231578  -1.693   3.613   8.206 -0.3744  1.1214 -1.7335
 7443WAT    EPW31579  -1.631   3.659   8.246 -0.2639  0.1456 -0.7720
 7444WAT      O31580  -2.862   5.004   4.614  0.1714  0.8159 -0.3167
 7444WAT     H131581  -2.932   5.055   4.573  1.4817  1.8833 -1.3328
 7444WAT     H231582  -2.870   5.022   4.707 -1.2537  0.4382 -0.3491
 7444WAT    EPW31583  -2.872   5.013   4.621  0.1563  0.9067 -0.4549
 7445WAT      O31584   2.716   9.913   2.857 -0.2912 -0.0774  0.0290
 7445WAT     H131585   2.634   9.867   2.873  0.1783 -1.2772 -0.8743
 7445WAT     H231586   2.696   9.974   2.786 -0.6130  0.3032  0.4342
 7445WAT    EPW31587   2.703   9.915   2.850 -0.2718 -0.1855 -0.0367
 7446WAT      O31588  -0.583   0.175   3.308  0.2161 -0.6574 -0.1377
 7446WAT     H131589  -0.530   0.197   3.384 -1.1833  3.0650 -0.0516
 7446WAT     H231590  -0.519   0.149   3.241  1.9255  1.0205  0.7642
 7446WAT    EPW31591  -0.568   0.174   3.309  0.2570  0.0549 -0.0074
 7447WAT      O31592   3.667   4.805   5.479 -1.1577 -0.5362 -0.1700
 7447WAT     H131593   3.664   4.843   5.567 -1.9195 -0.5560 -0.1859
 7447WAT     H231594   3.706   4.719   5.492 -0.3340 -0.1535  0.0007
 7447WAT    EPW31595   3.672   4.799   5.492 -1.1497 -0.4883 -0.1497
 7448WAT      O31596  -1.812   3.044   7.565  0.9791  0.3459 -0.2731
 7448WAT     H131597  -1.756   3.061   7.641 -1.0116  0.4047  1.2590
 7448WAT     H231598  -1.872   2.975   7.595 -2.5992  3.1693 -0.2039
 7448WAT    EPW31599  -1.813   3.037   7.579  0.2446  0.7261 -0.0620
 7449WAT      O31600  -2.647   9.347   4.686 -0.5362 -0.1432  0.3475
 7449WAT     H131601  -2.639   9.442   4.679  0.2825 -0.3119 -1.7587
 7449WAT     H231602  -2.726   9.333   4.738 -1.9771  1.7083 -1.2144
 7449WAT    EPW31603  -2.656   9.358   4.692 -0.6181  0.0787 -0.1366
 7450WAT      O31604   3.908   0.622   2.216 -0.2399 -0.2233  0.2102
 7450WAT     H131605   3.899   0.557   2.146  1.0850  1.1369 -1.3316
 7450WAT     H231606   3.998   0.613   2.246  1.3123  3.2138 -2.6669
 7450WAT    EPW31607   3.919   0.613   2.211  0.1396  0.4094 -0.3726
 7451WAT      O31608   9.063   4.073   0.400  0.5825  0.3443  1.1217
 7451WAT     H131609   9.016   3.995   0.369  0.7247  0.5123  0.4836
 7451WAT     H231610   9.013   4.147   0.367  1.2523  0.5246  0.4963
 7451WAT    EPW31611   9.050   4.072   0.392  0.6895  0.3903  0.9550
 7452WAT      O31612   4.528   0.959   7.820  0.7665 -0.4995  0.0399
 7452WAT     H131613   4.441   0.923   7.802  1.0675 -0.2447 -2.1153
 7452WAT     H231614   4.510   1.044   7.862  0.0547 -1.8156  2.6420
 7452WAT    EPW31615   4.514   0.966   7.823  0.7124 -0.6395  0.0989
 7453WAT      O31616  -1.335   1.173   7.173  0.0966  0.3744  0.2900
 7453WAT     H131617  -1.300   1.259   7.152  1.0605  0.7005  2.9350
 7453WAT     H231618  -1.260   1.114   7.168  0.1071  0.2626  1.4799
 7453WAT    EPW31619  -1.321   1.176   7.169  0.2251  0.4027  0.7958
 7454WAT      O31620  -7.440  10.131   7.316 -0.3184 -0.3460  0.5163
 7454WAT     H131621  -7.355  10.110   7.276  0.2811  0.5442  1.2815
 7454WAT     H231622  -7.489  10.174   7.246  0.5656  0.8215  0.5882
 7454WAT    EPW31623  -7.435  10.134   7.302 -0.1230 -0.0749  0.6268
 7455WAT      O31624   2.198   3.411   2.017  0.2953 -0.6492  0.4919
 7455WAT     H131625   2.114   3.402   2.063 -1.7748 -1.2352 -3.0271
 7455WAT     H231626   2.215   3.325   1.980  0.6155  0.2627 -1.6390
 7455WAT    EPW31627   2.189   3.399   2.018  0.0645 -0.6061 -0.2532
 7456WAT      O31628   5.368   1.714   2.971 -0.0542  0.5855  0.3731
 7456WAT     H131629   5.417   1.721   3.053 -0.4517  0.1961  0.6504
 7456WAT     H231630   5.290   1.768   2.985  0.6169  1.7507 -0.3173
 7456WAT    EPW31631   5.364   1.722   2.984 -0.0179  0.6878  0.3186
 7457WAT      O31632   5.905   8.078   0.895  0.6525 -0.5242  0.3326
 7457WAT     H131633   5.814   8.049   0.888  0.1806  0.2730  2.4557
 7457WAT     H231634   5.919   8.090   0.989  2.4330  0.9917 -0.0735
 7457WAT    EPW31635   5.895   8.076   0.906  0.8252 -0.2189  0.5591
 7458WAT      O31636   2.912   5.464   2.688 -0.4374  0.0366 -0.4816
 7458WAT     H131637   2.848   5.488   2.621  0.0073  1.7054 -0.3544
 7458WAT     H231638   2.867   5.478   2.771  0.1589  1.6212 -0.3790
 7458WAT    EPW31639   2.898   5.469   2.690 -0.3000  0.4656 -0.4514
 7459WAT      O31640   6.789   4.931   0.443  0.2695  0.2006 -0.1713
 7459WAT     H131641   6.763   4.865   0.378 -2.8601  2.1839 -1.1859
 7459WAT     H231642   6.749   4.901   0.525 -0.5538  0.4279 -0.4753
 7459WAT    EPW31643   6.780   4.919   0.445 -0.2518  0.4921 -0.3452
 7460WAT      O31644  -1.412   1.960   7.932  0.0562  0.0424  0.4554
 7460WAT     H131645  -1.360   2.039   7.918  0.7661 -0.6025 -0.7798
 7460WAT     H231646  -1.489   1.991   7.980  0.2503  1.5072 -0.0992
 7460WAT    EPW31647  -1.415   1.975   7.936  0.1754  0.1505  0.2196
 7461WAT      O31648   0.028   1.615   2.715 -0.0336  0.1511 -0.0926
 7461WAT     H131649   0.081   1.537   2.732  2.1459  0.7603 -3.1869
 7461WAT     H231650  -0.057   1.582   2.687 -0.0428 -0.9857  1.1958
 7461WAT    EPW31651   0.024   1.601   2.714  0.2526  0.0815 -0.3307
 7462WAT      O31652   1.375   7.102   3.931  0.5114 -0.3060  0.1565
 7462WAT     H131653   1.285   7.107   3.899 -0.1354  0.0237  1.9025
 7462WAT     H231654   1.395   7.191   3.961  0.8449 -0.7205  1.2105
 7462WAT    EPW31655   1.366   7.115   3.931  0.4701 -0.3171  0.5257
 7463WAT      O31656  -4.926   1.187   8.076  0.4236 -0.3732 -0.5936
 7463WAT     H131657  -4.979   1.267   8.074 -0.8607 -1.1767  0.1041
 7463WAT     H231658  -4.917   1.162   7.985  0.6501  0.4419 -0.8041
 7463WAT    EPW31659  -4.932   1.194   8.064  0.2842 -0.3717 -0.5293
 7464WAT      O31660   2.912   6.380   6.809  0.5264 -0.2364 -0.1209
 7464WAT     H131661   2.954   6.294   6.812  2.2403  0.3291 -3.2875
 7464WAT     H231662   2.980   6.441   6.838 -0.2677  0.1989  0.8888
 7464WAT    EPW31663   2.926   6.377   6.813  0.6477 -0.1044 -0.4055
 7465WAT      O31664   7.482   0.442   0.497  0.5104  0.1281  0.0831
 7465WAT     H131665   7.569   0.442   0.459  0.9467  1.1171  1.0272
 7465WAT     H231666   7.486   0.377   0.567 -0.6093 -2.5005 -2.1317
 7465WAT    EPW31667   7.494   0.434   0.501  0.4203 -0.0882 -0.0845
 7466WAT      O31668   4.240   4.208   5.135 -0.1937 -0.1687 -0.1360
 7466WAT     H131669   4.332   4.231   5.124  0.0062 -1.4344 -1.3425
 7466WAT     H231670   4.202   4.216   5.048 -1.4186  1.0294  0.4737
 7466WAT    EPW31671   4.247   4.212   5.122 -0.3288 -0.1776 -0.2146
 7467WAT      O31672   1.733   6.087   6.683 -0.1158 -0.6635 -1.1076
 7467WAT     H131673   1.728   6.153   6.614 -0.4071  0.7520  0.2275
 7467WAT     H231674   1.700   6.007   6.642  1.6962 -0.4251 -3.2251
 7467WAT    EPW31675   1.728   6.085   6.669  0.0848 -0.4454 -1.2105
 7468WAT      O31676   3.347   1.617   0.486 -0.5864 -0.1609  0.1233
 7468WAT     H131677   3.431   1.572   0.480 -0.6933 -0.1602 -2.5102
 7468WAT     H231678   3.288   1.563   0.434 -2.0948  0.2136  1.3694
 7468WAT    EPW31679   3.350   1.604   0.479 -0.7995 -0.1114 -0.0597
 7469WAT      O31680  -0.157   5.601   4.491 -0.3264  0.3312  0.3369
 7469WAT     H131681  -0.111   5.530   4.535 -0.6570  1.2543  2.2655
 7469WAT     H231682  -0.219   5.558   4.432  0.6093 -0.9333  0.2442
 7469WAT    EPW31683  -0.159   5.586   4.489 -0.2466  0.2861  0.5791
 7470WAT      O31684   5.116   7.183   1.206 -0.0990  0.1541  0.5202
 7470WAT     H131685   5.047   7.189   1.140 -1.1183  0.1820  1.5528
 7470WAT     H231686   5.071   7.200   1.289  1.3311  1.1753  1.1293
 7470WAT    EPW31687   5.101   7.186   1.208 -0.0448  0.2923  0.7368
 7471WAT      O31688  -0.929   9.349   5.967 -0.3302  0.2409  0.6466
 7471WAT     H131689  -0.885   9.290   5.907 -0.9395 -0.2464  0.6649
 7471WAT     H231690  -1.021   9.321   5.965 -0.8760  1.9423 -0.2534
 7471WAT    EPW31691  -0.936   9.337   5.959 -0.4826  0.4015  0.5305
 7472WAT      O31692   3.019   0.685   8.918  0.2322  0.3626  0.1529
 7472WAT     H131693   3.021   0.752   8.987 -1.2527 -0.1858  0.7605
 7472WAT     H231694   3.011   0.602   8.965 -1.5473  0.0328 -0.6491
 7472WAT    EPW31695   3.018   0.683   8.933 -0.1984  0.2467  0.1273
 7473WAT      O31696  -4.740   7.012   3.895  0.3852  0.8454  0.0189
 7473WAT     H131697  -4.832   6.998   3.917  0.6062 -1.4964 -0.3124
 7473WAT     H231698  -4.692   6.959   3.958  1.5041  1.7790 -0.0259
 7473WAT    EPW31699  -4.746   7.003   3.906  0.5620  0.6597 -0.0306
 7474WAT      O31700  -5.071   0.711   8.246 -0.5324  0.2415 -0.7684
 7474WAT     H131701  -5.055   0.727   8.339  0.3279  3.4605 -1.3312
 7474WAT     H231702  -4.991   0.668   8.215  0.3319  1.5440 -0.4531
 7474WAT    EPW31703  -5.058   0.708   8.254 -0.3049  0.8379 -0.8011
 7475WAT      O31704  -4.113   0.192   6.842  0.1555 -0.2310 -0.9342
 7475WAT     H131705  -4.071   0.207   6.927 -2.3534  1.7472  0.0663
 7475WAT     H231706  -4.065   0.248   6.781 -1.0136  2.1795  0.2287
 7475WAT    EPW31707  -4.101   0.201   6.845 -0.3295  0.3478 -0.6490
 7476WAT      O31708   2.514   2.104   2.365  0.0493  0.2846 -0.2414
 7476WAT     H131709   2.473   2.064   2.441  1.3963 -0.8908 -0.0869
 7476WAT     H231710   2.561   2.180   2.400  0.3179 -0.0079  0.0314
 7476WAT    EPW31711   2.515   2.109   2.379  0.2624  0.0910 -0.1851
 7477WAT      O31712  -2.952   9.060   1.947 -0.2941 -0.0295 -0.0122
 7477WAT     H131713  -3.011   9.078   1.874  0.0094 -0.9074 -0.4850
 7477WAT     H231714  -3.006   9.009   2.008 -0.5233  0.6345  0.3500
 7477WAT    EPW31715  -2.967   9.056   1.946 -0.2843 -0.0577 -0.0268
 7478WAT      O31716  -6.337   6.373   8.863 -0.2274 -0.6062  0.0901
 7478WAT     H131717  -6.361   6.369   8.771  0.2209  1.0846 -0.1360
 7478WAT     H231718  -6.249   6.337   8.867  0.2673  0.5301 -0.3705
 7478WAT    EPW31719  -6.329   6.368   8.852 -0.1028 -0.2334 -0.0005
 7479WAT      O31720  -2.041  10.115   6.777 -0.2656  0.2740  0.4143
 7479WAT     H131721  -2.117  10.129   6.833 -1.0390 -1.7494 -0.0630
 7479WAT     H231722  -2.006  10.030   6.804 -0.0004 -0.2305 -1.4113
 7479WAT    EPW31723  -2.046  10.106   6.788 -0.3326 -0.0591  0.1106
 7480WAT      O31724   2.793   3.429   3.714  0.1475 -0.3432 -0.0561
 7480WAT     H131725   2.798   3.338   3.687 -2.8163 -1.1057  1.5708
 7480WAT     H231726   2.859   3.438   3.783  0.4546 -1.2374 -0.2254
 7480WAT    EPW31727   2.802   3.418   3.719 -0.2029 -0.5617  0.1361
 7481WAT      O31728  -0.408   6.245   3.841  0.1283  0.0833  0.7871
 7481WAT     H131729  -0.425   6.165   3.891  3.0688 -0.2698  1.4059
 7481WAT     H231730  -0.407   6.314   3.907  0.6241  0.1499  0.7114
 7481WAT    EPW31731  -0.410   6.243   3.856  0.5815  0.0455  0.8588
 7482WAT      O31732  -4.609  10.115   7.368 -0.3228  0.5437  0.0272
 7482WAT     H131733  -4.551  10.054   7.414 -0.3671  0.4610 -0.0271
 7482WAT     H231734  -4.566  10.132   7.285 -0.0534  0.9925  0.2532
 7482WAT    EPW31735  -4.596  10.109   7.363 -0.2930  0.5922  0.0501
 7483WAT      O31736  -0.813   0.473   5.738 -0.4008  0.2710  0.1214
 7483WAT     H131737  -0.908   0.482   5.741 -0.1891  3.8121  1.1127
 7483WAT     H231738  -0.791   0.481   5.645 -1.0637 -2.5867 -0.3842
 7483WAT    EPW31739  -0.822   0.475   5.726 -0.4603  0.3611  0.1857
 7484WAT      O31740  -5.676   6.159   7.692 -0.4096  0.6717  0.4500
 7484WAT     H131741  -5.604   6.160   7.630 -0.4806 -1.4468  0.2524
 7484WAT     H231742  -5.754   6.175   7.638 -0.4461 -0.9034 -0.0033
 7484WAT    EPW31743  -5.677   6.161   7.677 -0.4237  0.1845  0.3641
 7485WAT      O31744   8.725   2.791   1.092  0.1402 -0.4475  0.5471
 7485WAT     H131745   8.744   2.700   1.072  1.1478 -0.2734  0.6172
 7485WAT     H231746   8.631   2.794   1.107  0.0497 -1.4096  0.2217
 7485WAT    EPW31747   8.715   2.780   1.091  0.2613 -0.5515  0.5134
 7486WAT      O31748   6.224   0.474   2.157 -0.4825  0.6117  0.3003
 7486WAT     H131749   6.318   0.456   2.146 -0.7410 -0.0382 -1.0283
 7486WAT     H231750   6.183   0.429   2.084 -1.6605  2.5490 -0.2995
 7486WAT    EPW31751   6.231   0.466   2.146 -0.6719  0.7815  0.0459
 7487WAT      O31752  -0.130   9.227   0.742  0.0018  0.6511  0.3162
 7487WAT     H131753  -0.075   9.292   0.701  2.7544 -1.5087  0.3099
 7487WAT     H231754  -0.153   9.265   0.827 -1.5067  2.9986 -1.0175
 7487WAT    EPW31755  -0.126   9.240   0.748  0.1659  0.6762  0.1394
 7488WAT      O31756   0.806   9.396   8.746 -0.2815 -0.0987 -1.0455
 7488WAT     H131757   0.890   9.426   8.781 -0.2302 -1.5780  0.1859
 7488WAT     H231758   0.815   9.406   8.651  2.3252 -2.6202 -1.2030
 7488WAT    EPW31759   0.818   9.401   8.738  0.0690 -0.6266 -0.9041
 7489WAT      O31760   3.488   5.533   7.371  0.0504 -0.1917 -0.4868
 7489WAT     H131761   3.455   5.443   7.374  0.5470 -0.3600  0.1366
 7489WAT     H231762   3.579   5.524   7.340 -0.3126  0.2250 -1.7427
 7489WAT    EPW31763   3.496   5.520   7.367  0.0679 -0.1588 -0.5703
 7490WAT      O31764  -5.267  10.115   8.268  0.3625  0.0590  0.3422
 7490WAT     H131765  -5.253  10.126   8.174 -0.7291  0.8600  0.2428
 7490WAT     H231766  -5.198  10.166   8.309  0.5662  0.0859 -0.0347
 7490WAT    EPW31767  -5.256  10.123   8.261  0.2453  0.1678  0.2794
 7491WAT      O31768  -5.177   8.953   4.489 -0.3493  0.3213  0.5190
 7491WAT     H131769  -5.129   9.035   4.485 -1.0557  0.6860 -1.1949
 7491WAT     H231770  -5.109   8.885   4.492  0.3327  0.8152 -1.9460
 7491WAT    EPW31771  -5.162   8.955   4.489 -0.3526  0.4344 -0.0322
 7492WAT      O31772   4.321   6.401   1.456 -0.7001 -0.5428 -0.5128
 7492WAT     H131773   4.413   6.380   1.470 -0.4278  1.9900  2.7052
 7492WAT     H231774   4.274   6.324   1.488  0.3430 -0.0990  2.3867
 7492WAT    EPW31775   4.327   6.388   1.462 -0.5269 -0.1504  0.2941
 7493WAT      O31776   2.872   0.023   3.371 -0.2236 -0.3531 -0.2181
 7493WAT     H131777   2.884  -0.054   3.316  1.7429  0.3210 -0.8481
 7493WAT     H231778   2.950   0.076   3.354  2.0007 -1.2230  5.0677
 7493WAT    EPW31779   2.884   0.020   3.362  0.3293 -0.3789  0.3960
 7494WAT      O31780  -1.784   0.914   2.963  0.1031 -0.7535  0.0261
 7494WAT     H131781  -1.789   0.914   2.867 -0.3837 -4.1859 -0.0543
 7494WAT     H231782  -1.850   0.978   2.990 -0.8985 -0.8817 -1.9147
 7494WAT    EPW31783  -1.793   0.922   2.954 -0.0933 -1.2231 -0.2404
 7495WAT      O31784   2.793   3.060   5.233 -0.3030 -0.4003 -0.2886
 7495WAT     H131785   2.871   3.027   5.277 -0.7425 -0.2269  0.6650
 7495WAT     H231786   2.826   3.110   5.159  0.4422 -1.3025 -0.5855
 7495WAT    EPW31787   2.807   3.062   5.229 -0.2627 -0.4965 -0.2019
 7496WAT      O31788   1.695   6.829   7.182 -0.3113  0.4458 -0.0097
 7496WAT     H131789   1.780   6.789   7.164  1.2767  2.6797  1.9445
 7496WAT     H231790   1.655   6.773   7.248 -0.0975 -0.2832 -0.4917
 7496WAT    EPW31791   1.701   6.816   7.188 -0.0737  0.6442  0.1843
 7497WAT      O31792  -0.464   6.659   3.800 -0.0674 -0.4759  0.6510
 7497WAT     H131793  -0.404   6.727   3.770 -2.2136  2.3394  2.2189
 7497WAT     H231794  -0.539   6.666   3.742 -0.0453 -2.1211  0.3646
 7497WAT    EPW31795  -0.466   6.669   3.789 -0.3476 -0.3216  0.8200
 7498WAT      O31796   4.692   3.618   0.685 -0.2534  0.5555  0.0550
 7498WAT     H131797   4.650   3.657   0.608  2.1527  2.0278 -0.6210
 7498WAT     H231798   4.785   3.632   0.671  0.6365 -3.2482  1.0786
 7498WAT    EPW31799   4.699   3.625   0.673  0.1814  0.2480  0.1009
 7499WAT      O31800   4.919   9.466   1.619  0.3687  0.2347  0.2115
 7499WAT     H131801   4.867   9.386   1.627 -0.1561  0.5474  0.0324
 7499WAT     H231802   4.992   9.442   1.562 -0.6955  0.3068 -1.2366
 7499WAT    EPW31803   4.922   9.453   1.612  0.1590  0.2856 -0.0031
 7500WAT      O31804   4.943   1.659   7.693 -0.2325  0.6280  0.1332
 7500WAT     H131805   4.872   1.621   7.641  0.3474  1.3508 -1.2639
 7500WAT     H231806   4.902   1.730   7.742 -0.6132  0.6148 -0.1641
 7500WAT    EPW31807   4.929   1.663   7.693 -0.2062  0.7216 -0.0904
 7501WAT      O31808   6.161   5.325   3.168 -0.1371 -0.0369 -0.2280
 7501WAT     H131809   6.252   5.308   3.192 -0.0053  0.5785 -0.2862
 7501WAT     H231810   6.161   5.328   3.072 -0.4810 -1.4492 -0.3063
 7501WAT    EPW31811   6.173   5.323   3.159 -0.1650 -0.1421 -0.2460
 7502WAT      O31812  -1.308   2.759   2.481  0.1141  0.0631  0.3199
 7502WAT     H131813  -1.233   2.714   2.442  1.9459  1.4859  1.9895
 7502WAT     H231814  -1.335   2.823   2.415  0.7387 -0.0844 -0.0870
 7502WAT    EPW31815  -1.302   2.761   2.467  0.4382  0.2313  0.4864
 7503WAT      O31816   6.696   1.189   4.853 -0.2280  0.4291  0.7300
 7503WAT     H131817   6.743   1.272   4.852 -1.3265  1.1231  2.3343
 7503WAT     H231818   6.765   1.123   4.845  0.6453  1.4591 -0.8352
 7503WAT    EPW31819   6.711   1.191   4.852 -0.2575  0.6564  0.7353
 7504WAT      O31820  -3.117   2.975   5.972 -0.5905  0.0561  0.5852
 7504WAT     H131821  -3.159   3.008   6.052  0.1987  2.7997 -0.0302
 7504WAT     H231822  -3.186   2.976   5.906 -0.9115 -0.9058  0.8994
 7504WAT    EPW31823  -3.132   2.980   5.974 -0.5288  0.2910  0.5455
 7505WAT      O31824  -2.653   0.885   4.443  0.1309  0.4422  0.0061
 7505WAT     H131825  -2.697   0.968   4.428  1.7322  1.5360  1.0188
 7505WAT     H231826  -2.693   0.824   4.380 -3.4354  1.0385  1.4885
 7505WAT    EPW31827  -2.664   0.888   4.432 -0.1283  0.6652  0.3352
 7506WAT      O31828   5.130   3.943   5.330  0.5838 -0.4503 -0.0226
 7506WAT     H131829   5.107   3.897   5.411  2.2340 -0.5192  0.4521
 7506WAT     H231830   5.154   4.031   5.358  3.3756 -1.0917 -0.0225
 7506WAT    EPW31831   5.130   3.948   5.345  1.1699 -0.5441  0.0401
 7507WAT      O31832   6.370   2.628   5.109 -0.2797  0.0567  0.1819
 7507WAT     H131833   6.324   2.565   5.165 -1.5022 -0.1811 -1.0370
 7507WAT     H231834   6.371   2.586   5.023  2.4009 -0.0056  0.1833
 7507WAT    EPW31835   6.364   2.614   5.105 -0.0875  0.0170  0.0215
 7508WAT      O31836   4.841   7.548   1.185 -0.5053  0.4490  0.3904
 7508WAT     H131837   4.836   7.477   1.249  2.0589 -1.3304 -1.1695
 7508WAT     H231838   4.932   7.577   1.189 -0.9085  1.9644 -0.7350
 7508WAT    EPW31839   4.852   7.542   1.194 -0.2203  0.4141  0.0363
 7509WAT      O31840   3.787   5.737   2.234  0.2496  0.0280 -0.3242
 7509WAT     H131841   3.725   5.778   2.172  0.0163  2.3181  1.3056
 7509WAT     H231842   3.860   5.798   2.238  0.0053  0.2376  2.0461
 7509WAT    EPW31843   3.788   5.751   2.226  0.1867  0.3576  0.2033
 7510WAT      O31844   0.722   6.409   4.671  0.6839  0.1848 -0.3269
 7510WAT     H131845   0.709   6.473   4.601 -1.7562  1.3873  1.1195
 7510WAT     H231846   0.684   6.328   4.637 -0.2905  0.7052 -0.5130
 7510WAT    EPW31847   0.716   6.407   4.657  0.2336  0.4120 -0.1607
 7511WAT      O31848  -0.325  10.305   4.643  0.1006 -0.0554  1.1661
 7511WAT     H131849  -0.344  10.295   4.736 -1.0986  0.1912  0.9690
 7511WAT     H231850  -0.232  10.330   4.639  0.0957  0.1834  2.3047
 7511WAT    EPW31851  -0.315  10.307   4.654 -0.0582  0.0086  1.2903
 7512WAT      O31852   5.803   0.643   7.479 -0.0105 -0.1994 -0.0676
 7512WAT     H131853   5.811   0.737   7.462 -0.3062 -0.1634 -0.0107
 7512WAT     H231854   5.839   0.601   7.401 -1.5489 -0.0371 -0.9036
 7512WAT    EPW31855   5.809   0.650   7.467 -0.2522 -0.1732 -0.1705
 7513WAT      O31856   1.233   9.225   7.481 -0.4093  0.5263 -0.3930
 7513WAT     H131857   1.157   9.193   7.528  1.0385 -1.3855  0.7723
 7513WAT     H231858   1.299   9.240   7.548  1.3023 -1.0477 -1.6117
 7513WAT    EPW31859   1.232   9.223   7.496  0.0074  0.0663 -0.4001
 7514WAT      O31860  -0.198   1.974   5.934 -0.6202 -0.6166 -0.3459
 7514WAT     H131861  -0.271   1.930   5.978  0.5678  0.1612  2.6301
 7514WAT     H231862  -0.239   2.045   5.884 -2.0114 -1.1687 -0.0284
 7514WAT    EPW31863  -0.213   1.977   5.933 -0.6470 -0.5868  0.0885
 7515WAT      O31864   0.184   0.606   3.033 -0.0757 -0.0125  0.0188
 7515WAT     H131865   0.101   0.652   3.023 -0.6112 -0.6213  1.3283
 7515WAT     H231866   0.232   0.658   3.098  2.1101  2.3054 -3.1622
 7515WAT    EPW31867   0.179   0.619   3.040  0.1419  0.2129 -0.2280
 7516WAT      O31868   4.303   3.256   4.136  0.8763 -0.3250 -0.8594
 7516WAT     H131869   4.308   3.309   4.056  2.3474  0.1525 -0.4840
 7516WAT     H231870   4.374   3.192   4.127 -0.6015 -2.0078 -1.1051
 7516WAT    EPW31871   4.313   3.255   4.124  0.8755 -0.4840 -0.8423
 7517WAT      O31872  -3.029   3.875   7.440  0.6095 -0.3489  0.3286
 7517WAT     H131873  -2.954   3.872   7.380  0.3630 -0.7849  0.0367
 7517WAT     H231874  -3.078   3.795   7.421  0.5785 -0.5431  1.1841
 7517WAT    EPW31875  -3.026   3.864   7.430  0.5729 -0.4319  0.4029
 7518WAT      O31876   2.752   9.872   0.513  0.1558 -0.2208  0.2959
 7518WAT     H131877   2.838   9.883   0.471 -0.3978  0.0956 -0.7804
 7518WAT     H231878   2.759   9.788   0.559  1.8171  0.8663  2.1837
 7518WAT    EPW31879   2.764   9.862   0.514  0.3018 -0.0358  0.4030
 7519WAT      O31880  -4.510   4.494   8.269 -1.0024  0.2907  0.2592
 7519WAT     H131881  -4.489   4.414   8.316  0.0288  0.0635 -0.5508
 7519WAT     H231882  -4.551   4.465   8.188 -1.3160  0.6106  0.2996
 7519WAT    EPW31883  -4.512   4.480   8.264 -0.9077  0.3028  0.1574
 7520WAT      O31884   7.544   6.409   1.304 -0.1841 -0.0109  0.1879
 7520WAT     H131885   7.533   6.424   1.210 -0.2388 -0.5589  0.1050
 7520WAT     H231886   7.632   6.442   1.323 -0.2550  0.3054 -0.0074
 7520WAT    EPW31887   7.554   6.416   1.294 -0.2010 -0.0415  0.1512
 7521WAT      O31888   1.757   9.864   1.693 -0.3892  0.1952 -0.4969
 7521WAT     H131889   1.677   9.822   1.661  0.4232 -2.0873  0.2761
 7521WAT     H231890   1.828   9.812   1.655  0.8012  2.1222 -1.1130
 7521WAT    EPW31891   1.756   9.852   1.684 -0.1251  0.1483 -0.4762
 7522WAT      O31892  -6.950   9.898   7.286  0.0319 -0.2702 -0.0877
 7522WAT     H131893  -6.943   9.993   7.286 -0.5294 -0.1448 -2.9285
 7522WAT     H231894  -6.887   9.869   7.353  2.6488  1.9784 -1.4132
 7522WAT    EPW31895  -6.941   9.907   7.295  0.3030  0.0429 -0.6373
 7523WAT      O31896   7.247   8.462   0.797  0.7445  0.0111  0.0459
 7523WAT     H131897   7.311   8.395   0.773  1.3452 -0.2457  2.1187
 7523WAT     H231898   7.183   8.416   0.852  0.9706  1.0306  1.2226
 7523WAT    EPW31899   7.247   8.447   0.801  0.8535  0.1121  0.4745
 7524WAT      O31900   6.708   7.009   0.569 -0.1634 -0.3663 -0.5045
 7524WAT     H131901   6.649   6.987   0.497  1.1666 -1.5349 -1.2788
 7524WAT     H231902   6.775   7.064   0.529 -1.0085  1.5523  0.5097
 7524WAT    EPW31903   6.709   7.014   0.554 -0.0994 -0.2675 -0.4729
 7525WAT      O31904   6.271   1.559   4.581  0.3131 -0.6100  0.9326
 7525WAT     H131905   6.367   1.559   4.586  0.8913 -2.4578 -4.0595
 7525WAT     H231906   6.246   1.468   4.599 -0.0657 -0.8899 -0.8299
 7525WAT    EPW31907   6.281   1.547   4.584  0.3395 -0.8906  0.0420
 7526WAT      O31908  -4.841   0.274   7.950  0.2508 -0.2733 -0.2685
 7526WAT     H131909  -4.851   0.220   7.872  2.5422 -2.5817  0.8942
 7526WAT     H231910  -4.781   0.344   7.924  1.7758 -1.5762 -0.4426
 7526WAT    EPW31911  -4.834   0.276   7.937  0.7544 -0.7496 -0.1380
 7527WAT      O31912   1.094   0.552   5.559 -0.6657  0.1436  0.1386
 7527WAT     H131913   1.098   0.498   5.638  0.2405 -1.2599 -0.8306
 7527WAT     H231914   1.172   0.528   5.509 -1.4709  0.6336 -1.4118
 7527WAT    EPW31915   1.105   0.541   5.563 -0.6524  0.0231 -0.1936
 7528WAT      O31916   3.118   5.135   7.020 -0.0514  0.1505 -0.2382
 7528WAT     H131917   3.137   5.208   7.079 -1.1423  0.2720 -0.0020
 7528WAT     H231918   3.161   5.059   7.060 -1.3503  0.0880  1.1287
 7528WAT    EPW31919   3.126   5.134   7.033 -0.3666  0.1583 -0.0267
 7529WAT      O31920   2.468   2.506   3.936 -0.0447  0.0961 -0.1817
 7529WAT     H131921   2.527   2.561   3.884  0.6500 -1.1180 -0.7341
 7529WAT     H231922   2.422   2.567   3.993 -1.3214  1.6183 -2.6368
 7529WAT    EPW31923   2.469   2.521   3.937 -0.1214  0.1367 -0.5784
 7530WAT      O31924   7.200   2.627   3.372  0.0587  0.0013 -0.8550
 7530WAT     H131925   7.150   2.644   3.292  0.1477 -1.5766 -1.2839
 7530WAT     H231926   7.165   2.689   3.436 -0.0086  1.2924 -2.1049
 7530WAT    EPW31927   7.189   2.638   3.370  0.0615 -0.0365 -1.0765
 7531WAT      O31928  -1.945   6.069   3.352 -0.1038 -0.0083 -0.6155
 7531WAT     H131929  -1.985   5.987   3.383 -0.7337  0.8434  0.9465
 7531WAT     H231930  -2.002   6.097   3.280  1.1452 -1.8174 -2.4097
 7531WAT    EPW31931  -1.958   6.061   3.346 -0.0221 -0.1347 -0.6462
 7532WAT      O31932   2.937   4.190   8.154  0.0500  0.1961 -0.6269
 7532WAT     H131933   2.899   4.227   8.075 -0.2943  0.7893 -0.1918
 7532WAT     H231934   3.007   4.250   8.178 -0.0672  0.2030 -0.2942
 7532WAT    EPW31935   2.941   4.203   8.147 -0.0110  0.2751 -0.5255
 7533WAT      O31936  -3.375   6.648   5.244  0.0292  0.2826 -0.1135
 7533WAT     H131937  -3.363   6.613   5.156 -1.2363  0.9014 -0.5524
 7533WAT     H231938  -3.286   6.661   5.277  0.6816  3.6763 -2.7283
 7533WAT    EPW31939  -3.362   6.645   5.237 -0.0517  0.8118 -0.5164
 7534WAT      O31940  -2.416   8.713   4.978 -0.1975 -0.3523  0.1657
 7534WAT     H131941  -2.341   8.664   4.945  0.0816  0.6958 -0.8363
 7534WAT     H231942  -2.488   8.651   4.975  0.6978 -1.5264  1.5816
 7534WAT    EPW31943  -2.415   8.699   4.973 -0.0426 -0.3691  0.2203
 7535WAT      O31944   5.621   5.975   4.602 -0.3906 -0.4373 -0.2384
 7535WAT     H131945   5.628   5.880   4.612  0.8485 -0.6758 -2.6454
 7535WAT     H231946   5.564   5.987   4.527 -1.3368  0.8060  0.6376
 7535WAT    EPW31947   5.614   5.964   4.594 -0.3519 -0.3049 -0.4404
 7536WAT      O31948   1.561   7.687   4.006 -0.0983  0.4396  0.0958
 7536WAT     H131949   1.581   7.697   3.913 -0.2342 -0.9384 -0.1051
 7536WAT     H231950   1.471   7.656   4.008 -0.1743  0.6984  0.6980
 7536WAT    EPW31951   1.552   7.684   3.994 -0.1262  0.2918  0.1487
 7537WAT      O31952   1.686   7.484   8.700 -0.1686 -0.0728 -0.5363
 7537WAT     H131953   1.709   7.549   8.633 -2.8810  1.8074  0.1775
 7537WAT     H231954   1.725   7.518   8.780 -0.3512 -0.1156 -0.4285
 7537WAT    EPW31955   1.694   7.497   8.701 -0.5504  0.1698 -0.4277
 7538WAT      O31956   7.817   4.789   0.589  0.0226  0.1886 -0.0300
 7538WAT     H131957   7.777   4.736   0.657  0.0050  1.7452  1.2258
 7538WAT     H231958   7.770   4.766   0.509  0.3399 -2.0012  0.3502
 7538WAT    EPW31959   7.806   4.779   0.587  0.0620  0.1049  0.1858
 7539WAT      O31960   7.641   2.533   3.287  0.7879 -1.0443  0.8320
 7539WAT     H131961   7.682   2.508   3.370  1.3564  0.6611  1.1093
 7539WAT     H231962   7.707   2.514   3.221  1.3669  0.0164  1.0816
 7539WAT    EPW31963   7.655   2.527   3.289  0.9394 -0.6795  0.9015
 7540WAT      O31964   5.802   0.157   2.831 -0.3129 -0.0041  0.5287
 7540WAT     H131965   5.744   0.082   2.840  0.2182 -0.4147  0.5977
 7540WAT     H231966   5.890   0.119   2.833 -0.0316  0.2075 -2.6522
 7540WAT    EPW31967   5.806   0.142   2.832 -0.2058 -0.0303  0.1183
 7541WAT      O31968   3.622   9.974   3.718  0.0343 -0.1743  0.1366
 7541WAT     H131969   3.653   9.907   3.657  1.2688  0.5548 -0.0533
 7541WAT     H231970   3.619   9.928   3.803  2.9396  0.0126  0.4411
 7541WAT    EPW31971   3.626   9.959   3.721  0.5804 -0.0539  0.1516
 7542WAT      O31972  -7.290   7.230   7.921 -0.0674 -0.2235  0.1254
 7542WAT     H131973  -7.374   7.252   7.882  0.3968 -0.6285 -1.1589
 7542WAT     H231974  -7.253   7.315   7.947  0.4096  0.3083 -2.0675
 7542WAT    EPW31975  -7.296   7.244   7.920  0.0567 -0.2065 -0.3331
 7543WAT      O31976  -5.180   5.351   5.583  1.0215 -0.4540  0.1247
 7543WAT     H131977  -5.129   5.276   5.553 -0.0258 -0.3104 -2.1931
 7543WAT     H231978  -5.268   5.337   5.546 -0.0268  0.4696  2.0821
 7543WAT    EPW31979  -5.185   5.339   5.574  0.7451 -0.3135  0.0772
 7544WAT      O31980  -0.843   7.759   6.508  0.5860 -0.0596  0.5701
 7544WAT     H131981  -0.896   7.838   6.501  0.8056 -0.0459 -1.9199
 7544WAT     H231982  -0.906   7.687   6.509  0.4618  0.0374 -0.2227
 7544WAT    EPW31983  -0.858   7.760   6.507  0.5985 -0.0448  0.1371
 7545WAT      O31984  -5.011   5.065   7.977  0.0847  0.0815 -0.3497
 7545WAT     H131985  -4.995   4.976   7.946  2.5163  0.3828 -0.1741
 7545WAT     H231986  -4.939   5.116   7.940  0.2089  1.4653  1.6473
 7545WAT    EPW31987  -5.000   5.060   7.968  0.4218  0.3037 -0.0634
 7546WAT      O31988  -3.160   9.644   4.868 -0.1989  0.1023 -0.2540
 7546WAT     H131989  -3.088   9.626   4.928 -0.1065 -0.2530 -0.4690
 7546WAT     H231990  -3.207   9.717   4.908  2.0530  2.4722 -1.6082
 7546WAT    EPW31991  -3.157   9.651   4.881  0.1103  0.3681 -0.4609
 7547WAT      O31992  -0.848   0.400   6.391 -0.1527  0.1216 -0.5847
 7547WAT     H131993  -0.848   0.365   6.480  1.3326 -0.6489 -0.8658
 7547WAT     H231994  -0.829   0.325   6.335  2.3492  1.1783 -1.2551
 7547WAT    EPW31995  -0.846   0.386   6.395  0.3732  0.1594 -0.7102
 7548WAT      O31996  -2.169   6.083   5.237 -0.5088 -0.5184 -0.4850
 7548WAT     H131997  -2.209   6.088   5.150  1.3369 -2.0883 -1.5025
 7548WAT     H231998  -2.108   6.157   5.240  0.3677 -1.1996 -1.0718
 7548WAT    EPW31999  -2.166   6.093   5.226 -0.1498 -0.8152 -0.6967
 7549WAT      O32000  -2.815   1.829   8.145 -1.0334  0.3499 -0.1812
 7549WAT     H132001  -2.791   1.916   8.113  0.6604 -0.5215 -1.4582
 7549WAT     H232002  -2.839   1.843   8.237  3.9086  1.5874  1.2014
 7549WAT    EPW32003  -2.815   1.842   8.153 -0.1583  0.3982 -0.1674
 7550WAT      O32004   1.075   9.761   5.032  0.2423  0.5923  0.0323
 7550WAT     H132005   1.107   9.673   5.053  1.3489  0.1691 -2.9601
 7550WAT     H232006   0.993   9.746   4.984  0.0614  1.2513  0.1156
 7550WAT    EPW32007   1.068   9.747   5.028  0.3644  0.6232 -0.3512
 7551WAT      O32008  -1.639   9.775   0.308  0.0316  0.7026  0.0830
 7551WAT     H132009  -1.640   9.869   0.291  0.0431  0.7411  0.2920
 7551WAT     H232010  -1.570   9.763   0.374  0.7283  0.4201 -0.6821
 7551WAT    EPW32011  -1.630   9.786   0.315  0.1251  0.6704  0.0097
 7552WAT      O32012   2.267   5.109   1.969  0.4040 -0.0114 -0.7965
 7552WAT     H132013   2.193   5.053   1.943 -1.1445  2.1783 -1.3959
 7552WAT     H232014   2.280   5.167   1.895  0.1431  2.1539  0.7554
 7552WAT    EPW32015   2.259   5.109   1.956  0.1653  0.5631 -0.6709
 7553WAT      O32016   1.140   7.614   4.743 -0.5902 -0.2153  0.5523
 7553WAT     H132017   1.182   7.622   4.828 -1.0826  2.1711  0.6554
 7553WAT     H232018   1.191   7.672   4.686 -1.8804  0.3489 -0.0674
 7553WAT    EPW32019   1.152   7.623   4.747 -0.8253  0.1740  0.4842
 7554WAT      O32020   0.402  10.270   8.172  1.0034  0.0390  0.7250
 7554WAT     H132021   0.365  10.239   8.089  0.6625 -1.8280  1.5268
 7554WAT     H232022   0.372  10.361   8.179  1.3065  0.3504 -1.3258
 7554WAT    EPW32023   0.393  10.278   8.162  0.9984 -0.1659  0.5603
 7555WAT      O32024  -1.057   6.835   8.508  0.8125  0.1625  0.0276
 7555WAT     H132025  -1.055   6.853   8.602 -0.0914 -0.7325  0.2386
 7555WAT     H232026  -0.982   6.883   8.473 -0.8382  3.5443  0.6424
 7555WAT    EPW32027  -1.047   6.844   8.516  0.4756  0.4907  0.1364
 7556WAT      O32028   7.726   0.902   2.809  1.0119 -0.2307 -0.1437
 7556WAT     H132029   7.725   0.914   2.904  0.0163 -1.6268  0.0468
 7556WAT     H232030   7.672   0.974   2.776  1.9857  0.7079  0.2703
 7556WAT    EPW32031   7.719   0.913   2.817  1.0090 -0.2910 -0.0640
 7557WAT      O32032  -3.597   1.661   5.566 -0.1411 -0.6979 -0.1355
 7557WAT     H132033  -3.571   1.682   5.476  0.6847 -1.8200 -0.1799
 7557WAT     H232034  -3.668   1.722   5.586 -0.1228 -0.2321 -1.4420
 7557WAT    EPW32035  -3.603   1.672   5.557 -0.0297 -0.7845 -0.3140
 7558WAT      O32036   6.001   2.497   4.503  0.6359  0.1549 -0.5689
 7558WAT     H132037   6.018   2.505   4.409  0.6554 -0.0035 -0.5794
 7558WAT     H232038   5.909   2.473   4.509  1.0464 -1.6227 -0.6334
 7558WAT    EPW32039   5.991   2.495   4.492  0.6926 -0.1006 -0.5791
 7559WAT      O32040  -1.861   9.263   1.734 -0.1425  0.2381 -0.5615
 7559WAT     H132041  -1.800   9.194   1.707 -1.3233 -1.1908  0.3027
 7559WAT     H232042  -1.844   9.276   1.827  0.0092  1.0870 -0.6952
 7559WAT    EPW32043  -1.851   9.256   1.742 -0.2783  0.1616 -0.4652
 7560WAT      O32044  -4.316   4.005   6.468  0.1659  0.4760 -0.2339
 7560WAT     H132045  -4.312   3.917   6.506  4.0584  1.1774  1.4140
 7560WAT     H232046  -4.251   4.005   6.398 -0.3437  1.8303 -0.7403
 7560WAT    EPW32047  -4.307   3.993   6.464  0.6120  0.7472 -0.0834
 7561WAT      O32048  -0.073   4.595   4.084 -0.0910 -0.1184 -0.1251
 7561WAT     H132049  -0.033   4.575   3.999  0.6328  0.4052  0.0821
 7561WAT     H232050  -0.034   4.679   4.109 -1.5596  0.5839 -0.0550
 7561WAT    EPW32051  -0.063   4.604   4.076 -0.1892  0.0434 -0.0885
 7562WAT      O32052  -1.247   8.017   2.186  0.0185  0.2835 -0.3733
 7562WAT     H132053  -1.225   8.018   2.279 -1.7343 -0.7719  0.1163
 7562WAT     H232054  -1.214   7.933   2.154  1.7725  1.1865 -1.0698
 7562WAT    EPW32055  -1.240   8.006   2.194  0.0187  0.2637 -0.4005
 7563WAT      O32056  -4.961   8.852   6.858  0.1865  0.2141 -0.3396
 7563WAT     H132057  -4.887   8.795   6.875 -0.9833 -1.4844 -0.7333
 7563WAT     H232058  -4.963   8.862   6.762 -0.2068  0.0878 -0.3484
 7563WAT    EPW32059  -4.952   8.846   6.847 -0.0198 -0.0267 -0.3927
 7564WAT      O32060   4.334   5.989   7.131  0.6066  0.2682  0.9125
 7564WAT     H132061   4.259   5.968   7.076  0.6094  1.2150  0.5317
 7564WAT     H232062   4.298   6.042   7.202  0.9772  1.1963  0.4295
 7564WAT    EPW32063   4.320   5.993   7.133  0.6559  0.5155  0.7987
 7565WAT      O32064   4.258   6.084   5.643 -0.0957 -0.5767  0.5723
 7565WAT     H132065   4.256   6.065   5.737 -2.0700  0.6419  0.8263
 7565WAT     H232066   4.277   6.177   5.637  1.8140 -0.9790 -0.3565
 7565WAT    EPW32067   4.260   6.094   5.655 -0.1042 -0.4692  0.4833
 7566WAT      O32068   4.344   9.150   2.664 -0.3220  0.0446 -0.2621
 7566WAT     H132069   4.356   9.137   2.758 -1.0363  1.9841  0.1517
 7566WAT     H232070   4.429   9.181   2.634 -0.2000 -0.1999 -0.1693
 7566WAT    EPW32071   4.357   9.152   2.673 -0.3998  0.2680 -0.1953
 7567WAT      O32072  -1.417   7.449   4.178 -0.3471  0.0996  0.1353
 7567WAT     H132073  -1.411   7.364   4.221 -0.2353  0.3361  0.5970
 7567WAT     H232074  -1.510   7.469   4.176 -0.5163 -0.6563 -1.2340
 7567WAT    EPW32075  -1.428   7.440   4.183 -0.3546  0.0310  0.0157
 7568WAT      O32076  -0.955   4.632   1.421  0.0461 -0.3931 -0.3364
 7568WAT     H132077  -0.870   4.614   1.380  0.7666 -0.3965  1.0855
 7568WAT     H232078  -1.002   4.549   1.416  0.7101 -0.8095  0.1693
 7568WAT    EPW32079  -0.950   4.619   1.415  0.2287 -0.4482 -0.0822
 7569WAT      O32080   2.010   3.075   5.000 -0.0691  0.0141 -0.2164
 7569WAT     H132081   2.032   3.163   5.029 -0.9863  0.1397  0.1402
 7569WAT     H232082   1.931   3.052   5.050  1.1373 -1.7121  1.0495
 7569WAT    EPW32083   2.003   3.083   5.011 -0.0310 -0.1969 -0.0024
 7570WAT      O32084   8.359   1.445   1.943 -0.3494  0.2019 -0.5166
 7570WAT     H132085   8.311   1.423   2.022  1.2256  0.7344  0.6313
 7570WAT     H232086   8.341   1.372   1.883 -1.4048 -0.3002  0.3768
 7570WAT    EPW32087   8.350   1.432   1.945 -0.2809  0.2059 -0.2474
 7571WAT      O32088   3.068   4.966   1.297 -0.6841 -0.5330 -0.1407
 7571WAT     H132089   3.083   4.886   1.348  1.5023  0.6318  1.2005
 7571WAT     H232090   3.127   4.958   1.222 -0.1971 -0.0500  0.1831
 7571WAT    EPW32091   3.078   4.955   1.294 -0.3315 -0.3157  0.0789
 7572WAT      O32092   4.951   0.426   8.250  0.0302  0.3066 -0.1752
 7572WAT     H132093   4.969   0.493   8.185 -0.2460 -2.1002 -2.9421
 7572WAT     H232094   4.929   0.475   8.330 -0.5324  3.4360 -2.0786
 7572WAT    EPW32095   4.951   0.441   8.252 -0.0803  0.4019 -0.7911
 7573WAT      O32096   4.568   8.223   2.748  0.1189 -0.3128 -0.1451
 7573WAT     H132097   4.596   8.158   2.682 -0.0162  0.6552 -1.1907
 7573WAT     H232098   4.488   8.187   2.785 -0.2032 -0.5510 -1.0364
 7573WAT    EPW32099   4.561   8.210   2.744  0.0589 -0.2165 -0.4005
 7574WAT      O32100   0.217   4.345   0.110  0.6844  0.3819  0.5133
 7574WAT     H132101   0.266   4.370   0.031 -0.1607 -0.7232 -0.3874
 7574WAT     H232102   0.275   4.369   0.182  2.0783  0.1410 -0.4844
 7574WAT    EPW32103   0.231   4.352   0.109  0.7568  0.2043  0.2629
 7575WAT      O32104   6.894   3.661   0.529  0.1558  0.0347 -0.3356
 7575WAT     H132105   6.914   3.568   0.515 -1.9377 -0.3831 -0.8587
 7575WAT     H232106   6.978   3.706   0.513  0.9378 -1.6478 -1.2724
 7575WAT    EPW32107   6.908   3.655   0.525 -0.0172 -0.2424 -0.5282
 7576WAT      O32108   1.956   4.771   2.304 -0.1259  0.3435  0.3753
 7576WAT     H132109   1.936   4.828   2.377 -1.8314 -0.2146  0.3908
 7576WAT     H232110   1.938   4.824   2.226  0.8768  0.6686  0.3580
 7576WAT    EPW32111   1.951   4.785   2.303 -0.2186  0.3128  0.3750
 7577WAT      O32112   9.252   2.062   0.425  0.0297 -0.2128  0.0182
 7577WAT     H132113   9.330   2.020   0.388 -0.3128 -2.3223  1.5093
 7577WAT     H232114   9.283   2.148   0.455  1.2185 -0.1006 -1.4288
 7577WAT    EPW32115   9.266   2.068   0.424  0.1411 -0.4762  0.0240
 7578WAT      O32116  -3.595   8.205   1.854 -0.0888 -0.1933 -0.0577
 7578WAT     H132117  -3.599   8.234   1.945  0.2301  0.8072 -0.3526
 7578WAT     H232118  -3.682   8.169   1.837  0.1192 -1.1974  0.8901
 7578WAT    EPW32119  -3.607   8.204   1.863 -0.0192 -0.1941  0.0285
 7579WAT      O32120  -1.058   0.650   3.302  0.2959  0.4219  0.5801
 7579WAT     H132121  -0.987   0.599   3.265 -0.3113 -0.6868  0.9073
 7579WAT     H232122  -1.063   0.622   3.393 -1.1391 -0.1961  0.3406
 7579WAT    EPW32123  -1.049   0.640   3.309  0.0266  0.1941  0.5918
 7580WAT      O32124   0.461   7.310   2.980  0.4731 -1.1255  0.7416
 7580WAT     H132125   0.400   7.282   3.047  0.7215  0.2556  1.5643
 7580WAT     H232126   0.537   7.252   2.991  0.1547 -1.4800  1.0706
 7580WAT    EPW32127   0.463   7.299   2.990  0.4639 -0.9902  0.8935
 7581WAT      O32128   0.502   5.840   0.593 -0.3649  0.0762  0.3402
 7581WAT     H132129   0.489   5.908   0.528  0.7555 -0.0169 -0.0117
 7581WAT     H232130   0.515   5.760   0.543  4.8088  0.6308  0.2581
 7581WAT    EPW32131   0.502   5.838   0.578  0.4653  0.1369  0.2829
 7582WAT      O32132  -2.787   9.085   6.740  0.7453  0.1712 -0.8459
 7582WAT     H132133  -2.882   9.088   6.733  0.4747 -2.8879  0.1442
 7582WAT     H232134  -2.768   9.119   6.828  0.3714 -0.9368 -0.3241
 7582WAT    EPW32135  -2.797   9.090   6.751  0.6603 -0.3781 -0.6464
 7583WAT      O32136   0.786   7.024   0.613  0.2792 -1.0873  0.2947
 7583WAT     H132137   0.744   6.974   0.683 -1.7994  1.4008  1.0094
 7583WAT     H232138   0.863   7.063   0.654  0.5682 -1.7627  0.4072
 7583WAT    EPW32139   0.791   7.022   0.627  0.0432 -0.8485  0.4038
 7584WAT      O32140   1.581  10.364   8.368 -0.1947  0.1626  0.4613
 7584WAT     H132141   1.583  10.270   8.389  0.7817  0.1580  0.3726
 7584WAT     H232142   1.646  10.403   8.426 -0.9261  0.8636  0.8255
 7584WAT    EPW32143   1.590  10.356   8.379 -0.1624  0.2546  0.4978
 7585WAT      O32144   3.281   6.029   6.034  0.3443  0.4054 -0.2940
 7585WAT     H132145   3.197   6.041   6.077  0.7232 -1.0211  0.9236
 7585WAT     H232146   3.260   5.982   5.953 -0.0536  0.3232 -0.1431
 7585WAT    EPW32147   3.267   6.024   6.029  0.3418  0.2065 -0.1135
 7586WAT      O32148   1.023   4.888   2.193 -0.2896  0.4251  0.0865
 7586WAT     H132149   1.114   4.900   2.218  0.4755 -0.3880 -2.1052
 7586WAT     H232150   0.994   4.976   2.168 -0.5562  0.9258  1.9736
 7586WAT    EPW32151   1.031   4.901   2.193 -0.2239  0.3839  0.0463
 7587WAT      O32152   4.835   1.968   3.028 -0.0732 -0.0622 -0.4448
 7587WAT     H132153   4.744   1.939   3.023 -0.5420  1.4940 -1.9338
 7587WAT     H232154   4.831   2.049   3.079  0.8773 -1.2070  1.6042
 7587WAT    EPW32155   4.822   1.975   3.034 -0.0095 -0.0079 -0.3710
 7588WAT      O32156  -1.736  10.124   4.565 -0.2881  0.3003  0.1886
 7588WAT     H132157  -1.819  10.079   4.577  0.3432 -0.2623  3.2146
 7588WAT     H232158  -1.674  10.076   4.619  1.1015  2.9835  1.1665
 7588WAT    EPW32159  -1.739  10.112   4.574 -0.0216  0.5803  0.7167
 7589WAT      O32160   4.569   2.132   7.211  0.4169 -0.0154 -0.3168
 7589WAT     H132161   4.656   2.146   7.248 -0.1144  0.7798  0.6492
 7589WAT     H232162   4.511   2.127   7.286 -0.5266  0.4947 -0.9943
 7589WAT    EPW32163   4.573   2.133   7.226  0.2224  0.1569 -0.2787
 7590WAT      O32164  -1.215   9.204   1.423  0.1620  0.8733 -0.5241
 7590WAT     H132165  -1.169   9.182   1.342 -0.1369 -1.4918 -0.1151
 7590WAT     H232166  -1.305   9.176   1.408  0.2532 -0.2641  0.8555
 7590WAT    EPW32167  -1.221   9.198   1.410  0.1346  0.4115 -0.2881
 7591WAT      O32168  -2.730   3.322   5.554 -0.1854  0.0229 -0.0657
 7591WAT     H132169  -2.781   3.321   5.473 -0.2162 -0.8125 -0.0500
 7591WAT     H232170  -2.786   3.279   5.618 -0.1221  0.6016  0.3737
 7591WAT    EPW32171  -2.744   3.316   5.552 -0.1811 -0.0111 -0.0057
 7592WAT      O32172  -0.280   2.441   1.798  0.1614  0.0147 -0.1034
 7592WAT     H132173  -0.254   2.499   1.726 -0.7389  0.8131  0.1918
 7592WAT     H232174  -0.370   2.415   1.776  0.5652 -1.3153 -0.2494
 7592WAT    EPW32175  -0.289   2.445   1.785  0.0959 -0.0554 -0.0837
 7593WAT      O32176   4.628   7.505   2.101  0.5738  0.0620  0.3649
 7593WAT     H132177   4.707   7.545   2.064 -0.0837  0.2794 -0.8532
 7593WAT     H232178   4.647   7.411   2.103  0.7402  0.0785 -0.2546
 7593WAT    EPW32179   4.641   7.498   2.096  0.5088  0.0927  0.1225
 7594WAT      O32180  -2.400   9.963   2.136 -0.4541  0.3050  0.3850
 7594WAT     H132181  -2.377   9.872   2.154 -1.2867  0.2417  1.2086
 7594WAT     H232182  -2.332  10.013   2.181  0.8778  0.1102 -1.3184
 7594WAT    EPW32183  -2.388   9.958   2.144 -0.3883  0.2708  0.2691
 7595WAT      O32184   5.285   1.294   8.158  0.4763  0.4833  0.0066
 7595WAT     H132185   5.273   1.284   8.252 -2.4541 -0.1861 -0.3308
 7595WAT     H232186   5.344   1.222   8.134 -0.8159 -1.0116  1.0458
 7595WAT    EPW32187   5.291   1.283   8.167 -0.0806  0.1979  0.0997
 7596WAT      O32188   5.296   5.150   2.073  0.8827 -0.0163 -0.3081
 7596WAT     H132189   5.253   5.124   2.155 -0.7483  0.6565 -0.9027
 7596WAT     H232190   5.378   5.190   2.101  1.0915 -1.1835  0.8932
 7596WAT    EPW32191   5.301   5.151   2.088  0.6950 -0.0818 -0.2280
 7597WAT      O32192   6.957   8.012   0.816  0.3702  0.0727 -1.3249
 7597WAT     H132193   6.897   8.008   0.742  1.6548  0.1391 -2.4020
 7597WAT     H232194   7.019   8.081   0.794  1.4110 -0.6308 -0.6927
 7597WAT    EPW32195   6.957   8.020   0.803  0.6769 -0.0119 -1.3836
 7598WAT      O32196  -0.047   8.971   2.936 -0.6748 -0.0063 -0.0651
 7598WAT     H132197  -0.087   8.887   2.915  0.6482 -0.6566 -0.0536
 7598WAT     H232198  -0.034   8.968   3.031 -1.3695  0.5589  0.0573
 7598WAT    EPW32199  -0.050   8.960   2.946 -0.5919 -0.0176 -0.0474
 7599WAT      O32200   0.168   9.011   5.822 -0.7337  0.0915 -0.1338
 7599WAT     H132201   0.142   9.072   5.892 -0.0731 -0.1990  0.3768
 7599WAT     H232202   0.139   8.925   5.854 -0.4599 -0.0373 -0.2288
 7599WAT    EPW32203   0.160   9.008   5.836 -0.6105  0.0362 -0.0789
 7600WAT      O32204  -3.406   8.473   8.911 -0.2431  0.1209  0.2676
 7600WAT     H132205  -3.359   8.399   8.949 -0.9460  0.0098  0.9308
 7600WAT     H232206  -3.347   8.548   8.922  0.2325 -0.2260  0.0975
 7600WAT    EPW32207  -3.392   8.473   8.917 -0.2730  0.0601  0.3328
 7601WAT      O32208   6.878   2.035   3.711  0.3652  0.6952 -0.4164
 7601WAT     H132209   6.846   1.946   3.699 -0.2936  0.7186  1.0212
 7601WAT     H232210   6.886   2.069   3.622 -2.1028  0.1421 -0.9294
 7601WAT    EPW32211   6.874   2.028   3.698 -0.0474  0.6254 -0.2944
 7602WAT      O32212   2.470   9.027   0.856 -0.1468  0.5355  0.6010
 7602WAT     H132213   2.402   8.966   0.883  0.2341  0.0329  0.4314
 7602WAT     H232214   2.422   9.106   0.830 -0.7569 -0.1670 -0.4964
 7602WAT    EPW32215   2.455   9.030   0.856 -0.1771  0.3767  0.4339
 7603WAT      O32216   2.525   0.599   2.819  1.0686 -0.4180 -0.2032
 7603WAT     H132217   2.448   0.645   2.787  1.3408 -1.0398 -1.8791
 7603WAT     H232218   2.504   0.575   2.909  0.1707  1.2617  0.0597
 7603WAT    EPW32219   2.512   0.602   2.826  0.9860 -0.2785 -0.3895
 7604WAT      O32220  -1.041   3.103   7.764 -0.3840  0.0480 -0.3667
 7604WAT     H132221  -1.129   3.087   7.728 -0.3592 -0.9648 -0.0028
 7604WAT     H232222  -1.006   3.016   7.781 -0.5805  0.4361  2.5675
 7604WAT    EPW32223  -1.048   3.090   7.761 -0.4066 -0.0345  0.0679
 7605WAT      O32224   1.848   0.302   0.745 -0.1444 -0.0964 -0.3687
 7605WAT     H132225   1.940   0.308   0.771 -0.2393  0.4225 -0.1393
 7605WAT     H232226   1.840   0.361   0.671 -0.3075 -0.0922 -0.3482
 7605WAT    EPW32227   1.859   0.311   0.739 -0.1785 -0.0274 -0.3358
 7606WAT      O32228  -1.777   9.147   7.218  0.1195  0.3343  0.4413
 7606WAT     H132229  -1.730   9.075   7.177 -0.4351  0.6122 -0.7072
 7606WAT     H232230  -1.719   9.223   7.206  1.0403 -0.0166  2.2878
 7606WAT    EPW32231  -1.763   9.147   7.211  0.1678  0.3247  0.5333
 7607WAT      O32232   1.183   1.841   8.725 -0.1505 -0.0994 -0.3897
 7607WAT     H132233   1.175   1.886   8.809 -1.8886 -2.0326  0.5827
 7607WAT     H232234   1.277   1.824   8.716  0.3882  2.4814 -0.1938
 7607WAT    EPW32235   1.194   1.845   8.735 -0.3087 -0.0140 -0.2356
 7608WAT      O32236  -2.404   0.227   6.867  0.3679  0.1201 -0.4880
 7608WAT     H132237  -2.373   0.304   6.913  2.3343  0.1084 -1.6773
 7608WAT     H232238  -2.326   0.172   6.856 -1.2959 -3.1724  2.2550
 7608WAT    EPW32239  -2.390   0.230   6.872  0.4078 -0.3157 -0.2830
 7609WAT      O32240  -0.534   9.539   7.534 -0.0882 -0.7458 -1.0042
 7609WAT     H132241  -0.448   9.582   7.536 -0.3640 -0.0770 -2.5454
 7609WAT     H232242  -0.514   9.446   7.538  0.4728 -0.8474  5.3187
 7609WAT    EPW32243  -0.520   9.533   7.535 -0.0506 -0.6709 -0.3734
 7610WAT      O32244   1.549   9.408   2.602 -0.8751 -0.0107  1.2241
 7610WAT     H132245   1.522   9.352   2.530  0.6978  0.8405 -0.0979
 7610WAT     H232246   1.608   9.353   2.654 -0.0532  0.1061  0.4409
 7610WAT    EPW32247   1.553   9.394   2.600 -0.5592  0.1163  0.9464
 7611WAT      O32248  -2.689   4.066   8.650  0.2697 -0.7212  0.0855
 7611WAT     H132249  -2.766   4.097   8.602 -0.0137  0.9254  1.5156
 7611WAT     H232250  -2.692   4.113   8.733  0.2685 -4.0490  2.1768
 7611WAT    EPW32251  -2.700   4.076   8.654  0.2322 -0.9429  0.5503
 7612WAT      O32252  -2.324   0.987   5.238  0.1186 -0.1764  0.4793
 7612WAT     H132253  -2.229   0.988   5.230  0.0233 -1.8571 -1.7301
 7612WAT     H232254  -2.353   1.063   5.187  0.2721  0.3627  1.1920
 7612WAT    EPW32255  -2.315   0.997   5.230  0.1264 -0.3269  0.2818
 7613WAT      O32256  -5.330   5.005   7.250 -0.3022  0.0722 -0.5741
 7613WAT     H132257  -5.348   4.974   7.339 -1.2090  0.2398 -0.6895
 7613WAT     H232258  -5.416   5.015   7.210  0.0892  0.1222 -1.4368
 7613WAT    EPW32259  -5.344   5.002   7.256 -0.3703  0.1009 -0.7031
 7614WAT      O32260  -0.890   0.825   8.628  0.6242  0.1926  0.3293
 7614WAT     H132261  -0.924   0.894   8.685  0.2281 -0.4353  0.8689
 7614WAT     H232262  -0.901   0.744   8.679  0.6858 -0.3253 -0.4613
 7614WAT    EPW32263  -0.896   0.823   8.642  0.5800  0.0415  0.2956
 7615WAT      O32264  -3.509   2.721   7.517  0.4691  0.7011  0.2260
 7615WAT     H132265  -3.544   2.669   7.445 -0.6427  0.4858  0.8928
 7615WAT     H232266  -3.573   2.791   7.530  1.1930  1.3654  0.3296
 7615WAT    EPW32267  -3.522   2.723   7.509  0.4179  0.7603  0.3276
 7616WAT      O32268  -2.588   3.278   6.291  0.3407  0.2342 -0.3751
 7616WAT     H132269  -2.535   3.346   6.248  2.4381  0.5540  2.4200
 7616WAT     H232270  -2.568   3.198   6.242  0.9973  0.9038 -1.2548
 7616WAT    EPW32271  -2.578   3.277   6.279  0.7039  0.3647 -0.1225
 7617WAT      O32272  -2.445   9.809   5.516 -0.2742  0.0374 -0.0847
 7617WAT     H132273  -2.485   9.879   5.567 -0.5210  0.0259 -0.2587
 7617WAT     H232274  -2.411   9.852   5.437 -0.6717 -0.0778 -0.3226
 7617WAT    EPW32275  -2.446   9.824   5.512 -0.3593  0.0205 -0.1390
 7618WAT      O32276  -6.015   7.048   8.676 -0.1847 -0.2755 -0.4994
 7618WAT     H132277  -6.061   7.016   8.753  0.8452 -0.1185  0.2008
 7618WAT     H232278  -6.081   7.096   8.627 -0.4951  0.9733  1.0813
 7618WAT    EPW32279  -6.030   7.050   8.680 -0.0899 -0.0899 -0.1984
 7619WAT      O32280   5.850   1.218   5.502  0.3048 -0.1913  0.0744
 7619WAT     H132281   5.886   1.156   5.565  4.9405  2.1833  0.1708
 7619WAT     H232282   5.809   1.286   5.555  2.1551  0.6461  0.4823
 7619WAT    EPW32283   5.849   1.219   5.517  1.1604  0.2323  0.1411
 7620WAT      O32284  -1.813   4.263   5.570 -0.0154  0.4455  0.1609
 7620WAT     H132285  -1.761   4.183   5.579 -2.5274 -1.3651 -0.3098
 7620WAT     H232286  -1.807   4.305   5.656  0.6042 -0.7286  0.7228
 7620WAT    EPW32287  -1.805   4.258   5.582 -0.2650  0.0517  0.1729
 7621WAT      O32288  -0.737   9.345   8.686 -0.0286  0.1035 -0.1812
 7621WAT     H132289  -0.777   9.267   8.724 -0.5995 -0.4131 -1.7664
 7621WAT     H232290  -0.685   9.382   8.757  0.4593 -1.8520  0.5612
 7621WAT    EPW32291  -0.735   9.339   8.700 -0.0395 -0.2227 -0.2923
 7622WAT      O32292  -5.391   7.419   5.708  0.1489 -0.6679 -1.0398
 7622WAT     H132293  -5.463   7.385   5.761 -1.4626  0.1070 -2.6182
 7622WAT     H232294  -5.392   7.513   5.722  1.1011 -0.6791 -0.8206
 7622WAT    EPW32295  -5.401   7.427   5.717  0.0620 -0.5674 -1.2193
 7623WAT      O32296  -7.757   9.364   8.798  0.2214 -0.4338  0.0145
 7623WAT     H132297  -7.695   9.293   8.778 -0.0233 -0.5646 -0.2904
 7623WAT     H232298  -7.720   9.441   8.753  1.4129  0.0693  1.7583
 7623WAT    EPW32299  -7.744   9.365   8.789  0.3459 -0.3848  0.2046
 7624WAT      O32300   2.321  10.204   1.631  0.1204 -0.0784  0.0543
 7624WAT     H132301   2.237  10.169   1.661  0.4139 -0.3553  0.5821
 7624WAT     H232302   2.384  10.174   1.697  0.4606  1.0509  0.2670
 7624WAT    EPW32303   2.319  10.195   1.644  0.2041  0.0343  0.1520
 7625WAT      O32304  -5.909   6.340   8.111  0.3893  0.6724 -1.0700
 7625WAT     H132305  -5.823   6.330   8.069  1.3853  0.8019  0.8144
 7625WAT     H232306  -5.888   6.354   8.204 -1.6678  1.1533 -0.6377
 7625WAT    EPW32307  -5.895   6.341   8.118  0.2494  0.7527 -0.7639
 7626WAT      O32308  -3.793   0.914   8.604  0.1510  0.8346  0.5074
 7626WAT     H132309  -3.707   0.957   8.599  0.7949 -0.5431 -1.8225
 7626WAT     H232310  -3.827   0.920   8.514 -0.8080 -1.3374  0.6837
 7626WAT    EPW32311  -3.786   0.921   8.591  0.1094  0.3664  0.2232
 7627WAT      O32312  -1.455   4.976   3.893 -0.8498  0.3661 -0.0929
 7627WAT     H132313  -1.423   4.906   3.836 -0.4197  2.4148 -2.5095
 7627WAT     H232314  -1.465   4.934   3.978 -0.5017 -2.5901 -1.3971
 7627WAT    EPW32315  -1.452   4.961   3.897 -0.7472  0.2465 -0.5835
 7628WAT      O32316   6.104   7.474   1.755  0.5834 -0.2743 -0.0709
 7628WAT     H132317   6.062   7.559   1.769 -1.7853 -1.3891  0.0195
 7628WAT     H232318   6.100   7.431   1.841  0.8850 -0.8573 -0.3461
 7628WAT    EPW32319   6.098   7.480   1.768  0.3107 -0.4983 -0.0952
 7629WAT      O32320  -3.290   9.873   1.607  0.4191 -0.0114 -0.5624
 7629WAT     H132321  -3.268   9.780   1.599  0.3069 -0.3271  2.0227
 7629WAT     H232322  -3.214   9.912   1.649 -0.6524  0.4582  1.0339
 7629WAT    EPW32323  -3.277   9.866   1.612  0.2630  0.0086 -0.0108
 7630WAT      O32324  -3.564   7.265   1.752 -0.1688 -0.1079 -0.1050
 7630WAT     H132325  -3.637   7.257   1.692  0.0494 -2.6684 -0.1571
 7630WAT     H232326  -3.596   7.230   1.835 -0.3230  2.9332  1.2666
 7630WAT    EPW32327  -3.578   7.259   1.755 -0.1603 -0.0443  0.0690
 7631WAT      O32328   0.141   3.146   3.200  0.3180  0.0369 -1.0597
 7631WAT     H132329   0.079   3.080   3.169 -1.8195  2.1466 -1.5923
 7631WAT     H232330   0.086   3.213   3.240  2.5450  0.4639  1.6047
 7631WAT    EPW32331   0.126   3.146   3.201  0.3298  0.3715 -0.7786
 7632WAT      O32332  -1.094   0.738   8.133  0.1727 -0.1765 -0.1961
 7632WAT     H132333  -1.151   0.717   8.059 -0.1112 -0.9762  0.2343
 7632WAT     H232334  -1.019   0.781   8.094 -0.3863  0.2273 -0.8528
 7632WAT    EPW32335  -1.092   0.741   8.118  0.0615 -0.2287 -0.2265
 7633WAT      O32336  -2.166   9.565   0.750  0.4254 -0.3098  0.3123
 7633WAT     H132337  -2.120   9.520   0.821  1.4035 -0.3043 -0.2911
 7633WAT     H232338  -2.244   9.513   0.734  0.7493 -0.9152  0.6701
 7633WAT    EPW32339  -2.170   9.552   0.757  0.5972 -0.3891  0.2798
 7634WAT      O32340   5.197   9.252   0.551  0.1210 -0.1872  0.2755
 7634WAT     H132341   5.234   9.185   0.608 -0.1207  0.7049  1.5163
 7634WAT     H232342   5.156   9.203   0.480 -1.2149 -1.4505  1.8382
 7634WAT    EPW32343   5.196   9.237   0.549 -0.0870 -0.2365  0.6453
 7635WAT      O32344   3.209   4.893   2.514  0.2132  0.4124  0.6972
 7635WAT     H132345   3.157   4.828   2.560 -1.4535 -1.3594 -3.2861
 7635WAT     H232346   3.192   4.877   2.421  2.3483  4.4366 -0.6363
 7635WAT    EPW32347   3.200   4.883   2.508  0.2749  0.7095 -0.0042
 7636WAT      O32348   3.491   2.247   6.670  0.6230 -0.0364  0.1176
 7636WAT     H132349   3.497   2.340   6.691 -0.0656  0.1163 -0.3157
 7636WAT     H232350   3.404   2.237   6.631 -0.3454 -1.3007  2.4013
 7636WAT    EPW32351   3.480   2.258   6.668  0.4045 -0.1830  0.3617
 7637WAT      O32352  -0.562   6.702   7.016 -0.0641 -0.0794  0.1389
 7637WAT     H132353  -0.649   6.678   7.049  0.1614 -0.3971  0.5023
 7637WAT     H232354  -0.570   6.692   6.921 -0.3513 -0.3495  0.1879
 7637WAT    EPW32355  -0.575   6.697   7.008 -0.0722 -0.1574  0.1934
 7638WAT      O32356   1.059   4.863   1.370  0.7924  0.2709 -0.2424
 7638WAT     H132357   1.152   4.885   1.363  0.7685  0.6667  0.5694
 7638WAT     H232358   1.051   4.779   1.324  1.7437 -0.2750  0.5537
 7638WAT    EPW32359   1.070   4.855   1.363  0.9148  0.2513 -0.0304
 7639WAT      O32360  -2.807   8.557   1.280  0.7672  0.6995  0.5034
 7639WAT     H132361  -2.893   8.516   1.272 -0.3451  3.1506 -1.5009
 7639WAT     H232362  -2.814   8.611   1.359  0.4218  0.9390  0.3121
 7639WAT    EPW32363  -2.819   8.559   1.289  0.5749  1.0543  0.2138
 7640WAT      O32364   4.530   1.536   8.060  0.1291 -0.0158 -0.4845
 7640WAT     H132365   4.506   1.588   8.136  1.6350 -1.9025  1.4114
 7640WAT     H232366   4.494   1.449   8.079  1.6740 -0.8658 -1.2637
 7640WAT    EPW32367   4.522   1.531   8.072  0.5314 -0.3767 -0.3371
 7641WAT      O32368   0.090   7.900   3.132 -0.0507 -0.3193 -0.2294
 7641WAT     H132369   0.032   7.828   3.159 -0.0900 -1.0282 -2.0067
 7641WAT     H232370   0.169   7.856   3.101  0.1315  0.4285 -0.8482
 7641WAT    EPW32371   0.092   7.885   3.131 -0.0319 -0.3142 -0.5455
 7642WAT      O32372   4.465   6.208   1.274  0.2034 -0.0669  0.2743
 7642WAT     H132373   4.440   6.124   1.236 -0.5102 -0.9700  2.5573
 7642WAT     H232374   4.385   6.239   1.318  0.8871  1.0532  0.7858
 7642WAT    EPW32375   4.451   6.201   1.275  0.1996 -0.0384  0.6429
 7643WAT      O32376   2.676   0.776   4.864  0.8121  0.3404  0.0913
 7643WAT     H132377   2.624   0.805   4.788 -1.8852 -0.0342  1.6693
 7643WAT     H232378   2.718   0.856   4.896  0.5738  0.8254 -0.7672
 7643WAT    EPW32379   2.675   0.791   4.858  0.4249  0.3550  0.1860
 7644WAT      O32380  -5.146   4.366   8.090 -0.1877  0.1880  0.4937
 7644WAT     H132381  -5.175   4.456   8.095  2.9470  1.2630  2.2086
 7644WAT     H232382  -5.108   4.358   8.003  0.4356  0.8657  0.6952
 7644WAT    EPW32383  -5.145   4.377   8.079  0.3080  0.4194  0.7463
 7645WAT      O32384   6.167   5.228   0.852 -0.4234 -0.3978 -0.2253
 7645WAT     H132385   6.176   5.209   0.945 -1.2652 -0.5848 -0.1666
 7645WAT     H232386   6.073   5.240   0.840 -0.4938 -1.7555 -1.3020
 7645WAT    EPW32387   6.156   5.227   0.863 -0.5438 -0.6018 -0.3596
 7646WAT      O32388  -1.450   8.338   3.295  0.0445 -0.5502 -0.0637
 7646WAT     H132389  -1.396   8.383   3.231  1.4197 -1.2033  0.5928
 7646WAT     H232390  -1.453   8.247   3.265  0.1723 -0.7284  0.4495
 7646WAT    EPW32391  -1.443   8.332   3.283  0.2427 -0.6599  0.0907
 7647WAT      O32392  -2.829   7.837   6.898 -1.0566 -0.1194  0.3535
 7647WAT     H132393  -2.820   7.741   6.898 -0.3512 -0.0631 -0.5219
 7647WAT     H232394  -2.861   7.857   6.810  2.9857  0.7913 -1.1047
 7647WAT    EPW32395  -2.832   7.827   6.887 -0.4303  0.0081  0.0460
 7648WAT      O32396  -0.630   3.036   4.714  0.8543  0.6637  0.5075
 7648WAT     H132397  -0.547   2.998   4.743  0.9994 -0.2576 -0.9979
 7648WAT     H232398  -0.696   2.971   4.737  1.1909 -1.0628 -2.7737
 7648WAT    EPW32399  -0.628   3.022   4.721  0.9178  0.3145 -0.1240
 7649WAT      O32400   5.454   1.877   5.595 -0.2901  0.4316  0.1985
 7649WAT     H132401   5.522   1.945   5.601 -1.1510  1.2627  1.1543
 7649WAT     H232402   5.453   1.852   5.503 -0.4686  2.3162 -0.3694
 7649WAT    EPW32403   5.463   1.883   5.584 -0.4272  0.7898  0.2496
 7650WAT      O32404  -1.499   1.591   8.064  0.1330 -0.4967 -0.2802
 7650WAT     H132405  -1.489   1.633   8.149  1.6824  0.4972 -0.9095
 7650WAT     H232406  -1.484   1.498   8.081  0.4580 -0.3008  0.5291
 7650WAT    EPW32407  -1.495   1.584   8.077  0.3802 -0.3398 -0.2561
 7651WAT      O32408  -1.219   8.491   8.703  0.1472 -0.3476 -0.2385
 7651WAT     H132409  -1.183   8.529   8.623 -0.4704  0.2792 -0.2209
 7651WAT     H232410  -1.195   8.552   8.772  2.7465 -2.0310  0.4868
 7651WAT    EPW32411  -1.211   8.504   8.701  0.4085 -0.4869 -0.1402
 7652WAT      O32412   0.115   1.274   7.418  0.2795  0.5037  0.0889
 7652WAT     H132413   0.057   1.202   7.444 -0.0207  1.4264  2.2260
 7652WAT     H232414   0.195   1.259   7.468  0.4917  1.2089 -0.0259
 7652WAT    EPW32415   0.118   1.263   7.428  0.2679  0.7184  0.3555
 7653WAT      O32416   7.574   1.780   2.115  0.0078 -0.6168  0.7799
 7653WAT     H132417   7.606   1.751   2.200  0.8448  1.8727  1.4010
 7653WAT     H232418   7.616   1.865   2.101 -1.9004  0.1118 -1.0643
 7653WAT    EPW32419   7.584   1.787   2.124 -0.1333 -0.1923  0.6187
 7654WAT      O32420   1.768   0.067   1.328  0.4540 -0.1867  0.2318
 7654WAT     H132421   1.831   0.086   1.258  0.1772  0.9402  0.2642
 7654WAT     H232422   1.683   0.089   1.290 -0.0599 -2.4742 -0.0974
 7654WAT    EPW32423   1.765   0.072   1.314  0.3497 -0.3398  0.1927
 7655WAT      O32424   2.205   6.566   0.737  0.7199  0.0390 -0.8260
 7655WAT     H132425   2.285   6.525   0.705 -1.3962 -1.8624 -4.3394
 7655WAT     H232426   2.225   6.659   0.739  3.4631 -0.4744  0.1171
 7655WAT    EPW32427   2.218   6.573   0.733  0.8025 -0.2794 -1.1650
 7656WAT      O32428  -2.716   0.796   5.942  0.6475 -0.2413  0.0085
 7656WAT     H132429  -2.630   0.834   5.961 -0.6988  3.0051  0.1635
 7656WAT     H232430  -2.772   0.871   5.922 -1.8282 -2.3427 -1.6193
 7656WAT    EPW32431  -2.712   0.811   5.942  0.1434 -0.0903 -0.1857
 7657WAT      O32432  -1.235   8.835   0.350 -0.2728  0.3228 -0.3776
 7657WAT     H132433  -1.228   8.918   0.397 -2.6958  0.3487  0.0798
 7657WAT     H232434  -1.329   8.815   0.352  0.2026 -2.2494 -0.7908
 7657WAT    EPW32435  -1.247   8.843   0.357 -0.5296 -0.0129 -0.3718
 7658WAT      O32436   4.328   0.483   4.336  0.1238 -0.0424 -0.6373
 7658WAT     H132437   4.316   0.547   4.407 -0.4060 -1.4762  0.6180
 7658WAT     H232438   4.248   0.489   4.285 -0.7586 -0.9565  0.5697
 7658WAT    EPW32439   4.316   0.492   4.339 -0.0622 -0.3521 -0.3123
 7659WAT      O32440  -5.574   5.100   7.597 -0.0084  0.3829  0.2007
 7659WAT     H132441  -5.567   5.113   7.691 -0.3208 -3.4021  0.8954
 7659WAT     H232442  -5.660   5.062   7.584  0.6849 -0.7487 -1.3759
 7659WAT    EPW32443  -5.584   5.097   7.607  0.0420 -0.2656  0.0844
 7660WAT      O32444  -1.540  10.123   6.202  0.0629 -0.0368  0.0294
 7660WAT     H132445  -1.564  10.054   6.264 -0.1749 -0.3564 -0.4188
 7660WAT     H232446  -1.484  10.079   6.138  1.3498  0.5511  0.7001
 7660WAT    EPW32447  -1.535  10.108   6.202  0.2013 -0.0014  0.0587
 7661WAT      O32448   2.721   0.863   1.870 -0.2398 -0.4003 -0.4667
 7661WAT     H132449   2.718   0.931   1.937 -4.5783  1.1652 -1.8777
 7661WAT     H232450   2.775   0.900   1.800  2.6896 -1.2544  1.1711
 7661WAT    EPW32451   2.728   0.877   1.870 -0.4258 -0.3064 -0.4368
 7662WAT      O32452  -2.091   5.671   8.320  0.7840  0.1819 -0.0810
 7662WAT     H132453  -2.175   5.653   8.276  1.9590 -1.8950 -1.6970
 7662WAT     H232454  -2.115   5.722   8.397 -1.6400  2.2381 -2.0107
 7662WAT    EPW32455  -2.105   5.675   8.324  0.6192  0.1791 -0.5488
 7663WAT      O32456  -4.436   7.596   2.877 -0.7355  0.2080 -0.0934
 7663WAT     H132457  -4.482   7.661   2.822 -1.6653  1.4005  1.9876
 7663WAT     H232458  -4.377   7.648   2.931  0.7800 -1.0313 -0.4773
 7663WAT    EPW32459  -4.434   7.612   2.877 -0.6580  0.2017  0.1305
 7664WAT      O32460  -0.286   4.084   5.123  0.4602 -0.5788  0.6154
 7664WAT     H132461  -0.300   4.125   5.037 -0.0364  0.6355  1.2589
 7664WAT     H232462  -0.202   4.118   5.152  1.2923 -2.0665  0.0290
 7664WAT    EPW32463  -0.277   4.094   5.115  0.5045 -0.6149  0.6227
 7665WAT      O32464  -3.115   9.060   6.154 -0.3186 -0.2060  0.2331
 7665WAT     H132465  -3.110   8.964   6.160 -1.7604 -0.3023  0.3507
 7665WAT     H232466  -3.192   9.082   6.205 -0.7906  0.8965 -0.9115
 7665WAT    EPW32467  -3.124   9.050   6.161 -0.5710 -0.0734  0.0975
 7666WAT      O32468   0.317   2.183   1.104 -0.0743 -1.0031  0.1146
 7666WAT     H132469   0.291   2.118   1.169  0.0069 -2.1315 -0.9602
 7666WAT     H232470   0.384   2.140   1.051 -0.3003 -0.1919 -0.8675
 7666WAT    EPW32471   0.322   2.169   1.106 -0.0934 -1.0450 -0.1566
 7667WAT      O32472   1.491   8.711   0.397  0.2568  0.5337 -0.8313
 7667WAT     H132473   1.584   8.692   0.412 -0.3648 -1.0065  1.6287
 7667WAT     H232474   1.459   8.743   0.481 -2.1344 -2.1614 -0.5684
 7667WAT    EPW32475   1.499   8.713   0.410 -0.1405 -0.0248 -0.4722
 7668WAT      O32476   3.603   3.979   1.893 -0.3612 -0.9575 -0.0412
 7668WAT     H132477   3.651   3.909   1.937  2.2575  0.6443 -0.1566
 7668WAT     H232478   3.562   4.029   1.963  1.5659  0.0126  0.4401
 7668WAT    EPW32479   3.604   3.976   1.908  0.2383 -0.6183  0.0070
 7669WAT      O32480   1.461   0.580   6.938 -0.3525 -0.1680  0.5186
 7669WAT     H132481   1.449   0.621   7.023 -0.1322 -1.1932  1.0587
 7669WAT     H232482   1.397   0.509   6.936 -0.1742 -0.3176 -0.0663
 7669WAT    EPW32483   1.451   0.576   6.949 -0.3000 -0.3230  0.5126
 7670WAT      O32484  -3.459   5.606   7.663  0.4088  0.1888 -0.1128
 7670WAT     H132485  -3.372   5.626   7.629  1.1427 -1.1501  0.8652
 7670WAT     H232486  -3.443   5.549   7.738 -1.2308  1.2363  1.1289
 7670WAT    EPW32487  -3.446   5.601   7.669  0.2893  0.1504  0.1800
 7671WAT      O32488   5.399  10.090   2.564  0.5337  0.5269  0.5596
 7671WAT     H132489   5.447  10.156   2.613  1.4725 -0.7390  1.4313
 7671WAT     H232490   5.359  10.034   2.631 -2.9927  1.9914 -0.0928
 7671WAT    EPW32491   5.400  10.091   2.580  0.1926  0.5527  0.5885
 7672WAT      O32492  -1.276   6.931   1.389 -0.4720  0.5121 -0.3150
 7672WAT     H132493  -1.263   6.841   1.358  0.0045  0.3340  0.3714
 7672WAT     H232494  -1.191   6.956   1.424 -0.0713  1.8964 -2.1197
 7672WAT    EPW32495  -1.263   6.923   1.389 -0.3563  0.6711 -0.4625
 7673WAT      O32496   0.518   5.404   4.723 -0.1816  0.4643 -0.0611
 7673WAT     H132497   0.557   5.342   4.661  1.2709  1.1957  0.0810
 7673WAT     H232498   0.432   5.423   4.687 -0.4310 -1.1816 -0.4144
 7673WAT    EPW32499   0.512   5.398   4.710 -0.0229  0.3438 -0.0889
 7674WAT      O32500  -4.028   8.545   6.905  0.2565 -0.4918  0.2568
 7674WAT     H132501  -3.987   8.461   6.926  0.0278 -0.8281 -0.5870
 7674WAT     H232502  -3.992   8.568   6.819 -2.8957 -1.9125 -1.6280
 7674WAT    EPW32503  -4.018   8.537   6.896 -0.1895 -0.7238 -0.1032
 7675WAT      O32504  -6.082   4.154   8.393  0.1198  0.0030  0.2450
 7675WAT     H132505  -6.068   4.246   8.371 -0.1492 -0.0825 -0.3115
 7675WAT     H232506  -6.123   4.117   8.315  1.7009 -0.9747 -0.1550
 7675WAT    EPW32507  -6.086   4.162   8.380  0.2928 -0.1373  0.1183
 7676WAT      O32508  -1.030   3.171   5.872  0.6654  0.0202  0.8659
 7676WAT     H132509  -1.112   3.122   5.874  1.0580 -1.1541 -3.3299
 7676WAT     H232510  -0.970   3.120   5.927 -1.1173  0.7024  3.7060
 7676WAT    EPW32511  -1.033   3.158   5.880  0.4820 -0.0447  0.6871
 7677WAT      O32512   2.435   9.384   3.077 -0.3929  0.0043 -0.4695
 7677WAT     H132513   2.386   9.378   3.159 -0.3990  0.0109 -0.4726
 7677WAT     H232514   2.371   9.414   3.012 -0.5804 -0.7688 -0.6517
 7677WAT    EPW32515   2.420   9.387   3.079 -0.4183 -0.0968 -0.4939
 7678WAT      O32516   4.399   5.204   4.996 -0.3547 -0.1750 -0.0147
 7678WAT     H132517   4.466   5.160   5.047  0.5426 -0.3477 -1.2889
 7678WAT     H232518   4.415   5.176   4.906 -2.1556 -0.2519 -0.3651
 7678WAT    EPW32519   4.410   5.194   4.991 -0.4737 -0.2081 -0.2289
 7679WAT      O32520  -0.388   2.585   5.276  0.3325  1.3593 -0.5735
 7679WAT     H132521  -0.293   2.596   5.283  0.7355 -0.6556 -2.0204
 7679WAT     H232522  -0.415   2.648   5.209  0.8525  1.0368 -1.0879
 7679WAT    EPW32523  -0.379   2.595   5.268  0.4542  1.0511 -0.8323
 7680WAT      O32524  -0.715   2.218   4.562  0.5817  0.3392 -0.0306
 7680WAT     H132525  -0.655   2.172   4.503  0.8377 -1.2542  1.3812
 7680WAT     H232526  -0.663   2.237   4.640 -0.5030 -0.3852  0.9126
 7680WAT    EPW32527  -0.700   2.214   4.565  0.4724  0.0335  0.2799
 7681WAT      O32528   0.327   3.525   6.959  0.0820 -0.4339  0.3561
 7681WAT     H132529   0.382   3.486   6.891  0.1744  0.8842 -0.3524
 7681WAT     H232530   0.238   3.496   6.938  0.2473 -0.9348  0.3366
 7681WAT    EPW32531   0.322   3.516   6.948  0.1160 -0.3262  0.2601
 7682WAT      O32532   2.769   3.791   5.042 -0.9331 -0.2113 -0.3846
 7682WAT     H132533   2.781   3.789   5.137  1.4754 -0.6799 -0.6479
 7682WAT     H232534   2.806   3.875   5.015  0.1619 -0.8833 -1.0666
 7682WAT    EPW32535   2.775   3.802   5.051 -0.4710 -0.3617 -0.5093
 7683WAT      O32536   2.991   9.251   6.018 -0.3573  0.2417  0.1485
 7683WAT     H132537   2.912   9.238   5.964 -0.5708  2.5166 -0.1614
 7683WAT     H232538   2.957   9.273   6.105 -0.0042 -2.7241  1.1779
 7683WAT    EPW32539   2.976   9.252   6.022 -0.3389  0.1507  0.2434
 7684WAT      O32540   4.679   2.989   8.170 -0.1767  0.2928 -0.0756
 7684WAT     H132541   4.678   2.921   8.102 -2.4988  0.8347 -0.6437
 7684WAT     H232542   4.663   3.070   8.123  1.8354  1.2250  0.7067
 7684WAT    EPW32543   4.677   2.991   8.155 -0.2174  0.4873 -0.0477
 7685WAT      O32544   0.268   1.139   7.119  0.8424  0.5323 -0.3103
 7685WAT     H132545   0.356   1.159   7.086  0.2016  2.5539 -0.9120
 7685WAT     H232546   0.279   1.136   7.214  1.7534 -0.3328 -0.4265
 7685WAT    EPW32547   0.281   1.141   7.127  0.8780  0.6848 -0.4048
 7686WAT      O32548  -4.725   7.924   7.331 -0.4548  0.5203  0.4721
 7686WAT     H132549  -4.735   7.970   7.414  0.1231 -1.1376  1.5090
 7686WAT     H232550  -4.783   7.848   7.338  1.9654 -1.4418  0.7695
 7686WAT    EPW32551  -4.734   7.920   7.343 -0.0596  0.0429  0.6483
 7687WAT      O32552  -3.519   9.410   4.919  0.1133 -0.2567  0.2037
 7687WAT     H132553  -3.484   9.334   4.966 -2.4913 -1.0677  1.0178
 7687WAT     H232554  -3.551   9.468   4.988  2.8698  2.1669 -0.3474
 7687WAT    EPW32555  -3.519   9.407   4.934  0.1333 -0.0439  0.2387
 7688WAT      O32556   1.913   0.204   3.489  0.1234  0.9007 -0.2091
 7688WAT     H132557   1.966   0.144   3.437  2.2857  2.2885  0.2603
 7688WAT     H232558   1.941   0.188   3.579 -0.4810  1.4672  0.0844
 7688WAT    EPW32559   1.923   0.194   3.494  0.3288  1.1585 -0.1084
 7689WAT      O32560  -3.590   3.569   5.503 -0.4212 -0.0644  0.3189
 7689WAT     H132561  -3.528   3.582   5.575 -2.4949 -0.0797  2.2001
 7689WAT     H232562  -3.676   3.585   5.541 -1.6650 -0.4566 -2.0845
 7689WAT    EPW32563  -3.593   3.573   5.517 -0.8588 -0.1183  0.2501
 7690WAT      O32564  -4.334   9.714   8.522 -0.6164 -0.8938  0.9909
 7690WAT     H132565  -4.400   9.767   8.568 -1.0262 -0.8394  0.3522
 7690WAT     H232566  -4.379   9.632   8.502 -0.5188 -0.8218  0.4715
 7690WAT    EPW32567  -4.349   9.711   8.525 -0.6573 -0.8774  0.8378
 7691WAT      O32568   5.018   8.192   4.818 -0.0388 -0.6575 -0.9583
 7691WAT     H132569   5.047   8.234   4.899 -2.0036 -0.4385 -0.3151
 7691WAT     H232570   4.926   8.216   4.810  0.3217  0.1206 -3.8021
 7691WAT    EPW32571   5.010   8.200   4.828 -0.2506 -0.5260 -1.2486
 7692WAT      O32572  -4.600  10.133   8.485 -1.1094 -0.0637 -0.2463
 7692WAT     H132573  -4.506  10.135   8.467 -0.8073 -0.2773  1.1912
 7692WAT     H232574  -4.638  10.088   8.409  0.0625 -0.8524 -0.3855
 7692WAT    EPW32575  -4.592  10.127   8.472 -0.9151 -0.1955 -0.0749
 7693WAT      O32576   4.994   4.481   3.918 -0.3058 -0.4868  0.4464
 7693WAT     H132577   4.999   4.484   4.014 -2.5698 -0.5923  0.6216
 7693WAT     H232578   4.999   4.387   3.897  3.1976 -0.3890  0.1297
 7693WAT    EPW32579   4.996   4.469   3.928 -0.1423 -0.4878  0.4277
 7694WAT      O32580   3.006   2.218   0.523  0.0978  0.3305  0.6809
 7694WAT     H132581   3.070   2.224   0.594  0.6792  2.0642  0.0483
 7694WAT     H232582   2.991   2.308   0.497  0.4293 -0.3019 -1.8967
 7694WAT    EPW32583   3.012   2.230   0.529  0.2183  0.4756  0.2575
 7695WAT      O32584  -4.827   3.960   5.587 -0.9411 -0.1823  0.0742
 7695WAT     H132585  -4.796   3.878   5.550  1.0374  0.4735  0.1529
 7695WAT     H232586  -4.761   3.984   5.653 -1.8990  1.0590  0.6443
 7695WAT    EPW32587  -4.814   3.953   5.591 -0.8066  0.0678  0.1597
 7696WAT      O32588   5.064   2.786   2.066  0.3170  0.1865 -0.1709
 7696WAT     H132589   5.010   2.722   2.020 -1.0939 -0.8098  2.6345
 7696WAT     H232590   5.061   2.864   2.010  1.3247 -1.7980 -3.2344
 7696WAT    EPW32591   5.056   2.788   2.052  0.2637 -0.2067 -0.2049
 7697WAT      O32592   0.401   8.581   0.582  0.2871 -0.4069 -0.4065
 7697WAT     H132593   0.476   8.618   0.535 -0.3239 -0.5999 -1.5633
 7697WAT     H232594   0.407   8.619   0.670  1.9489 -0.6993 -0.3475
 7697WAT    EPW32595   0.412   8.591   0.588  0.4257 -0.4711 -0.5513
 7698WAT      O32596  -1.080   2.661   5.899 -0.4041  0.5255 -0.2133
 7698WAT     H132597  -1.139   2.626   5.966  0.4009  1.7852  1.2374
 7698WAT     H232598  -1.136   2.716   5.844 -0.8183  0.7312  0.3973
 7698WAT    EPW32599  -1.095   2.664   5.901 -0.3526  0.7187  0.0587
 7699WAT      O32600   1.985   8.683   1.414  0.1306  0.1652 -0.5158
 7699WAT     H132601   1.976   8.679   1.319  1.8287  1.6913 -0.7912
 7699WAT     H232602   2.007   8.774   1.433 -3.8666  0.8972  1.7694
 7699WAT    EPW32603   1.987   8.694   1.404 -0.1726  0.4630 -0.2507
 7700WAT      O32604   2.287   8.858   8.899 -0.3963 -0.1378  0.1277
 7700WAT     H132605   2.299   8.930   8.837  0.9426  1.4414  2.1070
 7700WAT     H232606   2.375   8.824   8.914 -0.9281 -1.7476 -0.2060
 7700WAT    EPW32607   2.300   8.863   8.892 -0.2898 -0.1416  0.3452
 7701WAT      O32608  -2.766   9.509   2.345 -0.1025  0.3043  0.3185
 7701WAT     H132609  -2.766   9.414   2.361  2.2130  0.6192  2.7621
 7701WAT     H232610  -2.689   9.524   2.290  1.0379  0.9807  2.0296
 7701WAT    EPW32611  -2.756   9.498   2.340  0.3532  0.4354  0.8665
 7702WAT      O32612  -4.669   2.678   7.087 -0.2539 -0.6218  0.2381
 7702WAT     H132613  -4.667   2.765   7.049  2.9168 -0.4575  0.4777
 7702WAT     H232614  -4.686   2.693   7.180  0.4963 -0.2205  0.3167
 7702WAT    EPW32615  -4.671   2.691   7.095  0.2635 -0.5472  0.2801
 7703WAT      O32616   2.412   9.961   3.354 -0.2206  0.3402 -0.0401
 7703WAT     H132617   2.490   9.985   3.404  0.3104  1.4994 -1.3579
 7703WAT     H232618   2.342  10.013   3.392  0.2474  1.4786 -0.6717
 7703WAT    EPW32619   2.413   9.971   3.366 -0.0888  0.6428 -0.2973
 7704WAT      O32620  -0.760   4.468   0.790  0.2144  0.5305 -0.2997
 7704WAT     H132621  -0.725   4.380   0.778 -0.1017 -0.0652  2.4634
 7704WAT     H232622  -0.836   4.456   0.847  1.0570  2.6626  1.4485
 7704WAT    EPW32623  -0.765   4.455   0.796  0.2839  0.7331  0.2953
 7705WAT      O32624   2.487   1.791   4.758  0.0433  0.5133  0.1041
 7705WAT     H132625   2.496   1.808   4.664  0.2386  0.3363  0.0892
 7705WAT     H232626   2.451   1.872   4.794 -2.1176 -0.1360 -0.4481
 7705WAT    EPW32627   2.484   1.803   4.750 -0.2160  0.4043  0.0291
 7706WAT      O32628  -0.693   3.508   0.595 -0.3627  0.8717 -0.1971
 7706WAT     H132629  -0.784   3.531   0.609 -0.1921  1.2361  0.3533
 7706WAT     H232630  -0.661   3.572   0.531 -0.1128  1.6635  0.7004
 7706WAT    EPW32631  -0.701   3.519   0.588 -0.3072  1.0242 -0.0061
 7707WAT      O32632  -2.914   1.045   8.853  0.0072  0.7478  0.3065
 7707WAT     H132633  -2.859   1.063   8.929  0.7619  0.7406 -0.2235
 7707WAT     H232634  -2.909   0.951   8.841  1.9123  0.9576 -1.1845
 7707WAT    EPW32635  -2.906   1.035   8.861  0.3580  0.7745  0.0401
 7708WAT      O32636   0.823   4.954   2.416 -0.0918 -0.1529  0.0732
 7708WAT     H132637   0.854   4.918   2.333  0.4108 -1.8731  0.9671
 7708WAT     H232638   0.797   4.878   2.468  0.0136  0.8344  1.6627
 7708WAT    EPW32639   0.823   4.939   2.412 -0.0116 -0.2496  0.4008
 7709WAT      O32640  -0.857   6.222   3.435  0.3262 -0.6929  0.1665
 7709WAT     H132641  -0.795   6.291   3.461 -0.0125 -1.1653  2.3867
 7709WAT     H232642  -0.941   6.268   3.426  0.2396 -0.6825  0.9649
 7709WAT    EPW32643  -0.860   6.237   3.437  0.2701 -0.7539  0.5647
 7710WAT      O32644  -0.459   9.788   3.098 -0.1085 -0.0514  0.0002
 7710WAT     H132645  -0.522   9.825   3.036  0.5449  0.5574 -0.3095
 7710WAT     H232646  -0.490   9.817   3.184 -0.0229  0.6014 -0.1840
 7710WAT    EPW32647  -0.471   9.796   3.101 -0.0110  0.1149 -0.0650
 7711WAT      O32648  -2.144   8.869   4.338 -0.1130 -0.1946 -0.2041
 7711WAT     H132649  -2.122   8.947   4.287 -0.9391  0.5239  0.5050
 7711WAT     H232650  -2.077   8.867   4.407  1.9181 -1.9968 -2.0648
 7711WAT    EPW32651  -2.132   8.879   4.341  0.0460 -0.3376 -0.3560
 7712WAT      O32652   7.130   2.988   4.405  0.0136  0.1166 -0.2540
 7712WAT     H132653   7.148   2.977   4.312 -0.5469  2.6908 -0.7266
 7712WAT     H232654   7.044   2.948   4.418 -0.5433  0.9937 -1.1586
 7712WAT    EPW32655   7.121   2.981   4.395 -0.1340  0.5718 -0.4356
 7713WAT      O32656   4.013   5.860   5.988  0.2084  0.3403  0.1483
 7713WAT     H132657   4.032   5.867   5.894  0.1294 -0.1065  0.0940
 7713WAT     H232658   3.934   5.807   5.992  0.5309 -0.1215  0.4889
 7713WAT    EPW32659   4.005   5.854   5.976  0.2403  0.2208  0.1862
 7714WAT      O32660   0.494   2.943   8.109  0.5380  0.3012 -0.0617
 7714WAT     H132661   0.554   3.017   8.101  0.8352  0.0218 -0.4072
 7714WAT     H232662   0.407   2.982   8.103  0.6864  0.3348 -3.0398
 7714WAT    EPW32663   0.490   2.958   8.107  0.5968  0.2688 -0.4997
 7715WAT      O32664   1.558   8.039   1.391  0.7323 -0.6212 -0.0390
 7715WAT     H132665   1.636   7.999   1.430  0.7348 -1.1080 -0.5286
 7715WAT     H232666   1.486   8.015   1.450  0.9870  0.0269  0.5378
 7715WAT    EPW32667   1.559   8.030   1.404  0.7663 -0.5999 -0.0275
 7716WAT      O32668  -1.537   9.821   3.726  0.4356  0.5092 -0.3298
 7716WAT     H132669  -1.520   9.776   3.643 -0.7066  0.6656 -0.6747
 7716WAT     H232670  -1.512   9.912   3.709 -0.8332  0.7781 -0.8917
 7716WAT    EPW32671  -1.532   9.827   3.712  0.1175  0.5651 -0.4494
 7717WAT      O32672   3.006   0.515   0.845  0.2408 -0.0780 -0.0904
 7717WAT     H132673   3.016   0.531   0.939 -3.1101 -0.1747  0.4161
 7717WAT     H232674   3.018   0.421   0.835 -1.2437 -0.3663  0.6090
 7717WAT    EPW32675   3.009   0.505   0.856 -0.3970 -0.1287  0.0687
 7718WAT      O32676   0.608   3.747   0.442  0.0659 -0.0031 -0.1453
 7718WAT     H132677   0.648   3.826   0.404  0.6811  0.1602  0.8098
 7718WAT     H232678   0.563   3.705   0.369 -0.8835  1.6125 -0.5418
 7718WAT    EPW32679   0.607   3.752   0.427  0.0218  0.2316 -0.0716
 7719WAT      O32680   2.350   1.121   3.399  0.4068 -0.0415  0.6336
 7719WAT     H132681   2.372   1.074   3.319  2.0002  0.2712  0.8622
 7719WAT     H232682   2.354   1.214   3.375 -0.2022  0.0374  0.8138
 7719WAT    EPW32683   2.354   1.127   3.386  0.5366  0.0101  0.6875
 7720WAT      O32684   2.997   2.994   5.413 -0.1108  0.0396  0.2395
 7720WAT     H132685   3.041   2.937   5.476 -2.0109 -1.0117  0.7051
 7720WAT     H232686   3.063   3.059   5.389  2.1078 -2.1758 -0.1196
 7720WAT    EPW32687   3.012   2.995   5.418 -0.0688 -0.3912  0.2534
 7721WAT      O32688   6.381   1.748   0.551 -0.0763 -0.2103 -0.2797
 7721WAT     H132689   6.298   1.784   0.520 -1.0300 -0.8422  1.3947
 7721WAT     H232690   6.355   1.677   0.611  1.6892 -0.9724 -0.3616
 7721WAT    EPW32691   6.366   1.743   0.555  0.0308 -0.3941 -0.0696
 7722WAT      O32692  -0.659   4.461   4.819 -0.0837  0.3545  0.1737
 7722WAT     H132693  -0.755   4.464   4.814 -0.0094  1.3828 -1.1864
 7722WAT     H232694  -0.636   4.539   4.870  0.0390  0.0638  0.5697
 7722WAT    EPW32695  -0.669   4.472   4.825 -0.0577  0.4518  0.0467
 7723WAT      O32696   0.095   6.686   7.286  0.7311  0.3017 -0.2309
 7723WAT     H132697   0.122   6.775   7.308  1.4706 -0.1599  0.8014
 7723WAT     H232698   0.146   6.630   7.346 -0.4335 -0.7546 -0.1962
 7723WAT    EPW32699   0.105   6.690   7.297  0.6750  0.1016 -0.0904
 7724WAT      O32700  -5.741   4.786   7.532 -0.0398 -0.3718  0.2173
 7724WAT     H132701  -5.654   4.749   7.546 -1.4633 -4.5660 -0.5505
 7724WAT     H232702  -5.782   4.783   7.619 -0.0309 -0.1727  0.2288
 7724WAT    EPW32703  -5.735   4.780   7.546 -0.2263 -0.8988  0.1173
 7725WAT      O32704  -2.926   3.280   7.108  0.3441 -0.2254 -0.6863
 7725WAT     H132705  -2.985   3.268   7.182 -0.8110 -0.2083 -1.5854
 7725WAT     H232706  -2.946   3.207   7.049  0.4697  0.3788 -1.4845
 7725WAT    EPW32707  -2.936   3.269   7.110  0.2083 -0.1434 -0.9103
 7726WAT      O32708   5.171   2.772   3.279  0.2293  0.1537 -0.2446
 7726WAT     H132709   5.243   2.774   3.342  0.9169  0.0645 -1.0113
 7726WAT     H232710   5.092   2.768   3.333  0.7702  0.8150  0.6164
 7726WAT    EPW32711   5.170   2.772   3.294  0.3912  0.2291 -0.2321
 7727WAT      O32712   5.952   4.696   4.682 -0.0252 -0.1978 -0.0077
 7727WAT     H132713   5.927   4.734   4.766 -1.3138 -0.2570 -0.3512
 7727WAT     H232714   5.983   4.771   4.630  0.9007 -0.1808  0.5477
 7727WAT    EPW32715   5.953   4.711   4.686 -0.0730 -0.2031  0.0203
 7728WAT      O32716   6.332   7.166   2.743 -0.1281  0.2260  0.0455
 7728WAT     H132717   6.323   7.097   2.676  0.7596  1.7417 -1.7446
 7728WAT     H232718   6.242   7.187   2.768 -0.5100 -0.2020 -0.9064
 7728WAT    EPW32719   6.319   7.160   2.737 -0.0615  0.3695 -0.3161
 7729WAT      O32720  -2.202   5.276   4.748 -0.2398 -0.5591  0.3357
 7729WAT     H132721  -2.223   5.257   4.657 -2.3048 -2.8551  1.1730
 7729WAT     H232722  -2.275   5.329   4.779  0.9917  1.1512  0.4283
 7729WAT    EPW32723  -2.215   5.280   4.740 -0.3496 -0.6363  0.4585
 7730WAT      O32724   6.409   1.983   6.016 -0.4778 -0.6109  0.2734
 7730WAT     H132725   6.327   1.974   5.967  0.3151 -2.0892 -0.8890
 7730WAT     H232726   6.407   1.910   6.079  0.5056 -1.5384 -0.7072
 7730WAT    EPW32727   6.398   1.972   6.018 -0.2434 -0.9282 -0.0093
 7731WAT      O32728  -4.273   9.230   7.341 -0.5066 -0.0652 -0.7942
 7731WAT     H132729  -4.186   9.243   7.379 -0.2800  0.6201 -1.5157
 7731WAT     H232730  -4.278   9.136   7.325 -0.0370 -0.1571 -0.4174
 7731WAT    EPW32731  -4.262   9.220   7.344 -0.4146  0.0134 -0.8395
 7732WAT      O32732  -2.336   0.484   3.843  0.5873  0.8803 -0.5179
 7732WAT     H132733  -2.322   0.474   3.937  1.9337  1.0969 -0.6822
 7732WAT     H232734  -2.407   0.422   3.823  0.8650  0.2065  0.4861
 7732WAT    EPW32735  -2.343   0.474   3.853  0.8016  0.8200 -0.4072
 7733WAT      O32736   1.119   0.795   8.882  0.2332 -0.5463  0.4381
 7733WAT     H132737   1.096   0.873   8.933 -1.0747  0.3362 -1.3780
 7733WAT     H232738   1.068   0.724   8.920 -0.7273  0.0968  0.3663
 7733WAT    EPW32739   1.109   0.796   8.893 -0.0659 -0.3451  0.1893
 7734WAT      O32740   1.362   7.428   2.770 -0.5990  0.3838 -0.0821
 7734WAT     H132741   1.346   7.447   2.862 -1.1680  3.3545 -0.6864
 7734WAT     H232742   1.306   7.490   2.723  2.5071  1.7380 -2.3612
 7734WAT    EPW32743   1.353   7.439   2.776 -0.2643  0.9542 -0.4624
 7735WAT      O32744   4.170   7.355   0.276 -0.0802 -0.7071 -0.0777
 7735WAT     H132745   4.217   7.272   0.262 -2.1490 -1.9367 -0.1478
 7735WAT     H232746   4.218   7.398   0.347  1.2522 -1.8018 -0.2823
 7735WAT    EPW32747   4.183   7.350   0.284 -0.1774 -1.0138 -0.1139
 7736WAT      O32748   0.962   5.188   7.919 -0.3429 -0.3293 -0.8444
 7736WAT     H132749   0.922   5.249   7.980 -0.0500  0.4611 -1.4086
 7736WAT     H232750   1.044   5.163   7.961  0.4173  1.1147 -1.3806
 7736WAT    EPW32751   0.968   5.193   7.932 -0.2040 -0.0346 -0.9894
 7737WAT      O32752  -3.020   3.626   7.140 -0.6148  0.0437  0.2331
 7737WAT     H132753  -3.026   3.589   7.051 -2.3689  1.9429 -0.5184
 7737WAT     H232754  -3.058   3.559   7.196  1.5228 -1.6677 -0.2273
 7737WAT    EPW32755  -3.026   3.612   7.135 -0.5642  0.0684  0.0730
 7738WAT      O32756  -3.334   3.487   8.168 -0.0881  0.4573 -0.4727
 7738WAT     H132757  -3.258   3.539   8.195  1.0370 -0.1309 -2.2980
 7738WAT     H232758  -3.388   3.549   8.118 -1.9551  1.4323  2.5107
 7738WAT    EPW32759  -3.331   3.502   8.165 -0.1860  0.5083 -0.3200
 7739WAT      O32760   7.731   3.576   1.091 -0.3894  0.8954  0.0015
 7739WAT     H132761   7.803   3.521   1.058  0.8208  2.9489 -0.9756
 7739WAT     H232762   7.715   3.639   1.021 -0.6174  2.7892  1.6712
 7739WAT    EPW32763   7.738   3.577   1.077 -0.2599  1.4161  0.0929
 7740WAT      O32764   3.395   6.360   1.596  0.2607  0.6324 -0.5780
 7740WAT     H132765   3.484   6.387   1.573  0.4280  0.7447  0.1759
 7740WAT     H232766   3.371   6.417   1.669 -0.0208 -0.1354 -0.0661
 7740WAT    EPW32767   3.404   6.371   1.602  0.2456  0.5460 -0.4111
 7741WAT      O32768   6.906   1.911   2.185 -0.2966 -0.0378  0.0467
 7741WAT     H132769   6.817   1.879   2.196 -0.4258 -0.1196 -1.0913
 7741WAT     H232770   6.940   1.861   2.111  1.0166 -0.6602  1.0254
 7741WAT    EPW32771   6.899   1.900   2.176 -0.1407 -0.1307  0.0257
 7742WAT      O32772  -3.986   7.912   7.035  0.2222  0.4414  0.1296
 7742WAT     H132773  -3.944   7.873   7.112  0.4997 -0.4153 -0.4383
 7742WAT     H232774  -3.916   7.918   6.970  0.2070  1.9999  0.2187
 7742WAT    EPW32775  -3.971   7.907   7.037  0.2568  0.5341  0.0665
 7743WAT      O32776   5.266   3.339   3.911  0.6966 -0.2895 -0.4123
 7743WAT     H132777   5.309   3.254   3.903  2.9217  0.6005  1.1522
 7743WAT     H232778   5.270   3.376   3.823 -1.3673 -2.2015 -1.4036
 7743WAT    EPW32779   5.272   3.333   3.898  0.7179 -0.4243 -0.3368
 7744WAT      O32780  -2.663  10.241   4.361  0.2970  0.6231  0.0628
 7744WAT     H132781  -2.706  10.233   4.276  1.1898  0.3201 -0.3791
 7744WAT     H232782  -2.570  10.243   4.340  0.6281 -1.0896  1.1156
 7744WAT    EPW32783  -2.657  10.240   4.347  0.4584  0.3567  0.1433
 7745WAT      O32784   7.468   0.297   4.622  0.0651  0.8684  0.0378
 7745WAT     H132785   7.411   0.224   4.644  0.3944  0.9046  1.0745
 7745WAT     H232786   7.555   0.269   4.650  0.0744  1.9534  1.2333
 7745WAT    EPW32787   7.472   0.284   4.629  0.1099  1.0163  0.3321
 7746WAT      O32788   0.439   9.104   4.867  0.1466  0.3431 -0.8776
 7746WAT     H132789   0.437   9.022   4.817  0.0106 -0.6510  0.6918
 7746WAT     H232790   0.530   9.134   4.860  0.4064 -0.4004 -0.7512
 7746WAT    EPW32791   0.451   9.097   4.859  0.1629  0.1135 -0.6540
 7747WAT      O32792  -0.882   9.399   3.234  0.1878  0.2528  0.7419
 7747WAT     H132793  -0.934   9.344   3.292  0.2371  0.2712  0.8032
 7747WAT     H232794  -0.865   9.478   3.284  0.9184 -0.0597  1.0122
 7747WAT    EPW32795  -0.886   9.402   3.248  0.2906  0.2141  0.7856
 7748WAT      O32796  -0.024   3.959   1.233 -0.2537  0.4125  0.7640
 7748WAT     H132797   0.051   4.019   1.227  0.9596 -0.9917  1.2308
 7748WAT     H232798  -0.094   4.003   1.185  1.7524  0.4174 -2.4225
 7748WAT    EPW32799  -0.023   3.973   1.226  0.1709  0.2279  0.4053
 7749WAT      O32800   6.972   0.532   6.146 -0.3722 -0.5597  0.4240
 7749WAT     H132801   7.009   0.515   6.060  1.7377 -2.7043  1.6495
 7749WAT     H232802   6.991   0.625   6.163  0.7848 -0.5793 -0.6722
 7749WAT    EPW32803   6.979   0.542   6.137  0.0589 -0.8452  0.4411
 7750WAT      O32804   6.513   7.033   1.443 -0.2500  0.1749 -0.2266
 7750WAT     H132805   6.490   7.001   1.530 -1.7362  0.3748 -0.5222
 7750WAT     H232806   6.546   6.955   1.398 -1.7927 -0.5068 -0.2498
 7750WAT    EPW32807   6.515   7.018   1.449 -0.6495  0.1111 -0.2688
 7751WAT      O32808  -0.450   9.318   2.211  0.4985 -0.4782  0.5223
 7751WAT     H132809  -0.441   9.289   2.120 -2.8336  0.3491 -0.2238
 7751WAT     H232810  -0.466   9.412   2.205  0.4857 -0.3558  1.9851
 7751WAT    EPW32811  -0.451   9.326   2.198  0.0573 -0.3529  0.6168
 7752WAT      O32812  -3.154   4.581   2.789 -0.8335 -0.4230 -0.5173
 7752WAT     H132813  -3.093   4.631   2.735 -0.6163  1.2670  1.1893
 7752WAT     H232814  -3.141   4.615   2.877 -1.0520 -3.1884  0.6720
 7752WAT    EPW32815  -3.144   4.592   2.793 -0.8336 -0.5648 -0.1354
 7753WAT      O32816   0.825   7.001   8.030  0.6175  1.2178 -0.5425
 7753WAT     H132817   0.892   6.987   7.964  0.2341 -1.4930 -0.4424
 7753WAT     H232818   0.860   6.959   8.109 -1.8475 -1.8779 -0.9500
 7753WAT    EPW32819   0.839   6.994   8.032  0.2418  0.4520 -0.5832
 7754WAT      O32820   1.768   9.963   8.068  0.3048 -0.3668  0.9345
 7754WAT     H132821   1.803   9.931   8.151  1.9269  0.6863  0.6874
 7754WAT     H232822   1.721  10.043   8.091  0.2153 -0.4136  0.9171
 7754WAT    EPW32823   1.766   9.969   8.082  0.5069 -0.2341  0.8998
 7755WAT      O32824   5.603   8.601   0.887  0.2784  0.2897  0.3644
 7755WAT     H132825   5.580   8.694   0.886  1.1776  0.5369  0.9816
 7755WAT     H232826   5.521   8.556   0.907 -0.0609  0.9959  0.5886
 7755WAT    EPW32827   5.589   8.607   0.890  0.3521  0.4153  0.4753
 7756WAT      O32828   2.996   0.049   7.454 -0.7891 -0.4796  0.3178
 7756WAT     H132829   2.949   0.013   7.379 -0.3366 -1.2763  0.4064
 7756WAT     H232830   3.080   0.077   7.418 -1.0556  0.3162  0.2913
 7756WAT    EPW32831   3.001   0.048   7.439 -0.7646 -0.4797  0.3262
 7757WAT      O32832  -2.467   8.021   1.295 -0.2080 -0.3331  0.6567
 7757WAT     H132833  -2.525   8.042   1.222 -0.3109  0.0591  0.8497
 7757WAT     H232834  -2.513   7.953   1.344 -0.2047 -0.4934  0.4375
 7757WAT    EPW32835  -2.481   8.015   1.292 -0.2211 -0.3028  0.6533
 7758WAT      O32836  -0.613  10.266   4.112 -0.0882 -0.0673  0.6698
 7758WAT     H132837  -0.557  10.294   4.184  0.8108 -3.9529  1.6941
 7758WAT     H232838  -0.552  10.248   4.040 -0.5965  0.3215  0.1279
 7758WAT    EPW32839  -0.598  10.268   4.112 -0.0367 -0.5283  0.7336
 7759WAT      O32840  -0.252   3.582   8.532  0.2461  0.2389  0.5362
 7759WAT     H132841  -0.193   3.507   8.532 -1.3484 -1.0841 -0.0430
 7759WAT     H232842  -0.336   3.545   8.561 -0.3421  2.0136  1.1906
 7759WAT    EPW32843  -0.255   3.567   8.536 -0.0418  0.2984  0.5460
 7760WAT      O32844   1.676   1.346   5.269  0.9611  0.1669  0.1727
 7760WAT     H132845   1.639   1.419   5.219  3.0364  0.2395 -1.4079
 7760WAT     H232846   1.616   1.273   5.253  0.0257  0.9436  0.0034
 7760WAT    EPW32847   1.663   1.346   5.260  1.1114  0.2789 -0.0582
 7761WAT      O32848   3.981   7.707   2.762  0.6333  0.0771 -0.1139
 7761WAT     H132849   3.953   7.791   2.797 -1.4573  0.3109 -2.1234
 7761WAT     H232850   3.948   7.642   2.824 -1.8368  0.5445 -0.8458
 7761WAT    EPW32851   3.973   7.709   2.775  0.0317  0.1698 -0.4755
 7762WAT      O32852   4.257   6.542   4.104 -0.4260 -0.1607  0.3989
 7762WAT     H132853   4.210   6.491   4.038  0.3519 -2.1289  1.2818
 7762WAT     H232854   4.194   6.606   4.136 -1.9328 -1.5406  0.2799
 7762WAT    EPW32855   4.243   6.543   4.099 -0.5221 -0.6020  0.4997
 7763WAT      O32856  -0.194   6.849   4.899 -0.0630 -0.1151  0.0349
 7763WAT     H132857  -0.142   6.860   4.979  1.1371 -1.1059 -0.5844
 7763WAT     H232858  -0.140   6.885   4.829 -1.6832  2.0730 -0.2279
 7763WAT    EPW32859  -0.180   6.855   4.901 -0.1184  0.0429 -0.0813
 7764WAT      O32860  -2.077   0.730   5.392  0.6091  0.5931  0.1895
 7764WAT     H132861  -2.069   0.765   5.303 -0.9370  0.0378 -0.2109
 7764WAT     H232862  -2.135   0.792   5.437 -0.8547 -0.5561 -0.0504
 7764WAT    EPW32863  -2.084   0.743   5.386  0.2122  0.3683  0.1051
 7765WAT      O32864  -4.517   9.823   7.818  0.5646  0.7688 -0.0033
 7765WAT     H132865  -4.578   9.896   7.833  1.9561  1.9234  0.2345
 7765WAT     H232866  -4.529   9.767   7.895  0.5025  1.4856  0.5181
 7765WAT    EPW32867  -4.527   9.825   7.830  0.7401  1.0157  0.0968
 7766WAT      O32868  -0.467   1.508   2.195 -0.4889  0.3962 -0.4012
 7766WAT     H132869  -0.532   1.472   2.135 -1.5541 -0.2335  1.0406
 7766WAT     H232870  -0.505   1.592   2.223 -0.8938 -0.1211  0.6923
 7766WAT    EPW32871  -0.481   1.514   2.191 -0.6828  0.2449 -0.0668
 7767WAT      O32872  -4.321   9.677   3.803 -0.0458  0.2518 -0.7772
 7767WAT     H132873  -4.249   9.660   3.742  0.2265  1.3281 -0.7628
 7767WAT     H232874  -4.335   9.771   3.798 -1.5708  0.0471 -0.9066
 7767WAT    EPW32875  -4.313   9.687   3.794 -0.2110  0.3667 -0.7924
 7768WAT      O32876   1.622   0.152   5.229  0.3853  0.9132  0.1973
 7768WAT     H132877   1.590   0.083   5.171 -1.9425  2.6517 -0.7844
 7768WAT     H232878   1.596   0.125   5.317  0.3730  0.1083 -0.0521
 7768WAT    EPW32879   1.614   0.140   5.233  0.0766  1.0363  0.0353
 7769WAT      O32880   6.397   7.465   0.108 -0.0958 -0.3972  0.5803
 7769WAT     H132881   6.446   7.417   0.042  0.5813 -1.3842  1.7577
 7769WAT     H232882   6.338   7.400   0.147  0.8935 -0.3516  2.2597
 7769WAT    EPW32883   6.396   7.450   0.104  0.1240 -0.5214  0.9571
 7770WAT      O32884  -2.775   8.016   1.761 -0.3138  0.1968 -0.9910
 7770WAT     H132885  -2.724   7.964   1.698  2.7083  1.3667  0.3126
 7770WAT     H232886  -2.791   7.956   1.834 -0.8802 -0.1744 -1.4047
 7770WAT    EPW32887  -2.771   8.001   1.762  0.0100  0.3023 -0.8736
 7771WAT      O32888  -2.178   6.546   4.202  0.0760 -0.1118  0.3317
 7771WAT     H132889  -2.170   6.556   4.107  1.1968  2.4487  0.6160
 7771WAT     H232890  -2.272   6.554   4.219  0.0298  1.3741 -0.4399
 7771WAT    EPW32891  -2.190   6.548   4.192  0.2178  0.4220  0.2675
 7772WAT      O32892   3.852   1.700   8.122  0.0237  1.0592 -0.2093
 7772WAT     H132893   3.927   1.641   8.115 -2.2470 -2.0353 -0.4733
 7772WAT     H232894   3.814   1.700   8.034 -1.7076  0.4797  0.5082
 7772WAT    EPW32895   3.857   1.692   8.109 -0.5041  0.5746 -0.1497
 7773WAT      O32896  -0.643   0.162   3.648  0.8061 -0.0057  0.8310
 7773WAT     H132897  -0.694   0.135   3.725  0.0516 -2.2684 -0.3509
 7773WAT     H232898  -0.696   0.230   3.608  0.9111  0.7696  1.9724
 7773WAT    EPW32899  -0.657   0.167   3.653  0.7204 -0.2019  0.8256
 7774WAT      O32900  -0.137   8.749   4.421 -0.6175 -0.3318 -0.2335
 7774WAT     H132901  -0.174   8.778   4.504 -2.0286  0.1013 -0.9804
 7774WAT     H232902  -0.184   8.668   4.400  0.2053 -0.8090 -0.3066
 7774WAT    EPW32903  -0.148   8.742   4.429 -0.6951 -0.3376 -0.3417
 7775WAT      O32904   4.890   0.222   4.526 -0.1731  0.1505  0.2240
 7775WAT     H132905   4.797   0.244   4.519 -0.1780  1.0198  2.3865
 7775WAT     H232906   4.914   0.247   4.615  2.2506  0.3328 -0.4140
 7775WAT    EPW32907   4.881   0.228   4.537  0.1459  0.2892  0.4251
 7776WAT      O32908  -0.676   3.174   2.877  0.2058 -0.5450 -0.0468
 7776WAT     H132909  -0.613   3.167   2.806  1.0273 -0.2392  0.6407
 7776WAT     H232910  -0.666   3.092   2.927 -1.0930 -1.2309 -0.8405
 7776WAT    EPW32911  -0.667   3.162   2.874  0.1428 -0.5951 -0.0608
 7777WAT      O32912  -2.916   7.047   1.523  0.5236 -0.4664 -0.3401
 7777WAT     H132913  -2.862   7.072   1.598  0.8570 -5.1711  1.3089
 7777WAT     H232914  -3.005   7.048   1.557  0.2865  0.4337 -0.9378
 7777WAT    EPW32915  -2.920   7.051   1.538  0.5363 -0.9682 -0.2015
 7778WAT      O32916  -2.430   6.153   0.743 -0.6347 -0.2593 -0.0440
 7778WAT     H132917  -2.497   6.180   0.806 -1.4314  2.4173 -1.8964
 7778WAT     H232918  -2.480   6.118   0.669  0.1837 -0.7896 -0.3591
 7778WAT    EPW32919  -2.445   6.152   0.741 -0.6319  0.0238 -0.3299
 7779WAT      O32920  -0.120   1.043   2.425 -0.2562 -0.5073 -0.5012
 7779WAT     H132921  -0.169   1.092   2.491 -0.1182  0.8888 -1.3786
 7779WAT     H232922  -0.055   1.106   2.393  2.5876 -2.4526  1.0509
 7779WAT    EPW32923  -0.118   1.058   2.430  0.1371 -0.5797 -0.4121
 7780WAT      O32924  -1.069  10.074   2.072 -0.0441 -0.3399 -0.5064
 7780WAT     H132925  -1.064  10.156   2.023 -1.4539 -0.5835 -1.1025
 7780WAT     H232926  -0.978  10.044   2.078  0.8217  2.2585  1.5368
 7780WAT    EPW32927  -1.056  10.081   2.066 -0.1159 -0.0296 -0.3155
 7781WAT      O32928  -3.196   3.655   7.368  0.0805 -0.0596 -0.6209
 7781WAT     H132929  -3.193   3.617   7.456  0.8525  0.7373 -0.2778
 7781WAT     H232930  -3.284   3.690   7.360  0.1203  0.1930 -0.0094
 7781WAT    EPW32931  -3.207   3.655   7.379  0.1875  0.0789 -0.4947
 7782WAT      O32932   4.608   6.686   3.523 -0.1334  0.4521 -0.1388
 7782WAT     H132933   4.582   6.754   3.586 -0.3682 -0.0625  0.3339
 7782WAT     H232934   4.682   6.642   3.565  1.0962  1.4490 -1.1639
 7782WAT    EPW32935   4.614   6.689   3.537 -0.0024  0.5157 -0.2117
 7783WAT      O32936   1.077   9.196   8.855 -0.0151  0.7725  0.6496
 7783WAT     H132937   1.103   9.288   8.861 -1.7845  1.4211 -0.7808
 7783WAT     H232938   1.014   9.184   8.926 -0.9758  1.1393 -0.1136
 7783WAT    EPW32939   1.072   9.207   8.865 -0.3752  0.9065  0.3600
 7784WAT      O32940   4.369   3.335   7.913  0.5887 -0.6539  0.3961
 7784WAT     H132941   4.297   3.350   7.974  1.2592  0.6931  0.8990
 7784WAT     H232942   4.409   3.421   7.902  0.8432 -0.9748 -1.5189
 7784WAT    EPW32943   4.365   3.348   7.919  0.7105 -0.5187  0.2098
 7785WAT      O32944   2.139  10.021   0.018 -0.2581 -0.0887 -0.5543
 7785WAT     H132945   2.183   9.941  -0.010 -0.5986 -0.5440  0.1744
 7785WAT     H232946   2.063   9.990   0.068 -0.6958  0.6890 -0.7230
 7785WAT    EPW32947   2.135  10.006   0.021 -0.3607 -0.0458 -0.4805
 7786WAT      O32948   0.253   9.685   3.243 -0.0327  0.3496 -0.4917
 7786WAT     H132949   0.248   9.705   3.150  2.7009  1.7230 -0.4423
 7786WAT     H232950   0.282   9.594   3.246 -0.1897  0.2794 -0.9747
 7786WAT    EPW32951   0.256   9.676   3.231  0.3071  0.5217 -0.5487
 7787WAT      O32952  -4.203   7.807   2.337  0.2938 -0.0733 -0.3614
 7787WAT     H132953  -4.210   7.730   2.393  1.1470  0.7791  0.9834
 7787WAT     H232954  -4.113   7.805   2.304  0.3614  0.4107 -0.2138
 7787WAT    EPW32955  -4.192   7.797   2.340  0.4153  0.1030 -0.1645
 7788WAT      O32956   5.612   1.405   2.714  0.1280 -0.2835 -0.1965
 7788WAT     H132957   5.528   1.385   2.673  0.0715 -2.6807  0.9366
 7788WAT     H232958   5.608   1.362   2.800  2.6226 -0.7679 -0.2426
 7788WAT    EPW32959   5.601   1.397   2.720  0.4497 -0.6636 -0.0533
 7789WAT      O32960   3.694   5.096   8.861 -0.1284 -0.2451  0.3865
 7789WAT     H132961   3.608   5.075   8.824 -1.3773  2.0488  1.7531
 7789WAT     H232962   3.733   5.156   8.798 -0.0368 -0.3265  0.3637
 7789WAT    EPW32963   3.688   5.101   8.848 -0.2810  0.0467  0.5631
 7790WAT      O32964   3.427   5.306   7.639 -0.2540 -0.5935 -0.0885
 7790WAT     H132965   3.469   5.391   7.643 -1.8689  0.1833  2.8035
 7790WAT     H232966   3.413   5.290   7.545  2.8976  0.7820 -0.9053
 7790WAT    EPW32967   3.431   5.315   7.627 -0.0513 -0.3095  0.1853
 7791WAT      O32968  -6.468   9.965   5.289 -0.5056  0.3203 -0.2287
 7791WAT     H132969  -6.459  10.011   5.373  2.0265 -0.2827 -0.0661
 7791WAT     H232970  -6.383   9.923   5.276 -0.3681  1.3445 -3.6908
 7791WAT    EPW32971  -6.455   9.966   5.298 -0.1538  0.3762 -0.6640
 7792WAT      O32972  -2.993   9.998   7.822  0.1076  0.0972  0.3090
 7792WAT     H132973  -3.081   9.962   7.816 -0.0426  0.3100  1.1028
 7792WAT     H232974  -2.952   9.951   7.894  1.7130 -2.1610 -1.8830
 7792WAT    EPW32975  -2.999   9.987   7.830  0.2996 -0.1721  0.1242
 7793WAT      O32976   3.976   1.478   0.243 -0.4151  0.0294  0.5631
 7793WAT     H132977   3.981   1.486   0.338 -2.3417  0.9591  0.6511
 7793WAT     H232978   3.897   1.527   0.219 -1.2255 -2.0110 -1.2961
 7793WAT    EPW32979   3.966   1.486   0.252 -0.7761 -0.1171  0.3295
 7794WAT      O32980   1.155   1.959   1.632 -0.1041  0.9217 -0.0883
 7794WAT     H132981   1.081   1.934   1.688 -0.3891 -0.0166 -0.8392
 7794WAT     H232982   1.224   1.984   1.693 -0.9658  1.6146  0.6351
 7794WAT    EPW32983   1.154   1.959   1.647 -0.2553  0.8894 -0.0919
 7795WAT      O32984  -4.642   4.314   8.100 -0.5149  0.3201 -0.0884
 7795WAT     H132985  -4.727   4.285   8.066 -0.7851  1.1305 -0.1227
 7795WAT     H232986  -4.583   4.240   8.084 -0.9438  0.1876 -1.1128
 7795WAT    EPW32987  -4.646   4.301   8.094 -0.6070  0.4094 -0.2279
 7796WAT      O32988  -1.573   5.903   7.186 -0.3348 -0.1181 -0.6750
 7796WAT     H132989  -1.503   5.896   7.251 -0.2678 -1.3112 -0.8521
 7796WAT     H232990  -1.552   5.983   7.137  0.1336  0.2795  0.1504
 7796WAT    EPW32991  -1.561   5.913   7.188 -0.2641 -0.2232 -0.5896
 7797WAT      O32992   5.063   8.819   4.093  0.6608 -0.1997 -0.0688
 7797WAT     H132993   4.969   8.799   4.097  0.5921  0.2449  0.6134
 7797WAT     H232994   5.098   8.782   4.174  1.0928 -0.4440 -0.3655
 7797WAT    EPW32995   5.055   8.811   4.104  0.7086 -0.1731 -0.0179
 7798WAT      O32996  -1.022   7.995   2.970  0.1847  0.2253 -0.1849
 7798WAT     H132997  -0.969   8.019   2.894  0.4466  1.1874  0.2868
 7798WAT     H232998  -1.109   8.030   2.951 -0.3045 -1.3088 -0.9358
 7798WAT    EPW32999  -1.026   8.003   2.958  0.1547  0.1497 -0.2217
 7799WAT      O33000   1.155   1.067   3.060  0.3180 -0.1514  0.6701
 7799WAT     H133001   1.142   0.978   3.029 -0.1339 -0.2738  1.1920
 7799WAT     H233002   1.077   1.087   3.112 -0.1327  0.9716 -0.3975
 7799WAT    EPW33003   1.143   1.058   3.063  0.1990 -0.0194  0.5981
 7800WAT      O33004   1.535   1.290   8.379 -0.2047  0.1624  0.1588
 7800WAT     H133005   1.459   1.275   8.436  0.4021 -0.3178  0.8623
 7800WAT     H233006   1.610   1.261   8.431  0.7180  2.5896  0.3128
 7800WAT    EPW33007   1.535   1.284   8.394 -0.0029  0.4192  0.2718
 7801WAT      O33008   8.573   3.295   0.478  0.3754 -0.3001 -0.5249
 7801WAT     H133009   8.627   3.279   0.400  0.4100  1.1041 -0.8038
 7801WAT     H233010   8.486   3.313   0.443  0.2357 -0.3186 -0.1902
 7801WAT    EPW33011   8.568   3.295   0.463  0.3614 -0.1172 -0.5175
 7802WAT      O33012  -2.913   9.373   7.494  0.0699 -0.8272 -0.3505
 7802WAT     H133013  -3.000   9.354   7.529  0.5255 -1.9469  0.2051
 7802WAT     H233014  -2.926   9.380   7.399 -0.8552  0.4393 -0.1555
 7802WAT    EPW33015  -2.926   9.371   7.486  0.0079 -0.8082 -0.2515
 7803WAT      O33016   1.265   4.111   4.660 -0.0781  1.0089  0.4715
 7803WAT     H133017   1.256   4.197   4.619  1.5007  1.5214  1.1055
 7803WAT     H233018   1.253   4.128   4.753  0.2743  0.5575  0.6010
 7803WAT    EPW33019   1.262   4.125   4.667  0.1766  1.0171  0.5722
 7804WAT      O33020   5.766   9.255   0.299 -0.0623  0.5991 -0.0298
 7804WAT     H133021   5.834   9.320   0.280  2.0432 -1.2163  0.7855
 7804WAT     H233022   5.728   9.235   0.214  1.3301  0.7447 -0.7107
 7804WAT    EPW33023   5.770   9.261   0.285  0.3991  0.3786 -0.0121
 7805WAT      O33024   3.922   8.842   1.899  0.4280  0.5494 -0.0665
 7805WAT     H133025   4.006   8.883   1.916  0.5881  0.1536  0.1195
 7805WAT     H233026   3.857   8.908   1.925  0.6803  0.8067 -0.0923
 7805WAT    EPW33027   3.924   8.856   1.905  0.4823  0.5312 -0.0454
 7806WAT      O33028  -0.536  10.283   0.146  0.0797 -0.7602  0.0400
 7806WAT     H133029  -0.556  10.369   0.182  0.1065 -0.8257  0.2127
 7806WAT     H233030  -0.467  10.299   0.081 -1.2075 -0.3899 -1.2847
 7806WAT    EPW33031  -0.530  10.296   0.142 -0.0865 -0.7195 -0.1119
 7807WAT      O33032  -5.071  10.146   4.324  0.2527 -0.4122 -0.3716
 7807WAT     H133033  -5.105  10.190   4.246  2.1385  2.8989  0.4995
 7807WAT     H233034  -5.000  10.091   4.292  0.5848  0.4069 -1.0809
 7807WAT    EPW33035  -5.066  10.144   4.309  0.5453  0.1321 -0.3505
 7808WAT      O33036  -0.267   3.002   2.716 -0.4414  0.7180  0.7509
 7808WAT     H133037  -0.273   2.963   2.804 -2.8309 -1.4883 -0.2750
 7808WAT     H233038  -0.210   3.079   2.728  0.4065 -0.2471  3.9295
 7808WAT    EPW33039  -0.260   3.007   2.730 -0.6447  0.2997  1.0349
 7809WAT      O33040  -1.195   5.707   8.239  0.2318  0.0475  0.1008
 7809WAT     H133041  -1.224   5.668   8.157 -0.0887  0.4356  0.0245
 7809WAT     H233042  -1.173   5.797   8.215  1.7203 -0.2951  0.1081
 7809WAT    EPW33043  -1.196   5.714   8.225  0.3859  0.0536  0.0911
 7810WAT      O33044   3.961   5.843   5.013  0.2326  0.2592  0.0354
 7810WAT     H133045   3.932   5.853   5.104 -0.0278 -1.1484  0.1190
 7810WAT     H233046   4.039   5.899   5.007  1.9367 -1.7402  1.9293
 7810WAT    EPW33047   3.967   5.852   5.024  0.4231 -0.1900  0.2964
 7811WAT      O33048   0.485   1.622   3.907  0.5983 -0.0870 -0.2638
 7811WAT     H133049   0.485   1.684   3.834  0.6163  0.2045 -0.0156
 7811WAT     H233050   0.407   1.643   3.957 -0.1163 -1.1317 -0.9083
 7811WAT    EPW33051   0.475   1.633   3.904  0.5064 -0.1864 -0.3161
 7812WAT      O33052   5.000   1.922   0.127 -0.6312 -0.2059  0.2970
 7812WAT     H133053   4.948   1.841   0.123  0.4376 -0.9155  0.2886
 7812WAT     H233054   5.069   1.908   0.062  0.2955  0.1840  1.1855
 7812WAT    EPW33055   5.002   1.909   0.118 -0.3679 -0.2480  0.4131
 7813WAT      O33056   7.517   5.114   0.088 -1.1862 -0.5226 -0.4956
 7813WAT     H133057   7.446   5.177   0.072  0.6568  1.2694 -2.2557
 7813WAT     H233058   7.589   5.145   0.033  0.9145 -2.3731  1.0406
 7813WAT    EPW33059   7.517   5.127   0.078 -0.6659 -0.5302 -0.5251
 7814WAT      O33060   3.164   4.214   5.522  0.1845 -0.4263  0.2474
 7814WAT     H133061   3.237   4.167   5.560  3.3055  2.0233 -2.1204
 7814WAT     H233062   3.143   4.282   5.586  1.7417  0.3787 -0.0607
 7814WAT    EPW33063   3.171   4.217   5.536  0.8014  0.0029 -0.1056
 7815WAT      O33064   3.881   3.209   4.292  0.3841  0.1921  0.1121
 7815WAT     H133065   3.862   3.223   4.385  1.6684  1.0457  0.2766
 7815WAT     H233066   3.810   3.253   4.246 -0.1434 -0.0423  0.6923
 7815WAT    EPW33067   3.869   3.217   4.298  0.4839  0.2738  0.2105
 7816WAT      O33068   3.420   0.018   1.096 -0.1275 -0.6738 -0.8788
 7816WAT     H133069   3.437  -0.017   1.183 -0.1447 -1.8941 -1.3477
 7816WAT     H233070   3.503   0.009   1.050 -1.4094 -5.7546 -2.8689
 7816WAT    EPW33071   3.433   0.012   1.101 -0.2989 -1.5049 -1.2031
 7817WAT      O33072   1.047   6.329   3.477  0.0338 -0.5082 -0.8789
 7817WAT     H133073   0.952   6.328   3.480  0.0578 -1.3294  1.5436
 7817WAT     H233074   1.070   6.250   3.428 -0.4816 -0.2674 -1.5386
 7817WAT    EPW33075   1.038   6.319   3.471 -0.0311 -0.5846 -0.6465
 7818WAT      O33076  -4.581   8.868   6.771 -0.2443  0.5307  0.5935
 7818WAT     H133077  -4.645   8.821   6.825  0.4474 -0.3144  0.6912
 7818WAT     H233078  -4.582   8.822   6.687 -1.3556  1.8667 -0.1816
 7818WAT    EPW33079  -4.590   8.856   6.767 -0.2999  0.5956  0.5043
 7819WAT      O33080  -2.020   8.298   1.909 -0.4724 -0.1706 -0.0256
 7819WAT     H133081  -2.010   8.223   1.851 -1.1229  0.4709 -1.0021
 7819WAT     H233082  -2.015   8.261   1.997 -2.1295 -1.5878 -0.4644
 7819WAT    EPW33083  -2.018   8.283   1.913 -0.7769 -0.2732 -0.2123
 7820WAT      O33084   3.484   6.903   8.045 -0.3939  0.0406  0.3874
 7820WAT     H133085   3.398   6.865   8.029  0.0779 -0.8531 -0.0947
 7820WAT     H233086   3.474   6.995   8.020 -1.0766 -0.1632 -0.1326
 7820WAT    EPW33087   3.471   6.910   8.039 -0.4216 -0.1042  0.2551
 7821WAT      O33088   1.821   5.228   3.910 -1.5685 -0.2899  0.2471
 7821WAT     H133089   1.791   5.285   3.981  1.9767  1.8998  0.2113
 7821WAT     H233090   1.889   5.278   3.866 -1.7715 -2.6348 -3.1028
 7821WAT    EPW33091   1.826   5.242   3.913 -1.1277 -0.3104 -0.1996
 7822WAT      O33092   2.797  10.221   3.606  0.0825 -0.1465  0.7809
 7822WAT     H133093   2.782  10.175   3.689  0.7769 -0.5633  0.6763
 7822WAT     H233094   2.853  10.162   3.555  0.6086  0.6163  0.4658
 7822WAT    EPW33095   2.802  10.207   3.610  0.2435 -0.1011  0.7255
 7823WAT      O33096   2.646   5.446   4.277  0.3184  0.2654  0.0259
 7823WAT     H133097   2.577   5.387   4.248 -0.5089  0.0978  2.1557
 7823WAT     H233098   2.607   5.534   4.273  0.6278  0.3748 -0.5807
 7823WAT    EPW33099   2.632   5.450   4.273  0.2501  0.2577  0.2267
 7824WAT      O33100  -2.648   5.389   8.354 -0.4015  0.2091 -0.3793
 7824WAT     H133101  -2.579   5.322   8.347 -0.9961 -0.5030  0.3698
 7824WAT     H233102  -2.632   5.431   8.438 -0.6379  0.3240 -0.3917
 7824WAT    EPW33103  -2.636   5.386   8.364 -0.5112  0.1304 -0.2823
 7825WAT      O33104   1.596   5.641   4.606 -0.3422  0.3267 -0.0587
 7825WAT     H133105   1.690   5.622   4.604 -0.7972 -2.3029  0.4083
 7825WAT     H233106   1.586   5.708   4.673  1.3641  2.0919 -1.4404
 7825WAT    EPW33107   1.607   5.647   4.614 -0.1771  0.2127 -0.1793
 7826WAT      O33108   0.959   4.099   2.888 -0.2917 -0.4407  0.4506
 7826WAT     H133109   0.888   4.155   2.857 -0.8309 -1.0401  0.5786
 7826WAT     H233110   0.986   4.138   2.971 -1.0123 -0.6562  0.7956
 7826WAT    EPW33111   0.953   4.111   2.895 -0.4579 -0.5481  0.5130
 7827WAT      O33112   1.643   9.829   5.699  0.2970  0.2501  0.8929
 7827WAT     H133113   1.630   9.757   5.637  1.2445 -0.2927  1.3024
 7827WAT     H233114   1.554   9.855   5.724 -0.1031  0.4605 -0.6393
 7827WAT    EPW33115   1.630   9.823   5.694  0.3692  0.2065  0.7451
 7828WAT      O33116   6.182   2.517   1.054 -0.1859  0.8424 -0.2865
 7828WAT     H133117   6.228   2.592   1.016  1.2433 -0.2784 -0.8417
 7828WAT     H233118   6.154   2.465   0.978 -0.5707  0.4739  0.1015
 7828WAT    EPW33119   6.184   2.520   1.039 -0.0482  0.6460 -0.3086
 7829WAT      O33120   4.936   8.712   1.335  0.8065 -0.0315 -0.1884
 7829WAT     H133121   4.895   8.631   1.364  0.3559  0.3815  0.3322
 7829WAT     H233122   4.867   8.759   1.289 -0.3232  2.0738  3.2892
 7829WAT    EPW33123   4.922   8.707   1.332  0.5982  0.3004  0.3389
 7830WAT      O33124   0.806   6.184   1.957 -0.6075 -0.3592 -0.3141
 7830WAT     H133125   0.839   6.224   1.876  1.3373 -5.1896 -2.2671
 7830WAT     H233126   0.872   6.119   1.980 -3.7011 -2.9490  2.0521
 7830WAT    EPW33127   0.819   6.181   1.949 -0.7590 -1.3378 -0.2596
 7831WAT      O33128   0.626   9.083   4.518 -0.1307  0.5733  0.1833
 7831WAT     H133129   0.675   9.037   4.450 -1.4901 -0.9265  0.1417
 7831WAT     H233130   0.688   9.097   4.589 -0.2702 -4.5442  1.7217
 7831WAT    EPW33131   0.640   9.079   4.518 -0.3284 -0.2990  0.3808
 7832WAT      O33132   0.097   8.490   8.781  0.3665 -0.1984 -0.1226
 7832WAT     H133133   0.146   8.447   8.710  0.7060  0.7168 -0.4507
 7832WAT     H233134   0.072   8.575   8.745  0.3784  0.2031  0.7916
 7832WAT    EPW33135   0.100   8.495   8.767  0.4128 -0.0253 -0.0453
 7833WAT      O33136  -1.877   1.677   6.757  0.5731  0.0740 -0.7178
 7833WAT     H133137  -1.867   1.749   6.695 -2.2930 -1.0774 -2.7340
 7833WAT     H233138  -1.928   1.611   6.709 -3.2689 -0.2941  3.2346
 7833WAT    EPW33139  -1.883   1.678   6.742 -0.3117 -0.1264 -0.4625
 7834WAT      O33140   0.896   6.822   0.925 -0.0906 -0.4640 -0.5542
 7834WAT     H133141   0.919   6.761   0.995 -1.3262  0.1148  0.3846
 7834WAT     H233142   0.951   6.899   0.941 -0.4240 -0.3031 -0.1590
 7834WAT    EPW33143   0.906   6.824   0.936 -0.2975 -0.3664 -0.3783
 7835WAT      O33144   5.056   3.264   5.958 -0.1087 -0.2630 -0.3164
 7835WAT     H133145   5.025   3.281   6.047 -0.0734  0.4315 -0.4329
 7835WAT     H233146   4.981   3.223   5.915 -0.0218 -0.9031  0.1172
 7835WAT    EPW33147   5.042   3.261   5.964 -0.0925 -0.2558 -0.2744
 7836WAT      O33148   4.678   0.574   5.454  0.4899 -0.1892 -0.4368
 7836WAT     H133149   4.665   0.668   5.468  1.0861 -0.1697  0.0017
 7836WAT     H233150   4.672   0.536   5.541  0.8473 -0.4855 -0.5413
 7836WAT    EPW33151   4.676   0.582   5.467  0.6158 -0.2257 -0.3929
 7837WAT      O33152  -0.444   2.072   2.608  0.2151 -0.1402 -0.7441
 7837WAT     H133153  -0.435   2.156   2.653 -1.7572 -1.3540  2.2957
 7837WAT     H233154  -0.365   2.023   2.632  1.3197  0.7191 -2.4422
 7837WAT    EPW33155  -0.432   2.077   2.617  0.1006 -0.1869 -0.5671
 7838WAT      O33156  -1.557   4.656   2.781  0.6048  0.6842  0.0482
 7838WAT     H133157  -1.598   4.657   2.695  0.3661 -1.5982  0.0733
 7838WAT     H233158  -1.630   4.645   2.842  0.8951  0.7752  0.4154
 7838WAT    EPW33159  -1.572   4.655   2.778  0.6115  0.3953  0.1000
 7839WAT      O33160  -3.419   2.040   4.540  0.4852  0.0691 -1.1772
 7839WAT     H133161  -3.405   2.002   4.454  0.7346 -1.0300 -0.6663
 7839WAT     H233162  -3.410   1.966   4.601  0.4488  0.8458 -0.2025
 7839WAT    EPW33163  -3.416   2.025   4.537  0.5133  0.0265 -0.9813
 7840WAT      O33164   5.543   3.474   3.760 -0.5472  0.3054  0.3599
 7840WAT     H133165   5.521   3.408   3.827 -0.0811  1.9749  2.2390
 7840WAT     H233166   5.469   3.534   3.761  0.8906  2.2040  1.8794
 7840WAT    EPW33167   5.530   3.473   3.769 -0.2961  0.7762  0.8081
 7841WAT      O33168   7.338   4.379   1.669 -0.2369  0.9649  0.3884
 7841WAT     H133169   7.368   4.469   1.661 -0.5167  1.0300  0.0321
 7841WAT     H233170   7.337   4.362   1.763 -3.5256  2.4942  0.7589
 7841WAT    EPW33171   7.342   4.388   1.680 -0.7076  1.1749  0.3902
 7842WAT      O33172   7.299   7.215   1.251  0.1552 -0.2397 -0.7113
 7842WAT     H133173   7.258   7.287   1.203  1.3867  0.8646 -0.1702
 7842WAT     H233174   7.256   7.137   1.217 -2.3508  0.8169 -0.2021
 7842WAT    EPW33175   7.288   7.215   1.240 -0.0129  0.0453 -0.5728
 7843WAT      O33176   4.761   2.946   7.193  0.2219 -0.1895  0.6996
 7843WAT     H133177   4.746   3.011   7.124  0.4749 -1.5777 -0.7015
 7843WAT     H233178   4.711   2.979   7.268 -0.6433  0.9865 -0.3593
 7843WAT    EPW33179   4.753   2.959   7.194  0.1411 -0.2176  0.3750
 7844WAT      O33180   9.385   0.628   1.747  0.0518  0.2422 -0.5673
 7844WAT     H133181   9.404   0.707   1.697 -1.3245  0.0051 -1.5209
 7844WAT     H233182   9.438   0.559   1.705 -0.2140  0.2802 -0.9707
 7844WAT    EPW33183   9.395   0.629   1.735 -0.1650  0.2159 -0.7463
 7845WAT      O33184   3.799   5.544   2.941  0.3656 -0.1174  0.3294
 7845WAT     H133185   3.802   5.634   2.909  1.0265 -0.9263 -2.0929
 7845WAT     H233186   3.752   5.495   2.874  0.0669 -1.6094  1.5606
 7845WAT    EPW33187   3.793   5.549   2.928  0.4134 -0.4208  0.1723
 7846WAT      O33188  -0.176   6.738   1.288 -0.4489  0.5661 -0.2238
 7846WAT     H133189  -0.230   6.664   1.315  1.1479 -0.5995 -0.0738
 7846WAT     H233190  -0.111   6.699   1.230 -0.6018  2.1622 -1.5347
 7846WAT    EPW33191  -0.175   6.723   1.284 -0.2584  0.6230 -0.3769
 7847WAT      O33192   3.204   4.486   5.001  0.3194 -0.4062  0.0805
 7847WAT     H133193   3.229   4.434   5.078 -3.0311 -1.3056  0.7534
 7847WAT     H233194   3.185   4.421   4.933  1.7075  0.3143 -1.0487
 7847WAT    EPW33195   3.204   4.470   5.002  0.0606 -0.4299  0.0205
 7848WAT      O33196  -0.860   8.890   6.976  0.2078 -1.0948  0.1554
 7848WAT     H133197  -0.903   8.964   7.019  0.7826 -0.9743  0.5375
 7848WAT     H233198  -0.782   8.874   7.029  0.4446 -1.5358 -0.3194
 7848WAT    EPW33199  -0.855   8.898   6.988  0.3148 -1.1373  0.1433
 7849WAT      O33200  -2.496   7.942   2.692  0.2701 -0.3306 -0.1116
 7849WAT     H133201  -2.585   7.921   2.721 -0.6352  0.8479 -1.8237
 7849WAT     H233202  -2.509   8.006   2.621  2.3768 -1.6851 -1.8398
 7849WAT    EPW33203  -2.509   7.948   2.686  0.4284 -0.3538 -0.5653
 7850WAT      O33204   3.195   0.246   1.196 -0.4790 -0.5150 -0.6422
 7850WAT     H133205   3.242   0.169   1.229  0.2463  1.1248  2.5728
 7850WAT     H233206   3.109   0.241   1.239 -0.9556 -0.2343 -1.5400
 7850WAT    EPW33207   3.190   0.235   1.206 -0.4462 -0.2617 -0.3365
 7851WAT      O33208  -4.103  10.072   7.824  0.0481  0.7333 -0.1113
 7851WAT     H133209  -4.192  10.084   7.858  0.3315 -2.5749  2.1981
 7851WAT     H233210  -4.115  10.025   7.742 -0.3636 -0.6192  0.6953
 7851WAT    EPW33211  -4.117  10.068   7.818  0.0312  0.1187  0.2997
 7852WAT      O33212   1.084   2.379   0.254  0.6244  0.1281  0.5276
 7852WAT     H133213   1.148   2.379   0.183 -1.2361 -1.4524 -1.2676
 7852WAT     H233214   1.110   2.307   0.310  1.3820  0.5798  0.7653
 7852WAT    EPW33215   1.096   2.370   0.252  0.4789 -0.0209  0.3222
 7853WAT      O33216  -1.751   5.327   5.079 -0.0674 -0.5570 -0.5431
 7853WAT     H133217  -1.697   5.342   5.156 -1.0133 -0.4752  0.1203
 7853WAT     H233218  -1.691   5.289   5.014  1.5298  2.3193 -0.9280
 7853WAT    EPW33219  -1.736   5.324   5.080  0.0185 -0.1669 -0.5064
 7854WAT      O33220   2.059   6.975   6.653 -0.0998 -0.2538  1.1025
 7854WAT     H133221   2.012   7.054   6.679  0.7577  0.3360  0.8995
 7854WAT     H233222   2.030   6.958   6.563  0.6452  0.5530  0.7013
 7854WAT    EPW33223   2.049   6.983   6.645  0.1116 -0.0696  1.0228
 7855WAT      O33224  -3.626   1.409   5.668 -0.8667  0.7496  0.1883
 7855WAT     H133225  -3.612   1.493   5.625 -0.4156  1.4929  1.6984
 7855WAT     H233226  -3.687   1.363   5.611 -1.2116  2.1387 -0.6225
 7855WAT    EPW33227  -3.632   1.414   5.655 -0.8527  1.0308  0.2806
 7856WAT      O33228   5.283   5.449   3.995 -0.4550 -0.0008  0.4613
 7856WAT     H133229   5.204   5.474   3.947 -0.2310 -1.9157 -1.0476
 7856WAT     H233230   5.353   5.453   3.929  0.6392  1.2070  1.6533
 7856WAT    EPW33231   5.282   5.453   3.980 -0.2811 -0.0937  0.4196
 7857WAT      O33232   8.089   2.512   3.117 -0.1875 -0.0903 -0.1093
 7857WAT     H133233   8.107   2.591   3.066 -0.4501 -0.2668 -0.4846
 7857WAT     H233234   8.018   2.469   3.069  0.2593 -0.7855 -0.1557
 7857WAT    EPW33235   8.082   2.517   3.104 -0.1631 -0.2053 -0.1649
 7858WAT      O33236   2.353   1.154   4.680 -0.7992  0.3932  0.3345
 7858WAT     H133237   2.329   1.066   4.708 -2.0822  0.4298 -0.5531
 7858WAT     H233238   2.448   1.151   4.670 -0.9509 -1.4147 -1.2767
 7858WAT    EPW33239   2.362   1.142   4.682 -0.9885  0.1596  0.0050
 7859WAT      O33240  -1.184   9.692   3.299 -0.0538 -0.0958 -0.2496
 7859WAT     H133241  -1.230   9.690   3.214  1.1049  1.4891 -0.9720
 7859WAT     H233242  -1.254   9.686   3.364 -0.9504 -1.6955 -1.2921
 7859WAT    EPW33243  -1.199   9.691   3.296 -0.0192 -0.0978 -0.4823
 7860WAT      O33244   1.606   7.737   1.450  0.3887 -0.0604 -0.3833
 7860WAT     H133245   1.634   7.779   1.369  0.6603  0.1810 -0.1641
 7860WAT     H233246   1.526   7.690   1.426  0.3744  0.1494 -0.7493
 7860WAT    EPW33247   1.599   7.736   1.436  0.4226 -0.0010 -0.4027
 7861WAT      O33248  -3.729   8.683   1.383  0.4803 -0.2897 -0.2112
 7861WAT     H133249  -3.719   8.637   1.300 -0.8900  0.8396 -1.0400
 7861WAT     H233250  -3.677   8.631   1.445  0.0470 -2.1973 -1.3598
 7861WAT    EPW33251  -3.721   8.670   1.380  0.2424 -0.3924 -0.4720
 7862WAT      O33252  -2.961   8.453   2.075  0.4362 -0.1533  0.0544
 7862WAT     H133253  -3.005   8.428   1.994  1.8338 -0.2280 -0.7153
 7862WAT     H233254  -2.944   8.547   2.066 -0.1080  0.0009  0.6119
 7862WAT    EPW33255  -2.964   8.462   2.063  0.5487 -0.1431  0.0265
 7863WAT      O33256   5.281   1.293   8.443 -0.6127 -0.6408 -0.2575
 7863WAT     H133257   5.236   1.223   8.491 -0.1404  0.6715  2.2744
 7863WAT     H233258   5.362   1.307   8.493 -1.3256  2.6055  0.1879
 7863WAT    EPW33259   5.286   1.286   8.456 -0.6444 -0.0396  0.1354
 7864WAT      O33260   3.351   8.343   2.005 -0.3086 -0.5456  0.3206
 7864WAT     H133261   3.348   8.366   1.912 -2.2459  1.8480  0.8671
 7864WAT     H233262   3.399   8.415   2.046 -0.0094 -1.2564  1.2513
 7864WAT    EPW33263   3.357   8.356   1.998 -0.5246 -0.3238  0.5154
 7865WAT      O33264   0.983   1.318   7.280  0.1433 -0.3258  0.0699
 7865WAT     H133265   0.987   1.289   7.188  0.7190  3.0283 -1.1015
 7865WAT     H233266   1.069   1.355   7.297 -1.0850  2.4799  0.6599
 7865WAT    EPW33267   0.995   1.319   7.270  0.0572  0.4866 -0.0069
 7866WAT      O33268  -3.147   5.617   6.508 -0.5584  0.1548  0.0389
 7866WAT     H133269  -3.218   5.621   6.572  0.6559 -0.2749  1.4745
 7866WAT     H233270  -3.165   5.537   6.458 -0.0339 -1.0364  1.7091
 7866WAT    EPW33271  -3.159   5.607   6.509 -0.3291 -0.0591  0.4485
 7867WAT      O33272   3.434   9.151   4.374 -0.5446  0.5312  0.1885
 7867WAT     H133273   3.405   9.104   4.296  0.6027 -0.0021  0.0535
 7867WAT     H233274   3.398   9.101   4.447 -1.9552  1.2539  0.0259
 7867WAT    EPW33275   3.425   9.139   4.374 -0.5794  0.5560  0.1490
 7868WAT      O33276  -0.842   8.124   3.577 -0.9700 -0.2658 -0.1713
 7868WAT     H133277  -0.755   8.134   3.540 -1.7405 -1.5146 -2.5458
 7868WAT     H233278  -0.897   8.183   3.525 -1.6278  0.2475  1.0651
 7868WAT    EPW33279  -0.838   8.133   3.565 -1.1584 -0.3633 -0.3214
 7869WAT      O33280   1.401   8.057   5.987  0.2614  0.0745  0.3335
 7869WAT     H133281   1.408   7.963   5.972  1.3491  0.2231 -0.2176
 7869WAT     H233282   1.413   8.096   5.901  1.8696  0.7801  0.8332
 7869WAT    EPW33283   1.404   8.050   5.974  0.6170  0.1869  0.3266
 7870WAT      O33284   2.710   9.104   2.570  0.3136  0.4696  0.9251
 7870WAT     H133285   2.774   9.171   2.544  0.2102  0.5229  0.8110
 7870WAT     H233286   2.764   9.033   2.606  0.7208 -0.9172 -2.1658
 7870WAT    EPW33287   2.726   9.103   2.572  0.3537  0.2937  0.5025
 7871WAT      O33288   5.057   6.703   0.125  0.1254  0.2466 -0.3881
 7871WAT     H133289   4.970   6.725   0.089 -0.1653 -1.4549 -0.8190
 7871WAT     H233290   5.112   6.779   0.102 -1.7702  2.5966  2.1388
 7871WAT    EPW33291   5.053   6.716   0.117 -0.1631  0.3321 -0.1116
 7872WAT      O33292  -6.036   5.371   6.996 -0.2461  0.1433 -0.2297
 7872WAT     H133293  -6.125   5.341   6.977 -0.4735 -0.1541  1.2129
 7872WAT     H233294  -6.021   5.345   7.087  0.3929  2.3955  0.3639
 7872WAT    EPW33295  -6.046   5.363   7.005 -0.1917  0.4013  0.0389
 7873WAT      O33296   2.579   1.224   2.320 -0.3285 -1.1989 -0.1952
 7873WAT     H133297   2.643   1.279   2.275 -0.9425  0.7016  1.0966
 7873WAT     H233298   2.568   1.266   2.406 -2.1806 -2.3170  0.1761
 7873WAT    EPW33299   2.586   1.237   2.325 -0.6537 -1.0957  0.0242
 7874WAT      O33300  -3.573   1.131   7.178 -0.0508 -0.2422 -0.7479
 7874WAT     H133301  -3.550   1.200   7.240 -2.0861  0.7518 -1.0210
 7874WAT     H233302  -3.500   1.070   7.183  0.9978  1.0380  0.8021
 7874WAT    EPW33303  -3.560   1.132   7.187 -0.1810  0.0578 -0.5796
 7875WAT      O33304   1.872   7.362   4.538  0.3504  0.1549 -0.5110
 7875WAT     H133305   1.950   7.417   4.545  0.8863 -0.3682 -1.8399
 7875WAT     H233306   1.800   7.419   4.564  1.0335  1.0631 -0.5426
 7875WAT    EPW33307   1.873   7.377   4.542  0.5112  0.2058 -0.6905
 7876WAT      O33308   1.326   3.461   8.191 -1.0542  0.3945 -1.1004
 7876WAT     H133309   1.249   3.469   8.247 -1.6318  1.2379 -1.9956
 7876WAT     H233310   1.395   3.508   8.239  0.7999 -5.1454  2.7112
 7876WAT    EPW33311   1.325   3.469   8.205 -0.8858 -0.2249 -0.7157
 7877WAT      O33312   3.197   2.424   0.247  0.2419 -0.5916 -0.0152
 7877WAT     H133313   3.283   2.436   0.289  0.0100  1.2437 -0.0043
 7877WAT     H233314   3.143   2.494   0.283 -1.2387 -1.5983 -0.1783
 7877WAT    EPW33315   3.201   2.434   0.258  0.0160 -0.4823 -0.0353
 7878WAT      O33316  -0.113   5.167   2.887  0.0130  0.4687  0.2540
 7878WAT     H133317  -0.171   5.091   2.880 -0.3087  0.4836  2.1531
 7878WAT     H233318  -0.063   5.151   2.968  1.5478  1.2148 -0.4993
 7878WAT    EPW33319  -0.114   5.155   2.897  0.1730  0.5691  0.4051
 7879WAT      O33320   4.610   7.932   0.490  0.2307 -0.8453  0.4387
 7879WAT     H133321   4.526   7.895   0.463 -0.4376 -1.3441  2.9375
 7879WAT     H233322   4.660   7.857   0.523 -0.1237 -0.0553  3.0756
 7879WAT    EPW33323   4.605   7.917   0.491  0.0958 -0.8070  1.1161
 7880WAT      O33324   3.664   5.485   6.893  0.6766  0.0600 -0.0879
 7880WAT     H133325   3.641   5.403   6.849 -0.3288  1.4786 -2.3688
 7880WAT     H233326   3.676   5.548   6.822  3.6817  1.4175  1.4360
 7880WAT    EPW33327   3.663   5.482   6.878  0.9402  0.4261 -0.1879
 7881WAT      O33328  -2.006   6.756   3.250 -0.1668 -0.4632  0.2497
 7881WAT     H133329  -2.003   6.689   3.182  3.1717 -3.1161  2.6380
 7881WAT     H233330  -2.041   6.710   3.327 -0.2579  1.3128  1.3198
 7881WAT    EPW33331  -2.010   6.741   3.251  0.2615 -0.5791  0.7057
 7882WAT      O33332  -1.107   2.193   2.164  0.0674 -0.4019  1.1013
 7882WAT     H133333  -1.067   2.156   2.242  2.0778  3.5971  2.2167
 7882WAT     H233334  -1.201   2.181   2.177  0.4775 -2.5219  2.5927
 7882WAT    EPW33335  -1.114   2.187   2.176  0.3867 -0.1541  1.4452
 7883WAT      O33336  -2.065   6.792   5.726 -0.0018  0.2007 -0.0621
 7883WAT     H133337  -2.115   6.796   5.807 -0.1666 -2.2361  0.0257
 7883WAT     H233338  -2.127   6.759   5.661  1.3170 -2.7056  0.0017
 7883WAT    EPW33339  -2.080   6.788   5.728  0.1503 -0.5040 -0.0422
 7884WAT      O33340  -1.747   9.563   1.339  0.2100  0.0189 -0.2944
 7884WAT     H133341  -1.695   9.490   1.304 -0.9898 -1.4562  0.8457
 7884WAT     H233342  -1.686   9.611   1.395  0.2200 -2.3353  1.9434
 7884WAT    EPW33343  -1.732   9.560   1.342  0.0530 -0.4859  0.1512
 7885WAT      O33344   2.672   7.789   5.892 -0.1944 -0.1751  0.4550
 7885WAT     H133345   2.647   7.863   5.836 -0.1815 -0.2407  0.3618
 7885WAT     H233346   2.660   7.821   5.981 -1.3171 -0.4522  0.4169
 7885WAT    EPW33347   2.667   7.803   5.896 -0.3408 -0.2203  0.4375
 7886WAT      O33348  -5.491   2.040   8.764  0.4854  0.0859 -0.0573
 7886WAT     H133349  -5.582   2.012   8.751  0.1359  1.4931 -0.8933
 7886WAT     H233350  -5.481   2.043   8.860  0.5591 -2.7367  0.1059
 7886WAT    EPW33351  -5.502   2.036   8.775  0.4492 -0.1009 -0.1459
 7887WAT      O33352  -0.811   2.943   4.908  0.1279  0.7786  0.8073
 7887WAT     H133353  -0.817   2.847   4.916 -1.0033  0.8609  1.0705
 7887WAT     H233354  -0.816   2.975   4.998  1.6877  1.0520  0.8242
 7887WAT    EPW33355  -0.813   2.934   4.921  0.1845  0.8255  0.8442
 7888WAT      O33356  -1.753   5.304   4.636  0.8647  0.2514  0.3930
 7888WAT     H133357  -1.764   5.386   4.685  0.6334  0.0815  0.6262
 7888WAT     H233358  -1.814   5.311   4.563 -2.4545 -1.5399  2.7588
 7888WAT    EPW33359  -1.762   5.316   4.633  0.3963 -0.0074  0.7360
 7889WAT      O33360   5.085   8.226   0.087  0.0165 -0.2719  0.1727
 7889WAT     H133361   5.173   8.231   0.049 -0.6373 -0.7446 -1.5123
 7889WAT     H233362   5.059   8.134   0.073 -0.6571 -0.1883  0.8473
 7889WAT    EPW33363   5.093   8.214   0.080 -0.1583 -0.3228  0.0394
 7890WAT      O33364   3.755   8.531   6.728  0.6599  0.4868  0.5168
 7890WAT     H133365   3.746   8.617   6.687  1.9831  0.3428 -0.1445
 7890WAT     H233366   3.668   8.510   6.762 -0.2867  1.0060 -1.4718
 7890WAT    EPW33367   3.742   8.539   6.727  0.7095  0.5364  0.1674
 7891WAT      O33368   6.895   2.444   1.616 -0.5577 -0.0896  0.6866
 7891WAT     H133369   6.825   2.419   1.677 -1.2244  1.1435  0.4567
 7891WAT     H233370   6.932   2.523   1.653 -2.0377  1.6391 -1.2477
 7891WAT    EPW33371   6.891   2.451   1.629 -0.8409  0.3010  0.4012
 7892WAT      O33372  -1.302   6.270   3.191 -0.0986  0.4960  0.3324
 7892WAT     H133373  -1.324   6.178   3.178 -0.5352  0.3112  2.1008
 7892WAT     H233374  -1.332   6.289   3.280 -0.4114  2.4666 -0.1500
 7892WAT    EPW33375  -1.309   6.260   3.201 -0.1974  0.7315  0.5021
 7893WAT      O33376   5.286   0.636   4.826 -0.2235  0.1313  0.3311
 7893WAT     H133377   5.197   0.625   4.792 -0.7979  0.4065  1.6926
 7893WAT     H233378   5.290   0.728   4.851  0.0017 -0.1725  1.4524
 7893WAT    EPW33379   5.275   0.646   4.825 -0.2697  0.1275  0.6585
 7894WAT      O33380   4.304   4.851   2.077 -0.2362 -0.3689  0.6228
 7894WAT     H133381   4.319   4.779   2.016  0.8501  0.7675 -0.5195
 7894WAT     H233382   4.283   4.925   2.021 -0.5124  0.4032  1.7247
 7894WAT    EPW33383   4.303   4.851   2.062 -0.1295 -0.1171  0.6174
 7895WAT      O33384   1.016   8.110   7.440 -0.0955 -0.1615 -0.1518
 7895WAT     H133385   0.975   8.112   7.353 -0.5127 -0.8959  0.0240
 7895WAT     H233386   1.076   8.185   7.439 -1.3958  0.9200 -0.4384
 7895WAT    EPW33387   1.019   8.120   7.428 -0.3221 -0.1159 -0.1662
 7896WAT      O33388   2.279   9.837   3.833 -0.5651 -0.3495 -0.7882
 7896WAT     H133389   2.272   9.742   3.835  2.8865 -0.7278  1.7328
 7896WAT     H233390   2.369   9.854   3.806 -0.6672  2.1436  0.2023
 7896WAT    EPW33391   2.290   9.827   3.830 -0.1235 -0.0706 -0.3251
 7897WAT      O33392  -4.066   4.498   7.248 -0.3841 -0.0116 -0.1868
 7897WAT     H133393  -4.071   4.586   7.211  1.8491 -0.2502 -1.2709
 7897WAT     H233394  -4.013   4.507   7.327 -0.4006 -0.3415 -0.1353
 7897WAT    EPW33395  -4.060   4.510   7.253 -0.0918 -0.0865 -0.3233
 7898WAT      O33396   5.054   4.230   2.738 -0.1885  0.0179 -0.3335
 7898WAT     H133397   5.052   4.239   2.643 -0.1439 -0.6623 -0.4008
 7898WAT     H233398   5.082   4.316   2.769 -0.9974  0.4942 -0.8867
 7898WAT    EPW33399   5.057   4.242   2.730 -0.2894 -0.0088 -0.4153
 7899WAT      O33400   4.183   0.857   1.132  0.4240 -0.5816  0.4312
 7899WAT     H133401   4.194   0.852   1.037  0.4621 -0.9167  0.4507
 7899WAT     H233402   4.263   0.818   1.167  1.6267  1.8955  0.6367
 7899WAT    EPW33403   4.195   0.851   1.124  0.5877 -0.2991  0.4609
 7900WAT      O33404  -3.826   4.122   8.160  0.2325  1.0119  0.3019
 7900WAT     H133405  -3.816   4.213   8.186  1.9430  0.2855  2.5273
 7900WAT     H233406  -3.772   4.114   8.081  0.1918  1.8843  0.1771
 7900WAT    EPW33407  -3.817   4.133   8.153  0.4529  1.0309  0.5789
 7901WAT      O33408  -5.867   9.759   8.569  1.2281 -0.5670 -0.4057
 7901WAT     H133409  -5.799   9.822   8.545  2.8400 -1.6827  0.9403
 7901WAT     H233410  -5.940   9.813   8.599  2.1707  0.6840 -0.2708
 7901WAT    EPW33411  -5.868   9.774   8.570  1.5650 -0.5493 -0.2103
 7902WAT      O33412  -1.667   4.187   2.847 -0.1388 -0.7594  0.3436
 7902WAT     H133413  -1.637   4.097   2.862  0.4929 -0.1750  3.2264
 7902WAT     H233414  -1.684   4.221   2.934  1.1619  2.4246 -0.4937
 7902WAT    EPW33415  -1.665   4.180   2.860  0.1161 -0.2625  0.6133
 7903WAT      O33416   5.491   0.675   8.497  0.0431 -0.7387 -0.5884
 7903WAT     H133417   5.564   0.613   8.497 -0.4206 -1.3125  0.4298
 7903WAT     H233418   5.439   0.652   8.420  0.1472 -1.2817 -0.4955
 7903WAT    EPW33419   5.494   0.664   8.487 -0.0043 -0.8860 -0.4420
 7904WAT      O33420  -2.352   6.919   6.761  0.2276  0.3365 -0.5431
 7904WAT     H133421  -2.278   6.863   6.782  0.7009  0.9435 -0.5805
 7904WAT     H233422  -2.429   6.869   6.790  0.7591  0.4847  1.2586
 7904WAT    EPW33423  -2.353   6.905   6.768  0.3601  0.4361 -0.3104
 7905WAT      O33424   3.040   8.950   0.139 -0.9599 -0.2385 -0.7131
 7905WAT     H133425   3.047   9.037   0.099  1.4063  0.4114  0.9310
 7905WAT     H233426   3.065   8.963   0.230  0.0553 -2.7451 -0.5487
 7905WAT    EPW33427   3.044   8.963   0.146 -0.5138 -0.4835 -0.4745
 7906WAT      O33428  -6.477   5.703   7.689 -0.2276  0.2095 -0.0201
 7906WAT     H133429  -6.561   5.747   7.683 -0.1843  0.6736  1.9139
 7906WAT     H233430  -6.492   5.615   7.655 -2.3810 -0.7822  3.0680
 7906WAT    EPW33431  -6.490   5.697   7.684 -0.5062  0.1400  0.6423
 7907WAT      O33432   1.422   3.332   0.581  0.0993  0.1875  0.4606
 7907WAT     H133433   1.421   3.278   0.501  0.1339 -0.6585  1.0177
 7907WAT     H233434   1.338   3.314   0.623 -0.4154  1.5100  0.0674
 7907WAT    EPW33435   1.411   3.322   0.576  0.0360  0.2503  0.4822
 7908WAT      O33436   2.789   1.356   0.138 -1.4392  0.5670 -0.0082
 7908WAT     H133437   2.822   1.426   0.195  0.6618  0.1153 -0.5749
 7908WAT     H233438   2.741   1.298   0.196  0.6575  0.1107  1.3680
 7908WAT    EPW33439   2.787   1.358   0.153 -0.8856  0.4472  0.0985
 7909WAT      O33440  -2.496   3.588   2.370  0.0256  1.6052  0.3088
 7909WAT     H133441  -2.475   3.515   2.428 -2.0226  1.3610  0.8306
 7909WAT     H233442  -2.524   3.546   2.289 -2.4978  1.6296  1.0533
 7909WAT    EPW33443  -2.497   3.573   2.367 -0.5774  1.5762  0.4759
 7910WAT      O33444   2.931   4.869   7.388  0.3212 -0.5567 -0.2992
 7910WAT     H133445   2.963   4.934   7.325 -0.5248 -0.4072 -0.5891
 7910WAT     H233446   2.976   4.788   7.364  0.7878 -0.2605 -0.4350
 7910WAT    EPW33447   2.941   4.867   7.376  0.2712 -0.4978 -0.3552
 7911WAT      O33448  -6.376   8.691   5.598 -0.5477  0.4949  0.3494
 7911WAT     H133449  -6.379   8.673   5.504  1.4551  0.0290  0.3293
 7911WAT     H233450  -6.450   8.749   5.613 -3.4993 -2.6805 -0.7022
 7911WAT    EPW33451  -6.386   8.697   5.587 -0.6731  0.0143  0.2079
 7912WAT      O33452  -4.777   3.894   7.189 -0.5673  0.5441  0.5640
 7912WAT     H133453  -4.824   3.970   7.154  3.2606  2.7722 -0.3075
 7912WAT     H233454  -4.719   3.867   7.118 -0.3264 -1.8942  1.6007
 7912WAT    EPW33455  -4.776   3.900   7.175 -0.0308  0.5164  0.5856
 7913WAT      O33456   2.168   2.926   2.515 -0.1045 -0.5003  0.0814
 7913WAT     H133457   2.243   2.944   2.572  0.9654 -2.1071 -0.7604
 7913WAT     H233458   2.098   2.900   2.576  0.5442 -0.6826  0.7609
 7913WAT    EPW33459   2.169   2.925   2.531  0.1221 -0.7362  0.0601
 7914WAT      O33460   4.331   5.746   5.643  0.1695 -0.0909 -0.6245
 7914WAT     H133461   4.422   5.754   5.672 -0.3523  0.3905  1.0467
 7914WAT     H233462   4.282   5.734   5.725 -1.2362 -0.6460 -1.5181
 7914WAT    EPW33463   4.337   5.746   5.658 -0.0846 -0.1009 -0.5219
 7915WAT      O33464   2.012   1.024   1.592  0.2178 -0.0336  0.5037
 7915WAT     H133465   2.064   1.058   1.519  0.3205  0.2616  0.7123
 7915WAT     H233466   1.923   1.053   1.575  0.0643 -0.7614  0.0084
 7915WAT    EPW33467   2.007   1.032   1.580  0.2111 -0.0907  0.4659
 7916WAT      O33468  -1.196   8.885   1.229 -0.6696  0.2156 -0.6277
 7916WAT     H133469  -1.247   8.867   1.308 -2.2307  1.2413 -1.3576
 7916WAT     H233470  -1.175   8.798   1.194  0.8934 -0.2915  1.3644
 7916WAT    EPW33471  -1.200   8.871   1.234 -0.6694  0.2842 -0.4612
 7917WAT      O33472   3.747   6.589   1.856 -0.0334  0.2023 -0.1191
 7917WAT     H133473   3.761   6.641   1.777  1.7049  0.7202  0.4760
 7917WAT     H233474   3.681   6.637   1.905 -0.6979  0.1846 -0.9771
 7917WAT    EPW33475   3.740   6.602   1.852  0.1082  0.2682 -0.1537
 7918WAT      O33476   3.234   8.720   4.622  0.3325  1.3889 -0.8491
 7918WAT     H133477   3.325   8.727   4.595  0.0890  2.9899 -1.3935
 7918WAT     H233478   3.193   8.799   4.586 -0.7644  1.8868  1.3455
 7918WAT    EPW33479   3.240   8.731   4.614  0.1557  1.6656 -0.6313
 7919WAT      O33480   2.099   5.109   5.521  0.4481  0.7385 -0.2946
 7919WAT     H133481   2.076   5.169   5.592 -0.1556  1.7928 -1.3509
 7919WAT     H233482   2.165   5.051   5.559  0.1278  1.2733  1.1270
 7919WAT    EPW33483   2.105   5.109   5.535  0.3263  0.9482 -0.2463
 7920WAT      O33484   0.653   0.670   5.784 -0.0359  0.0328 -0.3418
 7920WAT     H133485   0.682   0.750   5.740  2.6142  0.3965  1.7780
 7920WAT     H233486   0.563   0.688   5.811  0.4021  2.2114 -0.1578
 7920WAT    EPW33487   0.645   0.683   5.782  0.3714  0.3681 -0.0379
 7921WAT      O33488  -0.038   5.211   6.734 -0.5203  0.1838 -0.1388
 7921WAT     H133489  -0.127   5.239   6.756 -0.1437  0.4495  1.1778
 7921WAT     H233490  -0.033   5.122   6.768  0.1438  0.6703  1.0980
 7921WAT    EPW33491  -0.050   5.203   6.742 -0.3831  0.2830  0.1981
 7922WAT      O33492  -0.650   8.230   2.871 -0.4107  0.2573 -0.2502
 7922WAT     H133493  -0.727   8.232   2.813 -1.7413 -0.2375  1.4156
 7922WAT     H233494  -0.682   8.188   2.951  2.6614 -4.1473 -0.9735
 7922WAT    EPW33495  -0.665   8.224   2.874 -0.1810 -0.3886 -0.1259
 7923WAT      O33496  -1.484   2.353   5.584  0.6473 -0.4090  0.4748
 7923WAT     H133497  -1.572   2.382   5.561  1.3145  0.5516 -1.0718
 7923WAT     H233498  -1.445   2.329   5.500  1.9498 -0.5308  1.0986
 7923WAT    EPW33499  -1.490   2.354   5.570  0.9071 -0.2984  0.3531
 7924WAT      O33500   2.810   7.405   3.885 -0.1981 -0.2251  0.4124
 7924WAT     H133501   2.827   7.323   3.839  0.1930  0.9156 -1.6296
 7924WAT     H233502   2.887   7.418   3.940 -0.1990 -1.1408  0.6418
 7924WAT    EPW33503   2.823   7.396   3.886 -0.1466 -0.1953  0.1732
 7925WAT      O33504   4.770   0.414   5.268 -0.2427 -0.2939  0.0032
 7925WAT     H133505   4.696   0.357   5.247 -1.0768  0.6551  0.2500
 7925WAT     H233506   4.747   0.451   5.354  0.1211  0.6421 -0.2905
 7925WAT    EPW33507   4.757   0.411   5.277 -0.3047 -0.0453 -0.0031
 7926WAT      O33508   1.214   7.638   5.033 -0.2250 -0.5275 -0.3095
 7926WAT     H133509   1.232   7.548   5.060 -0.2687 -0.6808 -0.7823
 7926WAT     H233510   1.209   7.687   5.115 -0.9512 -1.0959 -0.0011
 7926WAT    EPW33511   1.216   7.633   5.048 -0.3265 -0.6230 -0.3312
 7927WAT      O33512  -3.828   8.020   2.938  0.5599 -0.4432 -0.4993
 7927WAT     H133513  -3.838   8.099   2.991 -1.7007  1.1714 -3.0671
 7927WAT     H233514  -3.889   7.958   2.976 -1.4031  0.8596 -1.3848
 7927WAT    EPW33515  -3.837   8.022   2.950  0.0029 -0.0582 -0.9547
 7928WAT      O33516   0.125   3.193   2.197  0.4199  0.6622 -0.0588
 7928WAT     H133517   0.109   3.196   2.103 -0.0553  0.9430  0.0248
 7928WAT     H233518   0.216   3.167   2.205  0.6041  1.1081 -0.6072
 7928WAT    EPW33519   0.135   3.190   2.186  0.3815  0.7581 -0.1200
 7929WAT      O33520  -5.365   3.599   8.742 -0.1966 -0.6353  0.0588
 7929WAT     H133521  -5.312   3.590   8.663 -1.4287 -0.0950 -0.8695
 7929WAT     H233522  -5.307   3.571   8.813  1.8783  1.4562 -0.6916
 7929WAT    EPW33523  -5.351   3.594   8.741 -0.0854 -0.2881 -0.1621
 7930WAT      O33524   4.231   2.679   8.754 -0.0749  0.7626  0.0222
 7930WAT     H133525   4.201   2.642   8.671 -0.9605  0.1176  0.6219
 7930WAT     H233526   4.224   2.607   8.816 -2.3143  2.0127  1.3373
 7930WAT    EPW33527   4.226   2.664   8.751 -0.4871  0.8425  0.2747
 7931WAT      O33528   8.700   0.421   1.366 -0.6162 -0.0522 -0.0559
 7931WAT     H133529   8.647   0.465   1.432 -0.1520  1.7730 -0.8422
 7931WAT     H233530   8.648   0.429   1.286 -0.4246 -0.7637 -0.2527
 7931WAT    EPW33531   8.686   0.428   1.364 -0.5298  0.0947 -0.1855
 7932WAT      O33532  -1.835   3.789   4.556 -0.5285  0.1100 -0.1237
 7932WAT     H133533  -1.832   3.853   4.628  0.1923 -1.0876  0.9632
 7932WAT     H233534  -1.751   3.743   4.562 -0.3321  0.1574 -1.9347
 7932WAT    EPW33535  -1.823   3.791   4.567 -0.4075 -0.0417 -0.2191
 7933WAT      O33536   4.297   1.132   1.232  0.8583 -0.3801 -0.0937
 7933WAT     H133537   4.243   1.170   1.300  0.5868 -0.9778  0.0302
 7933WAT     H233538   4.257   1.047   1.214 -0.0965  0.4429 -2.1861
 7933WAT    EPW33539   4.285   1.125   1.238  0.6964 -0.3504 -0.3533
 7934WAT      O33540  -0.408   4.183   8.617  0.2746 -0.2120 -0.3196
 7934WAT     H133541  -0.351   4.259   8.611  2.1216 -1.4654  0.5473
 7934WAT     H233542  -0.392   4.134   8.536 -2.3348  1.1594 -1.8129
 7934WAT    EPW33543  -0.398   4.186   8.605  0.1740 -0.1965 -0.4020
 7935WAT      O33544   6.728   1.765   1.013  0.5683  0.1060 -0.0061
 7935WAT     H133545   6.660   1.822   0.978  0.9055  0.7392  0.3439
 7935WAT     H233546   6.688   1.678   1.018  0.7934 -0.2453 -2.8598
 7935WAT    EPW33547   6.714   1.761   1.009  0.6425  0.1432 -0.3363
 7936WAT      O33548  -2.407   4.274   2.483  0.4009  0.0873 -0.2031
 7936WAT     H133549  -2.474   4.218   2.521  0.8645 -0.8159 -0.6801
 7936WAT     H233550  -2.327   4.221   2.488  0.7376  0.4998 -1.1474
 7936WAT    EPW33551  -2.405   4.259   2.489  0.5064  0.0226 -0.3905
 7937WAT      O33552   0.909   6.513   2.031  0.3782 -0.1178 -0.2287
 7937WAT     H133553   0.823   6.543   2.061  0.9909  0.1512  1.3572
 7937WAT     H233554   0.932   6.572   1.959 -1.5599 -1.3838 -2.0159
 7937WAT    EPW33555   0.901   6.525   2.025  0.2034 -0.2494 -0.2553
 7938WAT      O33556  -3.234   9.669   8.293  0.2945 -0.0518  0.5533
 7938WAT     H133557  -3.232   9.740   8.357  1.7417 -0.1189  0.6045
 7938WAT     H233558  -3.303   9.610   8.325  0.2925  0.4272  1.4755
 7938WAT    EPW33559  -3.243   9.671   8.306  0.4851  0.0024  0.6819
 7939WAT      O33560   2.580   0.294   4.794 -0.4046 -0.5263 -0.3836
 7939WAT     H133561   2.504   0.281   4.851  0.4680 -0.4194  0.8318
 7939WAT     H233562   2.647   0.236   4.829  0.7347  0.8604 -0.1841
 7939WAT    EPW33563   2.579   0.284   4.806 -0.1392 -0.3293 -0.1969
 7940WAT      O33564   3.071   6.634   2.025  0.0269  0.8391 -0.6778
 7940WAT     H133565   2.996   6.583   1.994 -0.2143  1.6437 -1.4658
 7940WAT     H233566   3.135   6.569   2.054 -1.3909  0.1448  1.0716
 7940WAT    EPW33567   3.070   6.619   2.025 -0.1920  0.8535 -0.5510
 7941WAT      O33568   1.800   6.468   7.137 -0.5808 -0.4331  0.3241
 7941WAT     H133569   1.791   6.431   7.225  1.3458  0.0945  0.7850
 7941WAT     H233570   1.892   6.493   7.130 -0.8697  0.3147 -1.5471
 7941WAT    EPW33571   1.811   6.467   7.148 -0.3648 -0.2649  0.1383
 7942WAT      O33572  -2.446   9.416   2.958  0.5351 -0.2055  0.7111
 7942WAT     H133573  -2.360   9.458   2.965  0.0715  1.3962 -1.8357
 7942WAT     H233574  -2.436   9.351   2.888 -0.5330  0.8051 -0.4437
 7942WAT    EPW33575  -2.433   9.413   2.949  0.3330  0.1388  0.2229
 7943WAT      O33576  -3.785   7.016   6.736 -0.6078  0.4402  0.2627
 7943WAT     H133577  -3.869   7.059   6.724 -0.6075 -0.1392 -2.5012
 7943WAT     H233578  -3.793   6.933   6.689  1.6432  0.6118 -0.5622
 7943WAT    EPW33579  -3.797   7.011   6.728 -0.3110  0.3865 -0.2105
 7944WAT      O33580  -7.987  10.031   7.544  0.2115 -0.0728  0.6416
 7944WAT     H133581  -8.042  10.105   7.520  0.8515  0.1031 -0.3600
 7944WAT     H233582  -8.045   9.955   7.538  0.5062 -0.1894 -2.5662
 7944WAT    EPW33583  -8.002  10.031   7.540  0.3347 -0.0648  0.0865
 7945WAT      O33584   4.648   3.018   4.262  0.1002 -0.9099  0.2901
 7945WAT     H133585   4.596   3.034   4.184 -1.6337 -2.4890  1.0595
 7945WAT     H233586   4.700   2.940   4.241  1.8250  0.3080 -0.2545
 7945WAT    EPW33587   4.648   3.010   4.249  0.0992 -0.9575  0.3197
 7946WAT      O33588  -5.608   7.935   7.133  0.0319  0.0133  0.7128
 7946WAT     H133589  -5.616   7.960   7.225 -1.1518  0.2127  0.5704
 7946WAT     H233590  -5.583   7.842   7.136  0.7830  0.2162  1.2203
 7946WAT    EPW33591  -5.605   7.926   7.146 -0.0250  0.0665  0.7610
 7947WAT      O33592   4.575   3.341   2.925  0.0893  0.1051  0.6875
 7947WAT     H133593   4.650   3.398   2.903  0.0615 -0.6608 -1.5517
 7947WAT     H233594   4.594   3.258   2.881 -0.3818 -1.3380  3.0449
 7947WAT    EPW33595   4.588   3.338   2.916  0.0236 -0.1863  0.7031
 7948WAT      O33596   1.356   8.848   8.956 -0.4910  0.1854  0.2180
 7948WAT     H133597   1.335   8.936   8.987  0.5020  0.5064  0.0342
 7948WAT     H233598   1.284   8.824   8.898  0.2972  1.8206 -1.5389
 7948WAT    EPW33599   1.344   8.856   8.953 -0.2560  0.4435 -0.0381
 7949WAT      O33600  -5.247   9.722   6.803 -0.4107  0.3109  0.3062
 7949WAT     H133601  -5.319   9.769   6.845 -0.6952 -1.4030  1.8331
 7949WAT     H233602  -5.169   9.754   6.849 -0.4727  0.2418  0.4617
 7949WAT    EPW33603  -5.246   9.732   6.815 -0.4563  0.0758  0.5281
 7950WAT      O33604   1.339   7.856   3.224 -0.0529 -0.0184 -0.5052
 7950WAT     H133605   1.396   7.886   3.153  0.4583 -0.8157 -0.4524
 7950WAT     H233606   1.289   7.934   3.250 -0.6260  0.1689 -2.0745
 7950WAT    EPW33607   1.340   7.870   3.218 -0.0610 -0.0987 -0.7052
 7951WAT      O33608   0.820   1.023   6.596  0.1158  0.7272 -0.4340
 7951WAT     H133609   0.790   0.974   6.673 -0.4213 -0.7501 -1.5311
 7951WAT     H233610   0.748   1.084   6.578  0.3418  1.2373  0.3522
 7951WAT    EPW33611   0.806   1.025   6.604  0.0747  0.5997 -0.4752
 7952WAT      O33612   1.486   3.181   7.356 -0.2966  0.4461 -0.3190
 7952WAT     H133613   1.398   3.147   7.373 -0.0291 -0.1700 -0.1533
 7952WAT     H233614   1.514   3.219   7.439  0.5835 -1.6096  0.3891
 7952WAT    EPW33615   1.478   3.182   7.369 -0.1453  0.0938 -0.2038
 7953WAT      O33616   0.746   8.090   4.923  0.4878 -0.6566  0.1425
 7953WAT     H133617   0.733   8.145   4.846 -0.0215 -1.0952 -0.0865
 7953WAT     H233618   0.702   8.137   4.994  4.0326  1.6778  1.0774
 7953WAT    EPW33619   0.738   8.103   4.922  0.8881 -0.4067  0.2356
 7954WAT      O33620   0.965   8.026   6.328 -0.4800  0.7994  0.3492
 7954WAT     H133621   1.025   8.101   6.328  1.7143 -0.8389  0.9698
 7954WAT     H233622   1.009   7.961   6.273 -1.1520 -0.8478  1.6802
 7954WAT    EPW33623   0.979   8.027   6.321 -0.2792  0.3662  0.6068
 7955WAT      O33624  -2.438   0.076   7.172  0.3618 -0.0702  0.0976
 7955WAT     H133625  -2.525   0.074   7.133  0.9022  1.6593 -1.2995
 7955WAT     H233626  -2.380   0.040   7.105  1.1222  1.7256 -0.2656
 7955WAT    EPW33627  -2.441   0.071   7.158  0.5333  0.3947 -0.1347
 7956WAT      O33628  -4.594   5.055   4.994  0.0360 -0.5582  0.1011
 7956WAT     H133629  -4.511   5.052   4.947 -0.8080 -2.1068 -1.4331
 7956WAT     H233630  -4.575   5.016   5.080  1.2724  0.8862  0.5120
 7956WAT    EPW33631  -4.581   5.049   4.999  0.0880 -0.5720 -0.0470
 7957WAT      O33632  -4.886   8.554   3.348 -0.0654 -0.8506  0.2751
 7957WAT     H133633  -4.879   8.648   3.334 -1.1835 -0.5719  1.4107
 7957WAT     H233634  -4.938   8.522   3.274 -0.6823 -0.3812  0.4999
 7957WAT    EPW33635  -4.892   8.562   3.336 -0.2942 -0.7520  0.4545
 7958WAT      O33636   0.301   3.682   3.702  0.5269  0.0334 -0.7368
 7958WAT     H133637   0.313   3.738   3.625 -0.2617  1.2505 -0.0246
 7958WAT     H233638   0.232   3.621   3.676 -0.7464  1.3389 -0.5799
 7958WAT    EPW33639   0.293   3.681   3.688  0.2550  0.3661 -0.6222
 7959WAT      O33640   4.628   7.173   1.513  0.2268 -0.5858 -0.2528
 7959WAT     H133641   4.594   7.262   1.526 -2.1275 -1.4510 -0.0572
 7959WAT     H233642   4.656   7.172   1.421 -1.9858 -0.2934 -0.9914
 7959WAT    EPW33643   4.627   7.185   1.502 -0.3755 -0.6611 -0.3244
 7960WAT      O33644   1.980   7.829   5.143  0.1903 -0.8575  0.1219
 7960WAT     H133645   1.968   7.805   5.235 -1.8986  1.4833  0.5697
 7960WAT     H233646   2.024   7.753   5.104  0.1437 -2.3770  2.7840
 7960WAT    EPW33647   1.984   7.816   5.150 -0.0914 -0.7491  0.5319
 7961WAT      O33648  -5.581   4.968   8.356  0.1773  0.3356 -0.5691
 7961WAT     H133649  -5.569   5.056   8.321 -0.2389  0.8703  0.5674
 7961WAT     H233650  -5.513   4.959   8.423 -1.7953  1.1457  1.7220
 7961WAT    EPW33651  -5.571   4.979   8.361 -0.1380  0.5128 -0.1173
 7962WAT      O33652  -3.728   5.822   8.619  0.1750  0.5651 -0.1832
 7962WAT     H133653  -3.661   5.753   8.631  1.3479  1.6573 -0.2174
 7962WAT     H233654  -3.769   5.830   8.705  1.8281  1.5892  0.5678
 7962WAT    EPW33655  -3.724   5.814   8.632  0.5478  0.8442 -0.0882
 7963WAT      O33656   2.927   8.874   3.735  0.1756  0.1600 -0.6003
 7963WAT     H133657   2.856   8.915   3.784  1.2340  2.1345 -0.6334
 7963WAT     H233658   2.935   8.787   3.775  0.6599  1.4607  2.4513
 7963WAT    EPW33659   2.918   8.868   3.747  0.3791  0.5922 -0.2022
 7964WAT      O33660   3.420   0.937   2.144 -0.6663 -0.3716  0.0065
 7964WAT     H133661   3.457   0.856   2.108 -2.1389 -0.6866 -0.8652
 7964WAT     H233662   3.494   0.998   2.146  0.4031 -1.6221  0.3829
 7964WAT    EPW33663   3.435   0.934   2.140 -0.7194 -0.5781 -0.0589
 7965WAT      O33664  -1.154   6.678   3.075 -0.0858 -0.1592  0.4027
 7965WAT     H133665  -1.215   6.635   3.136  0.1471  1.1135  1.5783
 7965WAT     H233666  -1.205   6.749   3.037  0.0913 -0.3004 -0.1039
 7965WAT    EPW33667  -1.169   6.682   3.078 -0.0317 -0.0100  0.4909
 7966WAT      O33668  -1.207   4.510   7.445  0.2742 -0.2130 -0.1890
 7966WAT     H133669  -1.292   4.555   7.436 -0.0898  0.0801  3.3228
 7966WAT     H233670  -1.143   4.581   7.452  0.8598 -0.4351 -2.4620
 7966WAT    EPW33671  -1.210   4.525   7.444  0.3034 -0.2034 -0.0257
 7967WAT      O33672  -7.822  10.117   8.909 -0.0237  0.3087 -0.0644
 7967WAT     H133673  -7.889  10.057   8.877 -0.2929 -0.0076  1.0508
 7967WAT     H233674  -7.864  10.163   8.982  2.2003 -3.0907  3.8295
 7967WAT    EPW33675  -7.836  10.115   8.915  0.2341 -0.1817  0.5965
 7968WAT      O33676   7.529   1.559   0.640  0.9553 -0.0209  0.2905
 7968WAT     H133677   7.611   1.592   0.677  1.4312 -1.5677  0.7077
 7968WAT     H233678   7.485   1.517   0.714  1.2633 -1.9234 -0.5299
 7968WAT    EPW33679   7.534   1.558   0.655  1.0586 -0.4758  0.2373
 7969WAT      O33680  -0.939   9.895   6.227  0.2043 -0.0539 -1.0559
 7969WAT     H133681  -0.881   9.823   6.200  0.5767 -1.2227  2.3144
 7969WAT     H233682  -0.996   9.909   6.152  1.7143 -2.1905 -2.7593
 7969WAT    EPW33683  -0.939   9.887   6.213  0.4526 -0.4902 -0.8361
 7970WAT      O33684   1.904   3.249   8.120  0.1571 -0.0385 -0.0775
 7970WAT     H133685   1.867   3.248   8.032 -0.5839 -2.4504  0.1721
 7970WAT     H233686   1.836   3.289   8.174  0.8802  2.0638 -0.6405
 7970WAT    EPW33687   1.890   3.254   8.116  0.1548 -0.0794 -0.1187
 7971WAT      O33688  -3.887   7.465   7.757 -0.4986 -0.5433 -0.0563
 7971WAT     H133689  -3.894   7.384   7.705 -4.7446 -0.5057  0.0980
 7971WAT     H233690  -3.966   7.514   7.735 -0.5762  1.2631  3.5976
 7971WAT    EPW33691  -3.898   7.461   7.747 -1.0688 -0.2999  0.4461
 7972WAT      O33692   1.936   4.960   6.685 -0.1169 -0.0640  0.5045
 7972WAT     H133693   1.989   4.945   6.763  0.8614  0.7768  0.0292
 7972WAT     H233694   1.845   4.953   6.715  0.2263  1.0422  1.8959
 7972WAT    EPW33695   1.931   4.957   6.699  0.0574  0.1929  0.6254
 7973WAT      O33696   1.114   9.129   4.041 -0.0164  0.3142  0.2227
 7973WAT     H133697   1.073   9.045   4.020 -1.5642  1.1687 -0.3441
 7973WAT     H233698   1.040   9.188   4.059  1.0506  1.3993  1.2774
 7973WAT    EPW33699   1.099   9.126   4.041 -0.0798  0.5693  0.2871
 7974WAT      O33700   4.125   9.912   4.281 -0.3326 -0.4054  0.3204
 7974WAT     H133701   4.217   9.899   4.306 -0.6785 -0.1412  1.8431
 7974WAT     H233702   4.096   9.827   4.249  0.1368 -0.7845  0.8945
 7974WAT    EPW33703   4.133   9.899   4.280 -0.3161 -0.4206  0.5970
 7975WAT      O33704   2.121   6.796   1.100 -0.2411  0.0209  0.3138
 7975WAT     H133705   2.099   6.795   1.006  3.1663  1.5787 -0.6534
 7975WAT     H233706   2.070   6.869   1.135 -1.2974 -0.3548 -0.3814
 7975WAT    EPW33707   2.111   6.806   1.092  0.0691  0.1767  0.0945
 7976WAT      O33708   0.411   7.986   1.983 -0.5257  0.4699  0.5893
 7976WAT     H133709   0.371   7.915   2.033 -0.8610  0.3943  0.2213
 7976WAT     H233710   0.504   7.984   2.007 -0.4386 -0.3995  0.2316
 7976WAT    EPW33711   0.418   7.976   1.992 -0.5584  0.3452  0.4936
 7977WAT      O33712   4.801   2.992   5.932  0.7346 -0.5225 -0.1038
 7977WAT     H133713   4.812   3.080   5.896 -2.2186 -0.5718 -1.4653
 7977WAT     H233714   4.790   3.006   6.026  0.9510  0.5009 -0.2175
 7977WAT    EPW33715   4.801   3.006   5.940  0.3736 -0.3941 -0.2983
 7978WAT      O33716  -0.901   5.724   2.918  0.5601 -0.5585 -0.7203
 7978WAT     H133717  -0.951   5.804   2.905  2.3662  0.7870  0.1922
 7978WAT     H233718  -0.813   5.753   2.940  1.2604 -2.7944 -0.2067
 7978WAT    EPW33719  -0.896   5.738   2.919  0.8906 -0.6762 -0.5323
 7979WAT      O33720   3.179   1.737   7.455  0.5036  0.7394  0.5322
 7979WAT     H133721   3.243   1.804   7.433 -1.1258  2.8612  1.8100
 7979WAT     H233722   3.188   1.726   7.550 -1.5716  1.8107  0.9214
 7979WAT    EPW33723   3.189   1.745   7.465  0.0150  1.1605  0.7522
 7980WAT      O33724  -1.799   6.208   8.789 -0.4171  0.2270 -0.2280
 7980WAT     H133725  -1.855   6.283   8.811  0.9239  1.0686  0.4076
 7980WAT     H233726  -1.817   6.145   8.858  0.2527  0.9637  0.6414
 7980WAT    EPW33727  -1.809   6.210   8.801 -0.1519  0.4351 -0.0296
 7981WAT      O33728   5.857   0.207   0.999  0.3509  0.7293 -0.1987
 7981WAT     H133729   5.918   0.134   0.994 -1.6231 -0.9724 -1.6836
 7981WAT     H233730   5.893   0.272   0.939  1.2737  0.2434 -0.1930
 7981WAT    EPW33731   5.870   0.206   0.991  0.2122  0.4408 -0.3938
 7982WAT      O33732   1.381   5.461   2.370 -0.6587 -0.1678 -0.0406
 7982WAT     H133733   1.323   5.392   2.403 -1.2760  0.0506 -0.6575
 7982WAT     H233734   1.383   5.526   2.440 -0.8988 -0.3240  0.1129
 7982WAT    EPW33735   1.374   5.460   2.384 -0.7718 -0.1595 -0.1017
 7983WAT      O33736   5.658   3.167   2.997  0.4923 -1.0902 -0.3738
 7983WAT     H133737   5.642   3.198   2.908  2.6871  1.2751 -0.0489
 7983WAT     H233738   5.750   3.140   2.997  0.2090 -2.1620  0.9291
 7983WAT    EPW33739   5.668   3.168   2.985  0.7443 -0.9196 -0.1590
 7984WAT      O33740   2.145   4.771   6.792 -0.9457  0.1206  0.9375
 7984WAT     H133741   2.185   4.779   6.706 -2.1524  1.1673  0.4277
 7984WAT     H233742   2.216   4.746   6.850 -0.1473 -0.8108 -0.3905
 7984WAT    EPW33743   2.159   4.769   6.788 -0.9995  0.1357  0.6950
 7985WAT      O33744   3.898   6.213   2.655 -0.5146 -0.3388 -0.1885
 7985WAT     H133745   3.959   6.215   2.730  1.3604  1.5801 -1.6346
 7985WAT     H233746   3.889   6.120   2.635  0.6868 -0.7765  1.0776
 7985WAT    EPW33747   3.905   6.201   2.662 -0.1088 -0.1435 -0.2121
 7986WAT      O33748  -1.966   5.383   8.054 -0.0173  0.2111  0.1095
 7986WAT     H133749  -1.965   5.310   7.993 -1.5799  0.1128  0.1496
 7986WAT     H233750  -1.954   5.460   8.000  0.6431 -0.0140 -0.0634
 7986WAT    EPW33751  -1.965   5.383   8.039 -0.1363  0.1686  0.0920
 7987WAT      O33752   5.760   5.193   1.532 -0.0378  0.5986  0.7899
 7987WAT     H133753   5.730   5.102   1.530  0.6163  0.3953  0.0975
 7987WAT     H233754   5.716   5.234   1.457  2.0011  0.0900 -0.7730
 7987WAT    EPW33755   5.750   5.186   1.522  0.3173  0.5047  0.4925
 7988WAT      O33756  -2.137   9.966   6.526  0.3023 -0.5519 -0.0057
 7988WAT     H133757  -2.151   9.883   6.480  1.7717 -1.3173  0.8622
 7988WAT     H233758  -2.043   9.982   6.520  0.0901  0.9312  0.0892
 7988WAT    EPW33759  -2.127   9.957   6.519  0.4681 -0.4578  0.1214
 7989WAT      O33760   3.181   8.738   3.493  0.0901 -0.6133 -0.3820
 7989WAT     H133761   3.158   8.829   3.508  0.7694 -0.1904 -1.7156
 7989WAT     H233762   3.274   8.732   3.517  0.2624 -0.7423 -1.0555
 7989WAT    EPW33763   3.190   8.749   3.498  0.2024 -0.5746 -0.6468
 7990WAT      O33764  -1.762   3.386   6.552  0.1061  0.8122 -0.5111
 7990WAT     H133765  -1.703   3.351   6.484 -1.2557 -0.5317 -1.0683
 7990WAT     H233766  -1.840   3.412   6.504 -1.3956 -1.3210  0.6077
 7990WAT    EPW33767  -1.764   3.385   6.536 -0.2716  0.3535 -0.4373
 7991WAT      O33768   0.651   6.598   2.152  0.1358 -0.4320 -0.3665
 7991WAT     H133769   0.637   6.504   2.139  0.9077 -0.4199 -1.3962
 7991WAT     H233770   0.569   6.629   2.189 -0.4600 -1.3496 -0.8706
 7991WAT    EPW33771   0.638   6.589   2.155  0.1590 -0.5512 -0.5687
 7992WAT      O33772   6.322   2.536   0.760 -0.7680  0.7846  0.2504
 7992WAT     H133773   6.268   2.458   0.773 -0.3088 -0.3493 -3.4207
 7992WAT     H233774   6.410   2.501   0.743  0.5162  2.4280  2.8884
 7992WAT    EPW33775   6.327   2.521   0.759 -0.5379  0.8519  0.1142
 7993WAT      O33776   2.765   9.214   7.643  0.2680  0.9344 -0.8719
 7993WAT     H133777   2.786   9.184   7.555 -1.5610 -0.7533 -0.7904
 7993WAT     H233778   2.670   9.209   7.649  0.3237  1.2953  1.0870
 7993WAT    EPW33779   2.755   9.209   7.632  0.0341  0.7596 -0.6030
 7994WAT      O33780  -0.658   4.376   8.349  0.0516  0.0529 -0.4366
 7994WAT     H133781  -0.738   4.339   8.387 -0.6342  0.6824 -1.2299
 7994WAT     H233782  -0.677   4.382   8.255  1.6468 -1.3551 -0.9184
 7994WAT    EPW33783  -0.671   4.372   8.341  0.1715 -0.0496 -0.6046
 7995WAT      O33784   5.929   0.149   4.341 -0.3700  0.5131  0.3639
 7995WAT     H133785   5.894   0.135   4.253 -2.4246  1.9032  0.8649
 7995WAT     H233786   5.880   0.088   4.396  0.4147  0.1333  0.6477
 7995WAT    EPW33787   5.918   0.139   4.336 -0.5374  0.6464  0.4673
 7996WAT      O33788   0.246   8.208   1.371  0.6274  0.2458  0.0994
 7996WAT     H133789   0.196   8.179   1.447  0.9491 -0.7108 -0.0347
 7996WAT     H233790   0.277   8.127   1.331  0.5903  0.7402 -0.9642
 7996WAT    EPW33791   0.243   8.193   1.376  0.6649  0.1850 -0.0586
 7997WAT      O33792   7.409   1.071   1.437 -0.0131  0.1319 -0.2344
 7997WAT     H133793   7.460   1.040   1.512  1.9624  1.1843 -1.0608
 7997WAT     H233794   7.325   1.026   1.445  0.6372 -0.8503  1.8139
 7997WAT    EPW33795   7.405   1.061   1.448  0.3333  0.1412 -0.0732
 7998WAT      O33796  -0.074   4.999   5.236  0.2502 -0.0436 -0.4867
 7998WAT     H133797  -0.161   4.962   5.252  0.3631 -0.0758  0.0521
 7998WAT     H233798  -0.060   5.059   5.309 -0.5297  2.1939 -2.0489
 7998WAT    EPW33799  -0.084   5.002   5.248  0.1622  0.2472 -0.6216
 7999WAT      O33800  -4.572   7.392   3.599  0.7332  0.8598 -0.0397
 7999WAT     H133801  -4.525   7.472   3.622  0.3238  0.8289  0.9534
 7999WAT     H233802  -4.527   7.323   3.647  0.3995  0.6639 -0.0060
 7999WAT    EPW33803  -4.560   7.394   3.609  0.6354  0.8297  0.0956
 8000WAT      O33804  -2.349   8.305   1.677  0.3108 -0.0619 -0.3945
 8000WAT     H133805  -2.442   8.291   1.693  0.6028 -0.5325  1.0501
 8000WAT     H233806  -2.327   8.384   1.726  1.4215 -2.0331  2.5385
 8000WAT    EPW33807  -2.358   8.313   1.685  0.4958 -0.3839  0.1829
 8001WAT      O33808   1.423   7.790   5.875 -0.0303  0.3301  0.8986
 8001WAT     H133809   1.329   7.773   5.875  0.2600 -1.6970 -0.3225
 8001WAT     H233810   1.449   7.778   5.783  1.5232  0.1812  1.3247
 8001WAT    EPW33811   1.414   7.786   5.863  0.2129  0.0432  0.7939
 8002WAT      O33812   1.883   1.032   6.572 -0.1764 -0.4670 -0.3676
 8002WAT     H133813   1.849   1.101   6.630 -1.0901  1.2263 -2.7587
 8002WAT     H233814   1.911   0.963   6.632  0.9727  1.9969  2.2114
 8002WAT    EPW33815   1.882   1.032   6.588 -0.1454  0.0813 -0.3426
 8003WAT      O33816  -3.159   0.225   6.684  0.3560  0.5918 -0.7021
 8003WAT     H133817  -3.219   0.192   6.618 -1.0379  1.5358  0.0221
 8003WAT     H233818  -3.136   0.313   6.654 -0.1276  0.9481 -0.0667
 8003WAT    EPW33819  -3.164   0.232   6.672  0.1084  0.7633 -0.5226
 8004WAT      O33820   0.799   7.892   5.505  0.6187 -0.2407  0.0492
 8004WAT     H133821   0.708   7.866   5.523  0.6509 -1.1677 -0.9820
 8004WAT     H233822   0.826   7.940   5.582 -0.5976 -0.3801  0.5868
 8004WAT    EPW33823   0.790   7.895   5.517  0.4625 -0.3815 -0.0157
 8005WAT      O33824   3.414   4.293   1.657  0.2856 -0.4504  0.5904
 8005WAT     H133825   3.354   4.341   1.601  0.1112 -0.6542  0.6031
 8005WAT     H233826   3.362   4.222   1.693 -0.1027  0.6739  2.4008
 8005WAT    EPW33827   3.400   4.290   1.655  0.2114 -0.3290  0.8308
 8006WAT      O33828   1.877   5.501   3.633 -0.2377  0.1465  0.3190
 8006WAT     H133829   1.959   5.477   3.590  0.8792 -1.5536  3.1519
 8006WAT     H233830   1.817   5.429   3.613  0.6687 -1.2892  2.4163
 8006WAT    EPW33831   1.880   5.488   3.625  0.0292 -0.2670  0.9693
 8007WAT      O33832  -2.747   6.552   6.659 -0.1318 -0.6212 -0.2844
 8007WAT     H133833  -2.731   6.499   6.737 -1.5666  0.0664  0.5083
 8007WAT     H233834  -2.735   6.491   6.586 -1.1422 -1.9093  0.5826
 8007WAT    EPW33835  -2.743   6.537   6.659 -0.4543 -0.7005 -0.0656
 8008WAT      O33836   8.001   4.300   2.300  0.4865 -0.3608 -0.0418
 8008WAT     H133837   7.939   4.256   2.241 -0.2036 -3.4640  2.6548
 8008WAT     H233838   8.073   4.328   2.244 -1.4597 -0.3501 -2.7107
 8008WAT    EPW33839   8.002   4.298   2.285  0.1388 -0.7687 -0.0381
 8009WAT      O33840  -0.625   0.765   6.987  0.1374  0.4368 -0.3301
 8009WAT     H133841  -0.677   0.831   7.032  0.5677 -0.8513  2.2297
 8009WAT     H233842  -0.674   0.683   6.999  1.2031 -0.2628 -0.5745
 8009WAT    EPW33843  -0.639   0.763   6.995  0.3347  0.1746 -0.0248
 8010WAT      O33844  -2.275   1.541   6.978 -0.4682  0.6447 -0.4959
 8010WAT     H133845  -2.313   1.501   6.899 -0.3635 -0.3769 -0.0462
 8010WAT     H233846  -2.297   1.480   7.048  1.0521  0.5786 -0.0413
 8010WAT    EPW33847  -2.283   1.528   6.977 -0.2539  0.5012 -0.3767
 8011WAT      O33848  -2.259  10.161   6.235  0.6745  0.0930 -0.2064
 8011WAT     H133849  -2.308  10.144   6.154  0.6400 -0.9001  0.0047
 8011WAT     H233850  -2.171  10.126   6.216  0.9784  0.8420 -0.1892
 8011WAT    EPW33851  -2.254  10.154   6.222  0.7100  0.0610 -0.1760
 8012WAT      O33852  -3.876   9.954   7.303 -0.2340 -0.5368 -0.7191
 8012WAT     H133853  -3.909   9.869   7.276 -1.2241 -0.8532  1.2332
 8012WAT     H233854  -3.924  10.017   7.250  0.9050 -1.1697 -2.5674
 8012WAT    EPW33855  -3.887   9.951   7.293 -0.2143 -0.6618 -0.7057
 8013WAT      O33856   7.766   5.520   0.400  0.3156 -0.4487 -0.1411
 8013WAT     H133857   7.732   5.456   0.338  0.4800 -0.0670 -0.6299
 8013WAT     H233858   7.688   5.553   0.445 -0.2336  1.6960 -2.4679
 8013WAT    EPW33859   7.751   5.516   0.398  0.2649 -0.1154 -0.5124
 8014WAT      O33860   4.358   8.584   1.679 -0.0153 -0.4724 -0.1017
 8014WAT     H133861   4.388   8.642   1.609 -0.6181  0.6016  0.5155
 8014WAT     H233862   4.363   8.496   1.641  2.5314 -0.2156 -0.4908
 8014WAT    EPW33863   4.362   8.580   1.665  0.2410 -0.2966 -0.0716
 8015WAT      O33864   3.230   1.307   2.436 -0.0462 -1.2545  0.0961
 8015WAT     H133865   3.317   1.272   2.458  0.1520 -1.9316 -1.6472
 8015WAT     H233866   3.226   1.305   2.341 -1.4611  0.0927  0.0791
 8015WAT    EPW33867   3.241   1.302   2.427 -0.2067 -1.1661 -0.1360
 8016WAT      O33868  -5.201   4.664   6.864 -0.0457  0.1154  0.6102
 8016WAT     H133869  -5.158   4.655   6.949 -0.8461  2.7303  1.3781
 8016WAT     H233870  -5.158   4.739   6.823 -0.0424 -0.7643 -1.0874
 8016WAT    EPW33871  -5.190   4.673   6.869 -0.1509  0.3443  0.4878
 8017WAT      O33872  -2.449   7.376   7.763 -0.0514 -0.0391  0.1841
 8017WAT     H133873  -2.457   7.406   7.854  1.2081 -2.6033  1.2341
 8017WAT     H233874  -2.509   7.303   7.757  0.2997 -0.2517 -0.8830
 8017WAT    EPW33875  -2.458   7.371   7.774  0.1611 -0.4053  0.1817
 8018WAT      O33876   0.264   2.368   5.739 -0.0936 -0.6553 -0.5347
 8018WAT     H133877   0.169   2.368   5.729 -0.2840  3.2080 -0.4657
 8018WAT     H233878   0.295   2.305   5.675 -2.6759 -1.7204 -0.8498
 8018WAT    EPW33879   0.256   2.360   5.730 -0.4593 -0.2861 -0.5670
 8019WAT      O33880   1.789   4.321   0.064 -0.2620  0.4866  0.1146
 8019WAT     H133881   1.739   4.293   0.141 -0.6801 -1.5185 -0.8385
 8019WAT     H233882   1.881   4.313   0.092 -0.4020 -0.5089  0.3273
 8019WAT    EPW33883   1.795   4.316   0.078 -0.3357  0.0908  0.0169
 8020WAT      O33884   0.009   8.281   8.952 -0.6270  0.3604 -0.2048
 8020WAT     H133885   0.036   8.358   8.903  2.8039 -0.7793 -0.3945
 8020WAT     H233886   0.053   8.290   9.036 -0.2777 -1.2729 -0.1787
 8020WAT    EPW33887   0.018   8.292   8.957 -0.1284 -0.0057 -0.2265
 8021WAT      O33888   1.076   4.447   8.202  0.1696  0.2469  0.1943
 8021WAT     H133889   1.163   4.418   8.176  0.0855 -2.3469  2.3858
 8021WAT     H233890   1.024   4.440   8.123  1.7215  1.0222 -0.9536
 8021WAT    EPW33891   1.081   4.442   8.189  0.3632  0.0069  0.3324
 8022WAT      O33892   3.345   6.937   7.185 -0.2448 -0.0288 -0.3349
 8022WAT     H133893   3.280   6.941   7.255 -1.6338 -0.8047 -1.4909
 8022WAT     H233894   3.429   6.931   7.230 -0.9566  0.9673  1.2287
 8022WAT    EPW33895   3.347   6.936   7.200 -0.5219  0.0002 -0.2811
 8023WAT      O33896  -3.132   4.525   7.297  0.7168  0.4565  0.0658
 8023WAT     H133897  -3.104   4.527   7.205 -1.6982 -1.1047 -0.8018
 8023WAT     H233898  -3.122   4.433   7.323 -2.7937 -0.1086 -0.1590
 8023WAT    EPW33899  -3.127   4.513   7.288 -0.0647  0.1760 -0.0782
 8024WAT      O33900  -0.919   1.168   7.645 -0.0361  0.1071  0.5615
 8024WAT     H133901  -0.894   1.158   7.737  0.9187  0.8236  0.3939
 8024WAT     H233902  -0.850   1.121   7.597 -0.6889 -0.5166  0.2106
 8024WAT    EPW33903  -0.907   1.160   7.651  0.0037  0.1193  0.4930
 8025WAT      O33904   1.325   5.382   2.087 -0.2261  0.1020  0.2682
 8025WAT     H133905   1.409   5.426   2.078  0.4001 -0.9725  0.5937
 8025WAT     H233906   1.273   5.440   2.142  1.0818 -0.2016  1.9034
 8025WAT    EPW33907   1.329   5.395   2.093  0.0290 -0.0799  0.5268
 8026WAT      O33908   1.276   1.519   7.924  0.0400 -0.0023  0.2046
 8026WAT     H133909   1.274   1.450   7.991 -2.7299  0.4123  0.6649
 8026WAT     H233910   1.262   1.472   7.841 -0.5567 -0.1100  0.3682
 8026WAT    EPW33911   1.274   1.503   7.922 -0.4041  0.0381  0.2868
 8027WAT      O33912  -0.273   3.317   8.284 -0.2043  0.4952  0.4330
 8027WAT     H133913  -0.309   3.230   8.266  0.2207  0.6000 -0.9718
 8027WAT     H233914  -0.349   3.369   8.311 -0.7905  0.2073 -0.6346
 8027WAT    EPW33915  -0.288   3.312   8.285 -0.2256  0.4710  0.1068
 8028WAT      O33916  -6.407   5.605   8.326  0.2844  0.4326  0.1047
 8028WAT     H133917  -6.318   5.575   8.344 -0.4817 -1.6042  0.7967
 8028WAT     H233918  -6.452   5.527   8.294 -1.5386  1.1629  0.7755
 8028WAT    EPW33919  -6.401   5.591   8.324 -0.0572  0.2604  0.2842
 8029WAT      O33920  -1.437   2.179   2.318  0.4188  0.4477 -0.5148
 8029WAT     H133921  -1.453   2.101   2.266 -0.4407  0.2814 -0.0134
 8029WAT     H233922  -1.506   2.179   2.385  1.4869  0.6581  0.6258
 8029WAT    EPW33923  -1.448   2.169   2.320  0.4463  0.4535 -0.2983
 8030WAT      O33924   6.249   3.331   4.987 -0.2590  0.6206 -0.0954
 8030WAT     H133925   6.329   3.348   4.938  0.3114 -0.9772  0.2001
 8030WAT     H233926   6.276   3.269   5.055 -1.9735 -1.0042 -0.7989
 8030WAT    EPW33927   6.263   3.325   4.989 -0.4098  0.1956 -0.1493
 8031WAT      O33928  -0.893   7.182   1.031 -0.5504 -0.2310 -0.0898
 8031WAT     H133929  -0.948   7.260   1.026  0.1021  0.2150 -0.4255
 8031WAT     H233930  -0.838   7.186   0.953  1.6020  0.5918  1.3675
 8031WAT    EPW33931  -0.893   7.193   1.020 -0.1805 -0.0634  0.0581
 8032WAT      O33932   4.726   0.383   7.103 -0.0995  0.1050  0.1780
 8032WAT     H133933   4.640   0.361   7.066  0.1564 -0.0315 -0.3395
 8032WAT     H233934   4.766   0.441   7.038  1.4435 -2.2123 -1.1077
 8032WAT    EPW33935   4.720   0.388   7.089  0.1380 -0.2186 -0.0598
 8033WAT      O33936  -1.378   7.261   6.130  0.0735  0.1376  0.5369
 8033WAT     H133937  -1.307   7.296   6.076  1.7738 -2.2009  1.0854
 8033WAT     H233938  -1.368   7.305   6.214  0.1070  0.7015  0.2402
 8033WAT    EPW33939  -1.368   7.271   6.134  0.3021 -0.0966  0.5701
 8034WAT      O33940   3.564   4.561   3.663 -0.2515  0.1911 -0.5565
 8034WAT     H133941   3.624   4.494   3.630  0.6212  0.9890 -0.6475
 8034WAT     H233942   3.512   4.516   3.729  0.1449 -0.6409 -0.7938
 8034WAT    EPW33943   3.565   4.547   3.667 -0.0842  0.1867 -0.5997
 8035WAT      O33944  -3.734   4.419   8.051 -0.0453  0.0698  0.5243
 8035WAT     H133945  -3.808   4.431   7.993 -1.5719 -2.1548  1.8355
 8035WAT     H233946  -3.772   4.417   8.139  1.5249 -1.1991  1.2372
 8035WAT    EPW33947  -3.749   4.420   8.055 -0.0396 -0.3910  0.7915
 8036WAT      O33948   0.935   3.845   8.546 -0.5431  0.3122  0.6712
 8036WAT     H133949   1.016   3.814   8.505 -1.3188 -1.0023  0.0531
 8036WAT     H233950   0.925   3.935   8.516  1.4101  1.0183  1.9116
 8036WAT    EPW33951   0.944   3.853   8.537 -0.3878  0.2320  0.7534
 8037WAT      O33952   5.252   8.357   0.322 -0.0341  0.5629  0.5158
 8037WAT     H133953   5.294   8.281   0.361 -1.6840  0.8165  3.0667
 8037WAT     H233954   5.199   8.322   0.250  0.5534 -0.4411  0.5647
 8037WAT    EPW33955   5.250   8.343   0.318 -0.1743  0.4640  0.8587
 8038WAT      O33956   2.150   9.886   1.856 -0.3334 -0.1423 -0.0654
 8038WAT     H133957   2.217   9.853   1.915 -0.1320  0.6372  0.1588
 8038WAT     H233958   2.067   9.868   1.900 -0.3056 -1.4633 -0.5236
 8038WAT    EPW33959   2.148   9.879   1.869 -0.3031 -0.2136 -0.0963
 8039WAT      O33960   0.837   8.358   6.930  0.1156 -0.1448  0.6167
 8039WAT     H133961   0.839   8.262   6.928 -0.7208 -0.1902  1.1694
 8039WAT     H233962   0.912   8.385   6.878  1.6743 -1.1057  2.2781
 8039WAT    EPW33963   0.847   8.349   6.923  0.2109 -0.2775  0.9086
 8040WAT      O33964  -2.545   2.879   6.478  0.0304 -1.0638 -0.1406
 8040WAT     H133965  -2.593   2.817   6.423 -1.2828  0.2313 -0.5245
 8040WAT     H233966  -2.488   2.926   6.417 -1.4278  0.3747 -0.4715
 8040WAT    EPW33967  -2.544   2.877   6.463 -0.3351 -0.7033 -0.2351
 8041WAT      O33968   0.212   8.356   7.120  0.3529  0.2175  0.3735
 8041WAT     H133969   0.268   8.279   7.126  0.6621  0.4621  0.6297
 8041WAT     H233970   0.133   8.324   7.076  0.5169 -0.2228  0.3907
 8041WAT    EPW33971   0.209   8.341   7.115  0.4153  0.1917  0.4094
 8042WAT      O33972   2.221   9.671   0.893 -0.0903  0.4759 -0.0643
 8042WAT     H133973   2.290   9.629   0.945 -1.1238  2.9700  3.7347
 8042WAT     H233974   2.267   9.738   0.842  0.7037 -0.5894 -0.8000
 8042WAT    EPW33975   2.236   9.674   0.893 -0.1220  0.6647  0.3397
 8043WAT      O33976   6.148   6.683   2.872 -0.7270  0.3604 -0.2240
 8043WAT     H133977   6.226   6.691   2.817 -0.1179  1.1822  0.7426
 8043WAT     H233978   6.099   6.763   2.855 -0.9561  0.2270 -0.1928
 8043WAT    EPW33979   6.152   6.695   2.862 -0.6769  0.4511 -0.0924
 8044WAT      O33980  -0.599   4.062   5.996 -0.1681 -0.5726  0.5829
 8044WAT     H133981  -0.622   3.986   5.943  2.1231 -0.2803 -0.9884
 8044WAT     H233982  -0.539   4.027   6.062  2.5390  0.0260 -1.3823
 8044WAT    EPW33983  -0.594   4.047   5.998  0.4911 -0.4551  0.1163
 8045WAT      O33984   5.146   3.540   1.376  0.2308  0.7935  0.0282
 8045WAT     H133985   5.104   3.577   1.453  0.5479 -0.5054  0.8475
 8045WAT     H233986   5.179   3.454   1.404  0.8755  0.5391 -1.3799
 8045WAT    EPW33987   5.145   3.533   1.390  0.3576  0.5887 -0.0494
 8046WAT      O33988   4.258   7.849   4.046  0.2123  0.3670 -0.5914
 8046WAT     H133989   4.332   7.903   4.018 -0.0621  1.1843  0.2147
 8046WAT     H233990   4.296   7.763   4.062  1.0779  0.8925  0.2435
 8046WAT    EPW33991   4.273   7.845   4.044  0.2904  0.5441 -0.3748
 8047WAT      O33992   0.663   1.588   8.562 -0.3415 -0.1294  0.1841
 8047WAT     H133993   0.638   1.509   8.514  1.1803 -0.5036 -0.0209
 8047WAT     H233994   0.656   1.563   8.655  1.8411 -1.1036  0.1324
 8047WAT    EPW33995   0.659   1.574   8.568  0.1471 -0.3072  0.1502
 8048WAT      O33996   0.391   2.749   8.305  0.3922 -0.3354 -0.3109
 8048WAT     H133997   0.428   2.822   8.254  0.9850 -0.7013 -0.4090
 8048WAT     H233998   0.309   2.729   8.261 -0.6145  1.3427  0.6713
 8048WAT    EPW33999   0.385   2.756   8.292  0.3376 -0.1624 -0.1945
 8049WAT      O34000  -0.407   3.374   5.142 -0.2143 -0.4041 -0.2343
 8049WAT     H134001  -0.328   3.391   5.090  0.4215 -0.6097  0.6381
 8049WAT     H234002  -0.388   3.414   5.227 -0.1026 -2.3849  0.7317
 8049WAT    EPW34003  -0.394   3.381   5.147 -0.1158 -0.6926  0.0083
 8050WAT      O34004  -0.062   3.170   5.554 -0.6375 -0.6791 -0.9114
 8050WAT     H134005  -0.078   3.137   5.465 -2.3404 -0.7046 -0.6388
 8050WAT     H234006  -0.142   3.218   5.576 -0.3970 -0.9691  0.7323
 8050WAT    EPW34007  -0.075   3.172   5.545 -0.8304 -0.7207 -0.6588
 8051WAT      O34008   7.660   0.323   2.837 -0.0793 -0.6877  0.1502
 8051WAT     H134009   7.621   0.236   2.830  1.6039 -1.5082  0.5226
 8051WAT     H234010   7.625   0.359   2.919 -0.5491 -1.1293  0.1462
 8051WAT    EPW34011   7.650   0.317   2.847  0.0806 -0.8542  0.1987
 8052WAT      O34012   4.663   7.527   4.535 -0.5951 -0.0591 -0.1194
 8052WAT     H134013   4.630   7.586   4.603 -0.3853 -1.1268  0.9535
 8052WAT     H234014   4.592   7.464   4.520 -0.1865 -0.5684  0.0275
 8052WAT    EPW34015   4.649   7.526   4.542 -0.5136 -0.2670  0.0415
 8053WAT      O34016   0.394   9.927   5.970  0.5717  0.3798  0.3065
 8053WAT     H134017   0.313   9.977   5.979  1.3437  2.0830 -1.4881
 8053WAT     H234018   0.372   9.857   5.908  0.0916 -0.1367  1.0410
 8053WAT    EPW34019   0.380   9.924   5.963  0.6102  0.5364  0.1667
 8054WAT      O34020   1.989   9.801   5.241  0.5157 -0.3790  0.3579
 8054WAT     H134021   1.997   9.755   5.157 -0.2517 -1.0740  0.6495
 8054WAT     H234022   2.079   9.823   5.265  0.7305 -0.1145 -0.6801
 8054WAT    EPW34023   2.002   9.798   5.233  0.4429 -0.4358  0.2594
 8055WAT      O34024  -3.476   8.308   8.014 -0.3474 -0.5715  0.0290
 8055WAT     H134025  -3.380   8.301   8.016 -0.2649 -0.6583 -2.1152
 8055WAT     H234026  -3.506   8.223   8.046  0.3013 -0.7720  0.1318
 8055WAT    EPW34027  -3.467   8.296   8.019 -0.2511 -0.6094 -0.2403
 8056WAT      O34028   0.951   7.625   1.599 -0.0360 -0.1326  0.3171
 8056WAT     H134029   0.870   7.646   1.552 -1.1793 -0.0821  2.2054
 8056WAT     H234030   0.923   7.567   1.670  1.2686  1.2785  2.0724
 8056WAT    EPW34031   0.937   7.620   1.602 -0.0147  0.0601  0.7977
 8057WAT      O34032   1.498   1.082   5.025  0.3286 -0.7148 -0.1653
 8057WAT     H134033   1.476   0.995   5.057  0.9922 -0.3429  1.4125
 8057WAT     H234034   1.525   1.069   4.934 -0.5348 -1.9943 -0.2602
 8057WAT    EPW34035   1.498   1.069   5.017  0.3023 -0.8346  0.0303
 8058WAT      O34036  -1.490   0.846   4.716 -0.4014  0.6322 -0.0425
 8058WAT     H134037  -1.457   0.785   4.782  0.7812  1.7531  0.4463
 8058WAT     H234038  -1.511   0.791   4.640  1.3953 -0.3058  0.1062
 8058WAT    EPW34039  -1.488   0.831   4.714 -0.0085  0.6563  0.0417
 8059WAT      O34040  -3.820   9.684   3.196 -0.5071 -0.0905  0.5722
 8059WAT     H134041  -3.874   9.753   3.157  0.5059 -0.1308 -0.9928
 8059WAT     H234042  -3.756   9.731   3.249  1.2929  0.4092 -1.8552
 8059WAT    EPW34043  -3.818   9.699   3.198 -0.1361 -0.0300  0.0458
 8060WAT      O34044   5.861   5.258   3.332  0.6758 -0.7678 -0.6079
 8060WAT     H134045   5.892   5.188   3.389  0.5137 -2.0956 -2.0924
 8060WAT     H234046   5.936   5.317   3.323  1.3867 -1.6641 -0.7091
 8060WAT    EPW34047   5.875   5.257   3.339  0.7482 -1.0612 -0.8169
 8061WAT      O34048  -0.274   6.069   4.996  0.6836 -0.1092 -0.0830
 8061WAT     H134049  -0.237   6.148   5.035 -1.6066  1.1680 -0.3131
 8061WAT     H234050  -0.281   6.089   4.903 -1.7502  0.2838  0.1167
 8061WAT    EPW34051  -0.270   6.082   4.989  0.0605  0.1111 -0.0870
 8062WAT      O34052   0.623   1.850   5.840 -0.3326 -0.1649  0.4648
 8062WAT     H134053   0.647   1.890   5.756 -1.0552 -1.5713 -0.4453
 8062WAT     H234054   0.670   1.902   5.905 -1.6073  2.4947 -0.5949
 8062WAT    EPW34055   0.632   1.862   5.838 -0.5960  0.0004  0.2053
 8063WAT      O34056   3.403   2.838   8.564 -0.4005  0.8795  0.6092
 8063WAT     H134057   3.423   2.746   8.581  1.6448  1.2286  0.3820
 8063WAT     H234058   3.328   2.836   8.505 -0.9498 -0.6031  1.3053
 8063WAT    EPW34059   3.396   2.826   8.559 -0.2033  0.7299  0.6709
 8064WAT      O34060  -3.079   7.413   4.703  0.0936  0.4793  0.5255
 8064WAT     H134061  -3.045   7.398   4.615 -1.3009  0.6628 -0.0733
 8064WAT     H234062  -3.073   7.328   4.746  0.4559  0.3044  0.1345
 8064WAT    EPW34063  -3.074   7.400   4.697 -0.0427  0.4807  0.3951
 8065WAT      O34064   5.047   7.773   0.766 -0.3228 -0.2371 -0.4488
 8065WAT     H134065   5.083   7.861   0.760 -1.7478  0.3832 -0.4820
 8065WAT     H234066   5.048   7.740   0.676 -2.5919  0.9862 -1.0118
 8065WAT    EPW34067   5.052   7.780   0.753 -0.8099  0.0060 -0.5274
 8066WAT      O34068  -1.752   7.529   2.603  0.3569  0.2958 -0.2572
 8066WAT     H134069  -1.758   7.570   2.517 -0.9928  0.5356 -0.0682
 8066WAT     H234070  -1.763   7.601   2.665  2.9756  0.4101  0.2094
 8066WAT    EPW34071  -1.754   7.544   2.600  0.5243  0.3424 -0.1707
 8067WAT      O34072   0.100   5.270   7.078 -0.1009  0.0499  0.4029
 8067WAT     H134073   0.027   5.215   7.104 -0.3493  0.5484  0.7777
 8067WAT     H234074   0.174   5.238   7.130 -0.2756  0.1612  0.7219
 8067WAT    EPW34075   0.100   5.259   7.088 -0.1567  0.1302  0.4942
 8068WAT      O34076  -1.267   1.176   6.822  0.5574 -0.1230 -0.6203
 8068WAT     H134077  -1.204   1.217   6.881 -0.2387  0.2642 -0.0031
 8068WAT     H234078  -1.313   1.113   6.878  0.7170 -0.7456 -1.1788
 8068WAT    EPW34079  -1.265   1.173   6.837  0.4735 -0.1541 -0.6125
 8069WAT      O34080   6.224   4.533   1.432 -0.2199  0.0046 -0.1341
 8069WAT     H134081   6.158   4.566   1.493 -1.3934  1.6329 -2.1169
 8069WAT     H234082   6.179   4.464   1.383 -0.1599  0.4676 -0.8550
 8069WAT    EPW34083   6.209   4.528   1.433 -0.3667  0.2806 -0.4907
 8070WAT      O34084   2.943   3.686   3.125  0.2454 -0.2872  0.1316
 8070WAT     H134085   2.902   3.643   3.200 -1.8302 -0.7210 -1.2038
 8070WAT     H234086   2.968   3.773   3.159 -2.6709  0.3876  0.8119
 8070WAT    EPW34087   2.941   3.692   3.139 -0.4129 -0.2555  0.0451
 8071WAT      O34088   0.347   0.833   3.995  0.2812  0.0272  0.3992
 8071WAT     H134089   0.279   0.767   3.990 -0.2493  0.4321  1.9941
 8071WAT     H234090   0.301   0.917   3.996  0.7857  0.3094  1.4694
 8071WAT    EPW34091   0.332   0.836   3.994  0.2778  0.1178  0.7507
 8072WAT      O34092  -1.355   7.105   6.578 -0.6069 -0.5018 -0.6378
 8072WAT     H134093  -1.311   7.091   6.662  0.9699  2.1987 -0.9158
 8072WAT     H234094  -1.284   7.110   6.514 -1.5915  0.1877 -1.7117
 8072WAT    EPW34095  -1.340   7.104   6.580 -0.5288 -0.0546 -0.8161
 8073WAT      O34096   1.515   8.235   2.368  0.3734 -0.6413  0.7983
 8073WAT     H134097   1.421   8.235   2.386  0.2903 -1.0192  0.3751
 8073WAT     H234098   1.553   8.185   2.440  0.2347 -0.6337  0.8768
 8073WAT    EPW34099   1.507   8.229   2.380  0.3442 -0.6900  0.7528
 8074WAT      O34100   0.782   4.108   0.701  0.1665  0.1374  0.2518
 8074WAT     H134101   0.797   4.188   0.651  1.1336 -0.3040 -0.1699
 8074WAT     H234102   0.867   4.065   0.705 -0.6347 -1.6497 -0.8332
 8074WAT    EPW34103   0.795   4.113   0.695  0.1884 -0.1566  0.0531
 8075WAT      O34104  -4.212   1.718   5.920  0.4234 -0.0784  0.3633
 8075WAT     H134105  -4.128   1.711   5.965  0.3096 -0.2645  0.5527
 8075WAT     H234106  -4.246   1.629   5.919  0.3377 -0.0425  0.0742
 8075WAT    EPW34107  -4.206   1.706   5.926  0.3970 -0.0982  0.3502
 8076WAT      O34108   5.663   3.578   4.061  0.0175  0.1620  0.3027
 8076WAT     H134109   5.744   3.592   4.110 -0.9307  2.0470  1.4534
 8076WAT     H234110   5.692   3.547   3.975  1.8801 -0.3290  1.0637
 8076WAT    EPW34111   5.677   3.576   4.056  0.1380  0.3458  0.5548
 8077WAT      O34112   4.717   3.681   5.285  0.4943  0.4090 -0.1001
 8077WAT     H134113   4.765   3.764   5.289  0.2597  0.5027  3.4306
 8077WAT     H234114   4.785   3.614   5.287  0.7183  0.3439 -3.5251
 8077WAT    EPW34115   4.733   3.683   5.286  0.4930  0.4127 -0.0861
 8078WAT      O34116   3.453   8.523   6.720 -0.5766 -0.3045  0.1251
 8078WAT     H134117   3.454   8.571   6.803 -0.7975 -1.1629  0.6349
 8078WAT     H234118   3.465   8.431   6.744 -3.0470 -0.8944 -0.5331
 8078WAT    EPW34119   3.455   8.517   6.734 -0.9315 -0.4959  0.1056
 8079WAT      O34120  -5.070   5.132   6.579 -0.3611 -0.7567 -0.5687
 8079WAT     H134121  -5.097   5.220   6.553  1.3460  0.6236  1.9359
 8079WAT     H234122  -5.069   5.083   6.497 -0.8322  1.6776 -2.1590
 8079WAT    EPW34123  -5.073   5.137   6.565 -0.1981 -0.2537 -0.4480
 8080WAT      O34124   2.856   3.378   1.496 -0.7178  0.0718  0.3166
 8080WAT     H134125   2.938   3.423   1.477 -1.3969  1.2828  0.2009
 8080WAT     H234126   2.855   3.369   1.592 -0.3147 -0.2342  0.2951
 8080WAT    EPW34127   2.867   3.383   1.506 -0.7542  0.1911  0.2985
 8081WAT      O34128  -0.195   1.411   5.422 -0.4405 -0.3528 -0.1932
 8081WAT     H134129  -0.220   1.394   5.513  2.2596  1.4232  0.9885
 8081WAT     H234130  -0.100   1.421   5.425 -0.5935  3.8403 -2.4549
 8081WAT    EPW34131  -0.186   1.410   5.435 -0.1046  0.4345 -0.3355
 8082WAT      O34132   4.178   2.573   3.877  0.2093  0.3586 -0.2706
 8082WAT     H134133   4.121   2.503   3.910 -0.1569  1.2507  1.0592
 8082WAT     H234134   4.120   2.648   3.867  0.8645  0.8609 -0.3210
 8082WAT    EPW34135   4.163   2.573   3.880  0.2475  0.5424 -0.1018
 8083WAT      O34136  -0.657   2.755   8.246  0.1681  0.3017  0.5160
 8083WAT     H134137  -0.609   2.782   8.168  0.3164 -2.2000 -0.3538
 8083WAT     H234138  -0.748   2.778   8.227  0.4067  1.1137  0.3048
 8083WAT    EPW34139  -0.663   2.762   8.234  0.2191  0.0788  0.3734
 8084WAT      O34140  -4.951   0.239   8.415 -0.2454  1.0291  0.2970
 8084WAT     H134141  -4.882   0.222   8.479  0.0692  0.2137 -0.2557
 8084WAT     H234142  -5.021   0.280   8.467 -1.4228 -2.6324  1.9214
 8084WAT    EPW34143  -4.951   0.242   8.431 -0.3593  0.4386  0.4382
 8085WAT      O34144   2.721   8.178   6.161 -0.5094 -0.1203  0.6320
 8085WAT     H134145   2.687   8.205   6.246 -1.6278 -1.3130  0.5875
 8085WAT     H234146   2.815   8.164   6.176 -0.4763  0.8384  1.3567
 8085WAT    EPW34147   2.729   8.180   6.174 -0.6527 -0.1512  0.7215
 8086WAT      O34148  -1.399   2.529   5.802  0.0469  0.4982  0.0056
 8086WAT     H134149  -1.481   2.572   5.826 -0.7841 -1.1145  0.1894
 8086WAT     H234150  -1.425   2.459   5.742  1.3044  0.0394 -0.0429
 8086WAT    EPW34151  -1.413   2.526   5.797  0.1032  0.2249  0.0234
 8087WAT      O34152   1.303   4.903   2.284  0.1640 -0.1759  0.2092
 8087WAT     H134153   1.398   4.917   2.289  0.3141  0.2122 -2.1891
 8087WAT     H234154   1.292   4.835   2.218 -1.2465  1.4677 -1.3919
 8087WAT    EPW34155   1.314   4.896   2.276 -0.0023  0.0920 -0.3183
 8088WAT      O34156   1.859   5.520   4.572 -0.3701  0.4223 -0.4691
 8088WAT     H134157   1.845   5.458   4.500  2.6770  1.7302 -2.3950
 8088WAT     H234158   1.851   5.467   4.651 -0.1368 -1.9444 -1.9378
 8088WAT    EPW34159   1.856   5.505   4.573  0.0626  0.2828 -0.9170
 8089WAT      O34160   3.681   7.743   1.546 -0.1713  0.3106 -0.4368
 8089WAT     H134161   3.761   7.703   1.511 -0.0952  1.1237 -1.2213
 8089WAT     H234162   3.694   7.744   1.641  0.3614 -0.3773 -0.4951
 8089WAT    EPW34163   3.693   7.738   1.554 -0.0911  0.3271 -0.5480
 8090WAT      O34164  -6.644  10.126   5.705  0.7528 -0.4260 -0.6431
 8090WAT     H134165  -6.703  10.053   5.685  1.5028 -1.3798  0.4864
 8090WAT     H234166  -6.655  10.141   5.799  1.1986  0.4119 -0.7131
 8090WAT    EPW34167  -6.654  10.118   5.714  0.9108 -0.4416 -0.5033
 8091WAT      O34168   4.632   4.891   2.647 -0.1791  0.3944  0.0815
 8091WAT     H134169   4.583   4.813   2.618 -0.2824  1.2036 -2.1330
 8091WAT     H234170   4.718   4.880   2.608 -0.0919  1.2255  0.0233
 8091WAT    EPW34171   4.637   4.879   2.638 -0.1812  0.6108 -0.2182
 8092WAT      O34172   6.180   1.561   1.009 -0.2838 -0.4126  0.1055
 8092WAT     H134173   6.225   1.572   0.925 -1.8618  2.1033 -0.5003
 8092WAT     H234174   6.096   1.520   0.985 -0.5900 -0.0130  0.4888
 8092WAT    EPW34175   6.175   1.557   0.995 -0.5324 -0.0281  0.0762
 8093WAT      O34176   0.990   8.567   1.208 -0.0632  0.3406  0.1432
 8093WAT     H134177   0.897   8.586   1.201 -0.2589 -0.1736  1.1471
 8093WAT     H234178   1.028   8.600   1.127 -0.8236  2.3191  0.5460
 8093WAT    EPW34179   0.983   8.574   1.196 -0.1893  0.5341  0.3287
 8094WAT      O34180  -4.189   4.898   4.006 -0.5904  0.3560 -0.4338
 8094WAT     H134181  -4.116   4.958   4.019 -0.5396  0.5990 -1.7232
 8094WAT     H234182  -4.252   4.921   4.075  0.3927  0.3482  0.5006
 8094WAT    EPW34183  -4.187   4.909   4.017 -0.4537  0.3870 -0.4804
 8095WAT      O34184  -2.941  10.254   0.150  0.0366  0.6644 -0.3135
 8095WAT     H134185  -2.888  10.272   0.072 -0.1186  0.8605 -0.3727
 8095WAT     H234186  -2.967  10.340   0.182  0.5016  0.6052  0.2321
 8095WAT    EPW34187  -2.937  10.267   0.144  0.0775  0.6824 -0.2494
 8096WAT      O34188   4.874   8.002   1.828 -0.0904  0.2457 -0.3686
 8096WAT     H134189   4.893   7.965   1.914  2.1629  0.2055 -0.8323
 8096WAT     H234190   4.859   8.095   1.844 -0.4384  0.1052  0.1473
 8096WAT    EPW34191   4.874   8.009   1.841  0.1609  0.2227 -0.3617
 8097WAT      O34192   3.839   9.136   1.717 -0.2267  0.1354 -0.2763
 8097WAT     H134193   3.744   9.147   1.728 -0.0345  0.7999  0.9248
 8097WAT     H234194   3.875   9.160   1.803  0.8910 -2.0961 -0.0733
 8097WAT    EPW34195   3.831   9.141   1.730 -0.0540 -0.0715 -0.0911
 8098WAT      O34196   0.452   8.621   6.511  1.1810 -0.7957  0.8634
 8098WAT     H134197   0.398   8.643   6.587 -1.2089  1.1269 -1.2119
 8098WAT     H234198   0.521   8.688   6.510  0.2595  0.1742  0.5013
 8098WAT    EPW34199   0.454   8.633   6.521  0.7442 -0.4144  0.5419
 8099WAT      O34200   3.078   0.928   7.582 -0.9032  0.1570 -0.1096
 8099WAT     H134201   3.090   1.005   7.527  1.4198 -0.1852 -0.1764
 8099WAT     H234202   3.089   0.961   7.672 -1.8100  0.2210 -0.0186
 8099WAT    EPW34203   3.081   0.942   7.587 -0.7164  0.1203 -0.1063
 8100WAT      O34204   4.429   0.600   4.884 -0.0235  0.2614 -0.5548
 8100WAT     H134205   4.501   0.663   4.871  1.3420 -0.8654  1.1721
 8100WAT     H234206   4.463   0.518   4.847 -0.8588 -0.0448 -0.6561
 8100WAT    EPW34207   4.443   0.598   4.877  0.0463  0.0724 -0.3405
 8101WAT      O34208  -1.029   8.680   7.056  0.5260 -0.0521  0.3993
 8101WAT     H134209  -1.119   8.714   7.054  0.0141 -1.2407 -2.8412
 8101WAT     H234210  -0.974   8.755   7.034  0.6425  1.0668  3.8665
 8101WAT    EPW34211  -1.034   8.694   7.053  0.4739 -0.0610  0.4289
 8102WAT      O34212   2.965   9.148   2.096 -0.1834  0.4034 -0.0963
 8102WAT     H134213   2.894   9.188   2.147 -0.7430 -1.1939  0.4221
 8102WAT     H234214   2.984   9.066   2.141  0.1411 -0.4962 -1.7838
 8102WAT    EPW34215   2.958   9.143   2.109 -0.2145  0.0739 -0.2506
 8103WAT      O34216   4.992   9.858   1.124  0.2997 -0.0611  0.3869
 8103WAT     H134217   5.035   9.784   1.081 -0.8307 -1.4222  1.5099
 8103WAT     H234218   5.056   9.888   1.189  1.4191  1.0582 -1.1541
 8103WAT    EPW34219   5.006   9.852   1.127  0.2983 -0.0930  0.3318
 8104WAT      O34220   1.531   7.933   8.969  0.0400  0.5109  0.6261
 8104WAT     H134221   1.579   7.924   8.887 -1.7954  0.3355 -0.4924
 8104WAT     H234222   1.599   7.947   9.035  1.8276 -2.2989 -0.4171
 8104WAT    EPW34223   1.546   7.934   8.967  0.0337  0.1173  0.3414
 8105WAT      O34224   3.891  10.354   5.600 -0.5058  0.2191 -0.2009
 8105WAT     H134225   3.865  10.281   5.543  0.5045  0.9169 -1.6311
 8105WAT     H234226   3.822  10.419   5.589  0.1469  0.7404 -1.4299
 8105WAT    EPW34227   3.879  10.353   5.591 -0.2865  0.3800 -0.5517
 8106WAT      O34228   3.939   0.925   4.820 -0.3650 -0.1954  0.1413
 8106WAT     H134229   3.882   0.854   4.848 -2.0782  0.7560 -0.7409
 8106WAT     H234230   3.905   0.951   4.734  1.6006  0.2353 -0.5634
 8106WAT    EPW34231   3.927   0.919   4.812 -0.3318 -0.0131 -0.0682
 8107WAT      O34232  -2.902   5.518   5.314  1.0092  0.6912  0.2280
 8107WAT     H134233  -2.972   5.454   5.306  1.8499 -0.1086 -1.1670
 8107WAT     H234234  -2.823   5.465   5.324  1.4072  1.5736  2.3128
 8107WAT    EPW34235  -2.901   5.502   5.315  1.1727  0.7021  0.3188
 8108WAT      O34236   1.570   3.076   6.797 -0.1068 -0.8946 -0.5539
 8108WAT     H134237   1.609   3.012   6.857 -0.8818 -0.6607  0.2124
 8108WAT     H234238   1.492   3.032   6.762 -1.2804  0.0005  0.8281
 8108WAT    EPW34239   1.565   3.062   6.800 -0.3638 -0.7458 -0.2706
 8109WAT      O34240   5.003   2.477   1.283  0.1105  0.8808 -0.0550
 8109WAT     H134241   4.938   2.529   1.236 -0.4249 -1.7300 -2.4824
 8109WAT     H234242   4.952   2.425   1.345  0.0855  0.1289 -0.6984
 8109WAT    EPW34243   4.988   2.477   1.285  0.0367  0.4373 -0.4600
 8110WAT      O34244   3.340   2.063   6.256  0.2684 -0.2948  0.0086
 8110WAT     H134245   3.364   1.979   6.217 -1.3863 -1.7555  1.9468
 8110WAT     H234246   3.424   2.102   6.281  1.0932 -1.1761 -1.2449
 8110WAT    EPW34247   3.354   2.057   6.254  0.1590 -0.6037  0.0989
 8111WAT      O34248   1.394   5.742   6.871 -0.1329 -0.1511  0.4273
 8111WAT     H134249   1.469   5.703   6.825  1.3118  0.3269  2.2561
 8111WAT     H234250   1.374   5.820   6.819 -1.3085 -1.7775 -1.7194
 8111WAT    EPW34251   1.401   5.747   6.858 -0.0974 -0.3028  0.3853
 8112WAT      O34252   0.621   4.113   8.659 -0.5657 -0.3748 -0.0016
 8112WAT     H134253   0.549   4.151   8.709 -0.8831  0.3598 -0.9897
 8112WAT     H234254   0.580   4.079   8.580 -0.1607 -2.0819  0.4957
 8112WAT    EPW34255   0.606   4.114   8.655 -0.5541 -0.5031 -0.0668
 8113WAT      O34256   3.835   0.430   6.498 -0.1757  0.4748  0.8827
 8113WAT     H134257   3.914   0.480   6.476 -0.3627  0.9082  1.1768
 8113WAT     H234258   3.769   0.461   6.435 -0.5072  1.1771  1.5604
 8113WAT    EPW34259   3.837   0.441   6.487 -0.2441  0.6246  1.0111
 8114WAT      O34260   2.182   6.896   4.643  0.6740 -0.6488 -0.7093
 8114WAT     H134261   2.221   6.864   4.724 -0.0157 -2.3163 -0.9915
 8114WAT     H234262   2.241   6.866   4.574  1.7134  1.4861 -0.8351
 8114WAT    EPW34263   2.195   6.888   4.644  0.7201 -0.5870 -0.7632
 8115WAT      O34264  -1.165   6.314   0.353 -0.1121  0.2531  0.2468
 8115WAT     H134265  -1.260   6.324   0.353  0.0676  4.2767 -2.2655
 8115WAT     H234266  -1.133   6.384   0.409  1.3847 -0.1184 -0.0975
 8115WAT    EPW34267  -1.173   6.324   0.360  0.1090  0.7348 -0.1300
 8116WAT      O34268  -4.237   5.618   6.568 -0.4115 -0.4859  0.5721
 8116WAT     H134269  -4.145   5.625   6.592 -0.3256 -0.2219  0.1756
 8116WAT     H234270  -4.280   5.686   6.620 -0.0227  1.0336 -1.0105
 8116WAT    EPW34271  -4.231   5.628   6.578 -0.3490 -0.2508  0.3109
 8117WAT      O34272   0.383   1.892   2.174 -0.2184  0.1770  0.0521
 8117WAT     H134273   0.379   1.810   2.223 -1.9239 -1.2501 -2.2501
 8117WAT     H234274   0.458   1.938   2.211  0.8699 -2.4447  1.4115
 8117WAT    EPW34275   0.393   1.887   2.185 -0.2998 -0.3570 -0.0725
 8118WAT      O34276   0.518   8.490   1.131  0.6201  0.1241 -0.4177
 8118WAT     H134277   0.439   8.440   1.151  0.3905 -0.2446 -2.0997
 8118WAT     H234278   0.586   8.451   1.186  1.0277 -3.7287 -3.2334
 8118WAT    EPW34279   0.517   8.478   1.141  0.6436 -0.4320 -1.0108
 8119WAT      O34280   3.587   8.505   0.135 -0.5852 -1.2297 -0.6345
 8119WAT     H134281   3.632   8.499   0.051  0.6418  2.2493 -0.3902
 8119WAT     H234282   3.657   8.518   0.199 -1.6331  1.3211  0.1411
 8119WAT    EPW34283   3.602   8.506   0.132 -0.5616 -0.4349 -0.5000
 8120WAT      O34284   9.087   3.191   1.196  0.0885 -0.2813  0.3258
 8120WAT     H134285   9.041   3.251   1.137  0.8953  1.9288  1.8190
 8120WAT     H234286   9.031   3.114   1.199 -2.7963  1.6519  0.8313
 8120WAT    EPW34287   9.073   3.189   1.188 -0.1855  0.2652  0.5894
 8121WAT      O34288  -0.471   9.509   1.196  0.0980 -0.2486 -0.4098
 8121WAT     H134289  -0.538   9.473   1.254 -0.3797  0.4720 -0.5042
 8121WAT     H234290  -0.388   9.492   1.241 -0.2209 -0.3172  0.1500
 8121WAT    EPW34291  -0.469   9.502   1.209 -0.0071 -0.1621 -0.3484
 8122WAT      O34292   1.927   9.816   0.160  0.7347 -0.3215  0.0501
 8122WAT     H134293   1.984   9.832   0.235  0.4393  1.0337  0.0179
 8122WAT     H234294   1.890   9.729   0.176  1.0345 -0.2490  1.2359
 8122WAT    EPW34295   1.929   9.807   0.172  0.7353 -0.1330  0.2022
 8123WAT      O34296  -5.152   9.279   3.201  0.1049  0.8465 -0.2017
 8123WAT     H134297  -5.163   9.374   3.198 -2.7727  0.6054 -0.0750
 8123WAT     H234298  -5.224   9.248   3.256  0.1221 -1.5077 -1.3828
 8123WAT    EPW34299  -5.163   9.288   3.208 -0.2725  0.5045 -0.3407
 8124WAT      O34300  -1.436   4.009   0.715 -0.4260 -0.2337  0.7523
 8124WAT     H134301  -1.461   4.090   0.669  2.2244  1.0570  1.3984
 8124WAT     H234302  -1.496   4.004   0.789 -0.1247  1.6391  1.1711
 8124WAT    EPW34303  -1.447   4.019   0.719 -0.0367  0.1836  0.8927
 8125WAT      O34304   2.644   0.937   1.165 -0.4378  0.4066 -0.4100
 8125WAT     H134305   2.559   0.896   1.147  0.1505 -0.4840 -1.2638
 8125WAT     H234306   2.671   0.900   1.249 -1.3030  1.4206  0.3505
 8125WAT    EPW34307   2.636   0.927   1.174 -0.4745  0.4229 -0.4223
 8126WAT      O34308  -7.572  10.351   7.101  0.0132  0.1604 -0.7426
 8126WAT     H134309  -7.489  10.384   7.135 -0.3625  0.3110  0.0537
 8126WAT     H234310  -7.547  10.293   7.029  0.7291  1.7321 -1.8373
 8126WAT    EPW34311  -7.558  10.348   7.096  0.0584  0.3877 -0.7820
 8127WAT      O34312  -7.451   9.833   7.021 -0.6737  0.1954 -0.0271
 8127WAT     H134313  -7.475   9.925   7.010  0.9051  0.8559  1.6075
 8127WAT     H234314  -7.442   9.800   6.932  2.8145  2.7820 -0.8116
 8127WAT    EPW34315  -7.453   9.841   7.008 -0.0055  0.6232  0.0849
 8128WAT      O34316  -1.173   1.421   1.308 -0.3786 -0.4150  0.7839
 8128WAT     H134317  -1.104   1.367   1.270  1.3124  1.0368  1.6484
 8128WAT     H234318  -1.225   1.360   1.359  1.2776 -1.3265  1.4690
 8128WAT    EPW34319  -1.171   1.406   1.310  0.0629 -0.3437  0.9883
 8129WAT      O34320  -0.102   7.323   0.408  0.1681 -0.4648  0.0216
 8129WAT     H134321  -0.170   7.389   0.416 -0.0016 -0.7103  0.6171
 8129WAT     H234322  -0.070   7.310   0.497  1.2794 -0.0518 -0.3030
 8129WAT    EPW34323  -0.107   7.330   0.421  0.2923 -0.4425  0.0573
 8130WAT      O34324   1.976   9.697   8.062  0.5042  0.4023  0.6345
 8130WAT     H134325   1.890   9.734   8.043  1.4180  0.8090 -3.6270
 8130WAT     H234326   1.963   9.602   8.062  0.2513  0.3956 -1.7209
 8130WAT    EPW34327   1.963   9.690   8.060  0.5913  0.4549 -0.2379
 8131WAT      O34328   1.165  10.350   5.363  0.5941  0.2415  0.3334
 8131WAT     H134329   1.232  10.283   5.349  0.8763  0.4725  0.5624
 8131WAT     H234330   1.085  10.312   5.326  0.5246 -0.6254  1.3304
 8131WAT    EPW34331   1.163  10.336   5.356  0.6221  0.1578  0.4952
 8132WAT      O34332   0.517   3.319   6.909  0.1272 -0.7615  0.7887
 8132WAT     H134333   0.564   3.378   6.849 -0.4798 -1.5476 -0.5191
 8132WAT     H234334   0.515   3.235   6.862 -1.5350 -1.0491  1.3226
 8132WAT    EPW34335   0.523   3.316   6.895 -0.1721 -0.9031  0.6866
 8133WAT      O34336  -3.595   0.387   8.652 -0.9930  0.9078 -0.5108
 8133WAT     H134337  -3.624   0.296   8.648 -2.1986  1.2723 -0.4824
 8133WAT     H234338  -3.567   0.408   8.563  0.0759  0.2841 -0.3435
 8133WAT    EPW34339  -3.595   0.378   8.640 -1.0110  0.8736 -0.4854
 8134WAT      O34340   2.881   0.653   1.133  0.4705  0.2101 -0.8087
 8134WAT     H134341   2.964   0.606   1.123 -0.1191 -0.7625 -1.2920
 8134WAT     H234342   2.905   0.745   1.127  1.2094 -0.0793 -3.5308
 8134WAT    EPW34343   2.895   0.659   1.131  0.4903  0.0436 -1.2315
 8135WAT      O34344   1.629   1.956   3.767 -0.6070  0.1181 -0.5689
 8135WAT     H134345   1.681   2.036   3.757 -1.5663  0.5772 -2.2083
 8135WAT     H234346   1.543   1.979   3.732 -2.0830 -0.5049  2.3730
 8135WAT    EPW34347   1.624   1.970   3.761 -0.9282  0.0965 -0.3972
 8136WAT      O34348   1.493   4.952   3.841 -0.6874  0.0099  0.7125
 8136WAT     H134349   1.403   4.941   3.811  0.1018  0.8264 -2.2335
 8136WAT     H234350   1.547   4.947   3.762  1.5888  2.5797  1.8979
 8136WAT    EPW34351   1.489   4.950   3.827 -0.2831  0.4566  0.4803
 8137WAT      O34352   1.779   4.110   7.008  0.7821  0.0640  0.1396
 8137WAT     H134353   1.690   4.093   6.976  0.0612  0.0582  2.0714
 8137WAT     H234354   1.779   4.202   7.035  2.0812  0.7641 -1.9347
 8137WAT    EPW34355   1.768   4.120   7.007  0.8584  0.1557  0.1209
 8138WAT      O34356   0.595   0.140   8.843 -0.3678 -0.4173  0.1380
 8138WAT     H134357   0.630   0.090   8.770 -1.8621  0.3520 -1.1567
 8138WAT     H234358   0.524   0.085   8.877 -0.9171  0.0641 -0.2188
 8138WAT    EPW34359   0.590   0.126   8.838 -0.6373 -0.2523 -0.0796
 8139WAT      O34360   4.831   3.908   6.657  0.1568 -0.7077 -0.0463
 8139WAT     H134361   4.809   3.816   6.667  0.2431 -1.2032 -3.3344
 8139WAT     H234362   4.784   3.952   6.728 -3.6776 -2.7471 -1.0871
 8139WAT    EPW34363   4.822   3.902   6.668 -0.3376 -1.0419 -0.6173
 8140WAT      O34364   0.058   8.783   4.202 -0.3336  0.7612 -0.4571
 8140WAT     H134365   0.036   8.823   4.118 -0.9647  0.5889 -0.3836
 8140WAT     H234366  -0.026   8.775   4.247 -0.2175 -0.5472 -0.4293
 8140WAT    EPW34367   0.044   8.787   4.197 -0.4015  0.5660 -0.4437
 8141WAT      O34368  -1.580   6.038   6.732  0.3681 -0.5243 -0.6087
 8141WAT     H134369  -1.673   6.055   6.745  0.3958 -1.8255  1.8684
 8141WAT     H234370  -1.576   5.947   6.704  0.9395 -0.9330  0.7297
 8141WAT    EPW34371  -1.592   6.028   6.730  0.4472 -0.7498 -0.1054
 8142WAT      O34372   0.664   1.400   7.103  0.3508  0.4113 -0.0239
 8142WAT     H134373   0.702   1.401   7.191  0.3495  2.0023 -0.0010
 8142WAT     H234374   0.728   1.447   7.049  0.5328 -0.8894 -0.9707
 8142WAT    EPW34375   0.678   1.407   7.108  0.3747  0.4496 -0.1457
 8143WAT      O34376  -0.238  10.200   1.908  0.0433  0.1582 -0.2420
 8143WAT     H134377  -0.200  10.272   1.958 -2.0105  1.8912 -1.0099
 8143WAT     H234378  -0.186  10.196   1.828  2.4696 -1.7211  1.3058
 8143WAT    EPW34379  -0.226  10.209   1.904  0.0924  0.1392 -0.1391
 8144WAT      O34380  -5.584   5.096   6.902  0.3445 -0.0451  0.6726
 8144WAT     H134381  -5.628   5.067   6.822  0.5398 -0.2707  0.6454
 8144WAT     H234382  -5.525   5.165   6.873 -1.2412  1.5134  0.9611
 8144WAT    EPW34383  -5.582   5.102   6.888  0.1612  0.1307  0.7069
 8145WAT      O34384  -2.927   8.788   0.921 -0.1702 -0.0035 -0.0479
 8145WAT     H134385  -2.988   8.751   0.985  0.1727  0.8229  0.7836
 8145WAT     H234386  -2.865   8.717   0.904 -0.8028 -0.5311 -0.1712
 8145WAT    EPW34387  -2.927   8.774   0.928 -0.2085  0.0362  0.0455
 8146WAT      O34388   3.196   6.189   5.681  0.0115 -0.2277  0.0101
 8146WAT     H134389   3.278   6.165   5.723  0.0783  0.3616  0.2146
 8146WAT     H234390   3.134   6.200   5.754 -0.4252 -1.2841 -0.1680
 8146WAT    EPW34391   3.198   6.187   5.696 -0.0373 -0.2890  0.0136
 8147WAT      O34392   5.129   6.065   1.860 -0.1844 -0.3141 -0.4318
 8147WAT     H134393   5.143   6.084   1.768 -2.9144  0.7985 -0.7204
 8147WAT     H234394   5.215   6.074   1.900  0.9454 -0.2025 -2.7446
 8147WAT    EPW34395   5.142   6.069   1.853 -0.3953 -0.1526 -0.7749
 8148WAT      O34396  -2.182   8.391   6.925 -0.1333 -0.3012 -0.3334
 8148WAT     H134397  -2.197   8.459   6.859  2.6296  1.8200  1.0450
 8148WAT     H234398  -2.137   8.436   6.996 -1.4942 -2.8595  2.3365
 8148WAT    EPW34399  -2.178   8.406   6.926  0.0516 -0.3591  0.2005
 8149WAT      O34400  -4.519   6.958   4.708  0.1423 -0.5364  0.0939
 8149WAT     H134401  -4.437   6.946   4.661  0.8718 -2.0774  1.6259
 8149WAT     H234402  -4.554   6.870   4.718 -2.3112  0.1555 -1.4354
 8149WAT    EPW34403  -4.513   6.945   4.703 -0.0851 -0.6485  0.0944
 8150WAT      O34404  -6.128   5.116   7.562 -0.0880  0.5200 -0.3290
 8150WAT     H134405  -6.042   5.138   7.526 -0.0492 -0.5910 -0.9872
 8150WAT     H234406  -6.148   5.030   7.524 -0.8624  0.1207  0.9192
 8150WAT    EPW34407  -6.119   5.107   7.552 -0.1850  0.3209 -0.2513
 8151WAT      O34408  -4.160   9.180   2.456 -0.3605 -0.3674  0.1262
 8151WAT     H134409  -4.139   9.163   2.548  2.0320 -0.8909 -0.4321
 8151WAT     H234410  -4.235   9.239   2.459  0.3702  0.5754  2.4485
 8151WAT    EPW34411  -4.167   9.186   2.469  0.0515 -0.3114  0.3589
 8152WAT      O34412   0.329   8.635   7.215  0.1112 -0.8677  0.3829
 8152WAT     H134413   0.280   8.555   7.195  0.0894 -0.5272 -1.1172
 8152WAT     H234414   0.271   8.685   7.272 -0.2669 -1.5184  0.5821
 8152WAT    EPW34415   0.314   8.631   7.220  0.0585 -0.9089  0.2115
 8153WAT      O34416   5.774   7.153   1.030 -0.8217  0.3276  0.3549
 8153WAT     H134417   5.727   7.187   1.107 -2.8914 -2.4085  0.4342
 8153WAT     H234418   5.862   7.136   1.062 -1.0846  1.0763  1.5601
 8153WAT    EPW34419   5.779   7.155   1.045 -1.1294  0.0656  0.5243
 8154WAT      O34420   2.740   9.097   3.213 -0.5436 -0.4823  0.1370
 8154WAT     H134421   2.650   9.077   3.239 -0.0883 -2.2612  0.5000
 8154WAT     H234422   2.747   9.192   3.220 -2.8834 -0.1066 -1.5214
 8154WAT    EPW34423   2.729   9.107   3.217 -0.7921 -0.6676 -0.0339
 8155WAT      O34424  -0.157   6.778   0.743  0.0206  0.3488 -0.4232
 8155WAT     H134425  -0.223   6.733   0.796  0.8156 -2.0869 -1.3381
 8155WAT     H234426  -0.181   6.870   0.748 -1.6449 -0.1081  1.7219
 8155WAT    EPW34427  -0.169   6.784   0.751 -0.0942 -0.0327 -0.2609
 8156WAT      O34428  -3.114   2.944   5.018 -0.3372  0.4429  0.2816
 8156WAT     H134429  -3.019   2.945   5.010 -0.3674 -0.5943 -0.4647
 8156WAT     H234430  -3.136   2.853   5.035 -1.3037  0.3340 -1.3100
 8156WAT    EPW34431  -3.104   2.932   5.019 -0.4686  0.2917 -0.0267
 8157WAT      O34432  -1.473   1.125   7.765 -0.0648 -0.1016  0.1470
 8157WAT     H134433  -1.494   1.032   7.774  1.5554 -0.3013  3.2682
 8157WAT     H234434  -1.488   1.162   7.852  4.3788  1.3448  0.5362
 8157WAT    EPW34435  -1.478   1.118   7.778  0.7350  0.0629  0.6099
 8158WAT      O34436  -3.460   1.875   6.748 -0.2785  0.0459  0.3665
 8158WAT     H134437  -3.446   1.905   6.659 -0.9763 -0.9812 -0.1115
 8158WAT     H234438  -3.422   1.943   6.803  2.1176 -0.3063 -0.7456
 8158WAT    EPW34439  -3.453   1.888   6.744 -0.0545 -0.1360  0.1566
 8159WAT      O34440  -0.726   7.015   5.346 -0.3178 -0.4823 -0.0726
 8159WAT     H134441  -0.654   6.953   5.334 -1.1622 -1.5429  0.1548
 8159WAT     H234442  -0.733   7.027   5.440 -0.2054 -0.1065 -0.1128
 8159WAT    EPW34443  -0.718   7.008   5.357 -0.4143 -0.5724 -0.0479
 8160WAT      O34444   6.791   5.470   2.777 -0.7553 -0.7955  0.4087
 8160WAT     H134445   6.815   5.517   2.698 -0.4837 -1.8915 -0.1789
 8160WAT     H234446   6.834   5.385   2.769 -1.5531 -1.3047  1.2538
 8160WAT    EPW34447   6.800   5.465   2.766 -0.8249 -1.0073  0.4426
 8161WAT      O34448  -3.352   7.281   6.257  0.0231 -0.3308 -0.6304
 8161WAT     H134449  -3.277   7.303   6.313  1.7616 -1.3773 -2.4283
 8161WAT     H234450  -3.343   7.187   6.240 -1.0069 -0.2315 -1.8549
 8161WAT    EPW34451  -3.341   7.272   6.262  0.1166 -0.4559 -1.0290
 8162WAT      O34452   5.709   7.091   3.864 -0.5297  0.6577 -0.0963
 8162WAT     H134453   5.731   7.108   3.773  1.4911  3.4532  0.7592
 8162WAT     H234454   5.622   7.128   3.876 -0.6151  0.6745 -0.7686
 8162WAT    EPW34455   5.701   7.098   3.854 -0.2742  1.0288 -0.0722
 8163WAT      O34456  -2.337   6.774   3.648 -0.0347  0.0151  0.8902
 8163WAT     H134457  -2.374   6.696   3.690  1.5747 -1.1509  0.2507
 8163WAT     H234458  -2.405   6.803   3.587 -0.8603 -0.5805  1.5112
 8163WAT    EPW34459  -2.351   6.767   3.645  0.0687 -0.2172  0.8878
 8164WAT      O34460  -6.311   7.917   8.296  0.0302 -0.0118  0.4962
 8164WAT     H134461  -6.328   7.830   8.260 -2.6593  0.6880 -0.1376
 8164WAT     H234462  -6.376   7.927   8.365 -0.6675  2.0167 -0.3955
 8164WAT    EPW34463  -6.321   7.907   8.301 -0.4165  0.3481  0.2952
 8165WAT      O34464  10.299   0.278   0.366  0.2408 -0.1040 -0.2177
 8165WAT     H134465  10.390   0.247   0.372  0.0090 -0.5878  1.3227
 8165WAT     H234466  10.307   0.370   0.340  1.2923  0.2999  1.3677
 8165WAT    EPW34467  10.312   0.286   0.363  0.3490 -0.1146  0.1946
 8166WAT      O34468  -4.223   8.019   3.665 -0.6183  0.4016  0.0673
 8166WAT     H134469  -4.273   7.955   3.615  0.4915 -0.4106 -0.0404
 8166WAT     H234470  -4.255   8.104   3.634 -1.9284 -0.0784  0.0277
 8166WAT    EPW34471  -4.234   8.021   3.654 -0.6447  0.2308  0.0478
 8167WAT      O34472   0.549   9.659   3.103  0.6736 -0.3305 -0.4245
 8167WAT     H134473   0.597   9.719   3.160 -1.3388  1.8396 -0.8501
 8167WAT     H234474   0.542   9.578   3.154 -1.3887  1.6119  2.7608
 8167WAT    EPW34475   0.554   9.657   3.117  0.1362  0.2117 -0.0606
 8168WAT      O34476  -3.373   6.711   2.511  0.6731 -0.1493  0.3406
 8168WAT     H134477  -3.354   6.805   2.507 -1.2612  0.3328  0.9578
 8168WAT     H234478  -3.347   6.677   2.426  2.7694  0.6369  0.6261
 8168WAT    EPW34479  -3.367   6.719   2.499  0.6945  0.0179  0.4597
 8169WAT      O34480  -3.381   2.385   8.197 -0.0714  0.2886  0.8899
 8169WAT     H134481  -3.431   2.376   8.115  0.6455 -0.8472  0.5591
 8169WAT     H234482  -3.304   2.436   8.173  0.2082 -0.1635  0.8297
 8169WAT    EPW34483  -3.378   2.391   8.183  0.0601  0.0792  0.8383
 8170WAT      O34484  -0.185   1.673   8.566  0.6674  0.1537 -0.3586
 8170WAT     H134485  -0.218   1.687   8.478 -1.5269  0.4015  0.4521
 8170WAT     H234486  -0.174   1.578   8.573 -0.7245 -0.0297 -0.4013
 8170WAT    EPW34487  -0.188   1.662   8.556  0.1944  0.1622 -0.2580
 8171WAT      O34488  -6.430   7.262   8.733  0.4688  0.2399 -0.1498
 8171WAT     H134489  -6.389   7.299   8.811  1.9772  1.1698 -1.3171
 8171WAT     H234490  -6.510   7.220   8.765  1.1895  0.3380  1.9110
 8171WAT    EPW34491  -6.435   7.261   8.748  0.7629  0.3755 -0.0319
 8172WAT      O34492   4.818   2.654   8.392 -0.0529 -0.2606 -0.1395
 8172WAT     H134493   4.767   2.656   8.473 -1.9148  0.1293 -1.2488
 8172WAT     H234494   4.874   2.577   8.401 -1.0355 -0.8807  1.0507
 8172WAT    EPW34495   4.819   2.644   8.404 -0.4280 -0.2909 -0.1292
 8173WAT      O34496  -2.715   8.952   1.059  0.0120 -0.3294 -0.0185
 8173WAT     H134497  -2.640   8.938   1.002  1.5266  1.6740  1.3288
 8173WAT     H234498  -2.772   8.876   1.044  2.2025 -1.8374 -1.1975
 8173WAT    EPW34499  -2.713   8.940   1.050  0.5008 -0.2642  0.0037
 8174WAT      O34500  -2.214   1.564   8.831 -0.1747  0.3249 -0.0867
 8174WAT     H134501  -2.201   1.617   8.910  4.8187 -0.6846  0.0656
 8174WAT     H234502  -2.194   1.623   8.759  1.4097 -0.2620 -0.1545
 8174WAT    EPW34503  -2.210   1.579   8.832  0.6928  0.1144 -0.0753
 8175WAT      O34504   1.789   5.335   4.344  0.0599 -0.3491 -0.5714
 8175WAT     H134505   1.711   5.391   4.352 -0.4580 -0.8390 -1.9232
 8175WAT     H234506   1.759   5.249   4.374  0.3033 -0.3707 -0.3866
 8175WAT    EPW34507   1.775   5.331   4.349  0.0237 -0.4165 -0.7253
 8176WAT      O34508   4.157   4.613   0.860 -0.1850 -0.9956  0.3599
 8176WAT     H134509   4.245   4.637   0.832 -0.0729 -2.3939 -0.6293
 8176WAT     H234510   4.164   4.521   0.885 -1.1525 -0.8406  1.2577
 8176WAT    EPW34511   4.170   4.604   0.859 -0.2978 -1.1597  0.3479
 8177WAT      O34512   6.200   6.869   1.722  0.3719  0.5206 -0.4007
 8177WAT     H134513   6.172   6.803   1.786 -0.1494  1.7767  0.6932
 8177WAT     H234514   6.121   6.890   1.673  0.8841 -0.8940 -1.9792
 8177WAT    EPW34515   6.186   6.863   1.724  0.3707  0.4997 -0.4646
 8178WAT      O34516  -3.702   3.708   6.867 -0.1538 -0.1192 -0.1339
 8178WAT     H134517  -3.740   3.748   6.945 -0.3399 -0.7170  0.0821
 8178WAT     H234518  -3.608   3.709   6.883 -0.2028 -0.4002  0.1774
 8178WAT    EPW34519  -3.695   3.714   6.879 -0.1848 -0.2351 -0.0644
 8179WAT      O34520   0.451   3.064   5.593  0.5809  0.0840  0.5519
 8179WAT     H134521   0.360   3.050   5.617 -0.1870  1.0366 -1.4982
 8179WAT     H234522   0.448   3.136   5.530  2.6040 -0.6681 -0.5173
 8179WAT    EPW34523   0.439   3.072   5.588  0.7464  0.1105  0.1404
 8180WAT      O34524   5.263   0.670   4.411 -0.2138  0.4045 -0.6653
 8180WAT     H134525   5.264   0.578   4.438 -0.4757 -0.0264 -2.0374
 8180WAT     H234526   5.347   0.704   4.439 -0.4665 -0.0030  0.6566
 8180WAT    EPW34527   5.274   0.662   4.418 -0.2816  0.2939 -0.6719
 8181WAT      O34528  -4.053   8.753   7.415  0.6664  0.2134 -0.0815
 8181WAT     H134529  -4.011   8.831   7.451 -0.1711 -0.0779  1.6396
 8181WAT     H234530  -4.145   8.778   7.407  0.2548 -0.8294  1.2320
 8181WAT    EPW34531  -4.060   8.767   7.418  0.5016  0.0377  0.3188
 8182WAT      O34532   5.512   1.675   3.217  0.0781 -0.3753 -0.1800
 8182WAT     H134533   5.545   1.648   3.303  0.8475  2.6799  0.6253
 8182WAT     H234534   5.582   1.653   3.156 -0.0307 -1.6106  0.1094
 8182WAT    EPW34535   5.525   1.669   3.220  0.1652 -0.1353 -0.0356
 8183WAT      O34536  -4.463   8.522   2.786 -0.2452 -0.0953  0.4999
 8183WAT     H134537  -4.552   8.532   2.819  0.2981  1.7417  1.5610
 8183WAT     H234538  -4.412   8.495   2.863  0.2413 -0.3473  0.0902
 8183WAT    EPW34539  -4.468   8.520   2.801 -0.1094  0.1140  0.5858
 8184WAT      O34540  -3.974   8.187   3.166 -0.3834  0.6286  0.7353
 8184WAT     H134541  -3.913   8.170   3.238 -0.5968  1.3494  1.0950
 8184WAT     H234542  -3.986   8.281   3.168 -1.1561  0.5372  0.3678
 8184WAT    EPW34543  -3.967   8.197   3.176 -0.5134  0.7114  0.7342
 8185WAT      O34544   5.946   7.806   2.409 -0.1823 -0.2898  0.1327
 8185WAT     H134545   6.008   7.785   2.478  1.5336 -0.0772 -1.2514
 8185WAT     H234546   5.995   7.862   2.349 -1.6983 -0.1677 -1.0815
 8185WAT    EPW34547   5.960   7.811   2.410 -0.1559 -0.2456 -0.2099
 8186WAT      O34548  -6.378   9.126   5.525 -0.0017 -0.1110  0.2855
 8186WAT     H134549  -6.386   9.222   5.525 -0.9091 -0.1160 -1.8118
 8186WAT     H234550  -6.456   9.097   5.477 -0.1795 -1.9785  1.6126
 8186WAT    EPW34551  -6.389   9.135   5.518 -0.1450 -0.3581  0.1838
 8187WAT      O34552  -1.020   1.766   6.493  0.5986 -0.4135  0.2127
 8187WAT     H134553  -1.047   1.710   6.420 -0.1095 -0.1494  0.2612
 8187WAT     H234554  -0.991   1.847   6.450  4.1328 -1.6784 -0.0568
 8187WAT    EPW34555  -1.020   1.769   6.477  0.9713 -0.5455  0.1836
 8188WAT      O34556   4.295   2.414   5.111 -0.2469  0.5405 -0.0250
 8188WAT     H134557   4.332   2.468   5.041  2.0102 -0.4045  0.3516
 8188WAT     H234558   4.356   2.426   5.185  0.0019 -1.9690  0.2784
 8188WAT    EPW34559   4.308   2.423   5.112  0.0837  0.0849  0.0646
 8189WAT      O34560   0.524   6.200   5.646  0.2082 -0.5091  0.3838
 8189WAT     H134561   0.515   6.248   5.563 -1.4172 -3.8973 -1.5946
 8189WAT     H234562   0.446   6.223   5.696  1.2212  1.5898  1.1568
 8189WAT    EPW34563   0.513   6.210   5.642  0.1274 -0.6793  0.2248
 8190WAT      O34564   1.194   4.234   2.838  0.1931 -0.0393 -0.9321
 8190WAT     H134565   1.104   4.202   2.832 -0.1852  1.0257 -1.2587
 8190WAT     H234566   1.197   4.309   2.779  0.6703  1.3162  0.7229
 8190WAT    EPW34567   1.183   4.240   2.830  0.2061  0.2799 -0.7569
 8191WAT      O34568   5.235   7.536   0.316 -0.0859  0.0208  0.0187
 8191WAT     H134569   5.290   7.553   0.239  0.1589 -3.5724 -0.7832
 8191WAT     H234570   5.154   7.499   0.280 -0.0567 -1.5391  1.4378
 8191WAT    EPW34571   5.231   7.533   0.301 -0.0498 -0.6590  0.1001
 8192WAT      O34572  -1.466   7.220   3.975 -0.3806 -0.1475 -0.1025
 8192WAT     H134573  -1.423   7.229   4.060 -1.0136  0.2471  0.1806
 8192WAT     H234574  -1.397   7.237   3.912  0.4815 -1.9464  0.2850
 8192WAT    EPW34575  -1.451   7.223   3.978 -0.3504 -0.3328 -0.0141
 8193WAT      O34576   2.490   2.954   1.209 -0.0559  0.6567  0.3111
 8193WAT     H134577   2.579   2.955   1.242  0.7274  2.6501 -1.6640
 8193WAT     H234578   2.467   2.861   1.205  2.8545 -0.1076 -1.4161
 8193WAT    EPW34579   2.498   2.942   1.213  0.4314  0.8188 -0.1772
 8194WAT      O34580   0.880   6.807   5.129 -0.0080  0.5178 -0.3848
 8194WAT     H134581   0.975   6.795   5.135 -0.2401 -1.1322  0.4252
 8194WAT     H234582   0.864   6.824   5.036  0.7403 -3.2073 -1.3682
 8194WAT    EPW34583   0.890   6.808   5.117  0.0601 -0.1912 -0.4077
 8195WAT      O34584   1.140   5.868   6.558  0.4900  0.3882 -0.7982
 8195WAT     H134585   1.087   5.818   6.620  0.1625 -0.2336 -1.5615
 8195WAT     H234586   1.077   5.900   6.493  0.8748  0.7224 -1.0096
 8195WAT    EPW34587   1.125   5.866   6.557  0.4976  0.3502 -0.9267
 8196WAT      O34588   1.225   3.016   0.424  0.0027  0.8260  0.3568
 8196WAT     H134589   1.303   3.043   0.375  0.9506 -2.0744  0.0525
 8196WAT     H234590   1.223   2.921   0.415 -2.6825  0.6498  1.7661
 8196WAT    EPW34591   1.235   3.007   0.416 -0.2264  0.4202  0.5026
 8197WAT      O34592  -1.526   4.251   2.182  0.0122  0.0546  0.0106
 8197WAT     H134593  -1.582   4.186   2.140 -2.1680  0.3046  2.3125
 8197WAT     H234594  -1.564   4.336   2.158  2.3281  0.5710 -2.2731
 8197WAT    EPW34595  -1.538   4.254   2.174  0.0302  0.1557  0.0130
 8198WAT      O34596   2.737   6.761   8.649  0.0615  0.1753  0.7679
 8198WAT     H134597   2.734   6.667   8.631  1.7762  0.1559  0.3573
 8198WAT     H234598   2.783   6.767   8.733 -2.1521  0.5688  2.0107
 8198WAT    EPW34599   2.743   6.750   8.658 -0.0042  0.2248  0.8779
 8199WAT      O34600   5.342   3.971   4.909 -0.1329  0.0894  1.0011
 8199WAT     H134601   5.296   3.925   4.839  0.1350  0.2806  0.6967
 8199WAT     H234602   5.332   3.915   4.986  2.0433 -1.5738  0.1411
 8199WAT    EPW34603   5.334   3.958   4.910  0.1895 -0.1047  0.8476
 8200WAT      O34604   4.229   1.095   4.359  0.1658 -0.0568  0.7097
 8200WAT     H134605   4.240   1.029   4.427 -1.1060  0.7633  1.7674
 8200WAT     H234606   4.154   1.065   4.308 -0.0900  0.2835  0.8752
 8200WAT    EPW34607   4.221   1.082   4.361 -0.0358  0.0963  0.8712
 8201WAT      O34608   0.985   3.610   0.922 -0.3635 -0.0697 -0.2260
 8201WAT     H134609   0.953   3.536   0.869 -0.3297 -0.2302 -0.0230
 8201WAT     H234610   1.030   3.667   0.859  3.6215 -2.3778  0.2056
 8201WAT    EPW34611   0.986   3.608   0.907  0.1665 -0.3952 -0.1423
 8202WAT      O34612   7.383   2.019   3.877  0.2114 -0.3066  0.1165
 8202WAT     H134613   7.465   1.988   3.916  0.1886 -2.1382 -1.1752
 8202WAT     H234614   7.317   1.957   3.908 -0.3484  0.0566 -0.3433
 8202WAT    EPW34615   7.385   2.007   3.886  0.1345 -0.5002 -0.1144
 8203WAT      O34616   4.418   8.562   4.858  0.3683 -0.3501  0.4485
 8203WAT     H134617   4.422   8.654   4.882 -1.9210  0.4165 -1.6114
 8203WAT     H234618   4.378   8.519   4.934 -1.6255  1.0011  0.2480
 8203WAT    EPW34619   4.413   8.568   4.871 -0.1965 -0.0710  0.1504
 8204WAT      O34620  -0.577   5.781   3.650 -0.1457  0.1084  0.5137
 8204WAT     H134621  -0.616   5.798   3.736  0.5668  1.1328  0.6420
 8204WAT     H234622  -0.592   5.862   3.600  1.6879  0.4927  0.5262
 8204WAT    EPW34623  -0.584   5.794   3.655  0.1901  0.2944  0.5323
 8205WAT      O34624   3.043   3.402   2.365 -0.6883 -0.2044  0.5022
 8205WAT     H134625   3.133   3.368   2.361  0.2070  2.0923 -2.1478
 8205WAT     H234626   2.989   3.324   2.356  1.1731 -1.4042 -1.5855
 8205WAT    EPW34627   3.048   3.387   2.363 -0.3246 -0.0596 -0.1228
 8206WAT      O34628  -1.440   9.639   0.945  0.1983 -0.2130  0.4475
 8206WAT     H134629  -1.420   9.636   0.851  0.6519 -0.6653  0.5544
 8206WAT     H234630  -1.527   9.679   0.950 -0.5358 -1.6500 -0.2586
 8206WAT    EPW34631  -1.449   9.644   0.933  0.1613 -0.4621  0.3684
 8207WAT      O34632   4.708   6.884   0.891 -0.5613  0.6166  0.2206
 8207WAT     H134633   4.744   6.795   0.897  2.5128  1.7063 -0.3503
 8207WAT     H234634   4.676   6.903   0.979 -0.9877 -0.9222  0.4245
 8207WAT    EPW34635   4.708   6.875   0.903 -0.2120  0.5572  0.1722
 8208WAT      O34636  -4.424   5.286   4.372  0.2186  0.0841 -0.6783
 8208WAT     H134637  -4.429   5.379   4.352  2.5889  0.5698  0.6410
 8208WAT     H234638  -4.331   5.264   4.361 -0.1785 -1.9848 -0.3416
 8208WAT    EPW34639  -4.413   5.295   4.368  0.4790 -0.1247 -0.4599
 8209WAT      O34640  -4.836   4.696   7.211  0.5797  0.0186  0.1699
 8209WAT     H134641  -4.812   4.727   7.299 -0.1146 -0.4839  0.5570
 8209WAT     H234642  -4.928   4.670   7.221 -0.5829  2.9666 -1.5119
 8209WAT    EPW34643  -4.845   4.697   7.224  0.3350  0.3412 -0.0007
 8210WAT      O34644  -7.015   8.654   7.321 -0.4342 -0.0718 -1.0232
 8210WAT     H134645  -7.031   8.679   7.230  0.8584  2.2818 -0.6760
 8210WAT     H234646  -6.922   8.675   7.335  0.2155 -3.1218  0.0573
 8210WAT    EPW34647  -7.005   8.660   7.311 -0.1781 -0.1640 -0.8349
 8211WAT      O34648  -2.844   3.443   6.723 -0.3308 -1.0291 -0.6311
 8211WAT     H134649  -2.786   3.487   6.660  0.6026 -0.6621  0.4481
 8211WAT     H234650  -2.879   3.368   6.675  0.9197 -1.1708 -1.3753
 8211WAT    EPW34651  -2.841   3.439   6.709 -0.0427 -0.9993 -0.5870
 8212WAT      O34652   6.558   3.746   1.555  0.7671 -0.2352  0.1024
 8212WAT     H134653   6.612   3.808   1.603  0.9485 -0.1375 -0.2203
 8212WAT     H234654   6.615   3.716   1.484  0.8796 -1.2063  0.5907
 8212WAT    EPW34655   6.573   3.750   1.552  0.8061 -0.3504  0.1243
 8213WAT      O34656  -1.300   2.253   7.455  0.6256 -0.5816 -0.1114
 8213WAT     H134657  -1.285   2.345   7.433  0.3680  0.3064  2.9036
 8213WAT     H234658  -1.248   2.239   7.535 -3.3159 -1.4051  2.6260
 8213WAT    EPW34659  -1.291   2.263   7.463  0.0718 -0.5730  0.6473
 8214WAT      O34660  -1.265   9.931   1.917  0.0442  0.1671  0.5185
 8214WAT     H134661  -1.273   9.977   1.833  2.9048 -1.7249 -0.9838
 8214WAT     H234662  -1.187   9.970   1.957  0.2303 -0.7161  1.0346
 8214WAT    EPW34663  -1.256   9.942   1.911  0.4460 -0.1988  0.3884
 8215WAT      O34664   4.429   1.955   3.850 -0.8069  0.6457 -0.1863
 8215WAT     H134665   4.433   1.915   3.937  1.5292 -2.1877 -1.4305
 8215WAT     H234666   4.500   2.019   3.850  0.7691 -1.0254 -0.6534
 8215WAT    EPW34667   4.439   1.958   3.862 -0.2911  0.0515 -0.4120
 8216WAT      O34668  -6.222   5.313   7.408 -0.2143 -0.8457 -0.4070
 8216WAT     H134669  -6.224   5.248   7.478 -0.2174 -2.9410 -2.2552
 8216WAT     H234670  -6.182   5.268   7.333 -1.6269  0.7791 -2.2627
 8216WAT    EPW34671  -6.217   5.299   7.407 -0.4010 -0.9077 -0.8955
 8217WAT      O34672  -0.255   2.441   0.873  0.1082 -0.1239  0.2373
 8217WAT     H134673  -0.247   2.503   0.946  1.2346 -1.2206  1.0896
 8217WAT     H234674  -0.176   2.456   0.821  0.9695 -1.5341  1.0555
 8217WAT    EPW34675  -0.243   2.451   0.876  0.3704 -0.4545  0.4576
 8218WAT      O34676  -2.997   0.922   5.841 -0.0307  0.6529 -0.5964
 8218WAT     H134677  -3.029   0.878   5.920  0.9763 -0.0139 -0.5426
 8218WAT     H234678  -3.074   0.969   5.807 -0.1658  2.0827  1.5042
 8218WAT    EPW34679  -3.012   0.922   5.847  0.0843  0.7536 -0.3123
 8219WAT      O34680   2.788   9.396   6.944 -0.6696  0.0078  0.0786
 8219WAT     H134681   2.817   9.466   6.885 -2.2142 -0.8421 -1.7747
 8219WAT     H234682   2.704   9.366   6.908  1.2614 -4.9304 -1.1655
 8219WAT    EPW34683   2.781   9.401   6.931 -0.6187 -0.7558 -0.3302
 8220WAT      O34684   0.831   5.958   6.723  1.2091 -0.0173 -0.1030
 8220WAT     H134685   0.880   5.876   6.724 -0.4209 -1.0248 -0.0984
 8220WAT     H234686   0.740   5.932   6.715  0.6535  1.8113 -0.2473
 8220WAT    EPW34687   0.826   5.944   6.722  0.9208  0.0911 -0.1214
 8221WAT      O34688  -1.785   7.293   8.448  0.4167 -0.2561  0.1862
 8221WAT     H134689  -1.746   7.313   8.533  1.0294  1.4663 -0.4538
 8221WAT     H234690  -1.851   7.361   8.434 -1.1991 -1.7573  0.1923
 8221WAT    EPW34691  -1.788   7.305   8.457  0.2843 -0.2267  0.1025
 8222WAT      O34692   0.961   4.658   5.882  0.1410  0.1055 -0.0784
 8222WAT     H134693   0.935   4.569   5.859 -0.5793  1.0370 -3.4683
 8222WAT     H234694   0.878   4.703   5.898  0.4227  0.4327  0.4726
 8222WAT    EPW34695   0.946   4.652   5.881  0.0831  0.2718 -0.4530
 8223WAT      O34696  -4.230   2.046   6.891 -0.8701  0.2375 -0.4018
 8223WAT     H134697  -4.252   2.089   6.808  3.1053  2.9394 -0.3264
 8223WAT     H234698  -4.257   2.109   6.958 -0.5114 -0.1323  0.0943
 8223WAT    EPW34699  -4.236   2.060   6.889 -0.2985  0.5451 -0.3264
 8224WAT      O34700  -1.586   5.131   4.541  0.3308 -0.1512  0.8543
 8224WAT     H134701  -1.635   5.204   4.579  1.3978  0.2329  1.5642
 8224WAT     H234702  -1.650   5.060   4.535 -0.3896  0.4224  1.4507
 8224WAT    EPW34703  -1.601   5.132   4.545  0.3765 -0.0250  1.0266
 8225WAT      O34704   3.543   6.984   7.716 -0.0237 -0.2127  0.5674
 8225WAT     H134705   3.576   7.069   7.745 -2.7637  0.8843  0.7124
 8225WAT     H234706   3.551   6.928   7.793 -1.1840  0.8637  1.5172
 8225WAT    EPW34707   3.549   6.988   7.730 -0.5381  0.0739  0.7117
 8226WAT      O34708   0.298   9.077   0.072 -0.4403  0.2083  0.4976
 8226WAT     H134709   0.245   9.155   0.088 -0.1552  0.5590 -0.2419
 8226WAT     H234710   0.374   9.087   0.129 -0.3839  0.4891  0.3716
 8226WAT    EPW34711   0.301   9.089   0.082 -0.3953  0.2918  0.3834
 8227WAT      O34712   1.785   7.167   1.006 -0.8589  0.5149  0.4283
 8227WAT     H134713   1.838   7.242   1.033 -0.9131  0.8391 -0.3446
 8227WAT     H234714   1.786   7.169   0.910  0.3253 -1.3277  0.3586
 8227WAT    EPW34715   1.792   7.177   0.997 -0.7099  0.3145  0.3172
 8228WAT      O34716  -1.918   4.793   4.827  0.5141 -0.3424  0.6760
 8228WAT     H134717  -1.975   4.717   4.817  0.0956  0.0823 -0.3917
 8228WAT     H234718  -1.963   4.863   4.778  0.8256  0.6269  1.7164
 8228WAT    EPW34719  -1.932   4.793   4.819  0.5000 -0.1585  0.6721
 8229WAT      O34720   3.464   5.526   0.047  0.8093  0.1233  0.5328
 8229WAT     H134721   3.420   5.609   0.028  0.8706  0.2649  1.0083
 8229WAT     H234722   3.394   5.468   0.077  1.0150  0.5030  1.7846
 8229WAT    EPW34723   3.449   5.529   0.048  0.8445  0.1919  0.7606
 8230WAT      O34724   4.039   6.849   2.555  0.3839 -0.2064  0.0823
 8230WAT     H134725   3.947   6.867   2.536  0.1656 -1.3106  0.0438
 8230WAT     H234726   4.043   6.755   2.569  1.4744 -0.1414  0.3162
 8230WAT    EPW34727   4.027   6.839   2.555  0.4990 -0.3436  0.1082
 8231WAT      O34728   1.375   4.719   7.687  0.3092  0.6507  0.3022
 8231WAT     H134729   1.438   4.677   7.746 -0.6076 -1.6119 -0.1959
 8231WAT     H234730   1.401   4.811   7.685  1.4194  0.4673  2.8355
 8231WAT    EPW34731   1.387   4.725   7.694  0.3347  0.3281  0.5708
 8232WAT      O34732   2.058   9.754   5.928 -0.5291 -0.4370  1.0840
 8232WAT     H134733   2.079   9.755   5.834 -0.8681 -0.9735  0.9985
 8232WAT     H234734   1.962   9.755   5.931 -0.5289  1.4293  1.4642
 8232WAT    EPW34735   2.048   9.754   5.916 -0.5738 -0.2613  1.1227
 8233WAT      O34736   3.375   0.340   8.742  0.7172 -0.4270 -0.3264
 8233WAT     H134737   3.456   0.338   8.794 -0.4006  2.0856  1.7647
 8233WAT     H234738   3.307   0.314   8.805 -0.2083 -2.2009 -1.9676
 8233WAT    EPW34739   3.377   0.336   8.757  0.4476 -0.3295 -0.2670
 8234WAT      O34740   4.189   6.788   3.384  0.9598  0.1261  0.0714
 8234WAT     H134741   4.150   6.820   3.302 -1.8093 -0.6133  0.9696
 8234WAT     H234742   4.203   6.695   3.369  0.6647  0.0358  0.3304
 8234WAT    EPW34743   4.185   6.780   3.371  0.5555  0.0167  0.2240
 8235WAT      O34744  -3.809   9.711   1.314 -0.4118  0.2576  0.8787
 8235WAT     H134745  -3.778   9.800   1.301  0.9922 -0.5346 -2.1713
 8235WAT     H234746  -3.729   9.658   1.318 -1.2403 -1.0599  0.7961
 8235WAT    EPW34747  -3.794   9.716   1.313 -0.3359 -0.0210  0.4655
 8236WAT      O34748   1.030   9.085   2.781 -0.2963  0.7794 -0.9336
 8236WAT     H134749   0.942   9.108   2.749 -0.5169  2.4246  0.6895
 8236WAT     H234750   1.020   8.998   2.820 -1.2741  1.0473 -0.5566
 8236WAT    EPW34751   1.017   9.077   2.782 -0.4544  1.0314 -0.6697
 8237WAT      O34752   5.612   9.575   0.164 -0.0171 -0.3341  0.2476
 8237WAT     H134753   5.548   9.582   0.093  0.4889 -1.8074 -0.4047
 8237WAT     H234754   5.576   9.628   0.235 -1.5808 -0.5072 -0.3823
 8237WAT    EPW34755   5.599   9.583   0.164 -0.1566 -0.5512  0.0785
 8238WAT      O34756   6.650   0.031   4.925  0.4103 -0.5055 -0.1920
 8238WAT     H134757   6.688  -0.028   4.990 -2.1410 -0.2870  1.6523
 8238WAT     H234758   6.555   0.021   4.936 -0.1058  2.1239 -1.4983
 8238WAT    EPW34759   6.642   0.022   4.935  0.0057 -0.1298 -0.1209
 8239WAT      O34760   5.990   9.030   2.417  0.0045  0.3163  0.6708
 8239WAT     H134761   6.030   8.951   2.378 -0.2343 -0.0059  1.0681
 8239WAT     H234762   5.996   9.015   2.511 -3.2744 -0.9159  0.8123
 8239WAT    EPW34763   5.996   9.017   2.424 -0.4594  0.1116  0.7418
 8240WAT      O34764   4.905   6.387   3.001 -0.0180  0.0186  0.6123
 8240WAT     H134765   4.973   6.438   2.956 -2.2425  1.7159 -1.1041
 8240WAT     H234766   4.823   6.413   2.957 -1.7476 -2.2465  2.2478
 8240WAT    EPW34767   4.903   6.397   2.989 -0.5398 -0.0563  0.6016
 8241WAT      O34768  -7.765   9.764   7.452 -0.1900  0.6357  0.3092
 8241WAT     H134769  -7.708   9.698   7.491  1.7921  2.3959  0.5861
 8241WAT     H234770  -7.843   9.764   7.507 -0.0659 -1.1620  0.5360
 8241WAT    EPW34771  -7.767   9.755   7.464  0.0877  0.6313  0.3755
 8242WAT      O34772   5.798   8.048   1.500 -0.4929  0.1000  0.3336
 8242WAT     H134773   5.774   8.114   1.434 -0.8553  1.0954  1.4167
 8242WAT     H234774   5.729   8.054   1.566  0.9618  0.6800  1.8747
 8242WAT    EPW34775   5.786   8.058   1.500 -0.3490  0.3076  0.6798
 8243WAT      O34776   2.555   9.245   3.443  0.2572 -0.4392  0.4906
 8243WAT     H134777   2.565   9.229   3.537 -0.3625 -0.4959  0.5489
 8243WAT     H234778   2.545   9.158   3.405  0.7598 -0.4329  0.3380
 8243WAT    EPW34779   2.555   9.232   3.450  0.2418 -0.4458  0.4783
 8244WAT      O34780   2.842   7.276   1.687  0.1070  0.3107  0.3565
 8244WAT     H134781   2.756   7.278   1.644  0.1581  1.8455  0.2898
 8244WAT     H234782   2.879   7.192   1.662 -1.0403 -0.0257 -0.2788
 8244WAT    EPW34783   2.835   7.265   1.678 -0.0376  0.4687  0.2639
 8245WAT      O34784  -1.732   8.245   7.480  1.0592 -0.5100 -0.4232
 8245WAT     H134785  -1.717   8.222   7.389 -0.6969  0.0322 -0.8966
 8245WAT     H234786  -1.739   8.340   7.480  3.4979 -0.2561  0.7260
 8245WAT    EPW34787  -1.731   8.254   7.468  1.1493 -0.4048 -0.3343
 8246WAT      O34788   2.321   8.058   4.413  0.4896 -0.3203  0.2272
 8246WAT     H134789   2.247   8.115   4.392 -0.2611 -0.4172  2.3101
 8246WAT     H234790   2.332   8.068   4.508  1.1220 -2.6975  0.4646
 8246WAT    EPW34791   2.313   8.067   4.423  0.4740 -0.6466  0.5333
 8247WAT      O34792   5.293   4.608   3.885  0.8789 -0.3691  0.8684
 8247WAT     H134793   5.253   4.551   3.950 -0.0895  1.8553  2.3471
 8247WAT     H234794   5.241   4.594   3.806  1.0469 -1.9263  0.9990
 8247WAT    EPW34795   5.281   4.599   3.883  0.7732 -0.2811  1.0808
 8248WAT      O34796  -6.601   7.125   8.109 -0.0385  0.1810  0.0616
 8248WAT     H134797  -6.613   7.038   8.070 -1.0503  0.4599 -0.2874
 8248WAT     H234798  -6.550   7.174   8.045  1.7543 -0.5490  0.8606
 8248WAT    EPW34799  -6.596   7.120   8.096  0.0644  0.1214  0.1206
 8249WAT      O34800  -3.553   7.853   8.747 -0.5610 -0.2161  0.2116
 8249WAT     H134801  -3.491   7.923   8.727 -1.2156  0.0070 -1.2730
 8249WAT     H234802  -3.625   7.868   8.684 -0.8073 -2.0925  0.0042
 8249WAT    EPW34803  -3.555   7.864   8.736 -0.6799 -0.4339 -0.0114
 8250WAT      O34804  -4.170   6.456   5.593 -0.6011 -0.7660  0.8028
 8250WAT     H134805  -4.167   6.416   5.506 -2.1138  0.9513 -0.1117
 8250WAT     H234806  -4.079   6.483   5.610 -0.2126 -1.4758 -0.0435
 8250WAT    EPW34807  -4.157   6.455   5.584 -0.7493 -0.6332  0.5705
 8251WAT      O34808   2.267   4.747   8.563 -0.1998  0.4538  0.1152
 8251WAT     H134809   2.255   4.699   8.481  0.1198  1.3089 -0.4443
 8251WAT     H234810   2.228   4.690   8.629 -0.0931 -0.4392 -0.5657
 8251WAT    EPW34811   2.260   4.733   8.561 -0.1436  0.4487 -0.0482
 8252WAT      O34812   1.300   8.548   3.190 -0.0115  0.6454  0.1366
 8252WAT     H134813   1.210   8.564   3.162  0.0481 -0.3972 -0.7186
 8252WAT     H234814   1.292   8.523   3.282 -0.1888  4.3509  1.2738
 8252WAT    EPW34815   1.287   8.547   3.198 -0.0270  0.9961  0.1738
 8253WAT      O34816   0.016   1.386   4.013 -0.0996 -0.6340  0.1130
 8253WAT     H134817  -0.065   1.342   4.035 -0.3007 -1.4999 -2.0813
 8253WAT     H234818   0.007   1.408   3.920  1.0816  1.7008  0.4849
 8253WAT    EPW34819   0.004   1.383   4.003  0.0296 -0.4403 -0.1276
 8254WAT      O34820   2.629   3.162   6.225  0.4246  0.0704 -0.0321
 8254WAT     H134821   2.543   3.133   6.256  0.3939  0.0251 -0.1603
 8254WAT     H234822   2.686   3.150   6.301  0.2781  0.2875  0.1146
 8254WAT    EPW34823   2.625   3.156   6.239  0.4011  0.0930 -0.0296
 8255WAT      O34824   4.270   2.923   5.211 -0.3335  0.2842 -0.1880
 8255WAT     H134825   4.344   2.925   5.149 -0.0436  1.7825  0.1420
 8255WAT     H234826   4.228   3.009   5.199 -1.1026  0.0388  0.7096
 8255WAT    EPW34827   4.275   2.935   5.201 -0.3967  0.4494 -0.0260
 8256WAT      O34828   8.688   1.830   0.764 -0.3111  0.1862 -0.0500
 8256WAT     H134829   8.701   1.741   0.795  2.3380  0.0723 -1.1778
 8256WAT     H234830   8.720   1.886   0.835 -3.7753  0.4518  1.4881
 8256WAT    EPW34831   8.694   1.825   0.777 -0.4187  0.2062  0.0041
 8257WAT      O34832   2.421   6.483   8.656 -0.5746 -0.0299  0.0432
 8257WAT     H134833   2.513   6.462   8.640 -0.2986  0.0098  1.4321
 8257WAT     H234834   2.399   6.549   8.590  1.2708  2.1463  1.4474
 8257WAT    EPW34835   2.430   6.489   8.645 -0.2948  0.2623  0.4120
 8258WAT      O34836   6.732   3.188   4.838  0.1184 -0.3950 -0.3623
 8258WAT     H134837   6.644   3.211   4.809 -0.4689 -3.3180 -1.2274
 8258WAT     H234838   6.780   3.167   4.757  1.0651 -0.5361  0.2123
 8258WAT    EPW34839   6.727   3.188   4.823  0.1657 -0.7992 -0.4008
 8259WAT      O34840   4.157   0.009   6.298  0.7290  0.6615  0.3939
 8259WAT     H134841   4.171   0.038   6.208  4.0569 -2.7885 -0.5263
 8259WAT     H234842   4.071  -0.033   6.297  1.7575 -1.7524 -2.1630
 8259WAT    EPW34843   4.148   0.007   6.286  1.3037 -0.1119 -0.0648
 8260WAT      O34844   1.825   0.468   1.856  0.1635  0.2917 -0.4182
 8260WAT     H134845   1.915   0.439   1.872  0.1008 -0.8123 -1.8540
 8260WAT     H234846   1.770   0.398   1.891 -0.0527 -0.1298 -1.5387
 8260WAT    EPW34847   1.830   0.455   1.863  0.1268  0.0905 -0.7554
 8261WAT      O34848   0.002   6.107   3.100  0.3467  0.0954  0.4781
 8261WAT     H134849   0.058   6.034   3.072  1.3992  1.1507 -0.2721
 8261WAT     H234850   0.005   6.105   3.195 -1.4022 -2.1345  0.6010
 8261WAT    EPW34851   0.009   6.097   3.109  0.2548 -0.0594  0.3953
 8262WAT      O34852   1.071   4.733   6.580  0.3753  0.1086 -0.8446
 8262WAT     H134853   1.160   4.697   6.578  0.2584 -0.4238  1.2649
 8262WAT     H234854   1.014   4.657   6.582 -0.1554  0.4492 -2.1010
 8262WAT    EPW34855   1.075   4.719   6.580  0.2899  0.0834 -0.7319
 8263WAT      O34856   3.287   9.183   2.998  0.1001 -0.7891 -0.4316
 8263WAT     H134857   3.361   9.242   3.010  0.0779 -0.8966  0.2977
 8263WAT     H234858   3.252   9.206   2.913  0.4416 -0.1379 -0.4063
 8263WAT    EPW34859   3.292   9.194   2.989  0.1422 -0.7176 -0.3320
 8264WAT      O34860   7.014   1.973   4.471  0.5140  0.2218 -0.7081
 8264WAT     H134861   7.060   2.002   4.550 -0.1371 -0.9242  0.1212
 8264WAT     H234862   7.027   2.044   4.408  0.0610  1.7122  0.8158
 8264WAT    EPW34863   7.022   1.986   4.473  0.3681  0.2671 -0.3977
 8265WAT      O34864  -5.218   5.313   8.932 -0.1502 -0.0743 -0.2948
 8265WAT     H134865  -5.133   5.320   8.889 -1.3486  0.0106 -2.7805
 8265WAT     H234866  -5.217   5.381   8.999  2.2898 -1.1016  0.8608
 8265WAT    EPW34867  -5.207   5.323   8.935  0.0138 -0.1986 -0.4702
 8266WAT      O34868  -3.115   7.777   0.984  0.7710  0.1112  0.0255
 8266WAT     H134869  -3.067   7.848   1.025  0.3246  0.5926 -0.2684
 8266WAT     H234870  -3.130   7.714   1.055 -0.6537  1.2708  0.8238
 8266WAT    EPW34871  -3.111   7.778   0.999  0.5243  0.3276  0.0920
 8267WAT      O34872  -1.129   2.115   0.886  0.1530 -0.5558 -0.3412
 8267WAT     H134873  -1.216   2.154   0.880 -0.8999 -2.4108  1.5800
 8267WAT     H234874  -1.074   2.171   0.831 -1.8535  1.7861 -0.1345
 8267WAT    EPW34875  -1.133   2.128   0.878 -0.2505 -0.4915 -0.0606
 8268WAT      O34876   0.250   6.778   5.842  0.5830  0.1413 -0.3433
 8268WAT     H134877   0.216   6.857   5.883  0.2623  0.4731 -1.2206
 8268WAT     H234878   0.179   6.748   5.785  1.5211  0.5483 -1.8019
 8268WAT    EPW34879   0.236   6.784   5.840  0.6644  0.2389 -0.6514
 8269WAT      O34880   3.811   1.696   6.128 -0.4852  0.6704  0.5498
 8269WAT     H134881   3.720   1.709   6.153 -0.4165  0.7394  0.7671
 8269WAT     H234882   3.808   1.675   6.035 -0.8315 -0.7013  0.8558
 8269WAT    EPW34883   3.799   1.695   6.119 -0.5218  0.4986  0.6189
 8270WAT      O34884   4.584   8.050   3.647 -0.3210  0.1619 -0.2444
 8270WAT     H134885   4.531   8.074   3.571  0.3395 -1.0153 -1.0971
 8270WAT     H234886   4.565   8.119   3.711  0.9461  2.5555 -2.2820
 8270WAT    EPW34887   4.574   8.062   3.646 -0.0670  0.3223 -0.6255
 8271WAT      O34888   1.496   5.405   1.411  0.6497  0.3756  0.4137
 8271WAT     H134889   1.442   5.479   1.435  2.2228  1.5892  0.3950
 8271WAT     H234890   1.544   5.434   1.333  1.5948 -0.4791  0.6454
 8271WAT    EPW34891   1.495   5.418   1.404  0.9818  0.4230  0.4417
 8272WAT      O34892  -2.746   4.217   8.880  0.9320 -0.5420  0.0251
 8272WAT     H134893  -2.682   4.272   8.924  1.3445 -0.5935 -0.5016
 8272WAT     H234894  -2.830   4.243   8.917  1.2557 -0.5099  0.7580
 8272WAT    EPW34895  -2.749   4.227   8.891  1.0291 -0.5448  0.0520
 8273WAT      O34896  -2.061   6.447   1.369  0.0898  0.2417  0.7438
 8273WAT     H134897  -2.075   6.353   1.354  1.9010  0.1921 -1.0595
 8273WAT     H234898  -2.077   6.487   1.284  2.1846  1.1506  0.7116
 8273WAT    EPW34899  -2.065   6.440   1.356  0.6050  0.3550  0.5016
 8274WAT      O34900   0.563   6.967   5.161 -0.3541 -0.0035  0.0193
 8274WAT     H134901   0.543   6.965   5.255  2.2480 -0.7477  0.6275
 8274WAT     H234902   0.628   7.037   5.152  2.2173 -2.2954 -0.5135
 8274WAT    EPW34903   0.569   6.976   5.172  0.3283 -0.4039  0.0291
 8275WAT      O34904  -1.938   2.919   6.322 -0.2156 -0.0013  0.0677
 8275WAT     H134905  -2.003   2.872   6.375  1.0937 -1.1822  0.7025
 8275WAT     H234906  -1.880   2.850   6.290  2.4820  1.2161  2.0136
 8275WAT    EPW34907  -1.939   2.903   6.325  0.3129  0.0035  0.4079
 8276WAT      O34908   0.922   9.258   3.397 -0.1118  0.6588 -0.6745
 8276WAT     H134909   0.869   9.183   3.367  0.0823 -0.0090  0.5939
 8276WAT     H234910   1.011   9.238   3.366  0.1338 -0.1446  0.4859
 8276WAT    EPW34911   0.927   9.245   3.389 -0.0538  0.4644 -0.3542
 8277WAT      O34912  -2.463  10.185   3.488 -0.3998 -0.0193 -0.6051
 8277WAT     H134913  -2.554  10.188   3.461 -0.7688 -3.5867 -0.1876
 8277WAT     H234914  -2.466  10.198   3.583 -0.3577  0.6577 -0.6906
 8277WAT    EPW34915  -2.475  10.187   3.497 -0.4430 -0.4001 -0.5614
 8278WAT      O34916  -4.169   9.448   3.295  1.5429 -0.0909  0.4506
 8278WAT     H134917  -4.087   9.403   3.276  0.7541 -1.3663 -0.0737
 8278WAT     H234918  -4.229   9.417   3.227  0.6076  0.7571  0.8704
 8278WAT    EPW34919  -4.166   9.438   3.283  1.3156 -0.1473  0.4368
 8279WAT      O34920   6.120   6.258   2.620  0.5047  0.9982 -0.0185
 8279WAT     H134921   6.085   6.199   2.687  0.9464 -1.1544 -1.5794
 8279WAT     H234922   6.211   6.274   2.647  1.6011 -2.1372 -1.3884
 8279WAT    EPW34923   6.128   6.252   2.633  0.7076  0.3006 -0.4051
 8280WAT      O34924   7.801   3.459   0.317  0.4793  0.6835  1.1018
 8280WAT     H134925   7.798   3.483   0.409  4.2286 -0.0330  1.5453
 8280WAT     H234926   7.782   3.365   0.316 -1.3919  1.0161  0.8350
 8280WAT    EPW34927   7.798   3.450   0.329  0.7269  0.6330  1.1251
 8281WAT      O34928  -1.946   3.187   2.693 -0.2717 -0.5395 -0.0133
 8281WAT     H134929  -2.041   3.176   2.691 -0.7580  2.6941 -1.2299
 8281WAT     H234930  -1.914   3.140   2.617 -1.2758  0.4291 -1.0820
 8281WAT    EPW34931  -1.954   3.180   2.683 -0.4683  0.0147 -0.3147
 8282WAT      O34932   1.591   7.606   5.774  0.0439  0.4809  0.0538
 8282WAT     H134933   1.507   7.571   5.804 -0.7349  0.3760 -2.0572
 8282WAT     H234934   1.568   7.659   5.697  1.8953  0.7022 -0.3914
 8282WAT    EPW34935   1.577   7.609   5.768  0.1853  0.4961 -0.2832
 8283WAT      O34936  -1.790   0.941   7.998  1.1075  0.2227  0.8266
 8283WAT     H134937  -1.864   0.891   8.032 -1.0131 -0.8243 -4.3550
 8283WAT     H234938  -1.723   0.875   7.979  1.8798  0.6572  1.9281
 8283WAT    EPW34939  -1.791   0.926   8.000  0.9297  0.1419  0.2885
 8284WAT      O34940   0.730   0.716   0.385 -0.1460  0.9051 -0.0253
 8284WAT     H134941   0.765   0.723   0.474  0.1202 -0.4109 -0.0132
 8284WAT     H234942   0.794   0.760   0.330 -0.8487  2.7247  0.5334
 8284WAT    EPW34943   0.743   0.723   0.389 -0.2036  0.9715  0.0500
 8285WAT      O34944   3.790   1.037   7.102  0.0858 -0.4877 -0.6935
 8285WAT     H134945   3.800   0.969   7.035  3.0074  0.2909 -1.1662
 8285WAT     H234946   3.836   1.113   7.066  1.2318  0.1503  1.8980
 8285WAT    EPW34947   3.797   1.038   7.089  0.6223 -0.3009 -0.4141
 8286WAT      O34948   6.932   4.993   2.415 -0.3023  0.5304  0.0754
 8286WAT     H134949   7.022   4.987   2.446 -0.1113 -1.4558 -0.7474
 8286WAT     H234950   6.905   4.903   2.398 -2.2077  1.1270 -0.3902
 8286WAT    EPW34951   6.940   4.981   2.417 -0.5283  0.3469 -0.0945
 8287WAT      O34952  -4.183   2.864   6.988 -0.0353  0.4060 -1.0545
 8287WAT     H134953  -4.199   2.826   6.901  1.3010  0.7167 -1.4530
 8287WAT     H234954  -4.150   2.952   6.969 -0.0983  0.6132 -0.2121
 8287WAT    EPW34955  -4.181   2.871   6.974  0.1326  0.4742 -0.9959
 8288WAT      O34956  -2.987   3.064   4.037  0.0054 -0.2824 -0.0379
 8288WAT     H134957  -2.946   3.083   3.952  2.5927  0.3146  1.2503
 8288WAT     H234958  -2.970   3.141   4.090 -2.4132 -0.2424  0.8048
 8288WAT    EPW34959  -2.980   3.076   4.033  0.0277 -0.1985  0.2429
 8289WAT      O34960   1.961   8.731   8.482 -0.0940  0.1746  0.5571
 8289WAT     H134961   2.007   8.815   8.484 -0.1529  0.2564 -0.7846
 8289WAT     H234962   2.013   8.674   8.539  1.0615  0.5795 -0.0622
 8289WAT    EPW34963   1.974   8.734   8.490  0.0506  0.2389  0.2980
 8290WAT      O34964  -3.334   8.001   4.401  0.6032  0.0240 -0.1922
 8290WAT     H134965  -3.420   7.984   4.442  1.3468  0.8989  1.8849
 8290WAT     H234966  -3.344   8.088   4.361  0.3045 -0.2073 -0.6317
 8290WAT    EPW34967  -3.347   8.010   4.401  0.6620  0.1092  0.0238
 8291WAT      O34968  -4.485   8.441   6.590 -0.1945  0.2312  0.2145
 8291WAT     H134969  -4.485   8.345   6.594 -0.8174  0.1795 -0.7232
 8291WAT     H234970  -4.393   8.465   6.601  0.3133 -0.5954 -1.7302
 8291WAT    EPW34971  -4.473   8.431   6.592 -0.2096  0.1154 -0.1657
 8292WAT      O34972  -0.702   1.537   7.004  0.3170  0.6811  0.4318
 8292WAT     H134973  -0.667   1.449   7.018 -0.6476 -0.2026 -2.0406
 8292WAT     H234974  -0.796   1.529   7.022  0.0518  0.9086 -0.7386
 8292WAT    EPW34975  -0.710   1.524   7.008  0.1548  0.5945 -0.0486
 8293WAT      O34976   5.835   4.147   2.513 -0.0540 -0.0864 -0.2270
 8293WAT     H134977   5.922   4.167   2.548  0.1730  0.0778 -0.8770
 8293WAT     H234978   5.828   4.052   2.520  0.2565 -0.1203 -0.3641
 8293WAT    EPW34979   5.845   4.137   2.519  0.0169 -0.0694 -0.3308
 8294WAT      O34980  -1.537   8.005   5.365 -0.3143 -0.5478  0.2173
 8294WAT     H134981  -1.630   8.011   5.344 -0.2962 -1.0378 -0.0101
 8294WAT     H234982  -1.505   8.096   5.361 -0.6044 -0.4761 -0.4957
 8294WAT    EPW34983  -1.545   8.018   5.362 -0.3501 -0.6027  0.0935
 8295WAT      O34984   5.406  10.115   3.222 -0.0243  0.3585 -0.1211
 8295WAT     H134985   5.407  10.133   3.128 -1.5566  2.8869  0.2517
 8295WAT     H234986   5.404  10.019   3.228 -3.1132  0.0846 -2.7541
 8295WAT    EPW34987   5.406  10.105   3.210 -0.6340  0.6557 -0.4193
 8296WAT      O34988  -2.555   0.517   6.555 -0.3065  0.1241  0.1342
 8296WAT     H134989  -2.507   0.537   6.635 -3.9033 -1.4127  2.9963
 8296WAT     H234990  -2.605   0.597   6.536  1.4374  0.9082 -1.4295
 8296WAT    EPW34991  -2.556   0.530   6.563 -0.5509  0.0248  0.3057
 8297WAT      O34992  -1.217   4.188   4.627  0.0335 -0.5502 -0.0232
 8297WAT     H134993  -1.144   4.200   4.566  0.1506 -1.1796 -0.0167
 8297WAT     H234994  -1.272   4.122   4.585 -0.2491 -0.4759  0.2297
 8297WAT    EPW34995  -1.214   4.181   4.613  0.0117 -0.6232  0.0110
 8298WAT      O34996  -4.800   4.313   8.674 -0.7874  0.1372 -0.3382
 8298WAT     H134997  -4.803   4.232   8.624  0.4812  0.2390 -0.5985
 8298WAT     H234998  -4.772   4.286   8.762  0.8689  0.4108 -0.7510
 8298WAT    EPW34999  -4.797   4.299   8.679 -0.4015  0.1864 -0.4268
 8299WAT      O35000   0.148   0.691   7.609 -0.1447  0.6180 -0.6441
 8299WAT     H135001   0.162   0.765   7.669 -1.3183 -1.1826  2.0751
 8299WAT     H235002   0.076   0.720   7.553 -1.6285  1.0592  1.3761
 8299WAT    EPW35003   0.140   0.705   7.610 -0.4952  0.4387 -0.0188
 8300WAT      O35004   4.201   2.509   2.182 -0.2936  0.3019  0.4003
 8300WAT     H135005   4.274   2.463   2.139 -1.7444 -0.4395 -1.4067
 8300WAT     H235006   4.197   2.594   2.137 -1.5212 -0.2934 -0.6877
 8300WAT    EPW35007   4.210   2.514   2.170 -0.6471  0.1255  0.0185
 8301WAT      O35008  -1.476   5.372   2.047  0.4245 -0.1508 -0.1225
 8301WAT     H135009  -1.448   5.280   2.042  0.4258 -0.0890 -1.4832
 8301WAT     H235010  -1.519   5.379   2.132  0.3675 -1.4301 -0.0295
 8301WAT    EPW35011  -1.478   5.361   2.058  0.4172 -0.3114 -0.2897
 8302WAT      O35012   4.093   5.111   0.960 -0.0763  0.1370  0.5362
 8302WAT     H135013   4.070   5.020   0.979 -1.7326  0.2078 -0.8727
 8302WAT     H235014   4.172   5.127   1.011  0.9834 -2.4798 -0.1123
 8302WAT    EPW35015   4.101   5.101   0.969 -0.1550 -0.1988  0.2649
 8303WAT      O35016  -3.722   2.726   8.589 -0.1513  0.2096  0.4840
 8303WAT     H135017  -3.703   2.817   8.566  1.4765  0.0251  0.9631
 8303WAT     H235018  -3.737   2.728   8.684  1.0737 -0.1606  0.7085
 8303WAT    EPW35019  -3.721   2.738   8.599  0.2249  0.1364  0.5770
 8304WAT      O35020   4.504   0.090   2.452 -0.4344 -0.0275  0.8682
 8304WAT     H135021   4.489   0.079   2.358 -3.0690 -0.7544  1.2851
 8304WAT     H235022   4.591   0.053   2.467 -0.0018  0.0077 -1.2457
 8304WAT    EPW35023   4.513   0.084   2.442 -0.7248 -0.1188  0.6444
 8305WAT      O35024  -0.048   3.815   6.549  0.1099 -0.2614 -0.1783
 8305WAT     H135025  -0.132   3.770   6.551  0.8450 -1.8508 -1.9998
 8305WAT     H235026   0.017   3.746   6.561  1.2884  0.1451 -3.2848
 8305WAT    EPW35027  -0.050   3.800   6.551  0.3623 -0.4174 -0.8283
 8306WAT      O35028   1.712  10.146   2.310  0.8996 -0.5349  0.3389
 8306WAT     H135029   1.668  10.172   2.230  0.7725  0.5781  0.7515
 8306WAT     H235030   1.640  10.134   2.373  1.0271 -1.0194  0.3967
 8306WAT    EPW35031   1.697  10.148   2.308  0.8997 -0.4520  0.4009
 8307WAT      O35032   4.319   4.042   8.019 -0.0957  0.9010 -0.1281
 8307WAT     H135033   4.391   4.105   8.019 -0.7010  1.6005  0.6423
 8307WAT     H235034   4.259   4.075   7.952 -1.5148  2.4668  1.8047
 8307WAT    EPW35035   4.320   4.055   8.010 -0.3629  1.1997  0.2284
 8308WAT      O35036  -2.292   4.225   4.972  0.7359  0.1990 -0.5959
 8308WAT     H135037  -2.319   4.195   4.885  0.9501 -0.5242 -0.4227
 8308WAT     H235038  -2.260   4.314   4.958 -0.2809  0.5107 -1.0623
 8308WAT    EPW35039  -2.292   4.233   4.959  0.6300  0.1447 -0.6347
 8309WAT      O35040  -4.261   3.798   8.518 -0.3907  0.1407  0.3519
 8309WAT     H135041  -4.319   3.767   8.448 -0.0905 -1.0046  0.5826
 8309WAT     H235042  -4.267   3.893   8.514 -0.1857  0.1128 -1.3928
 8309WAT    EPW35043  -4.270   3.806   8.508 -0.3242 -0.0142  0.1521
 8310WAT      O35044  -6.314  10.136   7.815  0.1188  0.4075 -0.6272
 8310WAT     H135045  -6.295  10.132   7.721  0.0849  0.2350 -0.6279
 8310WAT     H235046  -6.235  10.173   7.854  0.3329 -0.0062 -0.6654
 8310WAT    EPW35047  -6.301  10.140   7.808  0.1423  0.3304 -0.6323
 8311WAT      O35048   1.820   8.474   4.085  0.0564 -0.3412 -0.4966
 8311WAT     H135049   1.779   8.463   4.171 -1.2308  0.2780 -1.0058
 8311WAT     H235050   1.912   8.486   4.104 -0.3322  0.6917  0.8640
 8311WAT    EPW35051   1.826   8.474   4.098 -0.1646 -0.1235 -0.3843
 8312WAT      O35052  -2.983   8.060   8.558  0.4818 -0.5009  0.2903
 8312WAT     H135053  -2.898   8.062   8.601  1.1456  1.1336 -0.9878
 8312WAT     H235054  -2.993   8.148   8.520 -1.3625 -0.9441 -0.3556
 8312WAT    EPW35055  -2.973   8.072   8.559  0.3262 -0.3443  0.0362
 8313WAT      O35056  -2.460   8.455   0.270 -0.5400  0.2677  0.5043
 8313WAT     H135057  -2.413   8.501   0.200  1.3385 -4.3907 -1.7331
 8313WAT     H235058  -2.550   8.448   0.237 -0.9688  2.5052  1.0879
 8313WAT    EPW35059  -2.466   8.460   0.256 -0.3489 -0.0515  0.2862
 8314WAT      O35060  -3.842   1.432   5.852 -0.1309 -0.2422  0.6321
 8314WAT     H135061  -3.765   1.450   5.798 -0.6072 -0.0317  0.0069
 8314WAT     H235062  -3.828   1.483   5.932 -1.0029  2.2533 -0.7041
 8314WAT    EPW35063  -3.830   1.441   5.855 -0.3086  0.1147  0.3736
 8315WAT      O35064  -0.366   0.229   7.356  0.4930 -0.5603 -0.5432
 8315WAT     H135065  -0.439   0.193   7.306 -1.4601 -0.2488  1.9073
 8315WAT     H235066  -0.407   0.287   7.420  2.5900 -2.0401  2.4147
 8315WAT    EPW35067  -0.381   0.232   7.358  0.5120 -0.7144  0.1700
 8316WAT      O35068   0.893   5.227   5.394 -0.4616  0.2985 -0.7441
 8316WAT     H135069   0.910   5.303   5.448  0.5541  0.5511 -1.3987
 8316WAT     H235070   0.858   5.161   5.455 -0.5317  0.9903 -0.0283
 8316WAT    EPW35071   0.890   5.228   5.409 -0.3369  0.4232 -0.7360
 8317WAT      O35072   5.417   1.118   2.197  0.8864 -0.0790 -0.3397
 8317WAT     H135073   5.405   1.052   2.265  0.4747  0.5054  0.1670
 8317WAT     H235074   5.445   1.069   2.120  0.8502 -0.8083  0.1082
 8317WAT    EPW35075   5.419   1.103   2.196  0.8273 -0.0981 -0.2137
 8318WAT      O35076   0.582   5.886   0.857 -0.0004 -0.2100 -0.7300
 8318WAT     H135077   0.544   5.881   0.769 -1.5566 -1.3225 -0.0211
 8318WAT     H235078   0.513   5.923   0.911  0.5310 -0.6276  0.2604
 8318WAT    EPW35079   0.568   5.890   0.853 -0.1355 -0.4120 -0.5059
 8319WAT      O35080   3.613   8.155   6.506 -0.1599 -0.3785  0.7736
 8319WAT     H135081   3.527   8.187   6.481  0.4976  0.6766 -0.2064
 8319WAT     H235082   3.645   8.219   6.570 -0.2019 -0.9234  1.3550
 8319WAT    EPW35083   3.606   8.168   6.511 -0.0788 -0.3114  0.7210
 8320WAT      O35084  -3.528   9.830   7.730  0.3879 -0.0397 -0.4982
 8320WAT     H135085  -3.561   9.807   7.816 -0.7581  1.7581 -0.4128
 8320WAT     H235086  -3.434   9.846   7.744  0.3442 -0.4321  0.2673
 8320WAT    EPW35087  -3.520   9.829   7.743  0.2310  0.1450 -0.3860
 8321WAT      O35088   4.336   8.300   4.674 -0.1921 -0.2785 -0.3172
 8321WAT     H135089   4.355   8.370   4.736  0.1539 -0.3664 -0.3244
 8321WAT     H235090   4.342   8.219   4.726 -0.2837 -0.3255 -0.3781
 8321WAT    EPW35091   4.339   8.298   4.689 -0.1583 -0.2961 -0.3264
 8322WAT      O35092   0.529   4.541   4.044 -0.2610 -0.1954  0.5154
 8322WAT     H135093   0.542   4.606   4.113 -0.2376 -2.3372  2.6860
 8322WAT     H235094   0.576   4.463   4.076 -0.3736 -1.3284 -1.8875
 8322WAT    EPW35095   0.537   4.539   4.058 -0.2728 -0.6273  0.4847
 8323WAT      O35096   0.279   2.311   1.454  0.4002 -0.1734 -0.1575
 8323WAT     H135097   0.245   2.258   1.526  1.3671  0.4574  0.7874
 8323WAT     H235098   0.347   2.365   1.493  0.0261  1.1744 -1.2628
 8323WAT    EPW35099   0.284   2.311   1.468  0.4784  0.0876 -0.1786
 8324WAT      O35100  -1.086   5.677   5.323  0.4170 -0.5035 -0.5318
 8324WAT     H135101  -1.179   5.676   5.346  0.2868 -0.8984 -1.0426
 8324WAT     H235102  -1.054   5.591   5.350  0.5738 -0.4678 -0.6025
 8324WAT    EPW35103  -1.094   5.665   5.329  0.4205 -0.5507 -0.6084
 8325WAT      O35104   0.320   0.875   3.009  0.2365 -0.1021  0.6239
 8325WAT     H135105   0.247   0.899   2.952  0.5518 -0.5076  0.0386
 8325WAT     H235106   0.299   0.915   3.094 -0.1658  0.6478  0.1840
 8325WAT    EPW35107   0.308   0.884   3.013  0.2250 -0.0567  0.4886
 8326WAT      O35108   0.079   4.809   4.233  0.1568 -0.4250 -0.1560
 8326WAT     H135109   0.065   4.903   4.238  1.1386 -0.1972 -1.2089
 8326WAT     H235110   0.046   4.775   4.316 -2.8565  0.4689 -0.8707
 8326WAT    EPW35111   0.073   4.817   4.245 -0.1111 -0.2768 -0.3891
 8327WAT      O35112   2.220   4.309   3.169 -0.3658  0.3038 -0.3805
 8327WAT     H135113   2.214   4.397   3.206  0.4329  0.4150 -0.5148
 8327WAT     H235114   2.298   4.311   3.114  0.1680 -0.7537  0.3079
 8327WAT    EPW35115   2.229   4.321   3.166 -0.1900  0.1791 -0.3074
 8328WAT      O35116   3.867   3.535   1.334  0.0282  0.1088 -0.2747
 8328WAT     H135117   3.938   3.479   1.301 -1.3314 -1.2015 -1.0899
 8328WAT     H235118   3.873   3.614   1.280  1.3533  0.3692  0.2124
 8328WAT    EPW35119   3.877   3.538   1.322  0.0237 -0.0296 -0.3180
 8329WAT      O35120   3.590   2.336   3.262 -0.1941 -0.0902 -0.3411
 8329WAT     H135121   3.583   2.343   3.167 -0.7338  1.1858 -0.2260
 8329WAT     H235122   3.637   2.415   3.289 -1.4536  0.3733  0.5881
 8329WAT    EPW35123   3.596   2.347   3.253 -0.4314  0.1392 -0.2034
 8330WAT      O35124   7.053   3.293   1.711  0.0771 -0.1847  0.1462
 8330WAT     H135125   6.998   3.224   1.750  0.2623 -0.6503 -0.4021
 8330WAT     H235126   7.079   3.347   1.785 -3.0910  1.5028  0.1926
 8330WAT    EPW35127   7.049   3.291   1.726 -0.3164 -0.0235  0.0800
 8331WAT      O35128   3.742   5.450   7.327  0.6764  0.4904 -0.2067
 8331WAT     H135129   3.766   5.470   7.236  0.0237  1.3049 -0.2196
 8331WAT     H235130   3.792   5.514   7.378  2.9877 -1.5466  0.2467
 8331WAT    EPW35131   3.752   5.461   7.321  0.8951  0.3290 -0.1485
 8332WAT      O35132   4.072   6.871   4.598 -0.1889 -0.0748  0.2699
 8332WAT     H135133   4.157   6.847   4.562 -0.0233  2.5006 -1.2383
 8332WAT     H235134   4.010   6.855   4.527 -0.7029 -0.1438  0.7246
 8332WAT    EPW35135   4.075   6.866   4.584 -0.2346  0.2561  0.1311
 8333WAT      O35136   2.458   5.452   4.986  0.3287  0.4027 -0.2881
 8333WAT     H135137   2.428   5.452   4.895 -4.2327  0.8266  1.0118
 8333WAT     H235138   2.485   5.543   5.001  0.7693  0.4168 -1.0853
 8333WAT    EPW35139   2.458   5.464   4.976 -0.2148  0.4604 -0.2217
 8334WAT      O35140   6.678   1.651   0.552  0.0646 -0.7581  0.2378
 8334WAT     H135141   6.692   1.653   0.457  1.3281 -0.1293  0.4247
 8334WAT     H235142   6.594   1.695   0.564  0.7123  0.7390 -0.4678
 8334WAT    EPW35143   6.669   1.657   0.541  0.3166 -0.4777  0.1694
 8335WAT      O35144   4.754   9.052   3.677 -0.1145  0.3117  0.5942
 8335WAT     H135145   4.686   9.035   3.612  1.5793 -1.2314 -0.9019
 8335WAT     H235146   4.779   8.965   3.709 -0.1518  0.9731  2.5526
 8335WAT    EPW35147   4.748   9.038   3.673  0.1040  0.1955  0.6552
 8336WAT      O35148   1.100   0.057   0.752 -0.6140 -0.1485 -0.0831
 8336WAT     H135149   1.174   0.049   0.693 -1.2258 -0.5540 -0.8185
 8336WAT     H235150   1.116   0.138   0.800  0.3196 -0.2582 -0.1956
 8336WAT    EPW35151   1.112   0.067   0.751 -0.5715 -0.2164 -0.1949
 8337WAT      O35152   4.822   0.714   4.142 -0.1512 -0.0065  0.2921
 8337WAT     H135153   4.841   0.663   4.063 -0.0362  4.0939 -2.6319
 8337WAT     H235154   4.735   0.686   4.169 -0.3068 -1.3506 -1.4380
 8337WAT    EPW35155   4.813   0.704   4.135 -0.1564  0.3570 -0.3219
 8338WAT      O35156  -3.501   0.805   6.110  0.7858 -0.6482 -0.2886
 8338WAT     H135157  -3.500   0.895   6.143  0.2068 -1.3880  1.9433
 8338WAT     H235158  -3.437   0.804   6.039  1.5830  1.2675  0.3512
 8338WAT    EPW35159  -3.492   0.817   6.105  0.8147 -0.4931  0.0901
 8339WAT      O35160   5.514   7.571   1.095 -0.1211 -0.5455  0.1557
 8339WAT     H135161   5.562   7.651   1.075 -0.0341 -0.9127 -1.1604
 8339WAT     H235162   5.422   7.599   1.096 -0.3383 -0.8420 -2.8513
 8339WAT    EPW35163   5.508   7.585   1.093 -0.1383 -0.6330 -0.4145
 8340WAT      O35164   2.389   7.824   7.934 -0.7757  0.1244  0.4694
 8340WAT     H135165   2.474   7.820   7.979 -0.3354 -0.3844 -0.4014
 8340WAT     H235166   2.411   7.832   7.841 -1.6798  1.2853  0.3252
 8340WAT    EPW35167   2.403   7.825   7.928 -0.8368  0.2103  0.3355
 8341WAT      O35168   5.954   1.442   2.608 -0.2024  0.7472 -0.0609
 8341WAT     H135169   6.041   1.402   2.610 -0.5988 -0.2808 -1.4108
 8341WAT     H235170   5.971   1.536   2.614  0.8719  0.4930  1.4645
 8341WAT    EPW35171   5.968   1.449   2.609 -0.1128  0.5780 -0.0378
 8342WAT      O35172   1.945   0.535   3.587  0.2748 -0.5404  0.6194
 8342WAT     H135173   2.014   0.507   3.527  0.8471 -1.3912  1.6423
 8342WAT     H235174   1.932   0.459   3.645 -1.7301 -0.5154  0.2676
 8342WAT    EPW35175   1.952   0.521   3.587  0.0858 -0.6493  0.7079
 8343WAT      O35176  -0.690   9.434   6.555 -0.0478 -0.6804 -0.1127
 8343WAT     H135177  -0.675   9.351   6.509  0.4474 -1.1606  0.8694
 8343WAT     H235178  -0.765   9.473   6.511 -2.8007 -3.4474  1.7454
 8343WAT    EPW35179  -0.698   9.428   6.543 -0.3456 -1.1091  0.2620
 8344WAT      O35180   4.563   5.954   2.295  0.1382 -0.4496  0.0562
 8344WAT     H135181   4.575   5.940   2.389  0.5976 -2.4132 -0.2526
 8344WAT     H235182   4.645   5.924   2.255 -1.2406 -2.9288 -1.1915
 8344WAT    EPW35183   4.576   5.948   2.302  0.0169 -1.0357 -0.1490
 8345WAT      O35184  -0.609   3.291   3.691  0.6179  0.4029  0.4970
 8345WAT     H135185  -0.673   3.244   3.638  1.6454  1.6440 -2.0198
 8345WAT     H235186  -0.661   3.335   3.758 -0.9027 -0.3233 -0.1518
 8345WAT    EPW35187  -0.624   3.290   3.693  0.5528  0.4708  0.0794
 8346WAT      O35188  -1.887   9.233   7.957  0.1615 -0.2027  0.3475
 8346WAT     H135189  -1.950   9.242   8.029 -0.2960  2.8119 -0.2834
 8346WAT     H235190  -1.808   9.276   7.990 -0.3194  1.9955 -1.1331
 8346WAT    EPW35191  -1.885   9.240   7.971  0.0377  0.4845  0.0689
 8347WAT      O35192  -0.052   4.571   8.677 -0.2229  0.1582  0.2812
 8347WAT     H135193  -0.030   4.648   8.625 -0.1677  0.6374  0.9922
 8347WAT     H235194  -0.115   4.523   8.623  1.8037 -0.7802 -1.3874
 8347WAT    EPW35195  -0.058   4.575   8.663  0.0517  0.0978  0.1550
 8348WAT      O35196  -3.304   4.690   6.614  0.1467  0.3870 -0.0343
 8348WAT     H135197  -3.360   4.613   6.604  1.0252 -0.3049  0.2731
 8348WAT     H235198  -3.359   4.763   6.587 -0.6450 -0.3673 -0.5075
 8348WAT    EPW35199  -3.319   4.690   6.609  0.1582  0.1962 -0.0560
 8349WAT      O35200  -3.353   6.716   7.932 -0.4154  0.2270 -0.3012
 8349WAT     H135201  -3.373   6.809   7.934  3.1833  1.1546 -0.7972
 8349WAT     H235202  -3.319   6.701   7.844  1.6733 -0.8566  0.6279
 8349WAT    EPW35203  -3.351   6.726   7.921  0.3347  0.2065 -0.2439
 8350WAT      O35204   3.483   6.196   4.459  0.3014 -0.2624 -0.1486
 8350WAT     H135205   3.398   6.238   4.450  1.9397  3.1006 -1.8465
 8350WAT     H235206   3.496   6.149   4.377 -0.1953 -1.5406  0.4683
 8350WAT    EPW35207   3.474   6.195   4.447  0.4519  0.0126 -0.2911
 8351WAT      O35208   4.595   5.926   1.091 -0.1770 -0.8248  0.2548
 8351WAT     H135209   4.627   5.842   1.123  0.0608 -1.9900 -2.7330
 8351WAT     H235210   4.503   5.929   1.119  0.4458 -0.8725  2.4819
 8351WAT    EPW35211   4.587   5.916   1.099 -0.0634 -0.9847  0.1545
 8352WAT      O35212  -2.910   1.364   7.944  0.0726  0.7282 -0.5595
 8352WAT     H135213  -2.930   1.458   7.935 -0.3628  0.7226  0.2255
 8352WAT     H235214  -2.962   1.337   8.019  1.9680  0.3573  0.6731
 8352WAT    EPW35215  -2.920   1.373   7.952  0.2652  0.6785 -0.2933
 8353WAT      O35216  -0.739   4.070   8.576 -0.7227 -0.2179  0.1456
 8353WAT     H135217  -0.809   4.025   8.623  0.5131 -1.9813  0.4035
 8353WAT     H235218  -0.674   4.092   8.643 -0.4950  0.3283 -0.2442
 8353WAT    EPW35219  -0.739   4.067   8.591 -0.5297 -0.3786  0.1278
 8354WAT      O35220   0.178   6.639   3.791 -0.3333 -0.2605  0.4682
 8354WAT     H135221   0.178   6.734   3.798  0.3698 -0.3151  1.6368
 8354WAT     H235222   0.230   6.620   3.713 -0.8040  0.3153  0.0111
 8354WAT    EPW35223   0.185   6.649   3.782 -0.3027 -0.1919  0.5621
 8355WAT      O35224   4.317   8.700   3.305  0.3751 -0.1115 -0.1638
 8355WAT     H135225   4.272   8.736   3.229 -0.6149 -0.7971  0.0809
 8355WAT     H235226   4.410   8.716   3.287  0.0679  1.0295 -0.8257
 8355WAT    EPW35227   4.323   8.707   3.292  0.2041 -0.0515 -0.2189
 8356WAT      O35228  -0.938   7.759   7.028  0.1368 -0.0894  0.4039
 8356WAT     H135229  -0.884   7.804   6.964  0.6353 -1.4601 -0.1803
 8356WAT     H235230  -0.876   7.733   7.097 -0.2675  0.7122  1.0961
 8356WAT    EPW35231  -0.922   7.762   7.029  0.1493 -0.1643  0.4182
 8357WAT      O35232   5.087   1.897   7.466  0.4113 -0.3477  0.0179
 8357WAT     H135233   5.061   1.807   7.450 -2.8657  0.4326  0.1647
 8357WAT     H235234   5.121   1.896   7.556  0.1852 -1.3954  0.1051
 8357WAT    EPW35235   5.088   1.885   7.476 -0.0508 -0.3830  0.0486
 8358WAT      O35236   0.038   4.127   7.662  0.0139 -0.3398 -0.0464
 8358WAT     H135237   0.048   4.156   7.571 -1.1116 -0.8439 -0.3592
 8358WAT     H235238  -0.041   4.173   7.693  0.9992  0.6747  1.0485
 8358WAT    EPW35239   0.029   4.137   7.654 -0.0046 -0.2723  0.0567
 8359WAT      O35240   4.363   9.560   0.196  0.4194  0.3394  0.5160
 8359WAT     H135241   4.435   9.601   0.243  2.2167 -1.6895 -0.2715
 8359WAT     H235242   4.390   9.563   0.104 -0.0202 -1.2388  0.2939
 8359WAT    EPW35243   4.376   9.565   0.190  0.5984 -0.1364  0.3829
 8360WAT      O35244   0.808   6.009   8.929  0.1932  0.5084 -0.0368
 8360WAT     H135245   0.825   5.924   8.970  0.1084 -0.5307 -1.9929
 8360WAT     H235246   0.740   6.049   8.983  0.3485 -0.6119  1.0238
 8360WAT    EPW35247   0.801   6.003   8.941  0.2025  0.2234 -0.1550
 8361WAT      O35248  -3.605   6.786   8.933 -0.4049 -0.5495 -0.0471
 8361WAT     H135249  -3.537   6.752   8.874  1.0181 -0.8774  1.6844
 8361WAT     H235250  -3.653   6.849   8.880  0.3727 -1.2959 -1.7429
 8361WAT    EPW35251  -3.603   6.790   8.918 -0.1146 -0.6912 -0.0424
 8362WAT      O35252   0.257   7.359   6.907 -0.0298 -0.2482 -0.9188
 8362WAT     H135253   0.234   7.291   6.843  1.3583 -1.3570 -0.2832
 8362WAT     H235254   0.349   7.345   6.925 -0.0437  0.9873  0.2459
 8362WAT    EPW35255   0.266   7.348   6.901  0.1515 -0.2313 -0.6814
 8363WAT      O35256  -5.926   8.794   5.778 -0.2960  0.0037  0.2245
 8363WAT     H135257  -5.903   8.712   5.820 -1.6892  0.9112  3.0424
 8363WAT     H235258  -5.857   8.855   5.803  0.4713 -0.1108 -1.4427
 8363WAT    EPW35259  -5.914   8.792   5.787 -0.3784  0.1082  0.3762
 8364WAT      O35260   1.574   4.235   0.809  0.6377  0.1731  0.3042
 8364WAT     H135261   1.495   4.192   0.840 -0.2182  1.5635  0.1071
 8364WAT     H235262   1.645   4.178   0.839 -0.4119 -1.0751  0.5214
 8364WAT    EPW35263   1.573   4.222   0.817  0.3864  0.1919  0.3068
 8365WAT      O35264  -0.890  10.113   4.766 -0.2488 -0.0624  0.2297
 8365WAT     H135265  -0.879  10.018   4.757 -0.1274 -0.5555  3.9953
 8365WAT     H235266  -0.948  10.124   4.842  0.4725  2.8685  0.4976
 8365WAT    EPW35267  -0.896  10.102   4.775 -0.1376  0.2589  0.7615
 8366WAT      O35268   0.814   4.044   4.734  0.3314 -0.0781 -0.5114
 8366WAT     H135269   0.871   4.083   4.800 -0.2410  0.1673 -0.1599
 8366WAT     H235270   0.784   3.961   4.773 -0.2216  0.1943 -0.3430
 8366WAT    EPW35271   0.817   4.038   4.748  0.1830 -0.0098 -0.4427
 8367WAT      O35272  -4.041   2.409   8.421  0.0445  0.8298  0.0525
 8367WAT     H135273  -4.097   2.341   8.458 -0.1489  1.7176  1.4439
 8367WAT     H235274  -3.987   2.363   8.357  0.5640 -0.8264  1.5989
 8367WAT    EPW35275  -4.041   2.394   8.417  0.0875  0.7284  0.4396
 8368WAT      O35276   4.989   7.547   4.968 -0.5819  0.6149 -0.4903
 8368WAT     H135277   4.961   7.601   4.894  0.9928  1.8961 -0.2070
 8368WAT     H235278   5.065   7.500   4.935 -0.1841  0.8053  0.1423
 8368WAT    EPW35279   4.995   7.548   4.954 -0.3216  0.8090 -0.3695
 8369WAT      O35280  -7.377   7.763   8.590  0.0777  0.2563 -0.0239
 8369WAT     H135281  -7.338   7.765   8.677 -2.3518  1.6079  1.1319
 8369WAT     H235282  -7.429   7.683   8.589  1.3285 -0.5643 -0.8449
 8369WAT    EPW35283  -7.379   7.753   8.601 -0.0777  0.3264  0.0196
 8370WAT      O35284  -4.300  10.220   4.292 -0.2185  0.2799 -0.6824
 8370WAT     H135285  -4.330  10.214   4.201 -1.9221  0.2012 -0.1547
 8370WAT     H235286  -4.237  10.149   4.301 -3.6243 -3.0542 -0.5634
 8370WAT    EPW35287  -4.296  10.210   4.281 -0.8922 -0.1698 -0.5972
 8371WAT      O35288   1.633   9.305   7.541 -0.1189  0.2526  0.2746
 8371WAT     H135289   1.633   9.392   7.581 -1.1431  1.5067 -2.2280
 8371WAT     H235290   1.724   9.291   7.516  0.0444  0.6449  0.6316
 8371WAT    EPW35291   1.645   9.315   7.543 -0.2325  0.4697 -0.0086
 8372WAT      O35292  -0.233   6.670   2.427  0.5804  0.2158 -0.4796
 8372WAT     H135293  -0.166   6.706   2.369  0.8623 -1.7316 -1.4217
 8372WAT     H235294  -0.185   6.611   2.486 -0.0155  0.4990  0.3182
 8372WAT    EPW35295  -0.218   6.667   2.427  0.5390 -0.0038 -0.4987
 8373WAT      O35296   3.841  10.236   5.211  0.1629  0.2498 -0.4422
 8373WAT     H135297   3.766  10.195   5.253  0.2733 -0.5304 -0.9938
 8373WAT     H235298   3.888  10.164   5.168  2.2059  0.4179  1.3058
 8373WAT    EPW35299   3.837  10.221   5.211  0.4469  0.1693 -0.2842
 8374WAT      O35300   3.391   0.879   7.789 -0.2233  0.2204 -0.1473
 8374WAT     H135301   3.405   0.968   7.821  1.4681 -0.6083  1.6729
 8374WAT     H235302   3.322   0.844   7.845 -1.2235  0.5005 -1.1728
 8374WAT    EPW35303   3.384   0.886   7.801 -0.1322  0.1481 -0.0422
 8375WAT      O35304  -5.640  10.087   8.043  0.2893 -0.9515  0.1743
 8375WAT     H135305  -5.672  10.010   7.996  1.5101 -0.1360 -2.1829
 8375WAT     H235306  -5.702  10.156   8.021  0.1910 -0.8300  0.8109
 8375WAT    EPW35307  -5.652  10.086   8.034  0.4373 -0.8278 -0.0525
 8376WAT      O35308   7.814   1.022   1.639  0.0510 -0.7134 -0.1905
 8376WAT     H135309   7.721   1.003   1.650  0.2167 -1.6681 -0.3102
 8376WAT     H235310   7.821   1.117   1.644 -1.4313 -0.2799 -3.5708
 8376WAT    EPW35311   7.803   1.032   1.641 -0.1228 -0.7821 -0.6521
 8377WAT      O35312   7.484   5.816   1.698 -0.3395 -0.1335  0.2870
 8377WAT     H135313   7.554   5.772   1.650 -0.6789 -0.0095 -0.3298
 8377WAT     H235314   7.439   5.746   1.744  0.2147 -0.2097  0.7334
 8377WAT    EPW35315   7.488   5.801   1.697 -0.3111 -0.1273  0.2645
 8378WAT      O35316   4.883   1.084   0.650 -0.3997 -0.0883 -0.7401
 8378WAT     H135317   4.972   1.120   0.653  0.0997 -1.2973 -0.3778
 8378WAT     H235318   4.827   1.160   0.631  0.2749  1.5146  2.7194
 8378WAT    EPW35319   4.887   1.099   0.648 -0.2449 -0.0363 -0.2360
 8379WAT      O35320   1.082   3.059   5.167 -0.3757  0.2298 -0.3869
 8379WAT     H135321   1.048   2.972   5.186 -2.3341  0.9737 -0.3414
 8379WAT     H235322   1.049   3.115   5.237  1.2014  0.9787 -0.1717
 8379WAT    EPW35323   1.073   3.055   5.179 -0.4261  0.4265 -0.3526
 8380WAT      O35324   5.082   3.114   4.105  0.0691 -0.4144 -0.2660
 8380WAT     H135325   5.152   3.100   4.042  0.8441 -0.0592  0.4982
 8380WAT     H235326   5.002   3.114   4.052  0.7649  0.8341 -1.4051
 8380WAT    EPW35327   5.080   3.112   4.089  0.2632 -0.2029 -0.3157
 8381WAT      O35328  -4.746   0.841   8.606 -0.4899 -0.4671 -0.2646
 8381WAT     H135329  -4.742   0.852   8.701  0.8830 -3.3251  0.1048
 8381WAT     H235330  -4.689   0.767   8.588 -2.1046 -1.1506 -3.1487
 8381WAT    EPW35331  -4.738   0.833   8.616 -0.5217 -0.9342 -0.5965
 8382WAT      O35332   7.901   1.894   3.311  1.0205  0.5234  0.2543
 8382WAT     H135333   7.940   1.901   3.224  1.0297 -1.4379  0.0556
 8382WAT     H235334   7.929   1.974   3.356  0.9481  1.6284 -1.5455
 8382WAT    EPW35335   7.910   1.905   3.305  1.0121  0.4105 -0.0093
 8383WAT      O35336   1.716   2.198   8.812 -0.0277 -0.0187  0.3140
 8383WAT     H135337   1.638   2.251   8.832  0.3306  0.1539  1.3141
 8383WAT     H235338   1.773   2.257   8.763  0.2103  0.4233  1.1021
 8383WAT    EPW35339   1.713   2.213   8.808  0.0510  0.0623  0.5498
 8384WAT      O35340   2.077   8.074   5.066  0.5163  0.0627  0.0180
 8384WAT     H135341   2.091   8.147   5.126  1.4129  1.0737 -1.3589
 8384WAT     H235342   2.061   7.999   5.123  4.1213  0.3524  1.6913
 8384WAT    EPW35343   2.077   8.074   5.082  1.1100  0.2341  0.0570
 8385WAT      O35344  -5.373   5.674   6.827  0.4266 -0.9289 -0.4481
 8385WAT     H135345  -5.292   5.625   6.814  0.8448 -0.3347 -0.1047
 8385WAT     H235346  -5.353   5.735   6.898  0.4599  0.9569 -2.0130
 8385WAT    EPW35347  -5.360   5.676   6.834  0.4861 -0.6018 -0.6092
 8386WAT      O35348  -5.671   8.598   5.556  0.1699 -0.5859  0.3439
 8386WAT     H135349  -5.603   8.564   5.499  0.6586  1.9858 -0.7340
 8386WAT     H235350  -5.743   8.620   5.498 -0.4837 -0.6304  1.1124
 8386WAT    EPW35351  -5.671   8.596   5.541  0.1481 -0.2527  0.3030
 8387WAT      O35352   4.308   8.914   4.966  0.2883  0.0153  0.4483
 8387WAT     H135353   4.348   9.001   4.966 -1.6992  0.9807  0.2833
 8387WAT     H235354   4.326   8.880   5.053  0.1140  1.0877  0.9227
 8387WAT    EPW35355   4.316   8.921   4.977  0.0031  0.2842  0.4890
 8388WAT      O35356  -1.626   2.139   7.206  0.2837  0.8296 -0.0484
 8388WAT     H135357  -1.530   2.139   7.202  0.3271 -0.8662  0.1813
 8388WAT     H235358  -1.646   2.175   7.292  0.6919  1.4753 -0.2147
 8388WAT    EPW35359  -1.616   2.143   7.217  0.3433  0.6911 -0.0401
 8389WAT      O35360  -1.601   9.773   1.929  0.1762 -0.3565  1.6199
 8389WAT     H135361  -1.569   9.685   1.912 -0.9990 -0.7638  1.4929
 8389WAT     H235362  -1.538   9.830   1.884  0.7032 -1.1302  1.3548
 8389WAT    EPW35363  -1.588   9.769   1.921  0.0907 -0.5121  1.5682
 8390WAT      O35364   3.503   2.960   0.028  0.0206  0.1647  0.7757
 8390WAT     H135365   3.413   2.985   0.047 -0.3982 -1.5270  1.1251
 8390WAT     H235366   3.511   2.968  -0.067 -1.6739 -3.0866  0.2117
 8390WAT    EPW35367   3.492   2.964   0.018 -0.2581 -0.4873  0.7477
 8391WAT      O35368  -3.531   4.305   4.153  0.4908  0.1709 -0.2328
 8391WAT     H135369  -3.596   4.255   4.103  1.4340 -1.0752 -0.2605
 8391WAT     H235370  -3.447   4.267   4.127  1.2201  1.5242  0.0576
 8391WAT    EPW35371  -3.529   4.293   4.143  0.7114  0.1850 -0.1979
 8392WAT      O35372  -2.852   6.373   6.120  0.4872 -0.4970 -0.2645
 8392WAT     H135373  -2.933   6.411   6.154  0.8298  0.1721 -0.1805
 8392WAT     H235374  -2.857   6.280   6.142  0.1605 -0.2876  0.5433
 8392WAT    EPW35375  -2.863   6.365   6.127  0.4894 -0.3810 -0.1469
 8393WAT      O35376   0.250   0.516   1.969 -0.5582 -0.6820 -0.1710
 8393WAT     H135377   0.228   0.468   1.889  0.0083  1.9673 -2.0514
 8393WAT     H235378   0.345   0.512   1.975 -0.2488  1.9555 -1.6928
 8393WAT    EPW35379   0.260   0.509   1.960 -0.4427  0.0153 -0.6197
 8394WAT      O35380   2.135   3.199   2.449  0.2435 -0.3945  0.4337
 8394WAT     H135381   2.063   3.218   2.508  0.5203 -0.5657  0.8330
 8394WAT     H235382   2.157   3.107   2.467  0.3506 -0.4389  0.0884
 8394WAT    EPW35383   2.129   3.189   2.459  0.2942 -0.4230  0.4408
 8395WAT      O35384  -1.050   7.967   7.165  0.3160 -0.3960 -0.4363
 8395WAT     H135385  -1.137   7.929   7.154  0.2654 -0.3531 -0.2048
 8395WAT     H235386  -0.994   7.919   7.105  0.1922 -0.6302 -0.3658
 8395WAT    EPW35387  -1.054   7.956   7.156  0.2930 -0.4213 -0.3965
 8396WAT      O35388   7.763   4.615   1.253 -0.4882 -0.3937  0.5195
 8396WAT     H135389   7.750   4.669   1.175 -1.4606 -1.0975  0.1575
 8396WAT     H235390   7.705   4.540   1.239  1.1501 -1.7789  0.7720
 8396WAT    EPW35391   7.753   4.612   1.241 -0.4003 -0.6695  0.5050
 8397WAT      O35392   4.909   4.416   4.624  0.2694  0.0118  0.0002
 8397WAT     H135393   4.846   4.432   4.554 -1.0356 -1.0326  0.8991
 8397WAT     H235394   4.856   4.397   4.701  1.6195  2.2920  1.6311
 8397WAT    EPW35395   4.894   4.416   4.625  0.2754  0.1750  0.3338
 8398WAT      O35396  -0.970   3.041   6.373  1.0874  0.6790 -0.0313
 8398WAT     H135397  -1.027   3.015   6.446  2.4078  0.3772  0.9197
 8398WAT     H235398  -0.971   3.137   6.376  1.8043  0.6661  0.9321
 8398WAT    EPW35399  -0.978   3.050   6.383  1.3562  0.6374  0.2210
 8399WAT      O35400  -1.048   2.951   0.891  0.4417 -0.2052 -0.4110
 8399WAT     H135401  -0.968   2.965   0.840  0.5798  1.0668  0.1073
 8399WAT     H235402  -1.068   3.037   0.928 -0.8431 -0.6310 -0.0451
 8399WAT    EPW35403  -1.040   2.964   0.889  0.2904 -0.0936 -0.2944
 8400WAT      O35404  -1.802  10.117   7.399 -0.3386  0.2856 -0.3546
 8400WAT     H135405  -1.805  10.027   7.431  1.1634  0.6934  1.1221
 8400WAT     H235406  -1.847  10.115   7.315 -0.2383 -1.8604 -0.4044
 8400WAT    EPW35407  -1.808  10.105   7.393 -0.1273  0.0563 -0.1664
 8401WAT      O35408  -2.827   3.594   8.748  0.2878 -0.3117  0.1672
 8401WAT     H135409  -2.892   3.661   8.727  1.3926  0.5647 -0.6547
 8401WAT     H235410  -2.743   3.639   8.735  1.0798 -1.9986 -0.8993
 8401WAT    EPW35411  -2.824   3.609   8.743  0.5379 -0.4185 -0.0815
 8402WAT      O35412   2.379   7.159   5.994 -0.2939  0.5316  0.0417
 8402WAT     H135413   2.332   7.095   5.941 -0.8626 -0.2834  1.4841
 8402WAT     H235414   2.311   7.212   6.034  0.1616  1.8831 -0.8798
 8402WAT    EPW35415   2.364   7.157   5.992 -0.3089  0.6025  0.1104
 8403WAT      O35416  -4.303   8.110   4.774 -0.1412 -0.2638 -0.9239
 8403WAT     H135417  -4.331   8.195   4.739  2.2425  0.4979 -1.1778
 8403WAT     H235418  -4.315   8.049   4.701 -1.5283 -0.1024 -0.8551
 8403WAT    EPW35419  -4.308   8.113   4.760 -0.0095 -0.1421 -0.9484
 8404WAT      O35420   4.455   4.409   7.086  0.1308  0.2995  0.1007
 8404WAT     H135421   4.507   4.449   7.017  2.1196  0.5619  1.6780
 8404WAT     H235422   4.418   4.483   7.134 -1.5559  0.1171 -0.8330
 8404WAT    EPW35423   4.457   4.424   7.083  0.1707  0.3099  0.1855
 8405WAT      O35424   5.879   4.432   4.200 -0.2498 -0.3588 -0.3588
 8405WAT     H135425   5.785   4.411   4.198 -0.5209  0.6015  0.8850
 8405WAT     H235426   5.892   4.474   4.286  0.7411  2.0869 -1.6073
 8405WAT    EPW35427   5.868   4.435   4.211 -0.1547  0.0904 -0.3595
 8406WAT      O35428  -0.253   5.133   7.777  0.4876  0.1826  0.3748
 8406WAT     H135429  -0.321   5.066   7.776  1.3756 -0.7685  1.3772
 8406WAT     H235430  -0.174   5.088   7.749  1.7165  0.0224  3.6699
 8406WAT    EPW35431  -0.252   5.118   7.773  0.7668  0.0360  0.9418
 8407WAT      O35432   3.499   8.863   3.336  0.2644  0.2573 -0.1321
 8407WAT     H135433   3.561   8.901   3.274 -0.3264  0.1035 -0.8208
 8407WAT     H235434   3.474   8.936   3.392 -0.9300  0.9525 -1.5013
 8407WAT    EPW35435   3.504   8.877   3.335  0.0290  0.3290 -0.4035
 8408WAT      O35436   2.348   5.297   8.205 -0.5729  0.2318  0.1676
 8408WAT     H135437   2.284   5.365   8.229 -1.5784 -1.1288  1.5407
 8408WAT     H235438   2.311   5.216   8.240  1.4602 -0.7653  0.1443
 8408WAT    EPW35439   2.335   5.296   8.212 -0.4374 -0.0792  0.3457
 8409WAT      O35440   2.941   8.795   5.442  0.6341 -0.1761 -0.2121
 8409WAT     H135441   2.944   8.708   5.401 -2.3771 -1.3693  1.7660
 8409WAT     H235442   2.988   8.784   5.524 -0.9883 -0.4469  0.7261
 8409WAT    EPW35443   2.947   8.782   5.447  0.0229 -0.3691  0.1726
 8410WAT      O35444   6.999   2.536   4.659 -0.2494  0.3191  0.0106
 8410WAT     H135445   7.054   2.604   4.620  0.2472 -0.1030 -0.0280
 8410WAT     H235446   6.932   2.519   4.594 -1.8994  2.5530  1.0045
 8410WAT    EPW35447   6.998   2.543   4.645 -0.4015  0.5581  0.1366
 8411WAT      O35448  -4.135   8.980   3.219 -0.4031 -0.4342 -0.7832
 8411WAT     H135449  -4.064   8.938   3.170  1.4027 -1.5369  2.4352
 8411WAT     H235450  -4.171   8.909   3.273 -1.1759  0.9548  0.6064
 8411WAT    EPW35451  -4.130   8.965   3.220 -0.2668 -0.3967 -0.1755
 8412WAT      O35452  -0.556   9.903   8.154  0.1812  0.4247 -0.5497
 8412WAT     H135453  -0.487   9.865   8.209  0.7955 -1.8642 -2.7115
 8412WAT     H235454  -0.603   9.827   8.119 -2.4087  1.8927 -0.4745
 8412WAT    EPW35455  -0.553   9.888   8.156 -0.0794  0.3161 -0.8249
 8413WAT      O35456  -2.551   9.722   7.674  0.8933  0.1394  0.4816
 8413WAT     H135457  -2.504   9.719   7.590  0.0127 -0.8397 -0.0045
 8413WAT     H235458  -2.524   9.642   7.719 -0.0902 -0.2933  0.3151
 8413WAT    EPW35459  -2.541   9.711   7.669  0.6474 -0.0467  0.3958
 8414WAT      O35460   7.865   5.983   1.117  0.0041  0.7344  0.2388
 8414WAT     H135461   7.779   5.947   1.141  1.0341 -2.0830  0.1080
 8414WAT     H235462   7.869   5.973   1.022  0.6757  0.3013  0.3050
 8414WAT    EPW35463   7.854   5.977   1.107  0.2284  0.3059  0.2303
 8415WAT      O35464   3.523   3.536   6.579 -0.5548 -0.1514  0.3605
 8415WAT     H135465   3.443   3.522   6.629  0.4596  0.2484  2.1599
 8415WAT     H235466   3.529   3.631   6.568 -1.7356 -0.2807 -2.2659
 8415WAT    EPW35467   3.514   3.547   6.584 -0.5769 -0.1158  0.2513
 8416WAT      O35468  -1.474   6.144   5.308  0.0464  0.1340 -0.5284
 8416WAT     H135469  -1.535   6.205   5.267  0.3600 -0.9810 -2.8305
 8416WAT     H235470  -1.397   6.196   5.328 -0.7712  1.0713  0.2811
 8416WAT    EPW35471  -1.472   6.159   5.306 -0.0201  0.1106 -0.7253
 8417WAT      O35472  -3.496   0.404   8.396  0.5644 -0.6143 -0.2509
 8417WAT     H135473  -3.580   0.371   8.364 -1.2829  0.3527  3.0628
 8417WAT     H235474  -3.438   0.327   8.395 -1.8519 -2.6606  1.8138
 8417WAT    EPW35475  -3.500   0.389   8.392  0.0020 -0.7567  0.4582
 8418WAT      O35476   0.176   5.513   6.982 -0.3741  0.1753 -0.2567
 8418WAT     H135477   0.145   5.522   6.892  0.5011  0.1748 -0.5682
 8418WAT     H235478   0.118   5.448   7.021 -1.4221  0.9337 -0.5002
 8418WAT    EPW35479   0.165   5.506   6.975 -0.3969  0.2754 -0.3300
 8419WAT      O35480   1.522   4.368   8.305 -0.1746  0.1498  0.0396
 8419WAT     H135481   1.508   4.424   8.381 -0.8713  1.6104 -1.0940
 8419WAT     H235482   1.598   4.405   8.261 -1.4652  1.1713 -1.4785
 8419WAT    EPW35483   1.530   4.380   8.309 -0.4367  0.4771 -0.3104
 8420WAT      O35484   3.776   3.701   7.912  0.2193  0.0682 -0.0680
 8420WAT     H135485   3.822   3.681   7.831 -1.2624  0.3000 -0.9912
 8420WAT     H235486   3.825   3.654   7.980  0.5639 -1.4243 -1.3014
 8420WAT    EPW35487   3.789   3.692   7.911  0.0693 -0.0981 -0.3521
 8421WAT      O35488   0.835   7.739   8.398 -0.2648 -0.1484  0.6671
 8421WAT     H135489   0.802   7.827   8.416  2.8208  1.5076 -0.8813
 8421WAT     H235490   0.848   7.737   8.303  1.9425 -1.3695  0.9359
 8421WAT    EPW35491   0.832   7.750   8.388  0.4333 -0.0911  0.4983
 8422WAT      O35492   5.293   6.163   5.359  0.2581 -0.2236  0.3695
 8422WAT     H135493   5.235   6.122   5.295  1.2288 -1.3741  0.1776
 8422WAT     H235494   5.248   6.243   5.386 -1.2384 -0.9131 -0.0172
 8422WAT    EPW35495   5.279   6.168   5.354  0.1888 -0.4663  0.2933
 8423WAT      O35496  -2.979   3.461   5.992  0.2928 -0.0927 -0.0163
 8423WAT     H135497  -3.030   3.513   6.053 -1.4786 -0.3370 -1.2269
 8423WAT     H235498  -2.923   3.407   6.047  1.8949  2.6841  1.3000
 8423WAT    EPW35499  -2.978   3.461   6.007  0.2705  0.2413 -0.0024
 8424WAT      O35500   4.084   0.546   1.377  0.0220 -0.3762 -0.5809
 8424WAT     H135501   3.994   0.578   1.378 -1.2554 -3.5748  1.4524
 8424WAT     H235502   4.123   0.578   1.458  1.3002  2.1486 -2.0789
 8424WAT    EPW35503   4.078   0.554   1.388  0.0222 -0.4651 -0.5103
 8425WAT      O35504  -1.660   1.686   4.283 -0.0076  0.2889  0.1336
 8425WAT     H135505  -1.728   1.623   4.309 -0.7328  1.6536  1.7728
 8425WAT     H235506  -1.706   1.749   4.228 -0.4948  1.9650  2.3181
 8425WAT    EPW35507  -1.675   1.686   4.279 -0.1675  0.6900  0.6378
 8426WAT      O35508  -1.195   2.100   1.222  0.6976 -0.3575  0.2444
 8426WAT     H135509  -1.220   2.030   1.161  3.0515 -0.0358 -1.2061
 8426WAT     H235510  -1.138   2.057   1.285 -0.1300 -0.2746  1.0746
 8426WAT    EPW35511  -1.191   2.085   1.222  0.8989 -0.3042  0.1626
 8427WAT      O35512   7.745   1.703   2.666  0.6325 -0.0481 -0.0314
 8427WAT     H135513   7.747   1.612   2.695 -0.3359  0.3866  1.4903
 8427WAT     H235514   7.819   1.744   2.710 -0.4793  0.4730  1.4183
 8427WAT    EPW35515   7.755   1.696   2.675  0.3581  0.0780  0.3606
 8428WAT      O35516  -0.836   3.724   4.700  0.6233 -0.2963  0.3465
 8428WAT     H135517  -0.761   3.666   4.686 -1.1484 -2.6516 -0.0422
 8428WAT     H235518  -0.870   3.698   4.786 -0.0644  0.3575  0.2812
 8428WAT    EPW35519  -0.830   3.713   4.710  0.2989 -0.5207  0.2866
 8429WAT      O35520  -0.659   1.418   1.957 -0.3409 -0.2685 -0.3203
 8429WAT     H135521  -0.713   1.340   1.972 -1.1770  0.3405 -0.0387
 8429WAT     H235522  -0.718   1.491   1.975  0.6644  0.4264  0.2553
 8429WAT    EPW35523  -0.674   1.417   1.961 -0.3186 -0.0966 -0.2072
 8430WAT      O35524  -5.133   2.574   8.412 -0.1091  0.4457  0.0214
 8430WAT     H135525  -5.146   2.659   8.370  1.9054  0.4595 -0.6915
 8430WAT     H235526  -5.193   2.574   8.487 -0.7275  2.1449 -0.4407
 8430WAT    EPW35527  -5.143   2.585   8.417  0.0751  0.6715 -0.1335
 8431WAT      O35528   4.385   5.150   1.052 -0.7632 -0.0283  0.0866
 8431WAT     H135529   4.458   5.144   1.114 -2.4283  2.3326  2.5028
 8431WAT     H235530   4.374   5.061   1.019  1.6356 -0.9368  1.5252
 8431WAT    EPW35531   4.393   5.137   1.056 -0.6661  0.1631  0.5950
 8432WAT      O35532  10.153   0.571   0.991  0.1264  0.2578 -0.4891
 8432WAT     H135533  10.169   0.485   1.031 -1.0566  0.2062 -0.0827
 8432WAT     H235534  10.229   0.585   0.935  2.5288  0.8633  2.6091
 8432WAT    EPW35535  10.165   0.561   0.989  0.2875  0.3309 -0.0269
 8433WAT      O35536   4.172   6.922   0.015 -0.2695 -0.5098 -0.4348
 8433WAT     H135537   4.179   6.982   0.089  1.2177 -2.5062  1.1572
 8433WAT     H235538   4.149   6.978  -0.060 -2.1814  1.5436  1.5433
 8433WAT    EPW35539   4.170   6.937   0.015 -0.3254 -0.5021  0.0361
 8434WAT      O35540   1.514   4.045   6.825 -0.0998 -0.3048  0.7763
 8434WAT     H135541   1.453   4.113   6.853 -0.3658 -0.1439 -0.1833
 8434WAT     H235542   1.582   4.091   6.776 -1.4374 -0.9286 -1.7970
 8434WAT    EPW35543   1.515   4.060   6.822 -0.3113 -0.3660  0.3104
 8435WAT      O35544  -4.791   3.570   6.111 -0.1628 -0.4812 -0.4694
 8435WAT     H135545  -4.771   3.571   6.017  2.0422 -1.1985 -0.0515
 8435WAT     H235546  -4.886   3.564   6.114 -0.2663 -0.9290 -2.6570
 8435WAT    EPW35547  -4.801   3.570   6.099  0.1144 -0.6348 -0.7029
 8436WAT      O35548  -0.118   8.534   0.417  0.6570 -0.2154 -0.0557
 8436WAT     H135549  -0.141   8.474   0.487 -2.4321 -1.2548 -1.7441
 8436WAT     H235550  -0.103   8.618   0.460 -1.6327 -0.6947  1.8411
 8436WAT    EPW35551  -0.119   8.537   0.432 -0.0524 -0.4158 -0.0282
 8437WAT      O35552  -1.353   5.244   5.887 -0.1186 -0.0250 -0.5535
 8437WAT     H135553  -1.421   5.311   5.882  1.7105  1.8665 -2.4038
 8437WAT     H235554  -1.390   5.169   5.841 -1.4891  0.4060 -0.1976
 8437WAT    EPW35555  -1.366   5.243   5.880 -0.0581  0.2813 -0.7505
 8438WAT      O35556   5.856   3.100   4.920 -0.1245  0.2902 -0.3986
 8438WAT     H135557   5.856   3.004   4.917  0.5435  0.2685  0.0843
 8438WAT     H235558   5.792   3.122   4.987 -0.4230  0.1887 -0.6478
 8438WAT    EPW35559   5.847   3.090   4.928 -0.0758  0.2739 -0.3679
 8439WAT      O35560   4.560   2.772   0.206 -0.4314 -0.8605 -0.0732
 8439WAT     H135561   4.633   2.811   0.254  0.3342 -2.1769 -0.1104
 8439WAT     H235562   4.484   2.790   0.260 -0.2717  1.3972 -0.5193
 8439WAT    EPW35563   4.560   2.780   0.220 -0.3095 -0.7362 -0.1370
 8440WAT      O35564   5.220   1.949   0.540  0.0788  0.7062 -0.5122
 8440WAT     H135565   5.208   1.854   0.535  0.7010  0.4839  1.3616
 8440WAT     H235566   5.148   1.985   0.488 -2.1377 -0.7435  1.3364
 8440WAT    EPW35567   5.209   1.941   0.533 -0.1314  0.4857 -0.0213
 8441WAT      O35568   0.138   4.239   5.441 -0.3476  0.4054 -0.5673
 8441WAT     H135569   0.104   4.292   5.370 -1.5470  0.4076 -0.0133
 8441WAT     H235570   0.082   4.259   5.516  0.7810  0.2908  0.3563
 8441WAT    EPW35571   0.126   4.249   5.442 -0.3570  0.3905 -0.3726
 8442WAT      O35572   4.100   4.410   5.275  0.7200 -0.5336  0.4603
 8442WAT     H135573   4.181   4.407   5.326  1.4897 -0.6096 -0.7326
 8442WAT     H235574   4.112   4.344   5.206 -0.8457 -1.3817  0.9514
 8442WAT    EPW35575   4.112   4.401   5.273  0.6149 -0.6557  0.3676
 8443WAT      O35576  -2.996   6.745   6.187  0.1918 -0.9204 -0.0856
 8443WAT     H135577  -3.010   6.831   6.149 -4.2139 -1.1065  0.5333
 8443WAT     H235578  -2.903   6.727   6.175  0.3256  1.5861 -5.0742
 8443WAT    EPW35579  -2.986   6.754   6.181 -0.3717 -0.6144 -0.6621
 8444WAT      O35580  -5.847  10.050   6.100  0.1503 -0.2014 -0.5951
 8444WAT     H135581  -5.759  10.066   6.064  1.4531 -2.2234  1.4677
 8444WAT     H235582  -5.872  10.134   6.138  2.6004 -0.2760  1.4811
 8444WAT    EPW35583  -5.839  10.063   6.100  0.6452 -0.4778 -0.0491
 8445WAT      O35584   1.969   9.467   7.167  0.2697  0.6854  0.3550
 8445WAT     H135585   2.003   9.395   7.115  0.1720  0.9903 -0.1343
 8445WAT     H235586   1.875   9.468   7.150  0.2737  0.9425  0.3412
 8445WAT    EPW35587   1.961   9.458   7.158  0.2573  0.7601  0.2887
 8446WAT      O35588  -4.163   7.851   5.387  0.7797 -0.8311  0.6000
 8446WAT     H135589  -4.092   7.909   5.413 -0.0144  0.6750 -0.4197
 8446WAT     H235590  -4.207   7.829   5.469  0.7849  0.4596  0.9745
 8446WAT    EPW35591  -4.160   7.856   5.401  0.6754 -0.4623  0.5147
 8447WAT      O35592  -2.098   3.948   7.530  0.1252  0.2863  0.0614
 8447WAT     H135593  -2.032   3.889   7.493  1.5839  1.9905 -0.1877
 8447WAT     H235594  -2.172   3.941   7.471  0.5413 -0.7478 -0.3601
 8447WAT    EPW35595  -2.099   3.939   7.518  0.3726  0.3747 -0.0269
 8448WAT      O35596   0.855   0.265   2.976  0.2234 -0.6578 -0.3453
 8448WAT     H135597   0.833   0.303   2.891  2.1452  1.8996  0.1937
 8448WAT     H235598   0.792   0.303   3.036  1.1787  0.5077 -0.0575
 8448WAT    EPW35599   0.844   0.275   2.972  0.6029 -0.1668 -0.2363
 8449WAT      O35600   6.228   9.335   0.888 -0.4397  0.0279  0.2226
 8449WAT     H135601   6.229   9.412   0.832  0.8631  0.1019  0.3060
 8449WAT     H235602   6.277   9.269   0.838 -1.7399 -0.8339  0.0491
 8449WAT    EPW35603   6.235   9.336   0.874 -0.4394 -0.0758  0.2107
 8450WAT      O35604  -1.008   1.725   5.073  0.1484 -0.3983  0.4768
 8450WAT     H135605  -0.926   1.764   5.042 -0.4449  1.0276  0.6255
 8450WAT     H235606  -1.076   1.780   5.034 -0.8167 -2.3432 -0.7396
 8450WAT    EPW35607  -1.006   1.737   5.064 -0.0572 -0.4668  0.3359
 8451WAT      O35608   2.276   2.040   2.032 -0.2317 -0.1869  0.6302
 8451WAT     H135609   2.371   2.050   2.025  0.0428 -2.2241  0.8369
 8451WAT     H235610   2.251   2.102   2.101  0.4754  2.4156 -1.2681
 8451WAT    EPW35611   2.285   2.050   2.040 -0.1023 -0.1123  0.4071
 8452WAT      O35612  -2.798   5.796   7.926 -0.3964 -0.1961 -0.3471
 8452WAT     H135613  -2.791   5.710   7.966 -2.6755 -0.5420 -0.5087
 8452WAT     H235614  -2.867   5.840   7.976  1.4329  1.9949  0.4160
 8452WAT    EPW35615  -2.806   5.790   7.937 -0.4556  0.0472 -0.2675
 8453WAT      O35616   4.120   2.153   5.434 -0.3984 -0.1108 -0.0612
 8453WAT     H135617   4.179   2.144   5.360 -2.9159 -1.8996 -2.0299
 8453WAT     H235618   4.102   2.247   5.439  0.1036  0.0834 -1.4822
 8453WAT    EPW35619   4.125   2.165   5.425 -0.6642 -0.3211 -0.5083
 8454WAT      O35620   0.727   7.136   3.368 -0.9132 -0.3628  0.0537
 8454WAT     H135621   0.728   7.225   3.332 -0.5296 -0.6804 -0.7326
 8454WAT     H235622   0.638   7.105   3.352 -1.6942  0.5985  2.1727
 8454WAT    EPW35623   0.715   7.144   3.361 -0.9656 -0.2778  0.2295
 8455WAT      O35624  -2.479   6.963   1.680  0.0606  0.4615 -0.1066
 8455WAT     H135625  -2.419   6.893   1.653 -1.0971 -0.1397 -1.2399
 8455WAT     H235626  -2.483   6.955   1.775 -0.9145 -1.8163 -0.2723
 8455WAT    EPW35627  -2.472   6.953   1.689 -0.2208  0.0815 -0.2779
 8456WAT      O35628  -0.320   7.438   3.763 -0.6141  0.7898  0.1495
 8456WAT     H135629  -0.385   7.501   3.794 -0.0297  0.4186  2.2841
 8456WAT     H235630  -0.288   7.394   3.842  2.6657  1.3614 -0.6829
 8456WAT    EPW35631  -0.324   7.440   3.777 -0.1044  0.8163  0.3211
 8457WAT      O35632   1.195   4.701   7.922 -0.0817 -0.3226  0.4516
 8457WAT     H135633   1.224   4.692   7.832  0.4477 -0.7373  0.6582
 8457WAT     H235634   1.099   4.700   7.916 -0.0684  0.8728 -0.2137
 8457WAT    EPW35635   1.186   4.700   7.909 -0.0101 -0.2196  0.3910
 8458WAT      O35636   1.161   8.560   2.236  0.4532 -0.8076 -0.4068
 8458WAT     H135637   1.104   8.586   2.163  0.9269 -0.0767 -0.5275
 8458WAT     H235638   1.237   8.521   2.194 -0.2689 -2.5048 -0.2259
 8458WAT    EPW35639   1.163   8.559   2.221  0.4204 -0.9356 -0.3988
 8459WAT      O35640   4.668   2.349   1.070 -0.3791  0.5045  0.5200
 8459WAT     H135641   4.632   2.316   1.152 -0.4591  1.2021  0.7725
 8459WAT     H235642   4.597   2.400   1.031  0.5911  2.7268  1.5009
 8459WAT    EPW35643   4.654   2.351   1.075 -0.2615  0.8897  0.6827
 8460WAT      O35644   3.033   9.733   7.041  0.0893  0.5075  0.2858
 8460WAT     H135645   3.071   9.821   7.044  0.1596  0.4601  0.9640
 8460WAT     H235646   3.107   9.674   7.056  0.0250  0.3341 -0.0612
 8460WAT    EPW35647   3.048   9.737   7.043  0.0900  0.4783  0.3295
 8461WAT      O35648  -2.979   8.849   7.620 -0.0506 -0.1348 -0.1195
 8461WAT     H135649  -3.052   8.873   7.677 -0.5819 -2.0996  0.0915
 8461WAT     H235650  -2.903   8.894   7.658 -1.1030  2.0268 -0.4050
 8461WAT    EPW35651  -2.978   8.858   7.632 -0.2595 -0.1092 -0.1292
 8462WAT      O35652   1.233   0.068   6.579 -0.0807  0.2962  0.3931
 8462WAT     H135653   1.288  -0.010   6.582  2.0360  1.7345  1.1376
 8462WAT     H235654   1.269   0.126   6.646 -1.2948  2.1180 -0.4346
 8462WAT    EPW35655   1.245   0.065   6.589  0.0383  0.7262  0.3822
 8463WAT      O35656  -2.708   0.224   7.712 -0.1314  0.4877 -0.8305
 8463WAT     H135657  -2.728   0.182   7.795 -0.6404  2.3487  0.0504
 8463WAT     H235658  -2.627   0.272   7.727  0.5927 -0.3378 -1.8910
 8463WAT    EPW35659  -2.700   0.225   7.725 -0.1030  0.6243 -0.8543
 8464WAT      O35660   1.644   4.712   1.539 -0.0657  0.0546  0.1193
 8464WAT     H135661   1.691   4.777   1.486 -0.9585  0.0043 -0.7605
 8464WAT     H235662   1.687   4.629   1.519  0.6028  0.2534  0.6824
 8464WAT    EPW35663   1.656   4.710   1.529 -0.0953  0.0741  0.0775
 8465WAT      O35664  -2.235   2.351   6.017 -0.1678  0.2483 -0.4244
 8465WAT     H135665  -2.221   2.259   5.995 -0.8433 -0.7129  2.6626
 8465WAT     H235666  -2.180   2.399   5.955  0.1176 -2.1912 -2.1984
 8465WAT    EPW35667  -2.226   2.345   6.006 -0.2193 -0.2002 -0.2513
 8466WAT      O35668  -2.475   3.050   2.373  0.5887  0.1380  0.2809
 8466WAT     H135669  -2.390   3.089   2.397  0.2756  0.5766  0.7122
 8466WAT     H235670  -2.533   3.076   2.444 -0.1553  0.6963 -0.5185
 8466WAT    EPW35671  -2.471   3.059   2.386  0.4493  0.2695  0.2323
 8467WAT      O35672   5.028   1.069   3.417  0.4430  0.1624 -0.4550
 8467WAT     H135673   5.054   1.140   3.476 -0.9624 -0.1361  0.5710
 8467WAT     H235674   5.107   1.018   3.405  0.8753  0.4990  0.8095
 8467WAT    EPW35675   5.042   1.072   3.423  0.3145  0.1674 -0.1528
 8468WAT      O35676   6.569   2.196   3.023  0.6596 -0.0488  0.8269
 8468WAT     H135677   6.562   2.138   3.098 -0.4454 -1.8376 -0.5759
 8468WAT     H235678   6.482   2.235   3.015 -0.3219 -2.3988 -1.3592
 8468WAT    EPW35679   6.557   2.193   3.032  0.3843 -0.5947  0.3535
 8469WAT      O35680   1.352   7.295   1.080  0.2731 -0.6558  0.0176
 8469WAT     H135681   1.343   7.378   1.032 -1.8534 -2.3548 -2.8267
 8469WAT     H235682   1.267   7.283   1.122  0.1520 -1.8931 -0.5457
 8469WAT    EPW35683   1.339   7.304   1.079 -0.0234 -1.0428 -0.4318
 8470WAT      O35684   2.492   5.158   4.108 -0.7638 -0.0317  0.4088
 8470WAT     H135685   2.406   5.115   4.115 -0.8025 -0.2550 -1.1243
 8470WAT     H235686   2.554   5.091   4.135 -1.0091 -0.1425  0.7075
 8470WAT    EPW35687   2.489   5.144   4.112 -0.8013 -0.0758  0.2460
 8471WAT      O35688   2.630   9.481   3.665 -0.0912 -0.2284  0.2785
 8471WAT     H135689   2.671   9.407   3.711 -2.2593 -0.5903  1.8017
 8471WAT     H235690   2.544   9.447   3.639 -1.1619  1.7249  1.0692
 8471WAT    EPW35691   2.624   9.467   3.668 -0.5183 -0.0186  0.5836
 8472WAT      O35692  -0.017  10.106   5.117 -0.1682  0.0963 -0.3873
 8472WAT     H135693   0.029  10.187   5.137 -0.7496  0.9008 -2.1118
 8472WAT     H235694   0.052  10.045   5.089  0.2516  0.0168  0.7788
 8472WAT    EPW35695  -0.002  10.109   5.116 -0.1895  0.1922 -0.4611
 8473WAT      O35696   3.995   0.842   3.599 -0.4902 -0.0889  0.5054
 8473WAT     H135697   4.006   0.753   3.632  1.0328 -0.3906 -0.7203
 8473WAT     H235698   4.010   0.898   3.675 -0.4165 -0.8489  1.0560
 8473WAT    EPW35699   3.999   0.838   3.613 -0.2797 -0.2289  0.4163
 8474WAT      O35700  -7.325   7.034   8.841 -0.0854  0.0160  0.8019
 8474WAT     H135701  -7.420   7.028   8.846 -0.0206 -0.9187  1.1608
 8474WAT     H235702  -7.307   7.064   8.752 -0.7475  1.6069  1.1709
 8474WAT    EPW35703  -7.335   7.037   8.830 -0.1640  0.1028  0.8984
 8475WAT      O35704   0.129   9.059   0.347  0.1833  0.2740 -0.4030
 8475WAT     H135705   0.218   9.081   0.323 -0.3943  1.3818 -1.6515
 8475WAT     H235706   0.129   9.059   0.443  0.8085  3.5104 -0.3059
 8475WAT    EPW35707   0.141   9.062   0.357  0.1896  0.8469 -0.5549
 8476WAT      O35708  -2.615   5.381   5.846 -0.4441 -0.0832 -0.0471
 8476WAT     H135709  -2.711   5.390   5.848 -0.3379  1.9482 -1.1951
 8476WAT     H235710  -2.583   5.468   5.870  1.1125 -0.4848 -0.5791
 8476WAT    EPW35711  -2.624   5.394   5.850 -0.2247  0.1318 -0.2689
 8477WAT      O35712   3.328   1.568   8.061 -0.0529 -0.1560  0.1279
 8477WAT     H135713   3.323   1.526   7.976  0.9108  1.2596 -0.6773
 8477WAT     H235714   3.248   1.619   8.067  0.6164  1.0590 -0.7141
 8477WAT    EPW35715   3.317   1.569   8.051  0.1625  0.1910 -0.0896
 8478WAT      O35716   1.390   5.531   0.969  0.3430  0.0732  0.3617
 8478WAT     H135717   1.367   5.617   1.006 -1.7878 -0.0164 -0.6149
 8478WAT     H235718   1.311   5.479   0.980  0.3191 -0.6026 -2.3898
 8478WAT    EPW35719   1.376   5.536   0.976  0.0588 -0.0279 -0.1300
 8479WAT      O35720   0.857   8.664   3.058  0.0020  0.0464 -0.0576
 8479WAT     H135721   0.806   8.685   2.979 -1.0059 -0.7389  0.3672
 8479WAT     H235722   0.941   8.631   3.024  0.1203  1.0398 -0.7696
 8479WAT    EPW35723   0.862   8.662   3.043 -0.1154  0.0739 -0.0955
 8480WAT      O35724   0.805   8.279   5.617 -0.6479  0.3301  0.0849
 8480WAT     H135725   0.737   8.345   5.602 -1.7575 -0.5787  0.9645
 8480WAT     H235726   0.769   8.223   5.686  2.2268  1.5644  2.8353
 8480WAT    EPW35727   0.791   8.281   5.624 -0.4151  0.3734  0.5636
 8481WAT      O35728   4.669   1.657   0.976  0.0678  0.6572 -0.3202
 8481WAT     H135729   4.645   1.591   1.041 -0.6848 -0.5551 -1.7562
 8481WAT     H235730   4.760   1.678   0.995  0.0969 -0.2659  0.6222
 8481WAT    EPW35731   4.677   1.651   0.987 -0.0277  0.3756 -0.3853
 8482WAT      O35732   7.534   1.303   0.036 -0.4397  0.0776  0.0053
 8482WAT     H135733   7.625   1.291   0.010 -0.3233  1.7465 -0.4589
 8482WAT     H235734   7.537   1.358   0.114 -0.9945 -1.3933  1.1002
 8482WAT    EPW35735   7.546   1.309   0.043 -0.4973  0.1037  0.0885
 8483WAT      O35736  -1.972   6.184   1.590  0.0976  0.1113 -0.2239
 8483WAT     H135737  -2.008   6.260   1.636 -3.3314 -1.1704 -0.5088
 8483WAT     H235738  -1.907   6.221   1.530  0.5268  2.4557  1.5551
 8483WAT    EPW35739  -1.968   6.199   1.588 -0.2980  0.2515 -0.0268
 8484WAT      O35740   5.158   8.499   1.192 -0.3177  0.1957  0.0389
 8484WAT     H135741   5.231   8.536   1.143  0.2186 -1.6129 -0.6265
 8484WAT     H235742   5.136   8.565   1.258  0.5772  1.6261 -1.0494
 8484WAT    EPW35743   5.164   8.512   1.194 -0.1290  0.1459 -0.1925
 8485WAT      O35744  -2.524   3.318   7.229 -0.4909 -0.0142 -0.0641
 8485WAT     H135745  -2.587   3.320   7.157  0.0778  2.4041 -0.6123
 8485WAT     H235746  -2.490   3.229   7.229 -0.1898 -0.0236 -3.1458
 8485WAT    EPW35747  -2.527   3.307   7.219 -0.3762  0.3034 -0.5431
 8486WAT      O35748  -5.494   3.848   7.433 -0.4149  0.1171  0.1156
 8486WAT     H135749  -5.486   3.867   7.340  0.9399 -0.6631  0.0517
 8486WAT     H235750  -5.511   3.754   7.438  0.1675  0.0285  0.6582
 8486WAT    EPW35751  -5.495   3.838   7.421 -0.1593  0.0025  0.1786
 8487WAT      O35752   7.833   2.790   1.039  0.2288  0.2521  0.1003
 8487WAT     H135753   7.800   2.823   1.123  0.3207  0.7678 -0.0599
 8487WAT     H235754   7.791   2.847   0.974  2.1823  1.5958 -0.0684
 8487WAT    EPW35755   7.823   2.802   1.042  0.4985  0.4975  0.0570
 8488WAT      O35756  -0.076   6.504   2.598  0.2873 -0.3019 -0.1508
 8488WAT     H135757  -0.121   6.420   2.590  0.3703 -0.4430  0.7058
 8488WAT     H235758   0.015   6.484   2.574  0.9533 -1.1322  2.6136
 8488WAT    EPW35759  -0.070   6.490   2.594  0.3861 -0.4301  0.3269
 8489WAT      O35760  -0.537   6.801   5.298 -1.0147  0.0659 -0.0752
 8489WAT     H135761  -0.562   6.721   5.252  0.3827  0.5399 -1.7784
 8489WAT     H235762  -0.506   6.770   5.383 -2.6624 -0.9476  0.2076
 8489WAT    EPW35763  -0.536   6.786   5.303 -1.0478 -0.0055 -0.2625
 8490WAT      O35764   4.491   6.521   3.338 -0.4668 -0.2447  0.4382
 8490WAT     H135765   4.556   6.491   3.275 -0.8227 -1.2638  0.5369
 8490WAT     H235766   4.532   6.596   3.381 -0.3299  0.6524 -1.1837
 8490WAT    EPW35767   4.505   6.527   3.335 -0.4957 -0.2608  0.2372
 8491WAT      O35768   1.431   6.777   0.583 -0.0193 -0.1678 -0.5935
 8491WAT     H135769   1.501   6.777   0.648 -0.4750 -1.4313 -0.0570
 8491WAT     H235770   1.360   6.827   0.623 -0.0587 -0.3859 -0.3900
 8491WAT    EPW35771   1.431   6.784   0.597 -0.0846 -0.3631 -0.4959
 8492WAT      O35772   0.356   8.382   3.665 -0.3665 -0.1385  0.4605
 8492WAT     H135773   0.361   8.293   3.697  1.7379  0.6298  2.5286
 8492WAT     H235774   0.292   8.425   3.721  2.2660  0.8300  2.9752
 8492WAT    EPW35775   0.349   8.376   3.676  0.2583  0.0906  1.0649
 8493WAT      O35776   6.254   0.171   4.705 -0.2924 -0.0362  0.5243
 8493WAT     H135777   6.229   0.186   4.613 -0.3766 -1.0969  0.3614
 8493WAT     H235778   6.321   0.103   4.701  1.2205  1.3492  1.1183
 8493WAT    EPW35779   6.259   0.164   4.692 -0.1040  0.0066  0.5810
 8494WAT      O35780  -5.589   3.021   7.379  0.0454 -0.6046 -0.3475
 8494WAT     H135781  -5.509   2.969   7.373  1.0871  0.8894  0.0633
 8494WAT     H235782  -5.566   3.105   7.341 -0.7125  0.5343  1.5867
 8494WAT    EPW35783  -5.576   3.025   7.374  0.0830 -0.2574 -0.0381
 8495WAT      O35784   5.953   8.142   1.147 -0.1556  0.5241 -0.9540
 8495WAT     H135785   6.009   8.111   1.219  1.4033  0.6376 -2.0727
 8495WAT     H235786   5.974   8.236   1.140 -2.5123  1.2409  0.3406
 8495WAT    EPW35787   5.963   8.151   1.156 -0.2608  0.6337 -0.9308
 8496WAT      O35788  -1.592   7.468   8.640  0.5244  0.1007 -0.4283
 8496WAT     H135789  -1.639   7.500   8.563  1.1162 -1.3759 -1.4590
 8496WAT     H235790  -1.576   7.546   8.692  0.5029  1.2319 -2.0270
 8496WAT    EPW35791  -1.596   7.482   8.636  0.5997  0.0551 -0.7753
 8497WAT      O35792  -0.172   0.676   0.259  0.1526  0.9701 -0.2547
 8497WAT     H135793  -0.104   0.662   0.324  1.6882  1.8612 -1.6066
 8497WAT     H235794  -0.221   0.593   0.258  1.1269  0.3510  0.8176
 8497WAT    EPW35795  -0.170   0.663   0.267  0.4836  1.0060 -0.2915
 8498WAT      O35796   6.963   8.559   1.345 -0.0030 -0.2348  0.2396
 8498WAT     H135797   6.889   8.611   1.312 -0.0318 -0.6530 -0.3789
 8498WAT     H235798   7.011   8.534   1.266  1.1240  0.4887  0.6735
 8498WAT    EPW35799   6.959   8.563   1.330  0.1419 -0.1945  0.2152
 8499WAT      O35800   6.052   6.889   3.280  0.4261 -0.4496  0.0446
 8499WAT     H135801   5.983   6.859   3.221 -0.1825  0.3975  0.2924
 8499WAT     H235802   6.055   6.984   3.267 -0.3879 -0.0865  2.0172
 8499WAT    EPW35803   6.043   6.898   3.271  0.2382 -0.2899  0.3375
 8500WAT      O35804   2.253   6.854   3.447 -0.6292  0.3897  0.1962
 8500WAT     H135805   2.271   6.932   3.396 -0.1861  0.6482  0.7330
 8500WAT     H235806   2.304   6.785   3.405 -1.1806  0.3420 -0.3986
 8500WAT    EPW35807   2.262   6.855   3.435 -0.6435  0.4175  0.1886
 8501WAT      O35808   6.212   8.283   0.376 -0.3248 -0.2674  0.0870
 8501WAT     H135809   6.301   8.317   0.368 -0.1227 -0.8703 -0.2624
 8501WAT     H235810   6.221   8.204   0.429 -0.7842  0.1616  0.8300
 8501WAT    EPW35811   6.225   8.277   0.382 -0.3588 -0.2904  0.1389
 8502WAT      O35812  -4.236   3.106   7.328  0.8807 -0.8909  1.1408
 8502WAT     H135813  -4.157   3.061   7.356  1.7787  0.1301  0.3431
 8502WAT     H235814  -4.287   3.040   7.281  2.1573 -1.0986  0.0003
 8502WAT    EPW35815  -4.233   3.092   7.325  1.1675 -0.7837  0.8850
 8503WAT      O35816  -3.424   4.921   6.519  0.3654 -0.1303  0.0391
 8503WAT     H135817  -3.416   4.898   6.426  2.4824  0.8095 -0.0799
 8503WAT     H235818  -3.334   4.937   6.547 -0.3857  1.3790  1.8031
 8503WAT    EPW35819  -3.411   4.920   6.510  0.5455  0.1926  0.2561
 8504WAT      O35820   4.820  -0.022   6.282 -0.3528 -0.1917  0.2376
 8504WAT     H135821   4.745   0.008   6.333 -0.5391  0.8592 -0.6257
 8504WAT     H235822   4.861   0.058   6.249 -2.2880 -0.7556 -4.1625
 8504WAT    EPW35823   4.816  -0.008   6.284 -0.6326 -0.1278 -0.4566
 8505WAT      O35824   0.442   4.815   4.771  0.7131 -1.0891 -0.8804
 8505WAT     H135825   0.511   4.816   4.837  0.3714  1.6200 -0.4627
 8505WAT     H235826   0.377   4.754   4.805  0.6911  0.0141  1.1713
 8505WAT    EPW35827   0.443   4.807   4.784  0.6651 -0.5863 -0.5548
 8506WAT      O35828   4.161   4.493   2.758  0.9041  1.0371 -0.1996
 8506WAT     H135829   4.190   4.407   2.727  2.6041  1.7578 -0.7417
 8506WAT     H235830   4.068   4.497   2.736  0.8404 -0.5797 -0.3147
 8506WAT    EPW35831   4.152   4.483   2.751  1.1201  0.9189 -0.2863
 8507WAT      O35832   5.667   5.510   0.912 -0.0968 -0.4432 -0.2379
 8507WAT     H135833   5.609   5.528   0.985 -0.2049 -1.0849 -0.1660
 8507WAT     H235834   5.735   5.453   0.948 -0.4745 -1.2474 -0.7666
 8507WAT    EPW35835   5.668   5.505   0.926 -0.1609 -0.6340 -0.2981
 8508WAT      O35836  -3.540   3.678   5.212 -0.6845 -0.0105  0.5034
 8508WAT     H135837  -3.588   3.692   5.294 -0.8334  0.5219  0.3306
 8508WAT     H235838  -3.605   3.646   5.150 -0.1090 -2.9146  1.2415
 8508WAT    EPW35839  -3.555   3.676   5.215 -0.6282 -0.3233  0.5782
 8509WAT      O35840   1.748   6.440   8.577  0.2173  0.3253  0.4509
 8509WAT     H135841   1.694   6.492   8.517  0.5488  1.2724  0.9512
 8509WAT     H235842   1.690   6.420   8.650 -0.6743 -2.1648 -0.8164
 8509WAT    EPW35843   1.733   6.444   8.579  0.1435  0.1216  0.3500
 8510WAT      O35844   2.143   7.609   7.601 -0.3992  0.3118  0.7696
 8510WAT     H135845   2.235   7.585   7.590 -0.9819 -3.1448  2.1841
 8510WAT     H235846   2.136   7.637   7.693 -1.0426 -1.3716  1.2676
 8510WAT    EPW35847   2.154   7.610   7.612 -0.5610 -0.3662  1.0216
 8511WAT      O35848  -0.109   3.509   2.218  0.6240 -0.0137 -0.1012
 8511WAT     H135849  -0.153   3.483   2.299 -0.2915 -1.1467 -0.9099
 8511WAT     H235850  -0.018   3.522   2.243  0.3329 -0.2028  1.1395
 8511WAT    EPW35851  -0.103   3.507   2.232  0.4649 -0.1881 -0.0443
 8512WAT      O35852   1.892   8.706   0.659 -0.6069  0.1052  0.1599
 8512WAT     H135853   1.823   8.765   0.689 -1.2818 -0.3784 -0.4077
 8512WAT     H235854   1.963   8.764   0.632 -0.8103  0.6098  0.6807
 8512WAT    EPW35855   1.892   8.721   0.660 -0.7227  0.1078  0.1538
 8513WAT      O35856   5.440   4.479   0.969  0.0396 -0.3694 -0.3427
 8513WAT     H135857   5.525   4.453   0.934 -0.5000 -0.0326 -1.9955
 8513WAT     H235858   5.445   4.457   1.062  1.5633 -1.2709 -0.5946
 8513WAT    EPW35859   5.452   4.473   0.977  0.1693 -0.4439 -0.5939
 8514WAT      O35860  -1.046   4.432   5.688  0.3686 -0.0967 -0.6529
 8514WAT     H135861  -1.103   4.437   5.612  0.1522  1.0096 -0.4236
 8514WAT     H235862  -1.047   4.339   5.712  1.0408 -0.6069 -2.4370
 8514WAT    EPW35863  -1.054   4.420   5.681  0.4287 -0.0181 -0.8578
 8515WAT      O35864   2.745   4.144   5.489  0.0502  0.3222  0.4880
 8515WAT     H135865   2.690   4.198   5.546 -2.9248  0.0832 -1.8607
 8515WAT     H235866   2.718   4.169   5.400  2.8631 -0.8713 -0.8233
 8515WAT    EPW35867   2.734   4.155   5.485  0.0288  0.1333  0.0052
 8516WAT      O35868  -1.836   4.448   1.365  0.0332 -0.4616  0.5144
 8516WAT     H135869  -1.834   4.374   1.425 -0.6006 -0.9102 -0.0069
 8516WAT     H235870  -1.789   4.418   1.288 -1.2997 -0.7873 -0.2014
 8516WAT    EPW35871  -1.830   4.435   1.363 -0.2262 -0.5636  0.3513
 8517WAT      O35872   0.666   5.894   3.188  0.0117  0.3511 -0.1369
 8517WAT     H135873   0.677   5.812   3.141  1.6492  0.9387 -0.8490
 8517WAT     H235874   0.674   5.962   3.121  0.6331  1.1475  0.7111
 8517WAT    EPW35875   0.669   5.892   3.173  0.3096  0.5336 -0.1190
 8518WAT      O35876   1.702   3.673   1.097 -0.4593  0.1436  0.2405
 8518WAT     H135877   1.642   3.730   1.146 -0.9165 -0.5280  0.4739
 8518WAT     H235878   1.777   3.661   1.156 -1.3448 -1.2876  1.1320
 8518WAT    EPW35879   1.704   3.679   1.111 -0.6364 -0.1338  0.3889
 8519WAT      O35880  -1.333   0.033   3.999  0.0615  0.1448  0.5715
 8519WAT     H135881  -1.392  -0.043   3.998  2.7306 -2.0692  1.1781
 8519WAT     H235882  -1.370   0.091   4.066 -1.2792 -1.2853  1.1305
 8519WAT    EPW35883  -1.346   0.031   4.008  0.2367 -0.3362  0.7250
 8520WAT      O35884   8.108   0.816   4.164 -0.0098  0.1130  0.3189
 8520WAT     H135885   8.039   0.792   4.103  0.5353 -3.5709  0.9396
 8520WAT     H235886   8.188   0.811   4.113  0.1463  0.6380  0.5035
 8520WAT    EPW35887   8.109   0.812   4.149  0.0830 -0.3037  0.4253
 8521WAT      O35888   2.495   3.479   1.161  0.2356 -0.1753  0.4950
 8521WAT     H135889   2.501   3.388   1.190  1.5570  0.1098  1.1569
 8521WAT     H235890   2.585   3.512   1.166 -0.6175  2.1021  3.2991
 8521WAT    EPW35891   2.508   3.471   1.165  0.2973  0.1627  0.9521
 8522WAT      O35892   2.075   1.449   7.035  0.1781  0.2198  0.2542
 8522WAT     H135893   2.115   1.534   7.015 -0.1167  0.0388 -1.2665
 8522WAT     H235894   2.081   1.400   6.952 -0.1050 -1.0586  0.9653
 8522WAT    EPW35895   2.081   1.454   7.021  0.1019  0.0274  0.1476
 8523WAT      O35896   6.629   4.205   3.111 -0.2842  0.0727  0.2993
 8523WAT     H135897   6.650   4.279   3.054 -1.3904  0.2023  0.0179
 8523WAT     H235898   6.543   4.227   3.147 -0.2113 -0.6497  0.9413
 8523WAT    EPW35899   6.620   4.217   3.108 -0.4206 -0.0055  0.3468
 8524WAT      O35900  -3.987  10.274   3.562 -0.1771 -0.6599  0.1504
 8524WAT     H135901  -3.972  10.368   3.554  0.1900 -0.7664 -0.5342
 8524WAT     H235902  -3.907  10.239   3.600  0.5754 -0.9575 -1.5917
 8524WAT    EPW35903  -3.975  10.281   3.566 -0.0294 -0.7129 -0.1696
 8525WAT      O35904   0.007  10.023   4.757 -0.2713 -0.3367  0.5727
 8525WAT     H135905   0.069  10.028   4.830 -1.8053  0.7383  1.8740
 8525WAT     H235906   0.050   9.967   4.693  1.3029 -1.0010  2.1294
 8525WAT    EPW35907   0.021  10.016   4.758 -0.2660 -0.2832  0.9496
 8526WAT      O35908  -6.786   5.714   8.647 -0.3171 -0.5468  0.2440
 8526WAT     H135909  -6.789   5.732   8.741  0.6416 -1.0531  0.3847
 8526WAT     H235910  -6.793   5.619   8.641 -1.6968 -0.4476 -0.2910
 8526WAT    EPW35911  -6.788   5.704   8.659 -0.3726 -0.6006  0.1917
 8527WAT      O35912   6.149   7.232   1.617 -0.7074 -0.6133  0.9514
 8527WAT     H135913   6.117   7.322   1.622 -0.6860 -0.5726  0.4180
 8527WAT     H235914   6.160   7.206   1.708  1.9866  0.8852  1.1393
 8527WAT    EPW35915   6.146   7.241   1.630 -0.3493 -0.4101  0.9059
 8528WAT      O35916  -1.415   4.353   2.858 -0.4382  0.4219  0.5415
 8528WAT     H135917  -1.463   4.420   2.810 -0.7262 -1.6134 -2.2619
 8528WAT     H235918  -1.475   4.279   2.862  0.6219 -0.4126  1.6528
 8528WAT    EPW35919  -1.429   4.352   2.852 -0.3363  0.0434  0.3184
 8529WAT      O35920  -1.523   4.408   3.505  0.6884 -0.0698 -0.5770
 8529WAT     H135921  -1.436   4.411   3.465  0.3167 -0.2785 -1.4293
 8529WAT     H235922  -1.518   4.470   3.577  1.7079 -0.4742 -0.2712
 8529WAT    EPW35923  -1.511   4.417   3.509  0.7739 -0.1507 -0.6491
 8530WAT      O35924   4.094   1.011   1.687  0.0629 -0.4177 -0.1062
 8530WAT     H135925   4.010   1.057   1.693  0.7004  0.6880  0.5072
 8530WAT     H235926   4.100   0.961   1.768 -0.0861 -0.6713 -0.2474
 8530WAT    EPW35927   4.084   1.010   1.698  0.1273 -0.3053 -0.0439
 8531WAT      O35928  -0.812   2.171   7.694 -0.2281 -0.4621  0.4280
 8531WAT     H135929  -0.782   2.258   7.723 -0.5216 -0.2027 -0.0302
 8531WAT     H235930  -0.758   2.110   7.744 -0.0189 -0.0170  0.7643
 8531WAT    EPW35931  -0.801   2.175   7.704 -0.2392 -0.3693  0.4120
 8532WAT      O35932   1.449   1.085   1.558  0.5442 -0.4248  0.0053
 8532WAT     H135933   1.454   1.167   1.608  1.0582 -0.3130 -0.2213
 8532WAT     H235934   1.356   1.064   1.556  0.5152 -0.4492  1.0379
 8532WAT    EPW35935   1.437   1.093   1.564  0.6081 -0.4133  0.1116
 8533WAT      O35936  -1.647   5.409   2.652 -0.0335  0.2335 -0.1545
 8533WAT     H135937  -1.652   5.441   2.562  0.8706  1.3438  0.1624
 8533WAT     H235938  -1.738   5.389   2.675 -0.0853 -1.8532 -1.9029
 8533WAT    EPW35939  -1.660   5.411   2.643  0.0789  0.1047 -0.3433
 8534WAT      O35940   0.926   5.324   0.598  0.1982 -0.2382  0.0080
 8534WAT     H135941   0.846   5.373   0.618  1.2307  1.3896  0.3247
 8534WAT     H235942   0.941   5.339   0.505 -0.8618 -2.1504 -0.5361
 8534WAT    EPW35943   0.917   5.332   0.588  0.1945 -0.2759 -0.0220
 8535WAT      O35944   4.108   5.266   0.729  0.0656 -0.1789 -0.2903
 8535WAT     H135945   4.062   5.194   0.771 -1.6868  0.3048 -1.3172
 8535WAT     H235946   4.100   5.249   0.636 -0.3965  1.3311 -0.5501
 8535WAT    EPW35947   4.101   5.254   0.722 -0.2263  0.0839 -0.4600
 8536WAT      O35948  -0.803   8.322   3.913  0.0400 -0.5535 -0.3103
 8536WAT     H135949  -0.740   8.283   3.852  1.3719 -0.2926  0.8693
 8536WAT     H235950  -0.804   8.262   3.988 -0.0362  0.1835  0.2870
 8536WAT    EPW35951  -0.795   8.309   3.915  0.2057 -0.4220 -0.0758
 8537WAT      O35952  -1.073   6.085   4.274  0.7160  0.1839 -0.1089
 8537WAT     H135953  -1.033   6.145   4.337 -0.6249 -1.4247  2.4653
 8537WAT     H235954  -1.116   6.142   4.211  2.0507  1.8922  0.4539
 8537WAT    EPW35955  -1.074   6.100   4.274  0.7152  0.1972  0.3047
 8538WAT      O35956  -0.615   4.371   1.983  0.0823  0.0074 -0.4530
 8538WAT     H135957  -0.655   4.441   2.036 -0.4766  0.4107 -1.3846
 8538WAT     H235958  -0.636   4.291   2.031 -1.5158  0.2427 -0.6886
 8538WAT    EPW35959  -0.623   4.370   1.996 -0.2022  0.0918 -0.6070
 8539WAT      O35960  -1.987   6.541   2.404 -0.5537 -0.2755 -0.4582
 8539WAT     H135961  -1.932   6.507   2.333  0.6466  0.8017 -0.0779
 8539WAT     H235962  -1.991   6.635   2.388 -0.9152 -0.1227  0.4701
 8539WAT    EPW35963  -1.981   6.548   2.393 -0.4430 -0.1135 -0.2856
 8540WAT      O35964   0.269   9.666   6.516 -0.6023 -0.2839  0.0148
 8540WAT     H135965   0.252   9.590   6.460 -0.2022  1.9395 -3.4463
 8540WAT     H235966   0.196   9.726   6.499  1.5684  2.1527 -1.4906
 8540WAT    EPW35967   0.257   9.664   6.506 -0.2633  0.3309 -0.6402
 8541WAT      O35968  -0.082   9.452   8.763  0.0233  0.2485 -0.5517
 8541WAT     H135969  -0.120   9.452   8.675  1.2301  1.1516 -1.1064
 8541WAT     H235970  -0.135   9.515   8.812  2.1036  3.3545 -1.9911
 8541WAT    EPW35971  -0.094   9.461   8.758  0.4568  0.7777 -0.8144
 8542WAT      O35972  -2.493   2.120   5.713 -0.1804 -0.0280  0.0424
 8542WAT     H135973  -2.504   2.041   5.767 -2.2982  0.1364 -0.0555
 8542WAT     H235974  -2.509   2.192   5.774  0.1206  0.2714 -0.2334
 8542WAT    EPW35975  -2.496   2.119   5.728 -0.4200  0.0333 -0.0069
 8543WAT      O35976  -0.619   1.155   2.268 -0.0969  0.1303 -0.1092
 8543WAT     H135977  -0.543   1.118   2.314  1.7076 -0.3415 -3.1632
 8543WAT     H235978  -0.685   1.086   2.272 -1.1503  1.1135  3.9188
 8543WAT    EPW35979  -0.617   1.141   2.275  0.0022  0.1978  0.0192
 8544WAT      O35980  -4.654   3.805   6.918 -0.7477  0.2640  0.2964
 8544WAT     H135981  -4.625   3.818   6.828 -0.1520  1.5720  0.6520
 8544WAT     H235982  -4.572   3.798   6.968 -1.0579  0.6963  0.8788
 8544WAT    EPW35983  -4.639   3.806   6.913 -0.7100  0.4936  0.4201
 8545WAT      O35984   6.908   3.092   1.850 -0.3945  0.5355 -1.4741
 8545WAT     H135985   6.971   3.038   1.897 -0.1532  1.2435 -0.9751
 8545WAT     H235986   6.899   3.171   1.903 -2.2144  0.1774 -1.1711
 8545WAT    EPW35987   6.915   3.095   1.863 -0.6030  0.5816 -1.3683
 8546WAT      O35988   3.480   4.892   4.807 -0.0166 -0.4948 -0.5653
 8546WAT     H135989   3.457   4.838   4.883  0.3776 -2.7282 -1.9704
 8546WAT     H235990   3.442   4.847   4.733  1.6306  0.3491 -1.9921
 8546WAT    EPW35991   3.472   4.879   4.808  0.2526 -0.6781 -0.9387
 8547WAT      O35992  -1.819   5.201   1.802  0.7072  0.5110 -0.3540
 8547WAT     H135993  -1.729   5.179   1.781  1.0953  1.4200  0.2952
 8547WAT     H235994  -1.832   5.168   1.891  0.5555  0.8218 -0.2605
 8547WAT    EPW35995  -1.809   5.194   1.811  0.7383  0.6721 -0.2560
 8548WAT      O35996   1.214   3.227   1.108  0.3647 -0.3460  0.1746
 8548WAT     H135997   1.128   3.188   1.091 -0.0091  0.6598 -0.2998
 8548WAT     H235998   1.251   3.241   1.021  0.0968  1.2024  0.2820
 8548WAT    EPW35999   1.208   3.224   1.094  0.2800 -0.0091  0.1262
 8549WAT      O36000  -5.810   3.765   8.093  0.8243 -0.3557 -0.1526
 8549WAT     H136001  -5.722   3.800   8.109  0.1882  0.8726  0.8411
 8549WAT     H236002  -5.798   3.701   8.023  2.4657 -0.0330 -0.2050
 8549WAT    EPW36003  -5.797   3.761   8.086  0.9570 -0.1510 -0.0286
 8550WAT      O36004   0.934   3.216   1.028 -0.5216 -0.0386  0.7490
 8550WAT     H136005   0.949   3.129   0.992 -2.0384  0.2833 -0.7888
 8550WAT     H236006   0.839   3.224   1.034 -0.4176  1.5152  0.8107
 8550WAT    EPW36007   0.924   3.206   1.024 -0.7080  0.2089  0.5543
 8551WAT      O36008   1.752   9.694   5.361  0.2550  0.0848  0.4576
 8551WAT     H136009   1.715   9.782   5.352  3.4822  1.3998 -1.5668
 8551WAT     H236010   1.846   9.706   5.349  1.0683 -3.4347  2.0965
 8551WAT    EPW36011   1.759   9.707   5.358  0.7880 -0.2060  0.4067
 8552WAT      O36012   6.423   0.989   1.748 -0.1193  0.3650 -0.3717
 8552WAT     H136013   6.370   0.985   1.827  0.1035 -0.4639 -0.2462
 8552WAT     H236014   6.365   0.955   1.679  0.8959 -2.8140  0.1716
 8552WAT    EPW36015   6.409   0.984   1.749  0.0439 -0.1636 -0.2835
 8553WAT      O36016   3.355  10.191   3.407 -0.4095 -0.8354  0.4705
 8553WAT     H136017   3.416  10.221   3.475  0.3154 -0.9690 -0.1085
 8553WAT     H236018   3.333  10.101   3.431  0.4039 -1.1256  0.1523
 8553WAT    EPW36019   3.360  10.183   3.419 -0.2066 -0.8912  0.3521
 8554WAT      O36020  -1.329   0.108   3.729  0.6045 -0.1490 -0.7666
 8554WAT     H136021  -1.245   0.125   3.687  0.7865  1.2250  0.0732
 8554WAT     H236022  -1.308   0.091   3.820  0.1090 -1.7675 -0.9264
 8554WAT    EPW36023  -1.315   0.108   3.735  0.5632 -0.1813 -0.6769
 8555WAT      O36024   0.598   2.055   1.497  0.5689  0.0271 -0.1556
 8555WAT     H136025   0.583   2.141   1.537 -1.2100 -0.0271 -0.6381
 8555WAT     H236026   0.679   2.065   1.448  0.7567  1.2152  0.3737
 8555WAT    EPW36027   0.607   2.068   1.496  0.3590  0.1767 -0.1494
 8556WAT      O36028   1.206   9.206   5.947 -0.4995  0.5846  0.5056
 8556WAT     H136029   1.225   9.225   6.039 -1.5685 -1.3467  1.1971
 8556WAT     H236030   1.228   9.113   5.938  0.3025  0.9261 -1.4211
 8556WAT    EPW36031   1.212   9.196   5.958 -0.5347  0.3748  0.3426
 8557WAT      O36032  -1.792   9.810   4.797  0.2988 -0.5347  0.0262
 8557WAT     H136033  -1.772   9.898   4.767  1.1257 -1.1202 -1.2424
 8557WAT     H236034  -1.725   9.791   4.862 -0.1684 -0.0681  0.6557
 8557WAT    EPW36035  -1.781   9.819   4.802  0.3463 -0.5507 -0.0582
 8558WAT      O36036  -1.966   2.806   7.151 -0.3526 -0.2897  0.6756
 8558WAT     H136037  -2.057   2.794   7.178 -0.6268 -0.9500 -0.4344
 8558WAT     H236038  -1.970   2.812   7.055  0.7088  0.3412  0.6519
 8558WAT    EPW36039  -1.978   2.805   7.142 -0.2488 -0.2936  0.5262
 8559WAT      O36040  -4.781   9.292   3.042  0.3985  0.6119  0.2116
 8559WAT     H136041  -4.799   9.293   2.948 -0.8389  2.2893  0.4109
 8559WAT     H236042  -4.835   9.220   3.075 -0.5802  1.1702 -0.1368
 8559WAT    EPW36043  -4.791   9.283   3.034  0.1061  0.9069  0.1919
 8560WAT      O36044  -0.258   5.731   3.142  0.1398  0.1469 -0.6101
 8560WAT     H136045  -0.186   5.672   3.166  1.1715  1.3983 -0.5388
 8560WAT     H236046  -0.262   5.726   3.047 -0.6847 -1.0319 -0.5479
 8560WAT    EPW36047  -0.249   5.722   3.133  0.1671  0.1564 -0.5925
 8561WAT      O36048  -1.190   1.054   1.466  0.4641  0.0263  0.3381
 8561WAT     H136049  -1.130   1.063   1.391  0.8733 -1.4277  0.4505
 8561WAT     H236050  -1.274   1.034   1.426  0.8157 -1.3904  0.2426
 8561WAT    EPW36051  -1.193   1.052   1.451  0.5644 -0.3523  0.3403
 8562WAT      O36052   4.949   5.517   6.049  0.2421 -0.0078  0.2484
 8562WAT     H136053   4.953   5.500   5.955  2.0314  0.1453  0.2614
 8562WAT     H236054   4.995   5.600   6.060  0.0805 -0.0466  1.2648
 8562WAT    EPW36055   4.956   5.526   6.038  0.4570  0.0072  0.3843
 8563WAT      O36056   0.210   0.702   0.350  0.4410 -0.7977  0.1252
 8563WAT     H136057   0.288   0.646   0.353  0.5264 -1.0019 -2.7766
 8563WAT     H236058   0.138   0.644   0.375  0.7112 -1.9137 -1.5040
 8563WAT    EPW36059   0.211   0.687   0.353  0.4879 -0.9718 -0.4724
 8564WAT      O36060  -6.713   9.472   8.343  0.5195  0.1911  0.2633
 8564WAT     H136061  -6.784   9.518   8.299 -0.5320 -0.3767  1.3152
 8564WAT     H236062  -6.650   9.541   8.365 -0.4021  0.9449  0.6313
 8564WAT    EPW36063  -6.714   9.487   8.340  0.2594  0.2155  0.4506
 8565WAT      O36064  -5.397   4.241   8.014 -0.4807  0.6071 -0.0057
 8565WAT     H136065  -5.395   4.223   7.920 -3.1110 -0.6643  0.0982
 8565WAT     H236066  -5.332   4.310   8.026 -0.0842  0.8333 -2.7543
 8565WAT    EPW36067  -5.388   4.248   8.003 -0.7753  0.4694 -0.3548
 8566WAT      O36068   4.419  10.216   4.409 -0.1238 -0.4208  0.4757
 8566WAT     H136069   4.356  10.181   4.346  0.4282 -0.0568 -0.2919
 8566WAT     H236070   4.443  10.140   4.463  1.5331 -1.4179 -1.5614
 8566WAT    EPW36071   4.414  10.201   4.408  0.1674 -0.5040  0.1059
 8567WAT      O36072  -1.446   1.198   6.284 -0.1879  0.1703  0.4656
 8567WAT     H136073  -1.439   1.107   6.314  1.4779  0.2382  0.3778
 8567WAT     H236074  -1.369   1.211   6.228 -0.2389  1.7203  0.7036
 8567WAT    EPW36075  -1.435   1.188   6.281  0.0251  0.3837  0.4852
 8568WAT      O36076  -2.217   9.565   3.018  0.1145 -0.3002 -0.0176
 8568WAT     H136077  -2.168   9.613   2.951  1.6968  0.1662  1.4349
 8568WAT     H236078  -2.232   9.629   3.087  0.1804 -1.2893  0.9243
 8568WAT    EPW36079  -2.213   9.579   3.018  0.3318 -0.3691  0.2983
 8569WAT      O36080  -2.099   6.449   7.966  0.3504 -0.5634  0.0533
 8569WAT     H136081  -2.138   6.413   8.046  2.9576  1.7192  2.6193
 8569WAT     H236082  -2.059   6.531   7.995  2.1722 -0.0450 -3.4656
 8569WAT    EPW36083  -2.099   6.455   7.981  0.9346 -0.1941 -0.0722
 8570WAT      O36084   3.842   6.780   4.115  0.4263  0.0055  0.0078
 8570WAT     H136085   3.817   6.858   4.066  0.9871 -1.3303 -2.5791
 8570WAT     H236086   3.772   6.718   4.098  2.1897 -1.5850 -1.9354
 8570WAT    EPW36087   3.830   6.782   4.106  0.7329 -0.3805 -0.5898
 8571WAT      O36088   3.940   7.390   4.821  0.2498  0.6031 -0.3118
 8571WAT     H136089   3.871   7.335   4.784 -0.1145 -0.8171  2.2662
 8571WAT     H236090   4.017   7.334   4.823  1.3159  1.8723 -2.2443
 8571WAT    EPW36091   3.941   7.375   4.816  0.3424  0.5832 -0.2267
 8572WAT      O36092  -0.719   3.781   7.496 -0.2280 -0.1087  0.1073
 8572WAT     H136093  -0.798   3.821   7.534 -0.6610 -1.2376  0.4345
 8572WAT     H236094  -0.655   3.783   7.567  0.8449  2.8467 -0.8004
 8572WAT    EPW36095  -0.721   3.787   7.510 -0.1436  0.1322  0.0305
 8573WAT      O36096  -2.034   6.518   7.536 -0.1153 -0.0840  0.3707
 8573WAT     H136097  -2.016   6.453   7.604 -0.9121  1.4381  2.1392
 8573WAT     H236098  -1.981   6.594   7.561 -2.0077  1.2607  0.5929
 8573WAT    EPW36099  -2.025   6.520   7.549 -0.4700  0.2940  0.6332
 8574WAT      O36100   4.882   1.831   4.323 -0.1087  0.1166 -0.3013
 8574WAT     H136101   4.927   1.853   4.404 -2.0037  2.7828  0.1714
 8574WAT     H236102   4.952   1.807   4.262  1.4451 -0.8215  1.7305
 8574WAT    EPW36103   4.897   1.831   4.326 -0.1538  0.3445  0.0291
 8575WAT      O36104   1.161   0.355   6.945 -0.1189  0.4567 -0.3235
 8575WAT     H136105   1.150   0.444   6.911  2.2065  0.4960 -1.1125
 8575WAT     H236106   1.217   0.312   6.881  1.3807 -0.6147  1.6229
 8575WAT    EPW36107   1.167   0.361   6.932  0.3856  0.3205 -0.1709
 8576WAT      O36108   1.772   8.205   2.896 -0.0423  0.8453  0.5401
 8576WAT     H136109   1.852   8.235   2.852  0.0953  1.6702  1.3129
 8576WAT     H236110   1.791   8.115   2.920  0.6807  1.0444  0.7587
 8576WAT    EPW36111   1.785   8.197   2.893  0.0712  0.9804  0.6709
 8577WAT      O36112   0.465   4.566   7.110  0.4470  0.2177  0.0809
 8577WAT     H136113   0.510   4.642   7.146  0.5806  0.3082 -0.2675
 8577WAT     H236114   0.386   4.558   7.162 -0.1010  1.2377 -0.5606
 8577WAT    EPW36115   0.461   4.575   7.122  0.3924  0.3643 -0.0496
 8578WAT      O36116  -3.739  10.160   7.903 -0.0409 -0.0704  0.4094
 8578WAT     H136117  -3.750  10.084   7.847 -0.8628 -0.9763  1.7247
 8578WAT     H236118  -3.704  10.125   7.985 -2.6193  0.5256  1.8917
 8578WAT    EPW36119  -3.736  10.146   7.907 -0.4894 -0.1111  0.7784
 8579WAT      O36120   6.474   4.809   2.814 -0.8358 -1.1007  0.0479
 8579WAT     H136121   6.562   4.793   2.849  0.7829  0.1000 -2.9978
 8579WAT     H236122   6.461   4.903   2.825 -0.9495 -0.9724 -1.0393
 8579WAT    EPW36123   6.484   4.819   2.820 -0.6373 -0.9255 -0.4972
 8580WAT      O36124   1.589   8.546   1.757 -0.2478 -0.1646  0.0077
 8580WAT     H136125   1.672   8.566   1.715 -0.4601  0.8605  0.0586
 8580WAT     H236126   1.531   8.522   1.685  0.2728 -1.6133  0.0359
 8580WAT    EPW36127   1.592   8.545   1.742 -0.2071 -0.2208  0.0181
 8581WAT      O36128   8.178   3.537   1.181  0.0511  0.1924 -0.2983
 8581WAT     H136129   8.248   3.516   1.243 -1.7881 -0.2270  1.7761
 8581WAT     H236130   8.141   3.619   1.214 -1.6786 -0.6098 -0.1263
 8581WAT    EPW36131   8.182   3.545   1.194 -0.4196  0.0312 -0.0020
 8582WAT      O36132  -0.912   4.096   2.556  0.6594  0.2292  0.1887
 8582WAT     H136133  -0.900   4.169   2.616  3.9658  0.0209 -0.0475
 8582WAT     H236134  -0.896   4.133   2.469 -1.5499 -0.0163 -0.3758
 8582WAT    EPW36135  -0.908   4.110   2.552  0.8041  0.1693  0.0831
 8583WAT      O36136  -2.602   9.997   4.502 -0.0733 -0.2284 -0.1407
 8583WAT     H136137  -2.606  10.077   4.449  0.1940 -2.3403 -3.6377
 8583WAT     H236138  -2.684   9.952   4.482  1.0438 -2.1438 -0.6138
 8583WAT    EPW36139  -2.614  10.002   4.492  0.1093 -0.7591 -0.6642
 8584WAT      O36140  -2.500   8.292   6.532  0.3321 -0.2988  0.1520
 8584WAT     H136141  -2.479   8.227   6.600  1.8224  0.6848  0.6820
 8584WAT     H236142  -2.540   8.240   6.462  3.0685 -2.1263 -0.2072
 8584WAT    EPW36143  -2.503   8.276   6.532  0.8897 -0.4101  0.1743
 8585WAT      O36144   3.804   1.712   6.601  0.1335 -0.8061  0.0238
 8585WAT     H136145   3.722   1.755   6.576 -0.0684 -1.6714 -0.8458
 8585WAT     H236146   3.814   1.640   6.539  3.0582  0.9942 -1.8306
 8585WAT    EPW36147   3.794   1.708   6.590  0.4926 -0.6828 -0.3355
 8586WAT      O36148  -0.633   6.951   4.445 -0.4084  0.8250 -0.0397
 8586WAT     H136149  -0.680   7.034   4.455 -0.6463  0.8311 -1.0225
 8586WAT     H236150  -0.589   6.959   4.360  2.7187  1.4558  1.4894
 8586WAT    EPW36151  -0.634   6.963   4.435 -0.0273  0.9091  0.0322
 8587WAT      O36152   3.391   6.204   6.554  0.4809 -0.6813 -0.2229
 8587WAT     H136153   3.479   6.214   6.590  1.4466 -0.4404 -2.4533
 8587WAT     H236154   3.382   6.109   6.541 -0.4510 -0.9392  1.8330
 8587WAT    EPW36155   3.401   6.193   6.557  0.4853 -0.6833 -0.2460
 8588WAT      O36156   8.446   3.941   1.610 -0.5697 -0.3660 -0.2023
 8588WAT     H136157   8.384   3.941   1.537  1.4712  1.1661 -2.1092
 8588WAT     H236158   8.480   4.031   1.611  0.2829 -0.6626  1.9492
 8588WAT    EPW36159   8.443   3.953   1.600 -0.1879 -0.2030 -0.1701
 8589WAT      O36160  -3.729   7.046   3.650  0.2277  0.2536  0.3817
 8589WAT     H136161  -3.787   7.051   3.574  0.9679 -3.1234 -0.5381
 8589WAT     H236162  -3.777   6.991   3.713  0.9980  0.2959  1.0195
 8589WAT    EPW36163  -3.743   7.040   3.648  0.4269 -0.1862  0.3445
 8590WAT      O36164   8.385   2.539   1.821  0.0193  0.3147  0.2277
 8590WAT     H136165   8.332   2.610   1.782  2.0412  1.0258 -1.4638
 8590WAT     H236166   8.458   2.528   1.759  0.9540 -1.7495  1.6002
 8590WAT    EPW36167   8.388   2.547   1.807  0.4091  0.1363  0.1856
 8591WAT      O36168  -0.076   7.121   7.867  0.0580  0.2512  0.2160
 8591WAT     H136169  -0.024   7.201   7.871 -0.7844  0.8403 -0.2079
 8591WAT     H236170  -0.167   7.152   7.858 -0.2443 -0.7482 -0.3383
 8591WAT    EPW36171  -0.081   7.135   7.866 -0.0930  0.1972  0.0870
 8592WAT      O36172   4.266   6.806   3.674  0.2938 -0.3925  0.7598
 8592WAT     H136173   4.219   6.726   3.698 -1.2123  0.1588 -0.2601
 8592WAT     H236174   4.234   6.828   3.587  1.0790  1.0407  0.8031
 8592WAT    EPW36175   4.256   6.798   3.666  0.1986 -0.1307  0.6310
 8593WAT      O36176  -1.298   4.786   6.701 -0.4589 -0.2204 -0.2650
 8593WAT     H136177  -1.303   4.693   6.681  1.7518 -0.0834 -1.7992
 8593WAT     H236178  -1.257   4.825   6.624  1.0961  1.6230  1.3793
 8593WAT    EPW36179  -1.294   4.779   6.688  0.0378  0.0408 -0.2503
 8594WAT      O36180  -1.731   2.691   5.133 -0.5001 -0.8265 -0.0845
 8594WAT     H136181  -1.772   2.628   5.191  3.6305 -2.0404  1.8676
 8594WAT     H236182  -1.695   2.639   5.062 -0.5280 -0.0958 -0.6512
 8594WAT    EPW36183  -1.732   2.676   5.131  0.0411 -0.8903  0.0982
 8595WAT      O36184   4.428   8.421   0.816  0.0698  0.2298 -0.1005
 8595WAT     H136185   4.405   8.363   0.889  1.5936  0.4380  0.6043
 8595WAT     H236186   4.371   8.497   0.827  0.4453  0.3719  1.0503
 8595WAT    EPW36187   4.418   8.423   0.827  0.3202  0.2756  0.1442
 8596WAT      O36188  -2.535   9.822   0.097  0.0599  0.6343 -0.3575
 8596WAT     H136189  -2.553   9.730   0.117  0.7617  0.0818 -2.1383
 8596WAT     H236190  -2.460   9.820   0.037 -0.3561  2.3180 -0.9918
 8596WAT    EPW36191  -2.528   9.809   0.092  0.0976  0.7834 -0.6760
 8597WAT      O36192   3.817   2.068   4.930  0.5139 -0.8555  0.0565
 8597WAT     H136193   3.821   2.060   5.026  0.2260  0.3515  0.1849
 8597WAT     H236194   3.784   2.156   4.915  0.2834 -1.1346 -1.1655
 8597WAT    EPW36195   3.813   2.078   4.941  0.4455 -0.7331 -0.0877
 8598WAT      O36196  -0.552   2.306   5.523 -0.3570 -0.2579  0.0113
 8598WAT     H136197  -0.517   2.242   5.585 -0.5557 -1.3190 -0.9399
 8598WAT     H236198  -0.514   2.389   5.551 -0.4082 -0.7107  1.5170
 8598WAT    EPW36199  -0.542   2.308   5.535 -0.3900 -0.4576  0.0844
 8599WAT      O36200   5.210   4.273   6.360 -0.0778  0.0038  0.0908
 8599WAT     H136201   5.276   4.248   6.295 -1.3008  2.3895 -2.2754
 8599WAT     H236202   5.261   4.308   6.434  1.3369 -0.6906 -0.5243
 8599WAT    EPW36203   5.226   4.275   6.361 -0.0525  0.2270 -0.3026
 8600WAT      O36204   2.827   5.903   6.048 -0.2783 -0.5188  0.7278
 8600WAT     H136205   2.797   5.813   6.038  0.9366 -1.0379  1.5300
 8600WAT     H236206   2.752   5.951   6.082 -1.2497 -0.9838 -0.6724
 8600WAT    EPW36207   2.813   5.898   6.051 -0.2460 -0.6485  0.6487
 8601WAT      O36208   0.244   6.391   8.183  0.6641  0.7664 -0.4394
 8601WAT     H136209   0.268   6.299   8.175  1.7176  0.7720  1.7980
 8601WAT     H236210   0.192   6.410   8.105  0.4896 -1.6876 -0.9792
 8601WAT    EPW36211   0.241   6.382   8.172  0.7800  0.4435 -0.2151
 8602WAT      O36212  -3.106   5.905   2.632  0.4513  0.2433 -0.3232
 8602WAT     H136213  -3.022   5.858   2.626 -0.3322 -1.4430  1.1046
 8602WAT     H236214  -3.127   5.904   2.726 -1.6116 -0.2140 -0.7487
 8602WAT    EPW36215  -3.097   5.899   2.644  0.0759 -0.0393 -0.1910
 8603WAT      O36216   0.781   9.797   3.203 -0.1592  0.1392  0.8410
 8603WAT     H136217   0.797   9.866   3.267  3.1062  1.4504 -1.1236
 8603WAT     H236218   0.858   9.741   3.208  1.2800  1.4208 -3.0943
 8603WAT    EPW36219   0.793   9.799   3.212  0.4613  0.4816  0.0628
 8604WAT      O36220   3.391   3.779   0.896 -0.7271  0.1377 -0.1193
 8604WAT     H136221   3.466   3.838   0.898 -1.5575  1.2677 -1.0611
 8604WAT     H236222   3.316   3.836   0.910 -1.5597 -0.6486 -1.2421
 8604WAT    EPW36223   3.391   3.794   0.898 -0.9463  0.1831 -0.3916
 8605WAT      O36224   7.386   6.606   1.682 -0.7534  0.5405  0.0795
 8605WAT     H136225   7.410   6.514   1.679 -0.7912  0.5612 -2.2442
 8605WAT     H236226   7.470   6.653   1.690 -0.1695  0.4189 -3.5238
 8605WAT    EPW36227   7.400   6.600   1.683 -0.6814  0.5271 -0.7023
 8606WAT      O36228  -1.688   0.059   8.514 -0.1145  0.1940 -0.3922
 8606WAT     H136229  -1.596   0.068   8.488 -0.3715 -2.2660 -2.5985
 8606WAT     H236230  -1.734   0.125   8.463  0.1933 -0.0354 -0.9801
 8606WAT    EPW36231  -1.682   0.069   8.504 -0.1078 -0.1607 -0.7610
 8607WAT      O36232  -0.118   9.125   8.288 -1.3497  0.3489 -0.9721
 8607WAT     H136233  -0.118   9.035   8.255 -3.2239  0.4250 -1.3029
 8607WAT     H236234  -0.206   9.157   8.268 -0.9562  2.0098 -0.1728
 8607WAT    EPW36235  -0.130   9.117   8.281 -1.5450  0.5784 -0.9098
 8608WAT      O36236  -2.106   0.575   8.230 -0.1793  0.2532  0.4729
 8608WAT     H136237  -2.082   0.535   8.314 -0.4739 -0.3540  0.2773
 8608WAT     H236238  -2.113   0.501   8.170 -1.5376  0.5059  0.2892
 8608WAT    EPW36239  -2.104   0.560   8.233 -0.3973  0.2064  0.4225
 8609WAT      O36240  -1.204   4.860   7.745 -0.1431  0.4612 -0.0942
 8609WAT     H136241  -1.255   4.780   7.731 -0.3642  0.8324 -1.6401
 8609WAT     H236242  -1.207   4.905   7.660  0.5718  1.7659  0.5420
 8609WAT    EPW36243  -1.211   4.856   7.732 -0.0780  0.6824 -0.2143
 8610WAT      O36244   0.238   4.088   0.678  0.2558 -0.8133  0.8033
 8610WAT     H136245   0.289   4.087   0.597 -0.2967  1.0792  0.3863
 8610WAT     H236246   0.170   4.022   0.664 -0.7615  0.5207 -0.9510
 8610WAT    EPW36247   0.236   4.079   0.666  0.0487 -0.3877  0.5169
 8611WAT      O36248   1.822   4.722   4.078  0.3897  0.7255 -0.1195
 8611WAT     H136249   1.810   4.634   4.114  1.8889  0.6379  0.2403
 8611WAT     H236250   1.827   4.778   4.155 -1.5114  1.2944 -0.3673
 8611WAT    EPW36251   1.821   4.718   4.093  0.3366  0.7889 -0.1049
 8612WAT      O36252  -1.704   4.727   5.388 -0.4775 -0.8791 -0.2016
 8612WAT     H136253  -1.790   4.754   5.420  0.5051  0.5498  1.4580
 8612WAT     H236254  -1.692   4.777   5.307 -1.2016 -1.0869 -0.4460
 8612WAT    EPW36255  -1.714   4.737   5.382 -0.4434 -0.7179 -0.0150
 8613WAT      O36256   0.639   6.543   1.031  0.1930  0.3133  0.0482
 8613WAT     H136257   0.569   6.588   1.077  0.6141  0.0401  1.0038
 8613WAT     H236258   0.603   6.456   1.011  1.0153 -0.8359  2.8870
 8613WAT    EPW36259   0.625   6.537   1.035  0.3570  0.1256  0.5487
 8614WAT      O36260   4.538   8.278   3.065 -0.4954 -1.2611 -0.5690
 8614WAT     H136261   4.449   8.313   3.069 -0.2966 -0.8550  2.8889
 8614WAT     H236262   4.570   8.307   2.979 -2.2991  2.1907 -0.2627
 8614WAT    EPW36263   4.530   8.287   3.054 -0.7071 -0.7520 -0.0726
 8615WAT      O36264  -1.359   6.931   2.340  0.3695 -0.0037 -0.6307
 8615WAT     H136265  -1.398   6.985   2.410 -0.4158 -0.8932 -0.3684
 8615WAT     H236266  -1.381   6.841   2.364  0.2604 -0.3400 -1.9309
 8615WAT    EPW36267  -1.367   6.926   2.353  0.2515 -0.1655 -0.7676
 8616WAT      O36268  -1.877   9.487   3.090  0.4689 -0.0917  0.0225
 8616WAT     H136269  -1.798   9.467   3.140 -0.3227 -1.5246  0.7726
 8616WAT     H236270  -1.948   9.481   3.154 -0.3384  0.4589 -0.7837
 8616WAT    EPW36271  -1.876   9.484   3.105  0.2580 -0.2084  0.0151
 8617WAT      O36272   1.263   6.342   1.978  0.4247  0.7136  0.4218
 8617WAT     H136273   1.306   6.427   1.990 -1.6841  1.7479  1.4359
 8617WAT     H236274   1.268   6.301   2.065  0.6496  0.2020  0.1663
 8617WAT    EPW36275   1.269   6.348   1.991  0.1762  0.7825  0.5219
 8618WAT      O36276  -2.226   4.215   3.465 -0.7575  0.1001 -0.4367
 8618WAT     H136277  -2.138   4.205   3.431 -0.2587 -0.6324  0.9598
 8618WAT     H236278  -2.214   4.249   3.554 -1.9441  1.0926 -0.6256
 8618WAT    EPW36279  -2.213   4.218   3.472 -0.8483  0.1345 -0.2773
 8619WAT      O36280   5.199   4.124   0.327 -0.8334  0.1677 -0.0489
 8619WAT     H136281   5.117   4.119   0.278 -1.2626 -0.1233  0.6876
 8619WAT     H236282   5.267   4.109   0.261 -1.4122 -0.5368 -0.5041
 8619WAT    EPW36283   5.197   4.121   0.312 -0.9661  0.0365 -0.0118
 8620WAT      O36284   0.235   8.974   1.862  0.6715 -0.4775 -0.3045
 8620WAT     H136285   0.290   9.053   1.864  1.0302 -0.6891 -1.3147
 8620WAT     H236286   0.291   8.906   1.900  0.3012 -0.2186  0.7249
 8620WAT    EPW36287   0.250   8.975   1.867  0.6700 -0.4716 -0.3020
 8621WAT      O36288   0.590   5.166   8.718  0.0452  0.8034 -0.5338
 8621WAT     H136289   0.607   5.097   8.654  0.0962  0.3360 -0.0202
 8621WAT     H236290   0.499   5.192   8.703 -0.0167  0.5296 -0.6347
 8621WAT    EPW36291   0.581   5.160   8.708  0.0438  0.7055 -0.4792
 8622WAT      O36292   0.454   2.516   8.693  0.3750 -0.0512  0.1609
 8622WAT     H136293   0.407   2.487   8.772  1.5932 -1.6104  0.3710
 8622WAT     H236294   0.439   2.610   8.689 -0.9064 -0.1697  1.4535
 8622WAT    EPW36295   0.446   2.524   8.703  0.3667 -0.2724  0.3591
 8623WAT      O36296  -2.891   4.053   2.969 -0.0919 -0.0806 -0.3721
 8623WAT     H136297  -2.832   3.987   2.934 -1.4818 -1.3293 -0.4782
 8623WAT     H236298  -2.976   4.010   2.972 -0.8068  1.3091  0.7643
 8623WAT    EPW36299  -2.895   4.039   2.965 -0.3694 -0.0620 -0.2362
 8624WAT      O36300  -6.227   7.697   7.547 -0.0615 -0.0648  0.4893
 8624WAT     H136301  -6.177   7.716   7.627 -0.0352  0.3147  0.3830
 8624WAT     H236302  -6.162   7.662   7.486 -0.3316 -1.7653  1.1144
 8624WAT    EPW36303  -6.212   7.695   7.550 -0.0937 -0.2391  0.5577
 8625WAT      O36304  -3.547  10.304   4.242 -0.2502 -0.0565 -0.4026
 8625WAT     H136305  -3.595  10.223   4.260  0.5333 -0.5960 -0.6609
 8625WAT     H236306  -3.455  10.276   4.235  0.3729  1.2102  1.8923
 8625WAT    EPW36307  -3.541  10.290   4.243 -0.0647  0.0396 -0.1340
 8626WAT      O36308   8.444   4.525   0.571  0.0681  0.1151  0.2855
 8626WAT     H136309   8.383   4.598   0.583  0.3354  0.7168 -1.6695
 8626WAT     H236310   8.507   4.535   0.642  0.6548  2.3930 -0.4735
 8626WAT    EPW36311   8.444   4.536   0.582  0.1812  0.4950 -0.0725
 8627WAT      O36312   3.113   6.549   0.098 -0.5488  0.0508 -0.4641
 8627WAT     H136313   3.175   6.501   0.154 -0.2269  0.7134 -0.2289
 8627WAT     H236314   3.135   6.522   0.009 -0.1659 -0.0030 -0.3566
 8627WAT    EPW36315   3.124   6.539   0.094 -0.4559  0.1311 -0.4189
 8628WAT      O36316  -1.337   1.080   2.104  0.1035  0.4389 -0.5279
 8628WAT     H136317  -1.242   1.091   2.099  0.0508  1.2297 -0.0853
 8628WAT     H236318  -1.356   1.084   2.198 -0.4846  1.5408 -0.6790
 8628WAT    EPW36319  -1.327   1.082   2.116  0.0190  0.6886 -0.4896
 8629WAT      O36320   6.854   0.203   6.454  0.1324 -0.2833  0.3269
 8629WAT     H136321   6.851   0.258   6.532  0.6856 -1.7449  1.4166
 8629WAT     H236322   6.796   0.247   6.391 -1.8006 -0.0238  2.1882
 8629WAT    EPW36323   6.846   0.216   6.456 -0.0496 -0.4418  0.7162
 8630WAT      O36324   7.370   4.257   1.928  0.3989 -0.2833  0.5155
 8630WAT     H136325   7.292   4.207   1.906 -0.9905  2.1301 -0.4008
 8630WAT     H236326   7.342   4.317   1.997  2.3896 -1.6074  2.6491
 8630WAT    EPW36327   7.356   4.258   1.934  0.4783 -0.1395  0.6760
 8631WAT      O36328  -1.431   5.996   4.945 -0.4124 -0.4140 -0.4490
 8631WAT     H136329  -1.424   6.051   5.023  1.2946 -0.9874 -0.1722
 8631WAT     H236330  -1.435   6.059   4.873 -1.6209  0.1123  0.0357
 8631WAT    EPW36331  -1.431   6.012   4.946 -0.3467 -0.4201 -0.3486
 8632WAT      O36332   4.944   1.205   3.769  0.3914 -0.0959  0.8744
 8632WAT     H136333   4.916   1.119   3.736  2.6094 -0.6656  0.2825
 8632WAT     H236334   4.863   1.252   3.786 -0.8913 -1.6331 -0.5984
 8632WAT    EPW36335   4.930   1.200   3.767  0.5147 -0.3738  0.6021
 8633WAT      O36336  -0.624   4.126   5.095 -0.7545  0.4392 -0.3778
 8633WAT     H136337  -0.590   4.158   5.179 -2.1571 -1.1973  0.8837
 8633WAT     H236338  -0.610   4.031   5.098 -2.2004  0.1659 -1.3370
 8633WAT    EPW36339  -0.618   4.117   5.106 -1.1302  0.1872 -0.3378
 8634WAT      O36340   5.906   3.117   1.440 -0.7157 -0.1864  0.2365
 8634WAT     H136341   5.920   3.080   1.353  2.7446  0.0991  0.5517
 8634WAT     H236342   5.994   3.136   1.473 -1.9959  1.6425  2.9845
 8634WAT    EPW36343   5.919   3.115   1.433 -0.4280  0.0924  0.6405
 8635WAT      O36344  -1.046   4.226   6.239  0.0705  0.1494 -0.1037
 8635WAT     H136345  -0.990   4.183   6.174 -0.3670  1.9854 -1.8408
 8635WAT     H236346  -1.082   4.302   6.192 -2.1795  0.2515  1.5899
 8635WAT    EPW36347  -1.044   4.231   6.224 -0.2840  0.4048 -0.1094
 8636WAT      O36348   3.208   2.627   5.787 -0.1817 -0.1759  0.0609
 8636WAT     H136349   3.201   2.609   5.881  0.2039  2.0303  0.5573
 8636WAT     H236350   3.302   2.623   5.770 -0.3278 -1.8676 -0.5622
 8636WAT    EPW36351   3.220   2.624   5.797 -0.1501 -0.1081  0.0441
 8637WAT      O36352   4.706   8.173   3.978 -0.1124  0.5225 -0.4436
 8637WAT     H136353   4.627   8.134   3.941  0.8467 -1.9761 -0.1101
 8637WAT     H236354   4.753   8.208   3.903 -0.0006 -1.0215 -1.1389
 8637WAT    EPW36355   4.702   8.172   3.963  0.0291 -0.0110 -0.4914
 8638WAT      O36356   7.498   0.202   0.990  0.3467  0.5563  0.0763
 8638WAT     H136357   7.535   0.289   1.009 -1.4754  0.9772  2.0264
 8638WAT     H236358   7.493   0.159   1.075 -0.7232 -0.6825 -0.5744
 8638WAT    EPW36359   7.503   0.208   1.004 -0.0348  0.4484  0.2477
 8639WAT      O36360  -5.808   8.123   5.875  0.5645 -0.0120  0.1944
 8639WAT     H136361  -5.814   8.030   5.851  1.7944 -1.1009  3.5390
 8639WAT     H236362  -5.715   8.143   5.869  0.3806  0.8491  0.1155
 8639WAT    EPW36363  -5.796   8.113   5.871  0.7024 -0.0424  0.6249
 8640WAT      O36364  -2.464   0.991   7.332 -0.1060  0.6267  0.3531
 8640WAT     H136365  -2.475   0.896   7.323 -1.2995  0.6703  1.1059
 8640WAT     H236366  -2.508   1.027   7.255  0.4968  0.5690 -0.0224
 8640WAT    EPW36367  -2.471   0.983   7.320 -0.1838  0.6248  0.4029
 8641WAT      O36368  -4.961   8.399   7.114  0.2998  0.0005  0.5111
 8641WAT     H136369  -5.021   8.395   7.039 -1.1251  0.0240  1.5974
 8641WAT     H236370  -4.997   8.468   7.170  1.2346 -0.1248  1.2913
 8641WAT    EPW36371  -4.974   8.407   7.112  0.2351 -0.0129  0.7572
 8642WAT      O36372  -0.148   4.911   5.882 -0.1902 -0.2653  0.0029
 8642WAT     H136373  -0.053   4.903   5.889  0.2301  3.1664  0.0420
 8642WAT     H236374  -0.173   4.844   5.819  2.4570 -0.3499 -1.0815
 8642WAT    EPW36375  -0.139   4.901   5.875  0.2144  0.1764 -0.1349
 8643WAT      O36376   3.271   5.322   1.729  0.2497  0.4178  0.3889
 8643WAT     H136377   3.187   5.282   1.754  0.6958 -0.0522  1.2052
 8643WAT     H236378   3.247   5.399   1.679 -0.6646 -1.3847 -2.1621
 8643WAT    EPW36379   3.256   5.327   1.726  0.1880  0.1183  0.1602
 8644WAT      O36380   0.228   5.532   3.559 -0.4484 -0.5129 -0.1829
 8644WAT     H136381   0.309   5.480   3.558  0.2520  0.5549 -0.6139
 8644WAT     H236382   0.238   5.592   3.485 -0.8126  0.8568  0.8402
 8644WAT    EPW36383   0.240   5.533   3.549 -0.4041 -0.1912 -0.1048
 8645WAT      O36384   7.415   0.870   2.737  0.9470  0.5446 -0.1977
 8645WAT     H136385   7.389   0.923   2.662  0.6430  1.0279  0.2424
 8645WAT     H236386   7.332   0.850   2.782  1.0771 -0.1157 -0.2302
 8645WAT    EPW36387   7.400   0.874   2.733  0.9241  0.5212 -0.1439
 8646WAT      O36388   1.197   4.595   8.826  0.3391 -0.7452  0.0778
 8646WAT     H136389   1.196   4.548   8.743  0.7417  1.0022 -0.9576
 8646WAT     H236390   1.112   4.640   8.828 -0.4637 -2.2016  1.5215
 8646WAT    EPW36391   1.185   4.595   8.815  0.2863 -0.7069  0.1316
 8647WAT      O36392  -0.261  10.027   2.780  0.7354  0.3021  0.3470
 8647WAT     H136393  -0.338  10.082   2.764 -0.9040 -2.1948 -1.1345
 8647WAT     H236394  -0.241  10.040   2.873 -0.5982  2.0463  0.4543
 8647WAT    EPW36395  -0.269  10.036   2.790  0.3433  0.2031  0.1658
 8648WAT      O36396  -0.169   7.158   8.873 -0.3013  0.4778 -0.3604
 8648WAT     H136397  -0.161   7.099   8.948  1.3083  1.0521 -0.0318
 8648WAT     H236398  -0.246   7.211   8.892 -1.6345 -1.3061 -0.5397
 8648WAT    EPW36399  -0.178   7.158   8.886 -0.2648  0.3183 -0.3405
 8649WAT      O36400  -1.757   8.209   3.639 -0.3566  0.1710 -0.3078
 8649WAT     H136401  -1.668   8.175   3.630 -0.9450 -1.3875 -0.4774
 8649WAT     H236402  -1.812   8.145   3.595 -1.5964  1.0226 -0.0564
 8649WAT    EPW36403  -1.753   8.196   3.632 -0.5978  0.0782 -0.2970
 8650WAT      O36404  -4.591   8.604   5.886  0.5688 -0.8828 -0.3173
 8650WAT     H136405  -4.547   8.688   5.869 -0.1991  0.0572  1.8886
 8650WAT     H236406  -4.522   8.547   5.920  0.4299  0.1824  1.9421
 8650WAT    EPW36407  -4.576   8.608   5.888  0.4492 -0.6180  0.2716
 8651WAT      O36408   2.261   2.613   5.408 -0.6532 -0.1015  0.2502
 8651WAT     H136409   2.216   2.596   5.490  1.0397  0.5710  1.3654
 8651WAT     H236410   2.299   2.529   5.383 -1.4148 -0.3741 -0.0205
 8651WAT    EPW36411   2.260   2.600   5.415 -0.5305 -0.0488  0.3617
 8652WAT      O36412   2.100   4.911   1.870  0.8633  0.0573  0.8408
 8652WAT     H136413   2.121   4.890   1.778  3.1738  1.2036  1.0145
 8652WAT     H236414   2.010   4.942   1.867  0.7990 -0.1520 -1.0184
 8652WAT    EPW36415   2.091   4.913   1.857  1.1597  0.1810  0.6185
 8653WAT      O36416   5.476   2.139   2.400  0.2152 -0.3615  0.2537
 8653WAT     H136417   5.443   2.199   2.467 -1.5877  0.9129 -1.6654
 8653WAT     H236418   5.495   2.058   2.448 -2.1873  0.0791  2.1325
 8653WAT    EPW36419   5.474   2.136   2.415 -0.3397 -0.1353  0.2483
 8654WAT      O36420   5.729   4.023   0.641  0.3834  0.5233  0.7966
 8654WAT     H136421   5.780   3.952   0.679 -0.4446 -1.3256 -1.2899
 8654WAT     H236422   5.639   4.004   0.667  0.0783  0.4203 -0.2611
 8654WAT    EPW36423   5.724   4.011   0.649  0.2339  0.2658  0.3819
 8655WAT      O36424  -5.122   0.873   8.027 -0.1607  0.2376  0.5003
 8655WAT     H136425  -5.093   0.811   8.095 -2.6237 -0.4619  1.0313
 8655WAT     H236426  -5.178   0.935   8.074  0.3626  1.4688 -0.4534
 8655WAT    EPW36427  -5.125   0.873   8.042 -0.4165  0.3077  0.4444
 8656WAT      O36428  -0.755   9.121   1.773  0.3694 -0.1089 -0.0137
 8656WAT     H136429  -0.695   9.112   1.699 -0.8626 -1.2148 -0.9264
 8656WAT     H236430  -0.748   9.038   1.820 -0.5302 -0.3276 -0.2337
 8656WAT    EPW36431  -0.746   9.109   1.769  0.0883 -0.2837 -0.1631
 8657WAT      O36432   5.379   9.504   2.073  0.3931 -0.5968 -0.8726
 8657WAT     H136433   5.397   9.502   2.167  1.5540 -2.6445 -1.0940
 8657WAT     H236434   5.407   9.592   2.046 -3.9279  1.7485  1.3176
 8657WAT    EPW36435   5.385   9.516   2.082 -0.0236 -0.5574 -0.6130
 8658WAT      O36436   0.439   7.633   5.038 -0.4166 -0.5443  0.9619
 8658WAT     H136437   0.425   7.678   5.122 -0.5903  2.4460 -0.5491
 8658WAT     H236438   0.522   7.587   5.049  2.1941  3.6987  1.4055
 8658WAT    EPW36439   0.448   7.633   5.051 -0.0952  0.4098  0.8211
 8659WAT      O36440   2.841   2.745   8.130  0.0919  0.1665  0.4740
 8659WAT     H136441   2.833   2.686   8.055 -2.5640 -0.6924  1.3118
 8659WAT     H236442   2.841   2.686   8.206  1.8284  1.0691  1.2276
 8659WAT    EPW36443   2.840   2.729   8.130 -0.0294  0.1724  0.6843
 8660WAT      O36444  -2.316   5.635   8.129  0.1297  0.4579 -0.5578
 8660WAT     H136445  -2.286   5.671   8.046 -1.2399 -0.4915 -1.4960
 8660WAT     H236446  -2.271   5.551   8.136  0.0657  0.4335 -0.4308
 8660WAT    EPW36447  -2.306   5.629   8.119 -0.0594  0.3293 -0.6647
 8661WAT      O36448  -5.938   9.855   8.875  0.7685  0.2758 -0.0097
 8661WAT     H136449  -6.000   9.928   8.883 -0.4052 -0.4625 -1.7258
 8661WAT     H236450  -5.863   9.893   8.829  0.6211  0.6548  0.0590
 8661WAT    EPW36451  -5.936   9.870   8.870  0.5944  0.2289 -0.2270
 8662WAT      O36452   2.492   8.236   0.591 -0.2727 -0.6881  0.3491
 8662WAT     H136453   2.522   8.209   0.504  1.9816 -0.4956  1.0217
 8662WAT     H236454   2.545   8.184   0.651 -0.9480  0.0684  1.6204
 8662WAT    EPW36455   2.503   8.226   0.587 -0.0645 -0.5631  0.6055
 8663WAT      O36456   1.255   7.107   6.224 -0.5546  0.5320  0.3471
 8663WAT     H136457   1.170   7.141   6.253 -0.5953  0.6557  0.0876
 8663WAT     H236458   1.242   7.012   6.218 -0.5661  0.5139  0.6634
 8663WAT    EPW36459   1.242   7.099   6.227 -0.5615  0.5460  0.3548
 8664WAT      O36460   1.709   6.639   6.566  0.2149 -0.3153  0.3245
 8664WAT     H136461   1.730   6.596   6.484  1.0161  0.6837 -0.0136
 8664WAT     H236462   1.794   6.655   6.607 -0.1742 -0.7897  1.3446
 8664WAT    EPW36463   1.723   6.635   6.561  0.2692 -0.2460  0.4146
 8665WAT      O36464   2.400   3.178   7.555 -0.0255 -0.0402 -0.4978
 8665WAT     H136465   2.354   3.193   7.473 -0.5908  1.0314  0.0018
 8665WAT     H236466   2.340   3.209   7.623  0.9284  0.2305  0.2444
 8665WAT    EPW36467   2.386   3.184   7.553  0.0256  0.1370 -0.3340
 8666WAT      O36468   4.827   5.088   1.833 -0.8264 -0.1881 -0.9423
 8666WAT     H136469   4.880   5.075   1.912  0.1140  0.6666 -1.4133
 8666WAT     H236470   4.787   5.002   1.818 -0.6108 -0.5078  0.1635
 8666WAT    EPW36471   4.829   5.075   1.842 -0.6740 -0.1175 -0.8586
 8667WAT      O36472   7.668   4.278   1.938 -0.7799  0.0962 -0.5698
 8667WAT     H136473   7.674   4.345   2.006 -0.8548  1.0554 -1.4811
 8667WAT     H236474   7.574   4.264   1.927 -0.7526 -1.1307  0.5185
 8667WAT    EPW36475   7.656   4.285   1.946 -0.7861  0.0608 -0.5465
 8668WAT      O36476  -3.095   7.594   5.533 -0.0009  0.1604 -0.0206
 8668WAT     H136477  -3.073   7.503   5.516  0.8107 -0.1501  2.3557
 8668WAT     H236478  -3.011   7.638   5.542 -0.3849  1.0085 -0.4375
 8668WAT    EPW36479  -3.081   7.588   5.532  0.0556  0.2313  0.2379
 8669WAT      O36480  -3.746   3.463   7.600  0.1048 -0.1641  0.4799
 8669WAT     H136481  -3.665   3.413   7.597  1.1996  1.2470  3.1436
 8669WAT     H236482  -3.806   3.409   7.651 -0.6084 -1.0681 -1.2282
 8669WAT    EPW36483  -3.743   3.450   7.606  0.1552 -0.0972  0.6061
 8670WAT      O36484   0.123   0.681   7.199 -0.6652 -0.3973 -0.6951
 8670WAT     H136485   0.167   0.606   7.157  1.1903  0.6413 -0.7097
 8670WAT     H236486   0.135   0.753   7.138  1.4769  0.9851  1.1948
 8670WAT    EPW36487   0.131   0.680   7.185 -0.1380 -0.0780 -0.4478
 8671WAT      O36488   5.944   9.821   0.176 -0.3352 -0.5953  0.1181
 8671WAT     H136489   5.970   9.896   0.231  0.9754 -0.9884  0.0694
 8671WAT     H236490   5.853   9.839   0.153  0.0505  1.1918 -0.2018
 8671WAT    EPW36491   5.936   9.833   0.180 -0.1113 -0.4115  0.0695
 8672WAT      O36492  -1.638   2.334   8.480  0.6422  0.1343  0.8084
 8672WAT     H136493  -1.590   2.256   8.452 -0.4439  0.3536 -1.9867
 8672WAT     H236494  -1.725   2.324   8.442 -0.3471  1.5420  2.5305
 8672WAT    EPW36495  -1.643   2.323   8.472  0.3684  0.3489  0.6666
 8673WAT      O36496   7.178   2.703   0.397  0.1950  0.0317 -0.3111
 8673WAT     H136497   7.270   2.715   0.418 -0.4599  2.5445  1.6296
 8673WAT     H236498   7.172   2.613   0.365  3.3361 -0.0679 -0.9018
 8673WAT    EPW36499   7.189   2.693   0.396  0.5231  0.3500 -0.1330
 8674WAT      O36500  -3.717   6.357   5.133  0.6832 -0.9249  0.0274
 8674WAT     H136501  -3.768   6.427   5.173 -1.3311 -2.2110 -0.1611
 8674WAT     H236502  -3.626   6.382   5.148  0.0520  1.7918 -0.1712
 8674WAT    EPW36503  -3.711   6.370   5.140  0.3343 -0.7362 -0.0236
 8675WAT      O36504  -5.395   5.470   6.551 -0.7562  0.0213  0.1168
 8675WAT     H136505  -5.353   5.509   6.475 -1.4077 -2.2942 -1.5783
 8675WAT     H236506  -5.323   5.447   6.610 -0.0162 -0.1446 -0.8339
 8675WAT    EPW36507  -5.380   5.472   6.549 -0.7446 -0.3061 -0.2322
 8676WAT      O36508   2.045   6.722   5.551 -0.8327 -0.1790  0.5628
 8676WAT     H136509   2.113   6.778   5.513 -1.8064 -0.3485 -1.6223
 8676WAT     H236510   2.074   6.633   5.531 -1.2055 -0.2847  0.4823
 8676WAT    EPW36511   2.058   6.718   5.543 -1.0103 -0.2155  0.2637
 8677WAT      O36512   1.791   6.679   2.616 -0.4299 -0.8567  0.1638
 8677WAT     H136513   1.752   6.598   2.646 -0.0985 -1.0971 -0.0488
 8677WAT     H236514   1.886   6.665   2.623 -0.3748 -0.0380  1.3035
 8677WAT    EPW36515   1.798   6.667   2.621 -0.3789 -0.7806  0.2861
 8678WAT      O36516   4.293   1.669   7.970 -0.0508  0.0137 -0.9184
 8678WAT     H136517   4.241   1.599   8.009 -0.6802 -0.3230 -2.3062
 8678WAT     H236518   4.374   1.626   7.942 -0.2300 -0.0685 -1.3215
 8678WAT    EPW36519   4.297   1.654   7.971 -0.1574 -0.0415 -1.1544
 8679WAT      O36520  -3.447   6.540   8.187 -0.7482  0.3754 -0.8544
 8679WAT     H136521  -3.504   6.541   8.264  0.7625  2.2155  0.3436
 8679WAT     H236522  -3.373   6.485   8.213 -0.8050  0.0218 -1.4433
 8679WAT    EPW36523  -3.445   6.533   8.201 -0.5565  0.5717 -0.7739
 8680WAT      O36524  -4.726   1.869   6.988  0.1314  0.4543  0.0514
 8680WAT     H136525  -4.801   1.836   7.038  0.3747 -0.0523  0.0906
 8680WAT     H236526  -4.732   1.826   6.903  0.8654 -0.2880  0.3558
 8680WAT    EPW36527  -4.737   1.859   6.983  0.2601  0.2895  0.0968
 8681WAT      O36528   5.311   2.342   5.993 -0.9299  0.1171  0.4539
 8681WAT     H136529   5.354   2.323   5.910  0.5566  1.8572  0.7658
 8681WAT     H236530   5.364   2.297   6.059 -1.3078 -0.1435  0.5816
 8681WAT    EPW36531   5.324   2.334   5.991 -0.7837  0.3123  0.5119
 8682WAT      O36532  -4.248   7.206   4.377  0.3699  0.2892 -0.6133
 8682WAT     H136533  -4.173   7.212   4.318  0.3903 -0.1288 -0.6397
 8682WAT     H236534  -4.210   7.182   4.462  0.3884  1.3701 -0.3038
 8682WAT    EPW36535  -4.233   7.203   4.381  0.3750  0.3767 -0.5760
 8683WAT      O36536  -0.468   5.094   6.161  0.0816  0.2318 -0.2207
 8683WAT     H136537  -0.423   5.028   6.107  1.2929  0.8776 -0.0502
 8683WAT     H236538  -0.409   5.170   6.159  0.1677  0.2878  1.9497
 8683WAT    EPW36539  -0.454   5.095   6.154  0.2527  0.3242  0.0880
 8684WAT      O36540   5.429   6.481   2.891  0.3368 -0.4200  0.1227
 8684WAT     H136541   5.399   6.390   2.886  0.2618 -0.3549 -0.8279
 8684WAT     H236542   5.464   6.499   2.804  3.3450 -0.5299  1.2021
 8684WAT    EPW36543   5.429   6.471   2.879  0.7236 -0.4258  0.1397
 8685WAT      O36544   3.309   5.076   8.058 -0.4534  0.0499  0.0197
 8685WAT     H136545   3.227   5.125   8.070 -0.0615  1.0434 -1.1710
 8685WAT     H236546   3.355   5.086   8.141 -0.2656  1.9880 -0.2625
 8685WAT    EPW36547   3.304   5.084   8.071 -0.3769  0.4365 -0.1750
 8686WAT      O36548   0.283   7.439   3.199 -0.7535 -0.0639 -0.8704
 8686WAT     H136549   0.293   7.442   3.294 -3.5550 -0.8600 -0.4527
 8686WAT     H236550   0.329   7.516   3.167  0.0337  0.3622  1.1345
 8686WAT    EPW36551   0.290   7.449   3.207 -1.0192 -0.1128 -0.5507
 8687WAT      O36552   4.445   6.226   2.275  0.0812 -0.3115 -0.8084
 8687WAT     H136553   4.354   6.248   2.293  0.1095 -0.2709 -0.7175
 8687WAT     H236554   4.445   6.131   2.266  0.2633 -0.4531  0.4967
 8687WAT    EPW36555   4.433   6.217   2.276  0.1090 -0.3247 -0.6242
 8688WAT      O36556   6.234   1.486   0.676 -0.5382 -0.7113 -0.0619
 8688WAT     H136557   6.243   1.486   0.580  0.6872 -1.1561  0.0478
 8688WAT     H236558   6.322   1.469   0.709 -1.1459 -1.6239  1.1382
 8688WAT    EPW36559   6.247   1.484   0.667 -0.4570 -0.8904  0.1109
 8689WAT      O36560  -0.454   5.151   3.759 -0.1853 -0.3212 -0.7200
 8689WAT     H136561  -0.454   5.213   3.686 -1.8927  0.9499  0.2794
 8689WAT     H236562  -0.540   5.161   3.799  0.6145 -1.0912  1.3537
 8689WAT    EPW36563  -0.465   5.161   3.755 -0.3050 -0.2551 -0.3146
 8690WAT      O36564   5.572   0.799   0.830  0.0365 -1.6671  0.2091
 8690WAT     H136565   5.616   0.736   0.887  2.3594  0.3539  0.8294
 8690WAT     H236566   5.606   0.781   0.743 -1.2454 -2.8400 -0.0786
 8690WAT    EPW36567   5.582   0.789   0.826  0.1738 -1.5552  0.2530
 8691WAT      O36568   4.637   3.112   7.417 -0.5543  0.5095  0.0527
 8691WAT     H136569   4.572   3.180   7.436 -2.0354 -1.0791  0.8989
 8691WAT     H236570   4.693   3.111   7.495 -1.8576 -0.6459  1.0421
 8691WAT    EPW36571   4.636   3.121   7.430 -0.9215  0.1476  0.2949
 8692WAT      O36572   6.301   0.836   3.212  0.0851 -0.5120  0.1655
 8692WAT     H136573   6.208   0.858   3.208  0.8929  3.3165 -0.9356
 8692WAT     H236574   6.320   0.833   3.306 -0.8239  0.2163  0.3900
 8692WAT    EPW36575   6.291   0.838   3.224  0.0718  0.0890  0.0499
 8693WAT      O36576  -1.050   3.986   4.383 -0.0708 -0.7108  0.1664
 8693WAT     H136577  -1.018   3.966   4.296  0.5020 -0.0374  0.2148
 8693WAT     H236578  -0.994   3.935   4.442  2.6201  2.2280  0.4152
 8693WAT    EPW36579  -1.039   3.976   4.379  0.3597 -0.2342  0.2053
 8694WAT      O36580  -2.959   9.991   2.168 -0.2221  0.4465 -0.1393
 8694WAT     H136581  -3.049   9.994   2.136 -0.1159  1.2946 -0.3924
 8694WAT     H236582  -2.944   9.899   2.192 -2.7186  0.9046  4.2843
 8694WAT    EPW36583  -2.969   9.979   2.167 -0.5374  0.6194  0.4108
 8695WAT      O36584   3.178   2.620   4.558  0.0553  0.1769  0.1129
 8695WAT     H136585   3.170   2.571   4.640  4.1738  0.6545  1.0200
 8695WAT     H236586   3.165   2.712   4.584 -2.9092  0.0722 -0.6975
 8695WAT    EPW36587   3.176   2.626   4.572  0.2075  0.2260  0.1259
 8696WAT      O36588   6.790   4.549   4.274 -0.3006 -0.1392 -0.5711
 8696WAT     H136589   6.840   4.473   4.244 -0.0657  0.0442 -0.6451
 8696WAT     H236590   6.740   4.577   4.197 -2.0590 -1.5157 -0.0098
 8696WAT    EPW36591   6.790   4.543   4.260 -0.5016 -0.2966 -0.5069
 8697WAT      O36592  -3.685   8.809   2.419  0.2734  0.8668  0.7715
 8697WAT     H136593  -3.741   8.873   2.462  0.0895  0.6077  0.9225
 8697WAT     H236594  -3.728   8.725   2.436  2.0027  0.3399  3.0476
 8697WAT    EPW36595  -3.698   8.806   2.427  0.4772  0.7634  1.0916
 8698WAT      O36596   3.974  10.381   1.667  0.2212 -0.1581 -1.1691
 8698WAT     H136597   3.932  10.317   1.610 -0.5126  0.3510 -1.2171
 8698WAT     H236598   3.952  10.353   1.756  0.8178 -0.5839 -1.1524
 8698WAT    EPW36599   3.966  10.369   1.671  0.2029 -0.1471 -1.1732
 8699WAT      O36600   6.857   0.597   3.268 -0.4004  0.0592  0.5549
 8699WAT     H136601   6.904   0.668   3.310 -2.4321  1.8962 -0.0895
 8699WAT     H236602   6.803   0.558   3.338  0.4782 -0.6836  0.8380
 8699WAT    EPW36603   6.856   0.601   3.283 -0.5527  0.2035  0.5072
 8700WAT      O36604  -0.903   2.084   2.369  0.1427 -0.0096 -0.3133
 8700WAT     H136605  -0.855   2.056   2.291  0.5867  0.2489 -0.1365
 8700WAT     H236606  -0.885   2.017   2.434  1.3078  0.7288  0.1490
 8700WAT    EPW36607  -0.894   2.071   2.367  0.3550  0.1220 -0.2290
 8701WAT      O36608   1.985   4.691   5.767 -0.3857  0.4597 -0.0017
 8701WAT     H136609   2.013   4.766   5.714 -0.9947 -0.0424 -1.0684
 8701WAT     H236610   1.908   4.657   5.721 -0.2070 -0.7239  0.5473
 8701WAT    EPW36611   1.979   4.696   5.754 -0.4424  0.2375 -0.0699
 8702WAT      O36612   4.780   4.653   5.424 -0.6310 -0.7974  0.4368
 8702WAT     H136613   4.855   4.616   5.469 -0.1112 -1.3808 -0.8576
 8702WAT     H236614   4.712   4.661   5.492  0.6837  0.0655  1.7043
 8702WAT    EPW36615   4.781   4.649   5.439 -0.3891 -0.7603  0.4334
 8703WAT      O36616  -2.233   0.271   8.169 -0.7055 -0.1556 -0.3847
 8703WAT     H136617  -2.139   0.270   8.152 -0.5238 -0.7304  0.5893
 8703WAT     H236618  -2.246   0.207   8.239 -1.7476  0.3016 -0.1338
 8703WAT    EPW36619  -2.222   0.262   8.176 -0.8191 -0.1711 -0.2232
 8704WAT      O36620  -7.117   9.766   6.686 -1.0779  0.8035  0.6380
 8704WAT     H136621  -7.174   9.833   6.724  1.0354  3.2513 -0.2020
 8704WAT     H236622  -7.108   9.792   6.594 -0.5766 -0.9978  0.1232
 8704WAT    EPW36623  -7.124   9.778   6.679 -0.7331  0.8888  0.4594
 8705WAT      O36624  -2.117   0.151   7.096  0.5074 -0.6459  0.0726
 8705WAT     H136625  -2.128   0.228   7.041  0.9551 -0.5438  0.1194
 8705WAT     H236626  -2.091   0.186   7.181 -2.9522 -0.5945  1.2676
 8705WAT    EPW36627  -2.115   0.166   7.100  0.1103 -0.6257  0.2363
 8706WAT      O36628  -3.419   7.551   7.889  0.2566 -0.3534 -0.8390
 8706WAT     H136629  -3.325   7.552   7.910 -0.0535 -1.2840  0.7721
 8706WAT     H236630  -3.461   7.593   7.964 -0.9338 -4.0053  0.7633
 8706WAT    EPW36631  -3.412   7.557   7.902  0.0587 -0.9577 -0.4151
 8707WAT      O36632   5.512   0.814   4.959  0.4013  0.2091 -0.3606
 8707WAT     H136633   5.572   0.878   4.921  1.7948 -0.7576  0.1575
 8707WAT     H236634   5.548   0.729   4.935 -2.3487 -0.4899 -2.5239
 8707WAT    EPW36635   5.524   0.811   4.951  0.2224 -0.0106 -0.5777
 8708WAT      O36636  -4.385   3.866   7.926 -0.1413 -0.0175 -0.1747
 8708WAT     H136637  -4.415   3.956   7.935  0.1262 -0.0028  0.6069
 8708WAT     H236638  -4.409   3.842   7.836 -3.2223 -0.2680  0.6071
 8708WAT    EPW36639  -4.392   3.875   7.915 -0.5126 -0.0486  0.0315
 8709WAT      O36640  -1.020   3.218   5.558 -0.1623  0.1812  0.3380
 8709WAT     H136641  -1.059   3.131   5.559  0.7017 -0.2310 -0.6572
 8709WAT     H236642  -0.929   3.204   5.586  0.2542  0.6127 -0.7531
 8709WAT    EPW36643  -1.013   3.205   5.562  0.0067  0.1837  0.0627
 8710WAT      O36644   3.498   2.382   6.298 -0.1927 -0.2650  0.4815
 8710WAT     H136645   3.537   2.311   6.349  1.3442  1.1177  1.3179
 8710WAT     H236646   3.429   2.416   6.354 -2.2646 -2.2309 -0.6956
 8710WAT    EPW36647   3.494   2.377   6.312 -0.2633 -0.3419  0.4368
 8711WAT      O36648  -2.527   6.864   8.439 -0.0314 -0.0107  0.0535
 8711WAT     H136649  -2.475   6.914   8.502  0.2450  2.9287 -2.2863
 8711WAT     H236650  -2.484   6.779   8.434  0.9278  0.2511  2.5193
 8711WAT    EPW36651  -2.515   6.859   8.447  0.1316  0.4115  0.0701
 8712WAT      O36652  -6.299   4.796   8.383 -0.2603 -0.3445  0.0089
 8712WAT     H136653  -6.374   4.784   8.441  0.3531  1.3236  1.2245
 8712WAT     H236654  -6.249   4.866   8.424  2.5373 -2.0898 -0.1942
 8712WAT    EPW36655  -6.303   4.803   8.396  0.1895 -0.3548  0.1421
 8713WAT      O36656   0.521   0.387   1.657 -0.4538 -0.1351  0.4256
 8713WAT     H136657   0.541   0.409   1.566  3.2226 -0.6100  0.9908
 8713WAT     H236658   0.472   0.462   1.690 -1.1088  0.4169 -1.6816
 8713WAT    EPW36659   0.517   0.400   1.649 -0.0553 -0.1249  0.2221
 8714WAT      O36660   2.231   1.034   4.946 -0.2005 -0.2987  0.7986
 8714WAT     H136661   2.197   1.119   4.973  2.0589 -0.1926  3.8187
 8714WAT     H236662   2.192   0.972   5.008 -1.0394 -1.3958 -0.7465
 8714WAT    EPW36663   2.221   1.037   4.958 -0.0131 -0.4294  0.9930
 8715WAT      O36664  -5.027   6.508   6.240 -0.6021 -0.5713 -0.4415
 8715WAT     H136665  -5.107   6.552   6.271  0.1959  0.7040 -0.1475
 8715WAT     H236666  -4.956   6.567   6.264  0.3777 -1.3193 -1.4113
 8715WAT    EPW36667  -5.028   6.521   6.247 -0.3676 -0.5016 -0.5307
 8716WAT      O36668   1.267   0.200   4.005 -0.2544  0.4704 -0.0304
 8716WAT     H136669   1.336   0.151   4.050 -1.0585 -0.1258  0.6127
 8716WAT     H236670   1.296   0.206   3.914  1.5549  1.9442  0.5800
 8716WAT    EPW36671   1.280   0.194   3.999 -0.1218  0.5861  0.1351
 8717WAT      O36672   1.553  10.078   4.772  0.5600  0.2796  0.2019
 8717WAT     H136673   1.598  10.143   4.717  0.5193 -0.6191 -0.9166
 8717WAT     H236674   1.545  10.121   4.858  1.6240  1.2773 -0.1758
 8717WAT    EPW36675   1.558  10.092   4.776  0.6950  0.2923  0.0043
 8718WAT      O36676   0.155   8.821   7.352 -0.2299 -0.3909  0.2660
 8718WAT     H136677   0.071   8.810   7.306 -0.6070 -0.8467  1.0365
 8718WAT     H236678   0.165   8.916   7.362 -0.2811 -0.2994 -0.4899
 8718WAT    EPW36679   0.145   8.832   7.347 -0.2864 -0.4392  0.2680
 8719WAT      O36680   2.941   2.013   6.449 -0.1877  0.1115 -0.1549
 8719WAT     H136681   2.965   1.956   6.377  0.7540  0.2229  0.0584
 8719WAT     H236682   2.845   2.007   6.454 -0.1254 -1.3088 -0.2442
 8719WAT    EPW36683   2.931   2.005   6.440 -0.0552 -0.0612 -0.1385
 8720WAT      O36684  -3.621  10.222   3.060  0.4328  0.8569  0.3310
 8720WAT     H136685  -3.636  10.316   3.046 -1.1374  0.5049 -0.5246
 8720WAT     H236686  -3.527  10.216   3.079  1.2613  2.3006 -2.6600
 8720WAT    EPW36687  -3.610  10.234   3.060  0.3350  1.0009 -0.1763
 8721WAT      O36688   0.138   5.238   5.479 -0.4101 -0.0452 -0.1785
 8721WAT     H136689   0.048   5.246   5.448 -0.5465  3.5422  0.6701
 8721WAT     H236690   0.191   5.233   5.399 -1.1935  1.5397 -0.8352
 8721WAT    EPW36691   0.133   5.239   5.465 -0.5314  0.6371 -0.1531
 8722WAT      O36692  -0.442   6.918   4.228  0.0598  0.5661 -1.1258
 8722WAT     H136693  -0.432   7.012   4.215 -2.2030  0.9962 -0.3227
 8722WAT     H236694  -0.479   6.885   4.146 -0.0020  0.5655 -1.0986
 8722WAT    EPW36695  -0.446   6.926   4.216 -0.2468  0.6227 -1.0161
 8723WAT      O36696  -1.151   4.204   1.219  0.0229  0.2613 -0.2563
 8723WAT     H136697  -1.141   4.236   1.309  1.5547 -0.4272 -0.1513
 8723WAT     H236698  -1.185   4.280   1.170  0.5414  1.0702  0.6181
 8723WAT    EPW36699  -1.154   4.218   1.224  0.2934  0.2770 -0.1271
 8724WAT      O36700   5.156   2.168   5.556 -0.5383 -0.3365  0.0330
 8724WAT     H136701   5.088   2.101   5.556 -0.6140 -0.3510  2.7866
 8724WAT     H236702   5.127   2.232   5.621  2.6713 -1.0957  2.5100
 8724WAT    EPW36703   5.143   2.167   5.564 -0.1249 -0.4386  0.7229
 8725WAT      O36704  -2.239   5.658   5.631 -0.4902  0.5311 -0.3257
 8725WAT     H136705  -2.186   5.604   5.572  0.7616 -0.7032  1.8004
 8725WAT     H236706  -2.176   5.713   5.676 -1.0713 -0.2414  1.5262
 8725WAT    EPW36707  -2.224   5.658   5.629 -0.4017  0.2663  0.1988
 8726WAT      O36708   6.311   4.368   2.642  0.0213  0.5449 -0.3468
 8726WAT     H136709   6.394   4.321   2.653 -0.7140 -1.0173 -1.1848
 8726WAT     H236710   6.311   4.433   2.712  1.7221  0.2326 -0.0222
 8726WAT    EPW36711   6.322   4.370   2.653  0.1485  0.2975 -0.4145
 8727WAT      O36712   1.518   7.352   7.409 -0.3223  0.3936 -0.3040
 8727WAT     H136713   1.587   7.415   7.427  0.6845 -0.4981 -0.9250
 8727WAT     H236714   1.475   7.386   7.330  1.1722 -0.4134 -1.5196
 8727WAT    EPW36715   1.521   7.365   7.401  0.0076  0.1695 -0.5462
 8728WAT      O36716  -4.306   7.442   8.641 -0.0679 -0.7215  0.0369
 8728WAT     H136717  -4.356   7.500   8.699 -0.4172  0.6412 -1.5653
 8728WAT     H236718  -4.313   7.356   8.683 -3.0649 -0.4359  0.3701
 8728WAT    EPW36719  -4.314   7.438   8.654 -0.5090 -0.5043 -0.1307
 8729WAT      O36720  -0.401   8.583   7.913 -0.1285 -0.2541 -0.5483
 8729WAT     H136721  -0.308   8.571   7.895  0.0711 -0.4148  0.5107
 8729WAT     H236722  -0.441   8.500   7.888  0.3010 -0.8693  0.7460
 8729WAT    EPW36723  -0.394   8.571   7.907 -0.0455 -0.3567 -0.2379
 8730WAT      O36724   1.394   9.899   2.881 -0.4541  0.2115  0.0346
 8730WAT     H136725   1.303   9.890   2.906 -0.4988 -0.5295 -0.3664
 8730WAT     H236726   1.441   9.909   2.964 -0.6598 -1.6511  0.4337
 8730WAT    EPW36727   1.388   9.899   2.895 -0.4871 -0.1321  0.0345
 8731WAT      O36728  -1.960   9.731   5.260  0.0148 -0.1649  0.1746
 8731WAT     H136729  -1.933   9.790   5.331 -1.2580  0.5233  0.1310
 8731WAT     H236730  -1.955   9.785   5.181 -0.5099 -0.3056  0.0384
 8731WAT    EPW36731  -1.956   9.746   5.259 -0.2223 -0.0930  0.1507
 8732WAT      O36732   0.833   9.431   7.395  0.2491 -0.4549  0.9923
 8732WAT     H136733   0.872   9.506   7.440 -1.2847  1.1889 -0.2419
 8732WAT     H236734   0.889   9.418   7.318 -0.4729  0.6339  0.2561
 8732WAT    EPW36735   0.846   9.439   7.391 -0.0484 -0.0949  0.7324
 8733WAT      O36736   4.022   0.980   6.191 -0.6197  0.4603 -0.0675
 8733WAT     H136737   4.090   0.913   6.191  1.7291  2.6762 -1.1686
 8733WAT     H236738   3.951   0.942   6.243  2.2781 -1.1650  3.1391
 8733WAT    EPW36739   4.021   0.966   6.198  0.0722  0.5382  0.2103
 8734WAT      O36740  -4.648  10.159   6.578  0.3535 -0.4794 -0.2557
 8734WAT     H136741  -4.582  10.089   6.575  0.0502 -0.8139  0.5690
 8734WAT     H236742  -4.623  10.219   6.507  0.9042 -1.1678 -0.6523
 8734WAT    EPW36743  -4.636  10.158   6.568  0.3860 -0.6142 -0.1993
 8735WAT      O36744   4.471   7.870   5.043  0.2851  0.3641 -0.2958
 8735WAT     H136745   4.475   7.798   5.106  0.0229  0.7874  0.2161
 8735WAT     H236746   4.534   7.846   4.975  3.2338  1.5522  1.8481
 8735WAT    EPW36747   4.480   7.857   5.042  0.6394  0.5767  0.0544
 8736WAT      O36748  -3.682   9.195   6.819  0.6328 -0.0424 -0.1651
 8736WAT     H136749  -3.605   9.153   6.857  1.6305  3.1063  1.7283
 8736WAT     H236750  -3.742   9.205   6.893 -0.7517 -0.6281 -1.1745
 8736WAT    EPW36751  -3.680   9.191   6.834  0.5817  0.2956 -0.0484
 8737WAT      O36752   0.702   2.105   3.844  0.4780  0.0441 -0.3685
 8737WAT     H136753   0.742   2.018   3.847  1.4719  0.4259 -1.4403
 8737WAT     H236754   0.632   2.097   3.780  0.7555  0.0889 -0.6829
 8737WAT    EPW36755   0.698   2.093   3.836  0.6457  0.1004 -0.5512
 8738WAT      O36756   4.328   1.245   8.849 -0.2147  0.2239 -0.3715
 8738WAT     H136757   4.274   1.319   8.876  1.7346  2.5704 -2.4431
 8738WAT     H236758   4.292   1.171   8.898 -2.5824  2.3851  1.4748
 8738WAT    EPW36759   4.316   1.245   8.859 -0.2699  0.8184 -0.4010
 8739WAT      O36760   5.243   0.152   1.127 -0.1286 -0.2660 -1.0071
 8739WAT     H136761   5.251   0.067   1.084  0.1828  0.4583 -2.4195
 8739WAT     H236762   5.326   0.195   1.111  0.2824 -0.2089  0.9480
 8739WAT    EPW36763   5.255   0.146   1.119 -0.0334 -0.1629 -0.9355
 8740WAT      O36764   4.735   1.064   4.341 -0.3400  0.2593  0.0916
 8740WAT     H136765   4.649   1.022   4.346 -0.6938  1.0095  0.4992
 8740WAT     H236766   4.791   1.010   4.398 -0.2127 -0.9549 -1.1347
 8740WAT    EPW36767   4.731   1.051   4.350 -0.3698  0.1981 -0.0165
 8741WAT      O36768  -3.907  10.023   2.580 -0.4176  0.1285  0.2495
 8741WAT     H136769  -3.905   9.927   2.576 -0.5104  0.1530 -0.6484
 8741WAT     H236770  -3.835  10.046   2.638  0.3912 -0.4390 -0.5022
 8741WAT    EPW36771  -3.897  10.013   2.587 -0.3233  0.0567  0.0318
 8742WAT      O36772   5.124   7.869   4.889 -0.6615  0.0135 -0.2519
 8742WAT     H136773   5.094   7.950   4.846 -1.0867 -0.1834 -0.3273
 8742WAT     H236774   5.156   7.815   4.817 -2.1803 -0.6749 -0.4593
 8742WAT    EPW36775   5.124   7.873   4.874 -0.9179 -0.1035 -0.2890
 8743WAT      O36776   3.226   8.870   6.791 -0.4166  0.3374 -0.0244
 8743WAT     H136777   3.178   8.788   6.805  0.3987 -0.2914 -0.7861
 8743WAT     H236778   3.158   8.937   6.790 -1.0558 -0.2544  1.1043
 8743WAT    EPW36779   3.210   8.868   6.793 -0.3934  0.1764  0.0238
 8744WAT      O36780   1.598   9.223   4.515 -0.2638  0.4439 -0.6095
 8744WAT     H136781   1.609   9.129   4.533 -0.7567  0.4737 -0.1122
 8744WAT     H236782   1.608   9.264   4.601 -2.2468  0.6327 -0.4156
 8744WAT    EPW36783   1.601   9.216   4.529 -0.5903  0.4730 -0.5183
 8745WAT      O36784   1.869   2.247   2.115  0.3955 -0.2043 -0.0621
 8745WAT     H136785   1.892   2.293   2.196  1.7503 -0.3369 -0.3346
 8745WAT     H236786   1.774   2.252   2.110  0.4307  1.5161  0.5253
 8745WAT    EPW36787   1.860   2.254   2.125  0.5788  0.0051 -0.0204
 8746WAT      O36788   2.499   6.074   3.774  0.2237  0.3286 -0.4207
 8746WAT     H136789   2.545   6.155   3.797 -0.5072  0.5654  0.2262
 8746WAT     H236790   2.488   6.029   3.858  0.9232 -0.6133 -0.8143
 8746WAT    EPW36791   2.504   6.079   3.789  0.2196  0.2356 -0.3873
 8747WAT      O36792  -1.025   1.995   4.926  0.7533  0.3644 -0.3105
 8747WAT     H136793  -0.959   2.001   4.856  2.3858  1.0661  1.2136
 8747WAT     H236794  -1.105   2.031   4.886  1.5160  0.3679 -1.9220
 8747WAT    EPW36795  -1.027   2.001   4.911  1.0692  0.4574 -0.3219
 8748WAT      O36796   3.339   5.420   6.590  0.1738  0.3567 -0.5168
 8748WAT     H136797   3.390   5.341   6.573  0.4974 -0.6723  3.9485
 8748WAT     H236798   3.404   5.490   6.592  0.4391  0.1312 -1.0342
 8748WAT    EPW36799   3.355   5.419   6.588  0.2515  0.1915  0.0038
 8749WAT      O36800  -0.023   3.248   3.662 -0.4629  0.7180  0.2035
 8749WAT     H136801   0.066   3.215   3.666 -0.8531 -0.2801  2.1651
 8749WAT     H236802  -0.078   3.170   3.658 -1.2889  1.2291  0.9763
 8749WAT    EPW36803  -0.019   3.233   3.662 -0.6233  0.6537  0.5642
 8750WAT      O36804   5.371   4.749   2.766  0.0871 -0.5320  0.4879
 8750WAT     H136805   5.446   4.802   2.736 -0.3955  2.6535  4.0149
 8750WAT     H236806   5.403   4.707   2.846 -0.6008 -3.0245 -0.4784
 8750WAT    EPW36807   5.385   4.751   2.772 -0.0670 -0.4406  0.8256
 8751WAT      O36808   1.451   1.306   6.449 -0.1281 -0.0907 -0.4928
 8751WAT     H136809   1.375   1.260   6.413 -0.4851 -1.4758  1.8387
 8751WAT     H236810   1.517   1.238   6.461  0.9942  0.8398 -1.1182
 8751WAT    EPW36811   1.450   1.291   6.446 -0.0271 -0.1506 -0.2680
 8752WAT      O36812   3.624   1.789   6.857 -0.0123  1.0462 -0.0294
 8752WAT     H136813   3.704   1.738   6.843 -0.8443  0.6201 -4.8263
 8752WAT     H236814   3.650   1.856   6.920  3.2772 -0.7220  0.7310
 8752WAT    EPW36815   3.638   1.791   6.863  0.3120  0.7567 -0.5617
 8753WAT      O36816   6.949   1.189   1.203 -0.8696 -0.3978  0.0160
 8753WAT     H136817   6.886   1.120   1.225 -0.6528 -0.4875  0.3677
 8753WAT     H236818   6.984   1.217   1.287 -0.7046 -0.0964 -0.1530
 8753WAT    EPW36819   6.946   1.183   1.217 -0.8194 -0.3698  0.0401
 8754WAT      O36820  -2.342   5.826   0.859  0.7435 -0.0170  0.3300
 8754WAT     H136821  -2.247   5.831   0.870  0.9018 -1.4620 -0.2153
 8754WAT     H236822  -2.370   5.918   0.856  2.4040  0.5015 -1.7330
 8754WAT    EPW36823  -2.333   5.839   0.860  0.9834 -0.1392 -0.0140
 8755WAT      O36824   1.014   9.851   5.792  0.5925 -0.7292 -0.6890
 8755WAT     H136825   0.994   9.847   5.886 -2.2279 -1.4113 -1.2208
 8755WAT     H236826   0.995   9.763   5.760  0.9504 -0.3426 -2.0002
 8755WAT    EPW36827   1.009   9.839   5.800  0.2678 -0.7682 -0.9320
 8756WAT      O36828   5.649   1.532   4.227  0.6591 -0.3310  0.4202
 8756WAT     H136829   5.679   1.609   4.275  1.0121  0.1640 -0.5673
 8756WAT     H236830   5.718   1.514   4.164  0.0370 -0.7271 -0.1679
 8756WAT    EPW36831   5.662   1.539   4.225  0.6239 -0.3180  0.2124
 8757WAT      O36832   6.373   2.179   4.757 -0.2246 -0.0796 -0.7428
 8757WAT     H136833   6.292   2.150   4.799  0.1182 -0.0328 -0.0436
 8757WAT     H236834   6.425   2.216   4.828  0.2323  0.2904 -1.2639
 8757WAT    EPW36835   6.369   2.180   4.772 -0.1192 -0.0247 -0.7193
 8758WAT      O36836   1.991   7.517   6.607 -0.0665  0.0243  0.4415
 8758WAT     H136837   2.016   7.605   6.578 -1.0884  0.2489  0.2192
 8758WAT     H236838   1.923   7.532   6.673  1.3525 -0.5209  2.1057
 8758WAT    EPW36839   1.985   7.531   6.612 -0.0141 -0.0181  0.6318
 8759WAT      O36840  -1.880   1.773   3.293 -0.7665 -0.2072  0.1196
 8759WAT     H136841  -1.941   1.780   3.220 -0.4718 -1.8251 -0.3344
 8759WAT     H236842  -1.810   1.836   3.274 -1.4890  0.5200 -0.1558
 8759WAT    EPW36843  -1.878   1.782   3.281 -0.8230 -0.3247  0.0235
 8760WAT      O36844   3.785   1.410   7.208 -0.3024  0.0443  0.3466
 8760WAT     H136845   3.876   1.379   7.216 -0.7309 -1.3367  0.1184
 8760WAT     H236846   3.764   1.400   7.116 -0.8254 -0.0203  0.4692
 8760WAT    EPW36847   3.795   1.405   7.197 -0.4278 -0.1463  0.3326
 8761WAT      O36848  -5.929   6.467   8.912  0.6893 -0.0146 -0.5178
 8761WAT     H136849  -5.942   6.529   8.984  1.2330  0.0387 -0.4596
 8761WAT     H236850  -5.834   6.458   8.905  0.6369 -0.1816 -1.0928
 8761WAT    EPW36851  -5.918   6.474   8.921  0.7539 -0.0298 -0.5860
 8762WAT      O36852   7.471   0.954   2.247  0.0620 -0.6303 -0.0487
 8762WAT     H136853   7.470   0.919   2.158  0.9231 -0.8275  0.0040
 8762WAT     H236854   7.559   0.933   2.279  0.2892  0.7785  0.3166
 8762WAT    EPW36855   7.483   0.946   2.239  0.2055 -0.4705  0.0063
 8763WAT      O36856  -2.229   9.208   5.146 -0.3549  0.7158  0.3659
 8763WAT     H136857  -2.264   9.288   5.184  0.0180  2.2009 -2.1564
 8763WAT     H236858  -2.306   9.162   5.111 -0.4748  0.3651  1.0660
 8763WAT    EPW36859  -2.244   9.212   5.146 -0.3215  0.8655  0.1256
 8764WAT      O36860   6.093   0.617   3.178  0.6441  0.1621 -0.3240
 8764WAT     H136861   6.141   0.557   3.120 -3.7190 -1.9657 -2.2640
 8764WAT     H236862   6.121   0.593   3.266  2.4043 -1.5221 -1.2697
 8764WAT    EPW36863   6.103   0.606   3.182  0.3009 -0.3406 -0.7046
 8765WAT      O36864   3.163   5.775   2.205  0.4236 -0.2050 -0.0483
 8765WAT     H136865   3.120   5.743   2.125  1.5033 -1.6980 -0.0841
 8765WAT     H236866   3.250   5.736   2.201  0.5281 -0.2086  1.8148
 8765WAT    EPW36867   3.169   5.766   2.194  0.5797 -0.4022  0.1926
 8766WAT      O36868   4.658   2.535   8.190  0.4806 -0.8879  0.6289
 8766WAT     H136869   4.730   2.475   8.207  0.1346 -1.5909 -0.3294
 8766WAT     H236870   4.668   2.603   8.257  1.2443 -1.6684  1.3366
 8766WAT    EPW36871   4.669   2.536   8.201  0.5357 -1.0836  0.5960
 8767WAT      O36872  -1.226   7.446   1.914  0.5253 -0.4315 -0.4896
 8767WAT     H136873  -1.213   7.353   1.934  0.8494 -0.7880 -2.1334
 8767WAT     H236874  -1.144   7.472   1.871  0.3133  0.5351 -0.3197
 8767WAT    EPW36875  -1.213   7.437   1.911  0.5401 -0.3510 -0.6840
 8768WAT      O36876   0.568   3.741   4.369  0.1056 -0.3093 -0.0564
 8768WAT     H136877   0.556   3.812   4.433 -2.6958 -1.4180  0.8048
 8768WAT     H236878   0.627   3.680   4.413 -0.6068 -0.3441  0.9003
 8768WAT    EPW36879   0.574   3.742   4.383 -0.3578 -0.4601  0.1833
 8769WAT      O36880   3.704   4.293   4.557  0.4102  0.6088 -0.0918
 8769WAT     H136881   3.666   4.306   4.644 -0.1748  2.2538 -0.5501
 8769WAT     H236882   3.788   4.250   4.574  0.5931  1.4590  1.3633
 8769WAT    EPW36883   3.710   4.289   4.571  0.3572  0.9379  0.0396
 8770WAT      O36884  -3.865   6.275   8.525  0.0797  0.0216  0.4903
 8770WAT     H136885  -3.894   6.357   8.567 -0.4211 -0.0835  0.3511
 8770WAT     H236886  -3.928   6.260   8.455  1.4803  0.7314 -0.9857
 8770WAT    EPW36887  -3.877   6.284   8.521  0.1985  0.1013  0.2775
 8771WAT      O36888   3.385   7.006   3.332  0.6317 -0.4834  0.5049
 8771WAT     H136889   3.453   7.066   3.362  0.5418 -0.7509  1.2629
 8771WAT     H236890   3.422   6.966   3.253  0.9079  0.1650  0.2989
 8771WAT    EPW36891   3.399   7.009   3.326  0.6564 -0.4332  0.5777
 8772WAT      O36892  -4.307   8.815   7.994  0.1879  0.1438  0.8569
 8772WAT     H136893  -4.396   8.795   7.967  0.9009 -1.4726 -0.4621
 8772WAT     H236894  -4.276   8.734   8.035  1.9997 -0.4066 -1.3814
 8772WAT    EPW36895  -4.314   8.802   7.996  0.5209 -0.1416  0.3879
 8773WAT      O36896  -1.837  10.076   0.871  0.5201 -0.4101  0.3707
 8773WAT     H136897  -1.801  10.101   0.786 -1.6676  0.7746 -0.2786
 8773WAT     H236898  -1.864  10.158   0.912 -2.6068 -1.1881  0.1789
 8773WAT    EPW36899  -1.836  10.090   0.865 -0.1808 -0.3567  0.2598
 8774WAT      O36900  -1.684   5.240   6.027 -0.7332 -0.1791  0.2155
 8774WAT     H136901  -1.719   5.182   5.959  1.9915 -1.0988 -0.5347
 8774WAT     H236902  -1.683   5.186   6.106  1.9966 -1.3644 -0.5272
 8774WAT    EPW36903  -1.689   5.225   6.028 -0.0138 -0.4566  0.0186
 8775WAT      O36904  -5.326  10.020   7.764  0.0178  0.4746  0.0784
 8775WAT     H136905  -5.396   9.961   7.734 -1.2759  0.2350  3.2191
 8775WAT     H236906  -5.246   9.981   7.728 -1.2740  0.4950 -3.2468
 8775WAT    EPW36907  -5.325  10.007   7.755 -0.3231  0.4463  0.0541
 8776WAT      O36908   1.288   7.660   8.392 -0.7216 -0.2306 -0.1285
 8776WAT     H136909   1.364   7.669   8.450  0.8813 -0.3963 -2.0995
 8776WAT     H236910   1.230   7.731   8.419 -0.6094 -0.9813  2.4007
 8776WAT    EPW36911   1.291   7.671   8.404 -0.4954 -0.3514 -0.0548
 8777WAT      O36912   2.091   8.306   3.286  0.2491  0.6263 -0.0131
 8777WAT     H136913   2.151   8.341   3.352 -0.2987  1.5986 -0.0133
 8777WAT     H236914   2.069   8.382   3.231 -3.8051  1.2615  2.1001
 8777WAT    EPW36915   2.096   8.321   3.287 -0.3579  0.8383  0.2655
 8778WAT      O36916  -6.759   8.443   7.335 -0.1844 -0.1705 -0.4115
 8778WAT     H136917  -6.850   8.438   7.365  0.8502 -2.1390  2.8752
 8778WAT     H236918  -6.739   8.354   7.307  0.8269  0.2087 -0.9302
 8778WAT    EPW36919  -6.769   8.431   7.335  0.0854 -0.3800 -0.0463
 8779WAT      O36920   5.966   6.418   0.345 -0.0804  0.4527 -0.0477
 8779WAT     H136921   6.004   6.498   0.382 -1.3392  1.2108 -0.3362
 8779WAT     H236922   5.986   6.351   0.410 -0.1034  1.2618  0.8203
 8779WAT    EPW36923   5.974   6.420   0.359 -0.2494  0.6592  0.0287
 8780WAT      O36924  -1.632   8.082   6.833  0.3072  0.3517  0.0895
 8780WAT     H136925  -1.724   8.059   6.848  0.5692 -1.2171 -0.4653
 8780WAT     H236926  -1.634   8.166   6.787 -0.7029  2.1643  3.1533
 8780WAT    EPW36927  -1.644   8.090   6.829  0.2086  0.3839  0.4206
 8781WAT      O36928   3.199   0.907   6.755  0.7124  0.3397  0.3164
 8781WAT     H136929   3.108   0.888   6.731 -0.2992  3.3496  1.3185
 8781WAT     H236930   3.192   0.954   6.838  3.2180  0.6807  0.3834
 8781WAT    EPW36931   3.186   0.911   6.763  0.9096  0.7817  0.4573
 8782WAT      O36932   3.909   2.561   7.013  0.2222 -0.6320 -0.0860
 8782WAT     H136933   3.930   2.571   6.920 -0.0409  1.9366  0.0537
 8782WAT     H236934   3.962   2.628   7.057  0.8436 -2.2152  1.7492
 8782WAT    EPW36935   3.919   2.571   7.007  0.2694 -0.5021  0.1743
 8783WAT      O36936  -2.594   3.865   4.733 -0.0810 -0.2519  0.0126
 8783WAT     H136937  -2.515   3.893   4.778 -0.9233 -0.3790  1.6458
 8783WAT     H236938  -2.655   3.938   4.744 -0.4738 -0.4866 -0.5256
 8783WAT    EPW36939  -2.592   3.878   4.740 -0.2440 -0.2997  0.1571
 8784WAT      O36940   2.185   4.446   4.738  0.4684  0.0125  0.0979
 8784WAT     H136941   2.197   4.428   4.831  0.7154 -2.8157 -0.4084
 8784WAT     H236942   2.248   4.389   4.693 -0.3102  0.5787 -1.8460
 8784WAT    EPW36943   2.195   4.436   4.744  0.3983 -0.2859 -0.2253
 8785WAT      O36944   7.736   2.859   1.697  0.1466 -0.1551 -0.3483
 8785WAT     H136945   7.659   2.887   1.746 -2.0949 -2.6690 -2.1545
 8785WAT     H236946   7.768   2.783   1.744 -0.7951 -1.3563 -1.5713
 8785WAT    EPW36947   7.730   2.853   1.709 -0.2732 -0.6452 -0.7479
 8786WAT      O36948   0.979   4.200   1.519  0.0884  0.7916 -0.4008
 8786WAT     H136949   0.970   4.149   1.599  0.7206  0.5461 -0.4737
 8786WAT     H236950   0.912   4.165   1.460  3.1115 -3.0379 -2.0195
 8786WAT    EPW36951   0.969   4.188   1.522  0.5705  0.2542 -0.6239
 8787WAT      O36952   3.399   6.405   0.987  0.5430 -0.0411 -0.2664
 8787WAT     H136953   3.348   6.374   0.912  0.7391 -2.6837  0.6006
 8787WAT     H236954   3.381   6.341   1.057  2.5284  0.7540  1.0709
 8787WAT    EPW36955   3.390   6.392   0.987  0.8308 -0.2847  0.0243
 8788WAT      O36956   2.499   9.355   4.763 -0.5595  0.0458 -0.2090
 8788WAT     H136957   2.525   9.439   4.724 -1.6078  0.4752 -0.0146
 8788WAT     H236958   2.452   9.309   4.693  1.2265 -1.0193 -0.7753
 8788WAT    EPW36959   2.496   9.360   4.749 -0.4622 -0.0381 -0.2580
 8789WAT      O36960   0.449   1.529   3.070  0.4269 -0.1346  0.1315
 8789WAT     H136961   0.418   1.573   2.991 -0.1401  1.1294  1.0123
 8789WAT     H236962   0.415   1.440   3.062  0.4515 -0.0582 -1.0773
 8789WAT    EPW36963   0.440   1.523   3.059  0.3553  0.0422  0.0882
 8790WAT      O36964  -4.274   8.223   5.956 -0.1271  0.0147 -0.4323
 8790WAT     H136965  -4.321   8.162   6.012 -0.1775  1.3766  1.0899
 8790WAT     H236966  -4.242   8.170   5.883 -3.7262 -1.0415 -1.4123
 8790WAT    EPW36967  -4.276   8.208   5.954 -0.6087  0.0548 -0.3607
 8791WAT      O36968  -1.622  10.307   3.091 -0.0995  0.2021 -0.9338
 8791WAT     H136969  -1.611  10.319   3.185 -0.9209 -0.4563 -0.7368
 8791WAT     H236970  -1.717  10.303   3.079 -0.0392  1.4340 -1.9521
 8791WAT    EPW36971  -1.633  10.308   3.102 -0.1999  0.2770 -1.0421
 8792WAT      O36972   5.663  10.173   0.317  0.0162  0.2026 -0.5928
 8792WAT     H136973   5.649  10.235   0.246  3.3152  1.9902  0.1035
 8792WAT     H236974   5.594  10.193   0.380 -1.4021  0.3516 -2.1344
 8792WAT    EPW36975   5.652  10.184   0.316  0.2642  0.4582 -0.7043
 8793WAT      O36976   2.034  10.339   2.323  0.1865  0.4429 -0.4032
 8793WAT     H136977   2.107  10.381   2.370  1.7965 -0.8284 -1.6334
 8793WAT     H236978   1.972  10.316   2.392  1.3735  0.7609  0.8274
 8793WAT    EPW36979   2.036  10.342   2.338  0.5554  0.3171 -0.4032
 8794WAT      O36980   5.336   0.211   4.608  0.0574  1.1858  0.1925
 8794WAT     H136981   5.346   0.295   4.654  1.2961  1.6340 -0.8297
 8794WAT     H236982   5.247   0.182   4.630  0.7059  1.1513  3.1856
 8794WAT    EPW36983   5.325   0.218   4.617  0.3064  1.2404  0.4525
 8795WAT      O36984  -2.978   9.741   1.387 -0.4380  0.1151  0.3904
 8795WAT     H136985  -2.918   9.780   1.451 -1.1588  0.0312  1.1261
 8795WAT     H236986  -2.940   9.764   1.302  0.2284  0.7068  0.8357
 8795WAT    EPW36987  -2.965   9.749   1.384 -0.4452  0.1822  0.5462
 8796WAT      O36988  -3.460   8.422   1.739  0.1192  0.2619  0.1873
 8796WAT     H136989  -3.483   8.330   1.754  3.3768 -0.5172  1.1604
 8796WAT     H236990  -3.463   8.432   1.644 -0.8621 -0.6635  0.1005
 8796WAT    EPW36991  -3.464   8.411   1.728  0.4194  0.0372  0.3042
 8797WAT      O36992   5.632   0.589   0.284 -0.9775 -0.3744 -0.2842
 8797WAT     H136993   5.681   0.592   0.367 -0.6121 -2.4089 -0.3804
 8797WAT     H236994   5.695   0.615   0.218 -0.0950 -2.4096 -0.3316
 8797WAT    EPW36995   5.646   0.593   0.286 -0.8128 -0.9112 -0.3031
 8798WAT      O36996  -0.362   9.473   0.029  0.0218  0.7124  0.3173
 8798WAT     H136997  -0.339   9.473  -0.064  2.7262  1.9399  0.8828
 8798WAT     H236998  -0.295   9.417   0.070  0.4304  2.1801  1.7783
 8798WAT    EPW36999  -0.350   9.465   0.023  0.4324  1.0676  0.5846
 8799WAT      O37000  -3.585   0.909   6.935 -0.0337  0.2565  0.3992
 8799WAT     H137001  -3.559   0.928   6.844  1.1966  2.5161  1.1446
 8799WAT     H237002  -3.680   0.895   6.930  0.1893 -1.0137 -1.3832
 8799WAT    EPW37003  -3.594   0.910   6.922  0.1580  0.3870  0.2623
 8800WAT      O37004   6.348   3.482   5.561  0.9607  0.4976 -0.6717
 8800WAT     H137005   6.344   3.391   5.590 -1.0130  0.7262 -0.0961
 8800WAT     H237006   6.374   3.476   5.469  3.2244 -0.4649 -0.0557
 8800WAT    EPW37007   6.351   3.469   5.553  0.9990  0.4008 -0.5145
 8801WAT      O37008  -2.155   7.517   3.451  0.6335  0.2529 -0.2011
 8801WAT     H137009  -2.102   7.491   3.526 -0.4285 -0.5168  0.3063
 8801WAT     H237010  -2.100   7.580   3.404  1.0618  1.2935  1.5872
 8801WAT    EPW37011  -2.141   7.522   3.455  0.5499  0.2885  0.1016
 8802WAT      O37012  -1.554   9.136   2.102  0.4626 -0.3394  0.1453
 8802WAT     H137013  -1.536   9.107   2.013 -0.6152 -1.3456  0.2293
 8802WAT     H237014  -1.562   9.054   2.152  2.3592  0.2104  1.4579
 8802WAT    EPW37015  -1.553   9.121   2.097  0.5707 -0.4001  0.3295
 8803WAT      O37016  -1.489   9.345   2.743  0.1053  0.5258 -0.3834
 8803WAT     H137017  -1.427   9.401   2.696  0.4349  0.4135 -0.0814
 8803WAT     H237018  -1.570   9.396   2.745  0.7996  1.6218  1.1720
 8803WAT    EPW37019  -1.492   9.359   2.737  0.2403  0.6552 -0.1385
 8804WAT      O37020   0.353   9.376   1.372  0.1744  0.4170  0.1510
 8804WAT     H137021   0.370   9.298   1.426 -0.6769 -0.4280 -0.7703
 8804WAT     H237022   0.262   9.398   1.390  0.1032  0.5699 -0.3852
 8804WAT    EPW37023   0.343   9.368   1.382  0.0527  0.3257 -0.0412
 8805WAT      O37024  -4.173   4.977   6.394  0.1904 -0.1155 -0.0380
 8805WAT     H137025  -4.191   4.995   6.302 -1.2014  0.4754  0.3186
 8805WAT     H237026  -4.082   5.003   6.407 -0.3274  2.2532 -0.6819
 8805WAT    EPW37027  -4.163   4.983   6.384 -0.0613  0.2749 -0.0758
 8806WAT      O37028  -2.529   9.584   5.369  0.1221  0.3653  0.7049
 8806WAT     H137029  -2.597   9.637   5.328  0.6234  1.9273  1.7649
 8806WAT     H237030  -2.494   9.640   5.439  0.7497 -1.3569  1.8530
 8806WAT    EPW37031  -2.533   9.598   5.373  0.2710  0.3443  0.9961
 8807WAT      O37032   3.241   3.185   5.396  0.0751 -0.4709 -0.4448
 8807WAT     H137033   3.241   3.224   5.309  2.6400  1.4664  0.3245
 8807WAT     H237034   3.324   3.137   5.401  1.1371  1.3956  1.6537
 8807WAT    EPW37035   3.252   3.184   5.385  0.5535  0.0308 -0.0665
 8808WAT      O37036   0.970   2.497   6.877 -0.3923  0.8871  0.4034
 8808WAT     H137037   1.034   2.495   6.806  0.0699  2.1440  0.7624
 8808WAT     H237038   0.901   2.555   6.846 -0.6249  0.7383  0.6359
 8808WAT    EPW37039   0.969   2.504   6.864 -0.3620  1.0333  0.4814
 8809WAT      O37040   8.488   2.652   0.275 -0.3352 -0.0199 -0.3586
 8809WAT     H137041   8.493   2.580   0.212 -0.0371 -0.0527 -0.3011
 8809WAT     H237042   8.547   2.625   0.346 -1.5086 -0.4942  0.4544
 8809WAT    EPW37043   8.497   2.639   0.276 -0.4506 -0.0868 -0.2438
 8810WAT      O37044  -1.303   2.278   2.954  0.0884  0.2308  0.8057
 8810WAT     H137045  -1.351   2.299   3.034  0.8352  0.0949  1.3003
 8810WAT     H237046  -1.245   2.205   2.979  0.3926  0.2445  0.1664
 8810WAT    EPW37047  -1.301   2.271   2.968  0.2270  0.2146  0.7867
 8811WAT      O37048  -6.482   7.952   6.807  0.0139  0.6237  0.3021
 8811WAT     H137049  -6.502   8.045   6.795 -0.8248  0.6755  1.8523
 8811WAT     H237050  -6.545   7.907   6.750  0.3615  0.9750 -0.3837
 8811WAT    EPW37051  -6.493   7.959   6.798 -0.0508  0.6771  0.4160
 8812WAT      O37052  -4.001   7.995   5.057  0.1552  0.9077 -0.1508
 8812WAT     H137053  -4.010   8.078   5.010  2.0460  0.1179 -2.0895
 8812WAT     H237054  -3.908   7.973   5.048 -0.4125 -1.7290 -0.2670
 8812WAT    EPW37055  -3.990   8.003   5.050  0.3297  0.4554 -0.4218
 8813WAT      O37056  -0.780   9.120   3.109 -0.0707  0.9513 -0.2432
 8813WAT     H137057  -0.870   9.090   3.123 -0.0951  1.4687  0.8479
 8813WAT     H237058  -0.783   9.214   3.125  1.2518  0.5455  3.4064
 8813WAT    EPW37059  -0.792   9.128   3.113  0.1006  0.9661  0.3819
 8814WAT      O37060   0.334   4.452   4.247  0.1655 -0.5327  0.1126
 8814WAT     H137061   0.364   4.441   4.156  2.4263 -0.1457  0.7388
 8814WAT     H237062   0.376   4.533   4.276 -0.8778 -0.4210  1.3793
 8814WAT    EPW37063   0.344   4.461   4.239  0.3261 -0.4671  0.3622
 8815WAT      O37064  -1.342   4.389   0.460 -0.5293 -0.7940  0.5324
 8815WAT     H137065  -1.402   4.370   0.388  1.0969 -2.4396 -0.4647
 8815WAT     H237066  -1.255   4.383   0.421  0.3953  3.0975  1.5247
 8815WAT    EPW37067  -1.338   4.386   0.445 -0.1929 -0.4981  0.5318
 8816WAT      O37068   4.868   9.118   1.914 -0.2649  0.4191 -0.0837
 8816WAT     H137069   4.826   9.033   1.900  1.1303 -0.1466 -1.1049
 8816WAT     H237070   4.829   9.175   1.848  0.0848  0.0555 -0.6247
 8816WAT    EPW37071   4.857   9.114   1.903 -0.0348  0.2966 -0.2897
 8817WAT      O37072   5.853   2.308   3.928 -0.2443  0.1371 -0.3650
 8817WAT     H137073   5.911   2.296   4.003 -1.0373  1.9540  0.6028
 8817WAT     H237074   5.900   2.268   3.855  0.4125 -1.9782  1.1250
 8817WAT    EPW37075   5.867   2.301   3.928 -0.2623  0.0978 -0.0408
 8818WAT      O37076   1.369   2.841   6.740  0.3042 -0.4829 -0.4425
 8818WAT     H137077   1.379   2.756   6.782 -1.4713 -2.2062 -3.1652
 8818WAT     H237078   1.280   2.869   6.761  0.3564 -0.0364 -0.7845
 8818WAT    EPW37079   1.359   2.834   6.748  0.0768 -0.6512 -0.8466
 8819WAT      O37080  -1.285   4.174   5.180 -0.5002  0.6091 -0.1931
 8819WAT     H137081  -1.319   4.252   5.137  0.9221  0.5489 -1.5000
 8819WAT     H237082  -1.328   4.101   5.133 -0.6479  0.5755 -0.0073
 8819WAT    EPW37083  -1.295   4.175   5.168 -0.3320  0.5968 -0.3409
 8820WAT      O37084   4.988   0.484   7.468  0.2622  0.1520 -0.3350
 8820WAT     H137085   4.951   0.560   7.514 -0.2964 -0.2654 -0.0839
 8820WAT     H237086   4.954   0.408   7.515  0.5960 -0.2613 -0.7514
 8820WAT    EPW37087   4.978   0.484   7.480  0.2327  0.0424 -0.3567
 8821WAT      O37088   3.815   0.296   4.159  0.0228  0.0637  0.5210
 8821WAT     H137089   3.812   0.376   4.211  0.8386 -0.1861  0.9558
 8821WAT     H237090   3.798   0.225   4.221 -1.4019 -0.0764  0.0231
 8821WAT    EPW37091   3.812   0.297   4.174 -0.0573  0.0123  0.5128
 8822WAT      O37092   4.784   0.800   5.649 -0.5184  0.4138 -0.3586
 8822WAT     H137093   4.811   0.743   5.721 -2.3238 -0.2628 -0.1809
 8822WAT     H237094   4.756   0.881   5.692  1.0281  1.0824 -0.5378
 8822WAT    EPW37095   4.784   0.804   5.664 -0.5524  0.4128 -0.3588
 8823WAT      O37096   2.286   0.679   8.726 -0.0899 -0.5697  0.3841
 8823WAT     H137097   2.293   0.745   8.657 -0.4429 -0.4931  0.4182
 8823WAT     H237098   2.365   0.626   8.717  0.3299  0.0221  0.5267
 8823WAT    EPW37099   2.298   0.681   8.716 -0.0811 -0.4815  0.4072
 8824WAT      O37100  -4.468   9.491   2.159  0.3685 -0.1210 -0.1322
 8824WAT     H137101  -4.441   9.416   2.211 -1.6046 -0.5246  0.3819
 8824WAT     H237102  -4.390   9.548   2.156  1.7111 -1.8758 -0.0452
 8824WAT    EPW37103  -4.454   9.489   2.165  0.2851 -0.4053 -0.0529
 8825WAT      O37104  -6.630   9.614   7.250 -1.1233  0.1146  0.4604
 8825WAT     H137105  -6.609   9.676   7.320  0.5127  0.0745  0.0389
 8825WAT     H237106  -6.586   9.533   7.275 -0.8620 -0.0233 -0.4036
 8825WAT    EPW37107  -6.621   9.612   7.262 -0.8731  0.0911  0.2909
 8826WAT      O37108  -4.333   9.758   8.231 -0.4512  0.0001  0.3502
 8826WAT     H137109  -4.287   9.675   8.241  1.2500  0.7577 -0.6452
 8826WAT     H237110  -4.360   9.782   8.320  0.2864 -0.9428  0.8448
 8826WAT    EPW37111  -4.331   9.750   8.244 -0.1297 -0.0243  0.2837
 8827WAT      O37112  -3.711   5.022   8.314 -0.2124  0.1417  0.4060
 8827WAT     H137113  -3.736   5.113   8.330  0.2324 -0.0708  2.5991
 8827WAT     H237114  -3.790   4.981   8.282 -0.1952  1.4566 -1.5378
 8827WAT    EPW37115  -3.724   5.029   8.312 -0.1515  0.2873  0.4387
 8828WAT      O37116   1.801   2.836   8.494 -0.0746  0.1153 -0.1542
 8828WAT     H137117   1.722   2.888   8.478 -0.3248 -0.7981 -2.1643
 8828WAT     H237118   1.857   2.852   8.418  0.8574 -0.7410  0.3220
 8828WAT    EPW37119   1.798   2.845   8.482  0.0153 -0.1181 -0.3562
 8829WAT      O37120  -0.183   5.667   2.883 -0.7736 -0.3624  0.4495
 8829WAT     H137121  -0.216   5.618   2.808 -1.3197 -2.1357  1.7791
 8829WAT     H237122  -0.088   5.662   2.876 -0.7958  0.4965 -0.7195
 8829WAT    EPW37123  -0.175   5.660   2.872 -0.8486 -0.4830  0.4708
 8830WAT      O37124   0.303   1.841   8.356 -0.2583 -0.4909  0.2192
 8830WAT     H137125   0.222   1.890   8.363  0.0081  0.1978 -1.0875
 8830WAT     H237126   0.316   1.830   8.262  3.5880  3.6566 -0.0465
 8830WAT    EPW37127   0.294   1.846   8.344  0.2842  0.1469  0.0114
 8831WAT      O37128   4.079   7.223   4.326  0.3100  0.2265  0.3053
 8831WAT     H137129   4.060   7.189   4.239 -1.4468  0.7722  0.4296
 8831WAT     H237130   3.997   7.266   4.353  0.1784 -1.4693  2.9566
 8831WAT    EPW37131   4.065   7.224   4.318  0.0610  0.0749  0.6716
 8832WAT      O37132  -0.331   8.342   5.917 -0.2013  0.8838  0.2164
 8832WAT     H137133  -0.286   8.269   5.875 -2.1388  0.2902 -0.9445
 8832WAT     H237134  -0.329   8.322   6.010 -3.9956 -2.8351 -0.1948
 8832WAT    EPW37135  -0.325   8.330   5.924 -0.9573  0.3152  0.0088
 8833WAT      O37136   8.661   0.813   1.549 -0.1019  0.7621 -0.1763
 8833WAT     H137137   8.612   0.844   1.625 -0.7609  1.8760 -1.0367
 8833WAT     H237138   8.604   0.832   1.474  2.1012  3.2454 -1.3665
 8833WAT    EPW37139   8.647   0.819   1.549  0.1020  1.2366 -0.4467
 8834WAT      O37140   6.591   1.258   0.455 -0.6184 -0.7102 -0.8647
 8834WAT     H137141   6.569   1.172   0.490  0.2500 -1.2505 -1.6373
 8834WAT     H237142   6.550   1.260   0.368 -0.1645 -0.5555 -1.0760
 8834WAT    EPW37143   6.583   1.247   0.448 -0.4442 -0.7610 -0.9945
 8835WAT      O37144  -1.574   5.097   2.598 -0.3895  0.0812  1.0931
 8835WAT     H137145  -1.531   5.034   2.541  0.4692 -2.1605  3.9595
 8835WAT     H237146  -1.636   5.142   2.541 -0.4948 -2.7970 -1.3432
 8835WAT    EPW37147  -1.577   5.095   2.583 -0.2902 -0.5939  1.1498
 8836WAT      O37148  -1.711   8.377   1.191  0.5688  0.2564 -0.7721
 8836WAT     H137149  -1.747   8.302   1.142  0.9595 -0.4871  0.0507
 8836WAT     H237150  -1.764   8.451   1.162 -1.9417 -0.8418  0.6508
 8836WAT    EPW37151  -1.723   8.377   1.180  0.2892  0.0134 -0.4759
 8837WAT      O37152   3.202   7.188   3.252 -0.2891  0.4119  0.4910
 8837WAT     H137153   3.255   7.109   3.263 -1.2195 -0.3007 -0.0348
 8837WAT     H237154   3.158   7.177   3.168  0.8951  2.3032 -0.4626
 8837WAT    EPW37155   3.203   7.176   3.243 -0.2556  0.5674  0.2960
 8838WAT      O37156   7.710   2.087   2.540  0.6681  0.1287  0.1805
 8838WAT     H137157   7.657   2.145   2.485  0.5441  1.3053  1.5012
 8838WAT     H237158   7.651   2.059   2.610  1.7291  1.5154  1.7200
 8838WAT    EPW37159   7.695   2.091   2.542  0.7918  0.4668  0.5577
 8839WAT      O37160   1.351   5.015   4.678 -0.7781 -0.7045 -0.7252
 8839WAT     H137161   1.300   4.947   4.724 -1.7178  0.6469  0.3092
 8839WAT     H237162   1.406   5.052   4.747  0.3330 -0.9498 -1.4690
 8839WAT    EPW37163   1.351   5.011   4.693 -0.7554 -0.5586 -0.6869
 8840WAT      O37164   5.257   1.104   0.092  0.3493 -1.1083 -0.1636
 8840WAT     H137165   5.233   1.165   0.162 -2.5274 -0.7644 -1.2930
 8840WAT     H237166   5.305   1.157   0.029 -1.7899  0.0498 -0.9527
 8840WAT    EPW37167   5.260   1.119   0.093 -0.3121 -0.9102 -0.4166
 8841WAT      O37168  -1.713   0.421   4.092  0.0388 -0.7336  0.5205
 8841WAT     H137169  -1.621   0.443   4.103  0.0154 -0.6556  0.5580
 8841WAT     H237170  -1.760   0.503   4.107  0.1054 -0.1255 -2.1187
 8841WAT    EPW37171  -1.707   0.435   4.095  0.0445 -0.6431  0.1774
 8842WAT      O37172  -3.378   6.750   5.691  0.0401 -0.1918  0.7120
 8842WAT     H137173  -3.362   6.772   5.783 -1.6328 -1.3841  1.3271
 8842WAT     H237174  -3.359   6.657   5.685 -2.0608 -0.6486  0.4299
 8842WAT    EPW37175  -3.373   6.741   5.702 -0.4575 -0.4094  0.7558
 8843WAT      O37176  -0.120   1.436   7.865 -0.2167  0.5697 -0.0847
 8843WAT     H137177  -0.099   1.456   7.774  3.1212 -0.1866  0.3928
 8843WAT     H237178  -0.174   1.357   7.860  0.4565  0.1607 -1.3843
 8843WAT    EPW37179  -0.125   1.428   7.852  0.3123  0.4160 -0.1929
 8844WAT      O37180   5.274   0.819   1.852  0.2616  0.4625  0.1746
 8844WAT     H137181   5.275   0.895   1.794  1.8679  2.2746  2.3882
 8844WAT     H237182   5.259   0.744   1.794 -0.1665  2.3250 -2.2660
 8844WAT    EPW37183   5.272   0.819   1.837  0.4170  0.9471  0.1447
 8845WAT      O37184  -0.595  10.292   3.819  0.5096  0.2990  1.1985
 8845WAT     H137185  -0.606  10.380   3.781  1.8776  1.2080  2.8107
 8845WAT     H237186  -0.501  10.276   3.814  0.2172 -1.3378  0.4527
 8845WAT    EPW37187  -0.584  10.302   3.813  0.6515  0.2031  1.3127
 8846WAT      O37188   3.030   7.402   7.010  0.1251 -0.0415 -0.5449
 8846WAT     H137189   2.946   7.445   7.026  0.6087  0.7885 -0.1638
 8846WAT     H237190   3.055   7.365   7.095  0.1068 -0.3672 -0.6790
 8846WAT    EPW37191   3.022   7.403   7.023  0.1864  0.0248 -0.5121
 8847WAT      O37192  -1.675   5.890   6.370  0.1246 -0.1378  0.5843
 8847WAT     H137193  -1.590   5.851   6.391 -0.1610 -0.5560  0.9812
 8847WAT     H237194  -1.686   5.874   6.276  0.8117  0.5681  0.3695
 8847WAT    EPW37195  -1.665   5.883   6.360  0.1776 -0.0999  0.6082
 8848WAT      O37196  -2.879   9.914   1.668 -0.7196 -0.2659  0.1993
 8848WAT     H137197  -2.914   9.827   1.689 -0.4014 -0.6033 -0.6405
 8848WAT     H237198  -2.816   9.932   1.737  0.4868 -1.4650 -0.5459
 8848WAT    EPW37199  -2.876   9.905   1.680 -0.5186 -0.4687 -0.0098
 8849WAT      O37200   5.246   6.801   2.208  0.2071  0.2140 -0.0242
 8849WAT     H137201   5.261   6.713   2.173  1.3545 -0.4254  1.9169
 8849WAT     H237202   5.195   6.786   2.288  0.4774  1.3004  0.3700
 8849WAT    EPW37203   5.241   6.787   2.214  0.3939  0.2730  0.2838
 8850WAT      O37204  -2.225   6.228   7.228 -0.0726 -0.3985  0.1899
 8850WAT     H137205  -2.321   6.224   7.227 -0.0560 -0.9786  0.5155
 8850WAT     H237206  -2.205   6.320   7.210 -0.6009 -0.9372 -4.1012
 8850WAT    EPW37207  -2.235   6.240   7.226 -0.1401 -0.5462 -0.3331
 8851WAT      O37208  -4.604   7.074   4.403 -0.2235 -0.5819 -0.0677
 8851WAT     H137209  -4.699   7.064   4.415 -0.0552 -0.5071  1.6734
 8851WAT     H237210  -4.577   7.131   4.475  1.0272  0.1544 -1.0824
 8851WAT    EPW37211  -4.613   7.080   4.414 -0.0362 -0.4749  0.0281
 8852WAT      O37212   7.416   6.315   1.690  0.7976  1.0556  0.1674
 8852WAT     H137213   7.366   6.284   1.615  0.4902  3.0617 -0.5058
 8852WAT     H237214   7.491   6.255   1.695 -1.5343 -2.0584  1.2303
 8852WAT    EPW37215   7.419   6.303   1.681  0.4497  0.9093  0.2189
 8853WAT      O37216  -0.117  10.033   6.543  0.3750  0.2554 -0.1821
 8853WAT     H137217  -0.058  10.095   6.501  1.3633 -0.8154 -0.4327
 8853WAT     H237218  -0.100   9.950   6.498 -0.1865 -0.4163  0.8101
 8853WAT    EPW37219  -0.107  10.030   6.532  0.4313  0.0257 -0.0844
 8854WAT      O37220   3.546   1.756   8.215  0.4747  0.5807  0.6166
 8854WAT     H137221   3.590   1.837   8.188 -1.2289  1.2379 -0.3503
 8854WAT     H237222   3.526   1.711   8.132  0.4163 -0.3047  1.0923
 8854WAT    EPW37223   3.549   1.760   8.200  0.2422  0.5506  0.5517
 8855WAT      O37224   6.737   5.157   3.448  0.5287  0.3442  0.6308
 8855WAT     H137225   6.686   5.238   3.454 -2.3275 -1.0851 -1.7720
 8855WAT     H237226   6.700   5.101   3.517  2.0095  0.7594  1.8142
 8855WAT    EPW37227   6.725   5.161   3.458  0.3471  0.2105  0.4699
 8856WAT      O37228   6.067   6.691   0.859  0.0518 -0.3546  0.6920
 8856WAT     H137229   5.994   6.708   0.801 -0.8673  0.3628  1.9970
 8856WAT     H237230   6.070   6.596   0.867  1.1852 -0.5907 -1.6762
 8856WAT    EPW37231   6.058   6.681   0.853  0.0803 -0.2911  0.5518
 8857WAT      O37232   4.662   5.666   2.076 -0.1092 -0.0672  0.4213
 8857WAT     H137233   4.729   5.733   2.092  1.8398 -1.1370 -2.3654
 8857WAT     H237234   4.685   5.596   2.137  1.2828 -0.3459 -0.3691
 8857WAT    EPW37235   4.674   5.666   2.086  0.3316 -0.2451 -0.0504
 8858WAT      O37236   2.790   4.653   3.730 -0.5157  0.4607  0.1102
 8858WAT     H137237   2.764   4.563   3.749 -2.9945  0.7295 -1.4882
 8858WAT     H237238   2.720   4.707   3.768  0.8766  1.7466  0.9534
 8858WAT    EPW37239   2.777   4.649   3.737 -0.6589  0.6659  0.0106
 8859WAT      O37240  -3.947   8.190   2.752 -0.7554 -0.6556 -0.3204
 8859WAT     H137241  -4.038   8.171   2.776 -0.4455 -0.8914  0.7435
 8859WAT     H237242  -3.896   8.146   2.820  0.1375 -0.0199 -0.5725
 8859WAT    EPW37243  -3.952   8.181   2.764 -0.5968 -0.6027 -0.2134
 8860WAT      O37244  -3.744   5.361   7.809 -0.7088  0.0031 -0.2651
 8860WAT     H137245  -3.755   5.453   7.830 -0.7982 -0.7231  3.4989
 8860WAT     H237246  -3.833   5.328   7.796 -0.8616  0.0337  0.6375
 8860WAT    EPW37247  -3.757   5.369   7.810 -0.7408 -0.0887  0.3507
 8861WAT      O37248   1.868   0.140   7.117 -0.7199  0.3703 -0.6032
 8861WAT     H137249   1.866   0.097   7.031  2.5284 -2.4740  0.4982
 8861WAT     H237250   1.960   0.137   7.142 -1.2343  3.0116  2.1607
 8861WAT    EPW37251   1.880   0.134   7.109 -0.3594  0.3435 -0.0935
 8862WAT      O37252  -3.373   7.540   3.150  0.0694  0.0551 -0.5917
 8862WAT     H137253  -3.312   7.607   3.180  0.7615 -0.1453 -1.5110
 8862WAT     H237254  -3.343   7.459   3.192  2.0610 -0.5640 -2.9847
 8862WAT    EPW37255  -3.361   7.538   3.159  0.4234 -0.0529 -1.0285
 8863WAT      O37256   5.973   9.177   2.019 -0.2719  0.5175 -0.0928
 8863WAT     H137257   5.935   9.204   2.102 -1.6765 -0.3575 -0.4206
 8863WAT     H237258   5.993   9.084   2.031  1.6801  0.8896  0.0037
 8863WAT    EPW37259   5.971   9.168   2.032 -0.1996  0.4506 -0.1233
 8864WAT      O37260  -0.828   4.918   7.823  0.3817  0.2062  0.4209
 8864WAT     H137261  -0.868   4.885   7.743  0.9210  0.1513  0.1667
 8864WAT     H237262  -0.843   5.012   7.820  0.5246  0.2228  0.1808
 8864WAT    EPW37263  -0.835   4.926   7.812  0.4716  0.2012  0.3557
 8865WAT      O37264   0.290   5.168   5.966 -0.0861  0.5582  0.1886
 8865WAT     H137265   0.214   5.156   5.909 -1.8049  0.7970  2.2886
 8865WAT     H237266   0.357   5.208   5.909 -1.0941 -0.7033 -2.0078
 8865WAT    EPW37267   0.289   5.172   5.951 -0.4458  0.4234  0.1760
 8866WAT      O37268  -5.412  10.148   5.733 -0.0355  0.6036 -0.0388
 8866WAT     H137269  -5.475  10.088   5.773 -0.9644  1.4728 -0.1499
 8866WAT     H237270  -5.357  10.092   5.679 -0.4050 -0.2458  0.4422
 8866WAT    EPW37271  -5.413  10.132   5.732 -0.2067  0.6065  0.0100
 8867WAT      O37272   2.697   8.767   8.400  0.0965  0.1873  0.9374
 8867WAT     H137273   2.613   8.741   8.363  1.6030 -1.8492 -1.3876
 8867WAT     H237274   2.707   8.859   8.374  0.5782 -0.8374 -3.1407
 8867WAT    EPW37275   2.687   8.776   8.392  0.3588 -0.2170  0.0930
 8868WAT      O37276   4.044   8.651   5.146  0.3709 -0.2290 -0.0824
 8868WAT     H137277   4.038   8.745   5.162  1.6184 -0.3188  1.1590
 8868WAT     H237278   4.114   8.642   5.081  1.6702 -0.3536  1.2511
 8868WAT    EPW37279   4.053   8.662   5.140  0.7069 -0.2575  0.2570
 8869WAT      O37280   1.448   5.696   2.559 -0.4176  0.3872 -0.3381
 8869WAT     H137281   1.502   5.751   2.616  3.2950 -3.1012  0.0172
 8869WAT     H237282   1.475   5.720   2.470 -0.9272  1.0018 -0.3342
 8869WAT    EPW37283   1.459   5.706   2.555  0.0049  0.0081 -0.2908
 8870WAT      O37284  -1.815   6.097   6.530 -0.0851  0.1401  0.2612
 8870WAT     H137285  -1.749   6.037   6.495 -1.1205 -0.1434 -1.2909
 8870WAT     H237286  -1.847   6.145   6.454 -0.4383  1.5403  1.2374
 8870WAT    EPW37287  -1.810   6.096   6.516 -0.2682  0.2875  0.1850
 8871WAT      O37288   5.081   1.348   6.263 -0.0868 -0.4663  0.1640
 8871WAT     H137289   5.142   1.274   6.259 -0.2705 -0.6161  0.1391
 8871WAT     H237290   5.133   1.423   6.235  0.3312 -0.4417  0.9805
 8871WAT    EPW37291   5.096   1.348   6.259 -0.0558 -0.4828  0.2685
 8872WAT      O37292  -0.893   7.466   2.879 -0.2403  0.7409 -0.2140
 8872WAT     H137293  -0.987   7.473   2.863 -0.3502  2.1496  0.7964
 8872WAT     H237294  -0.852   7.497   2.799 -0.6072 -0.3934 -0.8618
 8872WAT    EPW37295  -0.900   7.471   2.867 -0.3032  0.7772 -0.1662
 8873WAT      O37296   5.489   8.151   2.984 -0.5535 -0.5814  0.5016
 8873WAT     H137297   5.520   8.129   3.072  0.8629 -0.1116  0.1404
 8873WAT     H237298   5.566   8.141   2.928 -1.0517  0.5997 -0.4399
 8873WAT    EPW37299   5.503   8.146   2.988 -0.4325 -0.3633  0.3297
 8874WAT      O37300  -5.681   7.607   5.221 -0.4216 -0.1572 -0.5732
 8874WAT     H137301  -5.641   7.542   5.279  1.2064 -1.6924 -3.2312
 8874WAT     H237302  -5.615   7.677   5.215  0.3925 -1.0093 -2.1497
 8874WAT    EPW37303  -5.667   7.608   5.228 -0.0994 -0.4721 -1.1318
 8875WAT      O37304   1.494   8.910   0.937  0.5829  0.4556 -0.8108
 8875WAT     H137305   1.449   8.898   1.021 -2.9396  2.1460 -2.2114
 8875WAT     H237306   1.459   8.840   0.881 -0.2545  1.6652 -1.8795
 8875WAT    EPW37307   1.483   8.900   0.940  0.0079  0.8378 -1.1365
 8876WAT      O37308   4.956   5.560   2.553 -0.1875 -0.2418 -0.2642
 8876WAT     H137309   4.869   5.548   2.590 -0.3198  0.7723 -0.2083
 8876WAT     H237310   4.980   5.650   2.576  1.8690 -1.1934  1.7784
 8876WAT    EPW37311   4.948   5.571   2.561  0.0663 -0.2337  0.0126
 8877WAT      O37312   3.686   7.210   2.685 -0.3716  0.0501  0.8942
 8877WAT     H137313   3.659   7.300   2.703 -0.9215 -0.6495  4.2013
 8877WAT     H237314   3.778   7.207   2.711  0.2491  0.0514 -1.1065
 8877WAT    EPW37315   3.694   7.222   2.690 -0.3623 -0.0422  1.0664
 8878WAT      O37316   1.464   5.146   6.556  0.0080  0.5552  0.2479
 8878WAT     H137317   1.389   5.110   6.603 -0.0182  0.4602  0.1352
 8878WAT     H237318   1.533   5.081   6.570 -0.0112  0.5072  0.1243
 8878WAT    EPW37319   1.463   5.133   6.564  0.0020  0.5362  0.2165
 8879WAT      O37320  -5.002   8.340   5.570  0.1436 -1.3236  0.1110
 8879WAT     H137321  -5.089   8.338   5.610 -1.5418  0.0335 -3.1486
 8879WAT     H237322  -4.944   8.368   5.641 -2.7530  2.0652  1.4564
 8879WAT    EPW37323  -5.006   8.343   5.584 -0.4606 -0.6981 -0.1416
 8880WAT      O37324   2.766   9.099   1.378  0.0636  0.7200 -0.1537
 8880WAT     H137325   2.781   9.193   1.388 -0.5204  0.7792  0.2491
 8880WAT     H237326   2.848   9.065   1.344  0.9617  1.0825  1.5209
 8880WAT    EPW37327   2.779   9.107   1.375  0.1051  0.7758  0.1203
 8881WAT      O37328  -0.552   6.312   8.522 -0.3566  0.0313 -0.3394
 8881WAT     H137329  -0.525   6.355   8.603 -1.0299  1.4923 -0.8378
 8881WAT     H237330  -0.500   6.232   8.518  0.6797  0.6102  0.8480
 8881WAT    EPW37331  -0.541   6.307   8.532 -0.3088  0.3002 -0.2484
 8882WAT      O37332  -5.272   8.640   5.569  0.0994  0.1603 -0.1843
 8882WAT     H137333  -5.275   8.705   5.639 -1.9410 -0.0757  0.0164
 8882WAT     H237334  -5.351   8.657   5.518 -0.0179 -1.5886 -0.6404
 8882WAT    EPW37335  -5.283   8.651   5.572 -0.1853 -0.1011 -0.2182
 8883WAT      O37336   3.942   4.378   6.851 -0.0776 -0.1758 -1.0632
 8883WAT     H137337   3.859   4.426   6.847 -0.6924 -1.1843 -0.7603
 8883WAT     H237338   4.009   4.446   6.860 -0.6058  0.8356 -3.8933
 8883WAT    EPW37339   3.940   4.393   6.852 -0.2284 -0.1757 -1.3967
 8884WAT      O37340  -0.152   9.120   5.147 -0.3457  0.3707  0.3267
 8884WAT     H137341  -0.069   9.079   5.171  0.5330  2.0897  0.3976
 8884WAT     H237342  -0.141   9.145   5.055 -0.8692  0.4059  0.2692
 8884WAT    EPW37343  -0.140   9.118   5.138 -0.2988  0.6018  0.3285
 8885WAT      O37344   5.382   4.455   4.926 -0.5709  0.1699  0.1559
 8885WAT     H137345   5.388   4.513   4.850  0.1065  0.4342  0.4032
 8885WAT     H237346   5.288   4.444   4.940 -0.9838  4.1270  2.2344
 8885WAT    EPW37347   5.370   4.461   4.918 -0.5362  0.7265  0.4625
 8886WAT      O37348  -0.384   0.956   5.968 -0.1163 -0.1482 -0.3465
 8886WAT     H137349  -0.366   0.877   5.917 -0.5140 -1.5914  1.6496
 8886WAT     H237350  -0.345   0.939   6.054  0.1019  1.9965  0.0366
 8886WAT    EPW37351  -0.377   0.944   5.972 -0.1399 -0.0557 -0.0327
 8887WAT      O37352   6.203   5.025   3.907  0.3179 -0.4052 -0.6258
 8887WAT     H137353   6.245   5.110   3.900  0.0488 -0.2248 -0.1063
 8887WAT     H237354   6.112   5.044   3.927 -0.0134 -0.7996 -1.6847
 8887WAT    EPW37355   6.196   5.038   3.909  0.2387 -0.4332 -0.6969
 8888WAT      O37356   0.125   7.361   8.226  0.3220 -0.7376 -0.6562
 8888WAT     H137357   0.176   7.379   8.305  0.3085 -0.3966 -0.7227
 8888WAT     H237358   0.040   7.402   8.242 -0.5318 -2.6760  0.1279
 8888WAT    EPW37359   0.121   7.369   8.239  0.2076 -0.9484 -0.5612
 8889WAT      O37360   4.770   0.391   1.796 -0.0492  0.0786  0.1694
 8889WAT     H137361   4.864   0.388   1.778 -0.4319 -1.9296 -2.0145
 8889WAT     H237362   4.730   0.413   1.711 -1.5984 -0.2939  0.7628
 8889WAT    EPW37363   4.777   0.393   1.782 -0.3042 -0.2354 -0.0405
 8890WAT      O37364  -0.765   6.855   7.957  0.3354  0.1571 -0.3150
 8890WAT     H137365  -0.798   6.845   7.868  0.1286 -2.0392 -0.0255
 8890WAT     H237366  -0.671   6.841   7.950  0.5361  1.3863 -0.3642
 8890WAT    EPW37367  -0.757   6.852   7.944  0.3346  0.0293 -0.2832
 8891WAT      O37368   4.402   1.280   4.634 -0.4198  0.1894  0.2207
 8891WAT     H137369   4.418   1.293   4.541 -2.9417 -0.8549 -0.4438
 8891WAT     H237370   4.421   1.187   4.649  0.5970  0.4917  0.9308
 8891WAT    EPW37371   4.406   1.270   4.624 -0.6185  0.0916  0.2265
 8892WAT      O37372   0.696   2.370   7.377  0.2467 -0.1883 -0.4949
 8892WAT     H137373   0.718   2.408   7.462  1.4183 -0.0638 -0.8316
 8892WAT     H237374   0.667   2.281   7.398 -1.5963  0.5441  0.2083
 8892WAT    EPW37375   0.695   2.363   7.391  0.1581 -0.0753 -0.4466
 8893WAT      O37376   8.365   4.145   0.601  0.3838  0.2780  0.5848
 8893WAT     H137377   8.353   4.210   0.670  3.6834 -0.1177  1.6919
 8893WAT     H237378   8.437   4.090   0.632 -0.5255 -2.3085 -1.5007
 8893WAT    EPW37379   8.373   4.146   0.614  0.6995 -0.1152  0.4558
 8894WAT      O37380   6.164   3.250   5.906 -0.2675  0.0469  0.4454
 8894WAT     H137381   6.138   3.342   5.908  0.4465  0.2543  0.7155
 8894WAT     H237382   6.136   3.216   5.991 -1.6901 -0.3258 -0.1619
 8894WAT    EPW37383   6.157   3.258   5.918 -0.3610  0.0252  0.4008
 8895WAT      O37384   3.202   8.981   3.868 -0.0163 -0.6072 -0.1128
 8895WAT     H137385   3.114   8.949   3.887  0.4175 -1.6182  0.2409
 8895WAT     H237386   3.250   8.968   3.949 -0.0739  1.9420  0.4090
 8895WAT    EPW37387   3.196   8.975   3.881  0.0333 -0.4044  0.0027
 8896WAT      O37388   3.211   8.867   5.292  0.5281  0.6714 -0.5146
 8896WAT     H137389   3.258   8.797   5.338 -0.1355  0.0866 -0.7114
 8896WAT     H237390   3.119   8.853   5.315  0.3433  1.2206 -0.9046
 8896WAT    EPW37391   3.205   8.856   5.301  0.4162  0.6666 -0.5920
 8897WAT      O37392   6.662   0.106   3.800  0.0425  0.1256 -0.4668
 8897WAT     H137393   6.754   0.085   3.816  0.1020  1.4313  1.2403
 8897WAT     H237394   6.617   0.081   3.881 -0.7383  1.3983 -0.4723
 8897WAT    EPW37395   6.668   0.100   3.813 -0.0527  0.4654 -0.2425
 8898WAT      O37396   4.505   4.691   4.421 -0.1570 -0.0730  0.7440
 8898WAT     H137397   4.561   4.622   4.456 -1.2506 -0.3335  2.1002
 8898WAT     H237398   4.480   4.660   4.334  1.2521 -0.2517  0.3885
 8898WAT    EPW37399   4.509   4.678   4.414 -0.1154 -0.1309  0.8762
 8899WAT      O37400  -0.907   3.532   4.395 -0.5350  0.3915  0.8540
 8899WAT     H137401  -0.911   3.444   4.433 -1.0065  0.3484  0.7158
 8899WAT     H237402  -0.911   3.517   4.301 -1.0237  0.5792  0.8425
 8899WAT    EPW37403  -0.908   3.518   4.388 -0.6617  0.4106  0.8342
 8900WAT      O37404  -1.509   2.847   4.316  0.6338 -0.4541 -0.0996
 8900WAT     H137405  -1.452   2.795   4.259  0.7335 -0.7215  0.2419
 8900WAT     H237406  -1.479   2.937   4.305  1.0962 -0.5896  0.0500
 8900WAT    EPW37407  -1.498   2.852   4.307  0.7079 -0.5072 -0.0348
 8901WAT      O37408  -2.490   5.169   5.727  0.7428  0.2930  0.0872
 8901WAT     H137409  -2.506   5.233   5.797 -0.5496 -3.7260  3.9275
 8901WAT     H237410  -2.396   5.154   5.730  1.2178  2.4877 -1.5126
 8901WAT    EPW37411  -2.480   5.176   5.737  0.6350  0.0522  0.3827
 8902WAT      O37412  -1.026   9.685   1.839  0.4507 -0.0200  0.1983
 8902WAT     H137413  -0.964   9.719   1.774  0.7533 -0.0793  0.4550
 8902WAT     H237414  -0.981   9.696   1.923  0.1545 -0.1583  0.3754
 8902WAT    EPW37415  -1.012   9.691   1.841  0.4516 -0.0463  0.2555
 8903WAT      O37416   4.764   9.523   2.760 -0.5865 -1.1388 -0.2656
 8903WAT     H137417   4.738   9.433   2.741 -0.4029 -1.0815 -0.7985
 8903WAT     H237418   4.848   9.514   2.805 -0.4688 -1.2267 -0.5013
 8903WAT    EPW37419   4.772   9.510   2.763 -0.5467 -1.1430 -0.3670
 8904WAT      O37420   3.415   6.076   3.626  0.2217 -0.7519 -0.0460
 8904WAT     H137421   3.398   6.118   3.541 -0.5506 -0.1133  0.4072
 8904WAT     H237422   3.456   6.145   3.678  2.7836 -1.7716 -0.5636
 8904WAT    EPW37423   3.418   6.091   3.622  0.4578 -0.8020 -0.0545
 8905WAT      O37424  -4.236   8.723   3.425  0.1470 -0.2416  0.3796
 8905WAT     H137425  -4.255   8.738   3.518  0.0427  1.3544  0.1208
 8905WAT     H237426  -4.147   8.688   3.424  0.0344 -0.5648  1.0935
 8905WAT    EPW37427  -4.227   8.720   3.437  0.1185 -0.0734  0.4396
 8906WAT      O37428   2.269   8.607   3.001 -0.3874 -0.5482  0.2957
 8906WAT     H137429   2.230   8.574   2.920  1.0391 -1.6271  0.0063
 8906WAT     H237430   2.207   8.583   3.069 -1.2182 -0.3620 -0.3871
 8906WAT    EPW37431   2.256   8.599   2.999 -0.3088 -0.6661  0.1675
 8907WAT      O37432   8.203   3.344   1.801  0.3602 -0.5374  0.4045
 8907WAT     H137433   8.176   3.256   1.827  1.0450 -0.4771  1.4145
 8907WAT     H237434   8.127   3.399   1.818 -1.5211 -1.4190 -3.8670
 8907WAT    EPW37435   8.190   3.339   1.807  0.2027 -0.6458 -0.0256
 8908WAT      O37436  -1.260   6.122   4.525 -0.3615 -0.4301 -0.0744
 8908WAT     H137437  -1.241   6.082   4.611  1.3746 -1.6478 -0.9555
 8908WAT     H237438  -1.247   6.051   4.463  0.4179  0.9064 -1.5114
 8908WAT    EPW37439  -1.256   6.107   4.528 -0.0297 -0.4144 -0.3803
 8909WAT      O37440   2.926   1.892   2.378 -0.3528  0.3820  0.6712
 8909WAT     H137441   2.962   1.897   2.289 -1.9995  0.4592 -0.0328
 8909WAT     H237442   3.001   1.868   2.433  1.3455  3.0331 -0.2911
 8909WAT    EPW37443   2.941   1.889   2.373 -0.3459  0.7419  0.4514
 8910WAT      O37444   1.465   9.159   3.275 -0.3721 -0.3032 -0.3104
 8910WAT     H137445   1.374   9.189   3.275 -1.6030 -3.3500 -3.6837
 8910WAT     H237446   1.460   9.069   3.307  0.9917 -1.3463 -2.7772
 8910WAT    EPW37447   1.452   9.151   3.280 -0.3546 -0.8426 -1.0808
 8911WAT      O37448  -3.684   9.580   7.527  0.5913  0.0888  0.0499
 8911WAT     H137449  -3.693   9.629   7.445 -1.5076  0.6338  0.5327
 8911WAT     H237450  -3.591   9.561   7.534  1.0374  1.3973 -1.6759
 8911WAT    EPW37451  -3.673   9.584   7.517  0.3734  0.3328 -0.1142
 8912WAT      O37452  -4.490   9.473   8.514 -0.3895  0.0474 -0.3404
 8912WAT     H137453  -4.558   9.522   8.561  1.2097  3.0574 -0.9210
 8912WAT     H237454  -4.451   9.416   8.580 -0.2935  1.8790  1.2687
 8912WAT    EPW37455  -4.494   9.472   8.529 -0.1659  0.6862 -0.2046
 8913WAT      O37456   5.627   8.420   3.630  0.0318 -0.6355 -0.1617
 8913WAT     H137457   5.605   8.431   3.723  1.9612 -0.5605  0.3215
 8913WAT     H237458   5.545   8.390   3.590 -0.0813 -4.0777  2.1726
 8913WAT    EPW37459   5.613   8.418   3.637  0.2713 -1.0800  0.2098
 8914WAT      O37460   4.013   9.614   0.918  0.1056  0.3063 -0.3040
 8914WAT     H137461   3.934   9.571   0.951  1.2056 -1.0993  0.6965
 8914WAT     H237462   3.991   9.642   0.830 -1.1964 -0.9737 -0.4243
 8914WAT    EPW37463   4.000   9.612   0.911  0.0790 -0.0477 -0.1879
 8915WAT      O37464   5.687   0.586   8.302  0.3096 -0.4290 -0.1551
 8915WAT     H137465   5.760   0.648   8.293 -0.0723  0.0033 -0.3010
 8915WAT     H237466   5.614   0.627   8.256  0.2511 -1.3349 -0.9054
 8915WAT    EPW37467   5.687   0.600   8.295  0.2513 -0.4915 -0.2732
 8916WAT      O37468   4.313   8.679   3.611  0.4834 -0.2399  0.0068
 8916WAT     H137469   4.300   8.710   3.521 -0.2671 -0.1987  0.1211
 8916WAT     H237470   4.266   8.596   3.614  0.6112 -0.2995  0.3296
 8916WAT    EPW37471   4.305   8.672   3.599  0.4010 -0.2427  0.0645
 8917WAT      O37472   1.800   1.138   7.789 -0.2954 -0.4275 -0.0186
 8917WAT     H137473   1.758   1.188   7.718 -0.0798 -2.7630 -1.9202
 8917WAT     H237474   1.736   1.071   7.811 -1.5265  1.7309  4.0424
 8917WAT    EPW37475   1.786   1.136   7.783 -0.4293 -0.4508  0.2663
 8918WAT      O37476   1.394   6.005   0.944 -0.2326  0.8808  0.4579
 8918WAT     H137477   1.477   5.985   0.900 -0.6091  3.2625 -1.5713
 8918WAT     H237478   1.327   5.987   0.877 -1.4410 -1.0810  2.0842
 8918WAT    EPW37479   1.396   6.000   0.929 -0.4416  0.9363  0.4047
 8919WAT      O37480  -3.440   9.256   5.778  0.4763 -0.4450 -0.7296
 8919WAT     H137481  -3.386   9.305   5.840  0.9200 -1.2636 -0.4547
 8919WAT     H237482  -3.441   9.167   5.812 -2.8669 -0.0918  0.5319
 8919WAT    EPW37483  -3.433   9.251   5.790  0.0939 -0.5064 -0.5269
 8920WAT      O37484  -2.021   2.565   7.993  0.1167 -0.3732 -0.3465
 8920WAT     H137485  -1.975   2.498   8.044  2.2190  0.2879 -1.2348
 8920WAT     H237486  -2.082   2.516   7.939  0.3755 -1.4054  0.2666
 8920WAT    EPW37487  -2.023   2.550   7.993  0.4281 -0.4221 -0.3829
 8921WAT      O37488  -0.405   8.690   1.357 -0.6742  0.5174  0.2638
 8921WAT     H137489  -0.459   8.614   1.378 -0.0136  0.3463  1.4498
 8921WAT     H237490  -0.455   8.765   1.389 -1.0295  0.5328 -0.3134
 8921WAT    EPW37491  -0.418   8.690   1.364 -0.6339  0.4969  0.3441
 8922WAT      O37492   2.526   8.484   4.373  0.2153  0.1182 -0.7303
 8922WAT     H137493   2.446   8.535   4.385 -0.2275 -1.1105  2.2680
 8922WAT     H237494   2.525   8.420   4.444  0.7261 -4.2300 -4.2096
 8922WAT    EPW37495   2.515   8.483   4.384  0.2242 -0.6170 -0.7937
 8923WAT      O37496   0.067  10.264   8.449 -0.2609  0.6470 -0.2852
 8923WAT     H137497  -0.028  10.264   8.442 -0.3088 -0.2433  0.2102
 8923WAT     H237498   0.090  10.172   8.463  0.5223  1.0721  1.5800
 8923WAT    EPW37499   0.058  10.252   8.450 -0.1640  0.5860  0.0262
 8924WAT      O37500  -2.023   7.745   2.032  0.0902 -0.1210  0.3738
 8924WAT     H137501  -1.950   7.796   1.998  0.5892 -0.8875  0.2739
 8924WAT     H237502  -2.010   7.657   1.996 -1.2701 -0.1051 -0.2301
 8924WAT    EPW37503  -2.012   7.740   2.023 -0.0234 -0.2201  0.2810
 8925WAT      O37504   1.450   3.682   7.160  0.2116  0.4080  0.0651
 8925WAT     H137505   1.437   3.740   7.235  1.6146 -1.4536  1.8591
 8925WAT     H237506   1.362   3.661   7.130 -0.3476  2.1879  0.3393
 8925WAT    EPW37507   1.437   3.687   7.166  0.3229  0.3972  0.3378
 8926WAT      O37508  -0.777   8.760   3.896  0.5725  0.5142  0.1823
 8926WAT     H137509  -0.858   8.798   3.930  1.5729  0.7685  2.4418
 8926WAT     H237510  -0.806   8.693   3.835 -1.2968  1.7954 -0.4278
 8926WAT    EPW37511  -0.792   8.756   3.892  0.4579  0.7162  0.3998
 8927WAT      O37512  -0.622   3.547   4.394 -0.1556 -0.4675  0.5454
 8927WAT     H137513  -0.593   3.577   4.480  0.1999 -0.3511  0.3891
 8927WAT     H237514  -0.714   3.573   4.389 -0.3347 -0.9688  1.1068
 8927WAT    EPW37515  -0.630   3.554   4.404 -0.1324 -0.5183  0.5989
 8928WAT      O37516  -2.890   9.218   8.926 -0.1180  0.9486 -0.3766
 8928WAT     H137517  -2.975   9.183   8.901  0.0876 -0.6301  0.9533
 8928WAT     H237518  -2.903   9.254   9.014  0.7513 -0.0332  0.1714
 8928WAT    EPW37519  -2.903   9.218   8.934  0.0237  0.6113 -0.1292
 8929WAT      O37520   2.652   0.197   4.499 -0.0419 -0.6091  0.2720
 8929WAT     H137521   2.698   0.114   4.511 -0.5232 -0.5217  3.5794
 8929WAT     H237522   2.654   0.239   4.585 -2.1960  1.5802 -0.6052
 8929WAT    EPW37523   2.658   0.192   4.512 -0.3895 -0.3088  0.5925
 8930WAT      O37524   7.536   2.739   1.511 -0.3238  0.7561  0.0228
 8930WAT     H137525   7.543   2.752   1.416 -0.2206  0.2926 -0.0369
 8930WAT     H237526   7.611   2.787   1.547  0.4902 -0.2694 -0.2504
 8930WAT    EPW37527   7.547   2.747   1.503 -0.2029  0.5598 -0.0210
 8931WAT      O37528  -0.533   9.873   0.450  0.0728 -0.2078  0.1008
 8931WAT     H137529  -0.481   9.833   0.380 -0.9350 -1.1478 -0.1367
 8931WAT     H237530  -0.526   9.967   0.434  0.3610 -0.3875 -0.9048
 8931WAT    EPW37531  -0.525   9.880   0.439 -0.0221 -0.3557 -0.0632
 8932WAT      O37532  -1.684   2.666   1.761 -0.1965  0.1395  0.4613
 8932WAT     H137533  -1.601   2.666   1.808  0.3220 -0.1481 -0.4117
 8932WAT     H237534  -1.667   2.721   1.684 -0.2774 -1.2428 -0.5905
 8932WAT    EPW37535  -1.670   2.673   1.757 -0.1388 -0.0807  0.2074
 8933WAT      O37536  -2.199   3.312   6.486  0.1175 -0.2262 -0.1248
 8933WAT     H137537  -2.131   3.245   6.479  0.4555  0.1183 -0.1766
 8933WAT     H237538  -2.270   3.269   6.534 -0.3751 -1.1776 -1.6168
 8933WAT    EPW37539  -2.200   3.298   6.492  0.0972 -0.3062 -0.3283
 8934WAT      O37540  -0.339   6.223   3.018 -0.3203  0.3973  0.0399
 8934WAT     H137541  -0.315   6.135   3.049  1.8994  0.6091 -0.9176
 8934WAT     H237542  -0.386   6.261   3.092  1.2320 -0.5775  1.6316
 8934WAT    EPW37543  -0.342   6.216   3.032  0.1772  0.2966  0.1235
 8935WAT      O37544  -2.756   6.232   2.600  0.2113  0.0891  0.1294
 8935WAT     H137545  -2.737   6.223   2.693  1.5325 -1.3447 -0.2408
 8935WAT     H237546  -2.730   6.322   2.579  0.5873  0.1932  0.9937
 8935WAT    EPW37547  -2.750   6.243   2.610  0.4351 -0.0861  0.1944
 8936WAT      O37548  -6.519   9.749   7.510 -0.2766 -0.0035  0.0042
 8936WAT     H137549  -6.477   9.817   7.457  1.0899 -1.5060 -0.9492
 8936WAT     H237550  -6.484   9.762   7.598  1.0633 -0.2898 -0.4599
 8936WAT    EPW37551  -6.509   9.760   7.514  0.0803 -0.2398 -0.1829
 8937WAT      O37552   1.087   6.943   1.227 -0.1989  0.5264 -0.8272
 8937WAT     H137553   1.110   7.028   1.265 -0.3149 -0.3628  1.3509
 8937WAT     H237554   1.157   6.884   1.255 -1.2977 -0.5918 -0.3285
 8937WAT    EPW37555   1.099   6.947   1.236 -0.3591  0.2615 -0.4741
 8938WAT      O37556   4.082   4.324   3.125  0.1829 -0.6421 -0.1224
 8938WAT     H137557   4.148   4.382   3.087  0.3326 -0.5730  0.2352
 8938WAT     H237558   4.021   4.383   3.169  1.5206 -0.8172  2.1347
 8938WAT    EPW37559   4.082   4.339   3.126  0.3791 -0.6561  0.2226
 8939WAT      O37560   3.336   9.939   5.534  0.4067 -0.1182  0.0515
 8939WAT     H137561   3.418   9.891   5.527  1.0710  1.0220 -0.1823
 8939WAT     H237562   3.348  10.016   5.478 -0.8063  0.0856  0.0375
 8939WAT    EPW37563   3.348   9.943   5.525  0.3344  0.0591  0.0186
 8940WAT      O37564  -0.200   0.205   0.523 -0.2311 -0.2957  0.6478
 8940WAT     H137565  -0.184   0.175   0.434  0.4468 -2.1375  1.3375
 8940WAT     H237566  -0.196   0.125   0.576 -0.4031  0.7799  2.3547
 8940WAT    EPW37567  -0.197   0.191   0.519 -0.1644 -0.3968  0.9639
 8941WAT      O37568  -7.171  10.279   6.058  0.1790  0.2351 -0.2255
 8941WAT     H137569  -7.248  10.296   6.003 -0.1362 -1.4584 -0.3626
 8941WAT     H237570  -7.108  10.238   5.998  0.8898  0.8443  0.0838
 8941WAT    EPW37571  -7.173  10.276   6.043  0.2313  0.0920 -0.2029
 8942WAT      O37572   6.680   0.589   3.056 -0.5053 -0.2345 -0.1900
 8942WAT     H137573   6.587   0.580   3.079 -1.0334 -0.5923 -2.2250
 8942WAT     H237574   6.726   0.590   3.140 -2.2901 -0.7503  0.8447
 8942WAT    EPW37575   6.674   0.588   3.070 -0.8101 -0.3498 -0.3219
 8943WAT      O37576  -5.928   5.552   8.780 -0.2176 -0.1347  0.2984
 8943WAT     H137577  -5.950   5.624   8.839 -1.9177 -0.4565  0.1181
 8943WAT     H237578  -5.849   5.513   8.818  0.4622  1.5091  0.6592
 8943WAT    EPW37579  -5.920   5.556   8.793 -0.3524  0.0396  0.3223
 8944WAT      O37580  -0.617   4.761   8.952 -0.2443  0.1507 -0.4550
 8944WAT     H137581  -0.674   4.709   8.895  0.0083 -0.2213 -0.3672
 8944WAT     H237582  -0.530   4.724   8.939  0.0618  1.0093 -0.9368
 8944WAT    EPW37583  -0.613   4.749   8.943 -0.1706  0.2148 -0.5069
 8945WAT      O37584   4.617   0.830   7.211  0.2780 -1.3830  0.4020
 8945WAT     H137585   4.694   0.868   7.169  1.3264 -2.5353  1.2051
 8945WAT     H237586   4.617   0.867   7.299  1.4639 -3.2810  1.2874
 8945WAT    EPW37587   4.627   0.840   7.217  0.5727 -1.7853  0.6247
 8946WAT      O37588   2.278   4.260   4.071 -0.2039  0.1690  0.3891
 8946WAT     H137589   2.320   4.262   4.156 -0.0333 -0.2266  0.3134
 8946WAT     H237590   2.185   4.274   4.090  0.0961  2.3995  0.4418
 8946WAT    EPW37591   2.271   4.262   4.085 -0.1419  0.4110  0.3862
 8947WAT      O37592   2.865   8.223   7.393 -0.6124  0.6272  0.7486
 8947WAT     H137593   2.802   8.155   7.419 -0.3828 -0.7497 -1.8783
 8947WAT     H237594   2.813   8.303   7.388 -1.4239  0.1861  1.7273
 8947WAT    EPW37595   2.850   8.224   7.396 -0.6890  0.3877  0.5314
 8948WAT      O37596   2.376   8.508   3.694 -0.2776  0.1638 -0.4950
 8948WAT     H137597   2.427   8.508   3.775 -0.3959  0.7867 -0.4183
 8948WAT     H237598   2.285   8.518   3.722 -0.1774  2.3101 -0.7668
 8948WAT    EPW37599   2.371   8.509   3.708 -0.2800  0.5293 -0.5208
 8949WAT      O37600   6.876   2.117   0.625  0.1121  0.6049 -0.4659
 8949WAT     H137601   6.964   2.125   0.588  1.2816  0.4635  2.0607
 8949WAT     H237602   6.838   2.041   0.581  2.2084 -0.8152  0.0499
 8949WAT    EPW37603   6.882   2.108   0.614  0.5426  0.3990 -0.0646
 8950WAT      O37604   8.765   4.143   0.931 -0.3556 -0.7142  0.1311
 8950WAT     H137605   8.772   4.176   1.020 -1.3103 -0.0269 -0.0385
 8950WAT     H237606   8.844   4.177   0.887 -0.6425  0.2228  0.3192
 8950WAT    EPW37607   8.776   4.152   0.937 -0.5193 -0.5000  0.1335
 8951WAT      O37608   6.462   8.351   0.303  0.2358  0.1874  0.4043
 8951WAT     H137609   6.494   8.418   0.243 -1.1079  0.8528  0.3824
 8951WAT     H237610   6.535   8.290   0.313  1.0829  1.0244 -0.4986
 8951WAT    EPW37611   6.475   8.352   0.297  0.1702  0.3853  0.2823
 8952WAT      O37612  -2.614   2.221   3.021 -0.0430 -0.1888 -0.4146
 8952WAT     H137613  -2.690   2.202   3.076  2.3501 -2.0283  2.6284
 8952WAT     H237614  -2.572   2.137   3.007  2.2612  0.9048 -0.6244
 8952WAT    EPW37615  -2.618   2.208   3.027  0.5765 -0.2872 -0.0409
 8953WAT      O37616   1.056   4.937   4.483 -0.7111  0.5090 -0.5332
 8953WAT     H137617   1.003   4.911   4.558  0.3142 -1.5006 -0.4357
 8953WAT     H237618   1.073   5.031   4.496 -2.5633  0.7530  0.4206
 8953WAT    EPW37619   1.051   4.946   4.494 -0.8202  0.2761 -0.3948
 8954WAT      O37620  -0.815   7.065   7.041  0.5077  0.1451 -0.1478
 8954WAT     H137621  -0.790   7.151   7.074  0.6139 -0.1721  0.6147
 8954WAT     H237622  -0.734   7.015   7.039 -0.1398 -1.3709  3.7888
 8954WAT    EPW37623  -0.801   7.070   7.045  0.4363 -0.0966  0.4721
 8955WAT      O37624  -0.497   6.006   3.991  0.8761 -0.5548  0.1337
 8955WAT     H137625  -0.554   5.946   3.943  0.1096 -0.8990  1.4073
 8955WAT     H237626  -0.501   5.975   4.082  1.3484  0.7564  0.6295
 8955WAT    EPW37627  -0.505   5.994   3.997  0.8373 -0.4275  0.3672
 8956WAT      O37628   0.582   4.721   1.815  0.4817  0.5150  0.1283
 8956WAT     H137629   0.570   4.701   1.722 -0.5654  2.7758 -0.3070
 8956WAT     H237630   0.493   4.721   1.851  0.9277 -1.0557  1.3520
 8956WAT    EPW37631   0.568   4.719   1.807  0.4024  0.6061  0.2323
 8957WAT      O37632   3.082   8.428   2.542  0.2913 -0.3570  0.3179
 8957WAT     H137633   2.997   8.451   2.581 -0.6412 -1.6272 -0.8474
 8957WAT     H237634   3.069   8.340   2.508  1.5169  0.1255 -1.5214
 8957WAT    EPW37635   3.069   8.419   2.543  0.3300 -0.4606 -0.0784
 8958WAT      O37636   1.178   0.417   3.251 -0.0394  0.2427  0.5334
 8958WAT     H137637   1.148   0.347   3.193  1.1519 -0.8677  1.2146
 8958WAT     H237638   1.240   0.467   3.197 -2.2095  1.9566 -0.5561
 8958WAT    EPW37639   1.182   0.415   3.236 -0.1684  0.3223  0.4796
 8959WAT      O37640   4.408   0.461   8.281 -0.0604  0.6337  0.4217
 8959WAT     H137641   4.413   0.545   8.236  0.1981  1.1545  1.3973
 8959WAT     H237642   4.432   0.397   8.214 -1.9130  1.1397 -0.8023
 8959WAT    EPW37643   4.412   0.464   8.266 -0.2706  0.7691  0.3886
 8960WAT      O37644   0.284   2.460   8.467 -0.2057 -0.2758 -0.2004
 8960WAT     H137645   0.358   2.478   8.525 -0.0125 -1.8476  0.1033
 8960WAT     H237646   0.308   2.502   8.384  0.5855  0.0475  0.1817
 8960WAT    EPW37647   0.297   2.468   8.464 -0.0759 -0.4404 -0.1101
 8961WAT      O37648   5.835   0.876   7.717 -0.1746  0.6608 -0.0799
 8961WAT     H137649   5.773   0.942   7.686 -2.6463 -2.0299 -1.3579
 8961WAT     H237650   5.837   0.888   7.812  0.3896  3.2346 -0.3566
 8961WAT    EPW37651   5.827   0.886   7.725 -0.4263  0.6454 -0.2849
 8962WAT      O37652  -0.273   7.134   1.752  0.2655  0.9356  0.7022
 8962WAT     H137653  -0.230   7.049   1.742 -0.5848  0.7198 -1.6621
 8962WAT     H237654  -0.338   7.121   1.821 -1.1302 -0.9130 -0.8758
 8962WAT    EPW37655  -0.276   7.121   1.760 -0.0307  0.6633  0.1823
 8963WAT      O37656   2.352   0.260   7.023 -0.1808  0.2725  0.1645
 8963WAT     H137657   2.366   0.338   7.077 -1.1525  0.3772  0.2842
 8963WAT     H237658   2.299   0.291   6.950 -0.4328 -0.2440  0.1269
 8963WAT    EPW37659   2.347   0.274   7.021 -0.3422  0.2181  0.1755
 8964WAT      O37660  -1.631   1.783   6.336  0.0970  0.2412  0.1129
 8964WAT     H137661  -1.584   1.715   6.385 -0.1971 -0.4756 -0.5776
 8964WAT     H237662  -1.568   1.817   6.274  0.3904  0.9624  0.7875
 8964WAT    EPW37663  -1.617   1.779   6.334  0.0969  0.2418  0.1109
 8965WAT      O37664   7.042   0.730   3.768 -0.2888 -0.5565 -0.4397
 8965WAT     H137665   7.013   0.790   3.837 -1.4157  0.1417 -1.4711
 8965WAT     H237666   7.138   0.735   3.770  0.3767 -5.3217  5.2024
 8965WAT    EPW37667   7.051   0.739   3.777 -0.3498 -1.0930  0.1684
 8966WAT      O37668   1.066   0.875   3.767 -0.4097 -0.4989  0.4461
 8966WAT     H137669   1.006   0.840   3.701  0.6934  0.0518 -0.8966
 8966WAT     H237670   1.013   0.937   3.817 -0.9324  0.1633 -0.8726
 8966WAT    EPW37671   1.051   0.879   3.765 -0.3332 -0.3389  0.0951
 8967WAT      O37672  -5.851   9.322   7.610 -0.6772 -0.7234  0.3791
 8967WAT     H137673  -5.907   9.249   7.636 -0.4078 -0.8010  0.7506
 8967WAT     H237674  -5.869   9.334   7.517  0.1170 -2.0094  0.0333
 8967WAT    EPW37675  -5.861   9.314   7.601 -0.5369 -0.9036  0.3824
 8968WAT      O37676   2.658   8.789   6.322 -0.0266 -0.3380  0.5343
 8968WAT     H137677   2.686   8.867   6.274 -0.3559  0.6586  1.8910
 8968WAT     H237678   2.582   8.757   6.274 -0.9756  1.2298  0.8867
 8968WAT    EPW37679   2.651   8.795   6.310 -0.1951  0.0000  0.7596
 8969WAT      O37680   3.221  10.261   2.399 -0.2499  0.0931 -0.2994
 8969WAT     H137681   3.174  10.332   2.356 -1.7978 -0.9941 -0.5224
 8969WAT     H237682   3.234  10.291   2.489  1.3681  1.6322 -0.9920
 8969WAT    EPW37683   3.216  10.274   2.405 -0.2406  0.1531 -0.4203
 8970WAT      O37684  -0.280   7.050   0.757  0.3470 -0.1352  0.3278
 8970WAT     H137685  -0.315   7.050   0.667 -1.9795 -0.0223  1.1531
 8970WAT     H237686  -0.240   7.137   0.766 -0.9099  0.5279 -0.1101
 8970WAT    EPW37687  -0.279   7.062   0.746 -0.1256 -0.0327  0.3789
 8971WAT      O37688   6.088   1.995   6.628 -0.6980  1.1097  0.8091
 8971WAT     H137689   6.055   2.044   6.704 -1.1111 -1.4572  2.3954
 8971WAT     H237690   6.012   1.988   6.570 -1.1466  0.8484  1.4068
 8971WAT    EPW37691   6.073   2.001   6.631 -0.8118  0.7366  1.0972
 8972WAT      O37692  -0.885  10.226   8.153  0.1585  0.4009  0.8248
 8972WAT     H137693  -0.808  10.235   8.210 -1.1925  3.2257  2.4157
 8972WAT     H237694  -0.863  10.278   8.076  0.8358 -1.0278  0.0126
 8972WAT    EPW37695  -0.872  10.234   8.150  0.0697  0.5851  0.9279
 8973WAT      O37696  -0.717   4.101   5.578  0.7877  0.6871  0.2396
 8973WAT     H137697  -0.801   4.056   5.576  1.2660 -0.6146  3.5976
 8973WAT     H237698  -0.732   4.177   5.634  1.7721  0.5907  0.6557
 8973WAT    EPW37699  -0.730   4.105   5.585  0.9806  0.5026  0.7372
 8974WAT      O37700   3.944   1.522   2.839  0.1728 -0.5331 -0.0043
 8974WAT     H137701   4.007   1.460   2.801  1.1480  0.0927  0.5468
 8974WAT     H237702   3.952   1.600   2.784 -0.2875 -0.5251 -0.0609
 8974WAT    EPW37703   3.954   1.524   2.827  0.2408 -0.4495  0.0609
 8975WAT      O37704   3.210   5.739   1.644  0.0544  0.9185  0.6053
 8975WAT     H137705   3.153   5.665   1.625 -0.1472  1.1740  0.1949
 8975WAT     H237706   3.205   5.794   1.566 -0.0340  1.5109  1.0147
 8975WAT    EPW37707   3.202   5.737   1.631  0.0161  1.0302  0.6052
 8976WAT      O37708   1.069   2.369   4.894 -0.2646 -0.3526 -0.5721
 8976WAT     H137709   1.098   2.356   4.803 -0.7148 -1.6651 -0.5583
 8976WAT     H237710   1.044   2.281   4.923  1.1365 -0.1890  1.2745
 8976WAT    EPW37711   1.069   2.355   4.886 -0.1392 -0.5043 -0.3269
 8977WAT      O37712  -4.529   7.756   4.844 -0.4513  0.0002 -0.1782
 8977WAT     H137713  -4.528   7.729   4.936  3.5761 -1.1274 -0.3461
 8977WAT     H237714  -4.475   7.691   4.800  0.4705  2.2864 -2.7148
 8977WAT    EPW37715  -4.521   7.744   4.850  0.2015  0.1531 -0.5350
 8978WAT      O37716   3.801   9.175   0.887 -0.6252 -0.1259 -1.1285
 8978WAT     H137717   3.768   9.097   0.841 -1.1357 -0.0465 -0.9048
 8978WAT     H237718   3.823   9.143   0.974  0.0909 -0.2207 -1.3377
 8978WAT    EPW37719   3.799   9.160   0.892 -0.5980 -0.1283 -1.1266
 8979WAT      O37720   0.526   4.123   6.864  0.4652  0.3702  0.0324
 8979WAT     H137721   0.563   4.081   6.942  4.0834  0.8448 -1.2391
 8979WAT     H237722   0.487   4.204   6.898 -0.2519 -0.5844  1.6106
 8979WAT    EPW37723   0.526   4.129   6.879  0.8478  0.3071  0.0730
 8980WAT      O37724   0.519   2.540   2.972  0.0618  0.1185 -0.0296
 8980WAT     H137725   0.572   2.500   3.041  0.1399 -2.0233 -1.2636
 8980WAT     H237726   0.514   2.474   2.903 -1.0378  1.7187 -1.5860
 8980WAT    EPW37727   0.525   2.526   2.972 -0.0729  0.0470 -0.3976
 8981WAT      O37728   2.315   9.681   4.934  0.6931 -0.0230  0.3645
 8981WAT     H137729   2.330   9.774   4.950  0.2375  0.6273 -2.4935
 8981WAT     H237730   2.223   9.667   4.958  0.8474  0.1946  1.0884
 8981WAT    EPW37731   2.305   9.691   4.939  0.6534  0.0911  0.0830
 8982WAT      O37732  -3.979   4.119   8.759  0.2418 -0.9065  0.6641
 8982WAT     H137733  -4.000   4.077   8.843  1.1696 -2.4343  0.1705
 8982WAT     H237734  -4.061   4.120   8.711 -0.7911  1.7801  2.2764
 8982WAT    EPW37735  -3.992   4.114   8.764  0.2279 -0.7536  0.8116
 8983WAT      O37736  -1.689   3.781   0.625 -0.3414  0.4939  0.0397
 8983WAT     H137737  -1.738   3.735   0.557  2.0548 -1.7955 -0.3045
 8983WAT     H237738  -1.665   3.864   0.584  0.2385 -0.4478 -1.6305
 8983WAT    EPW37739  -1.692   3.786   0.610  0.0515  0.0678 -0.2260
 8984WAT      O37740  -0.681   1.489   7.935  0.0843  0.3305 -0.0773
 8984WAT     H137741  -0.652   1.474   7.845  1.9483 -0.9337  0.6655
 8984WAT     H237742  -0.777   1.480   7.931  0.1653 -0.1753 -1.8449
 8984WAT    EPW37743  -0.690   1.486   7.923  0.3408  0.0970 -0.2124
 8985WAT      O37744   1.821   6.595   2.919  0.4766 -0.1960  0.2168
 8985WAT     H137745   1.829   6.508   2.878  2.8909 -1.0560  2.2763
 8985WAT     H237746   1.911   6.620   2.940 -0.1894  2.6524  0.1490
 8985WAT    EPW37747   1.834   6.587   2.916  0.7072  0.0660  0.4795
 8986WAT      O37748   0.780  10.299   0.577 -0.8863  0.3395 -0.1374
 8986WAT     H137749   0.742  10.307   0.664 -1.1652 -0.0423 -0.2190
 8986WAT     H237750   0.869  10.335   0.586 -1.5836  2.1810 -0.1919
 8986WAT    EPW37751   0.787  10.305   0.590 -1.0150  0.5322 -0.1554
 8987WAT      O37752   0.888   4.240   7.479  0.5825 -0.3708  0.5618
 8987WAT     H137753   0.873   4.288   7.397 -1.4588 -1.2551  0.3525
 8987WAT     H237754   0.868   4.304   7.548  0.5365 -0.1406  0.3377
 8987WAT    EPW37755   0.883   4.255   7.477  0.3072 -0.4570  0.5045
 8988WAT      O37756   1.501   4.077   3.812 -0.0912 -0.0434  0.1898
 8988WAT     H137757   1.475   4.050   3.724 -0.3891 -0.2618  0.3451
 8988WAT     H237758   1.575   4.019   3.833 -2.3587 -2.6645  1.5784
 8988WAT    EPW37759   1.508   4.065   3.803 -0.4296 -0.4179  0.3935
 8989WAT      O37760   0.035   3.350   3.393  0.0686 -0.0983 -0.4716
 8989WAT     H137761  -0.036   3.411   3.374  1.1814  2.2447  2.1777
 8989WAT     H237762   0.013   3.314   3.479  0.9265 -1.1803 -0.6908
 8989WAT    EPW37763   0.023   3.354   3.402  0.3285  0.0681 -0.1510
 8990WAT      O37764  -2.612   3.204   5.981 -1.1125 -0.0593  0.0168
 8990WAT     H137765  -2.599   3.288   5.937 -2.3794  0.1013 -0.1031
 8990WAT     H237766  -2.682   3.161   5.931 -3.0064  0.3689  2.1204
 8990WAT    EPW37767  -2.620   3.210   5.969 -1.5293  0.0182  0.2785
 8991WAT      O37768   6.292   6.394   1.570  0.2688 -0.0891  0.2460
 8991WAT     H137769   6.320   6.423   1.483  2.3413 -1.4935  0.3797
 8991WAT     H237770   6.356   6.434   1.630 -0.8623  0.4813  1.1145
 8991WAT    EPW37771   6.304   6.403   1.566  0.3929 -0.1993  0.3782
 8992WAT      O37772  -4.201   6.798   6.386  0.5419 -0.2883 -0.2399
 8992WAT     H137773  -4.150   6.732   6.431 -1.4081 -0.5099  1.8351
 8992WAT     H237774  -4.194   6.876   6.441 -2.6551 -0.8338  1.1450
 8992WAT    EPW37775  -4.194   6.800   6.399 -0.1371 -0.3893  0.2165
 8993WAT      O37776  -4.845   4.698   6.144  0.0773 -0.1661 -0.2935
 8993WAT     H137777  -4.930   4.675   6.180  1.0673 -2.0000  1.0031
 8993WAT     H237778  -4.838   4.793   6.158 -1.8250  0.0803 -0.7021
 8993WAT    EPW37779  -4.855   4.708   6.151 -0.0429 -0.3755 -0.1764
 8994WAT      O37780   5.250   4.239   5.662 -0.3251 -0.2784  0.4637
 8994WAT     H137781   5.292   4.266   5.743  0.3647 -2.0289  0.7363
 8994WAT     H237782   5.226   4.321   5.619  0.7017  0.7130  1.6956
 8994WAT    EPW37783   5.253   4.254   5.667 -0.0987 -0.3786  0.6621
 8995WAT      O37784   8.325   1.944   1.271 -0.7607 -0.0079 -0.3761
 8995WAT     H137785   8.235   1.955   1.241 -0.8034  0.9162  0.0573
 8995WAT     H237786   8.373   2.018   1.234 -0.7137  0.8789  1.3467
 8995WAT    EPW37787   8.319   1.955   1.262 -0.7601  0.2310 -0.0917
 8996WAT      O37788   5.756   0.592   2.062 -0.2769  0.3809  0.2061
 8996WAT     H137789   5.738   0.558   2.150  1.2141 -1.1380 -0.0359
 8996WAT     H237790   5.826   0.656   2.075  1.0063 -0.9299 -0.0077
 8996WAT    EPW37791   5.763   0.596   2.075  0.0889  0.0076  0.1460
 8997WAT      O37792  -0.140   2.262   6.222  0.6985 -1.0800 -0.4960
 8997WAT     H137793  -0.234   2.255   6.205  0.7203 -0.3627 -0.9572
 8997WAT     H237794  -0.128   2.228   6.310  0.0697 -1.5980 -0.6048
 8997WAT    EPW37795  -0.151   2.256   6.231  0.6185 -1.0537 -0.5713
 8998WAT      O37796  -3.793   7.732   3.453  0.1998 -0.2298 -0.9810
 8998WAT     H137797  -3.724   7.706   3.513  0.5235  0.0856 -1.2109
 8998WAT     H237798  -3.833   7.809   3.495 -1.1253 -1.3970 -0.0249
 8998WAT    EPW37799  -3.789   7.739   3.466  0.0677 -0.3421 -0.8852
 8999WAT      O37800   2.683   8.122   7.061 -0.1409 -0.3489  1.1330
 8999WAT     H137801   2.624   8.192   7.088  1.9864  1.3420  1.6819
 8999WAT     H237802   2.719   8.154   6.978 -0.3677 -1.6021  0.5382
 8999WAT    EPW37803   2.680   8.136   7.053  0.1098 -0.2913  1.1268
 9000WAT      O37804   2.327   1.686   5.855  0.8730  0.2457  0.1680
 9000WAT     H137805   2.381   1.764   5.862  1.8728 -0.5712  2.3472
 9000WAT     H237806   2.269   1.704   5.780 -1.3100  4.5516  2.5016
 9000WAT    EPW37807   2.326   1.699   5.846  0.7169  0.7059  0.7632
 9001WAT      O37808  -6.200   8.196   5.882 -0.5163  0.3310 -0.3441
 9001WAT     H137809  -6.281   8.215   5.835 -1.6161 -2.3701  0.2462
 9001WAT     H237810  -6.223   8.203   5.974  0.1549  0.4000 -0.1793
 9001WAT    EPW37811  -6.214   8.199   5.888 -0.5727 -0.0162 -0.2446
 9002WAT      O37812  -3.065   3.157   8.188  0.1137  0.3238  0.3739
 9002WAT     H137813  -2.999   3.092   8.209  2.5493  2.1834 -1.0305
 9002WAT     H237814  -3.137   3.107   8.148  1.7567 -1.5242 -0.4120
 9002WAT    EPW37815  -3.066   3.142   8.185  0.6516  0.3252  0.0849
 9003WAT      O37816   0.094   9.388   7.616 -1.1482  0.3234  0.4265
 9003WAT     H137817   0.071   9.479   7.601  1.4158  1.1002  0.6629
 9003WAT     H237818   0.113   9.353   7.529 -1.3443  0.2589  0.4100
 9003WAT    EPW37819   0.094   9.395   7.603 -0.8359  0.4172  0.4556
 9004WAT      O37820  -6.029   8.208   7.660  0.2140  0.8933 -0.1432
 9004WAT     H137821  -5.951   8.214   7.605 -0.2268 -2.1300 -1.2907
 9004WAT     H237822  -5.996   8.214   7.749  1.5587  1.2008 -0.6379
 9004WAT    EPW37823  -6.014   8.210   7.664  0.3333  0.5350 -0.3595
 9005WAT      O37824  -4.281   9.108   6.984  0.3732  1.0180 -0.3634
 9005WAT     H137825  -4.225   9.082   7.057  0.3954  0.7775 -0.4670
 9005WAT     H237826  -4.355   9.153   7.026 -0.5644 -0.7554 -0.0530
 9005WAT    EPW37827  -4.283   9.111   6.999  0.2522  0.7524 -0.3362
 9006WAT      O37828  -2.909   5.090   6.240 -0.1118 -0.6019 -0.2419
 9006WAT     H137829  -2.901   5.040   6.159 -1.1954 -1.0461 -0.1012
 9006WAT     H237830  -2.891   5.027   6.309  0.7574 -0.2375 -0.1303
 9006WAT    EPW37831  -2.906   5.075   6.239 -0.1401 -0.6123 -0.2089
 9007WAT      O37832  -0.438   2.976   8.557  0.4594  0.9599  0.0671
 9007WAT     H137833  -0.494   3.051   8.541 -0.1571  0.7347  1.0910
 9007WAT     H237834  -0.350   3.012   8.561  0.6495  1.1425 -2.9731
 9007WAT    EPW37835  -0.434   2.991   8.555  0.4032  0.9543 -0.1988
 9008WAT      O37836   5.809   2.056   4.223  0.2525  0.3300  0.0048
 9008WAT     H137837   5.893   2.102   4.218  0.1555  0.5360  0.2153
 9008WAT     H237838   5.761   2.085   4.145  0.5050 -0.0496 -0.2934
 9008WAT    EPW37839   5.814   2.066   4.212  0.2730  0.3072 -0.0069
 9009WAT      O37840   0.886   6.446   0.288  0.5451  0.0678  0.8742
 9009WAT     H137841   0.913   6.496   0.211 -0.5235 -1.2637 -0.4336
 9009WAT     H237842   0.955   6.380   0.298 -0.2685 -0.9680 -0.1554
 9009WAT    EPW37843   0.899   6.444   0.279  0.2968 -0.2446  0.5659
 9010WAT      O37844   5.404   4.816   0.912  0.4756 -0.6697  0.4316
 9010WAT     H137845   5.446   4.847   0.832 -0.4521  0.5933  0.4037
 9010WAT     H237846   5.416   4.722   0.910 -1.2727 -0.9542 -2.2613
 9010WAT    EPW37847   5.411   4.808   0.901  0.1225 -0.5407  0.0727
 9011WAT      O37848   4.540   1.486   0.793 -0.3270  0.1579 -0.1332
 9011WAT     H137849   4.597   1.507   0.868 -1.3255 -1.1428  1.0522
 9011WAT     H237850   4.456   1.464   0.833 -0.9004 -0.5345 -1.6625
 9011WAT    EPW37851   4.537   1.486   0.808 -0.5343 -0.1050 -0.1785
 9012WAT      O37852  -0.034  10.332   0.880  0.1998  0.4907 -0.2462
 9012WAT     H137853  -0.014  10.372   0.795  0.1867 -2.6517 -1.9007
 9012WAT     H237854   0.034  10.265   0.891 -0.2231  0.3387  1.9277
 9012WAT    EPW37855  -0.022  10.328   0.870  0.1423  0.0563 -0.1777
 9013WAT      O37856  -4.180   6.863   8.699 -0.4023  0.8582 -0.0562
 9013WAT     H137857  -4.210   6.932   8.757  1.1441 -1.4969  3.9241
 9013WAT     H237858  -4.213   6.782   8.738  2.1791 -1.0162 -1.4063
 9013WAT    EPW37859  -4.188   6.861   8.712  0.1423  0.3004  0.2904
 9014WAT      O37860   1.920   9.970   2.432  0.2201  0.2385 -0.2070
 9014WAT     H137861   1.863  10.019   2.373 -0.0038 -0.0606 -0.2416
 9014WAT     H237862   1.987   9.933   2.375  0.2685  0.3292 -0.2093
 9014WAT    EPW37863   1.921   9.972   2.417  0.1969  0.2108 -0.2118
 9015WAT      O37864  -1.263   8.951   7.731 -0.5562  0.0304  0.4022
 9015WAT     H137865  -1.294   9.004   7.805  0.3291  0.0164  0.7999
 9015WAT     H237866  -1.194   8.896   7.769 -1.0706 -0.9999 -0.1300
 9015WAT    EPW37867  -1.258   8.951   7.746 -0.5072 -0.1073  0.3846
 9016WAT      O37868  -1.822   8.800   7.403 -0.7349 -0.3820 -0.3624
 9016WAT     H137869  -1.852   8.880   7.360 -2.1451 -0.8991 -0.4056
 9016WAT     H237870  -1.867   8.799   7.487  2.7627  1.1207  1.6917
 9016WAT    EPW37871  -1.832   8.810   7.408 -0.4596 -0.2522 -0.0973
 9017WAT      O37872   4.806   8.541   4.902  0.2262  0.4105 -0.7395
 9017WAT     H137873   4.859   8.604   4.854  3.8985 -1.4406  0.5301
 9017WAT     H237874   4.844   8.538   4.990  0.2525 -3.4528 -0.6978
 9017WAT    EPW37875   4.818   8.549   4.908  0.7141 -0.3438 -0.5665
 9018WAT      O37876  -3.819   8.036   1.786 -0.0407 -0.1491  0.2947
 9018WAT     H137877  -3.837   8.053   1.878  0.0012  1.5620  0.0259
 9018WAT     H237878  -3.764   7.958   1.786  0.1873 -0.0150  1.7361
 9018WAT    EPW37879  -3.814   8.028   1.798 -0.0051  0.0944  0.4494
 9019WAT      O37880   2.914   2.588   5.573 -0.2290 -0.5748 -0.4243
 9019WAT     H137881   2.823   2.610   5.590 -0.1032 -0.2914 -0.1169
 9019WAT     H237882   2.932   2.627   5.487 -1.0255 -2.4911 -1.5280
 9019WAT    EPW37883   2.904   2.596   5.564 -0.3175 -0.7902 -0.5293
 9020WAT      O37884   2.872   1.369   1.718 -0.3435  0.0530  0.7923
 9020WAT     H137885   2.958   1.335   1.742  0.5206  0.0043 -1.9539
 9020WAT     H237886   2.817   1.292   1.710  0.3968 -0.3377 -1.0021
 9020WAT    EPW37887   2.876   1.354   1.720 -0.1318 -0.0049  0.1934
 9021WAT      O37888   2.528   9.176   8.333 -0.4436 -0.5781 -0.0120
 9021WAT     H137889   2.451   9.146   8.286  0.4400 -1.6630 -0.8402
 9021WAT     H237890   2.498   9.250   8.385 -2.3758 -1.8894  0.8622
 9021WAT    EPW37891   2.514   9.182   8.334 -0.5819 -0.8945 -0.0062
 9022WAT      O37892   5.866   2.543   6.429 -0.5331  0.6171 -0.1389
 9022WAT     H137893   5.833   2.455   6.410  0.0624 -0.4695  3.0788
 9022WAT     H237894   5.805   2.577   6.495 -0.3375  2.3432 -0.8025
 9022WAT    EPW37895   5.853   2.536   6.435 -0.4287  0.7014  0.1981
 9023WAT      O37896   3.037   5.520   3.136  0.4172  0.0167 -0.1461
 9023WAT     H137897   3.018   5.614   3.142 -2.1620 -0.5071  1.2954
 9023WAT     H237898   2.952   5.479   3.124  1.5509 -2.1470 -1.3371
 9023WAT    EPW37899   3.023   5.527   3.135  0.2266 -0.3378 -0.1131
 9024WAT      O37900   7.150   2.106   4.671 -0.1523 -0.0016 -0.1762
 9024WAT     H137901   7.096   2.175   4.710 -0.1651 -0.7696  1.2358
 9024WAT     H237902   7.218   2.089   4.736 -0.2933 -1.4852 -0.3838
 9024WAT    EPW37903   7.152   2.113   4.685 -0.1729 -0.2985 -0.0174
 9025WAT      O37904  -4.297   8.957   2.934 -0.0454  0.3773  0.3426
 9025WAT     H137905  -4.288   8.881   2.991  0.6059  0.9533  1.0258
 9025WAT     H237906  -4.365   9.010   2.976  0.9570  1.1627  1.0189
 9025WAT    EPW37907  -4.305   8.954   2.947  0.1726  0.5569  0.5219
 9026WAT      O37908  -5.010   5.491   7.303 -0.2954  0.4452 -0.6998
 9026WAT     H137909  -5.020   5.487   7.398  0.5736 -1.0244 -0.6423
 9026WAT     H237910  -5.032   5.581   7.280 -2.2334  0.3648  0.6731
 9026WAT    EPW37911  -5.014   5.502   7.312 -0.4365  0.2406 -0.5109
 9027WAT      O37912   4.796   1.938   2.368  0.1478 -0.2876 -0.3036
 9027WAT     H137913   4.769   1.975   2.284  1.6935  0.1257 -0.6534
 9027WAT     H237914   4.868   1.879   2.346  2.3581  1.7803  0.9144
 9027WAT    EPW37915   4.802   1.935   2.354  0.6430  0.0396 -0.1891
 9028WAT      O37916  -2.630   3.558   4.887 -0.6505  0.0451  0.1536
 9028WAT     H137917  -2.647   3.469   4.917  2.1523 -0.7033 -0.2621
 9028WAT     H237918  -2.566   3.549   4.817 -0.8582  2.3499 -0.4344
 9028WAT    EPW37919  -2.624   3.545   4.882 -0.3080  0.2505  0.0212
 9029WAT      O37920  -0.738   2.594   3.101  0.4431  0.3221  0.0070
 9029WAT     H137921  -0.809   2.656   3.085  0.6570  0.8457  0.9515
 9029WAT     H237922  -0.715   2.609   3.193  0.4592 -1.2093  0.2736
 9029WAT    EPW37923  -0.745   2.604   3.111  0.4734  0.1892  0.1668
 9030WAT      O37924   1.041   9.371   1.743 -0.0389 -0.1673  0.5601
 9030WAT     H137925   0.981   9.443   1.724  0.1561 -0.2408 -0.3646
 9030WAT     H237926   1.084   9.397   1.825 -1.3196 -0.1233  1.2498
 9030WAT    EPW37927   1.039   9.384   1.752 -0.1822 -0.1712  0.5291
 9031WAT      O37928  -1.036  10.032   5.688 -0.3703 -0.0436  0.0382
 9031WAT     H137929  -1.087   9.952   5.701  1.7150 -1.0306  3.6533
 9031WAT     H237930  -0.946  10.005   5.701  0.5070  2.7417  0.4505
 9031WAT    EPW37931  -1.031  10.018   5.691  0.0205  0.1936  0.5693
 9032WAT      O37932   6.523   0.660   5.916  0.3365  0.2589  0.1337
 9032WAT     H137933   6.543   0.584   5.971 -0.8786 -0.4735 -0.3643
 9032WAT     H237934   6.604   0.710   5.912  0.8044 -0.3553  1.5111
 9032WAT    EPW37935   6.536   0.656   5.923  0.2379  0.0813  0.2496
 9033WAT      O37936  -5.909   6.756   8.293 -0.1280  0.4480 -0.1123
 9033WAT     H137937  -5.844   6.790   8.355  0.1709 -1.6872  0.8321
 9033WAT     H237938  -5.993   6.784   8.330  0.0958 -0.0442  0.8022
 9033WAT    EPW37939  -5.912   6.764   8.306 -0.0591  0.1016  0.1330
 9034WAT      O37940   1.182   2.236   5.946  0.0647 -0.1810  0.3665
 9034WAT     H137941   1.269   2.227   5.907  1.1825  0.6519  2.5205
 9034WAT     H237942   1.180   2.168   6.014 -0.4563  0.6096  1.1624
 9034WAT    EPW37943   1.193   2.226   5.950  0.1435  0.0331  0.7555
 9035WAT      O37944   8.499   2.734   2.345  0.4939 -0.3784  0.3391
 9035WAT     H137945   8.488   2.827   2.324  0.7278 -0.6096 -0.8668
 9035WAT     H237946   8.445   2.721   2.422  0.1824  0.6859  0.3230
 9035WAT    EPW37947   8.491   2.745   2.352  0.4840 -0.2686  0.1779
 9036WAT      O37948   4.358   0.428   1.741  0.1451 -0.5707  0.6037
 9036WAT     H137949   4.318   0.345   1.717 -3.9396  1.1781  0.4969
 9036WAT     H237950   4.394   0.463   1.659 -1.8687 -0.4483 -0.2736
 9036WAT    EPW37951   4.358   0.422   1.727 -0.6595 -0.3239  0.4740
 9037WAT      O37952   2.482   9.467   2.686  0.0998 -0.5958  0.1058
 9037WAT     H137953   2.528   9.392   2.723  0.6934  0.2218  1.0654
 9037WAT     H237954   2.394   9.463   2.724 -0.3438 -1.5704 -0.9330
 9037WAT    EPW37955   2.476   9.457   2.696  0.1197 -0.6166  0.0952
 9038WAT      O37956  -2.291   8.201   7.711 -0.1702 -0.6319  0.0922
 9038WAT     H137957  -2.235   8.132   7.674  0.6094 -0.4038  0.8020
 9038WAT     H237958  -2.243   8.231   7.789  0.7269  2.3350 -1.4595
 9038WAT    EPW37959  -2.277   8.196   7.717  0.0509 -0.2108 -0.0188
 9039WAT      O37960  -0.589   0.665   7.902 -0.1750 -0.3764  0.1075
 9039WAT     H137961  -0.536   0.586   7.915  0.1378 -0.2944 -0.6073
 9039WAT     H237962  -0.559   0.726   7.970 -1.0909 -1.1882  1.2935
 9039WAT    EPW37963  -0.578   0.663   7.913 -0.2545 -0.4727  0.1698
 9040WAT      O37964  -3.526   8.196   7.333 -0.8052  0.5219  0.0492
 9040WAT     H137965  -3.458   8.224   7.271 -0.7550  0.4484  0.0711
 9040WAT     H237966  -3.481   8.133   7.390 -0.4986  1.5680  0.9843
 9040WAT    EPW37967  -3.511   8.191   7.332 -0.7582  0.6504  0.1757
 9041WAT      O37968   0.010   8.992   2.654 -0.0380  0.1737  0.8883
 9041WAT     H137969   0.036   9.084   2.656  1.6339 -0.2341  0.0672
 9041WAT     H237970   0.009   8.966   2.747  0.5224  0.7437  1.0638
 9041WAT    EPW37971   0.014   9.001   2.667  0.2564  0.1955  0.8031
 9042WAT      O37972  -4.017   4.921   6.685 -0.2410 -0.2700 -0.2976
 9042WAT     H137973  -4.112   4.909   6.684 -0.3084  0.1663  0.2547
 9042WAT     H237974  -3.992   4.904   6.776 -0.0092  1.1448 -0.0688
 9042WAT    EPW37975  -4.026   4.917   6.697 -0.2193 -0.0260 -0.1948
 9043WAT      O37976   5.012   4.741   1.645  0.2424 -0.3840 -0.3056
 9043WAT     H137977   5.073   4.667   1.650 -0.8784 -1.3693 -0.7253
 9043WAT     H237978   4.947   4.723   1.714 -0.4458 -0.1887 -0.8925
 9043WAT    EPW37979   5.011   4.729   1.655  0.0036 -0.4880 -0.4385
 9044WAT      O37980   5.449   4.087   1.258 -0.5664  0.3147  0.0441
 9044WAT     H137981   5.528   4.141   1.260 -0.7149  0.6465 -1.7282
 9044WAT     H237982   5.398   4.117   1.333  0.5319  0.7928  0.6219
 9044WAT    EPW37983   5.453   4.098   1.268 -0.4411  0.4218 -0.1134
 9045WAT      O37984   3.988  10.377   2.803  0.1762 -1.1438 -0.5073
 9045WAT     H137985   3.949  10.367   2.890 -0.1581  1.2005 -0.3325
 9045WAT     H237986   4.074  10.337   2.811 -0.2597 -1.9173  0.5827
 9045WAT    EPW37987   3.994  10.370   2.815  0.0749 -0.9366 -0.3405
 9046WAT      O37988  -2.952   9.076   0.048 -0.4221  0.1728 -0.0512
 9046WAT     H137989  -2.976   8.985   0.030 -1.0560  0.2379  0.4339
 9046WAT     H237990  -3.035   9.125   0.040 -0.3953  0.4586  1.2820
 9046WAT    EPW37991  -2.966   9.071   0.044 -0.5022  0.2189  0.1886
 9047WAT      O37992   3.195   4.309   5.224 -0.0948 -0.0414  0.7196
 9047WAT     H137993   3.102   4.315   5.244 -0.0769 -2.2221  1.6985
 9047WAT     H237994   3.237   4.353   5.298 -0.3113  0.6786  0.4271
 9047WAT    EPW37995   3.188   4.316   5.236 -0.1210 -0.2339  0.8099
 9048WAT      O37996   4.375   1.031   4.748 -0.0932 -0.2953  0.6519
 9048WAT     H137997   4.344   1.004   4.835 -0.3865  1.1610  1.0320
 9048WAT     H237998   4.327   0.975   4.687 -2.4965  0.9282  1.2965
 9048WAT    EPW37999   4.364   1.020   4.751 -0.4487  0.0582  0.7873
 9049WAT      O38000  -2.163   9.034   0.886 -0.1052  0.1999 -0.6169
 9049WAT     H138001  -2.199   9.106   0.835 -2.2866 -1.0280 -0.9317
 9049WAT     H238002  -2.072   9.059   0.903 -0.3719  2.2932 -1.9889
 9049WAT    EPW38003  -2.156   9.047   0.882 -0.4281  0.3138 -0.8394
 9050WAT      O38004  -1.798   7.911   1.977  0.2228 -0.2664 -0.7859
 9050WAT     H138005  -1.730   7.845   1.994  0.4728  0.7506  3.1540
 9050WAT     H238006  -1.750   7.984   1.938  0.9669 -0.4655 -0.2819
 9050WAT    EPW38007  -1.783   7.912   1.974  0.3539 -0.1585 -0.1998
 9051WAT      O38008   5.206   2.723   6.441 -0.5528  0.1464  0.2272
 9051WAT     H138009   5.169   2.736   6.354  1.1944  0.1646 -0.5730
 9051WAT     H238010   5.297   2.698   6.424 -0.1071  0.3824  2.0642
 9051WAT    EPW38011   5.213   2.721   6.428 -0.2635  0.1799  0.3638
 9052WAT      O38012  -1.428   8.004   7.356  0.6018  0.5751 -0.1960
 9052WAT     H138013  -1.511   8.047   7.334  1.0458  0.9181 -1.2208
 9052WAT     H238014  -1.445   7.964   7.442 -1.0006 -0.3239 -0.8723
 9052WAT    EPW38015  -1.441   8.004   7.365  0.4491  0.5016 -0.4203
 9053WAT      O38016   3.627   1.061   0.051  0.8890 -0.2708  0.3319
 9053WAT     H138017   3.713   1.088   0.019  1.6012 -0.7615  1.7271
 9053WAT     H238018   3.588   1.012  -0.021  1.9390 -0.3408 -0.1993
 9053WAT    EPW38019   3.633   1.058   0.037  1.1215 -0.3448  0.4459
 9054WAT      O38020   1.075   1.674   5.682  1.4114  0.0124 -0.0697
 9054WAT     H138021   1.059   1.752   5.736  1.5189 -0.5496  0.7921
 9054WAT     H238022   1.086   1.603   5.745  1.3133 -0.7083 -0.8469
 9054WAT    EPW38023   1.075   1.675   5.697  1.4126 -0.1568 -0.0584
 9055WAT      O38024   2.462   4.607   1.945 -0.6045 -0.2529  0.3248
 9055WAT     H138025   2.373   4.631   1.968  0.3290  2.7814  1.2453
 9055WAT     H238026   2.517   4.660   2.003  1.8147  0.6360 -2.5261
 9055WAT    EPW38027   2.458   4.617   1.956 -0.1624  0.2646  0.0702
 9056WAT      O38028  -0.698   8.808   3.219  0.0595  0.0782 -1.0432
 9056WAT     H138029  -0.735   8.798   3.131  2.1770 -3.3657 -1.7192
 9056WAT     H238030  -0.678   8.902   3.225 -1.9326  0.7620 -3.4319
 9056WAT    EPW38031  -0.700   8.819   3.208  0.0760 -0.2856 -1.4473
 9057WAT      O38032  -1.239   0.646   4.472 -0.5000 -0.2043  0.0874
 9057WAT     H138033  -1.212   0.692   4.552 -0.0983  0.4122 -0.3930
 9057WAT     H238034  -1.208   0.556   4.484  0.5718  0.1576  0.1411
 9057WAT    EPW38035  -1.232   0.640   4.484 -0.3056 -0.0752  0.0312
 9058WAT      O38036   4.124   7.940   5.994 -0.3392 -0.1266  1.1102
 9058WAT     H138037   4.206   7.991   5.990 -0.5095  0.1980  1.6677
 9058WAT     H238038   4.127   7.885   5.916 -0.9479  1.9514 -0.4693
 9058WAT    EPW38039   4.135   7.939   5.983 -0.4418  0.1905  0.9754
 9059WAT      O38040  -7.871   8.160   8.928 -0.0387 -0.4250 -0.2960
 9059WAT     H138041  -7.848   8.116   9.010 -0.3840 -1.2561 -0.6447
 9059WAT     H238042  -7.787   8.173   8.884  0.0551 -0.8115 -0.2325
 9059WAT    EPW38043  -7.857   8.156   8.933 -0.0719 -0.5856 -0.3336
 9060WAT      O38044   5.402   2.286   5.735  0.7440 -0.0357  0.4059
 9060WAT     H138045   5.486   2.290   5.690  1.0107  1.1042  0.9634
 9060WAT     H238046   5.341   2.252   5.670  1.2062  1.1525 -0.6933
 9060WAT    EPW38047   5.405   2.282   5.721  0.8402  0.2714  0.3345
 9061WAT      O38048   1.331   1.240   3.764  0.3403  0.2131 -0.5789
 9061WAT     H138049   1.297   1.234   3.853 -1.1416 -2.6373 -1.2086
 9061WAT     H238050   1.256   1.269   3.712  0.5378 -0.3283 -1.1820
 9061WAT    EPW38051   1.316   1.243   3.768  0.1709 -0.2342 -0.7415
 9062WAT      O38052  -4.847   5.835   8.986  0.1238 -0.6234  0.3304
 9062WAT     H138053  -4.942   5.840   8.975  0.0274 -0.1104  1.2822
 9062WAT     H238054  -4.812   5.865   8.902 -0.5724  1.3232  0.6815
 9062WAT    EPW38055  -4.855   5.840   8.973  0.0192 -0.2990  0.5022
 9063WAT      O38056   4.450   2.289   2.403  0.4097  0.5863 -0.2741
 9063WAT     H138057   4.425   2.213   2.455 -1.0336  0.4337 -1.1409
 9063WAT     H238058   4.382   2.354   2.421 -0.1158  0.5412 -1.9005
 9063WAT    EPW38059   4.438   2.288   2.412  0.1500  0.5603 -0.6028
 9064WAT      O38060  -0.088   6.257   7.344 -0.1673 -0.1428 -0.2155
 9064WAT     H138061   0.002   6.287   7.332 -0.8855  1.9428 -0.8106
 9064WAT     H238062  -0.136   6.335   7.369 -1.7212 -1.3420  0.7264
 9064WAT    EPW38063  -0.082   6.271   7.345 -0.4669 -0.0260 -0.1698
 9065WAT      O38064  -1.043   4.511   8.438 -0.0315  0.2550 -1.1081
 9065WAT     H138065  -1.004   4.506   8.525  0.1137 -1.5076 -1.2286
 9065WAT     H238066  -1.076   4.600   8.431  1.0236  0.7829  0.2828
 9065WAT    EPW38067  -1.042   4.522   8.449  0.1268  0.0923 -0.9403
 9066WAT      O38068   1.655   3.342   2.620  0.3174 -0.0191 -0.2206
 9066WAT     H138069   1.734   3.316   2.668 -0.7753 -0.9923  1.1130
 9066WAT     H238070   1.688   3.374   2.536  2.2877  1.5861  1.0704
 9066WAT    EPW38071   1.670   3.342   2.615  0.4331  0.0643  0.1256
 9067WAT      O38072  -7.557  10.315   7.551  0.3674 -0.0610 -0.2541
 9067WAT     H138073  -7.512  10.345   7.630  2.2085 -1.8738 -0.5092
 9067WAT     H238074  -7.487  10.277   7.497 -1.2494 -1.5207 -1.4446
 9067WAT    EPW38075  -7.542  10.314   7.554  0.3970 -0.4926 -0.4449
 9068WAT      O38076   5.883   1.198   7.075 -0.6230 -0.0765 -0.0796
 9068WAT     H138077   5.884   1.174   7.168 -2.2726 -0.5245 -0.1497
 9068WAT     H238078   5.929   1.127   7.031 -0.6046 -0.3082  0.3132
 9068WAT    EPW38079   5.889   1.185   7.081 -0.8383 -0.1661 -0.0372
 9069WAT      O38080  -4.330   3.610   5.398 -0.0905  0.9527  0.2835
 9069WAT     H138081  -4.246   3.568   5.379  0.7244  1.2354  2.9304
 9069WAT     H238082  -4.359   3.644   5.313  2.4269  0.7803 -0.7297
 9069WAT    EPW38083  -4.323   3.609   5.384  0.3490  0.9673  0.4990
 9070WAT      O38084   4.895   4.019   2.648 -0.8923 -0.1246  0.0648
 9070WAT     H138085   4.896   3.979   2.735 -1.1205 -2.5724 -0.9662
 9070WAT     H238086   4.928   4.108   2.662 -0.5038 -0.5859  2.5609
 9070WAT    EPW38087   4.900   4.026   2.661 -0.8712 -0.5083  0.2580
 9071WAT      O38088  -6.637   6.213   8.336  0.3716  0.0545 -0.1759
 9071WAT     H138089  -6.661   6.121   8.349  2.4411 -0.8857 -2.2049
 9071WAT     H238090  -6.701   6.246   8.274  1.0385 -0.8236 -1.3855
 9071WAT    EPW38091  -6.648   6.205   8.329  0.7327 -0.1855 -0.6027
 9072WAT      O38092   0.965   4.011   5.418 -0.2619 -0.2568 -0.3008
 9072WAT     H138093   0.886   3.966   5.389 -0.8117 -0.7818  1.8611
 9072WAT     H238094   0.941   4.049   5.502  0.6846  2.7673 -1.2674
 9072WAT    EPW38095   0.951   4.010   5.425 -0.2096  0.0727 -0.1433
 9073WAT      O38096   3.453   2.225   2.764 -0.0408 -0.1920 -0.1238
 9073WAT     H138097   3.385   2.262   2.707 -0.2013  0.8724  0.7374
 9073WAT     H238098   3.451   2.131   2.744 -0.2824  0.1087 -1.6605
 9073WAT    EPW38099   3.444   2.217   2.754 -0.0938 -0.0120 -0.2129
 9074WAT      O38100  -3.284   5.902   5.792  0.1217  0.5091  0.0791
 9074WAT     H138101  -3.346   5.846   5.745 -0.7886  0.0557  1.7444
 9074WAT     H238102  -3.296   5.988   5.752 -0.8406  0.2053 -0.3303
 9074WAT    EPW38103  -3.294   5.906   5.781 -0.1253  0.4091  0.2446
 9075WAT      O38104  -2.697   5.890   1.443  0.5846  0.1535 -0.0100
 9075WAT     H138105  -2.603   5.893   1.425  0.7173  0.4199  0.6642
 9075WAT     H238106  -2.709   5.954   1.514 -0.2157  0.6232 -0.5520
 9075WAT    EPW38107  -2.686   5.899   1.450  0.4966  0.2506  0.0075
 9076WAT      O38108   4.301   5.265   2.996  0.1763 -0.2893 -0.2036
 9076WAT     H138109   4.247   5.215   2.935  2.9382 -1.7350 -1.6282
 9076WAT     H238110   4.278   5.230   3.082 -0.8437 -1.1292 -0.7956
 9076WAT    EPW38111   4.291   5.254   3.000  0.4060 -0.5906 -0.4697
 9077WAT      O38112  -1.032   7.434   4.749  0.2907  0.4912  0.2019
 9077WAT     H138113  -1.038   7.528   4.731 -0.4177  0.8997  2.3371
 9077WAT     H238114  -1.089   7.419   4.824  0.4242 -1.6576 -0.0427
 9077WAT    EPW38115  -1.040   7.444   4.756  0.2149  0.2618  0.4511
 9078WAT      O38116   2.277   5.755   5.780  0.2815  0.0902  0.1781
 9078WAT     H138117   2.256   5.662   5.779 -2.8827  0.6972 -0.7905
 9078WAT     H238118   2.223   5.791   5.850 -0.2407  1.4983 -0.8974
 9078WAT    EPW38119   2.267   5.748   5.789 -0.2047  0.3560 -0.0913
 9079WAT      O38120   6.222   2.085   3.292  0.1330 -0.1668  0.1306
 9079WAT     H138121   6.153   2.148   3.315  0.3513 -0.3405  1.2943
 9079WAT     H238122   6.212   2.015   3.356 -0.9498 -1.9952 -1.9198
 9079WAT    EPW38123   6.211   2.084   3.303  0.0191 -0.4309  0.0137
 9080WAT      O38124   7.861   4.172   2.116 -0.4066 -0.2467 -0.0718
 9080WAT     H138125   7.854   4.081   2.143 -0.2249 -0.0983  0.4947
 9080WAT     H238126   7.790   4.184   2.053 -1.3471 -0.4021  0.9155
 9080WAT    EPW38127   7.851   4.162   2.111 -0.5066 -0.2477  0.1332
 9081WAT      O38128  -4.601   7.393   8.825  0.0497  0.5778  0.2909
 9081WAT     H138129  -4.597   7.439   8.909 -1.3882  0.4053  0.4652
 9081WAT     H238130  -4.591   7.301   8.849 -1.1902  0.4562  0.3673
 9081WAT    EPW38131  -4.599   7.387   8.839 -0.3033  0.5393  0.3238
 9082WAT      O38132   4.704   7.778   5.256  0.1383  0.2024 -0.4205
 9082WAT     H138133   4.668   7.691   5.238  0.4281 -0.2714  1.1269
 9082WAT     H238134   4.782   7.783   5.201  0.4976 -0.8172 -0.0438
 9082WAT    EPW38135   4.709   7.767   5.247  0.2239  0.0055 -0.1667
 9083WAT      O38136  -2.110   0.476   8.738  0.2737 -0.6547  0.3529
 9083WAT     H138137  -2.176   0.427   8.787  2.3931 -2.0168  2.0789
 9083WAT     H238138  -2.109   0.562   8.780  0.1372 -0.8939  0.8620
 9083WAT    EPW38139  -2.118   0.480   8.750  0.5352 -0.8659  0.6480
 9084WAT      O38140   8.344   2.189   1.100 -0.0275 -0.0997  0.0230
 9084WAT     H138141   8.316   2.165   1.012  0.4392 -1.5828  0.2488
 9084WAT     H238142   8.263   2.215   1.145 -0.2523  0.7417 -0.8466
 9084WAT    EPW38143   8.330   2.189   1.095  0.0043 -0.1843 -0.0619
 9085WAT      O38144   5.576   7.326   0.236  0.3160  0.2643  0.2064
 9085WAT     H138145   5.645   7.375   0.191  0.3378  1.7575  1.7220
 9085WAT     H238146   5.500   7.383   0.232 -0.5317 -0.8887 -0.4861
 9085WAT    EPW38147   5.575   7.340   0.230  0.2072  0.3092  0.3149
 9086WAT      O38148  -0.552   0.042   7.158  0.2028  0.1871 -0.8025
 9086WAT     H138149  -0.647   0.049   7.144 -0.7786 -2.6872  3.0012
 9086WAT     H238150  -0.515   0.102   7.093 -4.2449  2.8641 -1.3344
 9086WAT    EPW38151  -0.560   0.051   7.147 -0.5133  0.1611 -0.3710
 9087WAT      O38152   5.599   8.446   0.212  0.0468 -0.4936  0.1182
 9087WAT     H138153   5.553   8.468   0.293  0.7042 -1.0720  0.6713
 9087WAT     H238154   5.637   8.529   0.182  2.0174 -0.6738  1.8547
 9087WAT    EPW38155   5.598   8.460   0.219  0.3932 -0.5937  0.4202
 9088WAT      O38156  -3.201   4.808   8.490 -0.3306 -0.2356 -0.2870
 9088WAT     H138157  -3.290   4.775   8.484 -0.0898 -0.6928 -2.1602
 9088WAT     H238158  -3.193   4.869   8.417  1.9536 -3.0714 -2.7044
 9088WAT    EPW38159  -3.212   4.811   8.479  0.0024 -0.6700 -0.8531
 9089WAT      O38160  -7.458  10.090   6.625  0.2811 -0.5850  0.0005
 9089WAT     H138161  -7.469  10.162   6.687  2.0082 -2.4436  2.6850
 9089WAT     H238162  -7.364  10.091   6.604  0.2024 -1.6026 -0.4391
 9089WAT    EPW38163  -7.447  10.100   6.631  0.4983 -0.9646  0.2966
 9090WAT      O38164   7.500   4.195   1.515 -0.0664 -0.5423 -0.4101
 9090WAT     H138165   7.449   4.268   1.551 -0.0901 -0.6615 -0.2012
 9090WAT     H238166   7.571   4.238   1.468  0.0640 -0.3846 -0.0764
 9090WAT    EPW38167   7.503   4.211   1.514 -0.0525 -0.5369 -0.3385
 9091WAT      O38168  -0.365   7.101   7.030  0.1352  0.4823 -0.2097
 9091WAT     H138169  -0.340   7.064   7.115 -0.7959 -1.4713 -0.7303
 9091WAT     H238170  -0.341   7.033   6.967  2.6332  2.6679 -1.8108
 9091WAT    EPW38171  -0.358   7.087   7.033  0.3419  0.5128 -0.4895
 9092WAT      O38172   0.687   5.178   7.478 -1.1802  0.3691 -0.4679
 9092WAT     H138173   0.671   5.247   7.542  0.5944  0.3314  0.0616
 9092WAT     H238174   0.614   5.185   7.416 -2.5729  0.8386  1.1542
 9092WAT    EPW38175   0.675   5.188   7.478 -1.1298  0.4261 -0.1843
 9093WAT      O38176   2.753   8.401   3.874 -0.4556  0.1647  0.2479
 9093WAT     H138177   2.792   8.384   3.960  0.2493  1.0461  0.1179
 9093WAT     H238178   2.678   8.341   3.870  0.1505 -0.6799  1.0129
 9093WAT    EPW38179   2.748   8.391   3.885 -0.2828  0.1693  0.3315
 9094WAT      O38180  -1.327   5.965   0.481  0.0600  0.0966 -0.2374
 9094WAT     H138181  -1.280   6.026   0.537 -0.7545  1.1256 -0.6441
 9094WAT     H238182  -1.415   5.961   0.519  0.4317 -1.9139  0.6069
 9094WAT    EPW38183  -1.332   5.972   0.494  0.0016 -0.0329 -0.1797
 9095WAT      O38184  -4.170   6.991   5.623  0.6208  0.0641 -0.9269
 9095WAT     H138185  -4.246   6.980   5.680  1.1262 -0.3906 -0.3153
 9095WAT     H238186  -4.161   6.906   5.580  1.2435 -0.1601 -0.3867
 9095WAT    EPW38187  -4.179   6.978   5.625  0.7694 -0.0257 -0.7751
 9096WAT      O38188   2.454   0.903   7.953  0.3132  0.7516  0.1699
 9096WAT     H138189   2.416   0.926   7.868 -0.6634  1.5964  0.8182
 9096WAT     H238190   2.379   0.882   8.008  1.0480 -2.9730 -0.0013
 9096WAT    EPW38191   2.439   0.904   7.949  0.2813  0.3718  0.2329
 9097WAT      O38192  -2.676   3.889   2.858 -0.9803 -0.1240 -0.5508
 9097WAT     H138193  -2.707   3.866   2.770 -2.0561 -1.4054  0.1123
 9097WAT     H238194  -2.609   3.955   2.844 -2.6016  1.2607 -2.2162
 9097WAT    EPW38195  -2.671   3.895   2.844 -1.3360 -0.1105 -0.6829
 9098WAT      O38196  -2.208   7.219   0.992 -0.6077  0.5160  0.2059
 9098WAT     H138197  -2.205   7.124   1.008 -1.0189  0.4267 -0.2534
 9098WAT     H238198  -2.150   7.232   0.918 -1.3938  0.4795 -0.4231
 9098WAT    EPW38199  -2.200   7.208   0.985 -0.7656  0.4995  0.0623
 9099WAT      O38200  -3.836   7.120   2.821 -0.3221 -0.6478 -0.4934
 9099WAT     H138201  -3.899   7.130   2.749 -0.1007 -1.7094 -0.8386
 9099WAT     H238202  -3.886   7.076   2.890  0.0274 -1.4701 -0.7591
 9099WAT    EPW38203  -3.851   7.116   2.820 -0.2468 -0.8962 -0.5740
 9100WAT      O38204  -0.575   1.107   5.790 -0.5848  0.4349 -0.0608
 9100WAT     H138205  -0.510   1.047   5.827 -0.1238  1.2087  0.4068
 9100WAT     H238206  -0.524   1.180   5.757 -1.1144  0.4123 -0.9654
 9100WAT    EPW38207  -0.560   1.108   5.791 -0.5939  0.5339 -0.1183
 9101WAT      O38208   4.082   8.512   2.688 -0.4946 -0.9517 -0.1119
 9101WAT     H138209   4.157   8.454   2.702  0.2718 -0.1165 -0.6887
 9101WAT     H238210   4.065   8.549   2.775  0.8938  0.1827 -0.2815
 9101WAT    EPW38211   4.090   8.510   2.701 -0.2103 -0.6919 -0.2104
 9102WAT      O38212   6.079   3.629   3.309 -0.6628 -0.6545 -0.0527
 9102WAT     H138213   6.031   3.546   3.306  0.5102 -1.5059  2.0708
 9102WAT     H238214   6.164   3.605   3.344 -0.4699  1.5251  1.1060
 9102WAT    EPW38215   6.084   3.615   3.313 -0.4828 -0.4793  0.3800
 9103WAT      O38216   7.010   8.421   0.671 -0.0890  0.6750  0.5047
 9103WAT     H138217   7.094   8.428   0.717  0.1965  0.5968 -0.0019
 9103WAT     H238218   6.965   8.503   0.689 -0.4645  0.2093  1.8631
 9103WAT    EPW38219   7.015   8.432   0.680 -0.1009  0.6032  0.6171
 9104WAT      O38220   5.511   2.936   3.049 -0.6474 -0.7310 -0.1729
 9104WAT     H138221   5.418   2.951   3.034 -1.7924 -0.7912  4.9935
 9104WAT     H238222   5.552   3.021   3.033 -1.4491 -0.7511 -2.6924
 9104WAT    EPW38223   5.504   2.949   3.045 -0.9041 -0.7416  0.1763
 9105WAT      O38224   4.090   0.134   7.097  0.6106  0.4282 -0.4993
 9105WAT     H138225   4.144   0.070   7.143 -0.7175 -0.7307 -0.4650
 9105WAT     H238226   4.075   0.095   7.011  0.2947  0.9820 -0.7007
 9105WAT    EPW38227   4.095   0.120   7.092  0.3939  0.3484 -0.5214
 9106WAT      O38228   4.109   3.583   8.571 -0.1340  0.3845 -0.0452
 9106WAT     H138229   4.075   3.643   8.638 -0.3932 -1.0884  1.2198
 9106WAT     H238230   4.032   3.558   8.520 -0.1429  0.6143 -0.1433
 9106WAT    EPW38231   4.094   3.587   8.573 -0.1693  0.2204  0.1087
 9107WAT      O38232   4.774   6.866   1.717  0.5372  0.3736  0.6360
 9107WAT     H138233   4.829   6.845   1.641 -0.0142 -4.0432  1.2267
 9107WAT     H238234   4.812   6.816   1.789 -1.9256  0.3324  2.0091
 9107WAT    EPW38235   4.786   6.857   1.716  0.1395 -0.2143  0.8950
 9108WAT      O38236   4.119   3.078   5.728 -0.3043 -0.7420  0.4856
 9108WAT     H138237   4.123   2.983   5.743  1.6543 -1.4620 -3.4020
 9108WAT     H238238   4.181   3.115   5.792  1.7806 -2.5744 -0.3477
 9108WAT    EPW38239   4.128   3.070   5.739  0.2291 -1.0787 -0.1371
 9109WAT      O38240  -3.016   7.833   2.394 -0.1439  0.2906 -0.5667
 9109WAT     H138241  -2.932   7.835   2.440 -1.1193  3.4084  1.4250
 9109WAT     H238242  -3.081   7.836   2.464 -1.8140  1.1111 -2.0823
 9109WAT    EPW38243  -3.013   7.834   2.410 -0.4928  0.8099 -0.5039
 9110WAT      O38244   8.992   1.689   0.994 -0.1779 -0.2024 -0.8256
 9110WAT     H138245   9.022   1.617   1.050 -1.1917 -0.1701 -0.2071
 9110WAT     H238246   9.031   1.767   1.034 -0.9159 -0.1777 -0.1389
 9110WAT    EPW38247   9.001   1.690   1.007 -0.4091 -0.1948 -0.6535
 9111WAT      O38248   3.159   6.883   4.795 -0.1802 -0.0740  0.1451
 9111WAT     H138249   3.107   6.890   4.876 -0.0619  2.5227  0.0873
 9111WAT     H238250   3.194   6.972   4.782  2.6893 -1.2308 -0.8841
 9111WAT    EPW38251   3.157   6.896   4.804  0.2140  0.1159  0.0017
 9112WAT      O38252   2.631   2.621   0.208  0.0597  0.4291  0.2503
 9112WAT     H138253   2.713   2.669   0.205  1.3162 -1.6175  0.4184
 9112WAT     H238254   2.638   2.565   0.285 -2.1151  1.1897  1.1059
 9112WAT    EPW38255   2.642   2.620   0.218 -0.0614  0.2594  0.3853
 9113WAT      O38256  -0.294   1.024   8.388 -0.3611  0.3303  0.3228
 9113WAT     H138257  -0.270   0.950   8.332 -3.4526 -0.1403 -0.5788
 9113WAT     H238258  -0.283   1.101   8.333 -2.7545 -0.0759 -0.8903
 9113WAT    EPW38259  -0.290   1.024   8.373 -1.0845  0.2146  0.0439
 9114WAT      O38260  -4.786   9.190   4.419  0.1139  0.5695  0.4088
 9114WAT     H138261  -4.787   9.183   4.324  2.8279 -1.0711  0.4112
 9114WAT     H238262  -4.771   9.283   4.436 -0.5336  0.8971 -0.7368
 9114WAT    EPW38263  -4.784   9.201   4.409  0.3865  0.3963  0.2580
 9115WAT      O38264   0.913   6.405   0.785 -0.1141 -0.8367 -0.6024
 9115WAT     H138265   0.893   6.375   0.874  1.3583 -0.8195 -0.2347
 9115WAT     H238266   0.873   6.341   0.728 -2.0502 -0.2565  0.0259
 9115WAT    EPW38267   0.905   6.393   0.789 -0.1752 -0.7577 -0.4710
 9116WAT      O38268  -0.167  10.324   1.363  0.5587 -0.4777 -0.4976
 9116WAT     H138269  -0.262  10.333   1.365  0.5510 -0.0740  2.9083
 9116WAT     H238270  -0.134  10.414   1.375  1.1671 -0.9799  2.4695
 9116WAT    EPW38271  -0.175  10.337   1.365  0.6380 -0.4907  0.3430
 9117WAT      O38272  -1.382   6.583   3.963  0.6363 -0.5074  0.1419
 9117WAT     H138273  -1.409   6.668   3.998 -0.8159 -1.5258  1.6345
 9117WAT     H238274  -1.431   6.573   3.882  0.9722  0.1348 -0.1542
 9117WAT    EPW38275  -1.392   6.593   3.957  0.4891 -0.5572  0.2998
 9118WAT      O38276  -2.896   3.132   5.969 -0.1939 -0.2260 -0.9315
 9118WAT     H138277  -2.984   3.096   5.963  0.2802 -1.3286 -1.3659
 9118WAT     H238278  -2.838   3.056   5.971  0.6976  0.4523  0.4587
 9118WAT    EPW38279  -2.900   3.118   5.968 -0.0138 -0.2819 -0.8056
 9119WAT      O38280  -1.013   5.988   8.265  0.2139  0.2836 -0.4342
 9119WAT     H138281  -1.057   6.066   8.232  0.3649 -0.4502 -2.4906
 9119WAT     H238282  -0.961   5.957   8.192 -0.4610 -2.1962  0.0467
 9119WAT    EPW38283  -1.012   5.994   8.251  0.1448 -0.1402 -0.6418
 9120WAT      O38284  -4.145   9.272   4.297 -0.3917  0.0720  0.2286
 9120WAT     H138285  -4.208   9.330   4.252  0.0043 -0.0795 -0.5432
 9120WAT     H238286  -4.069   9.328   4.313 -1.5953  1.0266  3.5156
 9120WAT    EPW38287  -4.143   9.287   4.293 -0.4983  0.1783  0.5603
 9121WAT      O38288   3.329   2.698   3.347 -0.4577  0.5771 -0.0447
 9121WAT     H138289   3.419   2.724   3.328 -0.0390  0.2047  1.3369
 9121WAT     H238290   3.324   2.606   3.324 -0.2694  0.4148  0.5405
 9121WAT    EPW38291   3.340   2.690   3.342 -0.3775  0.5065  0.2148
 9122WAT      O38292  -1.008   9.040   2.405 -0.2326  0.0659 -0.3949
 9122WAT     H138293  -1.040   9.118   2.359 -0.0465  0.3098 -0.1105
 9122WAT     H238294  -0.935   9.071   2.458 -0.4337 -0.2209  0.0564
 9122WAT    EPW38295  -1.003   9.054   2.406 -0.2346  0.0601 -0.2978
 9123WAT      O38296  -2.730   6.475   8.320 -0.3768  0.0725 -0.9345
 9123WAT     H138297  -2.733   6.395   8.267  0.2394  0.1170 -1.0422
 9123WAT     H238298  -2.754   6.447   8.408 -0.6866 -0.1368 -1.0865
 9123WAT    EPW38299  -2.733   6.461   8.324 -0.3365  0.0508 -0.9689
 9124WAT      O38300   5.475   2.162   3.776  0.0253 -0.0655 -0.4601
 9124WAT     H138301   5.523   2.244   3.789  2.7433 -1.6008 -0.0650
 9124WAT     H238302   5.465   2.154   3.681 -0.6508  0.9035 -0.4787
 9124WAT    EPW38303   5.480   2.172   3.765  0.2944 -0.1402 -0.4106
 9125WAT      O38304   5.175   1.188   4.477 -0.6418  0.2425 -0.1070
 9125WAT     H138305   5.257   1.140   4.474  0.4651  2.0556 -1.6532
 9125WAT     H238306   5.157   1.200   4.570  1.4866  0.7895  0.2904
 9125WAT    EPW38307   5.183   1.183   4.489 -0.2151  0.5538 -0.2584
 9126WAT      O38308   0.045   9.429   8.306  0.7367 -0.7980 -0.2000
 9126WAT     H138309  -0.011   9.408   8.232  0.3499 -1.3365  0.2328
 9126WAT     H238310   0.090   9.347   8.327  1.7401 -0.3592 -0.5771
 9126WAT    EPW38311   0.044   9.416   8.299  0.8180 -0.8111 -0.1931
 9127WAT      O38312  -1.582   6.317   3.701 -0.3206 -0.4095 -0.3611
 9127WAT     H138313  -1.644   6.387   3.717 -0.4998 -0.7732  0.5764
 9127WAT     H238314  -1.496   6.355   3.718 -0.4654 -0.6121  0.9073
 9127WAT    EPW38315  -1.579   6.331   3.705 -0.3633 -0.4842 -0.0701
 9128WAT      O38316   3.875   1.611   6.985 -0.1737 -0.5243 -0.0042
 9128WAT     H138317   3.850   1.650   7.069  0.7732 -1.6837  0.8435
 9128WAT     H238318   3.935   1.674   6.946  0.0524 -0.3724  0.5865
 9128WAT    EPW38319   3.879   1.624   6.991 -0.0190 -0.6573  0.1855
 9129WAT      O38320   2.129   4.831   0.544  0.4158  0.0551  0.5510
 9129WAT     H138321   2.218   4.797   0.543  1.8821  3.4910  0.0901
 9129WAT     H238322   2.122   4.881   0.462 -1.7062  0.4038  0.8875
 9129WAT    EPW38323   2.140   4.833   0.533  0.3294  0.5543  0.5345
 9130WAT      O38324   3.596   7.770   6.381 -0.7235 -0.1621  0.2177
 9130WAT     H138325   3.564   7.716   6.309  1.6831 -0.5908 -0.6187
 9130WAT     H238326   3.578   7.860   6.353  0.6997 -0.2890 -1.2529
 9130WAT    EPW38327   3.589   7.775   6.368 -0.2183 -0.2356 -0.0865
 9131WAT      O38328  -3.651   1.710   6.170  0.1188  0.3242 -0.0381
 9131WAT     H138329  -3.559   1.738   6.162  0.9404 -2.1274  0.0080
 9131WAT     H238330  -3.652   1.653   6.246 -2.0808  2.3410  1.6090
 9131WAT    EPW38331  -3.639   1.706   6.179 -0.0629  0.2668  0.1855
 9132WAT      O38332   3.585   1.625   1.710  0.1780  0.0990 -0.7790
 9132WAT     H138333   3.497   1.661   1.697  0.9014  2.0893 -0.5964
 9132WAT     H238334   3.644   1.700   1.695  1.8906 -1.3114 -1.5333
 9132WAT    EPW38335   3.582   1.640   1.706  0.4994  0.1755 -0.8544
 9133WAT      O38336  -0.753  10.199   5.126 -0.2909  0.4954  0.2143
 9133WAT     H138337  -0.707  10.126   5.086 -0.1578  0.3194  0.6780
 9133WAT     H238338  -0.695  10.274   5.115 -0.9728  0.8384 -1.3971
 9133WAT    EPW38339  -0.740  10.199   5.119 -0.3633  0.5174  0.0629
 9134WAT      O38340   0.372  10.195   6.651  0.1437 -0.6226  0.0072
 9134WAT     H138341   0.467  10.183   6.654  0.4009  0.8240 -1.1703
 9134WAT     H238342   0.360  10.290   6.644 -1.3224 -0.8651 -1.3309
 9134WAT    EPW38343   0.383  10.206   6.650 -0.0158 -0.4640 -0.3245
 9135WAT      O38344  -3.199   7.798   8.016  0.7861 -0.4388 -0.2394
 9135WAT     H138345  -3.158   7.758   7.939 -0.6228 -0.2011 -1.1522
 9135WAT     H238346  -3.187   7.733   8.085 -0.3393 -1.9195 -1.3646
 9135WAT    EPW38347  -3.192   7.784   8.015  0.4519 -0.6030 -0.5083
 9136WAT      O38348   9.658   1.662   0.796  0.5625  0.6911  0.0054
 9136WAT     H138349   9.609   1.729   0.750  0.4020  0.3121 -0.3842
 9136WAT     H238350   9.602   1.638   0.870 -1.3761 -1.9662 -2.1396
 9136WAT    EPW38351   9.644   1.667   0.800  0.2856  0.2906 -0.3289
 9137WAT      O38352  -1.551   6.478   0.152  0.4864 -0.9857  0.2373
 9137WAT     H138353  -1.476   6.478   0.092  2.1059 -4.9971  1.9140
 9137WAT     H238354  -1.620   6.433   0.104 -0.8616  2.0967 -1.0388
 9137WAT    EPW38355  -1.550   6.472   0.138  0.5222 -1.1084  0.2901
 9138WAT      O38356   5.511   8.103   3.570 -0.4168  0.0037  0.5598
 9138WAT     H138357   5.492   8.023   3.521 -0.9275  0.5064 -0.0753
 9138WAT     H238358   5.606   8.101   3.584 -0.2666 -0.1537 -0.4332
 9138WAT    EPW38359   5.521   8.092   3.565 -0.4644  0.0491  0.3450
 9139WAT      O38360   3.600   6.221   3.777  0.5070  0.0746  0.0482
 9139WAT     H138361   3.645   6.262   3.851 -0.4947 -0.3653  0.9210
 9139WAT     H238362   3.671   6.188   3.722  1.2997 -1.2112  1.7263
 9139WAT    EPW38363   3.615   6.222   3.780  0.4795 -0.1531  0.3846
 9140WAT      O38364   4.802   6.372   1.725 -0.1723 -0.4724  0.1449
 9140WAT     H138365   4.780   6.423   1.803  1.1775  1.2356 -0.5372
 9140WAT     H238366   4.802   6.281   1.756  0.0282  0.1323  2.0542
 9140WAT    EPW38367   4.799   6.367   1.740  0.0322 -0.1674  0.3068
 9141WAT      O38368   4.749   5.345   0.919 -0.0831  0.2718  0.0374
 9141WAT     H138369   4.755   5.404   0.844  0.1663  1.6234  1.0850
 9141WAT     H238370   4.837   5.309   0.928  0.2181  1.0684  0.4112
 9141WAT    EPW38371   4.761   5.348   0.910 -0.0105  0.5550  0.2248
 9142WAT      O38372   4.072   6.108   7.784 -0.1700 -0.0266 -0.0799
 9142WAT     H138373   4.068   6.071   7.872  1.7656  1.0723  0.5398
 9142WAT     H238374   3.996   6.072   7.739  0.0613 -2.4444  1.3245
 9142WAT    EPW38375   4.062   6.099   7.790  0.1156 -0.2005  0.1872
 9143WAT      O38376   7.157   4.867   1.054  0.3813  0.0875  0.2873
 9143WAT     H138377   7.229   4.841   1.111 -0.6625  0.8252  2.0331
 9143WAT     H238378   7.184   4.840   0.966  2.4033 -0.3743  1.0087
 9143WAT    EPW38379   7.170   4.860   1.050  0.5102  0.1237  0.6127
 9144WAT      O38380  -0.502   1.076   5.056  0.2393 -0.0575  0.5566
 9144WAT     H138381  -0.577   1.124   5.091 -1.5966 -2.4039  0.1200
 9144WAT     H238382  -0.462   1.035   5.133 -0.3175 -0.6100  0.5594
 9144WAT    EPW38383  -0.507   1.077   5.071 -0.0763 -0.4399  0.4992
 9145WAT      O38384  -1.502   7.619   8.328  0.3397  0.0742 -0.4319
 9145WAT     H138385  -1.450   7.649   8.254 -0.4876 -0.0736 -1.0982
 9145WAT     H238386  -1.593   7.630   8.299 -0.0250  1.1625  1.0339
 9145WAT    EPW38387  -1.508   7.624   8.315  0.1824  0.1984 -0.3266
 9146WAT      O38388   0.053   4.229   8.282  0.1287  0.1481 -0.3660
 9146WAT     H138389   0.071   4.299   8.219  1.0228 -1.6019 -2.1583
 9146WAT     H238390   0.103   4.154   8.250 -2.5003 -2.0145  0.1957
 9146WAT    EPW38391   0.062   4.228   8.270 -0.1001 -0.3681 -0.5283
 9147WAT      O38392  -8.327  10.106   8.291 -0.0692 -0.2304 -0.2849
 9147WAT     H138393  -8.334  10.053   8.369  1.7916 -0.7799 -0.4475
 9147WAT     H238394  -8.396  10.074   8.233 -1.3282  0.0517  1.0119
 9147WAT    EPW38395  -8.337  10.095   8.293  0.0105 -0.2661 -0.1349
 9148WAT      O38396   2.703   4.802   7.222 -0.3715 -1.1059 -0.3360
 9148WAT     H138397   2.743   4.801   7.135 -0.4570 -2.4970 -0.3711
 9148WAT     H238398   2.773   4.833   7.280 -0.1882 -0.5756 -0.8341
 9148WAT    EPW38399   2.718   4.806   7.219 -0.3587 -1.2195 -0.4063
 9149WAT      O38400  -2.721   9.029   5.702  0.0214 -0.1443  0.3885
 9149WAT     H138401  -2.811   9.030   5.734 -0.4133  1.8461 -0.7113
 9149WAT     H238402  -2.729   9.012   5.608  0.9058 -1.1880  0.4806
 9149WAT    EPW38403  -2.734   9.027   5.694  0.0808 -0.0191  0.2556
 9150WAT      O38404   3.583   6.261   5.024  0.3564  0.4342 -0.1140
 9150WAT     H138405   3.605   6.354   5.022 -1.0402  0.8031  0.4004
 9150WAT     H238406   3.637   6.222   4.956  0.0388  1.8442 -1.2283
 9150WAT    EPW38407   3.593   6.268   5.015  0.1303  0.6688 -0.1931
 9151WAT      O38408  -2.832   7.513   2.604 -0.2704 -0.6350  1.1351
 9151WAT     H138409  -2.855   7.504   2.697  0.2600 -3.8476  1.0625
 9151WAT     H238410  -2.738   7.496   2.601 -0.0591  0.5674  0.0773
 9151WAT    EPW38411  -2.823   7.510   2.616 -0.1726 -0.9003  0.9861
 9152WAT      O38412   0.356   4.426   5.190  0.2034 -0.1426 -0.8223
 9152WAT     H138413   0.289   4.414   5.123 -2.0816 -0.2641  1.3549
 9152WAT     H238414   0.327   4.502   5.241  0.3522 -1.6077  1.6342
 9152WAT    EPW38415   0.343   4.435   5.188 -0.0784 -0.3517 -0.2112
 9153WAT      O38416  -1.805   6.743   5.503  0.2311  0.0284  0.2248
 9153WAT     H138417  -1.758   6.826   5.503 -1.2698  0.9491 -1.6791
 9153WAT     H238418  -1.897   6.766   5.511 -0.0646 -1.7317  3.7870
 9153WAT    EPW38419  -1.811   6.757   5.504 -0.0058 -0.0823  0.4437
 9154WAT      O38420   8.335   2.738   1.533  0.6260 -0.1216  0.2686
 9154WAT     H138421   8.336   2.771   1.622 -3.8868 -0.3462  0.6441
 9154WAT     H238422   8.244   2.713   1.517  0.3190  2.8247 -5.4304
 9154WAT    EPW38423   8.323   2.739   1.542 -0.0095  0.2373 -0.4336
 9155WAT      O38424  -1.777   8.163   5.862  0.4346  0.1898  0.2463
 9155WAT     H138425  -1.844   8.194   5.923  2.1400  2.2553  1.2351
 9155WAT     H238426  -1.731   8.095   5.911 -1.3213 -1.7901 -0.7228
 9155WAT    EPW38427  -1.780   8.158   5.876  0.4280  0.2012  0.2491
 9156WAT      O38428  -0.980   0.381   1.929  0.1861  0.3544  0.6503
 9156WAT     H138429  -0.905   0.379   1.869 -0.0115 -0.2551  0.4138
 9156WAT     H238430  -0.976   0.298   1.976  0.2169  0.7371  1.3400
 9156WAT    EPW38431  -0.970   0.370   1.927  0.1642  0.3245  0.7101
 9157WAT      O38432  -2.302   3.196   5.361 -0.2681 -0.3983  0.2223
 9157WAT     H138433  -2.216   3.158   5.378 -0.4527 -0.9932 -0.1549
 9157WAT     H238434  -2.291   3.243   5.278 -0.1073  0.1702  0.5607
 9157WAT    EPW38435  -2.289   3.198   5.352 -0.2712 -0.4019  0.2172
 9158WAT      O38436  -1.204   9.898   6.779 -0.3853  0.2345 -0.5233
 9158WAT     H138437  -1.232   9.972   6.832  0.6199  1.3640 -1.4993
 9158WAT     H238438  -1.245   9.822   6.819 -2.2796  1.4318 -0.0935
 9158WAT    EPW38439  -1.213   9.898   6.791 -0.5026  0.5412 -0.5953
 9159WAT      O38440   0.937   9.308   7.616  0.2584 -0.6455 -0.1593
 9159WAT     H138441   0.891   9.327   7.534  0.2179 -0.9558 -0.2091
 9159WAT     H238442   0.924   9.387   7.669 -1.3059 -1.1543  0.2773
 9159WAT    EPW38443   0.929   9.321   7.612  0.0467 -0.7534 -0.1080
 9160WAT      O38444  -1.463   3.315   7.754 -0.0684  0.0045  0.0878
 9160WAT     H138445  -1.412   3.241   7.721  0.1680  0.4911 -0.6737
 9160WAT     H238446  -1.511   3.347   7.678 -0.5599  0.3177  0.5226
 9160WAT    EPW38447  -1.462   3.310   7.739 -0.1020  0.1100  0.0446
 9161WAT      O38448   6.365   4.228   2.368  0.3501  0.1267 -0.7678
 9161WAT     H138449   6.385   4.159   2.305  1.2924 -1.2875  0.9678
 9161WAT     H238450   6.286   4.198   2.412  0.0301  0.8044 -0.8776
 9161WAT    EPW38451   6.357   4.214   2.366  0.4323  0.0298 -0.5534
 9162WAT      O38452   3.386   1.165   7.553  0.1201 -0.3855 -0.4969
 9162WAT     H138453   3.347   1.227   7.615 -0.4523  1.1922 -2.3289
 9162WAT     H238454   3.452   1.216   7.507  2.5665 -2.2930  0.6476
 9162WAT    EPW38455   3.389   1.180   7.555  0.3673 -0.4290 -0.5875
 9163WAT      O38456   0.968   5.087   1.579  0.0480 -0.0370 -0.0130
 9163WAT     H138457   1.010   5.075   1.494 -0.0814  0.0631 -0.0924
 9163WAT     H238458   0.886   5.133   1.558  0.5840  1.0731  0.2938
 9163WAT    EPW38459   0.962   5.092   1.565  0.1016  0.1228  0.0169
 9164WAT      O38460  -0.928   7.134   6.767 -0.2690  1.1095  0.0071
 9164WAT     H138461  -0.942   7.199   6.836 -0.2291 -1.1513  2.3074
 9164WAT     H238462  -0.856   7.079   6.800  1.4352  1.3020 -2.9855
 9164WAT    EPW38463  -0.920   7.135   6.781 -0.0390  0.8368 -0.0844
 9165WAT      O38464   5.245   1.541   2.350 -0.4236  0.4072 -0.5142
 9165WAT     H138465   5.317   1.489   2.385  0.1862  1.7838  0.3569
 9165WAT     H238466   5.179   1.477   2.324 -0.7577 -0.7673  2.7624
 9165WAT    EPW38467   5.246   1.526   2.351 -0.3872  0.4339  0.0329
 9166WAT      O38468  -0.703   0.394   5.140 -0.4903 -0.5351  0.0808
 9166WAT     H138469  -0.636   0.359   5.198  0.4830  3.2664  1.5543
 9166WAT     H238470  -0.655   0.425   5.064 -1.3634 -2.5358 -1.3687
 9166WAT    EPW38471  -0.688   0.393   5.138 -0.4771 -0.2976  0.0839
 9167WAT      O38472  -1.258   6.892   6.263 -0.1444 -0.2493  0.1296
 9167WAT     H138473  -1.328   6.840   6.224  2.9234 -3.2702 -2.0143
 9167WAT     H238474  -1.261   6.975   6.215 -1.8853 -0.4834 -0.2413
 9167WAT    EPW38475  -1.267   6.896   6.251  0.0306 -0.6785 -0.2022
 9168WAT      O38476  -6.302   5.806   7.881  0.4635 -0.1538  0.1081
 9168WAT     H138477  -6.328   5.819   7.789 -2.1969 -0.7931  0.6934
 9168WAT     H238478  -6.303   5.894   7.918 -3.1573 -0.2718  0.5778
 9168WAT    EPW38479  -6.305   5.819   7.873 -0.3650 -0.2537  0.2475
 9169WAT      O38480  -1.652   4.192   8.798 -0.1409  1.0555  0.7729
 9169WAT     H138481  -1.568   4.221   8.763 -0.3722  1.3520  0.4487
 9169WAT     H238482  -1.683   4.128   8.734 -1.4141  2.9184 -0.5918
 9169WAT    EPW38483  -1.645   4.187   8.785 -0.3393  1.3404  0.5498
 9170WAT      O38484   8.609  -0.025   2.642  0.3194 -0.0907  0.3834
 9170WAT     H138485   8.620   0.062   2.682 -3.0101  0.4690  0.3839
 9170WAT     H238486   8.650  -0.018   2.556 -0.6682  1.8051  0.0299
 9170WAT    EPW38487   8.616  -0.013   2.636 -0.2499  0.2332  0.3368
 9171WAT      O38488   7.294   4.766   0.411 -0.3644 -0.2142  0.1865
 9171WAT     H138489   7.309   4.697   0.345 -1.0020 -0.7343  0.5747
 9171WAT     H238490   7.292   4.847   0.361  2.4022 -0.2019 -0.0767
 9171WAT    EPW38491   7.296   4.767   0.396 -0.0834 -0.2811  0.2030
 9172WAT      O38492   5.145   6.459   0.550 -0.1481  0.5946 -0.1858
 9172WAT     H138493   5.183   6.433   0.634 -1.0354  2.3713  0.8494
 9172WAT     H238494   5.178   6.396   0.487  0.1482 -1.1131  1.5922
 9172WAT    EPW38495   5.154   6.448   0.553 -0.2260  0.6037  0.1852
 9173WAT      O38496   5.821   3.603   0.505 -0.9597 -0.1132  0.1869
 9173WAT     H138497   5.798   3.600   0.598  0.6061 -1.8201  0.5817
 9173WAT     H238498   5.737   3.594   0.459 -1.7170  0.4446  1.4312
 9173WAT    EPW38499   5.807   3.601   0.511 -0.8531 -0.2649  0.4031
 9174WAT      O38500  -4.946   9.600   2.627 -0.1531  0.6494  0.3985
 9174WAT     H138501  -4.887   9.609   2.702  1.0753  0.4107 -0.5093
 9174WAT     H238502  -4.887   9.593   2.551 -1.3710  1.3924 -0.6432
 9174WAT    EPW38503  -4.930   9.600   2.627 -0.1519  0.7153  0.1414
 9175WAT      O38504   3.227   5.886   5.802  0.4387 -0.2146 -0.6513
 9175WAT     H138505   3.301   5.924   5.754  0.6765 -1.1184 -1.0105
 9175WAT     H238506   3.229   5.793   5.780  0.7890 -0.7481  1.3955
 9175WAT    EPW38507   3.237   5.879   5.793  0.5163 -0.4039 -0.4284
 9176WAT      O38508  -4.020   9.103   6.794  0.0209  0.5117  0.1236
 9176WAT     H138509  -4.089   9.142   6.848  1.5478  1.5525  1.4371
 9176WAT     H238510  -3.981   9.178   6.749  0.2803 -0.0729 -0.6413
 9176WAT    EPW38511  -4.024   9.118   6.795  0.2565  0.5717  0.1960
 9177WAT      O38512   3.776   4.112   2.836 -0.2379 -0.4863  0.2955
 9177WAT     H138513   3.696   4.065   2.814 -0.4933  0.4760 -0.9078
 9177WAT     H238514   3.752   4.169   2.908 -1.0906  0.9508 -1.0699
 9177WAT    EPW38515   3.762   4.113   2.842 -0.3841 -0.1698 -0.0433
 9178WAT      O38516   6.523   4.390   1.904  0.1721  0.1849  0.0336
 9178WAT     H138517   6.515   4.418   1.996 -1.0936 -0.8857  0.2748
 9178WAT     H238518   6.594   4.325   1.905  0.0572  0.0616  0.2851
 9178WAT    EPW38519   6.531   4.385   1.916 -0.0100  0.0274  0.0985
 9179WAT      O38520   2.020   0.894   0.008  0.3919  0.2991 -0.1486
 9179WAT     H138521   1.985   0.948   0.079  2.4836  0.7615  0.6230
 9179WAT     H238522   2.067   0.956  -0.049 -0.4318 -0.2045 -1.4209
 9179WAT    EPW38523   2.022   0.909   0.010  0.5591  0.2935 -0.2146
 9180WAT      O38524  -2.618   8.258   1.798  0.9979  0.0650 -0.2954
 9180WAT     H138525  -2.617   8.245   1.893  1.1778 -0.6776 -0.3959
 9180WAT     H238526  -2.656   8.177   1.764 -0.8499  1.0571 -0.7419
 9180WAT    EPW38527  -2.623   8.245   1.806  0.7780  0.0978 -0.3675
 9181WAT      O38528   6.385   1.746   4.136  1.1972  0.0709 -0.4295
 9181WAT     H138529   6.379   1.807   4.209  1.1860  0.3020 -0.6213
 9181WAT     H238530   6.404   1.802   4.060 -0.7839  0.0843 -0.9669
 9181WAT    EPW38531   6.387   1.762   4.136  0.9344  0.1032 -0.5257
 9182WAT      O38532   2.635   1.774   1.955  0.8311 -0.3640  0.6987
 9182WAT     H138533   2.627   1.843   1.889  1.0360 -1.0669 -0.0673
 9182WAT     H238534   2.704   1.717   1.922 -0.7079 -2.0690  0.3108
 9182WAT    EPW38535   2.643   1.776   1.942  0.6551 -0.6815  0.5465
 9183WAT      O38536  -2.790   8.373   4.816 -0.2555 -0.7792 -0.1954
 9183WAT     H138537  -2.836   8.289   4.807 -1.7043 -0.0535  0.0898
 9183WAT     H238538  -2.843   8.435   4.766  0.8678 -0.0428 -0.5127
 9183WAT    EPW38539  -2.803   8.370   4.808 -0.2985 -0.5860 -0.1996
 9184WAT      O38540   2.762   2.035   8.552  0.3073  0.2010 -0.3724
 9184WAT     H138541   2.762   2.039   8.648  2.1820  2.6455 -0.3671
 9184WAT     H238542   2.852   2.011   8.530  0.5655  1.9831 -1.4883
 9184WAT    EPW38543   2.774   2.032   8.562  0.5887  0.7584 -0.5188
 9185WAT      O38544  -2.316   6.058   2.082 -0.4899  0.3377  0.1762
 9185WAT     H138545  -2.255   6.088   2.150 -0.8499  1.5516 -0.0178
 9185WAT     H238546  -2.387   6.015   2.130  0.3814 -0.8976  0.4171
 9185WAT    EPW38547  -2.317   6.056   2.098 -0.4225  0.3347  0.1824
 9186WAT      O38548  -0.936   7.109   0.658 -0.4218 -0.2599  0.0674
 9186WAT     H138549  -0.924   7.131   0.565 -2.0909 -2.4108 -0.7474
 9186WAT     H238550  -0.850   7.124   0.698  0.7312 -0.6270 -2.1258
 9186WAT    EPW38551  -0.923   7.114   0.651 -0.4899 -0.5920 -0.3293
 9187WAT      O38552  -2.905   7.192   5.161 -0.6892  0.0094  0.3359
 9187WAT     H138553  -2.858   7.221   5.239 -1.0329  1.5107  0.0172
 9187WAT     H238554  -2.842   7.138   5.113  0.3282  1.0240  0.4924
 9187WAT    EPW38555  -2.891   7.189   5.165 -0.6003  0.3412  0.3142
 9188WAT      O38556  -2.408   8.421   7.092  0.5876 -0.1790 -0.0524
 9188WAT     H138557  -2.470   8.359   7.052  0.7305 -2.2261  2.6200
 9188WAT     H238558  -2.338   8.429   7.028  0.1257 -2.1140 -0.8793
 9188WAT    EPW38559  -2.407   8.414   7.078  0.5455 -0.7048  0.1910
 9189WAT      O38560   2.516   8.299   1.783  0.3006  1.0741  0.3183
 9189WAT     H138561   2.438   8.262   1.742  0.3330  2.2931 -0.9166
 9189WAT     H238562   2.587   8.244   1.753 -0.0388  0.0410  1.3386
 9189WAT    EPW38563   2.515   8.287   1.774  0.2600  1.0986  0.2900
 9190WAT      O38564   0.770   6.883   8.694  0.5114  0.2845 -0.4575
 9190WAT     H138565   0.810   6.951   8.640 -0.0222 -0.4529 -1.8439
 9190WAT     H238566   0.804   6.801   8.658 -0.4499 -0.2601 -0.1763
 9190WAT    EPW38567   0.780   6.881   8.682  0.3143  0.1156 -0.6032
 9191WAT      O38568  -0.694   1.210   4.066 -0.3088  0.1071  0.3419
 9191WAT     H138569  -0.729   1.276   4.126 -2.3898 -1.2902  0.7802
 9191WAT     H238570  -0.691   1.254   3.981  0.3343  1.3615  0.9809
 9191WAT    EPW38571  -0.698   1.225   4.063 -0.4985  0.0882  0.4840
 9192WAT      O38572  -1.075   2.748   2.270 -0.2828  0.1662  0.1417
 9192WAT     H138573  -1.029   2.677   2.226  0.2425 -0.3003  1.3791
 9192WAT     H238574  -1.121   2.795   2.200 -1.0679 -1.6833 -0.6344
 9192WAT    EPW38575  -1.075   2.745   2.255 -0.3170 -0.1392  0.2027
 9193WAT      O38576   0.686   2.306   8.309  0.3347 -0.1906  1.2200
 9193WAT     H138577   0.676   2.388   8.356 -0.8824  2.2839 -2.8932
 9193WAT     H238578   0.605   2.258   8.328 -0.7466  1.3398  0.6624
 9193WAT    EPW38579   0.674   2.310   8.318  0.0315  0.3376  0.6037
 9194WAT      O38580  -1.171   8.519   8.031  0.3046 -0.3796 -0.4695
 9194WAT     H138581  -1.180   8.472   8.114  0.7316 -0.3232 -0.3893
 9194WAT     H238582  -1.240   8.586   8.034 -0.0834 -0.7789 -0.4358
 9194WAT    EPW38583  -1.181   8.522   8.043  0.3098 -0.4249 -0.4544
 9195WAT      O38584   0.906   6.380   4.016  0.0940  0.1400  0.2834
 9195WAT     H138585   0.868   6.466   3.996 -1.7641 -0.7264 -0.1298
 9195WAT     H238586   0.932   6.344   3.932 -1.0371 -0.5141  0.1852
 9195WAT    EPW38587   0.905   6.387   4.002 -0.3002 -0.0608  0.2162
 9196WAT      O38588   5.993   4.988   1.709  0.0494  0.0504 -0.3686
 9196WAT     H138589   6.075   5.012   1.666 -0.0010 -1.2201 -1.2334
 9196WAT     H238590   5.952   4.926   1.649 -1.9452  1.2614 -0.3339
 9196WAT    EPW38591   5.998   4.983   1.696 -0.2203  0.0424 -0.4781
 9197WAT      O38592  -0.834   6.939   8.991 -0.2032  0.4961  0.5456
 9197WAT     H138593  -0.877   6.864   8.950  1.5342 -0.2575  0.0259
 9197WAT     H238594  -0.766   6.965   8.929  1.6464  0.1492  2.3216
 9197WAT    EPW38595  -0.831   6.933   8.978  0.2699  0.3510  0.7114
 9198WAT      O38596   7.209   0.435   1.352 -0.5827 -0.4758  0.1527
 9198WAT     H138597   7.207   0.522   1.393  2.6127  1.1752 -2.6555
 9198WAT     H238598   7.128   0.431   1.302  0.1649  2.0800 -1.5068
 9198WAT    EPW38599   7.198   0.446   1.351 -0.0627  0.0790 -0.4365
 9199WAT      O38600   3.084   7.332   8.511 -0.2416  0.1287 -0.1592
 9199WAT     H138601   3.143   7.381   8.455  3.6062 -0.0480  3.2594
 9199WAT     H238602   3.067   7.250   8.464  2.9529 -0.1209 -1.0741
 9199WAT    EPW38603   3.089   7.328   8.498  0.6872  0.0722  0.1712
 9200WAT      O38604   4.608   6.400   0.479  0.1988  0.1603 -0.0854
 9200WAT     H138605   4.674   6.352   0.528  1.6528  1.4006 -0.7480
 9200WAT     H238606   4.557   6.446   0.547 -0.1337 -0.9459  0.4358
 9200WAT    EPW38607   4.610   6.400   0.494  0.3469  0.1781 -0.1040
 9201WAT      O38608  -0.991   9.579   0.883  0.3868 -0.6673 -0.5490
 9201WAT     H138609  -0.981   9.505   0.823  0.0312 -0.7839 -0.4678
 9201WAT     H238610  -1.011   9.653   0.826  0.9832 -0.5795 -0.6509
 9201WAT    EPW38611  -0.993   9.579   0.867  0.4185 -0.6714 -0.5518
 9202WAT      O38612   2.983   7.754   7.512  0.4572 -0.1811 -0.1425
 9202WAT     H138613   2.899   7.747   7.467 -0.6673 -2.0815  2.0439
 9202WAT     H238614   3.030   7.674   7.489  0.5293 -0.4052  0.7453
 9202WAT    EPW38615   2.978   7.743   7.503  0.3183 -0.4616  0.2630
 9203WAT      O38616   4.274   6.925   5.229 -0.2961  0.2310  0.3302
 9203WAT     H138617   4.287   7.019   5.228 -1.5437  0.5113  2.5314
 9203WAT     H238618   4.357   6.889   5.259  0.3883  0.5411 -1.1316
 9203WAT    EPW38619   4.286   6.932   5.233 -0.3703  0.3088  0.4275
 9204WAT      O38620  -2.892   3.966   5.689 -0.8821  0.2924  0.1110
 9204WAT     H138621  -2.931   3.879   5.697  1.2127 -0.6783  0.5974
 9204WAT     H238622  -2.945   4.011   5.624 -1.1653 -1.8832 -1.2588
 9204WAT    EPW38623  -2.904   3.961   5.682 -0.6431 -0.1225 -0.0055
 9205WAT      O38624   8.233   1.006   1.228  0.1973 -0.8786 -0.3614
 9205WAT     H138625   8.156   1.060   1.241  1.3147  0.6360  0.3124
 9205WAT     H238626   8.220   0.965   1.142 -2.0077 -1.8714  0.3804
 9205WAT    EPW38627   8.221   1.008   1.218  0.0539 -0.8098 -0.1748
 9206WAT      O38628  -0.481   3.264   1.466 -0.1358 -0.5332 -0.1009
 9206WAT     H138629  -0.501   3.275   1.559 -0.3373  4.0354 -0.4523
 9206WAT     H238630  -0.385   3.258   1.463 -0.1495 -1.1212  0.3836
 9206WAT    EPW38631  -0.471   3.264   1.478 -0.1642 -0.0082 -0.0834
 9207WAT      O38632   3.560   6.309   6.963 -0.2373  0.5239 -0.0216
 9207WAT     H138633   3.635   6.264   7.003  0.6052  1.4369 -0.5016
 9207WAT     H238634   3.565   6.286   6.870 -0.1733  1.0745 -0.1615
 9207WAT    EPW38635   3.571   6.300   6.956 -0.1178  0.7169 -0.1035
 9208WAT      O38636  -6.854   7.887   6.795  0.0072 -0.5667  0.3652
 9208WAT     H138637  -6.865   7.796   6.765  0.4764 -0.7384  0.7170
 9208WAT     H238638  -6.934   7.931   6.765 -0.0755 -1.0190 -0.0916
 9208WAT    EPW38639  -6.866   7.881   6.787  0.0579 -0.6492  0.3514
 9209WAT      O38640  -3.302   3.896   6.794  0.4709 -0.7687  0.4656
 9209WAT     H138641  -3.395   3.904   6.773  0.4872 -0.5097  0.4910
 9209WAT     H238642  -3.292   3.942   6.877  0.7374 -0.2431  0.1508
 9209WAT    EPW38643  -3.313   3.903   6.802  0.5082 -0.6652  0.4275
 9210WAT      O38644  -2.598   5.396   1.422  0.1737  0.5300  0.0951
 9210WAT     H138645  -2.693   5.388   1.428  0.2894 -3.9168 -0.6323
 9210WAT     H238646  -2.571   5.422   1.510 -1.5542 -1.9799  1.4894
 9210WAT    EPW38647  -2.607   5.399   1.434 -0.0390 -0.3877  0.1831
 9211WAT      O38648   2.892   1.302   4.335 -0.7323  0.2673  1.0193
 9211WAT     H138649   2.907   1.382   4.285 -0.7416  0.4086  1.2404
 9211WAT     H238650   2.801   1.279   4.315 -1.7763  1.9794  3.2513
 9211WAT    EPW38651   2.882   1.309   4.326 -0.8712  0.5118  1.3428
 9212WAT      O38652   0.512   6.903   7.153  0.3392 -0.1386  1.1505
 9212WAT     H138653   0.499   6.901   7.058  1.8152 -1.1545  0.9374
 9212WAT     H238654   0.581   6.968   7.166 -0.0192  0.1653  1.5613
 9212WAT    EPW38655   0.519   6.911   7.142  0.4866 -0.2325  1.1766
 9213WAT      O38656  -2.723   8.000   8.658 -0.1187 -0.1581 -0.0359
 9213WAT     H138657  -2.658   8.040   8.599 -0.8030  0.8019 -0.1591
 9213WAT     H238658  -2.677   7.993   8.742  0.8780 -1.5687 -0.6584
 9213WAT    EPW38659  -2.708   8.004   8.661 -0.0775 -0.2179 -0.1340
 9214WAT      O38660  -0.877   2.438   2.736  0.1244  0.3528  0.2549
 9214WAT     H138661  -0.858   2.393   2.818 -0.6978 -1.2095 -0.3734
 9214WAT     H238662  -0.843   2.527   2.749  5.3982 -1.3360  0.1478
 9214WAT    EPW38663  -0.870   2.444   2.749  0.7115 -0.0759  0.1578
 9215WAT      O38664   5.573   2.967   6.333  1.1468 -0.3434 -0.1654
 9215WAT     H138665   5.577   2.893   6.272 -1.2915 -0.6606 -0.0388
 9215WAT     H238666   5.485   2.962   6.371  1.0305  2.4127  0.1207
 9215WAT    EPW38667   5.562   2.957   6.330  0.8099 -0.0217 -0.1111
 9216WAT      O38668   4.916   0.565   3.923 -0.6943  0.1784 -0.5459
 9216WAT     H138669   4.836   0.584   3.874 -0.6152  0.5603 -0.5263
 9216WAT     H238670   4.985   0.614   3.877 -0.6984  0.9325  0.2266
 9216WAT    EPW38671   4.915   0.574   3.910 -0.6843  0.3282 -0.4414
 9217WAT      O38672   0.938   2.093   5.309 -0.5296 -0.3371  0.3569
 9217WAT     H138673   0.944   2.000   5.328 -0.6848 -0.2295  0.9562
 9217WAT     H238674   0.914   2.098   5.217 -0.6312 -0.8908  0.3555
 9217WAT    EPW38675   0.936   2.082   5.299 -0.5634 -0.3959  0.4358
 9218WAT      O38676   4.476   5.828   5.203  0.0551 -0.5606  0.5648
 9218WAT     H138677   4.418   5.775   5.257  0.9102 -2.4940 -0.3183
 9218WAT     H238678   4.535   5.764   5.162 -0.1057  0.8745 -2.0881
 9218WAT    EPW38679   4.476   5.812   5.205  0.1466 -0.6263  0.0985
 9219WAT      O38680   3.268   5.692   7.332 -0.3115  0.0684 -0.0361
 9219WAT     H138681   3.355   5.661   7.307 -0.8838  0.1734 -2.4261
 9219WAT     H238682   3.232   5.731   7.252 -3.2460 -1.5960  0.2995
 9219WAT    EPW38683   3.274   5.693   7.318 -0.7740 -0.1373 -0.3073
 9220WAT      O38684   5.635   4.633   1.642  0.3678 -0.1688 -0.8958
 9220WAT     H138685   5.567   4.678   1.592 -1.2140 -0.4762  0.8698
 9220WAT     H238686   5.614   4.651   1.733  1.4341 -2.0193 -0.2225
 9220WAT    EPW38687   5.624   4.641   1.647  0.2997 -0.4535 -0.5741
 9221WAT      O38688   4.321   2.783   8.494  0.0452  0.4755  0.0145
 9221WAT     H138689   4.306   2.803   8.586  1.1631 -2.5505  0.9856
 9221WAT     H238690   4.241   2.742   8.464  0.2883 -0.1136  0.1623
 9221WAT    EPW38691   4.309   2.780   8.502  0.2248 -0.0014  0.1621
 9222WAT      O38692  -1.802   9.574   6.501  0.6468 -0.3952  0.0715
 9222WAT     H138693  -1.888   9.573   6.459  0.3493  0.7319  0.6018
 9222WAT     H238694  -1.805   9.502   6.565  0.8632 -1.6756 -1.3147
 9222WAT    EPW38695  -1.814   9.565   6.504  0.6361 -0.4153 -0.0412
 9223WAT      O38696  -0.946   2.568   8.040  0.3430 -0.5358  0.3325
 9223WAT     H138697  -0.957   2.648   8.091  0.3712 -0.1375 -0.2719
 9223WAT     H238698  -1.027   2.519   8.054 -1.5415  1.4746 -2.5345
 9223WAT    EPW38699  -0.958   2.572   8.049  0.0981 -0.2180 -0.1254
 9224WAT      O38700   1.650   9.437   7.098  0.7833  0.0665  0.1178
 9224WAT     H138701   1.622   9.352   7.064 -0.5059  0.7333 -0.5582
 9224WAT     H238702   1.581   9.462   7.159  1.4095  0.4148  0.7001
 9224WAT    EPW38703   1.637   9.429   7.102  0.6959  0.1998  0.1054
 9225WAT      O38704  -3.793   8.934   3.879 -0.1695  0.1796  0.4105
 9225WAT     H138705  -3.796   9.008   3.819 -0.0401  1.3768  1.8009
 9225WAT     H238706  -3.744   8.866   3.832  0.2231  1.1904 -0.6814
 9225WAT    EPW38707  -3.787   8.935   3.865 -0.1006  0.4706  0.4499
 9226WAT      O38708  -1.479   5.134   4.937  0.6236  0.8189 -0.2141
 9226WAT     H138709  -1.491   5.091   5.022 -0.2576  3.6156  1.2089
 9226WAT     H238710  -1.561   5.120   4.891  0.6322  0.3435 -0.0910
 9226WAT    EPW38711  -1.491   5.126   4.942  0.5085  1.1251 -0.0103
 9227WAT      O38712   2.089   2.259   5.928 -0.0359  0.1328 -0.0585
 9227WAT     H138713   2.112   2.340   5.973  0.4529  0.0512 -0.1558
 9227WAT     H238714   2.064   2.287   5.840 -1.0402  0.2980  0.2624
 9227WAT    EPW38715   2.088   2.273   5.923 -0.1038  0.1438 -0.0291
 9228WAT      O38716   3.416   1.149   7.896 -0.4484 -0.5845  0.1695
 9228WAT     H138717   3.403   1.150   7.991  0.7797  0.1545  0.3558
 9228WAT     H238718   3.383   1.234   7.867 -1.0965 -0.9292 -0.1130
 9228WAT    EPW38719   3.410   1.160   7.905 -0.3719 -0.5325  0.1569
 9229WAT      O38720  -1.181   0.768   6.470 -0.1286 -0.4204 -0.7025
 9229WAT     H138721  -1.224   0.758   6.385 -2.9646  1.9853  0.2666
 9229WAT     H238722  -1.244   0.817   6.523  0.6357 -3.4223  3.4753
 9229WAT    EPW38723  -1.195   0.773   6.466 -0.4019 -0.4991 -0.0236
 9230WAT      O38724   2.653   5.256   7.244 -0.1088  0.1523 -0.8737
 9230WAT     H138725   2.713   5.252   7.318 -0.0019 -2.3894 -1.0048
 9230WAT     H238726   2.583   5.194   7.267 -1.8622  1.8281 -1.4373
 9230WAT    EPW38727   2.652   5.247   7.257 -0.3259  0.0379 -0.9654
 9231WAT      O38728  -2.176   1.067   6.132  0.1852 -0.1430 -0.2512
 9231WAT     H138729  -2.134   1.150   6.156  1.2038 -0.4222 -0.9893
 9231WAT     H238730  -2.137   1.045   6.047  0.1107 -1.5034  0.0563
 9231WAT    EPW38731  -2.165   1.075   6.124  0.3098 -0.3593 -0.3080
 9232WAT      O38732   0.088   3.816   7.822  0.1638 -0.1285 -0.8281
 9232WAT     H138733   0.013   3.847   7.872  0.2609 -1.3111  0.1014
 9232WAT     H238734   0.156   3.881   7.839  0.5054 -0.9855  1.4458
 9232WAT    EPW38735   0.087   3.829   7.831  0.2217 -0.3976 -0.4055
 9233WAT      O38736   1.387   1.556   1.009  0.1787  0.5688 -0.7611
 9233WAT     H138737   1.418   1.627   1.065 -0.6466  1.0479 -0.9010
 9233WAT     H238738   1.314   1.517   1.057  2.7874 -2.5931  1.0666
 9233WAT    EPW38739   1.382   1.560   1.023  0.4140  0.2149 -0.5385
 9234WAT      O38740  -2.113   5.266   1.302  0.2259 -0.2526  0.8986
 9234WAT     H138741  -2.206   5.251   1.320 -0.1705  3.3609  2.6863
 9234WAT     H238742  -2.071   5.257   1.388  1.2424 -0.1016  0.4304
 9234WAT    EPW38743  -2.120   5.263   1.316  0.3076  0.2439  1.0726
 9235WAT      O38744  -2.211   9.516   6.012 -0.8823 -0.6124  0.0921
 9235WAT     H138745  -2.250   9.533   6.098 -1.8609 -2.3280  0.0337
 9235WAT     H238746  -2.268   9.450   5.973 -0.7479  0.4989 -2.1146
 9235WAT    EPW38747  -2.224   9.509   6.018 -0.9936 -0.6924 -0.2067
 9236WAT      O38748   3.777   9.309   5.977  0.8155 -0.4471 -0.3308
 9236WAT     H138749   3.726   9.374   6.026  1.2455 -0.4844  0.1608
 9236WAT     H238750   3.868   9.331   5.995  1.0087  0.0563 -1.7684
 9236WAT    EPW38751   3.782   9.321   5.986  0.8976 -0.3858 -0.4556
 9237WAT      O38752  -1.144   7.776   6.321 -0.0391 -0.3038  0.1196
 9237WAT     H138753  -1.185   7.728   6.393 -0.2338 -0.0581  0.1746
 9237WAT     H238754  -1.075   7.827   6.364 -0.7547  0.5580  0.2786
 9237WAT    EPW38755  -1.140   7.776   6.336 -0.1592 -0.1576  0.1476
 9238WAT      O38756   3.467  10.038   5.289  0.3969  0.0312 -0.1627
 9238WAT     H138757   3.501   9.969   5.232  0.4525 -0.9031  0.9697
 9238WAT     H238758   3.393  10.074   5.240  0.7338 -0.4163 -1.0361
 9238WAT    EPW38759   3.462  10.033   5.275  0.4487 -0.1516 -0.1285
 9239WAT      O38760   4.013   0.870   8.172  0.0017  0.0636  0.0774
 9239WAT     H138761   3.970   0.814   8.107  2.6235  0.2001 -1.9462
 9239WAT     H238762   3.968   0.850   8.254 -1.3612 -2.5209 -1.1610
 9239WAT    EPW38763   4.002   0.860   8.174  0.1676 -0.2593 -0.3529
 9240WAT      O38764   0.368  10.210   5.563  0.7323 -0.0326 -0.8394
 9240WAT     H138765   0.294  10.214   5.502 -1.1820  0.9503  1.3986
 9240WAT     H238766   0.381  10.116   5.578 -2.8021 -0.3086  1.6868
 9240WAT    EPW38767   0.360  10.198   5.557  0.0137  0.0610 -0.2112
 9241WAT      O38768   0.692  10.087   7.595 -0.0495 -0.2511 -0.4364
 9241WAT     H138769   0.705  10.034   7.674  2.0799  0.5926 -0.1680
 9241WAT     H238770   0.753  10.160   7.604 -1.9042  1.5421 -1.4649
 9241WAT    EPW38771   0.701  10.089   7.607 -0.0133  0.0968 -0.5367
 9242WAT      O38772   1.738   0.899   7.569  0.3290  0.3412 -0.3643
 9242WAT     H138773   1.692   0.843   7.631 -1.7746  0.7687 -1.4125
 9242WAT     H238774   1.803   0.843   7.529  0.1579 -0.5607  0.5849
 9242WAT    EPW38775   1.740   0.884   7.572  0.0291  0.2786 -0.3772
 9243WAT      O38776  -0.976   8.928   2.061  0.0466 -0.6990  0.0137
 9243WAT     H138777  -0.916   8.991   2.103  0.9595 -0.3917 -1.6702
 9243WAT     H238778  -1.060   8.973   2.056 -1.0002 -1.7706  4.0690
 9243WAT    EPW38779  -0.979   8.942   2.066  0.0289 -0.8001  0.3264
 9244WAT      O38780  -3.001   9.429   6.421 -0.4567 -0.0815 -0.9180
 9244WAT     H138781  -3.095   9.431   6.438 -0.4331 -0.2785 -0.7541
 9244WAT     H238782  -2.968   9.510   6.460 -0.3385 -0.7493  0.4140
 9244WAT    EPW38783  -3.009   9.440   6.428 -0.4380 -0.1960 -0.7207
 9245WAT      O38784   7.845   5.977   0.843  0.0387  0.0224 -0.6265
 9245WAT     H138785   7.918   5.927   0.807 -0.6830 -0.3929 -1.5681
 9245WAT     H238786   7.770   5.919   0.835 -0.2300  0.0604  1.2891
 9245WAT    EPW38787   7.845   5.963   0.837 -0.0918 -0.0274 -0.4980
 9246WAT      O38788   2.741   3.680   7.803  0.3080 -0.0863  0.2698
 9246WAT     H138789   2.710   3.762   7.766  1.1421 -0.1212 -0.5247
 9246WAT     H238790   2.822   3.703   7.848 -0.5491 -0.0920  1.8925
 9246WAT    EPW38791   2.748   3.694   7.804  0.3049 -0.0917  0.3793
 9247WAT      O38792  -2.754   6.676   6.040 -0.3142  0.0720 -0.1235
 9247WAT     H138793  -2.714   6.603   6.087 -0.7031  0.7508  1.2904
 9247WAT     H238794  -2.799   6.635   5.966 -0.1347 -1.0585  0.3791
 9247WAT    EPW38795  -2.755   6.661   6.036 -0.3419  0.0124  0.1295
 9248WAT      O38796   3.200   5.905   2.476 -0.1268 -0.1666 -0.2685
 9248WAT     H138797   3.183   5.849   2.401  1.0087  0.7679 -1.2657
 9248WAT     H238798   3.142   5.981   2.464 -1.7493 -1.0909  1.1386
 9248WAT    EPW38799   3.190   5.908   2.465 -0.1910 -0.1650 -0.2145
 9249WAT      O38800  -7.465   7.492   8.297 -1.0678  0.2106 -0.1674
 9249WAT     H138801  -7.500   7.413   8.256  2.4420  0.0851 -3.4138
 9249WAT     H238802  -7.408   7.460   8.367 -0.5009 -0.0834 -0.7596
 9249WAT    EPW38803  -7.462   7.477   8.301 -0.5302  0.1554 -0.6738
 9250WAT      O38804  -2.178   4.559   3.359  0.1126 -0.1679  0.3013
 9250WAT     H138805  -2.175   4.620   3.434  0.4874 -1.7895  1.6667
 9250WAT     H238806  -2.262   4.514   3.368 -0.1879  0.1651 -0.7319
 9250WAT    EPW38807  -2.189   4.561   3.370  0.1224 -0.3378  0.3451
 9251WAT      O38808   1.755   7.691   1.723 -0.2526  0.2421 -0.1154
 9251WAT     H138809   1.840   7.687   1.768 -0.4551  0.4647  0.2959
 9251WAT     H238810   1.697   7.636   1.777 -0.3841  0.1423 -0.3584
 9251WAT    EPW38811   1.758   7.683   1.736 -0.2967  0.2582 -0.0933
 9252WAT      O38812   6.568   7.302   2.761 -0.4057 -0.0209 -0.1569
 9252WAT     H138813   6.558   7.397   2.749  0.4968 -0.1294 -2.3531
 9252WAT     H238814   6.479   7.268   2.761 -0.7253  0.7885  0.2130
 9252WAT    EPW38815   6.555   7.310   2.759 -0.3288  0.0715 -0.3978
 9253WAT      O38816   1.852   3.700   0.693 -0.9859  0.6114 -0.4296
 9253WAT     H138817   1.858   3.756   0.770 -0.1534 -0.2443  0.1475
 9253WAT     H238818   1.784   3.636   0.715  1.8861 -2.1373  1.3464
 9253WAT    EPW38819   1.844   3.699   0.706 -0.4973  0.1360 -0.1192
 9254WAT      O38820  -6.203   9.701   8.871 -0.0447  0.4226 -0.0951
 9254WAT     H138821  -6.148   9.779   8.878  0.5269  0.0743 -0.6013
 9254WAT     H238822  -6.148   9.637   8.825 -0.5054 -0.2760  0.3013
 9254WAT    EPW38823  -6.188   9.703   8.866 -0.0300  0.2842 -0.1097
 9255WAT      O38824   1.301   7.416   6.841  0.1823 -0.5542  0.5262
 9255WAT     H138825   1.212   7.438   6.815  0.6107  1.0805  0.3161
 9255WAT     H238826   1.291   7.339   6.897 -1.0670 -2.2181 -1.8009
 9255WAT    EPW38827   1.288   7.409   6.845  0.0741 -0.5579  0.1915
 9256WAT      O38828   9.015   4.543   0.180  0.0015  0.1953 -0.2812
 9256WAT     H138829   9.067   4.573   0.105 -1.2274  1.4710 -0.6663
 9256WAT     H238830   9.078   4.497   0.235  0.8926 -1.0069 -2.1845
 9256WAT    EPW38831   9.030   4.541   0.177 -0.0434  0.2050 -0.5831
 9257WAT      O38832  -0.906   7.039   4.202  0.4032  0.2290  0.6706
 9257WAT     H138833  -0.889   7.081   4.287 -1.0846  0.0257  1.1024
 9257WAT     H238834  -0.947   6.955   4.225 -0.3516  0.3284 -0.2437
 9257WAT    EPW38835  -0.909   7.034   4.216  0.1074  0.2153  0.6068
 9258WAT      O38836   0.527   8.139   2.706 -1.1456 -0.3361  0.5926
 9258WAT     H138837   0.516   8.121   2.800 -0.1859  0.8365  0.9579
 9258WAT     H238838   0.460   8.205   2.687  0.4238  1.5550  1.1750
 9258WAT    EPW38839   0.517   8.146   2.716 -0.8121  0.0682  0.7176
 9259WAT      O38840   1.419   7.610   8.153 -0.3288  0.4978  0.4606
 9259WAT     H138841   1.469   7.534   8.182  0.7363  0.3484 -1.5898
 9259WAT     H238842   1.388   7.650   8.234  1.5138 -0.4992  1.7501
 9259WAT    EPW38843   1.422   7.605   8.168  0.0547  0.3464  0.3600
 9260WAT      O38844  -0.722   6.319   6.324  0.5268  0.3292  0.0954
 9260WAT     H138845  -0.775   6.240   6.329  0.9389  0.1254  1.6966
 9260WAT     H238846  -0.785   6.390   6.309  0.0969 -0.1968 -0.6928
 9260WAT    EPW38847  -0.737   6.318   6.322  0.5244  0.2329  0.2024
 9261WAT      O38848  -3.005   5.266   5.930 -0.1723 -0.2362  0.2609
 9261WAT     H138849  -3.008   5.173   5.908  0.5381 -0.1463 -0.2423
 9261WAT     H238850  -2.966   5.308   5.853 -1.7888  0.6736 -0.1094
 9261WAT    EPW38851  -3.000   5.260   5.917 -0.2917 -0.1042  0.1454
 9262WAT      O38852   4.228   7.567   3.154  0.1587 -0.0113 -0.2629
 9262WAT     H138853   4.153   7.534   3.105  1.0596 -0.9743 -1.0530
 9262WAT     H238854   4.205   7.552   3.246 -1.5764  1.8791 -0.3262
 9262WAT    EPW38855   4.215   7.561   3.160  0.0486  0.1111 -0.3755
 9263WAT      O38856  -4.255   9.403   4.909  0.0502  0.6976 -0.3109
 9263WAT     H138857  -4.228   9.363   4.827  1.2129  0.1464  0.3245
 9263WAT     H238858  -4.293   9.487   4.883  1.8244  1.2388 -1.3062
 9263WAT    EPW38859  -4.257   9.409   4.895  0.4377  0.6962 -0.3583
 9264WAT      O38860   0.576   1.128   8.708 -0.0235  0.5641 -0.3473
 9264WAT     H138861   0.529   1.211   8.701 -0.2040  0.3758 -1.3950
 9264WAT     H238862   0.663   1.153   8.739 -0.1682  1.1164 -0.3740
 9264WAT    EPW38863   0.581   1.142   8.711 -0.0664  0.6121 -0.4892
 9265WAT      O38864  -1.482   5.680   7.463 -0.3671  0.6770 -0.4573
 9265WAT     H138865  -1.401   5.655   7.508 -1.7811  1.6965  2.9839
 9265WAT     H238866  -1.491   5.616   7.392  2.2258 -0.9275  0.5246
 9265WAT    EPW38867  -1.473   5.668   7.460 -0.2116  0.5999  0.1261
 9266WAT      O38868  -1.684   4.657   6.682  0.2642  0.4892 -0.3399
 9266WAT     H138869  -1.770   4.618   6.701  0.7932 -1.4005 -1.5162
 9266WAT     H238870  -1.676   4.653   6.587  2.1988 -0.7101 -0.1797
 9266WAT    EPW38871  -1.695   4.651   6.672  0.5891  0.0818 -0.4737
 9267WAT      O38872   3.852   8.343   3.441 -0.7328 -0.3678 -0.1478
 9267WAT     H138873   3.856   8.267   3.500  0.3119  0.9593  1.5594
 9267WAT     H238874   3.821   8.415   3.497  1.0352  1.1130 -0.9981
 9267WAT    EPW38875   3.848   8.342   3.456 -0.3618  0.0024 -0.0347
 9268WAT      O38876   2.345   8.151   7.918 -0.0281  0.1453  0.0702
 9268WAT     H138877   2.257   8.120   7.897 -0.5231  2.4099 -1.5663
 9268WAT     H238878   2.375   8.092   7.987 -2.6284 -0.9833  0.3608
 9268WAT    EPW38879   2.337   8.139   7.924 -0.4363  0.2952 -0.1073
 9269WAT      O38880   6.916   6.520   1.362  0.5489 -0.2234 -0.4611
 9269WAT     H138881   6.978   6.448   1.369  0.8640  0.1658  0.9673
 9269WAT     H238882   6.851   6.490   1.299 -0.0953 -2.3231  1.1167
 9269WAT    EPW38883   6.916   6.507   1.354  0.5054 -0.4492 -0.0646
 9270WAT      O38884  -1.278   8.878   5.479  0.6910 -0.6795  0.5967
 9270WAT     H138885  -1.299   8.784   5.480  3.0113 -1.2677  1.8564
 9270WAT     H238886  -1.206   8.886   5.416 -1.1103  0.7708 -1.4582
 9270WAT    EPW38887  -1.272   8.867   5.471  0.7594 -0.5660  0.4919
 9271WAT      O38888  -0.493   6.988   5.677  0.3237  0.2554 -0.6899
 9271WAT     H138889  -0.427   7.009   5.610  0.9735  0.6473  0.0567
 9271WAT     H238890  -0.516   6.897   5.659  2.6184 -0.6080  0.2799
 9271WAT    EPW38891  -0.487   6.979   5.666  0.7120  0.1931 -0.4637
 9272WAT      O38892  -2.163   8.503   8.163 -0.2693  0.0474 -0.5950
 9272WAT     H138893  -2.247   8.528   8.202 -0.9746 -0.1699 -1.8987
 9272WAT     H238894  -2.105   8.576   8.183 -0.9375  0.4703 -0.1461
 9272WAT    EPW38895  -2.167   8.516   8.170 -0.4506  0.0744 -0.7081
 9273WAT      O38896  -3.774   7.186   4.836  0.0713  0.2972 -0.2104
 9273WAT     H138897  -3.857   7.203   4.882  0.3724 -1.1082  0.9098
 9273WAT     H238898  -3.774   7.092   4.821  1.5879  0.2446  0.0373
 9273WAT    EPW38899  -3.785   7.176   4.840  0.3111  0.1049 -0.0300
 9274WAT      O38900  -1.125   0.649   1.519 -0.8218  0.1236 -0.6080
 9274WAT     H138901  -1.044   0.602   1.499 -1.6706 -2.1435  0.8721
 9274WAT     H238902  -1.176   0.643   1.438 -0.7133 -1.1814 -0.6145
 9274WAT    EPW38903  -1.121   0.642   1.506 -0.9195 -0.3476 -0.4137
 9275WAT      O38904   4.323   8.496   4.399 -0.3557  0.2493 -0.5013
 9275WAT     H138905   4.245   8.462   4.443 -0.6500 -0.1989 -1.3366
 9275WAT     H238906   4.388   8.506   4.468 -1.1912  0.7412  0.2244
 9275WAT    EPW38907   4.321   8.493   4.414 -0.5047  0.2551 -0.5157
 9276WAT      O38908   0.058   5.857   8.485  0.3337  0.1602 -0.6821
 9276WAT     H138909   0.151   5.839   8.494 -0.0740 -1.4111  1.0881
 9276WAT     H238910   0.046   5.943   8.526  1.0957  0.7610 -1.6752
 9276WAT    EPW38911   0.068   5.866   8.492  0.3804  0.0319 -0.5794
 9277WAT      O38912  -2.282   4.039   5.630  0.2796  0.0649 -0.1268
 9277WAT     H138913  -2.306   4.128   5.604  1.1284  0.4421  0.3422
 9277WAT     H238914  -2.222   4.009   5.562 -1.0582 -0.6822 -1.0187
 9277WAT    EPW38915  -2.277   4.047   5.618  0.2151  0.0160 -0.1824
 9278WAT      O38916   5.760   3.341   5.548 -0.3745 -0.1428 -0.2411
 9278WAT     H138917   5.844   3.339   5.502 -0.4508 -0.3687 -0.3701
 9278WAT     H238918   5.699   3.295   5.491 -0.2853 -1.1614  0.4590
 9278WAT    EPW38919   5.763   3.335   5.535 -0.3729 -0.3070 -0.1659
 9279WAT      O38920   2.576   7.882   8.790  0.8022  0.2333  0.7347
 9279WAT     H138921   2.584   7.940   8.714 -2.2398 -2.3854 -1.8560
 9279WAT     H238922   2.557   7.796   8.753  0.8392 -1.5849  4.4846
 9279WAT    EPW38923   2.574   7.878   8.775  0.4059 -0.3519  0.8879
 9280WAT      O38924   5.010   5.856   0.884  0.2273  0.9251  0.1629
 9280WAT     H138925   4.957   5.812   0.817 -1.9995 -0.3792  2.5914
 9280WAT     H238926   5.099   5.857   0.847 -0.4630 -1.7099 -1.8909
 9280WAT    EPW38927   5.015   5.850   0.870 -0.1576  0.4055  0.2123
 9281WAT      O38928   6.588   4.513   2.709 -0.2185  0.3757 -0.2080
 9281WAT     H138929   6.635   4.470   2.638 -0.7946  1.5066 -1.3221
 9281WAT     H238930   6.592   4.606   2.687 -1.0413  0.6854  0.8623
 9281WAT    EPW38931   6.595   4.520   2.697 -0.4029  0.5658 -0.2137
 9282WAT      O38932  -3.017   0.841   8.540  0.1734 -0.2132 -0.2534
 9282WAT     H138933  -3.093   0.813   8.591  0.0329  0.8593  0.1546
 9282WAT     H238934  -2.959   0.765   8.540 -1.0851 -1.2131 -0.9799
 9282WAT    EPW38935  -3.019   0.827   8.547 -0.0112 -0.2036 -0.2956
 9283WAT      O38936  -2.410   0.772   4.543  0.7328 -0.7583  0.0945
 9283WAT     H138937  -2.379   0.681   4.542  0.7165 -0.7604 -0.9751
 9283WAT     H238938  -2.477   0.775   4.474  2.3932  0.6230 -1.5280
 9283WAT    EPW38939  -2.415   0.760   4.534  0.9496 -0.5764 -0.2604
 9284WAT      O38940   0.908   5.468   5.931 -0.0664 -0.1492 -0.2425
 9284WAT     H138941   0.880   5.559   5.945  1.1017  0.1806  0.0795
 9284WAT     H238942   0.883   5.423   6.012  0.4893  0.1901  0.1300
 9284WAT    EPW38943   0.901   5.474   5.944  0.1610 -0.0608 -0.1507
 9285WAT      O38944  -3.820   9.261   2.555 -0.3376  0.2504  0.2345
 9285WAT     H138945  -3.860   9.262   2.643  0.0982 -1.6943  0.4993
 9285WAT     H238946  -3.728   9.284   2.571 -1.1836  5.0534 -0.4132
 9285WAT    EPW38947  -3.813   9.264   2.569 -0.3917  0.6275  0.1839
 9286WAT      O38948  -1.989   2.061   8.832 -0.1841 -0.6205 -0.1175
 9286WAT     H138949  -2.034   2.138   8.797 -0.5025 -1.2592 -1.1509
 9286WAT     H238950  -2.044   1.987   8.806  0.1688 -1.2102  0.7722
 9286WAT    EPW38951  -2.002   2.062   8.824 -0.1795 -0.7825 -0.1364
 9287WAT      O38952  -6.864   7.777   7.686  0.4210  0.2126  0.3403
 9287WAT     H138953  -6.848   7.682   7.694 -1.4855 -0.2999 -1.2704
 9287WAT     H238954  -6.912   7.800   7.766 -0.0865 -0.4168  0.2237
 9287WAT    EPW38955  -6.868   7.767   7.698  0.1028  0.0620  0.1125
 9288WAT      O38956   4.160   2.731   6.828 -0.3493  0.0223  0.1589
 9288WAT     H138957   4.197   2.654   6.870 -1.8986 -0.0992  1.4191
 9288WAT     H238958   4.183   2.803   6.887  1.1419  0.5827 -1.0391
 9288WAT    EPW38959   4.168   2.731   6.842 -0.3572  0.0802  0.1671
 9289WAT      O38960  -2.492   8.410   0.908 -0.4789  0.5172 -0.3306
 9289WAT     H138961  -2.464   8.434   0.819  0.8464  0.9048  0.1698
 9289WAT     H238962  -2.416   8.429   0.963 -0.8464 -0.9174  0.7176
 9289WAT    EPW38963  -2.479   8.416   0.903 -0.3525  0.3791 -0.1264
 9290WAT      O38964   4.747   4.227   6.066 -0.0036 -0.6513 -0.3922
 9290WAT     H138965   4.690   4.238   6.143 -1.4562 -1.6415 -1.2746
 9290WAT     H238966   4.720   4.143   6.029  2.3031 -1.3272 -0.6742
 9290WAT    EPW38967   4.736   4.218   6.072  0.1087 -0.8712 -0.5457
 9291WAT      O38968   0.116   3.634   2.843  0.3198  0.4981 -0.2772
 9291WAT     H138969   0.089   3.551   2.805 -0.3438 -0.1636  1.5094
 9291WAT     H238970   0.212   3.629   2.845  0.2617 -0.8616  1.0468
 9291WAT    EPW38971   0.125   3.622   2.838  0.2246  0.2316  0.1330
 9292WAT      O38972  -0.743   7.712   0.960  0.4926  0.1899 -0.1137
 9292WAT     H138973  -0.717   7.688   1.049  1.2892  1.0877 -0.0905
 9292WAT     H238974  -0.835   7.737   0.968  0.4282 -0.1826  0.3627
 9292WAT    EPW38975  -0.752   7.712   0.973  0.5892  0.2592 -0.0478
 9293WAT      O38976   3.448   1.830   0.102 -0.0304 -0.7324  0.6040
 9293WAT     H138977   3.459   1.857   0.010 -0.5859 -1.7534  0.2257
 9293WAT     H238978   3.422   1.910   0.147 -0.6659 -0.4096 -0.3067
 9293WAT    EPW38979   3.446   1.844   0.096 -0.1875 -0.8245  0.4340
 9294WAT      O38980  -0.207   6.121   4.066  0.1757  0.4910 -0.2449
 9294WAT     H138981  -0.113   6.141   4.070  0.3567 -0.4131  1.1034
 9294WAT     H238982  -0.223   6.097   3.975  1.5039 -0.3511 -0.2934
 9294WAT    EPW38983  -0.197   6.120   4.055  0.3748  0.2606 -0.0737
 9295WAT      O38984  -2.394   6.304   0.464  0.4821 -0.1064  0.0402
 9295WAT     H138985  -2.406   6.359   0.541  0.7326  1.6783 -1.1418
 9295WAT     H238986  -2.483   6.278   0.439  0.4819 -2.2478  1.9209
 9295WAT    EPW38987  -2.408   6.308   0.471  0.5151 -0.1533  0.1324
 9296WAT      O38988   1.488   0.063   2.305 -0.2543 -0.1985  0.3556
 9296WAT     H138989   1.476   0.116   2.383  0.9376 -0.2367  0.5795
 9296WAT     H238990   1.399   0.041   2.277 -0.9169  3.3267 -0.7608
 9296WAT    EPW38991   1.475   0.067   2.311 -0.1844  0.2614  0.2378
 9297WAT      O38992  -2.617   1.852   6.719 -0.2747  0.1797 -0.5541
 9297WAT     H138993  -2.534   1.817   6.753  1.3762  3.1510 -1.2427
 9297WAT     H238994  -2.592   1.929   6.669 -3.4681  0.9533 -1.1555
 9297WAT    EPW38995  -2.603   1.857   6.717 -0.4781  0.6737 -0.7241
 9298WAT      O38996   0.700   3.992   0.334 -0.1065  0.5104  0.4050
 9298WAT     H138997   0.790   3.985   0.303  0.2155  1.5592  1.0081
 9298WAT     H238998   0.657   4.050   0.271 -0.8552 -1.3314 -0.8302
 9298WAT    EPW38999   0.706   3.999   0.322 -0.1628  0.4058  0.3217
 9299WAT      O39000   3.350   1.042   6.333 -0.0926  0.4127 -0.1056
 9299WAT     H139001   3.383   1.097   6.262  1.2660  0.4976  0.5654
 9299WAT     H239002   3.420   1.042   6.398 -0.8542 -0.5702  0.7474
 9299WAT    EPW39003   3.364   1.049   6.332 -0.0138  0.2943  0.0951
 9300WAT      O39004   4.690   6.026   3.980 -0.3207  0.5851  0.2099
 9300WAT     H139005   4.741   5.947   3.965  0.3735  1.0623  0.0452
 9300WAT     H239006   4.615   6.017   3.922 -0.1970  0.0977  0.1185
 9300WAT    EPW39007   4.687   6.014   3.970 -0.2129  0.5836  0.1761
 9301WAT      O39008   3.339   3.410   6.295  0.0202 -0.4196  0.4694
 9301WAT     H139009   3.266   3.420   6.356  0.7899  1.7963  1.1442
 9301WAT     H239010   3.303   3.437   6.210 -0.4758 -1.4054  0.3521
 9301WAT    EPW39011   3.325   3.415   6.292  0.0564 -0.2573  0.5431
 9302WAT      O39012  -6.206   8.611   6.899 -0.3819 -0.5533 -0.1273
 9302WAT     H139013  -6.214   8.518   6.879  2.0819 -1.1668  1.3254
 9302WAT     H239014  -6.192   8.652   6.814 -1.1906 -1.5314 -0.7605
 9302WAT    EPW39015  -6.205   8.604   6.885 -0.1636 -0.7634 -0.0193
 9303WAT      O39016  -1.482   5.023   6.518 -0.3008 -0.3893 -0.1167
 9303WAT     H139017  -1.543   5.093   6.536  0.8997  0.9811 -1.1262
 9303WAT     H239018  -1.398   5.054   6.553  0.2448 -1.3409 -0.5206
 9303WAT    EPW39019  -1.479   5.036   6.525 -0.0705 -0.3340 -0.3030
 9304WAT      O39020  -4.460   3.554   8.788 -0.1764 -0.2950 -0.3294
 9304WAT     H139021  -4.448   3.518   8.700  2.1779  2.1707 -1.1602
 9304WAT     H239022  -4.483   3.646   8.774  0.4299  0.1959  1.6107
 9304WAT    EPW39023  -4.461   3.561   8.775  0.2141  0.0949 -0.1836
 9305WAT      O39024   0.496   2.821   3.629  0.8514 -0.1079  0.0051
 9305WAT     H139025   0.480   2.749   3.691 -1.6485  0.3273 -0.0317
 9305WAT     H239026   0.468   2.786   3.544  0.5309  0.5896 -0.1798
 9305WAT    EPW39027   0.490   2.807   3.626  0.4794  0.0415 -0.0242
 9306WAT      O39028   2.185   0.029   2.525 -0.3704  0.1397  1.2066
 9306WAT     H139029   2.145   0.105   2.566 -1.8762 -0.3565  0.7300
 9306WAT     H239030   2.224   0.064   2.445 -1.0735  0.4312  0.9752
 9306WAT    EPW39031   2.185   0.044   2.520 -0.6617  0.1127  1.1132
 9307WAT      O39032  -0.768   1.008   7.500 -0.1445  0.1135  0.6133
 9307WAT     H139033  -0.701   1.074   7.481 -0.4706  0.9021  2.0990
 9307WAT     H239034  -0.721   0.939   7.548  0.0065 -0.3375 -0.1561
 9307WAT    EPW39035  -0.753   1.007   7.503 -0.1675  0.1581  0.7079
 9308WAT      O39036   6.707   4.214   0.923  0.2324  0.5309  0.7696
 9308WAT     H139037   6.743   4.143   0.977  0.1151 -0.7123 -0.7097
 9308WAT     H239038   6.748   4.293   0.957  3.5033 -0.6465 -0.0368
 9308WAT    EPW39039   6.717   4.215   0.935  0.6485  0.2117  0.4682
 9309WAT      O39040   0.568   0.444   4.729  0.2865 -0.5763 -0.4454
 9309WAT     H139041   0.565   0.447   4.824 -0.2876 -2.2493 -0.3799
 9309WAT     H239042   0.661   0.433   4.709  0.4629  0.2478 -0.1124
 9309WAT    EPW39043   0.580   0.443   4.739  0.2341 -0.6883 -0.3929
 9310WAT      O39044   6.253   5.644   3.802  0.8214 -0.1891 -0.4187
 9310WAT     H139045   6.167   5.686   3.809  0.3897 -1.2248  1.0270
 9310WAT     H239046   6.315   5.716   3.811  0.1081  0.4887 -0.7423
 9310WAT    EPW39047   6.250   5.659   3.804  0.6702 -0.2363 -0.2706
 9311WAT      O39048  -0.560   1.317   3.786 -0.3683 -0.2822  0.1354
 9311WAT     H139049  -0.557   1.222   3.774  3.8488 -0.2351 -0.7050
 9311WAT     H239050  -0.594   1.351   3.703 -0.0198 -0.9882 -0.3027
 9311WAT    EPW39051  -0.564   1.309   3.773  0.2339 -0.3691 -0.0331
 9312WAT      O39052   6.408   4.713   3.160  0.2054  0.1500 -0.0454
 9312WAT     H139053   6.413   4.713   3.064 -0.5722  2.4772 -0.1597
 9312WAT     H239054   6.482   4.659   3.188 -0.7437 -2.3225 -1.9331
 9312WAT    EPW39055   6.418   4.706   3.151 -0.0222  0.1311 -0.3095
 9313WAT      O39056   8.877   3.032   1.137  0.2985  0.3981 -0.3029
 9313WAT     H139057   8.831   2.955   1.103  0.4317 -0.3514  1.1334
 9313WAT     H239058   8.809   3.084   1.179  0.2638  0.9327 -0.9933
 9313WAT    EPW39059   8.862   3.028   1.138  0.3119  0.3698 -0.2045
 9314WAT      O39060  -4.576   2.271   6.669  0.0985  0.4520 -0.5109
 9314WAT     H139061  -4.570   2.241   6.760  0.0060  0.9985 -0.3203
 9314WAT     H239062  -4.514   2.343   6.664  0.1573  0.3752 -0.9041
 9314WAT    EPW39063  -4.567   2.276   6.680  0.0939  0.5139 -0.5374
 9315WAT      O39064   2.722   3.216   1.959 -0.4389  0.2998 -0.0732
 9315WAT     H139065   2.737   3.144   2.020  3.2320  0.5669 -0.4431
 9315WAT     H239066   2.694   3.289   2.015  0.5195 -0.1046  0.9637
 9315WAT    EPW39067   2.720   3.216   1.974  0.1718  0.2817  0.0148
 9316WAT      O39068   2.551   9.482   5.289 -0.2652  0.0191 -0.7363
 9316WAT     H139069   2.519   9.474   5.199 -0.3653  0.4266 -0.7385
 9316WAT     H239070   2.485   9.436   5.342  1.1757 -2.7353 -1.1124
 9316WAT    EPW39071   2.538   9.475   5.284 -0.0883 -0.2904 -0.7863
 9317WAT      O39072  -1.688   8.943   5.826  0.2661 -0.0006 -0.8192
 9317WAT     H139073  -1.734   9.013   5.780  1.4280 -0.4474 -2.7552
 9317WAT     H239074  -1.677   8.976   5.915 -0.4483  1.6711 -1.3188
 9317WAT    EPW39075  -1.692   8.956   5.832  0.3251  0.1607 -1.1406
 9318WAT      O39076   0.804   5.383   4.086  0.1138 -0.0409  0.0193
 9318WAT     H139077   0.714   5.416   4.080 -0.1194 -0.8400 -1.0720
 9318WAT     H239078   0.851   5.453   4.132 -1.2401 -0.0158  1.4848
 9318WAT    EPW39079   0.798   5.397   4.092 -0.0955 -0.1431  0.0687
 9319WAT      O39080  -1.952   6.233   5.672  0.1141  0.1188  0.2063
 9319WAT     H139081  -1.952   6.316   5.625 -0.1422 -0.5783 -1.0803
 9319WAT     H239082  -2.029   6.187   5.640 -0.1876 -0.3094  1.4858
 9319WAT    EPW39083  -1.962   6.238   5.661  0.0404 -0.0298  0.2055
 9320WAT      O39084  -4.256   9.954   2.672 -0.4762  1.0454  0.1897
 9320WAT     H139085  -4.188  10.019   2.692  1.5249 -0.5520 -1.0740
 9320WAT     H239086  -4.298   9.988   2.593  0.4668  0.8890 -0.3903
 9320WAT    EPW39087  -4.252   9.967   2.664 -0.0877  0.8140 -0.0534
 9321WAT      O39088   2.653   8.045   8.023 -0.4618 -0.2621 -0.8399
 9321WAT     H139089   2.722   7.978   8.025  2.0131  1.9991 -2.7248
 9321WAT     H239090   2.642   8.071   8.114  0.1831 -1.6184 -0.3441
 9321WAT    EPW39091   2.660   8.039   8.035 -0.0503 -0.1431 -1.0233
 9322WAT      O39092   1.641   8.162   2.599 -0.0675 -0.3348  0.8332
 9322WAT     H139093   1.584   8.210   2.660 -0.5884 -0.9194  0.8161
 9322WAT     H239094   1.709   8.225   2.576 -0.4945  0.2560  1.1509
 9322WAT    EPW39095   1.642   8.177   2.604 -0.1926 -0.3343  0.8727
 9323WAT      O39096  -1.841   1.006   3.676 -0.4917  0.1873 -0.1442
 9323WAT     H139097  -1.867   1.034   3.763 -0.5059  0.8026 -0.3453
 9323WAT     H239098  -1.888   1.064   3.617 -2.2647 -1.6173 -0.6503
 9323WAT    EPW39099  -1.851   1.017   3.679 -0.7274  0.0305 -0.2376
 9324WAT      O39100   2.931   4.376   6.077 -0.1112  0.7684 -1.2849
 9324WAT     H139101   2.868   4.347   6.012 -2.2957  1.7731  0.2368
 9324WAT     H239102   2.880   4.385   6.158  2.6568 -1.5463  0.9501
 9324WAT    EPW39103   2.916   4.373   6.079 -0.0342  0.5958 -0.7894
 9325WAT      O39104  -0.129   1.470   0.720 -0.0215  0.3458  0.8420
 9325WAT     H139105  -0.144   1.426   0.804 -0.0784 -0.5064  0.3950
 9325WAT     H239106  -0.203   1.444   0.666  1.0570 -0.7860 -0.1427
 9325WAT    EPW39107  -0.141   1.461   0.724  0.1132  0.0841  0.6532
 9326WAT      O39108  -1.138   9.695   0.113  0.6028 -0.0695 -0.7434
 9326WAT     H139109  -1.178   9.678   0.198  0.7581  0.0176 -0.6527
 9326WAT     H239110  -1.164   9.620   0.059  0.3594 -0.0393 -0.6719
 9326WAT    EPW39111  -1.147   9.683   0.117  0.5912 -0.0534 -0.7220
 9327WAT      O39112  -5.983   2.607   8.821 -0.0094 -0.6388  0.9772
 9327WAT     H139113  -6.005   2.685   8.770 -0.4804 -0.3202  1.6470
 9327WAT     H239114  -5.967   2.640   8.909  1.9099 -1.0336  0.8290
 9327WAT    EPW39115  -5.984   2.622   8.826  0.1814 -0.6489  1.0457
 9328WAT      O39116  -4.116   6.958   7.815  0.1192 -0.1477 -0.4620
 9328WAT     H139117  -4.031   6.954   7.772 -0.9230  0.3968 -2.6872
 9328WAT     H239118  -4.167   6.887   7.775 -0.8501  0.2575  0.0073
 9328WAT    EPW39119  -4.112   6.948   7.804 -0.1459 -0.0224 -0.6936
 9329WAT      O39120  -4.547   8.299   8.270  0.2607 -0.6490  0.5582
 9329WAT     H139121  -4.617   8.242   8.239 -1.0450  0.8359  0.6354
 9329WAT     H239122  -4.496   8.245   8.330  0.9698 -2.6461 -1.7047
 9329WAT    EPW39123  -4.549   8.284   8.274  0.1822 -0.7167  0.2699
 9330WAT      O39124   4.993   5.662   4.914 -0.3883  0.5000 -0.3634
 9330WAT     H139125   4.927   5.598   4.941 -2.1478  1.8526 -1.2437
 9330WAT     H239126   5.025   5.628   4.830 -1.2965  0.7352 -0.8174
 9330WAT    EPW39127   4.988   5.649   4.907 -0.7403  0.7095 -0.5393
 9331WAT      O39128  -5.576   9.183   6.080  0.0341 -0.3224 -0.4345
 9331WAT     H139129  -5.552   9.200   6.171  1.4052 -0.2592 -0.7925
 9331WAT     H239130  -5.520   9.241   6.029  0.0598 -1.1322 -1.3618
 9331WAT    EPW39131  -5.565   9.193   6.085  0.2184 -0.4206 -0.6039
 9332WAT      O39132   7.920   2.280   0.017 -0.2585  0.6192 -0.0784
 9332WAT     H139133   8.006   2.254   0.049 -0.8861 -2.1172 -0.3527
 9332WAT     H239134   7.863   2.276   0.094 -0.4759  0.6931 -0.2349
 9332WAT    EPW39135   7.924   2.276   0.031 -0.3698  0.2680 -0.1352
 9333WAT      O39136  -0.085   9.967   6.202 -0.6962 -0.0459  0.2175
 9333WAT     H139137  -0.070  10.060   6.220  0.5233  0.1320 -1.4750
 9333WAT     H239138  -0.002   9.925   6.223 -1.4806 -0.9186  1.7332
 9333WAT    EPW39139  -0.072   9.974   6.207 -0.6388 -0.1373  0.1943
 9334WAT      O39140  -6.385   6.256   7.133  0.4267  1.0113 -0.0531
 9334WAT     H139141  -6.326   6.290   7.066  0.9595 -2.3291 -1.4637
 9334WAT     H239142  -6.335   6.186   7.176 -1.6197 -0.1948  0.4771
 9334WAT    EPW39143  -6.371   6.251   7.130  0.2267  0.4117 -0.1693
 9335WAT      O39144   2.078   5.883   3.692 -0.7513  0.2717 -0.2509
 9335WAT     H139145   2.054   5.912   3.604 -1.3409  0.6693  0.0273
 9335WAT     H239146   1.995   5.856   3.731 -0.3926 -0.5782 -0.0534
 9335WAT    EPW39147   2.064   5.884   3.686 -0.7817  0.2122 -0.1881
 9336WAT      O39148  -5.680   6.812   8.058 -0.3460  0.0221  0.0219
 9336WAT     H139149  -5.752   6.751   8.075  1.5113 -2.3383 -0.1639
 9336WAT     H239150  -5.640   6.780   7.977  0.2063  2.0170 -0.5486
 9336WAT    EPW39151  -5.684   6.800   8.049 -0.0281 -0.0262 -0.0777
 9337WAT      O39152  -0.322   6.844   3.630 -0.1863 -0.3940  0.1426
 9337WAT     H139153  -0.361   6.929   3.648  0.7603  0.3604 -1.2018
 9337WAT     H239154  -0.337   6.830   3.536 -1.2540 -2.2197  0.5166
 9337WAT    EPW39155  -0.329   6.853   3.620 -0.2023 -0.5355  0.0147
 9338WAT      O39156   7.614   2.074   2.062  0.4166  0.2492  1.0406
 9338WAT     H139157   7.695   2.122   2.077  0.3660  0.5420  0.3803
 9338WAT     H239158   7.578   2.111   1.982 -0.1460 -0.1846  1.0856
 9338WAT    EPW39159   7.620   2.085   2.054  0.3357  0.2306  0.9594
 9339WAT      O39160  -3.431   5.779   2.323  0.2739  0.2505 -0.3171
 9339WAT     H139161  -3.465   5.853   2.374  1.1462  1.8015 -1.8518
 9339WAT     H239162  -3.491   5.707   2.341 -0.3211  1.1644  1.6481
 9339WAT    EPW39163  -3.443   5.780   2.332  0.3105  0.5755 -0.2602
 9340WAT      O39164   2.765   7.274   2.662 -0.4310 -0.1082 -0.2610
 9340WAT     H139165   2.800   7.286   2.750  0.2604 -1.6868 -0.2730
 9340WAT     H239166   2.682   7.321   2.662 -0.8165 -0.6996  1.4942
 9340WAT    EPW39167   2.759   7.282   2.674 -0.3908 -0.3946 -0.0311
 9341WAT      O39168   0.428   7.749   7.502 -0.3379  0.3200  0.1279
 9341WAT     H139169   0.506   7.701   7.532  0.7748  1.8904 -0.1313
 9341WAT     H239170   0.448   7.773   7.411 -0.5429  1.8329  0.4529
 9341WAT    EPW39171   0.441   7.746   7.494 -0.2182  0.7267  0.1366
 9342WAT      O39172  -2.387   8.398   4.730  0.1683 -0.6732  0.3358
 9342WAT     H139173  -2.444   8.329   4.697  0.8076 -1.5765  1.0694
 9342WAT     H239174  -2.431   8.479   4.705  0.0483 -1.2977 -1.7044
 9342WAT    EPW39175  -2.400   8.400   4.722  0.2367 -0.8745  0.1633
 9343WAT      O39176   2.884   5.467   1.961  0.1483 -0.0848 -0.6540
 9343WAT     H139177   2.828   5.505   2.029  0.4296 -0.4897 -0.1868
 9343WAT     H239178   2.826   5.453   1.887 -0.5893 -1.3191  0.1177
 9343WAT    EPW39179   2.869   5.470   1.960  0.0881 -0.3011 -0.4906
 9344WAT      O39180   2.071   2.168   1.881  0.1346 -0.3033  0.4429
 9344WAT     H139181   2.017   2.193   1.956  0.4074 -2.1386  1.2803
 9344WAT     H239182   2.130   2.101   1.914  1.1237 -0.2652 -1.1230
 9344WAT    EPW39183   2.072   2.163   1.895  0.3011 -0.5403  0.3468
 9345WAT      O39184  -2.321   2.396   3.664 -0.0417  0.6497  1.2147
 9345WAT     H139185  -2.293   2.341   3.591  0.5766  1.5154  0.7849
 9345WAT     H239186  -2.340   2.481   3.624 -0.6994  0.8431  1.9097
 9345WAT    EPW39187  -2.320   2.400   3.649 -0.0470  0.7894  1.2497
 9346WAT      O39188  -4.288   0.812   8.619  0.1698 -1.1410 -0.3505
 9346WAT     H139189  -4.280   0.782   8.528  1.7321  1.1855 -1.0543
 9346WAT     H239190  -4.213   0.773   8.664  1.4660  0.5483 -0.9625
 9346WAT    EPW39191  -4.277   0.803   8.613  0.5467 -0.6113 -0.5240
 9347WAT      O39192  -1.874   6.092   0.477 -0.0479 -0.5543 -0.1499
 9347WAT     H139193  -1.953   6.146   0.475  0.3829  0.1359  0.5545
 9347WAT     H239194  -1.816   6.133   0.413 -0.6248 -1.6708 -1.4132
 9347WAT    EPW39195  -1.877   6.105   0.469 -0.0672 -0.6104 -0.2237
 9348WAT      O39196   0.544   6.259   7.453  1.1406  0.3888  0.7456
 9348WAT     H139197   0.617   6.198   7.436  1.4194  1.3773 -2.2343
 9348WAT     H239198   0.470   6.203   7.475  1.8932 -0.8834  0.1335
 9348WAT    EPW39199   0.544   6.244   7.454  1.2766  0.3514  0.2718
 9349WAT      O39200   4.333   4.048   6.508 -0.3412 -0.2306  0.6545
 9349WAT     H139201   4.342   4.133   6.551  0.0428 -1.1079  2.3982
 9349WAT     H239202   4.248   4.051   6.466 -0.7704  0.6680  1.5578
 9349WAT    EPW39203   4.323   4.059   6.508 -0.3471 -0.2277  1.0035
 9350WAT      O39204  -2.893   7.509   1.586 -0.4888 -0.1628  0.4249
 9350WAT     H139205  -2.804   7.481   1.564 -0.2930  1.9860 -1.9866
 9350WAT     H239206  -2.894   7.511   1.682  1.7061 -1.2402  0.5486
 9350WAT    EPW39207  -2.881   7.505   1.596 -0.1736 -0.0217  0.1231
 9351WAT      O39208   1.815   0.651   1.449 -0.1745 -0.4318 -0.4459
 9351WAT     H139209   1.780   0.692   1.370 -0.5935 -2.0890 -1.1535
 9351WAT     H239210   1.775   0.565   1.451 -1.1505 -0.0182  2.2594
 9351WAT    EPW39211   1.805   0.645   1.439 -0.3585 -0.5958 -0.1824
 9352WAT      O39212  -4.861   6.534   5.635  0.5556  0.0826  0.5663
 9352WAT     H139213  -4.774   6.572   5.619 -0.5676  2.7347  0.2945
 9352WAT     H239214  -4.853   6.492   5.720  1.8289  1.3282  1.1053
 9352WAT    EPW39215  -4.848   6.534   5.644  0.5755  0.5965  0.6015
 9353WAT      O39216   2.784   3.677   3.584 -0.3463  0.2645 -0.3994
 9353WAT     H139217   2.773   3.598   3.638  1.5002  0.1065 -0.2078
 9353WAT     H239218   2.703   3.682   3.534 -1.5100 -0.4114  1.2946
 9353WAT    EPW39219   2.772   3.667   3.585 -0.2562  0.1545 -0.1507
 9354WAT      O39220   4.592   3.406   0.833  0.7546 -0.1079  0.0714
 9354WAT     H139221   4.655   3.375   0.898 -0.4816  0.9728  1.8844
 9354WAT     H239222   4.636   3.477   0.788  2.1567 -1.7882 -1.3744
 9354WAT    EPW39223   4.606   3.411   0.835  0.7765 -0.1870  0.1198
 9355WAT      O39224  -2.864   9.702   3.554 -0.1746 -0.5318 -0.7203
 9355WAT     H139225  -2.824   9.624   3.517  0.5557 -1.3680  1.6534
 9355WAT     H239226  -2.792   9.751   3.593 -1.0828 -0.9436  1.6753
 9355WAT    EPW39227  -2.849   9.698   3.554 -0.1980 -0.6967 -0.0914
 9356WAT      O39228   7.686   0.777   2.482 -1.1152 -0.4845  0.9458
 9356WAT     H139229   7.652   0.692   2.510 -0.5430 -0.8514  0.5467
 9356WAT     H239230   7.750   0.801   2.549 -0.9789 -0.5667  0.8469
 9356WAT    EPW39231   7.690   0.769   2.494 -1.0216 -0.5437  0.8801
 9357WAT      O39232  -4.362   6.935   4.060 -0.2499  0.3273 -0.4228
 9357WAT     H139233  -4.317   6.983   3.991 -0.4093 -0.5338 -1.1373
 9357WAT     H239234  -4.430   6.995   4.091 -0.7571  0.3898 -1.6292
 9357WAT    EPW39235  -4.365   6.949   4.055 -0.3378  0.2220 -0.6764
 9358WAT      O39236   1.023   5.441   3.918 -1.1458  0.1098  0.4044
 9358WAT     H139237   0.991   5.473   3.834  1.4954 -3.2191 -2.1360
 9358WAT     H239238   0.945   5.406   3.962 -2.4029  0.7811 -1.2119
 9358WAT    EPW39239   1.009   5.441   3.913 -0.9632 -0.2406 -0.1439
 9359WAT      O39240   2.825   8.178   0.576  0.0819 -0.0599  0.6003
 9359WAT     H139241   2.881   8.111   0.614 -0.2659  0.4726  2.1209
 9359WAT     H239242   2.763   8.130   0.521  0.9384 -0.7973  0.2588
 9359WAT    EPW39243   2.824   8.163   0.574  0.1490 -0.0873  0.7558
 9360WAT      O39244  -0.542   0.303   2.331  0.6722 -0.5439 -0.2559
 9360WAT     H139245  -0.483   0.334   2.399  0.8643  2.4013 -1.6041
 9360WAT     H239246  -0.485   0.283   2.257  0.2614 -1.4664 -0.3476
 9360WAT    EPW39247  -0.527   0.304   2.330  0.6433 -0.2771 -0.4457
 9361WAT      O39248   5.110   0.170   2.020 -0.2510  0.1719  0.8066
 9361WAT     H139249   5.161   0.215   2.088  0.4670  1.8721 -0.7799
 9361WAT     H239250   5.165   0.174   1.942 -1.5191 -0.7352 -0.1786
 9361WAT    EPW39251   5.124   0.177   2.019 -0.3235  0.2765  0.4675
 9362WAT      O39252  -3.592   5.708   4.089 -0.1508 -0.0979  0.1599
 9362WAT     H139253  -3.632   5.795   4.093 -0.3832 -0.1626 -0.5406
 9362WAT     H239254  -3.659   5.649   4.123 -0.7086 -0.2126 -1.0641
 9362WAT    EPW39255  -3.606   5.712   4.094 -0.2549 -0.1216 -0.0937
 9363WAT      O39256   2.989   9.047   1.002  0.0111 -0.0476  0.2204
 9363WAT     H139257   3.009   9.050   1.096 -0.0621  1.5424  0.2150
 9363WAT     H239258   3.074   9.053   0.959  0.0236 -0.4863  0.1816
 9363WAT    EPW39259   3.002   9.048   1.009  0.0031  0.1044  0.2146
 9364WAT      O39260   3.211   9.799   2.336  0.3183  0.1252 -0.4239
 9364WAT     H139261   3.174   9.868   2.281 -0.5989  1.4182  1.6779
 9364WAT     H239262   3.135   9.752   2.371  0.5215  1.8367  2.7341
 9364WAT    EPW39263   3.197   9.802   2.333  0.2241  0.5217  0.2699
 9365WAT      O39264   1.117   9.696   1.267 -0.1353  0.1921  0.0709
 9365WAT     H139265   1.205   9.734   1.271  0.3151 -0.8255  0.0548
 9365WAT     H239266   1.107   9.667   1.176  0.5359 -2.0141  0.6474
 9365WAT    EPW39267   1.127   9.697   1.255  0.0126 -0.2327  0.1448
 9366WAT      O39268   5.917   7.358   0.477 -0.0094 -0.1849  0.6272
 9366WAT     H139269   5.899   7.267   0.500  1.8382 -0.3325  1.7218
 9366WAT     H239270   5.850   7.409   0.524 -0.0115 -0.8823  1.3970
 9366WAT    EPW39271   5.906   7.353   0.487  0.2341 -0.2964  0.8731
 9367WAT      O39272  -0.450   2.321   4.703  0.2455  0.1452  0.4091
 9367WAT     H139273  -0.384   2.252   4.708  1.6463  1.2928 -1.0653
 9367WAT     H239274  -0.419   2.379   4.633 -3.1274 -0.0987 -1.5213
 9367WAT    EPW39275  -0.438   2.320   4.694 -0.0146  0.2644 -0.0398
 9368WAT      O39276   3.746   2.964   0.163  0.3837 -0.1339  0.6320
 9368WAT     H139277   3.810   2.968   0.092  1.5747 -0.0681  1.6740
 9368WAT     H239278   3.664   2.992   0.123  1.3749  1.5978 -0.3329
 9368WAT    EPW39279   3.744   2.968   0.148  0.6715  0.1032  0.6422
 9369WAT      O39280   6.824   2.586   0.900 -0.6276 -0.2913 -0.0965
 9369WAT     H139281   6.891   2.653   0.911 -0.1866 -0.9106  1.3471
 9369WAT     H239282   6.871   2.512   0.861 -0.2444 -0.9899  1.5978
 9369WAT    EPW39283   6.839   2.585   0.896 -0.5188 -0.4650  0.3174
 9370WAT      O39284   4.748   9.354   4.177 -0.4486 -0.8454  0.2653
 9370WAT     H139285   4.799   9.392   4.105  1.5735  1.4274  2.7091
 9370WAT     H239286   4.672   9.411   4.185 -0.5578 -0.9632  0.0767
 9370WAT    EPW39287   4.745   9.366   4.168 -0.1965 -0.5612  0.5627
 9371WAT      O39288   0.742   2.921   6.367  0.1350 -0.0374 -0.0578
 9371WAT     H139289   0.665   2.978   6.376  0.2908 -0.0006  1.0734
 9371WAT     H239290   0.790   2.932   6.448  0.3346 -1.5509  0.0529
 9371WAT    EPW39291   0.738   2.930   6.379  0.1819 -0.2322  0.1061
 9372WAT      O39292  -5.861  10.232   7.394 -0.0250 -0.6813 -0.3242
 9372WAT     H139293  -5.868  10.254   7.302 -1.3654  0.4913  0.0210
 9372WAT     H239294  -5.859  10.317   7.439  2.9855 -1.1308  0.6316
 9372WAT    EPW39295  -5.861  10.246   7.388  0.1953 -0.5856 -0.1526
 9373WAT      O39296  -7.043   9.347   8.752  0.4351  0.2595  0.2282
 9373WAT     H139297  -7.084   9.270   8.792 -2.9158  2.1912  0.8952
 9373WAT     H239298  -6.959   9.355   8.796 -0.6584 -1.0033  2.7699
 9373WAT    EPW39299  -7.038   9.338   8.763 -0.1512  0.3476  0.6509
 9374WAT      O39300   5.304   1.033   3.545 -0.1604 -0.0765 -0.8325
 9374WAT     H139301   5.266   1.029   3.632  1.4519 -0.9701 -0.1214
 9374WAT     H239302   5.336   1.123   3.536 -1.4800  0.3842 -1.0387
 9374WAT    EPW39303   5.303   1.044   3.555 -0.1218 -0.1336 -0.7659
 9375WAT      O39304   2.409   4.733   2.648  0.1165  0.1843  0.6972
 9375WAT     H139305   2.349   4.748   2.574 -0.4512  0.0213  1.1155
 9375WAT     H239306   2.390   4.644   2.676 -1.2148  0.9326  2.3901
 9375WAT    EPW39307   2.398   4.723   2.642 -0.1340  0.2613  0.9756
 9376WAT      O39308   2.401   2.853   3.634 -0.0046  0.1961  0.3392
 9376WAT     H139309   2.482   2.803   3.628  1.3163  2.2673 -0.2425
 9376WAT     H239310   2.377   2.851   3.726  0.8157 -0.2733  0.5452
 9376WAT    EPW39311   2.408   2.846   3.645  0.2778  0.4073  0.2897
 9377WAT      O39312   6.554   2.507   0.480  0.3865  0.2480  0.1553
 9377WAT     H139313   6.506   2.431   0.513 -4.9979  3.4778  1.1271
 9377WAT     H239314   6.542   2.504   0.385  0.4609 -0.2687  0.1596
 9377WAT    EPW39315   6.546   2.497   0.472 -0.3140  0.6058  0.2841
 9378WAT      O39316   0.366   5.846   4.685  0.7390  0.4952 -0.3555
 9378WAT     H139317   0.276   5.878   4.690  0.9899  1.1556  0.0170
 9378WAT     H239318   0.417   5.908   4.737  0.9980 -1.4165  1.8119
 9378WAT    EPW39319   0.361   5.858   4.692  0.8062  0.3304 -0.0205
 9379WAT      O39320   3.905   2.597   4.250  0.4288 -0.1514 -0.1090
 9379WAT     H139321   3.871   2.677   4.210  2.0981  0.8425  0.3298
 9379WAT     H239322   3.845   2.579   4.322  1.8141  2.7533  1.9776
 9379WAT    EPW39323   3.893   2.605   4.254  0.8316  0.3628  0.2241
 9380WAT      O39324  -3.385   5.648   3.015  0.6185  0.1689  0.4478
 9380WAT     H139325  -3.355   5.684   3.099  1.8501  0.6165 -0.1486
 9380WAT     H239326  -3.439   5.573   3.039  0.1337  0.8666  1.6611
 9380WAT    EPW39327  -3.388   5.643   3.030  0.7170  0.3200  0.5291
 9381WAT      O39328   0.339   5.001   5.483  0.7320  0.3360 -0.8072
 9381WAT     H139329   0.387   5.077   5.515  1.5026  1.1727 -3.6773
 9381WAT     H239330   0.406   4.936   5.463  0.3669  0.1606 -1.5007
 9381WAT    EPW39331   0.354   5.002   5.485  0.7855  0.4232 -1.2772
 9382WAT      O39332  -3.978   4.103   7.226  0.0149  0.4156  1.0740
 9382WAT     H139333  -4.012   4.169   7.166  0.0649 -0.9868 -0.5830
 9382WAT     H239334  -3.913   4.055   7.174  0.0742 -0.8538  2.2627
 9382WAT    EPW39335  -3.974   4.105   7.211  0.0293  0.0632  1.0121
 9383WAT      O39336   5.392   7.122   1.108  0.2822  0.3411  0.4467
 9383WAT     H139337   5.418   7.059   1.175  0.2456 -0.2112 -0.0515
 9383WAT     H239338   5.300   7.139   1.125  0.4114  0.6248  0.8704
 9383WAT    EPW39339   5.383   7.116   1.119  0.2944  0.3057  0.4369
 9384WAT      O39340   6.018   6.630   1.960 -0.5836  0.9261 -0.1042
 9384WAT     H139341   6.022   6.555   1.900 -0.5146  0.4486  0.4815
 9384WAT     H239342   6.053   6.596   2.042  1.7533  2.2696 -0.4792
 9384WAT    EPW39343   6.023   6.616   1.963 -0.2663  1.0402 -0.0764
 9385WAT      O39344   4.701   0.090   8.717 -0.3848 -0.4324 -0.8087
 9385WAT     H139345   4.788   0.128   8.707 -0.3591 -0.1761  0.2930
 9385WAT     H239346   4.708   0.003   8.678  0.1189 -0.1004 -1.4886
 9385WAT    EPW39347   4.714   0.084   8.710 -0.3150 -0.3548 -0.7529
 9386WAT      O39348  -3.718  10.117   4.750 -0.0254  0.0857  0.9312
 9386WAT     H139349  -3.758  10.165   4.823  0.2240  1.0834  0.4390
 9386WAT     H239350  -3.644  10.172   4.723  0.1386 -0.4707  0.1937
 9386WAT    EPW39351  -3.713  10.131   4.756  0.0290  0.1440  0.7689
 9387WAT      O39352  -0.133   1.960   6.234 -0.0455 -0.1328  0.3320
 9387WAT     H139353  -0.100   1.885   6.185  0.3645  1.2132 -1.5674
 9387WAT     H239354  -0.093   2.036   6.192 -1.4129  1.2401  1.3820
 9387WAT    EPW39355  -0.123   1.960   6.222 -0.1718  0.2258  0.2201
 9388WAT      O39356   2.674   7.222   7.767  0.1137  0.2093  0.4139
 9388WAT     H139357   2.652   7.166   7.693 -0.9437 -1.8935  2.2081
 9388WAT     H239358   2.717   7.163   7.830  2.0242  2.1544  1.0750
 9388WAT    EPW39359   2.677   7.207   7.765  0.2261  0.1886  0.7377
 9389WAT      O39360   1.589   3.843   0.653 -0.2835 -0.2184 -0.2899
 9389WAT     H139361   1.664   3.785   0.642  0.2418  0.7178 -1.9531
 9389WAT     H239362   1.521   3.807   0.596 -0.9062 -0.6911  0.7172
 9389WAT    EPW39363   1.590   3.831   0.644 -0.2964 -0.1572 -0.3765
 9390WAT      O39364   2.262   8.688   7.655  0.5217  0.0739  0.1986
 9390WAT     H139365   2.336   8.746   7.637  0.7169  0.0281  0.8110
 9390WAT     H239366   2.301   8.615   7.704  0.0156  0.2338  0.8543
 9390WAT    EPW39367   2.277   8.686   7.659  0.4808  0.0887  0.3660
 9391WAT      O39368   7.396   1.139   4.686 -1.2283 -0.3703 -0.8974
 9391WAT     H139369   7.303   1.142   4.710 -1.0763  1.5408 -0.3278
 9391WAT     H239370   7.416   1.229   4.659  0.6608 -0.5177 -0.1596
 9391WAT    EPW39371   7.386   1.151   4.686 -0.9592 -0.1377 -0.7250
 9392WAT      O39372   3.040   3.907   0.048 -0.7154 -0.3332  0.7169
 9392WAT     H139373   3.103   3.941  -0.015 -0.9687  1.0820  1.1915
 9392WAT     H239374   3.086   3.834   0.091 -0.5224 -1.2835 -1.0179
 9392WAT    EPW39375   3.054   3.902   0.045 -0.7234 -0.2718  0.5503
 9393WAT      O39376  -3.828   6.852   5.129 -0.0183 -0.7193  0.0326
 9393WAT     H139377  -3.807   6.925   5.188  0.5946  0.0306 -1.0657
 9393WAT     H239378  -3.801   6.883   5.042 -1.0001 -1.7343 -0.6741
 9393WAT    EPW39379  -3.822   6.866   5.125 -0.0670 -0.7539 -0.2053
 9394WAT      O39380  -5.149   5.112   7.611  0.4422 -0.2413 -0.4478
 9394WAT     H139381  -5.207   5.044   7.576 -1.4938  0.0265  2.0175
 9394WAT     H239382  -5.207   5.183   7.638  2.2775  1.7710 -1.4140
 9394WAT    EPW39383  -5.164   5.112   7.610  0.4287  0.0594 -0.2499
 9395WAT      O39384   0.041   7.973   3.720  0.2653 -0.0182  0.3004
 9395WAT     H139385  -0.024   8.044   3.727  0.2126 -0.1034  0.6824
 9395WAT     H239386   0.070   7.977   3.629  2.9682  2.8948  1.1292
 9395WAT    EPW39387   0.036   7.983   3.709  0.6148  0.3548  0.4600
 9396WAT      O39388  -3.540   6.855   3.935 -0.0691 -1.0683  0.2912
 9396WAT     H139389  -3.635   6.851   3.949 -0.5894 -0.2386 -2.4311
 9396WAT     H239390  -3.515   6.765   3.914 -0.6277 -0.9863 -0.8048
 9396WAT    EPW39391  -3.549   6.843   3.934 -0.2114 -0.9482 -0.2124
 9397WAT      O39392   4.175   9.199   5.171  0.2341 -0.0755 -0.0298
 9397WAT     H139393   4.149   9.108   5.185 -0.6598  0.1353 -0.2150
 9397WAT     H239394   4.102   9.250   5.208  0.6645  0.5572 -0.0446
 9397WAT    EPW39395   4.162   9.194   5.178  0.1731  0.0358 -0.0560
 9398WAT      O39396   1.305   3.723   2.439  0.0927 -0.0572 -0.6850
 9398WAT     H139397   1.293   3.735   2.533 -0.5716 -0.8087 -0.6584
 9398WAT     H239398   1.392   3.759   2.420  0.0103  0.5863  0.1159
 9398WAT    EPW39399   1.315   3.729   2.449 -0.0057 -0.0714 -0.5759
 9399WAT      O39400  -2.315   8.048   4.958 -0.3016 -0.6006 -0.3786
 9399WAT     H139401  -2.319   7.957   4.928  0.4624 -0.9603  0.5491
 9399WAT     H239402  -2.392   8.089   4.919 -1.0865 -1.8389 -0.2069
 9399WAT    EPW39403  -2.326   8.041   4.949 -0.3045 -0.8116 -0.2334
 9400WAT      O39404  -0.196   5.217   1.055 -0.6946  0.4942  0.3707
 9400WAT     H139405  -0.111   5.184   1.084 -1.3713  0.9111  3.0918
 9400WAT     H239406  -0.247   5.138   1.036 -0.9331  0.0417  2.6507
 9400WAT    EPW39407  -0.192   5.202   1.056 -0.8153  0.4897  1.0303
 9401WAT      O39408  -1.301   8.912   3.423 -0.9444 -0.6154  0.4870
 9401WAT     H139409  -1.257   8.996   3.428 -0.2993 -1.0298  2.5056
 9401WAT     H239410  -1.303   8.892   3.329 -0.6058  1.3466  0.0122
 9401WAT    EPW39411  -1.296   8.920   3.411 -0.8146 -0.4110  0.6906
 9402WAT      O39412   5.110   9.996   2.076  0.9733 -0.9138 -0.8133
 9402WAT     H139413   5.047  10.066   2.091 -1.7173 -2.4170 -3.7528
 9402WAT     H239414   5.192  10.040   2.056 -0.9745  1.6613 -4.2070
 9402WAT    EPW39415   5.113  10.011   2.075  0.3614 -0.7725 -1.6487
 9403WAT      O39416  -1.170   7.418   4.519 -0.2222  0.6293 -0.4381
 9403WAT     H139417  -1.224   7.343   4.543 -1.1198  1.6697  0.9734
 9403WAT     H239418  -1.118   7.436   4.598  0.9315  0.6944 -1.1980
 9403WAT    EPW39419  -1.170   7.411   4.533 -0.1884  0.7749 -0.3519
 9404WAT      O39420  -5.744   4.040   8.782  0.9311  0.0275 -0.0527
 9404WAT     H139421  -5.668   4.093   8.757  2.4047 -1.9411  0.0228
 9404WAT     H239422  -5.791   4.025   8.701  1.9650 -0.7004 -0.5427
 9404WAT    EPW39423  -5.740   4.045   8.768  1.2619 -0.3283 -0.1068
 9405WAT      O39424   5.217   1.929   7.717 -0.5355  0.0490 -0.1713
 9405WAT     H139425   5.163   1.945   7.794  1.0116 -1.8543  1.4149
 9405WAT     H239426   5.264   2.012   7.703 -4.2824  2.1341 -2.1987
 9405WAT    EPW39427   5.216   1.942   7.725 -0.8256  0.0729 -0.2296
 9406WAT      O39428   7.310   4.939   1.834 -0.4745 -0.1549 -0.0170
 9406WAT     H139429   7.240   4.990   1.877 -1.2583 -0.2457 -1.1405
 9406WAT     H239430   7.290   4.946   1.741 -0.6760 -2.6331 -0.2108
 9406WAT    EPW39431   7.298   4.947   1.828 -0.6046 -0.4938 -0.1907
 9407WAT      O39432   2.096   0.252   6.765 -0.0914  0.1786 -0.1537
 9407WAT     H139433   2.133   0.166   6.784 -0.0474  0.2220 -0.0445
 9407WAT     H239434   2.004   0.243   6.786 -0.7607 -0.7610 -2.9708
 9407WAT    EPW39435   2.089   0.239   6.770 -0.1739  0.0604 -0.5109
 9408WAT      O39436  -5.582   9.888   6.975 -0.1763 -0.2708 -0.0564
 9408WAT     H139437  -5.588   9.827   6.901 -2.6330 -1.9488  1.3685
 9408WAT     H239438  -5.488   9.890   6.997  0.5763  0.0720 -2.9532
 9408WAT    EPW39439  -5.570   9.880   6.968 -0.4010 -0.4468 -0.2506
 9409WAT      O39440  -2.082   8.475   7.167 -0.7440  0.0185  0.1020
 9409WAT     H139441  -2.020   8.548   7.172 -2.4510  1.6147 -0.7282
 9409WAT     H239442  -2.128   8.478   7.251 -1.0783  0.1596 -0.0843
 9409WAT    EPW39443  -2.080   8.485   7.179 -1.0132  0.2475 -0.0322
 9410WAT      O39444   6.477   0.867   6.489 -0.0273  0.4821  0.7498
 9410WAT     H139445   6.518   0.953   6.496  1.3850 -0.0522 -0.4447
 9410WAT     H239446   6.534   0.809   6.541  0.6831 -0.2274 -0.7534
 9410WAT    EPW39447   6.490   0.871   6.497  0.2527  0.3180  0.3939
 9411WAT      O39448   0.290   9.781   2.985  0.0570  0.2399 -0.8101
 9411WAT     H139449   0.370   9.731   2.969  0.9291  1.0768  0.6726
 9411WAT     H239450   0.226   9.743   2.925  1.0222 -1.7615 -0.6766
 9411WAT    EPW39451   0.292   9.769   2.975  0.2993  0.0863 -0.5970
 9412WAT      O39452   6.047   8.147   1.621  0.3077 -0.4287 -0.3356
 9412WAT     H139453   5.979   8.094   1.580  2.6795 -3.1599 -1.1093
 9412WAT     H239454   6.076   8.207   1.552 -1.2450  0.8075  0.0238
 9412WAT    EPW39455   6.042   8.148   1.606  0.4156 -0.6261 -0.3902
 9413WAT      O39456   0.917   4.781   6.353 -0.9821 -0.2842 -0.3170
 9413WAT     H139457   0.844   4.844   6.352 -0.0165  0.9973  2.1916
 9413WAT     H239458   0.958   4.793   6.438  1.2051 -2.1250 -1.0153
 9413WAT    EPW39459   0.913   4.791   6.364 -0.5663 -0.3581 -0.0780
 9414WAT      O39460   3.423   2.579   7.326  0.2673  0.4949 -0.0645
 9414WAT     H139461   3.504   2.533   7.304  1.4757  0.9390  2.9889
 9414WAT     H239462   3.446   2.632   7.402 -2.2694  2.6726 -0.6921
 9414WAT    EPW39463   3.437   2.580   7.333  0.0920  0.8407  0.2556
 9415WAT      O39464   5.545   5.268   2.178  0.3114 -0.2883 -0.1851
 9415WAT     H139465   5.560   5.253   2.271  0.1482  0.0464 -0.1023
 9415WAT     H239466   5.560   5.362   2.166  1.1020 -0.4640 -0.6461
 9415WAT    EPW39467   5.549   5.279   2.188  0.3941 -0.2675 -0.2351
 9416WAT      O39468   6.460   1.303   0.720 -0.0792 -0.1465  0.1142
 9416WAT     H139469   6.512   1.309   0.639 -1.3683  0.7760 -0.6760
 9416WAT     H239470   6.440   1.210   0.729  0.4857 -0.3199 -0.3451
 9416WAT    EPW39471   6.465   1.292   0.711 -0.1745 -0.0477 -0.0506
 9417WAT      O39472   0.923   7.123   5.472  0.0099  0.0334  0.3548
 9417WAT     H139473   0.982   7.048   5.468 -0.7667 -0.6119  0.6849
 9417WAT     H239474   0.853   7.095   5.531  0.7126  1.7544  2.1225
 9417WAT    EPW39475   0.921   7.110   5.479  0.0001  0.1752  0.6313
 9418WAT      O39476  -0.515   9.518   7.817 -0.3504 -0.7729  0.0834
 9418WAT     H139477  -0.458   9.590   7.846 -0.8532 -1.3384  2.6745
 9418WAT     H239478  -0.546   9.546   7.731  1.7350  0.7606 -0.2427
 9418WAT    EPW39479  -0.512   9.532   7.809 -0.1417 -0.6452  0.3822
 9419WAT      O39480   1.223   4.234   6.270 -0.4718 -0.1804 -0.0911
 9419WAT     H139481   1.303   4.189   6.242 -0.5812  0.2734 -1.1574
 9419WAT     H239482   1.252   4.292   6.340  0.3363  0.7170 -1.1280
 9419WAT    EPW39483   1.238   4.236   6.275 -0.3796 -0.0024 -0.3686
 9420WAT      O39484   8.490   3.683   1.198 -0.7517  0.2584 -0.3828
 9420WAT     H139485   8.560   3.747   1.189 -0.2952 -0.0115  1.0851
 9420WAT     H239486   8.412   3.728   1.164  0.2660  0.1896 -3.0781
 9420WAT    EPW39487   8.489   3.697   1.192 -0.5574  0.2139 -0.5447
 9421WAT      O39488   3.613   4.497   2.707  0.2324 -0.5186  0.0059
 9421WAT     H139489   3.584   4.406   2.719  0.2515 -0.6350 -0.7768
 9421WAT     H239490   3.701   4.489   2.670  0.6402 -0.1692  0.8617
 9421WAT    EPW39491   3.621   4.484   2.704  0.2887 -0.4878  0.0156
 9422WAT      O39492   1.063   6.098   1.005  0.4469 -0.1972  0.1140
 9422WAT     H139493   1.084   6.034   1.072 -0.2791 -0.4511  0.1116
 9422WAT     H239494   1.037   6.046   0.929  0.1812  0.0915  0.0033
 9422WAT    EPW39495   1.062   6.083   1.003  0.3161 -0.1924  0.0991
 9423WAT      O39496   1.817   6.930   1.789 -1.0458  0.0329  0.0516
 9423WAT     H139497   1.815   6.914   1.695  0.5987 -1.1000  0.1709
 9423WAT     H239498   1.740   6.883   1.823 -0.8815 -0.6968 -0.5673
 9423WAT    EPW39499   1.806   6.922   1.781 -0.8073 -0.2129 -0.0142
 9424WAT      O39500  -5.423   7.950   7.615  0.7235  0.2536  0.0188
 9424WAT     H139501  -5.436   7.933   7.708  1.0277  1.0499  0.2112
 9424WAT     H239502  -5.338   7.911   7.595  0.2050 -0.8107 -0.1665
 9424WAT    EPW39503  -5.413   7.943   7.624  0.6952  0.2184  0.0198
 9425WAT      O39504  -3.541  10.343   1.824 -1.3306  0.1264 -0.3770
 9425WAT     H139505  -3.509  10.433   1.818 -1.3991  0.1596 -0.2515
 9425WAT     H239506  -3.552  10.328   1.918 -1.0591 -0.1058 -0.3819
 9425WAT    EPW39507  -3.538  10.353   1.836 -1.3038  0.1002 -0.3610
 9426WAT      O39508   3.801   8.613   2.667  0.1987 -0.1993 -0.1109
 9426WAT     H139509   3.892   8.584   2.664  0.1483 -0.2864 -1.1219
 9426WAT     H239510   3.752   8.543   2.624 -0.6106 -1.0214  1.9966
 9426WAT    EPW39511   3.806   8.600   2.661  0.0854 -0.3190  0.0337
 9427WAT      O39512   5.662   1.616   2.009 -0.2985  1.5394  0.2743
 9427WAT     H139513   5.747   1.596   2.048  0.0991  1.5478 -0.5642
 9427WAT     H239514   5.601   1.556   2.052  0.4277  0.3136 -0.3502
 9427WAT    EPW39515   5.665   1.606   2.020 -0.1504  1.3789  0.0813
 9428WAT      O39516  -3.790   8.272   1.602 -0.2319  0.6173 -0.4250
 9428WAT     H139517  -3.776   8.355   1.648  0.7200  0.2512 -0.0386
 9428WAT     H239518  -3.822   8.212   1.669  1.8743 -0.1266 -0.0202
 9428WAT    EPW39519  -3.793   8.275   1.617  0.1714  0.4706 -0.3206
 9429WAT      O39520   0.928   3.509   5.147  1.0830  0.1702  0.2172
 9429WAT     H139521   1.000   3.446   5.154  1.0785  0.2762  1.2447
 9429WAT     H239522   0.931   3.559   5.228 -0.3669 -0.0475  0.4305
 9429WAT    EPW39523   0.938   3.507   5.158  0.8912  0.1556  0.3808
 9430WAT      O39524   1.566   6.898   8.364  0.5874  0.5931  1.2445
 9430WAT     H139525   1.578   6.925   8.273 -0.9637 -0.4543  0.6877
 9430WAT     H239526   1.482   6.852   8.364  2.3069 -2.9113  2.3653
 9430WAT    EPW39527   1.557   6.896   8.352  0.6096 -0.0072  1.3194
 9431WAT      O39528  -1.766   3.445   4.471 -0.2826 -0.0220 -0.6524
 9431WAT     H139529  -1.770   3.349   4.469 -1.0266  0.0108 -0.8256
 9431WAT     H239530  -1.855   3.472   4.491 -0.0368  0.6365 -0.4436
 9431WAT    EPW39531  -1.778   3.436   4.473 -0.3483  0.0691 -0.6478
 9432WAT      O39532   4.102   8.087   2.581  0.1836  0.2398  0.0720
 9432WAT     H139533   4.132   7.997   2.593  0.7711  0.6685  2.3132
 9432WAT     H239534   4.179   8.133   2.546  0.8751  0.4527  1.7816
 9432WAT    EPW39535   4.116   8.081   2.578  0.3524  0.3247  0.5931
 9433WAT      O39536   2.558   8.416   2.662 -0.5241  0.1388 -0.3417
 9433WAT     H139537   2.568   8.501   2.705  0.4503 -0.6779  1.1387
 9433WAT     H239538   2.510   8.362   2.725  2.8896 -1.7868  0.9169
 9433WAT    EPW39539   2.553   8.420   2.676  0.0547 -0.2227  0.0196
 9434WAT      O39540   1.422   7.632   2.295  0.2222 -0.9276 -0.1539
 9434WAT     H139541   1.339   7.595   2.324 -0.7639  1.0420 -0.3541
 9434WAT     H239542   1.445   7.695   2.363  1.7469 -1.6442  0.0481
 9434WAT    EPW39543   1.414   7.635   2.308  0.2933 -0.7622 -0.1538
 9435WAT      O39544  -5.269   5.506   8.193  0.6530  0.1633  0.4618
 9435WAT     H139545  -5.198   5.569   8.204  0.4789  0.5226 -0.3628
 9435WAT     H239546  -5.258   5.444   8.265  0.1593  1.7514  1.9611
 9435WAT    EPW39547  -5.259   5.506   8.204  0.5651  0.4203  0.5512
 9436WAT      O39548  -3.980   6.597   5.160  0.3284 -0.0368 -0.0476
 9436WAT     H139549  -3.911   6.657   5.133  1.1030 -0.7826  0.2196
 9436WAT     H239550  -4.038   6.592   5.084  0.9018  0.1248 -0.5032
 9436WAT    EPW39551  -3.978   6.604   5.146  0.5063 -0.1137 -0.0725
 9437WAT      O39552   0.541   1.557   4.874 -0.0385 -0.3137  0.0595
 9437WAT     H139553   0.548   1.513   4.959  2.3599 -0.3235 -0.0667
 9437WAT     H239554   0.569   1.647   4.891  1.7970 -0.6465 -0.8952
 9437WAT    EPW39555   0.546   1.563   4.887  0.5199 -0.3589 -0.0832
 9438WAT      O39556   0.995   5.597   1.711 -0.7184 -0.1177  0.7167
 9438WAT     H139557   1.008   5.522   1.654 -4.8412  0.7711 -1.8264
 9438WAT     H239558   0.953   5.561   1.789  1.0716 -0.8397  1.3918
 9438WAT    EPW39559   0.991   5.583   1.714 -1.0261 -0.0958  0.4703
 9439WAT      O39560   3.718   9.077   0.146 -0.2188  0.2063 -0.3515
 9439WAT     H139561   3.780   9.119   0.086  0.6711 -1.0750 -0.3576
 9439WAT     H239562   3.764   9.073   0.229 -0.2683 -0.7862 -0.3630
 9439WAT    EPW39563   3.733   9.082   0.149 -0.1079 -0.0935 -0.3538
 9440WAT      O39564   6.085   7.155   3.160  1.3479 -0.3146 -0.6016
 9440WAT     H139565   6.058   7.231   3.212  1.3807  0.6008 -1.8847
 9440WAT     H239566   6.180   7.164   3.153  1.5787 -1.4313  0.6637
 9440WAT    EPW39567   6.094   7.166   3.166  1.3828 -0.3409 -0.6039
 9441WAT      O39568  -3.987  10.375   4.719 -0.2174 -0.2851 -0.0263
 9441WAT     H139569  -3.926  10.426   4.665 -2.2710 -0.1925 -2.4281
 9441WAT     H239570  -3.970  10.284   4.696 -0.0293 -0.3604  0.3973
 9441WAT    EPW39571  -3.976  10.370   4.709 -0.4635 -0.2828 -0.2873
 9442WAT      O39572  -4.510   5.578   6.866 -0.1877  0.2620 -0.3254
 9442WAT     H139573  -4.536   5.583   6.958  1.3765 -1.4944  0.2567
 9442WAT     H239574  -4.419   5.608   6.865  0.4039 -1.4240 -0.9631
 9442WAT    EPW39575  -4.502   5.583   6.878  0.0963 -0.1919 -0.3326
 9443WAT      O39576   3.305   7.317   0.573  0.6869  0.3644  0.0965
 9443WAT     H139577   3.373   7.250   0.576  0.9910  0.6377 -0.4815
 9443WAT     H239578   3.245   7.288   0.503 -1.0149 -0.9955  1.9911
 9443WAT    EPW39579   3.306   7.305   0.564  0.5025  0.2213  0.2701
 9444WAT      O39580   5.623   8.720   2.260 -0.2221 -0.8339 -0.2713
 9444WAT     H139581   5.567   8.672   2.321 -0.7075  0.7482  0.5853
 9444WAT     H239582   5.579   8.712   2.175 -1.3616 -0.2700  0.2441
 9444WAT    EPW39583   5.610   8.713   2.257 -0.4365 -0.5507 -0.0905
 9445WAT      O39584   7.370   9.435   0.309 -0.0372  0.2948 -0.2543
 9445WAT     H139585   7.395   9.500   0.374 -2.2321  1.4094 -0.4150
 9445WAT     H239586   7.389   9.351   0.351  0.9162  1.0007  0.7928
 9445WAT    EPW39587   7.376   9.432   0.323 -0.2007  0.5345 -0.1373
 9446WAT      O39588   5.347   6.261   0.117  0.5039  0.7479  0.4805
 9446WAT     H139589   5.431   6.220   0.097  0.2836 -0.0015  1.0733
 9446WAT     H239590   5.364   6.355   0.108  1.5714  0.6352  1.2245
 9446WAT    EPW39591   5.360   6.268   0.113  0.6158  0.6340  0.6569
 9447WAT      O39592   0.671   3.819   4.842 -0.1308  0.5725 -0.7079
 9447WAT     H139593   0.587   3.790   4.806  0.7550 -1.1520 -1.5326
 9447WAT     H239594   0.672   3.783   4.931 -0.2052  0.4644 -0.7499
 9447WAT    EPW39595   0.660   3.811   4.849 -0.0238  0.3307 -0.8221
 9448WAT      O39596   5.193  10.255   1.386 -0.3261  0.3010  0.2313
 9448WAT     H139597   5.225  10.296   1.306  2.2387 -0.7897  0.6063
 9448WAT     H239598   5.099  10.271   1.385 -0.6628 -0.8033 -3.6854
 9448WAT    EPW39599   5.185  10.262   1.375 -0.0322  0.0110 -0.2358
 9449WAT      O39600   3.466   9.883   1.827 -0.2048  0.3470  0.7234
 9449WAT     H139601   3.545   9.928   1.856 -0.2490  0.8377  0.0992
 9449WAT     H239602   3.436   9.834   1.904  2.7374 -2.8710  0.1014
 9449WAT    EPW39603   3.473   9.882   1.841  0.1773 -0.0129  0.5591
 9450WAT      O39604   3.946   8.163   4.686 -0.0917 -0.3664 -0.1796
 9450WAT     H139605   3.987   8.248   4.675  0.0734 -0.3989  0.2093
 9450WAT     H239606   3.988   8.107   4.620  1.1698 -0.6524  0.8349
 9450WAT    EPW39607   3.957   8.167   4.676  0.0964 -0.4082  0.0055
 9451WAT      O39608  -0.425   0.767   7.486 -0.5624 -0.0308 -0.1212
 9451WAT     H139609  -0.512   0.759   7.524  0.0280  1.6843  1.7869
 9451WAT     H239610  -0.392   0.678   7.480 -2.4784 -0.7219 -1.0459
 9451WAT    EPW39611  -0.432   0.754   7.490 -0.7373  0.1042  0.0083
 9452WAT      O39612  -7.104   5.687   8.834  0.2179 -0.7391  0.6748
 9452WAT     H139613  -7.113   5.756   8.899  0.1334  0.9667 -1.0529
 9452WAT     H239614  -7.087   5.608   8.885  0.8543  0.6330  2.7192
 9452WAT    EPW39615  -7.103   5.686   8.849  0.2906 -0.3331  0.7167
 9453WAT      O39616   0.410   7.029   3.667 -0.1767  0.5908  0.1352
 9453WAT     H139617   0.319   7.029   3.696  0.0727  0.5737  0.9439
 9453WAT     H239618   0.409   7.075   3.583 -0.8378  1.1690  0.4549
 9453WAT    EPW39619   0.398   7.035   3.659 -0.2310  0.6647  0.2840
 9454WAT      O39620   3.808   7.817   5.540 -0.7547 -0.4939  0.4239
 9454WAT     H139621   3.725   7.786   5.577  0.6498 -2.3405  2.2697
 9454WAT     H239622   3.830   7.752   5.474  0.8853 -2.1330  2.4410
 9454WAT    EPW39623   3.800   7.804   5.536 -0.3532 -0.9537  0.9334
 9455WAT      O39624   2.092   7.456   3.307 -0.6930 -0.3745 -0.6448
 9455WAT     H139625   2.040   7.493   3.378 -0.6741  0.5527 -1.0845
 9455WAT     H239626   2.027   7.425   3.244 -0.7097 -1.0470 -0.2974
 9455WAT    EPW39627   2.076   7.457   3.308 -0.6927 -0.3412 -0.6571
 9456WAT      O39628  -1.894   6.223   3.613 -0.3750 -0.0934 -0.2302
 9456WAT     H139629  -1.889   6.300   3.556 -1.0136 -0.1164 -0.3205
 9456WAT     H239630  -1.902   6.149   3.552  2.0085 -0.4363 -0.2299
 9456WAT    EPW39631  -1.894   6.223   3.597 -0.1448 -0.1416 -0.2422
 9457WAT      O39632  -0.565   7.434   6.648  0.0331  0.2107  0.2680
 9457WAT     H139633  -0.609   7.495   6.707 -1.1438 -0.8024  0.4928
 9457WAT     H239634  -0.527   7.367   6.705  0.0442 -0.0566 -0.0465
 9457WAT    EPW39635  -0.566   7.433   6.663 -0.1207  0.0420  0.2563
 9458WAT      O39636   7.949   2.096   3.099  0.2969  0.9035 -0.0133
 9458WAT     H139637   8.005   2.136   3.166 -0.3792  1.0043  0.5043
 9458WAT     H239638   7.860   2.116   3.128 -0.0626 -0.6680  0.0723
 9458WAT    EPW39639   7.945   2.104   3.112  0.1605  0.7095  0.0662
 9459WAT      O39640  -3.351   9.448   5.356  0.2643  0.4010 -0.4679
 9459WAT     H139641  -3.445   9.436   5.355  0.2842 -0.0011  0.9342
 9459WAT     H239642  -3.317   9.373   5.404  1.1538  1.3483  0.4346
 9459WAT    EPW39643  -3.359   9.437   5.362  0.3843  0.4730 -0.1640
 9460WAT      O39644  -5.094   8.564   8.521  0.0006  0.0378  0.0024
 9460WAT     H139645  -5.096   8.571   8.425  0.7580 -2.0783 -0.2252
 9460WAT     H239646  -5.172   8.611   8.550 -2.4377 -2.4358 -1.9329
 9460WAT    EPW39647  -5.104   8.571   8.512 -0.2213 -0.5674 -0.2828
 9461WAT      O39648   1.476   4.423   6.567 -0.0792 -0.2947 -0.2286
 9461WAT     H139649   1.523   4.484   6.624 -1.6528  0.3965  0.3705
 9461WAT     H239650   1.523   4.427   6.484  0.0241  1.5367 -0.1257
 9461WAT    EPW39651   1.488   4.431   6.563 -0.2732  0.0379 -0.1361
 9462WAT      O39652   2.586   9.261   2.836 -0.0678 -0.4243 -0.1632
 9462WAT     H139653   2.548   9.306   2.911  0.6118 -0.0638 -0.0274
 9462WAT     H239654   2.670   9.305   2.821  0.4189 -1.3555 -0.3012
 9462WAT    EPW39655   2.592   9.272   2.844  0.0859 -0.4997 -0.1634
 9463WAT      O39656  -2.454   9.301   7.302 -0.3595  0.1279  0.8974
 9463WAT     H139657  -2.384   9.363   7.282 -0.6158  0.1707  0.0964
 9463WAT     H239658  -2.426   9.220   7.261 -0.3735 -0.0973  1.3229
 9463WAT    EPW39659  -2.441   9.299   7.294 -0.3951  0.1040  0.8481
 9464WAT      O39660  -5.319  10.062   5.448  0.3329 -0.3978  0.5845
 9464WAT     H139661  -5.336  10.063   5.354 -0.5796  0.8245  0.7452
 9464WAT     H239662  -5.328   9.970   5.473  1.2234 -0.8375 -0.6113
 9464WAT    EPW39663  -5.322  10.050   5.439  0.3302 -0.2947  0.4480
 9465WAT      O39664   6.703   8.755   1.599 -0.6219  0.8621  0.4272
 9465WAT     H139665   6.725   8.835   1.552 -1.4396  1.3122  0.8070
 9465WAT     H239666   6.788   8.723   1.631 -0.3645  1.9390  0.8627
 9465WAT    EPW39667   6.717   8.761   1.597 -0.6959  1.0638  0.5348
 9466WAT      O39668   5.372   1.799   5.303 -0.1621 -0.0358  0.2063
 9466WAT     H139669   5.355   1.894   5.300 -0.1638  0.0776  2.2950
 9466WAT     H239670   5.314   1.762   5.237  0.1001  1.4402 -0.9039
 9466WAT    EPW39671   5.362   1.807   5.294 -0.1278  0.1739  0.3357
 9467WAT      O39672   5.186   2.903   7.754  0.3103 -0.6054 -0.1862
 9467WAT     H139673   5.203   2.882   7.846  2.2950  0.8250 -0.1607
 9467WAT     H239674   5.248   2.847   7.706  0.7501  0.1393 -0.5018
 9467WAT    EPW39675   5.197   2.893   7.760  0.6301 -0.3185 -0.2246
 9468WAT      O39676  -0.828   2.697   5.106  0.7199  0.1175  0.1170
 9468WAT     H139677  -0.773   2.774   5.118  0.9402  0.5269 -2.7293
 9468WAT     H239678  -0.771   2.632   5.065 -0.2619 -0.3572 -0.5610
 9468WAT    EPW39679  -0.813   2.698   5.102  0.6195  0.1090 -0.3479
 9469WAT      O39680   0.586   9.576   8.675 -0.0282 -0.0434  0.6166
 9469WAT     H139681   0.608   9.498   8.726  3.5403  0.9777  0.9508
 9469WAT     H239682   0.534   9.543   8.602  1.0054 -2.7098  0.9537
 9469WAT    EPW39683   0.582   9.561   8.672  0.5788 -0.2604  0.7048
 9470WAT      O39684   5.939   1.010   1.800 -0.0204  1.1780 -0.5050
 9470WAT     H139685   6.001   0.940   1.780 -2.2354 -0.1547 -3.4174
 9470WAT     H239686   5.945   1.070   1.725  0.1144  2.9065  0.8069
 9470WAT    EPW39687   5.948   1.009   1.788 -0.2949  1.2302 -0.7161
 9471WAT      O39688   3.479   2.529   8.642 -0.3381 -0.5507 -0.8338
 9471WAT     H139689   3.406   2.550   8.701  1.2387 -1.2582  1.5389
 9471WAT     H239690   3.516   2.448   8.677  2.0854  0.2247 -1.3955
 9471WAT    EPW39691   3.474   2.521   8.655  0.1895 -0.5418 -0.5946
 9472WAT      O39692   3.901   9.013   4.577 -0.7029  0.6718  0.2792
 9472WAT     H139693   3.969   8.973   4.631 -1.2485  0.1758  0.6200
 9472WAT     H239694   3.947   9.077   4.523  0.6260 -1.9208 -1.8929
 9472WAT    EPW39695   3.916   9.016   4.577 -0.5996  0.2642  0.0377
 9473WAT      O39696  -4.157   8.387   2.476  0.2606 -1.2451  0.0503
 9473WAT     H139697  -4.088   8.324   2.497  0.8802 -0.4547  0.4252
 9473WAT     H239698  -4.151   8.398   2.381  1.0906 -0.6947  0.1590
 9473WAT    EPW39699  -4.147   8.380   2.466  0.4518 -1.0681  0.1141
 9474WAT      O39700  -2.320   8.828   2.120 -0.8133  0.2901 -0.7390
 9474WAT     H139701  -2.390   8.774   2.156  0.9242 -1.0017  0.9093
 9474WAT     H239702  -2.269   8.856   2.196  1.5198 -0.3536 -1.9461
 9474WAT    EPW39703  -2.322   8.825   2.135 -0.2763  0.0353 -0.6808
 9475WAT      O39704  -1.673   6.075   7.408 -1.2812  0.1245  0.4741
 9475WAT     H139705  -1.690   6.158   7.363  1.0932  0.6170  0.3950
 9475WAT     H239706  -1.648   6.015   7.338  1.9153  0.7548  0.9370
 9475WAT    EPW39707  -1.672   6.078   7.393 -0.5464  0.2728  0.5250
 9476WAT      O39708   7.003   0.428   1.958 -0.0435  0.5662  0.2418
 9476WAT     H139709   6.928   0.445   1.900  1.4577  0.5690 -1.8337
 9476WAT     H239710   6.988   0.339   1.990 -0.8905  0.5185 -0.2351
 9476WAT    EPW39711   6.991   0.418   1.954  0.0427  0.5603 -0.0948
 9477WAT      O39712  -1.487   0.598   4.560  0.0628 -0.4607  0.4647
 9477WAT     H139713  -1.483   0.516   4.609  0.7922 -0.9913 -0.4518
 9477WAT     H239714  -1.403   0.602   4.514 -1.3940 -1.0898 -2.4755
 9477WAT    EPW39715  -1.475   0.588   4.561 -0.0331 -0.6137 -0.0441
 9478WAT      O39716   1.547   9.023   7.635 -0.7002  0.1158  0.0762
 9478WAT     H139717   1.527   9.018   7.728  0.1636  0.7348  0.3115
 9478WAT     H239718   1.592   9.107   7.624 -1.9502  0.6668 -1.1339
 9478WAT    EPW39719   1.551   9.033   7.646 -0.7512  0.2699 -0.0525
 9479WAT      O39720   7.672   0.215   4.842 -0.4934  0.2572 -0.4278
 9479WAT     H139721   7.625   0.194   4.923  0.6506 -1.8588 -0.2652
 9479WAT     H239722   7.760   0.182   4.856  0.3512  1.7890 -1.7551
 9479WAT    EPW39723   7.677   0.208   4.855 -0.2310  0.1801 -0.5815
 9480WAT      O39724   7.252   1.926   1.082 -0.0373 -0.3990  0.5109
 9480WAT     H139725   7.174   1.876   1.107  0.2366 -1.5995 -0.9230
 9480WAT     H239726   7.259   1.993   1.150 -2.4139 -0.1354  0.5960
 9480WAT    EPW39727   7.243   1.928   1.095 -0.3147 -0.5226  0.3330
 9481WAT      O39728  -0.869   4.591   8.184 -1.2719 -0.2265 -0.7281
 9481WAT     H139729  -0.912   4.538   8.251  0.5678 -1.0097 -0.0946
 9481WAT     H239730  -0.815   4.528   8.135 -0.7706  0.7126 -1.4234
 9481WAT    EPW39731  -0.868   4.575   8.186 -0.9631 -0.2060 -0.7362
 9482WAT      O39732   1.836   7.664   3.174 -0.4334  0.2336  0.3872
 9482WAT     H139733   1.925   7.694   3.159 -0.4627  1.3364  2.1186
 9482WAT     H239734   1.811   7.703   3.258 -2.3313 -0.5423  0.2459
 9482WAT    EPW39735   1.844   7.673   3.183 -0.6877  0.2768  0.5969
 9483WAT      O39736   3.732   0.880   8.887  0.6254 -0.3390  0.0820
 9483WAT     H139737   3.804   0.933   8.852 -0.2093  0.0805 -1.0790
 9483WAT     H239738   3.670   0.943   8.922  0.3486 -0.6346  0.1287
 9483WAT    EPW39739   3.733   0.895   8.887  0.4789 -0.3227 -0.0648
 9484WAT      O39740   0.693   1.071   7.923 -0.4705  0.3181 -0.0685
 9484WAT     H139741   0.744   1.000   7.962 -1.2739 -1.1021 -1.4937
 9484WAT     H239742   0.755   1.117   7.867 -0.2477 -0.0606 -0.1367
 9484WAT    EPW39743   0.708   1.068   7.921 -0.5471  0.0808 -0.2656
 9485WAT      O39744  -4.853   8.167   6.464 -0.5183 -0.0605 -1.1494
 9485WAT     H139745  -4.935   8.202   6.430  0.2866  1.5576 -1.5143
 9485WAT     H239746  -4.856   8.074   6.442 -1.7332  0.1967 -2.1891
 9485WAT    EPW39747  -4.864   8.159   6.457 -0.5722  0.1869 -1.3347
 9486WAT      O39748   2.545   6.778   0.588  0.5304  0.1801  0.2388
 9486WAT     H139749   2.602   6.723   0.641 -0.2317  0.6625  1.6060
 9486WAT     H239750   2.588   6.863   0.587  0.8164  0.0334 -0.3890
 9486WAT    EPW39751   2.558   6.782   0.595  0.4677  0.2244  0.3363
 9487WAT      O39752  10.011   1.065   0.782  0.3850  0.0354  0.2811
 9487WAT     H139753   9.952   0.993   0.760 -0.7034  0.6117  1.2548
 9487WAT     H239754  10.080   1.023   0.835 -0.7945 -0.1530  1.7314
 9487WAT    EPW39755  10.013   1.050   0.786  0.0854  0.0865  0.6008
 9488WAT      O39756  -2.640   4.107   5.587 -0.1147  0.0986 -0.6503
 9488WAT     H139757  -2.603   4.047   5.522  0.1240 -2.0816  1.3737
 9488WAT     H239758  -2.706   4.055   5.632 -2.4079  2.4733 -1.0534
 9488WAT    EPW39759  -2.644   4.092   5.585 -0.3856  0.1242 -0.4365
 9489WAT      O39760   2.904   2.943   4.459  0.7700  0.8244  0.2380
 9489WAT     H139761   2.873   3.021   4.413 -1.8658 -0.8055 -0.9899
 9489WAT     H239762   2.991   2.926   4.422  0.3151  1.7561 -1.3431
 9489WAT    EPW39763   2.912   2.951   4.448  0.3624  0.7323 -0.1326
 9490WAT      O39764  -0.931   5.769   7.608  0.5371 -0.2197  0.1099
 9490WAT     H139765  -1.019   5.791   7.577  0.0144  0.1046  1.7336
 9490WAT     H239766  -0.888   5.730   7.532 -0.1615  1.8759 -1.4494
 9490WAT    EPW39767  -0.937   5.767   7.594  0.3760  0.0994  0.1185
 9491WAT      O39768   4.167   6.189   1.048  0.0221  0.5629  0.0433
 9491WAT     H139769   4.140   6.251   0.981  0.7973  1.1458  0.2624
 9491WAT     H239770   4.087   6.141   1.070 -0.2182  0.2236 -1.4229
 9491WAT    EPW39771   4.153   6.191   1.042  0.0927  0.5951 -0.1212
 9492WAT      O39772  -0.188   9.658   1.363  0.3239 -0.2784 -0.1878
 9492WAT     H139773  -0.196   9.602   1.441 -0.4315 -0.1277 -0.1544
 9492WAT     H239774  -0.150   9.600   1.297  2.2860 -0.0563  0.6449
 9492WAT    EPW39775  -0.184   9.643   1.365  0.4830 -0.2294 -0.0736
 9493WAT      O39776   3.123   0.145   3.314 -0.7997 -0.5878  0.8508
 9493WAT     H139777   3.153   0.153   3.223 -1.4106  1.3317  0.7782
 9493WAT     H239778   3.180   0.203   3.364 -0.7689 -1.2696  1.6223
 9493WAT    EPW39779   3.134   0.154   3.308 -0.8762 -0.4246  0.9431
 9494WAT      O39780   2.309   5.127   8.810  0.0570 -0.6197 -0.3543
 9494WAT     H139781   2.372   5.193   8.840 -1.2241  1.0500 -1.1467
 9494WAT     H239782   2.292   5.073   8.887  0.6678  0.3961  0.5239
 9494WAT    EPW39783   2.315   5.129   8.824 -0.0315 -0.2654 -0.3428
 9495WAT      O39784   6.546   2.612   3.522  0.0298  0.4880 -0.3545
 9495WAT     H139785   6.562   2.646   3.611  0.8931  1.6012 -0.9086
 9495WAT     H239786   6.631   2.581   3.492 -0.0620  0.9654 -1.1356
 9495WAT    EPW39787   6.559   2.613   3.530  0.1316  0.6979 -0.5306
 9496WAT      O39788  -3.375  10.174   7.560  0.1909 -0.3458  0.8493
 9496WAT     H139789  -3.367  10.262   7.523 -0.3141  0.3404  2.2849
 9496WAT     H239790  -3.401  10.189   7.651  2.5945 -1.9089  1.8777
 9496WAT    EPW39791  -3.377  10.188   7.567  0.4413 -0.4616  1.1742
 9497WAT      O39792   2.152   4.195   5.174 -0.3264  0.3421  0.1488
 9497WAT     H139793   2.117   4.219   5.260 -1.8083  1.8741 -0.8356
 9497WAT     H239794   2.103   4.117   5.149 -0.6486  0.5208  0.2256
 9497WAT    EPW39795   2.141   4.187   5.182 -0.5643  0.5677  0.0291
 9498WAT      O39796  -2.014   7.047   2.903  0.2406 -0.3294  0.1935
 9498WAT     H139797  -2.097   7.066   2.945 -0.3024 -1.3277 -0.3898
 9498WAT     H239798  -2.034   6.979   2.839  0.6809  2.2652 -2.9483
 9498WAT    EPW39799  -2.027   7.040   2.900  0.2271 -0.1187 -0.2978
 9499WAT      O39800  -1.812   1.341   4.552  0.6296  0.0531  0.2737
 9499WAT     H139801  -1.815   1.347   4.648  0.9179  2.8312  0.1675
 9499WAT     H239802  -1.725   1.372   4.528  0.5771 -0.6621 -0.9114
 9499WAT    EPW39803  -1.801   1.346   4.561  0.6607  0.3251  0.1035
 9500WAT      O39804  -4.808   9.978   7.518 -0.6608  0.1658 -0.4785
 9500WAT     H139805  -4.900  10.004   7.526 -0.5415  0.3679  0.4204
 9500WAT     H239806  -4.769  10.046   7.463 -1.2610 -0.5076 -1.7775
 9500WAT    EPW39807  -4.815   9.991   7.512 -0.7241  0.1040 -0.5312
 9501WAT      O39808  -4.138   9.860   1.949 -0.0702  1.1089 -0.3206
 9501WAT     H139809  -4.141   9.765   1.941 -0.5779  1.2445 -2.4680
 9501WAT     H239810  -4.067   9.886   1.891 -0.7255  2.0895 -0.7154
 9501WAT    EPW39811  -4.129   9.851   1.940 -0.2236  1.2560 -0.6560
 9502WAT      O39812   9.689   0.641   0.740  0.5375 -0.3706 -0.2019
 9502WAT     H139813   9.743   0.590   0.801  2.7271  1.0516 -0.8423
 9502WAT     H239814   9.722   0.730   0.747 -0.9307  0.3280 -1.5637
 9502WAT    EPW39815   9.700   0.646   0.749  0.6328 -0.0909 -0.4660
 9503WAT      O39816  -2.594   7.748   6.559  0.0291 -0.2918 -0.6137
 9503WAT     H139817  -2.635   7.666   6.586 -1.2387  0.1121 -1.2430
 9503WAT     H239818  -2.504   7.724   6.537 -0.1642 -1.3986 -0.2385
 9503WAT    EPW39819  -2.588   7.734   6.560 -0.1637 -0.3843 -0.6473
 9504WAT      O39820   4.488   8.380   5.191  0.0041 -0.0369  0.0046
 9504WAT     H139821   4.524   8.333   5.115 -0.3164  2.0805 -1.5673
 9504WAT     H239822   4.436   8.315   5.238  1.8504 -1.9209 -0.4398
 9504WAT    EPW39823   4.486   8.365   5.187  0.2053 -0.0057 -0.2611
 9505WAT      O39824   2.894   3.748   0.641  0.4707  0.4388 -0.7229
 9505WAT     H139825   2.896   3.770   0.734  0.8589 -1.2283 -0.3093
 9505WAT     H239826   2.970   3.691   0.628 -0.0049  0.0446 -1.9134
 9505WAT    EPW39827   2.905   3.743   0.651  0.4591  0.1669 -0.8253
 9506WAT      O39828   4.938   5.009   1.381 -0.1491  0.4305  0.3886
 9506WAT     H139829   4.884   5.031   1.305  2.7084  2.6954 -1.2153
 9506WAT     H239830   4.939   4.913   1.383 -3.1594  0.2852 -0.1396
 9506WAT    EPW39831   4.931   4.999   1.371 -0.1693  0.7100  0.1073
 9507WAT      O39832  -0.628   0.516   2.904 -0.1730  0.1039  0.5626
 9507WAT     H139833  -0.620   0.588   2.841 -0.7614  0.2388  0.6420
 9507WAT     H239834  -0.585   0.548   2.983 -2.3125  1.2444  1.3424
 9507WAT    EPW39835  -0.621   0.529   2.906 -0.5328  0.2721  0.6759
 9508WAT      O39836   4.765   4.839   6.796 -0.1270 -0.0068 -0.1234
 9508WAT     H139837   4.756   4.904   6.726  4.2121  1.2917  0.1981
 9508WAT     H239838   4.856   4.848   6.824 -0.6030 -3.1873  3.0817
 9508WAT    EPW39839   4.776   4.849   6.790  0.3824 -0.2551  0.3419
 9509WAT      O39840  -2.020   5.523   4.698 -0.2200  0.3995  0.2886
 9509WAT     H139841  -2.098   5.576   4.713 -0.1361  0.5608  0.1534
 9509WAT     H239842  -2.029   5.450   4.759  0.0642  0.9862  1.0417
 9509WAT    EPW39843  -2.031   5.520   4.708 -0.1714  0.4983  0.3703
 9510WAT      O39844  -4.806   5.023   5.168 -0.3129 -0.2532  0.2801
 9510WAT     H139845  -4.768   5.065   5.090 -2.5437  0.0651 -0.7041
 9510WAT     H239846  -4.798   4.929   5.150  0.4640 -0.2075  0.3452
 9510WAT    EPW39847  -4.800   5.016   5.155 -0.5047 -0.2050  0.1588
 9511WAT      O39848   5.426   9.967   1.637 -0.6705  0.3139  0.5601
 9511WAT     H139849   5.348  10.022   1.643 -0.7695  0.1365  0.8923
 9511WAT     H239850   5.393   9.877   1.641 -0.6359  0.1771 -1.2474
 9511WAT    EPW39851   5.411   9.962   1.638 -0.6788  0.2723  0.3656
 9512WAT      O39852   1.006   7.108   2.369 -0.4094  0.7125  0.1232
 9512WAT     H139853   0.957   7.061   2.437 -1.2174  0.4184 -0.6379
 9512WAT     H239854   0.939   7.156   2.320  0.3818  2.5144  0.7492
 9512WAT    EPW39855   0.991   7.108   2.371 -0.4116  0.9112  0.1054
 9513WAT      O39856   2.834   2.588   4.773 -0.4732  0.3020  0.3924
 9513WAT     H139857   2.814   2.677   4.802 -0.8389 -0.0318  1.1813
 9513WAT     H239858   2.767   2.569   4.707 -0.3004  0.6586  0.1072
 9513WAT    EPW39859   2.823   2.597   4.768 -0.4987  0.3051  0.4587
 9514WAT      O39860  -5.729   6.065   7.155  0.2879  0.8588  0.3717
 9514WAT     H139861  -5.634   6.068   7.168  0.2479  0.8087  0.6824
 9514WAT     H239862  -5.758   6.153   7.177  0.2949  0.9593 -0.0070
 9514WAT    EPW39863  -5.720   6.077   7.160  0.2837  0.8655  0.3626
 9515WAT      O39864  -0.978   8.087   1.479  0.0679  0.3268  0.2022
 9515WAT     H139865  -1.016   8.164   1.438 -0.0591  1.1477  1.7668
 9515WAT     H239866  -0.950   8.118   1.565 -0.0776 -1.3939  0.9037
 9515WAT    EPW39867  -0.979   8.101   1.485  0.0319  0.2079  0.5011
 9516WAT      O39868  -0.996   2.508   1.361 -0.2177 -0.0173  0.0549
 9516WAT     H139869  -0.982   2.579   1.299 -1.2419 -0.1751 -0.3673
 9516WAT     H239870  -1.011   2.431   1.307 -0.0276 -0.3792  0.5098
 9516WAT    EPW39871  -0.996   2.507   1.346 -0.3278 -0.0858  0.0592
 9517WAT      O39872  -0.939   1.653   3.918 -0.0518  0.4461  0.5473
 9517WAT     H139873  -1.025   1.664   3.959 -0.0861  1.4222  0.2594
 9517WAT     H239874  -0.899   1.580   3.964 -0.7782  0.4062  1.1333
 9517WAT    EPW39875  -0.945   1.645   3.929 -0.1521  0.5696  0.5866
 9518WAT      O39876  -1.480   5.831   4.595 -0.6111 -0.1631  0.4123
 9518WAT     H139877  -1.508   5.888   4.524 -1.5834 -1.9990 -0.7501
 9518WAT     H239878  -1.554   5.771   4.608  2.1003 -4.6129 -2.0830
 9518WAT    EPW39879  -1.493   5.831   4.588 -0.3818 -0.9921 -0.0701
 9519WAT      O39880   1.390   3.585   6.379  0.5132 -0.5701 -0.0035
 9519WAT     H139881   1.313   3.586   6.436 -0.9060  0.9617 -1.7708
 9519WAT     H239882   1.408   3.678   6.363  1.5604 -0.9373 -1.0904
 9519WAT    EPW39883   1.382   3.598   6.384  0.4641 -0.4165 -0.3800
 9520WAT      O39884  -0.024   4.829   0.833 -0.3856  0.1372  0.4762
 9520WAT     H139885  -0.096   4.806   0.774 -0.7199 -2.0535  1.6244
 9520WAT     H239886   0.023   4.747   0.847  1.3912  1.1905  1.0439
 9520WAT    EPW39887  -0.027   4.815   0.827 -0.1954 -0.0129  0.7025
 9521WAT      O39888   6.603   5.157   1.317 -0.2888 -0.1007  0.5820
 9521WAT     H139889   6.512   5.141   1.342 -0.2316 -0.2499  0.6923
 9521WAT     H239890   6.623   5.087   1.255 -0.5326  0.4520 -0.1393
 9521WAT    EPW39891   6.593   5.145   1.312 -0.3133 -0.0477  0.5015
 9522WAT      O39892   1.125   9.080   0.320  0.0331 -0.0371  0.1518
 9522WAT     H139893   1.210   9.073   0.364  1.3802  0.2240 -2.2721
 9522WAT     H239894   1.142   9.051   0.231 -1.9727  1.9884 -0.9611
 9522WAT    EPW39895   1.138   9.075   0.314 -0.0538  0.2642 -0.3147
 9523WAT      O39896   4.748   2.932   0.471 -0.3499  0.3589  0.1924
 9523WAT     H139897   4.758   2.888   0.555 -1.3076 -1.0377 -0.3766
 9523WAT     H239898   4.671   2.988   0.482 -0.2261  0.4945  0.3686
 9523WAT    EPW39899   4.739   2.934   0.484 -0.4599  0.1925  0.1405
 9524WAT      O39900   1.415   9.877   5.290 -0.2686  0.1276 -0.0634
 9524WAT     H139901   1.341   9.818   5.305  0.6611 -0.7449  1.3171
 9524WAT     H239902   1.474   9.827   5.234  0.5584 -0.3232  1.1721
 9524WAT    EPW39903   1.413   9.863   5.285 -0.0369 -0.0467  0.2818
 9525WAT      O39904  -3.053  10.039   0.791 -0.5581  0.3462  0.3060
 9525WAT     H139905  -3.066   9.947   0.811  2.4488 -0.8794 -2.4123
 9525WAT     H239906  -3.136  10.068   0.753 -1.8918 -0.8726  2.1497
 9525WAT    EPW39907  -3.065  10.031   0.788 -0.3374  0.0238  0.1906
 9526WAT      O39908  -2.542  10.005   8.817  0.3672 -0.1270 -0.3008
 9526WAT     H139909  -2.492   9.926   8.797 -1.2862 -1.1543 -0.5943
 9526WAT     H239910  -2.548  10.052   8.733 -0.6589 -0.9090 -0.6772
 9526WAT    EPW39911  -2.536  10.001   8.803  0.0137 -0.3653 -0.3886
 9527WAT      O39912   0.183   3.481   1.971 -0.4252  0.2641 -1.0062
 9527WAT     H139913   0.175   3.557   2.028 -2.8963 -1.6721  1.4942
 9527WAT     H239914   0.101   3.478   1.922 -2.2431 -2.7614  1.8322
 9527WAT    EPW39915   0.171   3.491   1.972 -0.9909 -0.3903 -0.3020
 9528WAT      O39916   0.056   8.604   4.875 -0.6131  0.1450  0.8813
 9528WAT     H139917   0.006   8.543   4.928  0.2381  0.3648  1.9936
 9528WAT     H239918   0.088   8.669   4.938  0.5235  0.3502  0.1288
 9528WAT    EPW39919   0.054   8.605   4.891 -0.3509  0.2007  0.9289
 9529WAT      O39920   5.484   1.254   3.484  0.0778  0.1454  0.9930
 9529WAT     H139921   5.492   1.319   3.414 -0.6533  0.6083  1.3316
 9529WAT     H239922   5.513   1.300   3.563 -0.6915  0.1425  1.2788
 9529WAT    EPW39923   5.489   1.268   3.485 -0.1202  0.2061  1.0754
 9530WAT      O39924   3.107   5.324   6.434  0.4060 -0.0604  0.1876
 9530WAT     H139925   3.022   5.304   6.472 -0.1240 -0.6782 -1.2428
 9530WAT     H239926   3.153   5.373   6.502 -0.9161 -0.1001  1.1488
 9530WAT    EPW39927   3.102   5.328   6.448  0.1619 -0.1471  0.1256
 9531WAT      O39928  -0.928   7.690   4.058 -0.1983 -0.1534  0.2220
 9531WAT     H139929  -0.982   7.611   4.056 -2.0853  0.9706  1.8391
 9531WAT     H239930  -0.869   7.677   4.132  1.0654 -0.9282 -0.8809
 9531WAT    EPW39931  -0.927   7.678   4.068 -0.2805 -0.1073  0.2897
 9532WAT      O39932   4.328   4.321   6.546 -0.4026  0.1946 -0.3257
 9532WAT     H139933   4.318   4.325   6.451  2.1041  1.1276 -0.6435
 9532WAT     H239934   4.280   4.397   6.579 -1.1703 -0.0590 -0.8309
 9532WAT    EPW39935   4.320   4.331   6.538 -0.1731  0.2842 -0.4344
 9533WAT      O39936  -2.878   7.803   1.949  0.2015  0.3103  0.2683
 9533WAT     H139937  -2.892   7.870   2.016 -1.2237  0.9942 -0.6619
 9533WAT     H239938  -2.932   7.832   1.875  3.0760  0.5815 -1.8983
 9533WAT    EPW39939  -2.887   7.816   1.948  0.3927  0.4361 -0.1401
 9534WAT      O39940   1.400   5.847   1.448  0.5093  0.9496 -0.1870
 9534WAT     H139941   1.342   5.920   1.469  2.5480  2.5005  0.4843
 9534WAT     H239942   1.409   5.851   1.352 -0.8685  0.3355 -0.3593
 9534WAT    EPW39943   1.394   5.857   1.438  0.5965  1.0731 -0.1211
 9535WAT      O39944  -3.736   9.062   6.588  0.5556 -0.1629 -0.1295
 9535WAT     H139945  -3.723   9.087   6.679 -1.2069 -1.7700  0.6229
 9535WAT     H239946  -3.802   8.993   6.591  0.6845 -0.4852 -2.6056
 9535WAT    EPW39947  -3.743   9.056   6.600  0.3401 -0.4172 -0.3569
 9536WAT      O39948   4.544   6.869   3.730  0.3248  0.3533 -0.2474
 9536WAT     H139949   4.546   6.953   3.685  1.3454  2.0029  2.5734
 9536WAT     H239950   4.453   6.840   3.725 -0.4669  2.5789  0.2500
 9536WAT    EPW39951   4.533   6.876   3.723  0.3548  0.8645  0.1901
 9537WAT      O39952  -0.965   6.484   0.486 -0.1095  0.1363  0.3024
 9537WAT     H139953  -0.961   6.542   0.562 -1.6478  1.9170 -0.8696
 9537WAT     H239954  -0.968   6.543   0.411 -0.7005 -1.4961 -1.0237
 9537WAT    EPW39955  -0.965   6.499   0.486 -0.3903  0.1559 -0.0271
 9538WAT      O39956   5.222   8.238   4.613  0.5164  0.4995  0.0038
 9538WAT     H139957   5.312   8.253   4.642  1.8217  0.8488 -3.7710
 9538WAT     H239958   5.176   8.208   4.692  3.8610  0.4114  2.0839
 9538WAT    EPW39959   5.228   8.236   4.627  1.1296  0.5336 -0.2198
 9539WAT      O39960  -2.785   9.361   4.021  0.9392 -0.3119 -0.5159
 9539WAT     H139961  -2.838   9.292   4.061  0.9154  0.5320  0.9630
 9539WAT     H239962  -2.848   9.415   3.973  0.8161 -0.7383 -0.8357
 9539WAT    EPW39963  -2.800   9.359   4.020  0.9198 -0.2570 -0.3629
 9540WAT      O39964  -3.133  10.326   3.807 -0.6776 -0.2207 -0.0822
 9540WAT     H139965  -3.121  10.315   3.713 -4.1317 -0.6172 -0.6062
 9540WAT     H239966  -3.115  10.240   3.844  0.1695 -0.2010 -0.4283
 9540WAT    EPW39967  -3.129  10.313   3.799 -1.0214 -0.2708 -0.1969
 9541WAT      O39968  -3.552   0.653   8.567 -0.0199  0.1943  0.3570
 9541WAT     H139969  -3.529   0.732   8.518 -1.1798  0.8168  0.7717
 9541WAT     H239970  -3.630   0.620   8.523 -0.1534 -0.1298  0.8330
 9541WAT    EPW39971  -3.559   0.659   8.555 -0.1905  0.2336  0.4745
 9542WAT      O39972   1.048   1.833   3.520 -0.3766 -0.0258  0.2066
 9542WAT     H139973   1.139   1.841   3.494 -0.7919  0.4814 -1.1383
 9542WAT     H239974   1.022   1.921   3.546 -0.7660  0.0452 -0.4060
 9542WAT    EPW39975   1.056   1.845   3.520 -0.4827  0.0504 -0.0515
 9543WAT      O39976   1.032   4.410   3.564  0.6100  0.3361  0.2810
 9543WAT     H139977   1.028   4.392   3.658  0.0803 -0.0318  0.1891
 9543WAT     H239978   1.085   4.489   3.557 -1.8832  2.1803  1.1267
 9543WAT    EPW39979   1.039   4.418   3.575  0.2112  0.5310  0.3805
 9544WAT      O39980   5.646   6.476   4.457 -0.3667 -0.1400  0.0399
 9544WAT     H139981   5.686   6.473   4.371  2.0778  0.0866  1.0753
 9544WAT     H239982   5.603   6.561   4.461  0.8046  0.4979 -0.4426
 9544WAT    EPW39983   5.646   6.487   4.447  0.1104 -0.0257  0.1128
 9545WAT      O39984   3.325   3.007   1.532 -0.1667  0.2450  0.2956
 9545WAT     H139985   3.380   2.989   1.609 -1.9186  0.6362  1.7176
 9545WAT     H239986   3.238   2.977   1.559 -0.7057 -0.2343 -1.8278
 9545WAT    EPW39987   3.321   3.001   1.546 -0.4687  0.2333  0.2031
 9546WAT      O39988  -1.081   9.773   6.567 -0.4596  0.2862  0.7117
 9546WAT     H139989  -1.106   9.823   6.645 -1.2112 -1.0044  1.3314
 9546WAT     H239990  -1.098   9.832   6.494 -0.5378  1.2261  1.4637
 9546WAT    EPW39991  -1.086   9.787   6.568 -0.5690  0.2398  0.8926
 9547WAT      O39992  -0.166   9.322   6.356  0.3282  0.0187 -0.2524
 9547WAT     H139993  -0.090   9.379   6.368  0.4657 -0.2581  0.2198
 9547WAT     H239994  -0.137   9.237   6.389 -0.4870  0.1392  0.7867
 9547WAT    EPW39995  -0.152   9.318   6.362  0.2388 -0.0019 -0.0532
 9548WAT      O39996   1.947   8.438   0.757 -0.0873  0.3815  0.4977
 9548WAT     H139997   1.914   8.524   0.730 -2.4873 -0.8898 -0.9794
 9548WAT     H239998   2.011   8.415   0.690  1.2684  1.3430  1.4061
 9548WAT    EPW39999   1.951   8.447   0.745 -0.2250  0.3405  0.4227
 9549WAT      O40000  -1.023   8.729   8.857  0.3102  0.4316  0.9674
 9549WAT     H140001  -0.986   8.644   8.833  3.9608  1.5847  1.9729
 9549WAT     H240002  -1.015   8.733   8.953  1.4038  2.3273  0.8544
 9549WAT    EPW40003  -1.017   8.718   8.867  0.9359  0.8340  1.0853
 9550WAT      O40004  -0.875   7.625   7.596 -0.2138 -0.5105 -0.3691
 9550WAT     H140005  -0.848   7.714   7.571 -0.1127  0.2374  2.0689
 9550WAT     H240006  -0.945   7.603   7.535 -0.6169  1.4806 -0.7155
 9550WAT    EPW40007  -0.880   7.634   7.585 -0.2536 -0.1490 -0.0930
 9551WAT      O40008  -1.620   4.715   4.279 -0.2620  0.5843 -0.0812
 9551WAT     H140009  -1.531   4.727   4.244  0.0663 -1.4055 -0.0448
 9551WAT     H240010  -1.677   4.730   4.204  0.3627 -2.1916 -1.2470
 9551WAT    EPW40011  -1.616   4.719   4.265 -0.1363 -0.0446 -0.2301
 9552WAT      O40012   5.133   4.977   3.024 -0.2983  0.4727  0.0273
 9552WAT     H140013   5.070   5.028   2.974 -2.5266 -1.7022  0.4179
 9552WAT     H240014   5.157   5.034   3.098 -0.2846  2.0540 -1.1454
 9552WAT    EPW40015   5.128   4.991   3.028 -0.5903  0.3946 -0.0758
 9553WAT      O40016  -1.635  10.311   4.906 -0.1040 -0.0488  0.0483
 9553WAT     H140017  -1.595  10.288   4.990  0.4481 -3.2823 -0.9773
 9553WAT     H240018  -1.717  10.354   4.930  0.7321  0.4549  2.2178
 9553WAT    EPW40019  -1.641  10.314   4.921  0.0791 -0.4086  0.1993
 9554WAT      O40020   6.740   4.765   2.971  0.0471 -1.2936  0.2447
 9554WAT     H140021   6.780   4.851   2.969  0.5078 -1.5102 -0.1303
 9554WAT     H240022   6.783   4.720   3.043 -0.2846 -1.1684  0.5220
 9554WAT    EPW40023   6.751   4.770   2.980  0.0639 -1.3058  0.2319
 9555WAT      O40024   2.387   6.720   4.173 -0.7900  0.0114 -0.5077
 9555WAT     H140025   2.389   6.787   4.241  2.5513 -1.6506  1.2438
 9555WAT     H240026   2.418   6.764   4.094  0.0820  0.8480  0.2869
 9555WAT    EPW40027   2.391   6.735   4.171 -0.2342 -0.0975 -0.1719
 9556WAT      O40028  -1.537   8.329   7.902  0.0131 -0.0125  0.1913
 9556WAT     H140029  -1.586   8.262   7.855 -0.6069  0.6841 -0.1656
 9556WAT     H240030  -1.511   8.392   7.835 -1.3070  1.2490  0.8187
 9556WAT    EPW40031  -1.540   8.329   7.887 -0.2428  0.2456  0.2272
 9557WAT      O40032  -1.267   6.529   4.286  0.1385 -0.2685  0.2827
 9557WAT     H140033  -1.226   6.533   4.372  0.5455  2.1086  0.0370
 9557WAT     H240034  -1.297   6.618   4.269 -2.3507 -1.2294 -0.9223
 9557WAT    EPW40035  -1.265   6.541   4.295 -0.1361 -0.0820  0.0913
 9558WAT      O40036  -2.687  10.222   5.004 -0.4916 -0.3892  0.2714
 9558WAT     H140037  -2.747  10.288   5.039 -1.5159 -0.8756 -0.5433
 9558WAT     H240038  -2.617  10.274   4.964 -1.2213  0.2245 -0.2444
 9558WAT    EPW40039  -2.685  10.238   5.004 -0.7229 -0.3724  0.0961
 9559WAT      O40040   1.446   1.883   5.814  0.0194  0.4535  0.2831
 9559WAT     H140041   1.442   1.977   5.826  1.6091  0.7900 -1.3479
 9559WAT     H240042   1.358   1.852   5.833 -0.4716  2.2285  1.0526
 9559WAT    EPW40043   1.434   1.891   5.818  0.1643  0.7320  0.1695
 9560WAT      O40044  -1.611   9.897   6.350  0.0269  0.0485 -0.7994
 9560WAT     H140045  -1.570   9.812   6.362  0.6817  0.3952 -0.4989
 9560WAT     H240046  -1.703   9.878   6.332  0.1236 -0.7053 -0.5065
 9560WAT    EPW40047  -1.617   9.883   6.349  0.1260 -0.0052 -0.7212
 9561WAT      O40048  -2.360   9.153   7.099 -0.2912  0.0132 -0.1519
 9561WAT     H140049  -2.265   9.150   7.096 -0.1940  0.2351  1.5552
 9561WAT     H240050  -2.387   9.061   7.088  0.0420  0.0956 -1.7957
 9561WAT    EPW40051  -2.351   9.140   7.097 -0.2344  0.0534 -0.1433
 9562WAT      O40052   6.741   0.597   1.879 -0.2751  0.6040 -0.0686
 9562WAT     H140053   6.697   0.632   1.956  0.8942 -0.0733  0.9572
 9562WAT     H240054   6.812   0.659   1.861 -0.2972  0.5490 -0.3486
 9562WAT    EPW40055   6.744   0.610   1.887 -0.1237  0.5074  0.0298
 9563WAT      O40056  -1.212   8.440   6.581  0.0323  0.5178  0.4268
 9563WAT     H140057  -1.167   8.458   6.663 -0.3182  0.3571  0.6548
 9563WAT     H240058  -1.303   8.467   6.597 -0.2204 -0.2731  0.3585
 9563WAT    EPW40059  -1.218   8.446   6.594 -0.0473  0.3924  0.4478
 9564WAT      O40060   3.508   5.209   5.920 -0.1662 -0.1588  0.0011
 9564WAT     H140061   3.532   5.154   5.995  2.4805 -0.9730 -1.2814
 9564WAT     H240062   3.534   5.297   5.945 -0.9678 -0.1052  0.6808
 9564WAT    EPW40063   3.515   5.213   5.933  0.0772 -0.2592 -0.0784
 9565WAT      O40064  -4.678  10.006   3.085 -0.0564  0.7786  0.0939
 9565WAT     H140065  -4.720   9.961   3.012 -0.6153  1.2139  0.1388
 9565WAT     H240066  -4.596   9.959   3.098 -0.1022  0.4899 -0.5999
 9565WAT    EPW40067  -4.673   9.994   3.077 -0.1364  0.7977  0.0083
 9566WAT      O40068  -3.489   4.163   7.625 -0.0686 -1.7224  0.2834
 9566WAT     H140069  -3.497   4.102   7.698 -1.2075 -1.5241  0.3482
 9566WAT     H240070  -3.553   4.132   7.561 -0.1898 -0.9881  0.0379
 9566WAT    EPW40071  -3.499   4.151   7.626 -0.2348 -1.5993  0.2596
 9567WAT      O40072   3.972   0.002   1.872 -0.1633  0.7121  0.3982
 9567WAT     H140073   3.916   0.005   1.950 -2.2864 -0.5377 -0.9898
 9567WAT     H240074   4.010   0.090   1.867 -1.4603  1.3947  1.7812
 9567WAT    EPW40075   3.970   0.014   1.882 -0.6144  0.6375  0.3976
 9568WAT      O40076   3.261   3.024   0.220  0.9765  0.4573 -0.0161
 9568WAT     H140077   3.342   3.052   0.263  0.4044 -1.4801  2.6534
 9568WAT     H240078   3.208   3.103   0.215  1.1618  0.8691  2.8719
 9568WAT    EPW40079   3.265   3.038   0.225  0.9255  0.2561  0.7169
 9569WAT      O40080  -0.736   0.090   4.395 -0.2252 -0.7263  0.7982
 9569WAT     H140081  -0.674   0.152   4.357 -2.1934  0.5027 -0.6700
 9569WAT     H240082  -0.703   0.004   4.371  0.4424 -0.0799 -0.7221
 9569WAT    EPW40083  -0.724   0.087   4.387 -0.3968 -0.4789  0.4041
 9570WAT      O40084  -1.086   7.951   7.830 -0.1768 -0.0791 -0.7596
 9570WAT     H140085  -1.010   7.909   7.871  0.1860  0.8513 -0.4521
 9570WAT     H240086  -1.157   7.939   7.892 -0.6258 -2.0010 -1.5663
 9570WAT    EPW40087  -1.085   7.944   7.843 -0.1882 -0.2100 -0.8254
 9571WAT      O40088   1.899   3.676   1.444  0.1396 -0.4584 -0.3379
 9571WAT     H140089   1.948   3.740   1.496 -0.0317 -0.5509 -0.0618
 9571WAT     H240090   1.895   3.598   1.498 -1.7918  0.0940  0.3878
 9571WAT    EPW40091   1.905   3.674   1.458 -0.1377 -0.3977 -0.2058
 9572WAT      O40092  -0.352   0.316   5.912  0.6415 -0.0616 -0.3871
 9572WAT     H140093  -0.339   0.410   5.899  1.6193 -0.2074 -0.5224
 9572WAT     H240094  -0.288   0.275   5.855  1.9334 -0.7848  1.4846
 9572WAT    EPW40095  -0.342   0.323   5.903  0.9409 -0.1762 -0.1581
 9573WAT      O40096   3.670   8.308   0.993 -1.2321 -0.3644  0.4879
 9573WAT     H140097   3.659   8.371   0.922 -1.1387 -0.7389  0.1366
 9573WAT     H240098   3.758   8.273   0.981 -0.5484  0.7980  1.7998
 9573WAT    EPW40099   3.680   8.311   0.982 -1.1296 -0.2604  0.6146
 9574WAT      O40100   6.304   9.225   0.462 -0.7934 -0.2298  0.3932
 9574WAT     H140101   6.371   9.164   0.432 -0.7587 -0.6886  1.3590
 9574WAT     H240102   6.337   9.311   0.439 -1.7485 -0.6022 -2.8295
 9574WAT    EPW40103   6.317   9.228   0.455 -0.9151 -0.3395  0.0955
 9575WAT      O40104   0.357   4.226   8.644  0.2513  0.0213  0.5418
 9575WAT     H140105   0.276   4.195   8.604  1.1500 -1.8638  0.0772
 9575WAT     H240106   0.387   4.296   8.586 -1.6376  1.6469  1.4084
 9575WAT    EPW40107   0.350   4.231   8.632  0.1207 -0.0126  0.5946
 9576WAT      O40108   4.410   8.757   0.322 -0.5534  0.9639 -0.3601
 9576WAT     H140109   4.445   8.803   0.246  2.7635 -2.2410 -1.0801
 9576WAT     H240110   4.473   8.773   0.392 -1.4995  0.7782  0.5636
 9576WAT    EPW40111   4.423   8.765   0.321 -0.2406  0.5164 -0.3332
 9577WAT      O40112  -1.364   7.136   2.543  0.0950 -0.0096  0.0190
 9577WAT     H140113  -1.375   7.196   2.469  1.8871 -0.1407 -0.3779
 9577WAT     H240114  -1.397   7.185   2.618  2.6206  2.0229 -0.0788
 9577WAT    EPW40115  -1.370   7.150   2.543  0.6645  0.2413 -0.0463
 9578WAT      O40116  -5.277   5.228   7.905  0.7144  0.4521 -0.0795
 9578WAT     H140117  -5.222   5.304   7.885  2.0410 -1.1608 -3.3196
 9578WAT     H240118  -5.216   5.154   7.907 -1.0613 -1.1825 -2.0724
 9578WAT    EPW40119  -5.261   5.228   7.903  0.6552  0.0238 -0.7699
 9579WAT      O40120   3.862   0.041   4.637  0.2843 -0.0837  0.0777
 9579WAT     H140121   3.925   0.030   4.709 -1.1893  1.9476  1.8257
 9579WAT     H240122   3.915   0.035   4.558  2.3752 -0.2231  1.3891
 9579WAT    EPW40123   3.877   0.039   4.636  0.3657  0.1658  0.4814
 9580WAT      O40124   8.022   2.648   1.295  0.3726  0.0296  0.0508
 9580WAT     H140125   8.096   2.664   1.236  2.0325 -1.0028  1.7498
 9580WAT     H240126   7.968   2.583   1.249  2.3065 -1.7300  0.1383
 9580WAT    EPW40127   8.025   2.642   1.281  0.8464 -0.3387  0.2863
 9581WAT      O40128   4.891   8.273   0.567  0.7306 -0.2989  0.4000
 9581WAT     H140129   4.886   8.223   0.485 -1.7520 -2.0861  1.5161
 9581WAT     H240130   4.827   8.231   0.624  3.0129  0.2871  3.6441
 9581WAT    EPW40131   4.882   8.261   0.564  0.7045 -0.4568  0.9751
 9582WAT      O40132   2.690   6.452   5.643 -0.2298 -0.4053  0.5977
 9582WAT     H140133   2.696   6.505   5.722  0.7740 -2.3024  1.8786
 9582WAT     H240134   2.643   6.507   5.580 -0.8543  1.2483  2.4224
 9582WAT    EPW40135   2.685   6.466   5.645 -0.1799 -0.4375  1.0073
 9583WAT      O40136  -0.242   8.551   7.174  0.5054  0.5741 -0.3017
 9583WAT     H140137  -0.163   8.502   7.198 -0.8888 -0.7864  1.7817
 9583WAT     H240138  -0.249   8.539   7.079  2.2113 -0.1457 -0.3796
 9583WAT    EPW40139  -0.232   8.543   7.165  0.5465  0.2999 -0.0372
 9584WAT      O40140   5.103   5.737   6.019  0.3384  0.2170 -0.0233
 9584WAT     H140141   5.118   5.697   5.934 -0.6559  1.5654 -0.8779
 9584WAT     H240142   5.190   5.753   6.054  0.7700 -0.0215 -0.9609
 9584WAT    EPW40143   5.116   5.734   6.013  0.2642  0.3636 -0.2599
 9585WAT      O40144  -1.989   4.416   7.241 -0.4018  0.0127 -0.0408
 9585WAT     H140145  -1.965   4.438   7.331 -0.8923 -2.9107  0.9031
 9585WAT     H240146  -1.906   4.393   7.199 -0.3619 -0.2295  0.1685
 9585WAT    EPW40147  -1.975   4.416   7.247 -0.4612 -0.4048  0.1113
 9586WAT      O40148   1.886   8.027   0.517 -0.6808 -0.4395 -0.6883
 9586WAT     H140149   1.840   7.944   0.509 -0.8422 -0.2509 -1.9008
 9586WAT     H240150   1.821   8.093   0.492  0.2531 -0.1842 -2.6175
 9586WAT    EPW40151   1.871   8.025   0.513 -0.5789 -0.3810 -1.1027
 9587WAT      O40152  -2.161   2.004   7.035  0.0438  0.2479  0.1925
 9587WAT     H140153  -2.216   1.961   7.101 -1.6550 -0.1662 -1.4399
 9587WAT     H240154  -2.216   2.073   6.999  1.3027  1.1089 -0.1419
 9587WAT    EPW40155  -2.175   2.007   7.039 -0.0142  0.3068 -0.0670
 9588WAT      O40156   2.044   1.982   3.504  0.1158 -0.2801  1.1306
 9588WAT     H140157   1.957   2.019   3.487 -0.7458 -2.1126  1.2097
 9588WAT     H240158   2.103   2.057   3.504 -0.9342  0.7386 -2.2894
 9588WAT    EPW40159   2.040   1.997   3.502 -0.1364 -0.3874  0.6900
 9589WAT      O40160  -0.884   1.592   1.679 -0.1710  0.5069 -0.1298
 9589WAT     H140161  -0.901   1.636   1.595 -1.1255 -0.8676 -0.6881
 9589WAT     H240162  -0.788   1.590   1.685 -0.0132 -0.7590 -2.0011
 9589WAT    EPW40163  -0.873   1.598   1.668 -0.2761  0.1587 -0.4503
 9590WAT      O40164   0.895   6.282   2.659  0.2310  0.0617  0.3952
 9590WAT     H140165   0.889   6.371   2.694  0.3754  0.3014 -0.1956
 9590WAT     H240166   0.977   6.279   2.611  0.3193 -0.4519  0.5590
 9590WAT    EPW40167   0.905   6.293   2.658  0.2618  0.0255  0.3389
 9591WAT      O40168   0.052   1.149   3.739  0.0585 -0.6054  0.1939
 9591WAT     H140169   0.077   1.224   3.686 -1.0683 -0.1037  0.3630
 9591WAT     H240170   0.121   1.143   3.806  1.3451 -1.0856 -1.1216
 9591WAT    EPW40171   0.065   1.158   3.741  0.0796 -0.6026  0.0427
 9592WAT      O40172  -2.530   1.361   7.740  0.2829 -0.4577 -0.0597
 9592WAT     H140173  -2.563   1.439   7.695 -0.0711 -1.8115 -2.2769
 9592WAT     H240174  -2.598   1.295   7.728  0.9784 -1.4008  0.9557
 9592WAT    EPW40175  -2.543   1.363   7.733  0.3279 -0.7606 -0.2184
 9593WAT      O40176  -3.618  10.111   6.252  0.3104  0.5410 -0.2552
 9593WAT     H140177  -3.604  10.019   6.227 -0.4585  0.3616 -0.0439
 9593WAT     H240178  -3.616  10.159   6.170 -1.3647  0.0608 -0.6114
 9593WAT    EPW40179  -3.616  10.105   6.238 -0.0119  0.4539 -0.2744
 9594WAT      O40180   6.395   3.892   2.841  1.0052 -0.4259  0.1886
 9594WAT     H140181   6.316   3.929   2.879 -0.4763 -3.1268 -0.0444
 9594WAT     H240182   6.465   3.950   2.870 -0.5435 -0.0097  3.5632
 9594WAT    EPW40183   6.394   3.904   2.850  0.6058 -0.7272  0.6030
 9595WAT      O40184  -2.783   1.000   5.588 -0.6361  0.5644  0.8615
 9595WAT     H140185  -2.778   1.000   5.684 -0.1264  0.9954  0.8396
 9595WAT     H240186  -2.840   0.926   5.567  1.6151 -1.4462  1.3938
 9595WAT    EPW40187  -2.790   0.990   5.598 -0.2719  0.3560  0.9289
 9596WAT      O40188  -1.265   1.028   3.201 -1.0292 -0.6020  0.1586
 9596WAT     H140189  -1.354   1.031   3.165 -0.7309 -1.4068 -0.6720
 9596WAT     H240190  -1.278   1.008   3.293 -1.7923  1.1238  0.4704
 9596WAT    EPW40191  -1.279   1.026   3.208 -1.0905 -0.4805  0.0901
 9597WAT      O40192   0.702   0.131   0.349  0.0760 -0.1790 -0.2979
 9597WAT     H140193   0.741   0.199   0.404  0.2752  1.0539 -1.8891
 9597WAT     H240194   0.708   0.052   0.402  0.3786  0.9066  1.3867
 9597WAT    EPW40195   0.708   0.130   0.364  0.1422  0.1268 -0.2856
 9598WAT      O40196   0.982   2.711   1.545  0.7581 -0.0655  0.3595
 9598WAT     H140197   0.895   2.727   1.582 -0.1588  0.3749 -1.8271
 9598WAT     H240198   0.978   2.621   1.514  2.0104 -0.9252  2.4414
 9598WAT    EPW40199   0.970   2.701   1.546  0.8023 -0.1208  0.3457
 9599WAT      O40200  -6.805   7.515   7.706 -0.1728  0.0651  0.0588
 9599WAT     H140201  -6.777   7.435   7.751 -0.9298 -1.0223 -1.3442
 9599WAT     H240202  -6.866   7.485   7.639 -0.1199  1.7796 -0.8059
 9599WAT    EPW40203  -6.809   7.501   7.703 -0.2656  0.1478 -0.2403
 9600WAT      O40204   4.095   0.812   4.114  0.1952 -0.0312  0.1864
 9600WAT     H140205   4.167   0.798   4.175 -0.5885  0.1012  1.1855
 9600WAT     H240206   4.043   0.732   4.120 -0.1891  0.2098  0.1274
 9600WAT    EPW40207   4.097   0.800   4.123  0.0412  0.0181  0.3104
 9601WAT      O40208   1.035   4.136   8.808 -0.2127  0.1900 -0.0843
 9601WAT     H140209   0.987   4.065   8.851  0.0896  0.7611  1.2103
 9601WAT     H240210   0.966   4.195   8.777 -0.5556 -1.2311 -2.3217
 9601WAT    EPW40211   1.019   4.134   8.809 -0.2180  0.0777 -0.2089
 9602WAT      O40212   7.184   3.363   0.839  0.2482 -0.5115  1.0693
 9602WAT     H140213   7.119   3.293   0.844 -0.3097  0.0744  2.7396
 9602WAT     H240214   7.267   3.318   0.826 -0.4163 -1.2916 -0.9484
 9602WAT    EPW40215   7.186   3.348   0.838  0.0870 -0.5372  1.0234
 9603WAT      O40216  -1.197   5.315   8.037 -1.1004  0.1380  1.0551
 9603WAT     H140217  -1.255   5.258   7.986  1.4211 -0.8593 -0.9268
 9603WAT     H240218  -1.148   5.254   8.093  0.8255  0.3855 -0.2653
 9603WAT    EPW40219  -1.198   5.299   8.038 -0.5139  0.0393  0.6194
 9604WAT      O40220  -4.625   8.180   5.278 -0.1790 -0.1073  0.6316
 9604WAT     H140221  -4.554   8.123   5.307  0.8069  1.0889  0.6841
 9604WAT     H240222  -4.630   8.165   5.183 -2.1527 -2.6440  1.0375
 9604WAT    EPW40223  -4.616   8.171   5.269 -0.3095 -0.2842  0.6921
 9605WAT      O40224  -1.948   0.613   7.780 -0.7025  0.2818  0.3551
 9605WAT     H140225  -1.908   0.607   7.693  3.1536  0.1426  1.9446
 9605WAT     H240226  -1.973   0.524   7.801  1.6231 -0.3600  0.6751
 9605WAT    EPW40227  -1.946   0.601   7.771  0.1128  0.1788  0.6070
 9606WAT      O40228   1.033   9.812   8.400  0.4742 -0.0412  0.3679
 9606WAT     H140229   1.083   9.766   8.333 -1.1853 -0.3210 -0.7600
 9606WAT     H240230   0.975   9.746   8.437  2.3363 -0.2429  3.2141
 9606WAT    EPW40231   1.032   9.798   8.396  0.5009 -0.1044  0.5941
 9607WAT      O40232   5.921   3.595   2.116  0.1083 -0.2865 -0.5133
 9607WAT     H140233   5.944   3.537   2.043  2.0702 -1.9290  1.2934
 9607WAT     H240234   5.960   3.679   2.093  2.8480 -1.4293 -0.3383
 9607WAT    EPW40235   5.929   3.599   2.103  0.7284 -0.6540 -0.2520
 9608WAT      O40236   3.926   5.819   3.233  0.3546  0.3878  0.0978
 9608WAT     H140237   3.886   5.832   3.319  0.4551 -2.9464  0.7841
 9608WAT     H240238   3.853   5.825   3.172 -0.2632 -0.1170  0.7605
 9608WAT    EPW40239   3.911   5.821   3.236  0.2863 -0.1185  0.2757
 9609WAT      O40240   4.886   3.590   4.378  0.2462  0.0762 -0.6053
 9609WAT     H140241   4.972   3.607   4.340  0.2537  0.8634 -0.2618
 9609WAT     H240242   4.871   3.664   4.438 -2.4324  2.2719 -3.6262
 9609WAT    EPW40243   4.895   3.602   4.381 -0.1063  0.4696 -0.9584
 9610WAT      O40244  -5.142   7.583   5.647  0.7520  0.2255  0.5328
 9610WAT     H140245  -5.075   7.648   5.625  0.9504  0.5675  1.9832
 9610WAT     H240246  -5.117   7.553   5.735 -1.4195  0.9666  1.4705
 9610WAT    EPW40247  -5.130   7.588   5.656  0.4919  0.3686  0.8476
 9611WAT      O40248  -0.434   5.862   5.779  0.6838 -0.2044 -0.0513
 9611WAT     H140249  -0.509   5.878   5.836  2.3297 -0.2859  2.3063
 9611WAT     H240250  -0.367   5.923   5.811  3.0119 -3.0177  0.8525
 9611WAT    EPW40251  -0.435   5.872   5.791  1.2079 -0.5863  0.3788
 9612WAT      O40252   1.768   6.471   3.185 -0.7676  0.7749 -0.1458
 9612WAT     H140253   1.765   6.529   3.109 -1.9244 -1.1106 -1.6207
 9612WAT     H240254   1.724   6.520   3.255  1.2843  2.9834 -0.2858
 9612WAT    EPW40255   1.762   6.485   3.184 -0.6496  0.8175 -0.3588
 9613WAT      O40256   0.449   0.406   8.416  0.0979  0.0105 -0.1620
 9613WAT     H140257   0.443   0.489   8.462  0.3386  0.2743 -0.5999
 9613WAT     H240258   0.418   0.341   8.479  2.1584  0.1171  1.0579
 9613WAT    EPW40259   0.444   0.408   8.430  0.4014  0.0594 -0.0587
 9614WAT      O40260  -5.882   5.759   7.550 -0.3268  0.0650 -0.3920
 9614WAT     H140261  -5.908   5.772   7.641  0.7447 -1.2190  0.1265
 9614WAT     H240262  -5.864   5.847   7.517  0.7722  0.4309  1.1001
 9614WAT    EPW40263  -5.883   5.772   7.558 -0.0405 -0.0560 -0.1268
 9615WAT      O40264  -0.245   1.929   1.585 -0.8001 -0.1559 -0.4452
 9615WAT     H140265  -0.331   1.923   1.626 -0.8970 -0.5238 -0.6913
 9615WAT     H240266  -0.210   2.014   1.612 -0.5432 -0.7039  1.0250
 9615WAT    EPW40267  -0.251   1.939   1.594 -0.7790 -0.2766 -0.2837
 9616WAT      O40268   2.897   5.201   3.301 -0.6916  0.5862  0.2854
 9616WAT     H140269   2.905   5.235   3.390 -0.0503  3.4977 -0.7795
 9616WAT     H240270   2.987   5.179   3.276 -0.9788 -1.1183  0.6008
 9616WAT    EPW40271   2.910   5.203   3.309 -0.6449  0.7455  0.1866
 9617WAT      O40272  -0.104   9.880   3.027  0.7733 -0.4749 -0.1090
 9617WAT     H140273  -0.058   9.871   3.111  0.6839 -1.0521 -0.1156
 9617WAT     H240274  -0.121   9.790   3.000  0.5420 -0.2839 -0.6071
 9617WAT    EPW40275  -0.100   9.867   3.035  0.7310 -0.5255 -0.1755
 9618WAT      O40276  -2.933   3.673   5.736  0.8014 -0.4001 -0.6254
 9618WAT     H140277  -2.993   3.626   5.794 -0.1802  0.5241 -0.8692
 9618WAT     H240278  -2.861   3.700   5.793  0.2925 -0.2905 -0.0191
 9618WAT    EPW40279  -2.932   3.670   5.751  0.6049 -0.2637 -0.5777
 9619WAT      O40280   1.914   8.202   6.490  0.0700  0.4511  0.7082
 9619WAT     H140281   1.888   8.174   6.578 -0.9681  1.7308  0.8336
 9619WAT     H240282   2.009   8.215   6.497  0.0334  0.3209  1.5717
 9619WAT    EPW40283   1.923   8.200   6.503 -0.0718  0.6027  0.8385
 9620WAT      O40284   7.175   0.922   1.543  0.0206  0.4016  0.3124
 9620WAT     H140285   7.193   0.931   1.637 -2.0753  3.0942  0.5705
 9620WAT     H240286   7.081   0.937   1.536  0.1359  0.2282 -2.2499
 9620WAT    EPW40287   7.165   0.925   1.555 -0.2408  0.7339  0.0086
 9621WAT      O40288   7.175   2.098   0.848  0.2064  0.0134 -0.5295
 9621WAT     H140289   7.083   2.109   0.874  0.5043  1.1750  0.1375
 9621WAT     H240290   7.215   2.048   0.919 -0.3923 -2.6267 -1.9445
 9621WAT    EPW40291   7.168   2.093   0.861  0.1669 -0.1817 -0.6282
 9622WAT      O40292   0.958   7.634   7.936  0.1307 -0.2205  0.1616
 9622WAT     H140293   0.908   7.705   7.896 -1.0498  1.1983  3.7273
 9622WAT     H240294   1.047   7.669   7.942 -0.2766  0.7018  1.1917
 9622WAT    EPW40295   0.963   7.648   7.931 -0.0787  0.0882  0.7677
 9623WAT      O40296  -2.920   6.703   7.871  0.1235 -0.1807  0.0923
 9623WAT     H140297  -2.957   6.626   7.828 -0.9260  0.2805  0.1350
 9623WAT     H240298  -2.832   6.710   7.836 -0.3635 -0.4089 -1.2107
 9623WAT    EPW40299  -2.913   6.694   7.861 -0.0792 -0.1502 -0.0739
 9624WAT      O40300   6.634   4.646   1.627  0.1428 -0.1480 -0.2039
 9624WAT     H140301   6.669   4.663   1.715 -0.9684 -0.4292  0.3035
 9624WAT     H240302   6.578   4.721   1.609  1.3849  0.5748 -1.2459
 9624WAT    EPW40303   6.632   4.658   1.637  0.1600 -0.0896 -0.2744
 9625WAT      O40304   2.956   1.183   0.860  0.2284 -0.1308  0.3023
 9625WAT     H140305   2.876   1.132   0.870  0.4111 -0.6195 -0.5596
 9625WAT     H240306   2.998   1.146   0.782  0.7921  0.7819  0.1553
 9625WAT    EPW40307   2.951   1.171   0.851  0.3269 -0.0749  0.1692
 9626WAT      O40308  -0.731   4.245   5.820 -0.1868 -0.5092 -0.7679
 9626WAT     H140309  -0.808   4.248   5.877  1.2498  2.0126  1.2547
 9626WAT     H240310  -0.664   4.204   5.874  0.6933  0.1717 -1.3262
 9626WAT    EPW40311  -0.732   4.240   5.835  0.1188 -0.0865 -0.5748
 9627WAT      O40312  -5.114   4.550   5.934  0.8425 -0.2384 -0.4832
 9627WAT     H140313  -5.041   4.488   5.941  0.4627 -0.5427  1.1598
 9627WAT     H240314  -5.127   4.582   6.024 -1.6035 -0.8444 -0.5520
 9627WAT    EPW40315  -5.106   4.546   5.947  0.4699 -0.3586 -0.2756
 9628WAT      O40316  -0.085   6.329   5.947 -0.2986 -0.4356 -0.8089
 9628WAT     H140317  -0.106   6.417   5.916  0.6199 -0.2445 -0.9037
 9628WAT     H240318  -0.004   6.306   5.902 -0.6050 -1.3932 -0.8940
 9628WAT    EPW40319  -0.077   6.338   5.937 -0.2179 -0.5367 -0.8328
 9629WAT      O40320  -0.285   6.136   7.898 -0.6734 -0.6212  0.0643
 9629WAT     H140321  -0.285   6.100   7.810 -1.5724 -1.3988  0.3704
 9629WAT     H240322  -0.304   6.229   7.886  2.6846  0.0763 -0.8060
 9629WAT    EPW40323  -0.287   6.144   7.885 -0.3491 -0.6320 -0.0103
 9630WAT      O40324   5.671   6.929   2.793 -0.2064 -0.0595 -0.2381
 9630WAT     H140325   5.639   6.849   2.833 -1.9913  1.6953  2.1704
 9630WAT     H240326   5.594   6.987   2.790  1.0745  1.7084 -1.5274
 9630WAT    EPW40327   5.657   6.926   2.798 -0.2728  0.4051 -0.0906
 9631WAT      O40328   1.114   4.381   5.246 -0.1941 -0.5141  0.4282
 9631WAT     H140329   1.140   4.293   5.219  0.9603 -0.1003  0.1279
 9631WAT     H240330   1.024   4.371   5.277 -0.0621 -1.8047  0.4496
 9631WAT    EPW40331   1.106   4.368   5.247 -0.0244 -0.6297  0.3915
 9632WAT      O40332   0.465   0.688   8.467 -0.3165  0.0005 -0.4819
 9632WAT     H140333   0.463   0.709   8.560 -1.4828 -0.0457 -0.4826
 9632WAT     H240334   0.557   0.668   8.449 -0.1692 -0.5926  0.8006
 9632WAT    EPW40335   0.477   0.688   8.477 -0.4509 -0.0838 -0.3128
 9633WAT      O40336  -4.054   2.448   5.309  0.1310 -0.0233 -0.8274
 9633WAT     H140337  -4.101   2.383   5.258  1.9303 -2.2496  0.1679
 9633WAT     H240338  -3.989   2.484   5.249  2.0745 -2.4486 -0.3522
 9633WAT    EPW40339  -4.051   2.444   5.295  0.6247 -0.6368 -0.6335
 9634WAT      O40340  -0.391   4.411   0.837 -0.0200  0.2887  0.6412
 9634WAT     H140341  -0.346   4.328   0.823  1.2668  0.5565  2.7353
 9634WAT     H240342  -0.470   4.388   0.886  0.0291  0.2289  0.6924
 9634WAT    EPW40343  -0.395   4.397   0.842  0.1562  0.3161  0.9242
 9635WAT      O40344  -3.830   8.967   7.471  0.5224  0.3276  0.3520
 9635WAT     H140345  -3.802   9.004   7.388 -0.7718  0.7761  0.0893
 9635WAT     H240346  -3.763   8.902   7.493  0.9101  0.2547 -1.0044
 9635WAT    EPW40347  -3.818   8.963   7.463  0.4029  0.3777  0.1383
 9636WAT      O40348   6.105   9.518   0.671 -0.3180  0.4534  0.9843
 9636WAT     H140349   6.014   9.532   0.694 -0.1853  1.8227  0.7955
 9636WAT     H240350   6.102   9.469   0.589 -0.8020 -2.8881  2.8041
 9636WAT    EPW40351   6.093   9.514   0.663 -0.3643  0.1931  1.1994
 9637WAT      O40352  -0.568   0.261   5.340 -0.1539 -0.1452  0.3514
 9637WAT     H140353  -0.645   0.242   5.394 -1.1440  0.0349 -0.9234
 9637WAT     H240354  -0.515   0.181   5.345 -0.7578 -0.5302  0.7166
 9637WAT    EPW40355  -0.571   0.248   5.348 -0.3642 -0.1722  0.2313
 9638WAT      O40356   3.918   0.372   5.547  0.4108 -0.5157  0.0767
 9638WAT     H140357   3.966   0.298   5.584 -0.8158 -1.6418 -0.4893
 9638WAT     H240358   3.918   0.356   5.453  0.7402  0.6108 -0.1360
 9638WAT    EPW40359   3.924   0.360   5.540  0.2923 -0.5156 -0.0262
 9639WAT      O40360   0.123   9.170   6.568 -0.3288  0.0088 -0.3901
 9639WAT     H140361   0.115   9.249   6.620  0.5702  0.1399 -0.4315
 9639WAT     H240362   0.216   9.163   6.549 -0.3172 -1.3139  0.0152
 9639WAT    EPW40363   0.134   9.179   6.572 -0.2087 -0.1483 -0.3421
 9640WAT      O40364   1.511   8.812   8.622  0.2079  0.2862 -0.0195
 9640WAT     H140365   1.547   8.824   8.534  0.3852  1.5039  0.1991
 9640WAT     H240366   1.528   8.895   8.666 -1.6296  0.4150  0.5281
 9640WAT    EPW40367   1.518   8.824   8.616 -0.0111  0.4640  0.0815
 9641WAT      O40368   7.681   0.624   0.437 -0.6828  0.2371  0.6077
 9641WAT     H140369   7.773   0.637   0.414 -1.1288 -0.5634 -2.0407
 9641WAT     H240370   7.670   0.670   0.520  1.6964  1.8568  0.1307
 9641WAT    EPW40371   7.691   0.632   0.445 -0.4280  0.3452  0.1954
 9642WAT      O40372   2.787   3.632   8.146 -0.3344  0.2253  0.3148
 9642WAT     H140373   2.810   3.700   8.209  0.1797 -1.5234  2.1376
 9642WAT     H240374   2.853   3.639   8.077  0.6637  0.5692  1.2810
 9642WAT    EPW40375   2.798   3.642   8.145 -0.1349  0.0401  0.6828
 9643WAT      O40376  -4.332   4.421   8.909  0.5453  0.0386  0.6178
 9643WAT     H140377  -4.357   4.484   8.976  0.7714  1.4713 -0.5680
 9643WAT     H240378  -4.329   4.337   8.954  0.9006  0.9733  2.4360
 9643WAT    EPW40379  -4.335   4.418   8.924  0.6220  0.3510  0.7014
 9644WAT      O40380   2.963   2.632   2.984  0.2613 -0.4126  0.7248
 9644WAT     H140381   2.945   2.672   3.070 -0.7305  1.0614 -0.1271
 9644WAT     H240382   2.895   2.667   2.927  1.5182 -0.5613 -0.9156
 9644WAT    EPW40383   2.952   2.642   2.988  0.2962 -0.2378  0.3961
 9645WAT      O40384  -0.211   8.104   8.139 -0.0257  0.0088 -0.5529
 9645WAT     H140385  -0.218   8.032   8.202 -0.3149  0.8049  0.3506
 9645WAT     H240386  -0.296   8.106   8.096 -0.5460  0.7537  0.4849
 9645WAT    EPW40387  -0.223   8.094   8.142 -0.1325  0.2117 -0.2971
 9646WAT      O40388   7.179   7.848   1.099  0.3769 -0.0747  0.0826
 9646WAT     H140389   7.137   7.827   1.016 -1.1496  1.7761  0.3015
 9646WAT     H240390   7.152   7.778   1.158 -1.2020  0.2645 -0.1945
 9646WAT    EPW40391   7.170   7.836   1.096 -0.0327  0.2141  0.0749
 9647WAT      O40392  -2.197   8.674   8.471  0.5021  0.1642 -0.2545
 9647WAT     H140393  -2.257   8.747   8.487  0.8693  0.3477  0.2913
 9647WAT     H240394  -2.232   8.603   8.524  1.1509  0.4803  0.6334
 9647WAT    EPW40395  -2.210   8.674   8.480  0.6361  0.2298 -0.0653
 9648WAT      O40396   5.570   9.222   1.063  0.0566 -0.5025 -0.1966
 9648WAT     H140397   5.624   9.299   1.081 -0.1290 -0.5440  0.5495
 9648WAT     H240398   5.620   9.174   0.996  0.5282 -0.1128 -0.1363
 9648WAT    EPW40399   5.584   9.226   1.056  0.0944 -0.4568 -0.0901
 9649WAT      O40400   0.229   4.485   1.525 -0.3239 -0.2494  0.5373
 9649WAT     H140401   0.323   4.466   1.524 -0.4860 -1.0675  0.5827
 9649WAT     H240402   0.187   4.402   1.504 -0.9671  0.7060 -2.5557
 9649WAT    EPW40403   0.236   4.472   1.522 -0.4301 -0.2313  0.1353
 9650WAT      O40404   0.308   8.213   2.917 -1.1400 -1.0910 -0.8576
 9650WAT     H140405   0.359   8.193   2.996  0.2352 -0.3896 -1.5214
 9650WAT     H240406   0.220   8.230   2.949 -0.6669 -1.0699  0.5055
 9650WAT    EPW40407   0.303   8.213   2.931 -0.8962 -0.9956 -0.7654
 9651WAT      O40408   4.365   1.865   7.465  0.3332  0.6260  0.8545
 9651WAT     H140409   4.353   1.858   7.371 -0.7466  1.1265  0.9462
 9651WAT     H240410   4.371   1.959   7.482  2.4785  0.5105  1.0753
 9651WAT    EPW40411   4.364   1.877   7.455  0.4737  0.6768  0.8957
 9652WAT      O40412   6.226   3.761   3.066 -0.5310  1.0311  0.0136
 9652WAT     H140413   6.232   3.830   3.132  0.7146 -0.6570  1.8064
 9652WAT     H240414   6.314   3.757   3.029 -0.7538  0.7926 -0.4918
 9652WAT    EPW40415   6.239   3.770   3.070 -0.3960  0.7769  0.1835
 9653WAT      O40416  -6.119   7.389   6.192  0.4542 -0.3070 -0.1673
 9653WAT     H140417  -6.075   7.324   6.136  0.1080  0.5161 -1.4397
 9653WAT     H240418  -6.209   7.356   6.200 -0.0206  0.5276 -1.7143
 9653WAT    EPW40419  -6.125   7.376   6.185  0.3459 -0.0885 -0.5391
 9654WAT      O40420   3.411   6.724   6.413 -0.5624  0.1831 -0.6173
 9654WAT     H140421   3.432   6.800   6.467 -2.0561 -0.6001  1.1616
 9654WAT     H240422   3.466   6.654   6.447 -0.8047 -0.0865 -0.7786
 9654WAT    EPW40423   3.421   6.725   6.425 -0.7914  0.0441 -0.4041
 9655WAT      O40424  -1.138   3.553   1.633  0.9309 -0.6125  0.7697
 9655WAT     H140425  -1.184   3.550   1.549  1.7281 -1.7211  0.3489
 9655WAT     H240426  -1.077   3.479   1.630  0.7532 -0.8688  2.4593
 9655WAT    EPW40427  -1.136   3.543   1.622  1.0126 -0.7925  0.9370
 9656WAT      O40428  -0.044   7.718   5.707  0.2042 -0.2290 -0.8186
 9656WAT     H140429  -0.123   7.694   5.757 -0.6896  0.4721 -1.8412
 9656WAT     H240430  -0.070   7.707   5.616  0.4254  2.4706 -1.2743
 9656WAT    EPW40431  -0.058   7.713   5.702  0.1155  0.2193 -1.0138
 9657WAT      O40432  -3.197   6.870   6.447  0.0845  0.2063  0.1934
 9657WAT     H140433  -3.244   6.792   6.478  1.0149 -0.9122 -1.1031
 9657WAT     H240434  -3.188   6.924   6.525 -0.8990 -0.8205  1.0614
 9657WAT    EPW40435  -3.202   6.867   6.462  0.0775 -0.0765  0.1369
 9658WAT      O40436   4.288   5.086   1.901  0.1536 -0.3845 -0.6341
 9658WAT     H140437   4.249   5.034   1.831 -0.8262  2.6157 -2.5209
 9658WAT     H240438   4.382   5.084   1.883 -0.0082 -0.3742 -1.5246
 9658WAT    EPW40439   4.295   5.079   1.890  0.0029  0.0126 -1.0004
 9659WAT      O40440   1.972   8.975   3.812 -0.1508  0.2172 -0.1364
 9659WAT     H140441   1.951   8.961   3.719  0.5232  0.3959 -0.3234
 9659WAT     H240442   1.963   8.888   3.851  1.2623 -0.2289 -0.7328
 9659WAT    EPW40443   1.968   8.962   3.805  0.1245  0.1817 -0.2397
 9660WAT      O40444   1.155   5.173   4.574 -0.5737 -0.8756 -0.1482
 9660WAT     H140445   1.226   5.170   4.510 -0.3906 -2.2215  0.0830
 9660WAT     H240446   1.194   5.138   4.654 -0.5857  1.4893  0.9606
 9660WAT    EPW40447   1.169   5.168   4.576 -0.5512 -0.7412  0.0286
 9661WAT      O40448  -4.351   5.030   4.839 -0.7796 -0.1647 -0.2286
 9661WAT     H140449  -4.375   4.989   4.756 -0.6151 -2.7008  0.8743
 9661WAT     H240450  -4.315   5.115   4.815 -3.4903  0.4754 -2.4985
 9661WAT    EPW40451  -4.349   5.036   4.825 -1.1156 -0.4148 -0.3824
 9662WAT      O40452   1.433   3.808   7.400 -0.8737 -0.3257  0.4044
 9662WAT     H140453   1.364   3.867   7.369  0.3884  0.8255 -0.3104
 9662WAT     H240454   1.485   3.861   7.460  0.0287 -0.8347  0.0899
 9662WAT    EPW40455   1.431   3.823   7.404 -0.5882 -0.2409  0.2687
 9663WAT      O40456  -1.571   1.386   2.825  0.0843  0.6808  0.1104
 9663WAT     H140457  -1.580   1.366   2.918  0.9312  0.8034  0.2290
 9663WAT     H240458  -1.491   1.438   2.819  0.8289 -0.5103 -0.8466
 9663WAT    EPW40459  -1.562   1.390   2.837  0.2943  0.5398 -0.0002
 9664WAT      O40460   2.548   0.636   6.582  0.1421  0.5947  0.3388
 9664WAT     H140461   2.478   0.685   6.540  1.0638  0.4725 -1.4484
 9664WAT     H240462   2.505   0.559   6.619 -0.7038  0.6673 -0.4729
 9664WAT    EPW40463   2.533   0.632   6.581  0.1521  0.5882 -0.0041
 9665WAT      O40464  -1.604   3.459   7.562  0.6167 -0.1430 -0.5266
 9665WAT     H140465  -1.653   3.527   7.608 -0.2732 -1.3651  0.4001
 9665WAT     H240466  -1.617   3.479   7.469 -1.6973 -0.4192 -0.3172
 9665WAT    EPW40467  -1.612   3.471   7.556  0.1941 -0.3407 -0.3767
 9666WAT      O40468   2.242   4.389   2.146 -0.2806  0.1996  0.2598
 9666WAT     H140469   2.227   4.478   2.177 -1.9758  0.1998 -0.4689
 9666WAT     H240470   2.259   4.338   2.225  0.5287  1.1164  0.6998
 9666WAT    EPW40471   2.242   4.394   2.160 -0.3974  0.3204  0.2216
 9667WAT      O40472  -2.069   6.008   6.495 -0.0939 -0.7136  0.3038
 9667WAT     H140473  -2.112   5.961   6.567  1.0167 -1.2587  0.6334
 9667WAT     H240474  -1.980   6.025   6.527  0.6455 -1.5728 -1.1859
 9667WAT    EPW40475  -2.063   6.004   6.509  0.1500 -0.8986  0.1509
 9668WAT      O40476  -4.212   3.948   5.807  0.2012  0.5666  0.1598
 9668WAT     H140477  -4.251   3.982   5.887  1.4558 -0.3600  1.1958
 9668WAT     H240478  -4.269   3.875   5.782  0.1433  0.4751  0.5532
 9668WAT    EPW40479  -4.225   3.943   5.814  0.3591  0.4323  0.3483
 9669WAT      O40480  -5.754   3.339   7.798 -0.8589  0.3114  0.8433
 9669WAT     H140481  -5.783   3.272   7.736  2.4020 -0.3040 -0.1790
 9669WAT     H240482  -5.828   3.349   7.858 -1.6487 -4.0086  0.9146
 9669WAT    EPW40483  -5.768   3.332   7.798 -0.5331 -0.3396  0.7176
 9670WAT      O40484   4.546   4.302   1.268 -0.1003 -0.1916  0.4305
 9670WAT     H140485   4.540   4.395   1.246  0.0874 -0.1434  0.5823
 9670WAT     H240486   4.596   4.263   1.197  1.2216  0.1088  1.1716
 9670WAT    EPW40487   4.552   4.309   1.256  0.0987 -0.1454  0.5482
 9671WAT      O40488   2.233   8.194   1.733  0.3991  0.4913 -0.4697
 9671WAT     H140489   2.182   8.225   1.808  0.6140 -0.3307  0.0311
 9671WAT     H240490   2.241   8.271   1.676 -1.0114  0.7536 -0.3554
 9671WAT    EPW40491   2.228   8.208   1.735  0.2414  0.4177 -0.3886
 9672WAT      O40492   6.132   0.924   4.278  0.2379 -0.6190  0.2850
 9672WAT     H140493   6.159   0.994   4.338 -1.6382  1.5926 -1.2340
 9672WAT     H240494   6.037   0.917   4.292 -0.2513 -0.0304 -2.3258
 9672WAT    EPW40495   6.123   0.932   4.288 -0.0741 -0.2497 -0.2599
 9673WAT      O40496  -3.205   8.628   3.412 -0.9543  0.3690 -0.0831
 9673WAT     H140497  -3.135   8.682   3.450  0.9082 -1.0425 -1.3197
 9673WAT     H240498  -3.187   8.629   3.318 -0.3988 -2.8837 -0.1159
 9673WAT    EPW40499  -3.193   8.635   3.405 -0.6354 -0.2460 -0.2505
 9674WAT      O40500   1.976   0.173   2.914 -0.0820 -0.4028 -0.5469
 9674WAT     H140501   1.991   0.125   2.995  0.0562 -0.2469 -0.4803
 9674WAT     H240502   1.949   0.260   2.943  0.3397 -0.2337 -0.6728
 9674WAT    EPW40503   1.974   0.178   2.928 -0.0082 -0.3600 -0.5548
 9675WAT      O40504   4.895  10.232   1.723  0.2366 -0.6316  0.0088
 9675WAT     H140505   4.844  10.232   1.642  0.9438 -0.7219 -0.4475
 9675WAT     H240506   4.833  10.204   1.790 -0.4222 -0.3253 -0.4563
 9675WAT    EPW40507   4.880  10.228   1.721  0.2429 -0.6032 -0.1128
 9676WAT      O40508   5.678   1.447   1.289  0.7013  0.1635 -0.7771
 9676WAT     H140509   5.656   1.535   1.258 -0.6102  0.4776  0.9334
 9676WAT     H240510   5.704   1.400   1.209  2.1837  2.2720 -1.6461
 9676WAT    EPW40511   5.678   1.453   1.274  0.7238  0.4831 -0.6661
 9677WAT      O40512   4.273   6.179   1.641 -0.7202  0.4994  0.2660
 9677WAT     H140513   4.191   6.200   1.685 -1.1632 -1.3558  0.3751
 9677WAT     H240514   4.257   6.096   1.597  1.6137 -0.8643  1.7808
 9677WAT    EPW40515   4.260   6.171   1.641 -0.4709  0.0749  0.4803
 9678WAT      O40516   3.331   6.961   6.238 -0.2456 -0.3985 -0.0192
 9678WAT     H140517   3.391   6.895   6.274  1.7529  2.4178  2.2530
 9678WAT     H240518   3.384   7.008   6.174  0.3158  2.4055  2.3167
 9678WAT    EPW40519   3.346   6.958   6.234  0.0920  0.3428  0.5887
 9679WAT      O40520  -4.167   4.919   6.027  0.1807  0.3343 -0.4303
 9679WAT     H140521  -4.090   4.916   5.971  0.4224 -1.2969 -0.0719
 9679WAT     H240522  -4.172   5.010   6.057  2.2888  0.3582 -0.0156
 9679WAT    EPW40523  -4.158   4.931   6.024  0.4907  0.1221 -0.3283
 9680WAT      O40524   7.066   0.918   0.328  0.3512  0.6377 -0.0304
 9680WAT     H140525   7.032   0.884   0.411  1.7095 -1.1199 -0.1092
 9680WAT     H240526   7.121   0.992   0.352  1.3202 -0.3028  0.7790
 9680WAT    EPW40527   7.069   0.923   0.342  0.6583  0.2818  0.0660
 9681WAT      O40528   2.265   8.634   2.099  0.0251 -0.4039  0.2004
 9681WAT     H140529   2.274   8.563   2.035 -2.6968  0.4331 -1.2761
 9681WAT     H240530   2.334   8.697   2.076  0.0967 -0.8669 -0.8813
 9681WAT    EPW40531   2.276   8.633   2.088 -0.3244 -0.3548 -0.1370
 9682WAT      O40532   3.210   8.272   5.319 -0.1246 -0.4438 -0.6001
 9682WAT     H140533   3.232   8.178   5.321 -1.3646 -0.7451  0.7708
 9682WAT     H240534   3.295   8.316   5.318  0.4766 -1.5635 -1.7599
 9682WAT    EPW40535   3.224   8.265   5.319 -0.2087 -0.6313 -0.5722
 9683WAT      O40536   3.150   5.339   7.186 -0.1468  0.5312 -0.7143
 9683WAT     H140537   3.061   5.373   7.176 -0.1757  0.5387 -0.4312
 9683WAT     H240538   3.205   5.408   7.149 -0.2305  0.7247 -0.4808
 9683WAT    EPW40539   3.146   5.353   7.180 -0.1616  0.5579 -0.6461
 9684WAT      O40540   3.896   8.937   3.896  0.5261 -0.0900 -0.2598
 9684WAT     H140541   3.892   8.992   3.974  0.3295 -1.4353  0.7302
 9684WAT     H240542   3.929   8.853   3.928 -1.5586 -1.3569 -1.1997
 9684WAT    EPW40543   3.900   8.933   3.910  0.2252 -0.4344 -0.2532
 9685WAT      O40544   5.417   7.993   4.187  0.0083 -0.6650 -0.1323
 9685WAT     H140545   5.487   8.058   4.187  0.8517 -1.5527 -0.4671
 9685WAT     H240546   5.342   8.037   4.146  0.6684 -0.0302 -0.6600
 9685WAT    EPW40547   5.416   8.007   4.182  0.2067 -0.6986 -0.2460
 9686WAT      O40548   0.002   9.220   1.214  0.0319  0.0936  0.1423
 9686WAT     H140549   0.053   9.285   1.166  0.3971  0.2002  0.6704
 9686WAT     H240550   0.067   9.159   1.248 -0.2337 -0.0228  0.4464
 9686WAT    EPW40551   0.017   9.220   1.212  0.0450  0.0925  0.2521
 9687WAT      O40552   2.229   9.886   5.380 -0.3604  0.3519  0.1702
 9687WAT     H140553   2.204   9.919   5.467  1.8035 -0.6243  1.2536
 9687WAT     H240554   2.275   9.804   5.398 -3.1107 -1.9080 -2.2344
 9687WAT    EPW40555   2.232   9.880   5.394 -0.4376 -0.0749 -0.0041
 9688WAT      O40556  -0.187   5.664   7.761 -0.1008 -0.6377 -0.0282
 9688WAT     H140557  -0.170   5.724   7.834  1.4839  0.8032 -1.4682
 9688WAT     H240558  -0.234   5.717   7.697 -2.6099 -2.2304  0.3649
 9688WAT    EPW40559  -0.191   5.679   7.762 -0.2227 -0.6578 -0.1662
 9689WAT      O40560   0.680   6.459   5.026  0.2570  0.5749  0.3240
 9689WAT     H140561   0.624   6.536   5.036 -0.6981 -0.0998  0.3864
 9689WAT     H240562   0.751   6.472   5.089 -1.4683  0.0638  2.4891
 9689WAT    EPW40563   0.682   6.470   5.036 -0.0965  0.4184  0.6177
 9690WAT      O40564   1.299   2.249   8.177  0.7026 -0.2563 -0.1402
 9690WAT     H140565   1.247   2.250   8.097 -3.5424  2.4439  2.2850
 9690WAT     H240566   1.372   2.308   8.158 -1.1122  1.6712 -1.6365
 9690WAT    EPW40567   1.302   2.257   8.164 -0.0967  0.3541 -0.0176
 9691WAT      O40568  -2.849  10.209   8.501 -0.5245 -0.3006 -0.0826
 9691WAT     H140569  -2.833  10.247   8.414 -2.4529  1.3706  0.2344
 9691WAT     H240570  -2.799  10.264   8.561 -0.8803 -0.1335  0.0660
 9691WAT    EPW40571  -2.840  10.221   8.497 -0.8258 -0.0577 -0.0215
 9692WAT      O40572   3.742  10.027   1.074  0.0762  0.4449  0.4626
 9692WAT     H140573   3.672   9.991   1.019 -1.4683  4.3331 -0.4412
 9692WAT     H240574   3.822   9.985   1.042 -1.2959 -0.5604 -1.8801
 9692WAT    EPW40575   3.743  10.017   1.063 -0.3085  0.8249  0.0345
 9693WAT      O40576   2.446   5.918   8.544  0.4362  0.5633 -0.3154
 9693WAT     H140577   2.472   5.847   8.485 -0.5878  0.1442 -0.2773
 9693WAT     H240578   2.492   5.995   8.510  0.4863  0.1637 -1.1801
 9693WAT    EPW40579   2.456   5.918   8.532  0.3077  0.4554 -0.4244
 9694WAT      O40580   2.021   7.372   1.042 -0.9019  0.3422 -0.1378
 9694WAT     H140581   2.060   7.335   1.121 -1.6405  0.7128  0.4087
 9694WAT     H240582   2.032   7.466   1.050 -0.7261  0.3695 -0.6200
 9694WAT    EPW40583   2.027   7.379   1.053 -0.9761  0.3946 -0.1293
 9695WAT      O40584  -0.709   7.580   5.670  0.3501 -0.3799 -0.0424
 9695WAT     H140585  -0.795   7.544   5.648  1.1356 -1.4483 -1.5730
 9695WAT     H240586  -0.661   7.506   5.708  1.0688 -0.2067 -0.5932
 9695WAT    EPW40587  -0.714   7.566   5.672  0.5485 -0.4978 -0.3171
 9696WAT      O40588  -2.304   5.241   0.871 -0.1008 -0.2022 -0.7319
 9696WAT     H140589  -2.272   5.158   0.907  0.4743  0.0345 -0.7013
 9696WAT     H240590  -2.386   5.256   0.918  0.2140 -0.3271 -0.1258
 9696WAT    EPW40591  -2.311   5.232   0.882  0.0165 -0.1876 -0.6479
 9697WAT      O40592   1.838   6.811   8.967 -0.5408  0.4298 -0.4675
 9697WAT     H140593   1.803   6.727   8.936  1.5739 -0.5988 -0.2416
 9697WAT     H240594   1.834   6.868   8.890 -0.6610 -0.3193 -1.0293
 9697WAT    EPW40595   1.833   6.807   8.953 -0.2778  0.1953 -0.5116
 9698WAT      O40596   4.766  10.256   4.196  0.3483  0.0850 -0.5075
 9698WAT     H140597   4.688  10.213   4.161  1.0932 -1.0280 -0.8433
 9698WAT     H240598   4.839  10.200   4.169  1.3290  1.3821 -0.6641
 9698WAT    EPW40599   4.766  10.243   4.187  0.5758  0.1092 -0.5724
 9699WAT      O40600   6.021   6.734   0.148  0.1730  0.2611 -0.0490
 9699WAT     H140601   6.107   6.702   0.121 -0.1905 -1.6306  0.8857
 9699WAT     H240602   6.012   6.705   0.239 -0.5203  2.4708  0.6658
 9699WAT    EPW40603   6.031   6.726   0.157  0.0336  0.3030  0.1685
 9700WAT      O40604  -3.597   9.102   5.538 -0.5167 -0.3584 -0.5563
 9700WAT     H140605  -3.674   9.094   5.594 -0.9840 -0.0123 -1.1489
 9700WAT     H240606  -3.540   9.030   5.567 -1.4566 -1.1939 -0.7379
 9700WAT    EPW40607  -3.599   9.091   5.549 -0.7021 -0.4230 -0.6585
 9701WAT      O40608  -5.411   6.354   8.051  0.2054 -0.5281 -0.0440
 9701WAT     H140609  -5.415   6.319   8.140 -1.2778  0.7565  0.4425
 9701WAT     H240610  -5.410   6.276   7.995 -1.1299 -1.3769  1.0426
 9701WAT    EPW40611  -5.411   6.339   8.056 -0.1667 -0.4706  0.1636
 9702WAT      O40612  -1.857   3.923   6.346 -0.2996  0.0014 -0.3477
 9702WAT     H140613  -1.818   3.896   6.429 -0.6315  1.3451  0.2711
 9702WAT     H240614  -1.864   3.842   6.295  0.4386 -0.7455  0.7099
 9702WAT    EPW40615  -1.853   3.908   6.350 -0.2460  0.0802 -0.1266
 9703WAT      O40616   3.271   3.508   6.693  0.1971 -0.7658 -0.0943
 9703WAT     H140617   3.236   3.422   6.715 -0.7225 -0.7914 -1.5215
 9703WAT     H240618   3.261   3.559   6.773 -0.9170 -1.4832  0.2514
 9703WAT    EPW40619   3.265   3.504   6.706 -0.0712 -0.8638 -0.2370
 9704WAT      O40620   1.971   4.425   6.091  0.5905 -0.2252 -0.3789
 9704WAT     H140621   1.932   4.338   6.097  2.5047 -1.0492  1.0020
 9704WAT     H240622   1.906   4.476   6.042 -2.5029 -1.3176  2.2163
 9704WAT    EPW40623   1.957   4.420   6.085  0.4350 -0.4778  0.1454
 9705WAT      O40624  -1.792   7.167   7.884  0.2947 -0.0168 -0.0931
 9705WAT     H140625  -1.778   7.166   7.789 -0.6183  0.2937 -0.2454
 9705WAT     H240626  -1.784   7.076   7.911  1.5311  0.0044 -0.2998
 9705WAT    EPW40627  -1.789   7.155   7.875  0.3374  0.0272 -0.1407
 9706WAT      O40628  -4.576   3.456   6.559 -0.4710 -0.1067  0.2095
 9706WAT     H140629  -4.536   3.518   6.497 -0.2481  0.1360  0.5918
 9706WAT     H240630  -4.566   3.371   6.516  0.3406 -0.0349  0.2291
 9706WAT    EPW40631  -4.569   3.453   6.545 -0.3345 -0.0652  0.2627
 9707WAT      O40632  -1.127   6.354   1.391 -0.0291 -0.3244  0.5600
 9707WAT     H140633  -1.170   6.305   1.321  1.7904 -3.2986  1.3501
 9707WAT     H240634  -1.047   6.389   1.352 -0.1523 -0.0088  0.5872
 9707WAT    EPW40635  -1.122   6.352   1.377  0.1946 -0.6752  0.6678
 9708WAT      O40636  -3.404  10.121   1.472  0.0663 -0.1283  0.2967
 9708WAT     H140637  -3.365  10.062   1.536  1.8075 -1.7077 -2.0247
 9708WAT     H240638  -3.356  10.103   1.391 -2.5869  1.0794 -1.7008
 9708WAT    EPW40639  -3.393  10.111   1.470 -0.0541 -0.1774 -0.2729
 9709WAT      O40640   7.931   3.726   2.683  0.2971 -0.0428 -0.4732
 9709WAT     H140641   7.984   3.649   2.702  1.3075  0.7909  0.1628
 9709WAT     H240642   7.870   3.697   2.615  0.4552 -1.4798 -0.0287
 9709WAT    EPW40643   7.930   3.712   2.677  0.4511 -0.1223 -0.3307
 9710WAT      O40644   4.553   8.810   3.671 -0.6829  0.0548  0.3114
 9710WAT     H140645   4.476   8.758   3.648  0.2999 -0.4816 -2.0650
 9710WAT     H240646   4.553   8.882   3.608 -1.5722  2.6386  3.0352
 9710WAT    EPW40647   4.543   8.813   3.660 -0.6704  0.3252  0.3573
 9711WAT      O40648  -0.721   6.168   0.947  0.2321 -0.5709  0.7192
 9711WAT     H140649  -0.771   6.165   0.866  1.2037  2.4430 -0.1286
 9711WAT     H240650  -0.697   6.077   0.964 -1.2911 -1.4739 -1.5144
 9711WAT    EPW40651  -0.725   6.156   0.938  0.1594 -0.2923  0.3128
 9712WAT      O40652   0.582   3.895   3.106  0.3149  0.4885 -0.4405
 9712WAT     H140653   0.663   3.851   3.132  0.4450  1.0108  0.0644
 9712WAT     H240654   0.513   3.830   3.122  0.2186  1.1359  2.4579
 9712WAT    EPW40655   0.584   3.881   3.112  0.3194  0.6428  0.0083
 9713WAT      O40656   0.887   4.104   8.417  0.1046  0.0015 -0.1888
 9713WAT     H140657   0.922   4.086   8.329 -0.3934  0.6068 -0.5141
 9713WAT     H240658   0.801   4.142   8.401  0.9988  2.4716  0.4558
 9713WAT    EPW40659   0.880   4.107   8.403  0.1569  0.4070 -0.1469
 9714WAT      O40660  -6.093   8.473   8.367 -0.5061  0.3518 -0.0452
 9714WAT     H140661  -6.097   8.388   8.322 -1.2563  1.3501 -1.9599
 9714WAT     H240662  -6.102   8.451   8.460 -0.9460 -1.6442 -0.5140
 9714WAT    EPW40663  -6.095   8.459   8.373 -0.6630  0.2203 -0.3595
 9715WAT      O40664  -1.226   4.304   0.049  0.4708  0.1102  0.0350
 9715WAT     H140665  -1.213   4.209   0.051  3.3175  0.4142  0.4521
 9715WAT     H240666  -1.223   4.327  -0.044 -1.6362 -0.2957 -0.1808
 9715WAT    EPW40667  -1.224   4.294   0.037  0.5684  0.0968  0.0616
 9716WAT      O40668   2.549   9.906   3.814  0.0087  0.4528 -0.2406
 9716WAT     H140669   2.599   9.837   3.771  2.2303  3.0363 -2.2249
 9716WAT     H240670   2.532   9.969   3.744 -2.6673  1.5639  1.2760
 9716WAT    EPW40671   2.554   9.905   3.799 -0.0511  0.9398 -0.3023
 9717WAT      O40672   4.465   6.444   0.715  0.4450  1.2577  0.5344
 9717WAT     H140673   4.541   6.411   0.763  0.7222  0.6444 -0.2902
 9717WAT     H240674   4.412   6.366   0.697  0.2984  1.4801 -0.0415
 9717WAT    EPW40675   4.468   6.429   0.719  0.4625  1.2062  0.3497
 9718WAT      O40676  -4.810   5.004   6.258  0.3010  0.0245  0.6772
 9718WAT     H140677  -4.759   5.055   6.321 -2.0173  2.9180  0.4388
 9718WAT     H240678  -4.757   5.006   6.178 -0.2915  3.7402  0.1630
 9718WAT    EPW40679  -4.796   5.011   6.256 -0.0830  0.8960  0.5779
 9719WAT      O40680  -0.546   6.952   8.184  0.4484 -0.4205  0.2481
 9719WAT     H140681  -0.559   6.993   8.099 -0.4320 -0.2886  0.4356
 9719WAT     H240682  -0.496   6.873   8.165  0.9171  0.0006 -0.2930
 9719WAT    EPW40683  -0.541   6.947   8.171  0.3941 -0.3476  0.2017
 9720WAT      O40684   3.325   6.154   5.133  0.1995 -0.3080  0.5613
 9720WAT     H140685   3.391   6.203   5.082 -0.3289  0.0058  0.1724
 9720WAT     H240686   3.249   6.212   5.136 -1.1876 -1.8671 -1.6469
 9720WAT    EPW40687   3.324   6.168   5.127 -0.0532 -0.4721  0.2186
 9721WAT      O40688  -1.322   6.242   7.308 -1.0945  0.7674 -0.4333
 9721WAT     H140689  -1.247   6.301   7.302 -2.3202  2.2916 -1.8579
 9721WAT     H240690  -1.315   6.204   7.396  0.8520  1.4913 -0.2112
 9721WAT    EPW40691  -1.311   6.245   7.319 -0.9994  1.0641 -0.5918
 9722WAT      O40692   0.163   7.310   5.890  0.4107  0.1592 -0.1425
 9722WAT     H140693   0.089   7.342   5.941 -0.4738  1.1057 -1.9213
 9722WAT     H240694   0.230   7.377   5.901  1.3203 -0.9866  1.9611
 9722WAT    EPW40695   0.162   7.323   5.898  0.4140  0.1328 -0.0997
 9723WAT      O40696  -1.236   7.591   6.492  0.2544  0.4400 -0.2282
 9723WAT     H140697  -1.291   7.517   6.466  1.6815 -0.0386 -2.1733
 9723WAT     H240698  -1.147   7.560   6.479  0.9838  1.5525  1.7903
 9723WAT    EPW40699  -1.232   7.578   6.487  0.5388  0.5236 -0.2184
 9724WAT      O40700   1.395   0.171   3.280  0.4531  0.0339  0.6846
 9724WAT     H140701   1.464   0.217   3.327 -0.5309  3.2075 -0.6739
 9724WAT     H240702   1.317   0.181   3.335  0.7803 -2.7466  1.7862
 9724WAT    EPW40703   1.393   0.178   3.293  0.3664  0.0857  0.6506
 9725WAT      O40704   2.217   4.704   2.058  0.0280  0.2643 -0.5483
 9725WAT     H140705   2.191   4.791   2.028  0.9020  0.4283 -0.8601
 9725WAT     H240706   2.146   4.646   2.029 -0.5212  0.8575 -0.4043
 9725WAT    EPW40707   2.204   4.707   2.050  0.0709  0.3643 -0.5704
 9726WAT      O40708   4.086   5.988   3.109 -0.2233 -0.1835 -0.1136
 9726WAT     H140709   4.005   6.035   3.087  0.4116  1.8929  1.5994
 9726WAT     H240710   4.056   5.910   3.156 -1.3127 -1.5780 -2.9295
 9726WAT    EPW40711   4.071   5.984   3.113 -0.2832 -0.0935 -0.2592
 9727WAT      O40712  -3.556   6.421   4.827  0.1422  0.0699  0.3239
 9727WAT     H140713  -3.584   6.513   4.823 -0.6402 -0.1908 -0.3718
 9727WAT     H240714  -3.508   6.407   4.745  1.1973  0.1359  0.9069
 9727WAT    EPW40715  -3.553   6.432   4.816  0.1781  0.0441  0.3090
 9728WAT      O40716   2.894   2.315   4.261  0.0672 -0.4099 -0.1534
 9728WAT     H140717   2.862   2.337   4.348  0.5095 -1.5098  0.3053
 9728WAT     H240718   2.818   2.324   4.204 -0.4212 -0.4772  0.4812
 9728WAT    EPW40719   2.880   2.319   4.265  0.0610 -0.5640 -0.0093
 9729WAT      O40720  -3.036   4.766   7.419  0.0723  0.5614  0.6757
 9729WAT     H140721  -3.007   4.851   7.386 -1.5144  1.3735  1.2753
 9729WAT     H240722  -2.987   4.702   7.366 -0.2308  1.8161 -1.2321
 9729WAT    EPW40723  -3.026   4.768   7.407 -0.1769  0.8337  0.5033
 9730WAT      O40724  -1.798   1.875   6.007  0.0145  0.4052  0.7776
 9730WAT     H140725  -1.852   1.800   5.981 -0.9097  0.3304  2.7308
 9730WAT     H240726  -1.722   1.871   5.948 -1.1805 -0.6017 -0.7874
 9730WAT    EPW40727  -1.795   1.865   5.995 -0.2649  0.2626  0.8290
 9731WAT      O40728   7.039   0.115   0.497 -0.2824  0.0730 -0.5629
 9731WAT     H140729   6.994   0.041   0.457 -1.3509  0.3358  0.1187
 9731WAT     H240730   7.064   0.171   0.423  1.6165 -1.4976 -1.2024
 9731WAT    EPW40731   7.036   0.113   0.482 -0.1729 -0.0995 -0.5573
 9732WAT      O40732  -0.187  10.035   5.343 -0.1166  0.3029 -0.6281
 9732WAT     H140733  -0.180  10.124   5.377  0.7970  0.6789 -1.7302
 9732WAT     H240734  -0.137  10.037   5.261  1.5346 -1.7095  0.2477
 9732WAT    EPW40735  -0.180  10.047   5.336  0.2217  0.0873 -0.6580
 9733WAT      O40736   3.882   9.501   1.365  0.1003 -0.1011 -0.3450
 9733WAT     H140737   3.912   9.430   1.421  1.4735  0.5350 -0.2444
 9733WAT     H240738   3.956   9.562   1.362 -1.0793  1.3799 -0.3382
 9733WAT    EPW40739   3.896   9.499   1.372  0.1258  0.1783 -0.3308
 9734WAT      O40740  -1.165   3.819   6.413 -0.5327  0.7258 -0.6361
 9734WAT     H140741  -1.254   3.833   6.445 -0.7421  0.4499 -1.0950
 9734WAT     H240742  -1.167   3.732   6.373 -0.2988  1.1076 -1.4999
 9734WAT    EPW40743  -1.177   3.809   6.412 -0.5295  0.7398 -0.8106
 9735WAT      O40744  -2.262   1.749   7.645  0.4707 -0.2392  0.4468
 9735WAT     H140745  -2.231   1.659   7.646  0.3879 -0.2599  1.1781
 9735WAT     H240746  -2.228   1.785   7.563  2.4195 -0.2562  1.2056
 9735WAT    EPW40747  -2.253   1.742   7.634  0.7167 -0.2441  0.6435
 9736WAT      O40748   1.378   6.245   5.024  0.6252  0.1484  0.3891
 9736WAT     H140749   1.296   6.282   4.991 -0.2287  1.3967  3.5595
 9736WAT     H240750   1.446   6.301   4.987  0.1343 -0.9557 -2.3625
 9736WAT    EPW40751   1.376   6.257   5.015  0.4478  0.1674  0.4444
 9737WAT      O40752   3.202   9.397   5.449  0.7021 -0.2865  0.2126
 9737WAT     H140753   3.196   9.314   5.496 -0.1617 -0.6686 -0.5304
 9737WAT     H240754   3.294   9.404   5.425  0.4989 -1.9234 -1.2370
 9737WAT    EPW40755   3.213   9.387   5.452  0.5612 -0.5531 -0.0765
 9738WAT      O40756   4.082   6.679   1.947  0.0945  0.0027  0.4894
 9738WAT     H140757   4.011   6.718   1.998 -0.4735  1.4701 -1.2899
 9738WAT     H240758   4.039   6.645   1.869  0.9366 -2.1783  0.9094
 9738WAT    EPW40759   4.067   6.680   1.943  0.1307 -0.0913  0.3101
 9739WAT      O40760   4.981   4.725   3.766 -0.1162  0.5535 -0.0776
 9739WAT     H140761   4.999   4.643   3.813 -1.6729 -1.0953 -2.1265
 9739WAT     H240762   4.885   4.730   3.763 -0.0421  2.4454 -0.0648
 9739WAT    EPW40763   4.971   4.715   3.771 -0.3116  0.5856 -0.3462
 9740WAT      O40764  -0.259   5.358   3.546  0.0080 -0.7789  0.8931
 9740WAT     H140765  -0.201   5.364   3.621  0.3515 -0.3350  0.5908
 9740WAT     H240766  -0.207   5.316   3.478 -0.3677 -1.3709  0.9647
 9740WAT    EPW40767  -0.245   5.353   3.547  0.0038 -0.7985  0.8626
 9741WAT      O40768   0.340   4.101   5.310 -0.3325  0.2609  0.0343
 9741WAT     H140769   0.399   4.170   5.280 -0.5006  0.0390 -0.8387
 9741WAT     H240770   0.264   4.147   5.343  0.6164  0.5846  1.8729
 9741WAT    EPW40771   0.338   4.116   5.310 -0.2295  0.2742  0.1616
 9742WAT      O40772  -0.691   6.547   7.446  0.2122 -0.6539  0.7092
 9742WAT     H140773  -0.753   6.557   7.518  2.5808 -1.6333  3.0433
 9742WAT     H240774  -0.647   6.632   7.440  0.0790 -0.6004  0.4499
 9742WAT    EPW40775  -0.693   6.560   7.454  0.5071 -0.7763  0.9828
 9743WAT      O40776   3.730  10.125   3.208 -0.7369 -0.2199  0.1272
 9743WAT     H140777   3.780  10.081   3.140  0.0574  1.9844 -0.8346
 9743WAT     H240778   3.775  10.102   3.290 -0.5381 -1.3717 -0.2868
 9743WAT    EPW40779   3.743  10.117   3.210 -0.6059 -0.0811 -0.0542
 9744WAT      O40780   5.682   4.271   2.323 -1.0586 -0.2345  0.0610
 9744WAT     H140781   5.593   4.260   2.355 -1.2916  0.9794 -0.1413
 9744WAT     H240782   5.735   4.216   2.381 -1.4745  1.7733  2.5166
 9744WAT    EPW40783   5.677   4.262   2.335 -1.1442  0.1903  0.3582
 9745WAT      O40784  -2.312   2.914   3.368  0.3415  0.0572  0.6764
 9745WAT     H140785  -2.246   2.857   3.329 -2.1476 -1.8693 -1.1061
 9745WAT     H240786  -2.380   2.920   3.301 -2.4558 -0.2410  3.2727
 9745WAT    EPW40787  -2.313   2.907   3.354 -0.3557 -0.2363  0.7837
 9746WAT      O40788  -4.402   9.153   5.963  0.1703  0.8675 -0.6517
 9746WAT     H140789  -4.332   9.161   5.897  0.3752 -0.6662 -0.6541
 9746WAT     H240790  -4.356   9.158   6.047 -0.0396  2.3763 -0.6010
 9746WAT    EPW40791  -4.386   9.155   5.965  0.1695  0.8645 -0.6452
 9747WAT      O40792  -1.602   6.501   5.494  0.3936 -0.3314  0.1574
 9747WAT     H140793  -1.635   6.419   5.458 -1.5286  1.3064 -2.1127
 9747WAT     H240794  -1.681   6.552   5.513  1.5324  1.2569  0.8473
 9747WAT    EPW40795  -1.616   6.497   5.492  0.2902  0.0942 -0.0508
 9748WAT      O40796   2.026   1.513   5.800  0.4427  0.3906  0.3078
 9748WAT     H140797   2.074   1.573   5.743 -2.2677  0.9440 -1.5814
 9748WAT     H240798   2.082   1.504   5.878  4.0940 -0.0014 -2.1271
 9748WAT    EPW40799   2.040   1.520   5.803  0.5667  0.4119 -0.2625
 9749WAT      O40800   0.148  10.035   8.921 -0.1894 -0.5947 -0.4741
 9749WAT     H140801   0.204   9.963   8.949 -1.2200 -1.3457 -0.2637
 9749WAT     H240802   0.153  10.098   8.993  0.1677 -0.7782 -0.3351
 9749WAT    EPW40803   0.156  10.034   8.934 -0.2782 -0.7181 -0.4277
 9750WAT      O40804   6.022   6.272   1.537  0.4731 -0.3519  0.5414
 9750WAT     H140805   6.008   6.177   1.533  2.2460 -0.6519  0.3618
 9750WAT     H240806   6.105   6.285   1.491  0.4829  1.2358  0.9686
 9750WAT    EPW40807   6.031   6.261   1.531  0.7083 -0.1822  0.5741
 9751WAT      O40808  -0.706   8.857   1.865 -0.0369 -0.1590  0.0491
 9751WAT     H140809  -0.782   8.799   1.876  0.1372 -0.6044 -0.9645
 9751WAT     H240810  -0.680   8.881   1.954 -0.8559 -0.6746  0.4311
 9751WAT    EPW40811  -0.713   8.852   1.878 -0.1220 -0.2856 -0.0342
 9752WAT      O40812   5.169   3.874   4.710 -0.6336  0.2597 -0.0912
 9752WAT     H140813   5.254   3.883   4.667 -1.7321  0.3784 -2.4093
 9752WAT     H240814   5.156   3.780   4.718  0.3670  0.2388  1.7691
 9752WAT    EPW40815   5.179   3.863   4.705 -0.6466  0.2726 -0.1516
 9753WAT      O40816  -1.431   1.083   1.714 -0.4440 -0.2267  0.1733
 9753WAT     H140817  -1.484   1.128   1.648  0.7328 -0.0304 -0.6799
 9753WAT     H240818  -1.414   1.150   1.780  0.9038  0.5206 -0.8576
 9753WAT    EPW40819  -1.436   1.098   1.714 -0.1110 -0.1022 -0.0752
 9754WAT      O40820   0.210   9.895   2.252  0.1712  0.3113  0.4443
 9754WAT     H140821   0.177   9.858   2.333  0.2709  0.3859  0.5196
 9754WAT     H240822   0.305   9.883   2.257  0.2205  0.7137  0.5396
 9754WAT    EPW40823   0.218   9.889   2.263  0.1909  0.3743  0.4668
 9755WAT      O40824   1.831   2.021   8.509 -0.5743  0.6565 -1.1535
 9755WAT     H140825   1.856   2.078   8.582 -0.6172  0.6794 -1.1560
 9755WAT     H240826   1.912   2.007   8.459  0.1338 -1.7907  0.5250
 9755WAT    EPW40827   1.845   2.027   8.512 -0.4866  0.3368 -0.9322
 9756WAT      O40828   4.664   5.303   1.498 -0.6174 -0.1675  0.1989
 9756WAT     H140829   4.759   5.311   1.511  0.1273 -2.5755 -2.5219
 9756WAT     H240830   4.652   5.318   1.404 -2.5062 -2.4938 -0.0226
 9756WAT    EPW40831   4.675   5.306   1.487 -0.7682 -0.7918 -0.1891
 9757WAT      O40832   0.926   8.164   4.443  0.6307  0.2577  0.1911
 9757WAT     H140833   0.914   8.119   4.359 -3.5222 -1.2403  1.3329
 9757WAT     H240834   0.967   8.098   4.499 -0.2950 -0.1832  0.3666
 9757WAT    EPW40835   0.930   8.149   4.439 -0.0391  0.0024  0.3645
 9758WAT      O40836  -0.165   5.893   8.308 -1.0959  0.2854  0.4360
 9758WAT     H140837  -0.089   5.916   8.361 -1.0421  1.6407 -0.1975
 9758WAT     H240838  -0.141   5.810   8.266  0.1384  0.8193  0.0451
 9758WAT    EPW40839  -0.152   5.885   8.309 -0.9260  0.5345  0.3004
 9759WAT      O40840   4.426   8.062   4.193 -0.5286 -0.7300  0.2847
 9759WAT     H140841   4.367   8.015   4.253 -0.0922  0.3229  1.5937
 9759WAT     H240842   4.481   8.115   4.250  0.2238 -0.0227 -1.0419
 9759WAT    EPW40843   4.425   8.063   4.208 -0.3719 -0.4978  0.2823
 9760WAT      O40844   6.882   4.383   1.129  0.0249  0.6444 -0.3548
 9760WAT     H140845   6.854   4.376   1.221  0.9991  1.9147  0.0762
 9760WAT     H240846   6.966   4.429   1.134 -0.7920  2.3969 -2.0265
 9760WAT    EPW40847   6.890   4.388   1.142  0.0458  1.0431 -0.5184
 9761WAT      O40848   0.186   0.132   8.066 -0.1009 -0.1490 -0.7488
 9761WAT     H140849   0.091   0.139   8.075  0.0032  3.0306 -0.8182
 9761WAT     H240850   0.216   0.223   8.072  3.1772 -1.2244  1.7100
 9761WAT    EPW40851   0.177   0.145   8.068  0.3452  0.1285 -0.4334
 9762WAT      O40852  -5.089   7.004   7.581 -0.6784  0.4065  0.3333
 9762WAT     H140853  -5.063   6.917   7.550 -1.4784  0.5600 -0.8336
 9762WAT     H240854  -5.037   7.065   7.530 -0.6742  0.6374  0.6078
 9762WAT    EPW40855  -5.079   7.001   7.570 -0.7834  0.4573  0.2155
 9763WAT      O40856   6.875   1.483   5.356 -0.7242 -0.2195 -0.4688
 9763WAT     H140857   6.843   1.553   5.299 -0.1620  0.3114 -0.1462
 9763WAT     H240858   6.885   1.408   5.298 -0.7275  0.1483 -0.9536
 9763WAT    EPW40859   6.872   1.483   5.340 -0.6506 -0.1010 -0.4904
 9764WAT      O40860   7.817   7.592   0.436 -0.5202  0.2583  0.3175
 9764WAT     H140861   7.729   7.559   0.450  0.1032 -0.7890  1.9774
 9764WAT     H240862   7.830   7.657   0.505  0.3358 -0.2640  0.6596
 9764WAT    EPW40863   7.808   7.596   0.447 -0.3250  0.0513  0.5815
 9765WAT      O40864   3.100   0.627   5.299  0.1993 -0.1479  0.0221
 9765WAT     H140865   3.141   0.651   5.382 -1.7901 -1.0369  1.3630
 9765WAT     H240866   3.101   0.708   5.248  1.6411  0.3789  0.8202
 9765WAT    EPW40867   3.105   0.641   5.303  0.1272 -0.1957  0.3042
 9766WAT      O40868   5.312   2.786   3.568 -0.9852 -0.2451 -0.1567
 9766WAT     H140869   5.323   2.705   3.619 -0.7409 -1.7649 -2.4800
 9766WAT     H240870   5.236   2.829   3.608 -1.3739 -1.8030  0.8914
 9766WAT    EPW40871   5.303   2.781   3.580 -1.0045 -0.6510 -0.3250
 9767WAT      O40872   3.191   4.723   1.675  0.4832  0.1250 -0.2701
 9767WAT     H140873   3.149   4.804   1.706  0.4878  0.6006 -1.4560
 9767WAT     H240874   3.158   4.655   1.734 -1.1079  0.6696 -0.4733
 9767WAT    EPW40875   3.181   4.725   1.687  0.2739  0.2596 -0.4533
 9768WAT      O40876   4.242   4.454   0.233  0.2124  0.1407  0.0884
 9768WAT     H140877   4.198   4.416   0.309  1.7005 -1.2260  0.3340
 9768WAT     H240878   4.198   4.537   0.218 -1.6852 -0.6484  0.9785
 9768WAT    EPW40879   4.230   4.460   0.241  0.1583 -0.1435  0.2382
 9769WAT      O40880  -6.731   8.907   6.694 -0.5370  0.2683  0.2764
 9769WAT     H140881  -6.692   8.852   6.626 -0.6822 -0.8201  1.0370
 9769WAT     H240882  -6.711   8.860   6.776 -2.9065 -0.0164  0.7429
 9769WAT    EPW40883  -6.723   8.893   6.696 -0.8688  0.0873  0.4380
 9770WAT      O40884  -1.550   6.043   3.580  0.6663  0.1112  0.4108
 9770WAT     H140885  -1.586   6.009   3.498  0.7210 -0.1847  0.5079
 9770WAT     H240886  -1.576   6.135   3.581  1.6064  0.4122 -0.4739
 9770WAT    EPW40887  -1.558   6.051   3.569  0.7975  0.1118  0.3070
 9771WAT      O40888  -0.853   6.431   1.278 -0.0147  0.4724  0.6292
 9771WAT     H140889  -0.816   6.518   1.260  1.7986 -0.6442 -1.5847
 9771WAT     H240890  -0.804   6.399   1.353  2.2819 -0.1601 -1.0188
 9771WAT    EPW40891  -0.842   6.438   1.285  0.5273  0.2418  0.1198
 9772WAT      O40892   4.929   6.951   3.045 -0.3529  0.0218 -0.0778
 9772WAT     H140893   4.886   6.945   3.130 -1.1992  0.3832 -0.4738
 9772WAT     H240894   4.879   6.894   2.988  1.7840 -2.3575  0.2481
 9772WAT    EPW40895   4.917   6.943   3.049 -0.1826 -0.2444 -0.0869
 9773WAT      O40896   1.409   5.283   5.887 -0.1771 -0.1398 -0.8425
 9773WAT     H140897   1.319   5.316   5.879  0.1547  0.3557 -3.1311
 9773WAT     H240898   1.412   5.208   5.827 -0.0504 -2.5952  1.9978
 9773WAT    EPW40899   1.397   5.277   5.878 -0.1166 -0.3982 -0.7699
 9774WAT      O40900   3.069   2.034   3.764 -0.1030 -0.0815  0.5462
 9774WAT     H140901   3.054   2.027   3.859 -1.4889 -3.7728  0.2039
 9774WAT     H240902   3.145   1.979   3.748  0.9188  1.5159 -0.4477
 9774WAT    EPW40903   3.077   2.026   3.775 -0.1509 -0.3575  0.3699
 9775WAT      O40904   1.369   5.032   7.924 -0.0564 -0.4455  0.2048
 9775WAT     H140905   1.336   4.974   7.855 -0.1030  0.4277 -0.5356
 9775WAT     H240906   1.291   5.057   7.973 -0.0799 -0.7658  0.3294
 9775WAT    EPW40907   1.355   5.028   7.921 -0.0656 -0.3726  0.1235
 9776WAT      O40908  -1.130   7.367   0.139 -0.4430  0.2552  0.0979
 9776WAT     H140909  -1.084   7.292   0.176  2.8430  2.8636  1.9215
 9776WAT     H240910  -1.204   7.382   0.198 -0.5715 -0.9661  0.2667
 9776WAT    EPW40911  -1.134   7.359   0.152 -0.0265  0.4380  0.3607
 9777WAT      O40912   0.131   8.580   2.339 -0.0797  0.7035 -0.3201
 9777WAT     H140913   0.114   8.573   2.433 -0.0927  1.2955 -0.2748
 9777WAT     H240914   0.046   8.602   2.301  0.0327  0.9903 -0.4078
 9777WAT    EPW40915   0.117   8.582   2.346 -0.0666  0.8187 -0.3257
 9778WAT      O40916  -1.415   9.565   3.130 -0.2673 -0.3939 -0.0739
 9778WAT     H140917  -1.443   9.484   3.086 -0.9412  0.3826 -1.1230
 9778WAT     H240918  -1.484   9.628   3.109  0.7063  0.7135 -0.0506
 9778WAT    EPW40919  -1.428   9.563   3.121 -0.2278 -0.1454 -0.2092
 9779WAT      O40920  -1.991   1.874   4.367  0.0992 -0.3442  0.2884
 9779WAT     H140921  -1.941   1.918   4.435  0.2973  1.3606 -0.8812
 9779WAT     H240922  -1.965   1.782   4.374  2.4714  0.2658  0.5392
 9779WAT    EPW40923  -1.981   1.868   4.377  0.4382 -0.0389  0.1671
 9780WAT      O40924  -4.147   7.703   7.968 -0.5350 -0.1740  0.0216
 9780WAT     H140925  -4.055   7.701   7.942 -0.8787 -0.9528 -1.2673
 9780WAT     H240926  -4.194   7.667   7.892 -1.6617 -2.2807  1.5859
 9780WAT    EPW40927  -4.141   7.698   7.955 -0.7288 -0.5543  0.0577
 9781WAT      O40928   0.064   9.789   3.565 -0.7175  0.3242  0.1889
 9781WAT     H140929   0.159   9.795   3.573 -0.7125 -0.1074  0.4422
 9781WAT     H240930   0.040   9.864   3.510 -0.3510  1.0655  1.0157
 9781WAT    EPW40931   0.073   9.800   3.559 -0.6685  0.3653  0.3313
 9782WAT      O40932   2.550   2.233   4.004  0.0379  0.7210  0.8594
 9782WAT     H140933   2.510   2.236   4.090  0.6091 -1.2339  1.2400
 9782WAT     H240934   2.502   2.297   3.952 -3.2714 -1.0947  1.4210
 9782WAT    EPW40935   2.538   2.242   4.008 -0.3233  0.2236  0.9837
 9783WAT      O40936   1.864   5.705   6.569  0.4272  0.3511 -0.2423
 9783WAT     H140937   1.878   5.614   6.544 -0.9821 -0.4805  1.7273
 9783WAT     H240938   1.770   5.711   6.585  0.4789  2.1920 -0.4190
 9783WAT    EPW40939   1.854   5.694   6.568  0.2482  0.4840 -0.0057
 9784WAT      O40940  -3.957  10.077   4.141  0.8326 -0.1460  0.2347
 9784WAT     H140941  -4.043  10.117   4.151  2.0604  3.6862 -2.3329
 9784WAT     H240942  -3.967  10.018   4.065  0.6517  1.2128 -0.8427
 9784WAT    EPW40943  -3.970  10.075   4.132  0.9707  0.5383 -0.2460
 9785WAT      O40944  -0.975   1.349   4.516  0.4344 -0.1074 -0.4415
 9785WAT     H140945  -1.049   1.312   4.563 -2.2570  1.7482 -2.8882
 9785WAT     H240946  -0.975   1.442   4.539  2.6270 -0.1831  0.1544
 9785WAT    EPW40947  -0.985   1.357   4.526  0.3686  0.1273 -0.6855
 9786WAT      O40948  -3.493   0.611   7.419 -0.6547  0.0989 -0.1142
 9786WAT     H140949  -3.538   0.530   7.442 -0.4143  0.4395  1.7518
 9786WAT     H240950  -3.542   0.679   7.465 -1.0757  1.0758 -1.9572
 9786WAT    EPW40951  -3.505   0.609   7.428 -0.6785  0.2727 -0.1111
 9787WAT      O40952  -0.643   6.444   4.360  0.2598 -0.2612 -0.3342
 9787WAT     H140953  -0.587   6.382   4.314 -0.3263  0.6874 -2.4636
 9787WAT     H240954  -0.653   6.517   4.299  0.7963  1.8930  1.9861
 9787WAT    EPW40955  -0.637   6.446   4.346  0.2532  0.1481 -0.3090
 9788WAT      O40956  -5.368   2.811   7.895  0.0259  0.0147 -0.1554
 9788WAT     H140957  -5.396   2.870   7.825  4.1082 -0.2904 -2.3954
 9788WAT     H240958  -5.274   2.826   7.903  0.8098 -4.1354  1.1176
 9788WAT    EPW40959  -5.359   2.820   7.887  0.6678 -0.5729 -0.2830
 9789WAT      O40960  -3.770   8.621   8.845  0.2498  0.2212 -0.5304
 9789WAT     H140961  -3.733   8.546   8.798 -0.2310  0.7849 -1.8639
 9789WAT     H240962  -3.737   8.697   8.797 -0.7370  0.8016 -0.3056
 9789WAT    EPW40963  -3.760   8.621   8.832  0.0563  0.3724 -0.6766
 9790WAT      O40964   4.497   7.282   4.125  0.3944  0.3430 -0.6097
 9790WAT     H140965   4.550   7.350   4.085 -0.0263  1.1398  0.1611
 9790WAT     H240966   4.497   7.210   4.061 -0.0286  1.4602 -1.9121
 9790WAT    EPW40967   4.504   7.281   4.111  0.2830  0.5953 -0.6797
 9791WAT      O40968  -0.617   2.943   3.022 -0.3302 -0.2341  0.1363
 9791WAT     H140969  -0.621   2.851   3.046  0.1939 -0.2927  0.0199
 9791WAT     H240970  -0.572   2.985   3.096 -0.8289 -0.0227  0.3225
 9791WAT    EPW40971  -0.611   2.937   3.035 -0.3268 -0.2139  0.1456
 9792WAT      O40972   5.742   1.913   4.631  0.7533 -0.4225 -0.5239
 9792WAT     H140973   5.729   2.002   4.661  0.9171 -0.8245  0.8349
 9792WAT     H240974   5.654   1.878   4.618  0.5737 -0.8295  1.4364
 9792WAT    EPW40975   5.729   1.920   4.634  0.7510 -0.5292 -0.0861
 9793WAT      O40976   1.550   0.384   8.887 -0.0851 -0.0308 -0.9205
 9793WAT     H140977   1.496   0.326   8.940  0.6211  0.0860 -0.0620
 9793WAT     H240978   1.487   0.442   8.843 -0.6732 -0.0607 -0.1311
 9793WAT    EPW40979   1.534   0.384   8.888 -0.0695 -0.0194 -0.7038
 9794WAT      O40980   3.817   7.701   4.114  0.0342 -0.4931  0.4385
 9794WAT     H140981   3.732   7.661   4.132 -0.2384 -0.3570 -0.5298
 9794WAT     H240982   3.832   7.759   4.189 -0.0077 -1.6557  1.3710
 9794WAT    EPW40983   3.808   7.703   4.127 -0.0072 -0.6285  0.4337
 9795WAT      O40984   1.832   7.733   7.302 -0.2286 -0.6960  0.0105
 9795WAT     H140985   1.922   7.760   7.316 -0.8851  0.6372  2.1617
 9795WAT     H240986   1.780   7.812   7.315 -1.7699 -1.6318 -0.1439
 9795WAT    EPW40987   1.837   7.747   7.306 -0.5184 -0.6435  0.2739
 9796WAT      O40988  -0.191   3.404   6.586 -0.3109 -0.7633  0.4057
 9796WAT     H140989  -0.248   3.327   6.583 -1.8487  0.1711  3.0670
 9796WAT     H240990  -0.248   3.478   6.568  0.2269  0.1000  2.0351
 9796WAT    EPW40991  -0.206   3.403   6.583 -0.4428 -0.5262  0.9716
 9797WAT      O40992   1.202   2.138   2.875  0.4466  0.4279  0.1907
 9797WAT     H140993   1.224   2.046   2.891  0.8797  0.6098  0.6694
 9797WAT     H240994   1.214   2.150   2.781 -1.8122 -0.5816 -0.2979
 9797WAT    EPW40995   1.206   2.128   2.865  0.2058  0.3186  0.1893
 9798WAT      O40996  -2.412   7.461   0.299 -0.0333  0.4939 -0.0020
 9798WAT     H140997  -2.353   7.419   0.361 -0.3494 -0.0797 -0.0820
 9798WAT     H240998  -2.412   7.402   0.223 -0.7832  0.4325  0.0373
 9798WAT    EPW40999  -2.404   7.447   0.297 -0.1739  0.4101 -0.0074
 9799WAT      O41000   3.742   8.835   3.129 -0.2591 -0.3871 -0.0504
 9799WAT     H141001   3.715   8.745   3.115  1.6166 -0.7987 -1.4185
 9799WAT     H241002   3.773   8.864   3.043 -2.1191  2.0530  0.0074
 9799WAT    EPW41003   3.743   8.827   3.116 -0.2570 -0.1197 -0.2233
 9800WAT      O41004  -4.178   7.732   4.004  0.1272 -0.4197 -0.1887
 9800WAT     H141005  -4.157   7.824   3.986  2.3466 -0.1743  2.9549
 9800WAT     H241006  -4.100   7.684   3.979 -0.4423 -1.2726 -0.3694
 9800WAT    EPW41007  -4.165   7.738   3.998  0.3448 -0.4997  0.2019
 9801WAT      O41008  -6.667   8.062   8.824  0.1696 -0.3742  0.0359
 9801WAT     H141009  -6.745   8.089   8.873 -1.4029 -0.6792 -2.1290
 9801WAT     H241010  -6.625   8.144   8.799 -0.2722 -0.1598 -0.0180
 9801WAT    EPW41011  -6.672   8.076   8.827 -0.0958 -0.3862 -0.2570
 9802WAT      O41012  -4.088   4.053   4.813 -0.7299  0.2534 -0.5789
 9802WAT     H141013  -4.079   4.023   4.904 -1.0470 -1.1845 -0.9920
 9802WAT     H241014  -4.058   4.144   4.815 -1.6709  0.5770  1.1498
 9802WAT    EPW41015  -4.083   4.061   4.826 -0.8960  0.1063 -0.4053
 9803WAT      O41016   0.285   1.332   5.182  0.1564 -0.7275  0.5579
 9803WAT     H141017   0.365   1.381   5.164  0.1003 -0.4153  1.1489
 9803WAT     H241018   0.216   1.398   5.189 -0.0655 -0.9534  0.5336
 9803WAT    EPW41019   0.287   1.347   5.181  0.1198 -0.7161  0.6325
 9804WAT      O41020  -1.330   6.868   1.135 -0.2953 -0.3834  0.4364
 9804WAT     H141021  -1.283   6.951   1.142 -2.3949  0.8939  0.1160
 9804WAT     H241022  -1.371   6.871   1.048 -2.3845 -0.6307  1.3580
 9804WAT    EPW41023  -1.329   6.879   1.124 -0.8478 -0.2475  0.5156
 9805WAT      O41024  -2.809   6.878   8.535  0.5497  0.7443 -0.5179
 9805WAT     H141025  -2.749   6.907   8.604  0.7946 -1.1277  0.0856
 9805WAT     H241026  -2.755   6.823   8.478 -0.5608 -0.9612  0.0270
 9805WAT    EPW41027  -2.794   6.875   8.536  0.4356  0.2725 -0.3667
 9806WAT      O41028   5.173   5.089   4.464 -0.3625  0.5721 -0.3564
 9806WAT     H141029   5.251   5.132   4.430 -0.0669  1.3319  1.2201
 9806WAT     H241030   5.133   5.048   4.387  1.6354  0.0648 -1.1780
 9806WAT    EPW41031   5.178   5.089   4.449 -0.0601  0.6053 -0.2568
 9807WAT      O41032   2.741   5.347   8.721  0.2077  0.1185  0.5342
 9807WAT     H141033   2.698   5.274   8.678  0.7812 -0.1739  0.4498
 9807WAT     H241034   2.747   5.415   8.653 -0.7253  0.4191  0.7383
 9807WAT    EPW41035   2.736   5.347   8.706  0.1602  0.1197  0.5503
 9808WAT      O41036  -1.492   4.375   1.860 -0.3045 -0.1527 -0.0128
 9808WAT     H141037  -1.581   4.408   1.848 -0.7808 -0.0061  3.0952
 9808WAT     H241038  -1.453   4.433   1.926  0.4155 -2.9322  2.2023
 9808WAT    EPW41039  -1.498   4.387   1.868 -0.2724 -0.5000  0.6893
 9809WAT      O41040   1.698   6.386   4.363 -0.4559 -0.3946 -0.0468
 9809WAT     H141041   1.623   6.338   4.398 -0.2647 -0.1609  0.7007
 9809WAT     H241042   1.772   6.327   4.377 -0.5225 -0.7284 -1.0057
 9809WAT    EPW41043   1.698   6.372   4.369 -0.4395 -0.4077 -0.0746
 9810WAT      O41044   3.907   1.220   5.779 -0.1127  0.2559  0.0167
 9810WAT     H141045   3.868   1.133   5.779  0.0596  0.1640  1.1276
 9810WAT     H241046   3.949   1.228   5.865 -0.4885  1.5898  0.1084
 9810WAT    EPW41047   3.907   1.210   5.790 -0.1395  0.4197  0.1752
 9811WAT      O41048   2.934   2.529   8.679  0.0230  0.0840  0.1535
 9811WAT     H141049   2.993   2.454   8.676  1.0850  0.9275 -1.5365
 9811WAT     H241050   2.874   2.516   8.606 -0.5917  0.2680  0.6162
 9811WAT    EPW41051   2.934   2.517   8.669  0.0820  0.2195 -0.0086
 9812WAT      O41052  -6.168  10.152   7.272  0.1037 -0.4150 -0.8438
 9812WAT     H141053  -6.098  10.087   7.276  0.0634 -0.5366 -1.8270
 9812WAT     H241054  -6.123  10.236   7.282 -0.0638 -0.6055  2.6556
 9812WAT    EPW41055  -6.152  10.155   7.274  0.0763 -0.4559 -0.5121
 9813WAT      O41056   4.605   6.279   3.430 -0.8258  0.2109  0.7015
 9813WAT     H141057   4.556   6.357   3.407 -2.6750 -0.6870  1.4323
 9813WAT     H241058   4.648   6.300   3.513  1.1738  1.4412 -0.5583
 9813WAT    EPW41059   4.604   6.292   3.438 -0.8061  0.2549  0.6317
 9814WAT      O41060   0.326   1.878   6.547  0.2317 -0.0165  0.3866
 9814WAT     H141061   0.268   1.816   6.503 -2.0844  1.2338  1.4660
 9814WAT     H241062   0.347   1.836   6.630 -1.4173  0.5903  1.1607
 9814WAT    EPW41063   0.321   1.864   6.552 -0.2913  0.2285  0.6309
 9815WAT      O41064  -5.167   3.928   7.781  0.6986 -0.8170 -0.0359
 9815WAT     H141065  -5.228   3.995   7.813  1.1766  0.8860 -2.4105
 9815WAT     H241066  -5.182   3.853   7.838 -0.6946  0.9059  2.0319
 9815WAT    EPW41067  -5.177   3.927   7.793  0.5782 -0.3653 -0.0761
 9816WAT      O41068  -0.186   3.148   5.900  0.9391 -0.4340  0.3193
 9816WAT     H141069  -0.234   3.095   5.836  0.8429  0.6349 -0.5166
 9816WAT     H241070  -0.244   3.152   5.977  0.8627 -1.3548  0.3210
 9816WAT    EPW41071  -0.200   3.141   5.902  0.9163 -0.4145  0.2091
 9817WAT      O41072  -1.254   2.919   6.165  0.4281 -0.2143  0.5604
 9817WAT     H141073  -1.267   3.010   6.192 -1.0401 -0.1222 -0.3533
 9817WAT     H241074  -1.285   2.867   6.240  2.9568 -0.0392  1.8454
 9817WAT    EPW41075  -1.260   2.924   6.178  0.5680 -0.1791  0.6094
 9818WAT      O41076   0.907   0.203   4.351  0.0579 -0.0055  0.1600
 9818WAT     H141077   0.956   0.285   4.344 -0.3951  0.3237  0.6838
 9818WAT     H241078   0.950   0.143   4.290  0.1726  0.7304 -0.4993
 9818WAT    EPW41079   0.919   0.206   4.342  0.0133  0.1349  0.1421
 9819WAT      O41080  -0.341   1.336   3.587  0.0006 -0.2496 -0.0027
 9819WAT     H141081  -0.435   1.346   3.597 -0.1213  1.7575 -2.2611
 9819WAT     H241082  -0.306   1.425   3.599  1.6314 -0.9313  0.7008
 9819WAT    EPW41083  -0.348   1.349   3.590  0.1996 -0.0748 -0.2079
 9820WAT      O41084   4.454   7.715   3.393 -0.3267  0.4035  0.3871
 9820WAT     H141085   4.535   7.704   3.443  0.2617  1.6439 -0.2278
 9820WAT     H241086   4.387   7.736   3.458 -0.2454 -1.0123  0.9381
 9820WAT    EPW41087   4.456   7.717   3.408 -0.2384  0.3805  0.3786
 9821WAT      O41088  -1.193  10.084   0.256 -0.3407 -0.5130 -0.6380
 9821WAT     H141089  -1.258  10.133   0.307  0.9793  2.7189 -1.8240
 9821WAT     H241090  -1.130  10.053   0.321  0.1763  1.7053  0.0207
 9821WAT    EPW41091  -1.194  10.086   0.271 -0.0985  0.2060 -0.7075
 9822WAT      O41092   6.150   8.622   1.141 -0.3355 -0.3712  0.4091
 9822WAT     H141093   6.180   8.705   1.106 -0.4483  0.6252  2.5205
 9822WAT     H241094   6.205   8.607   1.219 -1.6961 -1.2177  1.2484
 9822WAT    EPW41095   6.162   8.631   1.147 -0.5298 -0.3514  0.7983
 9823WAT      O41096  -2.556   8.167   3.335 -0.2154  0.4924  0.0042
 9823WAT     H141097  -2.616   8.233   3.301 -2.5175 -1.1108  0.6659
 9823WAT     H241098  -2.562   8.175   3.430  1.5857  1.0743  0.0944
 9823WAT    EPW41099  -2.565   8.177   3.343 -0.2815  0.3576  0.1034
 9824WAT      O41100   4.523   2.495   7.153 -0.4745  0.1835  0.1304
 9824WAT     H141101   4.520   2.566   7.089  1.9599 -0.7673 -1.2051
 9824WAT     H241102   4.472   2.425   7.113 -0.5070  0.2177  0.1117
 9824WAT    EPW41103   4.516   2.495   7.139 -0.1578  0.0625 -0.0482
 9825WAT      O41104  -0.243   3.826   5.202  0.2337  0.3230  0.3206
 9825WAT     H141105  -0.318   3.806   5.258 -1.0742 -0.1750 -1.5141
 9825WAT     H241106  -0.258   3.916   5.173  0.3015  0.1899 -0.1307
 9825WAT    EPW41107  -0.255   3.836   5.206  0.0702  0.2397  0.0188
 9826WAT      O41108   3.584   6.275   5.350 -0.3709  0.6793 -0.7294
 9826WAT     H141109   3.665   6.273   5.400  0.9859  0.5770 -2.7718
 9826WAT     H241110   3.604   6.224   5.271 -1.6648  2.5521 -2.3476
 9826WAT    EPW41111   3.597   6.268   5.346 -0.3626  0.9129 -1.2121
 9827WAT      O41112   8.118   1.574   3.187 -0.5352  0.2054  0.1870
 9827WAT     H141113   8.191   1.521   3.219 -0.3329 -0.1931 -0.8929
 9827WAT     H241114   8.063   1.587   3.264  0.7891  0.7303  1.0740
 9827WAT    EPW41115   8.120   1.569   3.201 -0.3338  0.2220  0.1615
 9828WAT      O41116   2.257  10.112   4.698  0.3450 -0.2214  0.4564
 9828WAT     H141117   2.241  10.102   4.792 -5.2140 -0.8105 -0.2034
 9828WAT     H241118   2.276  10.023   4.668 -2.5354 -0.9444  0.5553
 9828WAT    EPW41119   2.258  10.099   4.706 -0.7681 -0.3948  0.3824
 9829WAT      O41120  -2.673   9.099   1.916  0.3059 -0.3260  0.4852
 9829WAT     H141121  -2.682   9.143   1.832  1.7693 -1.4654 -0.3310
 9829WAT     H241122  -2.756   9.054   1.929 -1.0798  2.2577  1.1631
 9829WAT    EPW41123  -2.685   9.099   1.906  0.3161 -0.1359  0.4669
 9830WAT      O41124  -2.600   8.631   6.064  0.1282  0.1137 -0.3570
 9830WAT     H141125  -2.584   8.669   6.150 -2.1029  2.2869 -0.8117
 9830WAT     H241126  -2.599   8.705   6.003 -4.0873 -0.3797 -1.3407
 9830WAT    EPW41127  -2.598   8.646   6.067 -0.7221  0.3357 -0.5467
 9831WAT      O41128  -0.864  10.276   0.472 -0.0703 -0.1842 -0.5421
 9831WAT     H141129  -0.935  10.252   0.531 -0.7562  0.3090 -1.1460
 9831WAT     H241130  -0.786  10.279   0.527 -0.7440  0.5401  0.3913
 9831WAT    EPW41131  -0.863  10.273   0.487 -0.2497 -0.0238 -0.4986
 9832WAT      O41132   0.290   2.914   8.559 -0.6678  0.2544 -0.4085
 9832WAT     H141133   0.358   2.848   8.568 -0.6824  0.0299 -1.7158
 9832WAT     H241134   0.335   2.997   8.572 -0.7575  0.0208  1.8301
 9832WAT    EPW41135   0.305   2.916   8.562 -0.6815  0.1940 -0.2856
 9833WAT      O41136  -2.215   0.781   3.212 -0.9416 -0.0443  0.3657
 9833WAT     H141137  -2.270   0.847   3.254 -0.9376  0.9822 -1.1276
 9833WAT     H241138  -2.127   0.800   3.244 -0.8070  1.2700 -0.6532
 9833WAT    EPW41139  -2.211   0.793   3.222 -0.9234  0.2644  0.0343
 9834WAT      O41140   1.440   1.036   3.425 -0.3177  0.3002 -1.0160
 9834WAT     H141141   1.416   1.105   3.364 -2.3557  2.2123  1.7116
 9834WAT     H241142   1.359   1.017   3.473  1.4465  0.1401  2.1724
 9834WAT    EPW41143   1.426   1.042   3.423 -0.3538  0.5313 -0.2358
 9835WAT      O41144   7.664   0.004   2.495 -0.3511 -0.0950 -0.1376
 9835WAT     H141145   7.624   0.065   2.432  0.7030  0.9819  0.1962
 9835WAT     H241146   7.646   0.043   2.581  2.9478  1.5264 -0.0183
 9835WAT    EPW41147   7.656   0.017   2.498  0.2232  0.2609 -0.0778
 9836WAT      O41148   9.441   0.904   0.860 -0.3970 -0.3664 -1.0383
 9836WAT     H141149   9.419   0.983   0.811  0.0159 -0.9470 -2.1797
 9836WAT     H241150   9.420   0.832   0.801  2.3276 -1.0402 -1.3321
 9836WAT    EPW41151   9.435   0.905   0.846  0.0167 -0.5319 -1.2276
 9837WAT      O41152  -3.135   6.550   6.073 -0.4543 -0.8278  0.3066
 9837WAT     H141153  -3.103   6.621   6.128 -1.1725  1.9844 -2.6119
 9837WAT     H241154  -3.230   6.551   6.087 -0.5520 -0.6360 -0.3481
 9837WAT    EPW41155  -3.143   6.559   6.082 -0.5620 -0.4315 -0.1647
 9838WAT      O41156  -0.662   4.265   2.527  0.1917  0.4625 -0.1024
 9838WAT     H141157  -0.612   4.317   2.589  1.4903  0.7759 -1.3517
 9838WAT     H241158  -0.637   4.174   2.546  1.3854  0.6211 -0.7922
 9838WAT    EPW41159  -0.652   4.260   2.537  0.5204  0.5248 -0.3581
 9839WAT      O41160  -2.690   7.790   0.763  0.0777  0.1116 -0.5433
 9839WAT     H141161  -2.715   7.868   0.714 -1.2408  0.0656  0.0203
 9839WAT     H241162  -2.736   7.799   0.847 -0.6262 -1.6023 -0.7214
 9839WAT    EPW41163  -2.699   7.802   0.768 -0.1891 -0.1206 -0.4925
 9840WAT      O41164   8.011   4.265   0.934  0.0522  0.0776 -0.2531
 9840WAT     H141165   8.036   4.342   0.986  0.6143 -1.5633  2.0924
 9840WAT     H241166   8.079   4.257   0.868  0.0482  1.5112 -0.4557
 9840WAT    EPW41167   8.023   4.274   0.932  0.1259  0.0503  0.0295
 9841WAT      O41168  -0.063   1.514   6.905  0.4727 -0.2899  0.6026
 9841WAT     H141169  -0.104   1.438   6.863  0.0799  0.1263  0.2205
 9841WAT     H241170  -0.039   1.571   6.833  0.0815  0.2931  0.9307
 9841WAT    EPW41171  -0.065   1.511   6.890  0.3693 -0.1582  0.5953
 9842WAT      O41172   2.452   6.131   0.099 -0.1060 -0.7057 -0.1903
 9842WAT     H141173   2.413   6.146   0.185 -0.8854  1.3537 -0.8470
 9842WAT     H241174   2.473   6.218   0.066  2.8627 -1.5706 -0.9382
 9842WAT    EPW41175   2.450   6.144   0.106  0.1827 -0.5481 -0.3756
 9843WAT      O41176  -7.188   6.338   8.402  0.0731 -0.2753  0.0739
 9843WAT     H141177  -7.189   6.364   8.310 -0.1236 -2.8776 -0.7250
 9843WAT     H241178  -7.280   6.322   8.424  0.2164 -0.6372  0.4283
 9843WAT    EPW41179  -7.200   6.339   8.393  0.0660 -0.6664  0.0153
 9844WAT      O41180  -6.898  10.201   8.176 -0.5161  0.5918 -0.1193
 9844WAT     H141181  -6.880  10.276   8.118 -0.6916  0.4207 -0.3963
 9844WAT     H241182  -6.989  10.177   8.155 -0.8750  1.0636  0.8315
 9844WAT    EPW41183  -6.908  10.208   8.166 -0.5865  0.6313 -0.0305
 9845WAT      O41184  -2.806   9.014   6.110 -0.2283 -0.3757 -0.0554
 9845WAT     H141185  -2.878   9.000   6.171 -1.4840  0.5169 -1.2750
 9845WAT     H241186  -2.807   9.108   6.094  1.1293 -0.3747 -0.2165
 9845WAT    EPW41187  -2.816   9.024   6.116 -0.2148 -0.2580 -0.2377
 9846WAT      O41188  -1.319  10.211   0.657 -0.3401  0.4874  0.1297
 9846WAT     H141189  -1.237  10.246   0.622  0.7215  0.3848  2.3074
 9846WAT     H241190  -1.292  10.166   0.737 -2.0368 -2.8390 -1.0171
 9846WAT    EPW41191  -1.304  10.210   0.663 -0.4238  0.0348  0.2657
 9847WAT      O41192  -1.076   7.467   3.337 -0.1985  0.1932  0.5746
 9847WAT     H141193  -1.039   7.397   3.283  0.6615  0.9192  0.1856
 9847WAT     H241194  -1.046   7.548   3.295  0.0010  0.7860  1.8096
 9847WAT    EPW41195  -1.067   7.469   3.324 -0.0588  0.3672  0.6862
 9848WAT      O41196  -5.865  10.246   7.111 -0.4474  0.0348  0.0669
 9848WAT     H141197  -5.935  10.227   7.049  0.9327 -0.3775 -1.4495
 9848WAT     H241198  -5.839  10.336   7.092  1.2403 -0.6773 -1.3661
 9848WAT    EPW41199  -5.871  10.255   7.100 -0.0427 -0.1135 -0.3221
 9849WAT      O41200   2.409   5.253   3.249 -0.3896  0.3187  0.2139
 9849WAT     H141201   2.386   5.313   3.178  2.6754  1.0031 -0.3341
 9849WAT     H241202   2.453   5.180   3.205 -2.4151 -1.5273  1.0594
 9849WAT    EPW41203   2.412   5.251   3.233 -0.2525  0.1655  0.2532
 9850WAT      O41204  -0.905   1.974   1.000 -0.0635 -0.7044  1.0237
 9850WAT     H141205  -0.931   1.943   1.087  0.6036 -0.0959  1.4538
 9850WAT     H241206  -0.980   2.025   0.969  0.3661  0.5621  2.0063
 9850WAT    EPW41207  -0.918   1.976   1.007  0.0811 -0.4571  1.2100
 9851WAT      O41208   2.391   8.578   6.443 -0.3920 -0.1520  0.1814
 9851WAT     H141209   2.308   8.585   6.491 -0.1264  0.7041  0.5327
 9851WAT     H241210   2.365   8.572   6.351 -0.8258  1.0179  0.2126
 9851WAT    EPW41211   2.377   8.578   6.438 -0.4143  0.1149  0.2317
 9852WAT      O41212   6.176   5.162   4.743 -0.4133  0.9488 -0.5269
 9852WAT     H141213   6.252   5.176   4.687 -0.5915  0.4913 -0.8914
 9852WAT     H241214   6.211   5.164   4.832 -0.1289  1.6894 -0.6467
 9852WAT    EPW41215   6.191   5.164   4.747 -0.3991  0.9861 -0.5908
 9853WAT      O41216   3.754   7.214   7.329 -0.2237  0.1976  1.1502
 9853WAT     H141217   3.845   7.196   7.306 -0.5980 -0.0584 -0.1977
 9853WAT     H241218   3.713   7.128   7.334 -0.8993  0.3862 -0.5245
 9853WAT    EPW41219   3.761   7.201   7.326 -0.3620  0.1888  0.7515
 9854WAT      O41220   6.855   4.684   1.001  0.5522 -0.3956 -0.3244
 9854WAT     H141221   6.824   4.775   1.006  0.0155 -0.4624 -2.0057
 9854WAT     H241222   6.776   4.632   1.010  0.6588 -0.6592 -0.8963
 9854WAT    EPW41223   6.841   4.689   1.003  0.4954 -0.4392 -0.6216
 9855WAT      O41224  -1.694   0.137   7.256  0.4683  0.4065 -0.1814
 9855WAT     H141225  -1.731   0.117   7.342 -1.0650 -0.5006 -0.9976
 9855WAT     H241226  -1.662   0.054   7.222 -1.3833  0.1638 -1.5378
 9855WAT    EPW41227  -1.695   0.124   7.263  0.0218  0.2548 -0.4680
 9856WAT      O41228   0.628   2.967   1.185 -0.3055 -0.0265  0.6390
 9856WAT     H141229   0.700   3.029   1.175  0.0705 -0.7429 -1.7094
 9856WAT     H241230   0.557   3.004   1.133 -0.1810 -1.3372 -0.5314
 9856WAT    EPW41231   0.628   2.980   1.177 -0.2395 -0.2940  0.1749
 9857WAT      O41232  -3.858   2.347   6.705  0.4850  0.2501  0.0650
 9857WAT     H141233  -3.907   2.425   6.730  0.3931 -0.0468  0.8478
 9857WAT     H241234  -3.852   2.296   6.785  0.7800 -0.4220 -0.3730
 9857WAT    EPW41235  -3.864   2.350   6.719  0.5116  0.1223  0.1106
 9858WAT      O41236   8.380   3.201   0.005 -0.3063  0.0139  0.2332
 9858WAT     H141237   8.317   3.249   0.058  0.5245 -0.5371  1.8043
 9858WAT     H241238   8.378   3.111   0.039  0.4173 -0.3140 -0.5280
 9858WAT    EPW41239   8.372   3.195   0.016 -0.1013 -0.1020  0.3400
 9859WAT      O41240   4.563   5.319   4.075  0.1800  0.0089 -0.0496
 9859WAT     H141241   4.624   5.392   4.089  0.1546 -0.2081  1.3600
 9859WAT     H241242   4.495   5.331   4.142 -0.5354 -0.5717 -0.6579
 9859WAT    EPW41243   4.562   5.330   4.086  0.0823 -0.0966  0.0558
 9860WAT      O41244   0.936   2.170   8.332 -0.0345 -0.0343  0.8750
 9860WAT     H141245   0.935   2.074   8.333  1.2515 -0.0857 -0.1067
 9860WAT     H241246   0.845   2.195   8.349 -0.0697 -1.3633  2.9701
 9860WAT    EPW41247   0.923   2.161   8.334  0.1305 -0.2164  1.0219
 9861WAT      O41248  -1.025   9.556   5.613 -0.4460 -0.2016 -0.1155
 9861WAT     H141249  -1.050   9.600   5.531 -0.0547 -0.2513 -0.2655
 9861WAT     H241250  -0.936   9.524   5.596  0.8093  2.2171  1.2464
 9861WAT    EPW41251  -1.016   9.558   5.600 -0.2289  0.1106  0.0443
 9862WAT      O41252   1.201   0.187   5.215  0.6558 -0.4093 -0.1556
 9862WAT     H141253   1.236   0.101   5.194  0.6612 -0.4127 -0.1317
 9862WAT     H241254   1.130   0.200   5.152  2.2824  0.6358 -1.9137
 9862WAT    EPW41255   1.197   0.178   5.204  0.8711 -0.2719 -0.3843
 9863WAT      O41256  -0.624   1.947   3.207  0.1500  0.6758 -0.3052
 9863WAT     H141257  -0.717   1.961   3.222 -0.1082 -2.4491  1.9849
 9863WAT     H241258  -0.617   1.858   3.173  2.2076  1.7340 -3.0341
 9863WAT    EPW41259  -0.635   1.937   3.205  0.3874  0.4032 -0.3630
 9864WAT      O41260  -1.238   7.021   0.221  0.2136  1.5511  0.5401
 9864WAT     H141261  -1.327   7.043   0.194 -0.1339 -0.5614 -0.2681
 9864WAT     H241262  -1.202   6.972   0.147  1.2225  0.3930  1.7438
 9864WAT    EPW41263  -1.245   7.017   0.207  0.3008  1.1196  0.5923
 9865WAT      O41264   7.586   3.165   2.186 -0.1305 -0.5285  0.2531
 9865WAT     H141265   7.580   3.246   2.135  1.7421  0.1243  0.9855
 9865WAT     H241266   7.529   3.181   2.262  1.1069  0.6234  0.9901
 9865WAT    EPW41267   7.577   3.178   2.189  0.2799 -0.2904  0.4469
 9866WAT      O41268  -1.520   5.380   1.769 -0.0064  0.0124 -0.3853
 9866WAT     H141269  -1.427   5.387   1.746  0.1970 -1.4364 -0.1217
 9866WAT     H241270  -1.519   5.357   1.862 -0.7653  4.1792  0.8591
 9866WAT    EPW41271  -1.508   5.378   1.778 -0.0797  0.3707 -0.1864
 9867WAT      O41272   2.557   1.839   0.117  0.3981 -0.3895 -0.1266
 9867WAT     H141273   2.470   1.879   0.113  1.1578  1.3163 -0.3714
 9867WAT     H241274   2.580   1.843   0.210  0.3285 -0.5998 -0.0997
 9867WAT    EPW41275   2.548   1.845   0.129  0.4891 -0.1922 -0.1553
 9868WAT      O41276   2.735   6.930   7.120  0.2046 -0.1759  0.2573
 9868WAT     H141277   2.752   6.858   7.058 -0.3922  0.0425 -0.1659
 9868WAT     H241278   2.742   6.889   7.206 -2.3726 -1.3083  0.0141
 9868WAT    EPW41279   2.738   6.915   7.123 -0.2140 -0.2964  0.1693
 9869WAT      O41280   3.291   3.493   7.614 -0.1192 -0.1643  0.2815
 9869WAT     H141281   3.231   3.501   7.539 -1.2614  1.9708  1.3172
 9869WAT     H241282   3.377   3.479   7.574 -1.0529 -1.9979 -1.2990
 9869WAT    EPW41283   3.294   3.492   7.599 -0.3930 -0.1246  0.2098
 9870WAT      O41284  -0.444   3.395   8.744  0.1258 -0.4313  0.7320
 9870WAT     H141285  -0.468   3.427   8.831 -1.4674  1.3613 -0.2900
 9870WAT     H241286  -0.498   3.317   8.731 -1.7694  0.8805  0.3228
 9870WAT    EPW41287  -0.454   3.389   8.754 -0.3343 -0.0218  0.5426
 9871WAT      O41288  -0.940   5.476   5.437 -0.3132  0.5597 -0.0165
 9871WAT     H141289  -0.890   5.395   5.446  0.4781  0.7049 -2.4180
 9871WAT     H241290  -0.876   5.542   5.410 -1.3540  1.3869 -0.5701
 9871WAT    EPW41291  -0.925   5.474   5.434 -0.3461  0.6878 -0.4060
 9872WAT      O41292   0.226   9.040   8.045 -0.2366 -0.4384  0.0450
 9872WAT     H141293   0.222   9.041   8.140 -0.7798  0.3788  0.0287
 9872WAT     H241294   0.161   9.105   8.018  0.3038 -0.2562 -0.8653
 9872WAT    EPW41295   0.217   9.049   8.054 -0.2370 -0.3066 -0.0768
 9873WAT      O41296  -2.282   2.935   6.980  0.2681 -0.1944  0.1398
 9873WAT     H141297  -2.224   2.870   6.942 -0.9924 -0.1511 -2.0184
 9873WAT     H241298  -2.274   3.011   6.923  0.1400  0.8162  1.4127
 9873WAT    EPW41299  -2.273   2.937   6.968  0.0850 -0.0554  0.0231
 9874WAT      O41300   0.435   7.636   1.680  0.2679 -0.4995  0.5637
 9874WAT     H141301   0.513   7.648   1.625 -0.0505  0.4769  0.3055
 9874WAT     H241302   0.469   7.639   1.770  0.4485  0.6910  0.4742
 9874WAT    EPW41303   0.450   7.638   1.685  0.2497 -0.2136  0.5178
 9875WAT      O41304  -3.637   9.361   1.382 -0.8218 -0.4106 -0.3372
 9875WAT     H141305  -3.573   9.373   1.311 -1.2378 -2.1827 -1.0757
 9875WAT     H241306  -3.584   9.357   1.461 -0.3291  1.4548 -0.5340
 9875WAT    EPW41307  -3.621   9.362   1.383 -0.8117 -0.3986 -0.4606
 9876WAT      O41308  -2.679   1.445   5.270 -0.1274  0.1690 -0.1240
 9876WAT     H141309  -2.602   1.394   5.243 -0.5059  0.1206 -1.1644
 9876WAT     H241310  -2.659   1.473   5.360  0.1064 -1.7648  0.4602
 9876WAT    EPW41311  -2.666   1.442   5.278 -0.1464 -0.0924 -0.1843
 9877WAT      O41312   4.022   4.022   6.361 -0.2987 -0.0272 -0.1267
 9877WAT     H141313   3.972   4.010   6.442 -0.4063 -0.5368 -0.2653
 9877WAT     H241314   4.000   4.111   6.332 -1.5611 -0.4388 -0.4748
 9877WAT    EPW41315   4.013   4.033   6.368 -0.4795 -0.1485 -0.1907
 9878WAT      O41316   3.837   3.616   6.127  0.8894  0.0566  0.0655
 9878WAT     H141317   3.834   3.647   6.217 -0.0173 -0.3354  0.1706
 9878WAT     H241318   3.900   3.544   6.128 -0.9485 -1.6269  0.9247
 9878WAT    EPW41319   3.845   3.611   6.139  0.5275 -0.2172  0.1924
 9879WAT      O41320  -6.595   9.668   5.602  0.1128  0.0230  0.0574
 9879WAT     H141321  -6.506   9.705   5.596  0.4811 -1.0069 -1.2837
 9879WAT     H241322  -6.588   9.598   5.666 -0.2386  1.2097  1.4629
 9879WAT    EPW41323  -6.582   9.664   5.609  0.1152  0.0439  0.0660
 9880WAT      O41324  -2.499   8.315   8.650 -0.0773 -0.1165 -0.1813
 9880WAT     H141325  -2.421   8.370   8.656  0.9328 -1.5576  0.2622
 9880WAT     H241326  -2.476   8.247   8.588  0.6911 -3.0317  2.9907
 9880WAT    EPW41327  -2.486   8.314   8.643  0.1572 -0.6909  0.2952
 9881WAT      O41328   1.085   8.458   6.106  0.4891  0.2448  0.3143
 9881WAT     H141329   1.166   8.433   6.152  0.5029  1.5907  1.0911
 9881WAT     H241330   1.088   8.554   6.104 -0.9910  0.3053  0.1665
 9881WAT    EPW41331   1.096   8.468   6.112  0.2957  0.4301  0.3972
 9882WAT      O41332   4.602   5.622   6.976  1.2034  0.1757  0.0804
 9882WAT     H141333   4.535   5.641   6.911  1.6873 -1.9642 -1.1355
 9882WAT     H241334   4.664   5.694   6.968  0.3637  0.8386 -0.6107
 9882WAT    EPW41335   4.601   5.634   6.967  1.1563 -0.0191 -0.1712
 9883WAT      O41336   1.058   0.443   4.350  0.1212 -0.3078  0.2986
 9883WAT     H141337   1.051   0.498   4.427  1.4891 -0.7743  0.7813
 9883WAT     H241338   1.152   0.428   4.338 -0.1345 -1.4517 -0.5817
 9883WAT    EPW41339   1.069   0.448   4.358  0.2679 -0.5202  0.2460
 9884WAT      O41340  -3.388   1.812   6.106  1.0461 -0.7994 -1.0050
 9884WAT     H141341  -3.395   1.799   6.011 -0.2318 -1.3086 -0.8712
 9884WAT     H241342  -3.297   1.793   6.126  1.1774 -1.3512 -2.0479
 9884WAT    EPW41343  -3.377   1.808   6.096  0.8950 -0.9394 -1.1251
 9885WAT      O41344   4.153   4.879   4.377  0.5097  0.3620  0.1562
 9885WAT     H141345   4.138   4.788   4.402 -3.1553  0.7491 -0.0816
 9885WAT     H241346   4.107   4.889   4.293  3.6499  1.7046 -1.5937
 9885WAT    EPW41347   4.145   4.869   4.369  0.4404  0.5901 -0.1061
 9886WAT      O41348   1.185   9.451   1.957 -0.1658  0.2419  0.4345
 9886WAT     H141349   1.217   9.530   1.914  0.5836  0.9208  2.1393
 9886WAT     H241350   1.264   9.398   1.971 -0.2748  0.3300  1.5046
 9886WAT    EPW41351   1.200   9.454   1.953 -0.0813  0.3433  0.8005
 9887WAT      O41352   4.372   7.271   2.072 -0.0743  0.6101  0.3229
 9887WAT     H141353   4.445   7.248   2.130  0.2454 -0.2054 -0.4006
 9887WAT     H241354   4.338   7.187   2.041 -0.4583  1.0357 -0.4221
 9887WAT    EPW41355   4.377   7.257   2.076 -0.0827  0.5584  0.1291
 9888WAT      O41356  -1.149   1.374   3.863 -0.2171 -0.5207  0.6604
 9888WAT     H141357  -1.207   1.415   3.928 -0.8723  1.5598 -1.1313
 9888WAT     H241358  -1.202   1.368   3.784  1.0496 -1.5615 -0.1489
 9888WAT    EPW41359  -1.164   1.379   3.861 -0.1364 -0.3836  0.3175
 9889WAT      O41360   4.515   7.607   5.189 -0.2436 -0.7787 -0.1418
 9889WAT     H141361   4.539   7.540   5.124 -1.1553  0.0048 -1.3293
 9889WAT     H241362   4.473   7.558   5.260  1.6781 -1.7740  0.3834
 9889WAT    EPW41363   4.513   7.592   5.190 -0.1104 -0.8066 -0.2291
 9890WAT      O41364   7.661   3.692   1.314  0.2452  0.3376 -0.5831
 9890WAT     H141365   7.691   3.651   1.233 -2.2527 -1.4146 -0.7317
 9890WAT     H241366   7.566   3.699   1.304 -0.0228  0.9830  1.7830
 9890WAT    EPW41367   7.652   3.687   1.302 -0.1197  0.1916 -0.2906
 9891WAT      O41368   2.007   0.295   4.199 -0.5701 -0.3770  0.3369
 9891WAT     H141369   2.014   0.383   4.163 -2.5200  0.8375  2.6573
 9891WAT     H241370   1.957   0.246   4.133  1.5452 -0.2079 -1.5248
 9891WAT    EPW41371   2.001   0.300   4.186 -0.5482 -0.1945  0.3974
 9892WAT      O41372   4.317   6.899   2.562 -0.1331 -0.5507 -0.2591
 9892WAT     H141373   4.224   6.914   2.575 -0.0945 -0.4583 -0.0933
 9892WAT     H241374   4.326   6.886   2.468 -0.0906  0.9607 -0.4783
 9892WAT    EPW41375   4.306   6.899   2.551 -0.1225 -0.3393 -0.2662
 9893WAT      O41376  -5.572  10.168   4.204 -0.7142  0.1165  0.1930
 9893WAT     H141377  -5.642  10.119   4.248 -3.4244  0.5383 -3.2027
 9893WAT     H241378  -5.605  10.258   4.200  0.9685  0.7703  0.1842
 9893WAT    EPW41379  -5.586  10.173   4.209 -0.8497  0.2584 -0.2563
 9894WAT      O41380  -3.616   3.896   6.394  0.0563  0.0800  0.3687
 9894WAT     H141381  -3.610   3.876   6.301 -2.4987  0.4409  0.0342
 9894WAT     H241382  -3.543   3.955   6.411  1.3332 -1.0194 -1.0845
 9894WAT    EPW41383  -3.606   3.901   6.384 -0.1123 -0.0175  0.1328
 9895WAT      O41384   0.346   5.108   6.528 -0.0162  0.6526  0.0008
 9895WAT     H141385   0.384   5.181   6.478 -1.2061  1.6303  0.4712
 9895WAT     H241386   0.252   5.125   6.528 -0.2425 -0.4856  0.7707
 9895WAT    EPW41387   0.339   5.120   6.521 -0.2030  0.6313  0.1645
 9896WAT      O41388  -1.512   7.182   8.148 -0.6917  0.0245  0.5501
 9896WAT     H141389  -1.556   7.117   8.203 -2.9474  0.4272 -0.6283
 9896WAT     H241390  -1.480   7.248   8.209  2.3478 -2.4372  1.8667
 9896WAT    EPW41391  -1.514   7.182   8.163 -0.5883 -0.2470  0.5689
 9897WAT      O41392   6.487   1.273   0.197 -0.6125 -0.2109 -0.0607
 9897WAT     H141393   6.541   1.341   0.156 -0.2469 -1.0943 -1.0913
 9897WAT     H241394   6.526   1.191   0.167 -1.0006 -0.8833  1.2194
 9897WAT    EPW41395   6.499   1.271   0.188 -0.6154 -0.4161 -0.0278
 9898WAT      O41396   1.718   2.564   6.371 -0.2008  0.0152  0.0842
 9898WAT     H141397   1.656   2.596   6.436 -0.4325  0.3996 -0.3236
 9898WAT     H241398   1.784   2.517   6.422  1.0628  2.5035  0.9067
 9898WAT    EPW41399   1.718   2.562   6.386 -0.0647  0.3941  0.1390
 9899WAT      O41400   4.649   3.353   2.575  0.1409 -0.4399 -0.3077
 9899WAT     H141401   4.603   3.280   2.615 -0.7503  0.0087 -0.5044
 9899WAT     H241402   4.606   3.431   2.609  1.2437  0.0185  0.0935
 9899WAT    EPW41403   4.638   3.354   2.585  0.1688 -0.3203 -0.2807
 9900WAT      O41404  -4.217   4.369   7.601 -0.5094  0.4285 -0.2345
 9900WAT     H141405  -4.309   4.383   7.580 -0.5630 -2.6144 -2.7751
 9900WAT     H241406  -4.171   4.437   7.551 -1.2862  0.9124 -0.3178
 9900WAT    EPW41407  -4.223   4.380   7.592 -0.6189  0.0911 -0.5808
 9901WAT      O41408   1.281   5.914   8.758 -0.7119 -0.4867  0.2011
 9901WAT     H141409   1.210   5.972   8.783 -0.2277  0.0285  0.3936
 9901WAT     H241410   1.323   5.958   8.684  0.0887 -0.2372  0.7891
 9901WAT    EPW41411   1.277   5.927   8.751 -0.5425 -0.3858  0.3037
 9902WAT      O41412   2.032   7.482   7.952  0.5080 -0.1035  0.4098
 9902WAT     H141413   2.049   7.431   7.873 -0.9035  1.0254 -0.6885
 9902WAT     H241414   1.937   7.498   7.950  0.5730  0.6491  1.8942
 9902WAT    EPW41415   2.022   7.477   7.941  0.3304  0.1447  0.4609
 9903WAT      O41416   5.927   5.235   5.245 -0.4818  0.9423 -0.5333
 9903WAT     H141417   5.918   5.229   5.150 -0.7131 -0.2012 -0.4523
 9903WAT     H241418   5.883   5.317   5.268 -2.7319 -0.0090 -1.1419
 9903WAT    EPW41419   5.920   5.245   5.235 -0.8092  0.6659 -0.6030
 9904WAT      O41420  -0.827   3.829   8.296  0.3897 -0.4707  0.4606
 9904WAT     H141421  -0.759   3.820   8.362  0.1334 -1.6560  0.5926
 9904WAT     H241422  -0.879   3.749   8.304 -1.1621  0.4924  0.5137
 9904WAT    EPW41423  -0.825   3.817   8.306  0.1512 -0.5000  0.4849
 9905WAT      O41424   2.397   6.929   5.667 -0.2092  0.4111  0.1355
 9905WAT     H141425   2.313   6.973   5.659 -0.3457 -0.1847 -2.3355
 9905WAT     H241426   2.462   6.997   5.647 -0.1712  0.4971  0.5360
 9905WAT    EPW41427   2.395   6.944   5.663 -0.2221  0.3440 -0.1378
 9906WAT      O41428   3.036   1.997   8.959  0.0095  0.3428  0.1797
 9906WAT     H141429   3.008   2.069   8.903  0.5339 -1.2561 -2.2916
 9906WAT     H241430   3.129   2.014   8.976  0.5097 -0.4077 -1.5925
 9906WAT    EPW41431   3.045   2.009   8.954  0.1447  0.0329 -0.3800
 9907WAT      O41432  -1.531   6.163   4.040  0.0054 -0.3716 -0.2100
 9907WAT     H141433  -1.588   6.190   4.112  1.5423  1.6539  0.3421
 9907WAT     H241434  -1.588   6.164   3.963 -0.6320  2.2617  0.1925
 9907WAT    EPW41435  -1.546   6.166   4.039  0.1241  0.2429 -0.0839
 9908WAT      O41436   5.699   9.490   2.491  0.0592 -0.1896  0.4351
 9908WAT     H141437   5.655   9.505   2.408  0.5463  0.6513  0.3132
 9908WAT     H241438   5.632   9.452   2.547  0.0433 -1.8839 -0.6775
 9908WAT    EPW41439   5.685   9.487   2.488  0.1214 -0.3018  0.2723
 9909WAT      O41440   6.460   1.824   1.444 -0.3604  0.0275 -0.0521
 9909WAT     H141441   6.389   1.807   1.382  0.9725 -0.0876 -1.6099
 9909WAT     H241442   6.539   1.823   1.391  0.9039 -0.5257  1.7482
 9909WAT    EPW41443   6.461   1.822   1.429 -0.0179 -0.0606 -0.0201
 9910WAT      O41444   2.766   4.528   1.628  0.4685  0.2787  0.0186
 9910WAT     H141445   2.749   4.472   1.704 -0.2819 -0.4736 -0.6753
 9910WAT     H241446   2.836   4.483   1.581  0.0119  0.0209 -0.4273
 9910WAT    EPW41447   2.773   4.514   1.632  0.3092  0.1454 -0.1317
 9911WAT      O41448   4.002   0.962   5.412 -0.4832 -0.2821  0.2222
 9911WAT     H141449   4.021   0.885   5.467  0.4678 -0.5973 -0.5301
 9911WAT     H241450   3.947   0.928   5.342  0.2735 -0.3801 -0.3406
 9911WAT    EPW41451   3.997   0.947   5.410 -0.2580 -0.3366  0.0489
 9912WAT      O41452  -4.007   7.272   4.975  0.4215  0.1976 -0.4689
 9912WAT     H141453  -4.012   7.318   5.059 -1.9590 -1.1081  0.2101
 9912WAT     H241454  -4.040   7.335   4.911 -1.5902 -0.0537  0.2534
 9912WAT    EPW41455  -4.012   7.286   4.978 -0.1578 -0.0081 -0.2842
 9913WAT      O41456  -1.562   4.271   7.981  0.5248 -0.4081 -0.1063
 9913WAT     H141457  -1.477   4.306   8.008  0.5485 -0.6219  0.0955
 9913WAT     H241458  -1.558   4.178   8.002  0.7642 -0.7066 -1.4049
 9913WAT    EPW41459  -1.550   4.263   7.987  0.5595 -0.4756 -0.2508
 9914WAT      O41460   6.092   6.387   4.153  0.6760 -0.4690  0.8972
 9914WAT     H141461   6.125   6.299   4.171 -0.4345 -0.7853  1.4693
 9914WAT     H241462   6.131   6.441   4.222  0.5579 -0.7041  1.1514
 9914WAT    EPW41463   6.102   6.383   4.164  0.5140 -0.5417  1.0064
 9915WAT      O41464   1.734   0.379   1.136  0.2447 -0.1942  0.5836
 9915WAT     H141465   1.699   0.438   1.069  0.8998  0.2139  0.5891
 9915WAT     H241466   1.809   0.426   1.172  1.2638 -1.3486  0.0493
 9915WAT    EPW41467   1.740   0.393   1.132  0.4655 -0.2926  0.5138
 9916WAT      O41468  -3.889   2.658   5.874 -0.2071 -0.6716  0.4537
 9916WAT     H141469  -3.829   2.690   5.941  1.5548 -0.2211 -1.2457
 9916WAT     H241470  -3.887   2.562   5.884 -0.7526 -0.5710  1.6550
 9916WAT    EPW41471  -3.880   2.649   5.884 -0.0467 -0.5989  0.3881
 9917WAT      O41472   0.338   4.871   2.136 -0.1035 -0.3964 -0.5354
 9917WAT     H141473   0.356   4.846   2.227  2.6949  0.1987 -0.8394
 9917WAT     H241474   0.326   4.788   2.090  1.9878 -0.9199 -0.2271
 9917WAT    EPW41475   0.339   4.857   2.142  0.5414 -0.3870 -0.5348
 9918WAT      O41476   3.625   0.521   0.904 -0.5093  0.4050 -0.2134
 9918WAT     H141477   3.639   0.614   0.921 -4.1805  0.8236  1.4857
 9918WAT     H241478   3.567   0.520   0.828  0.6090 -0.6128 -1.0806
 9918WAT    EPW41479   3.619   0.533   0.896 -0.8460  0.3260 -0.1037
 9919WAT      O41480   0.462   2.933   2.951  0.1560  0.1767 -0.3829
 9919WAT     H141481   0.426   2.917   2.864  0.7805  1.5201 -0.9152
 9919WAT     H241482   0.436   2.857   3.002 -1.9486  0.2854 -1.2002
 9919WAT    EPW41483   0.454   2.921   2.946 -0.0392  0.3681 -0.5609
 9920WAT      O41484   0.188   6.742   4.517 -0.8529 -0.0395 -0.0346
 9920WAT     H141485   0.169   6.828   4.478 -0.5632  0.3862  0.7404
 9920WAT     H241486   0.122   6.684   4.480 -1.6842  0.7305  0.1905
 9920WAT    EPW41487   0.177   6.746   4.507 -0.9244  0.1180  0.0975
 9921WAT      O41488   5.020   0.775   0.700 -0.5411  0.7473  0.5271
 9921WAT     H141489   5.107   0.745   0.728 -0.2061  1.4886  0.3145
 9921WAT     H241490   4.988   0.827   0.774 -0.0516  1.9254 -0.0581
 9921WAT    EPW41491   5.027   0.778   0.713 -0.4323  1.0005  0.4219
 9922WAT      O41492   3.450   6.795   4.864 -0.3279 -0.1987 -0.0225
 9922WAT     H141493   3.453   6.714   4.814  1.0321  0.2973 -0.7874
 9922WAT     H241494   3.366   6.835   4.841  1.3543  1.4456 -4.3277
 9922WAT    EPW41495   3.440   6.790   4.854  0.0734  0.0837 -0.6912
 9923WAT      O41496   5.937   1.848   4.088  0.1693  0.4640  0.2079
 9923WAT     H141497   5.974   1.886   4.008 -1.7005 -1.8304 -1.9060
 9923WAT     H241498   5.887   1.919   4.128  1.9380  1.9330 -0.0453
 9923WAT    EPW41499   5.936   1.862   4.083  0.1559  0.3551 -0.1044
 9924WAT      O41500  -2.174   7.688   0.257  0.0486 -0.0053 -0.4767
 9924WAT     H141501  -2.168   7.739   0.338 -0.2416  0.7717 -0.9318
 9924WAT     H241502  -2.183   7.754   0.188 -1.0991 -0.6881 -1.0096
 9924WAT    EPW41503  -2.175   7.703   0.258 -0.1410  0.0069 -0.6070
 9925WAT      O41504   1.633   6.001   8.839  0.1321 -0.0870 -0.1099
 9925WAT     H141505   1.632   5.986   8.933  1.3800 -1.3085 -0.2634
 9925WAT     H241506   1.716   6.044   8.822 -0.0407  0.0400 -0.6662
 9925WAT    EPW41507   1.644   6.005   8.849  0.2739 -0.2315 -0.2031
 9926WAT      O41508   4.501   9.647   2.279  0.0869 -0.2294 -0.5278
 9926WAT     H141509   4.585   9.681   2.307 -0.0252 -0.7658  0.5002
 9926WAT     H241510   4.521   9.590   2.204  0.7809 -1.1681  0.3428
 9926WAT    EPW41511   4.514   9.644   2.272  0.1638 -0.4244 -0.2774
 9927WAT      O41512  -0.144   0.773   3.341 -0.0899 -0.4351  0.0154
 9927WAT     H141513  -0.063   0.814   3.310 -1.6131  2.7673 -0.0402
 9927WAT     H241514  -0.170   0.823   3.417 -2.1880 -1.1950 -0.1304
 9927WAT    EPW41515  -0.136   0.785   3.347 -0.5675 -0.1130 -0.0112
 9928WAT      O41516   0.749   1.213   1.096 -0.5367 -0.5498 -0.0240
 9928WAT     H141517   0.752   1.173   1.009  1.3850 -0.1536 -0.1879
 9928WAT     H241518   0.807   1.289   1.090 -0.3602 -0.5149  1.6011
 9928WAT    EPW41519   0.757   1.218   1.084 -0.2599 -0.4930  0.1687
 9929WAT      O41520   4.540   3.750   1.982 -0.4067 -0.6992 -1.2099
 9929WAT     H141521   4.534   3.826   2.040 -2.0990  0.7191 -3.1153
 9929WAT     H241522   4.626   3.758   1.940  0.4669 -1.2681  0.3756
 9929WAT    EPW41523   4.551   3.761   1.984 -0.5147 -0.5870 -1.2521
 9930WAT      O41524   1.644   5.205   0.645 -0.8281  0.4745 -0.0301
 9930WAT     H141525   1.721   5.220   0.591 -1.2486  2.0793 -0.2179
 9930WAT     H241526   1.672   5.138   0.708 -0.6132 -2.1933 -2.7335
 9930WAT    EPW41527   1.658   5.198   0.646 -0.8552  0.3345 -0.4115
 9931WAT      O41528   1.172   0.967   7.732 -0.2528 -0.6611  0.6000
 9931WAT     H141529   1.155   0.919   7.813  1.6473 -0.9827  0.8624
 9931WAT     H241530   1.146   1.057   7.752 -0.3881 -0.8634  1.3650
 9931WAT    EPW41531   1.166   0.973   7.745 -0.0200 -0.7302  0.7358
 9932WAT      O41532   4.327   0.528   0.508  0.3812  0.6598  0.0601
 9932WAT     H141533   4.244   0.525   0.556  0.7237  1.9974  0.7944
 9932WAT     H241534   4.303   0.506   0.418 -0.2781 -1.8974  0.7896
 9932WAT    EPW41535   4.313   0.525   0.502  0.3393  0.4990  0.2531
 9933WAT      O41536   3.984   5.939   2.211  0.0916 -0.0161 -0.0151
 9933WAT     H141537   3.915   5.999   2.241  2.2654  3.1139 -0.7915
 9933WAT     H241538   3.969   5.931   2.117 -0.4730 -1.2077  0.1510
 9933WAT    EPW41539   3.973   5.946   2.203  0.3039  0.2396 -0.0956
 9934WAT      O41540   1.504   0.010   5.990  0.2818 -0.0558  0.0102
 9934WAT     H141541   1.445   0.084   6.004  0.3581  0.3085 -1.3886
 9934WAT     H241542   1.489  -0.047   6.064 -1.2092  0.4472  0.1261
 9934WAT    EPW41543   1.494   0.012   6.002  0.0952  0.0586 -0.1593
 9935WAT      O41544   2.654   3.484   7.356 -0.1811  0.4367 -0.4843
 9935WAT     H141545   2.563   3.514   7.353 -0.4464 -0.4080 -1.9306
 9935WAT     H241546   2.706   3.564   7.350 -0.7799  1.0329  1.4968
 9935WAT    EPW41547   2.649   3.498   7.355 -0.2950  0.4039 -0.4139
 9936WAT      O41548  -2.357   0.739   6.039 -0.2383  0.0947 -0.2206
 9936WAT     H141549  -2.398   0.812   5.992  0.9112  1.4089  0.7153
 9936WAT     H241550  -2.294   0.703   5.977 -2.0854 -1.3740 -1.3565
 9936WAT    EPW41551  -2.354   0.744   6.025 -0.3304  0.0744 -0.2470
 9937WAT      O41552  -2.239   1.372   4.870  0.3522 -0.7133  0.6669
 9937WAT     H141553  -2.256   1.465   4.855  0.4540 -0.8746 -0.5055
 9937WAT     H241554  -2.284   1.327   4.799  1.7458 -1.4531  0.2090
 9937WAT    EPW41555  -2.247   1.378   4.859  0.5494 -0.8321  0.4518
 9938WAT      O41556   2.235   7.081   3.272 -0.0782 -0.3293 -0.7962
 9938WAT     H141557   2.242   7.124   3.187 -2.9126 -0.2065 -1.0454
 9938WAT     H241558   2.236   7.152   3.335 -0.5271 -0.2203 -0.9117
 9938WAT    EPW41559   2.236   7.096   3.269 -0.5112 -0.2985 -0.8444
 9939WAT      O41560  -5.862   9.582   6.570  0.7309 -0.4334 -0.6570
 9939WAT     H141561  -5.868   9.616   6.481  0.2714 -0.3292 -0.5877
 9939WAT     H241562  -5.862   9.487   6.559  1.5185 -0.4283 -0.8172
 9939WAT    EPW41563  -5.862   9.574   6.557  0.7741 -0.4191 -0.6690
 9940WAT      O41564   1.239   2.960   6.376  0.2087 -1.0441  0.0619
 9940WAT     H141565   1.333   2.973   6.385  0.0865  0.5388 -0.7839
 9940WAT     H241566   1.221   2.968   6.283 -0.7425 -1.6545  0.1673
 9940WAT    EPW41567   1.249   2.963   6.365  0.0672 -0.9160 -0.0358
 9941WAT      O41568   6.504   5.631   3.063  0.2430  0.1957 -0.2442
 9941WAT     H141569   6.570   5.684   3.107 -1.4949  2.6258 -0.3181
 9941WAT     H241570   6.444   5.604   3.133  1.2777 -2.0698 -0.1564
 9941WAT    EPW41571   6.505   5.634   3.078  0.1502  0.2174 -0.2424
 9942WAT      O41572  -4.671   8.120   2.930  0.1715 -0.0354 -0.3341
 9942WAT     H141573  -4.656   8.127   2.836 -0.5232 -0.3918 -0.4763
 9942WAT     H241574  -4.589   8.086   2.965  1.0934  1.8365 -0.5538
 9942WAT    EPW41575  -4.658   8.117   2.922  0.2012  0.1645 -0.3818
 9943WAT      O41576   9.266   2.524   0.395 -0.3585 -0.2665 -0.6616
 9943WAT     H141577   9.239   2.616   0.401 -0.7251 -0.3848 -0.5010
 9943WAT     H241578   9.318   2.510   0.474  1.7645  0.4749 -1.8459
 9943WAT    EPW41579   9.270   2.535   0.407 -0.1268 -0.1842 -0.7966
 9944WAT      O41580   4.551   5.311   6.617 -0.2606 -0.3612  0.1292
 9944WAT     H141581   4.626   5.284   6.564 -1.7308 -1.4237 -1.5029
 9944WAT     H241582   4.587   5.322   6.705  2.4556  2.3087 -1.1453
 9944WAT    EPW41583   4.566   5.309   6.622 -0.0963 -0.1493 -0.2542
 9945WAT      O41584  -0.757   2.776   7.352  0.3276 -0.3311 -0.1917
 9945WAT     H141585  -0.684   2.796   7.295  0.3735  0.2252  0.0605
 9945WAT     H241586  -0.774   2.857   7.400 -1.1132 -0.1394 -0.9720
 9945WAT    EPW41587  -0.750   2.789   7.351  0.1436 -0.2325 -0.2615
 9946WAT      O41588   3.913   0.349   3.882 -0.5069 -0.4833 -0.5100
 9946WAT     H141589   3.895   0.337   3.975 -1.0948  2.8079 -0.0765
 9946WAT     H241590   3.830   0.331   3.838 -0.6958 -0.3751 -0.1996
 9946WAT    EPW41591   3.900   0.345   3.888 -0.6094 -0.0350 -0.4120
 9947WAT      O41592   0.027   6.633   1.121  0.0486  0.2389 -0.2799
 9947WAT     H141593   0.027   6.552   1.069 -0.2725  0.4446 -0.6024
 9947WAT     H241594   0.118   6.642   1.150  0.9323  1.5592 -3.0776
 9947WAT    EPW41595   0.039   6.624   1.118  0.1228  0.4401 -0.6915
 9948WAT      O41596   3.882   1.817   0.258  0.0848  0.1741  0.4670
 9948WAT     H141597   3.946   1.846   0.193  0.2989 -0.7579  0.2436
 9948WAT     H241598   3.850   1.897   0.298 -0.1068  0.7745 -0.8491
 9948WAT    EPW41599   3.886   1.831   0.254  0.0877  0.1304  0.2640
 9949WAT      O41600   8.662   0.108   3.070 -0.3950  0.2486 -0.0928
 9949WAT     H141601   8.628   0.020   3.052  0.6396  0.0172 -0.9823
 9949WAT     H241602   8.657   0.154   2.987  1.8356  0.0553 -0.4039
 9949WAT    EPW41603   8.657   0.102   3.057  0.0358  0.1926 -0.2512
 9950WAT      O41604  -3.239   9.973   2.052 -0.7141  0.3281 -0.1488
 9950WAT     H141605  -3.216  10.039   1.986 -0.8088  1.1371  0.6046
 9950WAT     H241606  -3.232  10.019   2.136 -5.3329  0.8714  0.2137
 9950WAT    EPW41607  -3.235   9.988   2.055 -1.3357  0.5069 -0.0017
 9951WAT      O41608   6.045   2.345   2.355 -0.5022 -0.3993  0.3228
 9951WAT     H141609   6.080   2.331   2.267  3.4073 -0.2370  1.6522
 9951WAT     H241610   6.046   2.440   2.367 -3.6869 -0.1781 -0.2708
 9951WAT    EPW41611   6.050   2.356   2.345 -0.4067 -0.3488  0.4199
 9952WAT      O41612  -0.817   0.594   1.352  0.3685 -0.3859  0.1253
 9952WAT     H141613  -0.874   0.518   1.357 -0.9922  0.4770 -1.3912
 9952WAT     H241614  -0.854   0.649   1.283  4.0677 -0.6067 -2.3559
 9952WAT    EPW41615  -0.829   0.591   1.344  0.6770 -0.3012 -0.4020
 9953WAT      O41616   3.617   1.333   5.614 -0.3036 -0.2155 -0.2351
 9953WAT     H141617   3.619   1.247   5.657  2.0825 -0.3272 -0.4238
 9953WAT     H241618   3.642   1.316   5.523  1.1857  0.7270 -0.0514
 9953WAT    EPW41619   3.621   1.320   5.608  0.2075 -0.1059 -0.2358
 9954WAT      O41620   2.993   3.513   5.232 -0.2430  0.5004 -0.7327
 9954WAT     H141621   3.080   3.543   5.257  0.6416 -2.0643 -0.4155
 9954WAT     H241622   2.933   3.571   5.280  1.3406  0.5436  1.3659
 9954WAT    EPW41623   2.997   3.524   5.242  0.0826  0.1678 -0.4139
 9955WAT      O41624   5.784  10.256   0.625 -0.5506  0.1383 -0.3151
 9955WAT     H141625   5.793  10.293   0.712 -2.2081  2.2030 -0.9259
 9955WAT     H241626   5.845  10.305   0.571  0.0382 -0.7188 -0.4471
 9955WAT    EPW41627   5.793  10.267   0.629 -0.6914  0.2975 -0.4131
 9956WAT      O41628  -4.219   8.050   3.206  0.0825 -0.3165  0.2428
 9956WAT     H141629  -4.173   7.995   3.270  2.1300  0.0014 -0.8839
 9956WAT     H241630  -4.150   8.101   3.165 -1.5534  1.7794 -0.0496
 9956WAT    EPW41631  -4.204   8.049   3.209  0.1369  0.0019  0.0556
 9957WAT      O41632  -1.064   2.532   3.667 -0.6191  0.9186 -0.4458
 9957WAT     H141633  -1.138   2.489   3.623 -0.2319 -0.4315  0.1777
 9957WAT     H241634  -1.006   2.559   3.595 -1.5912  1.8034 -0.9277
 9957WAT    EPW41635  -1.066   2.530   3.651 -0.6962  0.8572 -0.4270
 9958WAT      O41636   0.669   0.842   1.659  0.7826 -0.5140 -0.2553
 9958WAT     H141637   0.709   0.818   1.743 -0.4655  1.0895  0.8443
 9958WAT     H241638   0.579   0.868   1.681  0.5789  0.4390 -2.0169
 9958WAT    EPW41639   0.662   0.842   1.673  0.5912 -0.1768 -0.3426
 9959WAT      O41640  -1.589   5.340   1.503  1.0510 -0.0685  0.4681
 9959WAT     H141641  -1.520   5.275   1.491  1.9514  1.0244 -0.5779
 9959WAT     H241642  -1.593   5.353   1.597 -1.4068 -3.9183  1.1148
 9959WAT    EPW41643  -1.580   5.333   1.514  0.8456 -0.4323  0.4155
 9960WAT      O41644  -0.309   0.877   1.460  0.0993 -0.4838  0.3751
 9960WAT     H141645  -0.363   0.803   1.487 -1.1006  0.2333  0.0083
 9960WAT     H241646  -0.300   0.867   1.366 -1.5550  0.7479  0.0385
 9960WAT    EPW41647  -0.315   0.866   1.451 -0.2772 -0.2268  0.2823
 9961WAT      O41648  -2.258   7.290   6.819 -0.3054  0.2759 -0.1633
 9961WAT     H141649  -2.344   7.249   6.812 -0.4114  0.7814 -3.5461
 9961WAT     H241650  -2.199   7.232   6.771  0.6915  1.2315 -0.1458
 9961WAT    EPW41651  -2.261   7.277   6.812 -0.1880  0.4687 -0.6070
 9962WAT      O41652  -5.432   8.450   6.763 -0.0207  0.6116  0.0142
 9962WAT     H141653  -5.485   8.384   6.808  2.3082 -1.2422  0.1983
 9962WAT     H241654  -5.438   8.426   6.670  1.0962 -0.1045  0.1145
 9962WAT    EPW41655  -5.440   8.438   6.757  0.4337  0.2728  0.0515
 9963WAT      O41656  -1.047   2.565   3.986  0.5753 -0.1539  0.0672
 9963WAT     H141657  -1.040   2.541   3.894  1.6592  1.1429 -0.2250
 9963WAT     H241658  -1.113   2.505   4.022  0.6093 -1.1066 -1.3871
 9963WAT    EPW41659  -1.055   2.554   3.979  0.7227 -0.1084 -0.1632
 9964WAT      O41660   4.815   6.930   5.316 -0.3050  0.6448  0.4250
 9964WAT     H141661   4.758   6.915   5.391  0.4057  1.3745  1.1329
 9964WAT     H241662   4.896   6.883   5.337 -1.4366 -2.6133 -1.7236
 9964WAT    EPW41663   4.818   6.922   5.329 -0.3603  0.3114  0.2348
 9965WAT      O41664   3.083   2.985   5.840 -0.1451 -0.4118 -0.2981
 9965WAT     H141665   3.056   3.058   5.785  0.3869 -0.0594 -0.1038
 9965WAT     H241666   3.038   2.909   5.804 -0.0079 -0.1405 -1.0505
 9965WAT    EPW41667   3.073   2.985   5.828 -0.0569 -0.3295 -0.3717
 9966WAT      O41668  -0.100   9.258   6.705  0.1708 -0.0663 -0.1302
 9966WAT     H141669  -0.065   9.173   6.678  3.4423  1.7089 -2.3314
 9966WAT     H241670  -0.150   9.288   6.629  1.8257  1.2206 -0.7934
 9966WAT    EPW41671  -0.102   9.251   6.691  0.8205  0.3376 -0.5078
 9967WAT      O41672   3.850   1.308   7.838  0.1218  0.2463  0.0139
 9967WAT     H141673   3.812   1.229   7.876  3.5040 -0.6513  1.9527
 9967WAT     H241674   3.789   1.378   7.864 -0.3740 -1.0687  2.7386
 9967WAT    EPW41675   3.837   1.307   7.847  0.5025 -0.0455  0.6289
 9968WAT      O41676   1.366   0.275   0.812  0.1411  0.1627 -0.0050
 9968WAT     H141677   1.365   0.191   0.858  1.5079  1.5285  2.7540
 9968WAT     H241678   1.312   0.333   0.866  0.9438  1.5798 -0.6725
 9968WAT    EPW41679   1.359   0.271   0.825  0.4272  0.5298  0.2708
 9969WAT      O41680   4.044   2.110   8.914  0.4213  0.0808 -0.3265
 9969WAT     H141681   4.076   2.166   8.844  2.8228 -0.3028  0.3875
 9969WAT     H241682   3.997   2.170   8.973  0.0078  0.7217 -1.2832
 9969WAT    EPW41683   4.042   2.125   8.913  0.6835  0.1147 -0.3586
 9970WAT      O41684   4.210   2.833   1.137  0.0861  0.1185  0.4299
 9970WAT     H141685   4.225   2.903   1.074  1.3352 -0.3221  0.2186
 9970WAT     H241686   4.296   2.815   1.174 -0.2743 -1.0703  0.7258
 9970WAT    EPW41687   4.223   2.840   1.133  0.2034 -0.0964  0.4411
 9971WAT      O41688   1.375   5.475   2.743 -0.6738  0.1243  0.3127
 9971WAT     H141689   1.411   5.555   2.705 -0.6812 -1.1150 -2.5786
 9971WAT     H241690   1.440   5.447   2.807 -0.9096  2.6177  1.7720
 9971WAT    EPW41691   1.388   5.482   2.746 -0.7058  0.2899  0.1239
 9972WAT      O41692  -0.430   4.177   3.439 -0.0378  0.7165  0.1981
 9972WAT     H141693  -0.373   4.236   3.487 -0.5277  1.2243  0.1691
 9972WAT     H241694  -0.380   4.154   3.360 -0.2487  1.9361 -0.3112
 9972WAT    EPW41695  -0.416   4.181   3.435 -0.1303  0.9441  0.1271
 9973WAT      O41696  -2.163   2.369   7.845 -0.4969 -0.2157  0.5545
 9973WAT     H141697  -2.097   2.303   7.869  1.2646  1.5891  0.9666
 9973WAT     H241698  -2.206   2.333   7.768  1.5894 -1.1196 -0.2633
 9973WAT    EPW41699  -2.160   2.355   7.838  0.0106 -0.0969  0.5009
 9974WAT      O41700   4.957   2.058   3.901  0.3833  0.5415  0.2476
 9974WAT     H141701   4.922   1.990   3.844 -1.2301  1.0048  0.6395
 9974WAT     H241702   4.989   2.011   3.978 -2.0014  0.2601  1.1549
 9974WAT    EPW41703   4.957   2.043   3.904 -0.1438  0.5654  0.4190
 9975WAT      O41704   6.232   7.734   1.856 -0.3570  0.2005 -0.1961
 9975WAT     H141705   6.312   7.704   1.899 -0.3664  2.3504  1.5358
 9975WAT     H241706   6.260   7.760   1.769  0.8527  0.8272  0.3486
 9975WAT    EPW41707   6.247   7.734   1.850 -0.1986  0.5670  0.1041
 9976WAT      O41708  -0.034   8.789   7.942 -0.3925 -0.3342 -0.5948
 9976WAT     H141709   0.050   8.751   7.967 -0.9900  0.8923  4.0955
 9976WAT     H241710  -0.012   8.855   7.876  1.8285 -2.1082 -1.7561
 9976WAT    EPW41711  -0.020   8.793   7.936 -0.1784 -0.4063 -0.1292
 9977WAT      O41712  -6.061   7.977   7.980 -0.0125  0.3479 -0.9776
 9977WAT     H141713  -6.038   7.960   8.072  0.6948  0.7525 -1.0709
 9977WAT     H241714  -6.022   7.904   7.932  1.4253  1.2059 -1.1726
 9977WAT    EPW41715  -6.053   7.965   7.986  0.2706  0.5143 -1.0154
 9978WAT      O41716   5.273   7.105   2.704 -0.1954 -0.4309  0.9091
 9978WAT     H141717   5.188   7.092   2.746  0.7134 -0.1556  2.9918
 9978WAT     H241718   5.299   7.193   2.730 -0.5368  0.7002 -2.2090
 9978WAT    EPW41719   5.265   7.115   2.713 -0.1206 -0.2453  0.7725
 9979WAT      O41720  -3.119   0.957   8.168 -0.2006 -0.1341  0.3926
 9979WAT     H141721  -3.111   0.985   8.077  0.5961 -0.4109  0.3725
 9979WAT     H241722  -3.194   1.007   8.202  0.1817  0.7828 -0.0957
 9979WAT    EPW41723  -3.128   0.967   8.161 -0.0451 -0.0497  0.3252
 9980WAT      O41724   5.841   4.307   5.210  0.7424  0.3182  0.0196
 9980WAT     H141725   5.879   4.224   5.182  2.3548  1.1604 -0.4447
 9980WAT     H241726   5.873   4.371   5.145 -1.1594  1.1751 -0.1456
 9980WAT    EPW41727   5.850   4.305   5.198  0.7043  0.5424 -0.0634
 9981WAT      O41728  -3.354  10.168   6.751  0.0577 -0.0943 -0.9023
 9981WAT     H141729  -3.282  10.151   6.811  0.6970  3.3806 -0.4907
 9981WAT     H241730  -3.430  10.182   6.808 -0.3197 -0.9671 -1.1774
 9981WAT    EPW41731  -3.355  10.168   6.767  0.0923  0.2489 -0.8843
 9982WAT      O41732  -2.781   3.297   4.903  0.2325  0.2521  0.8775
 9982WAT     H141733  -2.814   3.216   4.941 -0.7281  0.3932  0.3852
 9982WAT     H241734  -2.858   3.354   4.899  0.1457  0.0643 -1.7457
 9982WAT    EPW41735  -2.795   3.294   4.908  0.0944  0.2459  0.4666
 9983WAT      O41736   2.120   9.169   5.314  0.9158  0.5504  0.1996
 9983WAT     H141737   2.122   9.252   5.266  0.9390  0.3033 -0.2289
 9983WAT     H241738   2.156   9.191   5.400  2.1669  0.7031 -0.3464
 9983WAT    EPW41739   2.125   9.183   5.319  1.0840  0.5379  0.0710
 9984WAT      O41740   2.695   5.646   1.762 -0.1015  0.2161 -0.1331
 9984WAT     H141741   2.762   5.590   1.723  1.9126  2.3662  0.0104
 9984WAT     H241742   2.734   5.733   1.763 -3.2482  1.7894 -0.7630
 9984WAT    EPW41743   2.709   5.650   1.757 -0.2508  0.7071 -0.1972
 9985WAT      O41744  -1.905   2.092   5.597 -0.0329 -0.2024  0.2926
 9985WAT     H141745  -1.989   2.089   5.550 -1.6271  0.9377  2.8551
 9985WAT     H241746  -1.855   2.018   5.561 -2.1287 -0.9359 -1.3229
 9985WAT    EPW41747  -1.910   2.082   5.586 -0.5196 -0.1487  0.4175
 9986WAT      O41748   8.991   1.854   0.764 -0.2918  0.2646  0.3204
 9986WAT     H141749   8.896   1.860   0.759 -0.2103  0.3950 -3.3200
 9986WAT     H241750   9.008   1.766   0.798 -1.6634  0.2095  0.9185
 9986WAT    EPW41751   8.981   1.843   0.768 -0.4621  0.2745 -0.0809
 9987WAT      O41752   5.544   5.194   3.452 -0.1125 -0.3891  0.9709
 9987WAT     H141753   5.458   5.188   3.410  0.3611  0.5065 -0.2223
 9987WAT     H241754   5.604   5.212   3.379  0.7869  1.0103  2.0109
 9987WAT    EPW41755   5.540   5.196   3.437  0.0684 -0.0865  0.9507
 9988WAT      O41756  -3.378   2.353   4.285 -0.0408  0.2795 -0.0520
 9988WAT     H141757  -3.407   2.434   4.327 -0.8650  0.5337 -1.0688
 9988WAT     H241758  -3.406   2.283   4.345  0.1175  0.7077  0.5264
 9988WAT    EPW41759  -3.386   2.354   4.299 -0.1286  0.3695 -0.1097
 9989WAT      O41760  -0.030   7.902   2.879  0.1721 -0.8239 -0.3692
 9989WAT     H141761   0.011   7.839   2.820  1.1168  0.4900 -1.1711
 9989WAT     H241762   0.005   7.880   2.966 -1.9063 -3.3392 -0.0188
 9989WAT    EPW41763  -0.020   7.891   2.883  0.0225 -0.9823 -0.4288
 9990WAT      O41764   1.679   7.798   5.960  0.8126  0.1900 -0.0355
 9990WAT     H141765   1.738   7.729   5.930  0.1886 -0.0951 -0.6601
 9990WAT     H241766   1.599   7.784   5.909  0.0980  0.3724  1.0052
 9990WAT    EPW41767   1.676   7.787   5.949  0.6360  0.1767  0.0193
 9991WAT      O41768  -2.640   7.701   1.871  0.3214 -0.5118  0.1177
 9991WAT     H141769  -2.584   7.678   1.946  0.5906  1.8174  0.7058
 9991WAT     H241770  -2.723   7.727   1.911 -1.2344 -3.6545 -0.7286
 9991WAT    EPW41771  -2.644   7.701   1.886  0.1518 -0.6192  0.0837
 9992WAT      O41772   1.622   0.976   8.806 -0.8833 -0.7232  0.3394
 9992WAT     H141773   1.610   0.923   8.885 -1.3508  0.6391  1.2205
 9992WAT     H241774   1.671   1.052   8.836  0.3703 -0.9569 -1.0427
 9992WAT    EPW41775   1.627   0.979   8.821 -0.7796 -0.5743  0.2732
 9993WAT      O41776  -2.805   6.200   1.602 -0.3860 -0.1318  0.5479
 9993WAT     H141777  -2.759   6.209   1.686  0.2870 -1.9102  0.4185
 9993WAT     H241778  -2.896   6.185   1.627 -0.4741  0.8733  0.8873
 9993WAT    EPW41779  -2.811   6.199   1.617 -0.3089 -0.2337  0.5757
 9994WAT      O41780  -3.621   2.677   6.787  0.1114  0.2413 -0.4425
 9994WAT     H141781  -3.548   2.737   6.775  0.2894  0.4281  1.2559
 9994WAT     H241782  -3.673   2.717   6.856  0.2713 -1.5549  0.7982
 9994WAT    EPW41783  -3.618   2.690   6.795  0.1559  0.0290 -0.0548
 9995WAT      O41784  -0.665   5.688   6.028  0.1729  0.1168  0.1352
 9995WAT     H141785  -0.655   5.783   6.031 -1.4802  0.4031 -1.2641
 9995WAT     H241786  -0.735   5.670   6.090 -0.7323  0.0727 -0.8645
 9995WAT    EPW41787  -0.673   5.698   6.036 -0.1645  0.1485 -0.1814
 9996WAT      O41788   1.564   9.073   5.845 -0.5855  0.1944  0.5406
 9996WAT     H141789   1.577   9.120   5.927  1.2335  1.7627 -0.5607
 9996WAT     H241790   1.477   9.100   5.815  0.0357  2.1934  0.4102
 9996WAT    EPW41791   1.554   9.082   5.852 -0.2637  0.6647  0.3781
 9997WAT      O41792   1.859   0.885   4.226  0.8598  0.3017  0.4607
 9997WAT     H141793   1.923   0.875   4.295 -1.8077 -0.0944  3.0887
 9997WAT     H241794   1.857   0.979   4.208  0.5123  0.6388  2.1241
 9997WAT    EPW41795   1.867   0.896   4.233  0.4621  0.2939  1.0269
 9998WAT      O41796  -4.725   7.444   4.380  0.1583  0.2960 -0.3073
 9998WAT     H141797  -4.674   7.522   4.402 -0.2303  0.4691 -0.0169
 9998WAT     H241798  -4.816   7.474   4.382  0.0873  0.6594 -3.2994
 9998WAT    EPW41799  -4.730   7.458   4.383  0.0978  0.3669 -0.6638
 9999WAT      O41800   2.943   9.680   3.399  0.2310  0.6129  0.0867
 9999WAT     H141801   2.946   9.745   3.329 -1.6072 -1.4653 -2.1232
 9999WAT     H241802   3.018   9.623   3.382  0.7970  1.1135  0.8998
 9999WAT    EPW41803   2.953   9.681   3.387  0.0633  0.4048 -0.0975
10000WAT      O41804   4.789   2.886   3.571  0.5706 -0.8178  0.6041
10000WAT     H141805   4.695   2.868   3.567 -0.0800  2.0020  1.1592
10000WAT     H241806   4.828   2.820   3.513 -1.6619 -2.3423  0.6968
10000WAT    EPW41807   4.781   2.875   3.562  0.1903 -0.6471  0.6895
10001WAT      O41808   1.528   2.798   8.140  0.6402  0.2739  0.4587
10001WAT     H141809   1.610   2.825   8.180 -0.1821  2.0438  1.0097
10001WAT     H241810   1.538   2.820   8.047  1.2962 -0.8512  0.2321
10001WAT    EPW41811   1.540   2.804   8.133  0.6182  0.3589  0.5016
10002WAT      O41812   5.718   2.916   5.223  0.4237  0.4132 -0.0556
10002WAT     H141813   5.765   2.858   5.164  1.2492 -1.4017  2.2687
10002WAT     H241814   5.626   2.901   5.203  0.6611 -0.9264 -0.1982
10002WAT    EPW41815   5.712   2.907   5.212  0.5639 -0.0029  0.2322
10003WAT      O41816   1.303   1.811   4.775 -0.0069 -0.4141  0.4960
10003WAT     H141817   1.256   1.739   4.818 -2.3827 -0.6595 -2.2029
10003WAT     H241818   1.326   1.776   4.689 -0.7490  1.8329 -0.6843
10003WAT    EPW41819   1.300   1.797   4.770 -0.4181 -0.1501 -0.0155
10004WAT      O41820   1.242   8.489   0.990 -0.1367 -0.9885  0.2101
10004WAT     H141821   1.299   8.424   0.947 -1.0245 -1.5049 -0.2170
10004WAT     H241822   1.276   8.495   1.079  1.3623 -0.3577 -0.3707
10004WAT    EPW41823   1.254   8.481   0.996 -0.0561 -0.9737  0.0771
10005WAT      O41824  -4.332   9.818   5.590 -0.1352 -0.3003  0.0918
10005WAT     H141825  -4.238   9.829   5.603  0.2539 -2.2902 -0.7449
10005WAT     H241826  -4.369   9.827   5.678  0.4069  3.3714  0.1090
10005WAT    EPW41827  -4.324   9.821   5.604 -0.0122 -0.0787 -0.0162
10006WAT      O41828   1.127   6.830   2.689 -0.1681  0.4307  0.2482
10006WAT     H141829   1.070   6.880   2.747 -1.3912 -0.9062  0.2665
10006WAT     H241830   1.202   6.805   2.744 -0.0016  1.4125  0.4873
10006WAT    EPW41831   1.129   6.833   2.704 -0.3075  0.3839  0.2822
10007WAT      O41832   4.994   9.756   2.573 -0.2013 -0.2573 -0.6166
10007WAT     H141833   5.004   9.807   2.493 -1.6833  0.5989 -0.2868
10007WAT     H241834   4.955   9.673   2.544 -0.2877 -0.1420 -0.8286
10007WAT    EPW41835   4.990   9.752   2.559 -0.4082 -0.1292 -0.6011
10008WAT      O41836  -2.328   3.290   7.512  0.7527 -0.0356  0.7976
10008WAT     H141837  -2.396   3.357   7.511  0.8029  0.0423 -0.7310
10008WAT     H241838  -2.299   3.286   7.603 -1.1663  0.0481  1.4593
10008WAT    EPW41839  -2.333   3.298   7.524  0.5062 -0.0143  0.6831
10009WAT      O41840  -0.858   2.899   1.942 -0.7021  0.2264 -0.2340
10009WAT     H141841  -0.948   2.897   1.974 -0.6060  2.6356  0.3160
10009WAT     H241842  -0.846   2.987   1.906  1.9003  0.5314  1.1314
10009WAT    EPW41843  -0.868   2.910   1.941 -0.3462  0.5845  0.0186
10010WAT      O41844   4.264   8.962   1.194 -1.2119  0.5983  0.5929
10010WAT     H141845   4.191   8.928   1.142 -0.0356  2.4255 -2.5366
10010WAT     H241846   4.341   8.951   1.138  0.6710  0.3604  3.0671
10010WAT    EPW41847   4.264   8.956   1.179 -0.8085  0.8082  0.5065
10011WAT      O41848  -1.825   8.078   0.347  0.4499  0.2289 -0.2700
10011WAT     H141849  -1.731   8.075   0.361  0.2367  0.9438  1.7604
10011WAT     H241850  -1.843   8.168   0.322  0.1929  0.4442  0.6412
10011WAT    EPW41851  -1.815   8.089   0.346  0.3878  0.3514  0.1179
10012WAT      O41852   4.185   2.362   2.967 -0.3714  0.6925  0.5678
10012WAT     H141853   4.238   2.433   2.931  0.5111 -0.2774 -0.0906
10012WAT     H241854   4.218   2.350   3.056 -0.2511  0.8448  0.5432
10012WAT    EPW41855   4.196   2.370   2.974 -0.2391  0.5848  0.4777
10013WAT      O41856   6.401   2.282   0.532 -0.0643 -0.5825 -0.2103
10013WAT     H141857   6.350   2.294   0.452 -1.1282  1.5119  0.7182
10013WAT     H241858   6.403   2.187   0.545  0.9210 -1.0657 -3.1632
10013WAT    EPW41859   6.395   2.271   0.523 -0.0746 -0.3700 -0.4773
10014WAT      O41860   2.946   0.791   0.779  0.0330 -0.0743  0.2526
10014WAT     H141861   3.023   0.822   0.827  0.2580  0.7061 -0.5730
10014WAT     H241862   2.948   0.696   0.789  0.6819 -0.0060  0.8629
10014WAT    EPW41863   2.957   0.783   0.787  0.1483  0.0376  0.2242
10015WAT      O41864   4.979   7.474   3.093  0.5196  0.8820  0.0588
10015WAT     H141865   4.954   7.439   3.179 -1.0436  2.8535  0.4808
10015WAT     H241866   4.903   7.527   3.066  1.1856  0.7107 -2.3206
10015WAT    EPW41867   4.965   7.476   3.101  0.4010  1.1194 -0.1993
10016WAT      O41868   0.554   6.775   0.440  0.4920 -0.8622  0.3324
10016WAT     H141869   0.558   6.729   0.524 -4.3460  0.6594  1.7285
10016WAT     H241870   0.560   6.868   0.464 -1.1530 -0.3914 -0.9206
10016WAT    EPW41871   0.556   6.782   0.454 -0.3631 -0.5994  0.3513
10017WAT      O41872   0.834   7.723   7.316  0.2435 -0.2367  0.4157
10017WAT     H141873   0.793   7.806   7.342 -1.5058 -1.3993  1.5311
10017WAT     H241874   0.763   7.671   7.279  1.3698 -1.1759 -0.5406
10017WAT    EPW41875   0.819   7.727   7.314  0.1613 -0.5138  0.4368
10018WAT      O41876   7.619   1.543   1.960  0.0913 -0.5009 -0.7776
10018WAT     H141877   7.622   1.624   2.011  0.5036 -0.9625 -0.0444
10018WAT     H241878   7.666   1.564   1.879 -0.5020  0.2213 -0.9454
10018WAT    EPW41879   7.626   1.557   1.956  0.0675 -0.4665 -0.7030
10019WAT      O41880   2.092   3.920   8.213 -0.3206 -0.3415 -0.2182
10019WAT     H141881   2.086   3.830   8.181  0.0023 -0.7366  0.7991
10019WAT     H241882   2.001   3.944   8.231 -0.8343  0.7305 -3.5380
10019WAT    EPW41883   2.079   3.911   8.211 -0.3457 -0.2522 -0.5217
10020WAT      O41884   2.307   5.458   2.565  0.6562 -0.1910 -0.5063
10020WAT     H141885   2.375   5.409   2.519 -0.0919 -1.8508  0.0962
10020WAT     H241886   2.227   5.409   2.550  0.0749  0.2152  1.0673
10020WAT    EPW41887   2.305   5.445   2.557  0.4809 -0.3564 -0.2193
10021WAT      O41888   3.263   2.310   4.133 -0.5168 -0.4582  0.4259
10021WAT     H141889   3.292   2.287   4.221  1.8793  0.3948 -0.0707
10021WAT     H241890   3.279   2.232   4.080 -1.8657 -0.9367  0.6629
10021WAT    EPW41891   3.269   2.297   4.138 -0.3786 -0.4088  0.3915
10022WAT      O41892   3.085   9.656   4.488 -0.4770 -0.0902 -0.2562
10022WAT     H141893   3.128   9.644   4.573 -0.6034  2.4520  0.2719
10022WAT     H241894   3.138   9.607   4.426 -0.2835 -1.8821  1.2344
10022WAT    EPW41895   3.097   9.648   4.491 -0.4681  0.0086  0.0100
10023WAT      O41896  -3.015   0.819   6.489 -0.2031  0.3170  0.0257
10023WAT     H141897  -3.106   0.802   6.466 -0.5426  1.2481  0.6623
10023WAT     H241898  -3.005   0.914   6.484 -0.0776  0.5357  2.7787
10023WAT    EPW41899  -3.025   0.829   6.485 -0.2313  0.4686  0.4728
10024WAT      O41900   0.009   2.654   0.606 -0.1193 -0.3850  0.1434
10024WAT     H141901   0.034   2.566   0.632  1.5640 -0.6231 -1.9652
10024WAT     H241902  -0.072   2.643   0.557  0.4400 -0.8719 -0.6897
10024WAT    EPW41903   0.002   2.641   0.603  0.1765 -0.4807 -0.2446
10025WAT      O41904  -5.715   8.618   6.472  0.0463  0.2230  0.3702
10025WAT     H141905  -5.709   8.610   6.567  2.7171  0.0177  0.2535
10025WAT     H241906  -5.624   8.613   6.441 -0.8041 -0.6156 -2.2755
10025WAT    EPW41907  -5.702   8.617   6.480  0.2863  0.0854  0.0060
10026WAT      O41908  -3.850  10.060   2.249 -0.2806  0.4767  0.2090
10026WAT     H141909  -3.774  10.046   2.306 -1.4305  0.0026  1.6874
10026WAT     H241910  -3.823  10.130   2.190  1.5371 -0.1284  0.2451
10026WAT    EPW41911  -3.836  10.067   2.249 -0.1925  0.3347  0.4086
10027WAT      O41912   7.515   2.862   0.076 -0.1183 -0.7527  0.6249
10027WAT     H141913   7.462   2.919   0.021  3.1483  0.7898 -1.2008
10027WAT     H241914   7.519   2.779   0.029  0.3483 -0.3462 -0.0744
10027WAT    EPW41915   7.509   2.859   0.063  0.3743 -0.4956  0.2919
10028WAT      O41916  -0.853   8.906   5.072 -0.0619 -0.2860  0.1138
10028WAT     H141917  -0.799   8.953   5.007  2.6391  0.2284  2.5305
10028WAT     H241918  -0.862   8.968   5.144  0.9083 -2.3239  2.0879
10028WAT    EPW41919  -0.847   8.920   5.073  0.4223 -0.4869  0.6928
10029WAT      O41920   2.033   3.071   0.728 -0.5192  0.1717 -0.7703
10029WAT     H141921   2.001   2.982   0.714 -0.5656 -0.1209  0.9678
10029WAT     H241922   1.962   3.127   0.698 -1.4395 -0.4302  0.2230
10029WAT    EPW41923   2.020   3.067   0.722 -0.6467  0.0536 -0.4101
10030WAT      O41924  -2.460   3.763   5.579 -0.1406  0.2068  0.5037
10030WAT     H141925  -2.443   3.822   5.652 -2.3864  1.7703 -0.1291
10030WAT     H241926  -2.550   3.731   5.594  0.8851 -2.9901  0.7056
10030WAT    EPW41927  -2.470   3.766   5.590 -0.3016 -0.0086  0.4468
10031WAT      O41928   1.278   4.001   1.631 -0.7822  0.6218 -0.4048
10031WAT     H141929   1.296   3.935   1.564  1.3670 -0.4471  1.1139
10031WAT     H241930   1.345   4.068   1.616  0.3345 -0.0779  1.1564
10031WAT    EPW41931   1.289   4.001   1.620 -0.3514  0.3884  0.0014
10032WAT      O41932  -6.766   6.345   8.074 -0.4592  0.3568  0.5486
10032WAT     H141933  -6.715   6.411   8.122 -0.8630 -1.3584  3.5814
10032WAT     H241934  -6.851   6.386   8.061  0.8326  2.4394 -2.6832
10032WAT    EPW41935  -6.770   6.359   8.079 -0.3421  0.4053  0.5221
10033WAT      O41936   2.768   5.959   5.257 -0.1125  0.1009 -0.4182
10033WAT     H141937   2.727   5.998   5.179  1.7492 -1.3052 -2.2207
10033WAT     H241938   2.712   5.885   5.279 -0.4588  0.2905 -0.6518
10033WAT    EPW41939   2.756   5.954   5.249  0.0874 -0.0596 -0.6866
10034WAT      O41940  -6.802   8.053   8.207 -0.0879  0.6387  0.8665
10034WAT     H141941  -6.788   7.959   8.200 -0.2532  0.6839 -0.2634
10034WAT     H241942  -6.818   8.068   8.300  1.2002 -0.2658  1.2586
10034WAT    EPW41943  -6.802   8.043   8.218  0.0601  0.5255  0.7691
10035WAT      O41944  -2.752   3.902   3.915 -0.3507 -0.0441  0.5893
10035WAT     H141945  -2.841   3.898   3.951 -0.2964 -2.6916  0.6036
10035WAT     H241946  -2.743   3.822   3.864  2.2516 -0.1750  1.1337
10035WAT    EPW41947  -2.762   3.891   3.913 -0.0004 -0.4106  0.6630
10036WAT      O41948  -1.475   7.881   8.424  0.4442  0.3826  0.8702
10036WAT     H141949  -1.504   7.941   8.356  1.7576 -0.6937 -0.7142
10036WAT     H241950  -1.489   7.794   8.386 -0.7468 -0.3318  2.8219
10036WAT    EPW41951  -1.481   7.877   8.410  0.4604  0.1466  0.9189
10037WAT      O41952   1.387   8.950   5.109  0.2912  0.2441  1.0834
10037WAT     H141953   1.357   9.040   5.097 -1.3535 -0.2031  1.4760
10037WAT     H241954   1.460   8.941   5.048 -0.6421  1.3434 -0.2897
10037WAT    EPW41955   1.393   8.960   5.099 -0.0488  0.3304  0.9542
10038WAT      O41956   3.579   7.495   3.347  0.4804  0.0135  0.1705
10038WAT     H141957   3.588   7.587   3.320  0.6957  0.3143  1.2163
10038WAT     H241958   3.520   7.457   3.281 -2.8403  1.8665  1.7592
10038WAT    EPW41959   3.572   7.502   3.335  0.0707  0.2975  0.5178
10039WAT      O41960   4.569   1.910   2.931 -0.1129 -0.2524 -0.3303
10039WAT     H141961   4.616   1.944   2.854  0.7898 -0.6354  0.0387
10039WAT     H241962   4.508   1.980   2.954 -1.1703 -0.5416 -2.0323
10039WAT    EPW41963   4.567   1.924   2.924 -0.1333 -0.3411 -0.5060
10040WAT      O41964   5.709   9.393   1.854 -0.6395 -0.1000 -0.4455
10040WAT     H141965   5.727   9.300   1.836 -0.3837 -0.4597  1.4577
10040WAT     H241966   5.620   9.407   1.821  0.4168 -0.1504 -3.6023
10040WAT    EPW41967   5.700   9.382   1.847 -0.4666 -0.1545 -0.6108
10041WAT      O41968   7.700   3.118   1.480  1.0206  0.0931 -0.0540
10041WAT     H141969   7.703   3.084   1.569  0.7700  0.4366  0.0882
10041WAT     H241970   7.782   3.167   1.469  2.0032 -1.6123 -0.6999
10041WAT    EPW41971   7.711   3.120   1.490  1.1172 -0.0865 -0.1205
10042WAT      O41972   7.053   5.270   0.547  0.0141 -0.8476  0.0991
10042WAT     H141973   6.986   5.234   0.488  1.6847 -2.4548 -0.9225
10042WAT     H241974   7.073   5.198   0.607  4.4571 -2.4566 -2.8559
10042WAT    EPW41975   7.047   5.256   0.547  0.8206 -1.2720 -0.4254
10043WAT      O41976  -4.037   8.789   3.952 -0.1133  0.3291  0.2249
10043WAT     H141977  -3.975   8.858   3.927 -0.6365  0.6781 -0.1458
10043WAT     H241978  -4.100   8.833   4.009 -0.4497  0.1544 -0.0099
10043WAT    EPW41979  -4.037   8.804   3.956 -0.2267  0.3524  0.1450
10044WAT      O41980   4.324  10.232   1.856  0.1962 -0.2573  0.2315
10044WAT     H141981   4.296  10.158   1.803  3.3359 -2.0775  0.8621
10044WAT     H241982   4.363  10.294   1.794 -0.2960 -0.2221 -0.0452
10044WAT    EPW41983   4.326  10.231   1.841  0.5455 -0.4930  0.2782
10045WAT      O41984   6.773   4.602   1.395  0.4191 -0.1527 -0.2964
10045WAT     H141985   6.735   4.627   1.480  0.4395  0.8070 -0.5549
10045WAT     H241986   6.745   4.671   1.335  1.1633 -0.3314 -0.8718
10045WAT    EPW41987   6.764   4.614   1.399  0.5200 -0.0494 -0.4064
10046WAT      O41988   1.305   7.955   4.638  0.3353  0.5371  0.1355
10046WAT     H141989   1.230   8.015   4.635 -0.4004 -0.2715  1.5497
10046WAT     H241990   1.361   7.990   4.707  2.0662  1.9519 -1.8287
10046WAT    EPW41991   1.303   7.968   4.647  0.4666  0.6170  0.0632
10047WAT      O41992  -0.487   5.640   4.912 -0.4081 -0.5861 -0.4550
10047WAT     H141993  -0.487   5.568   4.849  2.5256 -1.8406  0.7853
10047WAT     H241994  -0.394   5.662   4.923 -1.0077  1.3494  1.4950
10047WAT    EPW41995  -0.475   5.633   4.905 -0.1002 -0.4964 -0.0343
10048WAT      O41996  -2.768   3.955   5.074 -0.5532  0.0820  0.5324
10048WAT     H141997  -2.836   3.901   5.115 -1.1121 -1.2635 -2.0018
10048WAT     H241998  -2.694   3.896   5.061  0.7452  1.2403  2.1360
10048WAT    EPW41999  -2.767   3.940   5.078 -0.4556  0.0573  0.4098
10049WAT      O42000   3.778   4.298   7.418  0.4772  0.3439  0.0090
10049WAT     H142001   3.731   4.218   7.395 -0.1835  0.5577  0.5752
10049WAT     H242002   3.709   4.361   7.441  0.9102  1.4474 -1.5031
10049WAT    EPW42003   3.763   4.296   7.418  0.4470  0.5176 -0.1156
10050WAT      O42004   1.281   3.570   5.861  0.0053 -0.1782 -0.1687
10050WAT     H142005   1.325   3.649   5.832  0.6378 -0.4946 -0.0800
10050WAT     H242006   1.214   3.601   5.922  1.1611  0.1971  0.9676
10050WAT    EPW42007   1.278   3.584   5.865  0.2412 -0.1704 -0.0072
10051WAT      O42008   2.309   6.248   4.018  0.2173  0.1056  0.1919
10051WAT     H142009   2.395   6.267   4.056  1.5925  0.4394 -2.7969
10051WAT     H242010   2.307   6.153   4.008  0.7706  0.1799 -0.7668
10051WAT    EPW42011   2.320   6.238   4.022  0.4716  0.1593 -0.3288
10052WAT      O42012   1.930   4.367   7.398  0.4315 -0.1100 -0.1804
10052WAT     H142013   1.900   4.452   7.430  0.8154 -0.9338  2.6957
10052WAT     H242014   2.007   4.386   7.345 -1.2769  1.5143 -2.2511
10052WAT    EPW42015   1.936   4.381   7.395  0.2568 -0.0043 -0.0741
10053WAT      O42016  -2.568   9.506   2.571  0.5984 -0.1748  0.0955
10053WAT     H142017  -2.612   9.515   2.486 -1.7111 -0.2459  1.2007
10053WAT     H242018  -2.605   9.575   2.625  0.6849 -1.2204  1.5614
10053WAT    EPW42019  -2.579   9.516   2.567  0.3053 -0.3223  0.4346
10054WAT      O42020  -0.685   3.166   6.169  0.0909 -0.2259  0.8175
10054WAT     H142021  -0.686   3.120   6.253  1.9112 -0.1608  0.9176
10054WAT     H242022  -0.636   3.246   6.185  0.7108 -0.3414 -0.3507
10054WAT    EPW42023  -0.679   3.170   6.182  0.4128 -0.2326  0.6766
10055WAT      O42024   8.801   1.052   1.463 -0.0199 -0.4251 -0.0365
10055WAT     H142025   8.896   1.063   1.470  0.0785 -1.1358 -0.1714
10055WAT     H242026   8.782   0.975   1.515 -0.4232 -0.7038 -0.5866
10055WAT    EPW42027   8.811   1.043   1.471 -0.0606 -0.5556 -0.1268
10056WAT      O42028  -5.309   6.575   8.740 -0.0568  0.4823 -0.3134
10056WAT     H142029  -5.254   6.637   8.693  1.8947  1.4570  2.9242
10056WAT     H242030  -5.391   6.622   8.754  0.2862  1.1608 -0.5260
10056WAT    EPW42031  -5.313   6.589   8.736  0.2458  0.7005  0.0858
10057WAT      O42032   2.793   2.339   6.410 -0.5289 -0.1472 -0.1872
10057WAT     H142033   2.885   2.315   6.422 -0.6960 -0.1528  1.3599
10057WAT     H242034   2.746   2.255   6.408 -0.6512 -0.1023  0.6056
10057WAT    EPW42035   2.799   2.325   6.411 -0.5671 -0.1420  0.1214
10058WAT      O42036  -3.567   0.028   6.640 -0.2389 -0.1629 -0.8991
10058WAT     H142037  -3.653   0.047   6.676 -0.1339  0.3559 -0.9187
10058WAT     H242038  -3.506   0.079   6.694  0.0315 -0.3255 -1.0473
10058WAT    EPW42039  -3.570   0.037   6.652 -0.1894 -0.1159 -0.9212
10059WAT      O42040   3.532   9.744   5.527 -0.2525  0.6406  0.1789
10059WAT     H142041   3.593   9.800   5.478 -0.9638  2.8547  1.6992
10059WAT     H242042   3.576   9.728   5.610 -0.1578 -0.9748 -0.1444
10059WAT    EPW42043   3.546   9.749   5.531 -0.3338  0.7195  0.3369
10060WAT      O42044   1.345   9.541   6.658 -0.8494 -0.0050 -0.0600
10060WAT     H142045   1.420   9.532   6.600 -1.2124 -1.8089 -0.3022
10060WAT     H242046   1.269   9.530   6.601 -1.2102 -1.9840  0.7073
10060WAT    EPW42047   1.345   9.539   6.643 -0.9449 -0.5035  0.0093
10061WAT      O42048  -0.061   4.198   4.022  0.1701  0.0808  0.4799
10061WAT     H142049  -0.041   4.242   4.105 -0.7769  1.3829  0.0503
10061WAT     H242050   0.021   4.156   3.996  0.7566  0.5352  1.5446
10061WAT    EPW42051  -0.048   4.198   4.030  0.1226  0.3126  0.5634
10062WAT      O42052  -0.674   2.612   3.988 -0.0630  0.1401 -0.2956
10062WAT     H142053  -0.675   2.623   3.893  2.6198 -0.8821 -0.5142
10062WAT     H242054  -0.588   2.642   4.015 -0.9383  0.8786  1.9329
10062WAT    EPW42055  -0.663   2.617   3.979  0.1754  0.1026 -0.0305
10063WAT      O42056   2.700   0.206   3.531  0.2011 -0.5657 -0.2691
10063WAT     H142057   2.704   0.126   3.583  2.9567 -0.7902 -0.6839
10063WAT     H242058   2.737   0.181   3.446  0.9819  1.0824 -0.4573
10063WAT    EPW42059   2.706   0.193   3.527  0.6675 -0.3780 -0.3486
10064WAT      O42060  -0.208   3.326   1.993 -0.9238 -0.1109 -0.0706
10064WAT     H142061  -0.159   3.386   1.936  1.0388 -1.7948 -0.2681
10064WAT     H242062  -0.188   3.355   2.082  1.6987 -1.5827 -0.0879
10064WAT    EPW42063  -0.199   3.338   1.997 -0.3190 -0.5271 -0.0989
10065WAT      O42064   2.029   1.162   3.911  0.3076  0.6166  0.4630
10065WAT     H142065   1.999   1.230   3.972 -0.5347  1.2686 -0.6230
10065WAT     H242066   2.020   1.203   3.824 -1.7819 -1.3804 -0.3967
10065WAT    EPW42067   2.024   1.177   3.907 -0.0790  0.4392  0.2064
10066WAT      O42068  -3.119   8.900   2.121 -0.1743 -0.1621  0.1712
10066WAT     H142069  -3.177   8.860   2.056 -0.8238 -0.8077  1.1257
10066WAT     H242070  -3.176   8.921   2.195  0.8448 -1.1185  1.2687
10066WAT    EPW42071  -3.134   8.897   2.122 -0.1254 -0.3738  0.4420
10067WAT      O42072  -0.380   9.522   3.346 -0.0909 -0.5456  0.2723
10067WAT     H142073  -0.388   9.495   3.437 -2.4317 -0.3904  0.1547
10067WAT     H242074  -0.450   9.477   3.300  1.5584 -1.3153 -1.6777
10067WAT    EPW42075  -0.390   9.513   3.352 -0.1821 -0.6266 -0.0005
10068WAT      O42076  -1.216  10.329   6.514 -0.0465  0.4269 -0.9988
10068WAT     H142077  -1.153  10.289   6.573  1.4381  1.0449 -2.0932
10068WAT     H242078  -1.295  10.341   6.567  0.0524 -2.2010 -0.1418
10068WAT    EPW42079  -1.218  10.326   6.529  0.1624  0.1616 -1.0302
10069WAT      O42080   1.473   2.257   1.636 -0.3991 -0.1045  0.7979
10069WAT     H142081   1.503   2.226   1.551 -0.1434  1.8452  0.1410
10069WAT     H242082   1.384   2.288   1.621  0.2623  1.9206  0.7694
10069WAT    EPW42083   1.465   2.257   1.623 -0.2781  0.4197  0.7076
10070WAT      O42084   1.490   2.710   0.738  0.0667 -0.0442 -0.1649
10070WAT     H142085   1.425   2.718   0.808 -0.8589  0.8812 -1.0743
10070WAT     H242086   1.557   2.652   0.773 -1.4435 -1.3491  0.6952
10070WAT    EPW42087   1.490   2.703   0.752 -0.2545 -0.0943 -0.1714
10071WAT      O42088  -0.924   4.764   0.478 -0.1215  0.0869  0.7342
10071WAT     H142089  -0.990   4.821   0.438 -0.7913  0.3405  2.1299
10071WAT     H242090  -0.846   4.776   0.424 -1.0568  0.1796 -0.6419
10071WAT    EPW42091  -0.923   4.773   0.466 -0.3332  0.1326  0.7368
10072WAT      O42092   2.562   5.352   1.719 -0.5246  0.1221 -0.5798
10072WAT     H142093   2.557   5.447   1.729 -0.4957  0.3253 -2.1529
10072WAT     H242094   2.470   5.325   1.717 -0.5454 -0.1908  2.0006
10072WAT    EPW42095   2.549   5.361   1.720 -0.5236  0.1075 -0.4470
10073WAT      O42096   4.281   8.631   0.924 -0.4935  0.1172 -0.0006
10073WAT     H142097   4.336   8.672   0.857  1.3082  0.4213  1.5712
10073WAT     H242098   4.214   8.696   0.943 -0.4417  0.4187 -0.7972
10073WAT    EPW42099   4.279   8.645   0.918 -0.2489  0.1969  0.1016
10074WAT      O42100   1.581   1.226   0.337 -0.8105  0.1424  0.2204
10074WAT     H142101   1.639   1.294   0.303 -2.3211  1.3784 -0.0185
10074WAT     H242102   1.576   1.161   0.267  0.5608 -0.1788  0.4029
10074WAT    EPW42103   1.588   1.226   0.323 -0.8289  0.2630  0.2130
10075WAT      O42104  -0.293   9.563   3.771 -0.4217  0.0167  0.3517
10075WAT     H142105  -0.350   9.488   3.756  1.7355 -1.2261 -3.0213
10075WAT     H242106  -0.319   9.626   3.704  1.7571 -0.4712 -1.0758
10075WAT    EPW42107  -0.304   9.561   3.760  0.1502 -0.2117 -0.2815
10076WAT      O42108   6.567   1.824   2.733 -0.6936 -0.2364 -0.0893
10076WAT     H142109   6.515   1.867   2.800  1.5271  1.7421  0.4980
10076WAT     H242110   6.507   1.813   2.659 -2.6043 -0.5088  1.4241
10076WAT    EPW42111   6.552   1.828   2.732 -0.6528 -0.0114  0.1878
10077WAT      O42112   0.550   5.360   5.781  0.1288 -0.0156 -0.4062
10077WAT     H142113   0.485   5.420   5.745  0.7161  0.4664 -0.6961
10077WAT     H242114   0.625   5.368   5.722 -0.0466 -1.6012 -0.8701
10077WAT    EPW42115   0.551   5.369   5.769  0.1831 -0.1612 -0.5054
10078WAT      O42116  -0.593   3.791   2.174  0.1669 -0.5275  0.8118
10078WAT     H142117  -0.687   3.774   2.182  0.2194 -0.8847  0.7132
10078WAT     H242118  -0.557   3.707   2.147  0.3279 -0.0467 -0.5536
10078WAT    EPW42119  -0.601   3.777   2.171  0.1950 -0.5111  0.6188
10079WAT      O42120   1.626   7.681   2.778  0.6362 -0.1518 -0.4828
10079WAT     H142121   1.715   7.693   2.746  0.1967 -0.8119 -2.0823
10079WAT     H242122   1.590   7.611   2.722 -1.3847  1.2012 -0.9767
10079WAT    EPW42123   1.633   7.673   2.766  0.3117 -0.0603 -0.7589
10080WAT      O42124  -0.012   2.429   5.747  0.6417 -0.1486 -0.5923
10080WAT     H142125  -0.055   2.344   5.756  2.1242 -1.0539 -1.5647
10080WAT     H242126  -0.083   2.492   5.753 -0.4264 -1.3893  0.9118
10080WAT    EPW42127  -0.027   2.426   5.749  0.6963 -0.4315 -0.5221
10081WAT      O42128   3.751   2.863   6.852  0.1707  0.3830  0.4745
10081WAT     H142129   3.733   2.825   6.938  2.5704  0.2930  0.9953
10081WAT     H242130   3.664   2.885   6.817 -0.9553 -1.0395  2.2175
10081WAT    EPW42131   3.737   2.861   6.859  0.3388  0.1835  0.7730
10082WAT      O42132   5.540   5.298   5.547  0.6400 -0.2906  0.7304
10082WAT     H142133   5.463   5.336   5.504  1.6577 -0.6898 -1.6296
10082WAT     H242134   5.525   5.203   5.544  1.5004 -0.4181 -0.4395
10082WAT    EPW42135   5.528   5.290   5.541  0.8876 -0.3600  0.2649
10083WAT      O42136  -6.429   7.754   6.499 -0.5411 -0.3295 -0.2314
10083WAT     H142137  -6.360   7.696   6.531  0.0865  0.2882 -0.4142
10083WAT     H242138  -6.381   7.830   6.464 -1.3346  0.3220  0.0642
10083WAT    EPW42139  -6.413   7.757   6.499 -0.5629 -0.1621 -0.2165
10084WAT      O42140  -1.320   7.728   0.021 -0.1101 -0.6763  0.4083
10084WAT     H142141  -1.407   7.713   0.058 -0.8056 -0.7927 -1.1997
10084WAT     H242142  -1.299   7.647  -0.025  0.3331 -0.2267 -0.2057
10084WAT    EPW42143  -1.328   7.715   0.020 -0.1433 -0.6323  0.1149
10085WAT      O42144   0.277   5.137   1.576  0.0067 -0.1664  0.2012
10085WAT     H142145   0.343   5.189   1.621  1.8577 -1.8627 -0.4093
10085WAT     H242146   0.270   5.056   1.627 -2.0806  0.2070  0.5831
10085WAT    EPW42147   0.285   5.133   1.588 -0.0244 -0.3407  0.1711
10086WAT      O42148  -5.396   2.308   7.802  0.1326  0.1552  0.0876
10086WAT     H142149  -5.404   2.233   7.743  0.1731  0.4023 -0.2390
10086WAT     H242150  -5.485   2.343   7.808  0.1722  0.2773 -0.0268
10086WAT    EPW42151  -5.409   2.303   7.795  0.1433  0.2038  0.0293
10087WAT      O42152  -3.134   5.518   3.858  0.2884  0.4575  0.2933
10087WAT     H142153  -3.119   5.473   3.774  0.3050  0.0535  0.5094
10087WAT     H242154  -3.227   5.506   3.875  0.6328 -1.1972  1.2955
10087WAT    EPW42155  -3.144   5.510   3.849  0.3359  0.1857  0.4539
10088WAT      O42156  -5.788   9.807   6.208 -0.3478  0.1904  0.0526
10088WAT     H142157  -5.787   9.892   6.164  0.6910 -0.0814 -0.4736
10088WAT     H242158  -5.710   9.808   6.263 -0.1671 -0.5432 -0.1883
10088WAT    EPW42159  -5.778   9.819   6.209 -0.1872  0.0577 -0.0486
10089WAT      O42160  -0.951   3.352   4.616 -0.5750 -0.7449 -0.1055
10089WAT     H142161  -1.042   3.375   4.635 -0.6489 -1.1703  0.0627
10089WAT     H242162  -0.945   3.260   4.640  0.4843 -0.1910  1.9963
10089WAT    EPW42163  -0.963   3.343   4.622 -0.4450 -0.7280  0.1938
10090WAT      O42164   2.317   3.327   4.609 -0.4626 -0.3154  0.1273
10090WAT     H142165   2.325   3.311   4.703 -3.4292 -0.7609  0.4300
10090WAT     H242166   2.243   3.388   4.602  1.2280  1.6646 -1.8420
10090WAT    EPW42167   2.308   3.332   4.620 -0.6310 -0.1129 -0.0925
10091WAT      O42168   1.415   3.788   0.223  0.4551  0.0844 -0.4458
10091WAT     H142169   1.502   3.827   0.231  1.2264 -1.3569 -1.2775
10091WAT     H242170   1.355   3.861   0.234  1.7901  1.2994 -0.8672
10091WAT    EPW42171   1.419   3.803   0.226  0.7329  0.0546 -0.6111
10092WAT      O42172  -2.406   1.331   8.857  0.3269  0.5280  0.4186
10092WAT     H142173  -2.331   1.312   8.913  1.7640  0.2097 -1.5380
10092WAT     H242174  -2.393   1.421   8.828  0.2309  0.3082 -0.3333
10092WAT    EPW42175  -2.395   1.340   8.861  0.5038  0.4570  0.0615
10093WAT      O42176   6.646  10.040   1.221  0.3223  0.0514  0.3724
10093WAT     H142177   6.667  10.020   1.312  2.0868 -2.6360 -0.5305
10093WAT     H242178   6.555  10.013   1.211 -0.1087  1.0114  1.4595
10093WAT    EPW42179   6.637  10.034   1.232  0.4983 -0.1764  0.3967
10094WAT      O42180   1.324   3.917   7.767 -0.0955  0.1501 -0.6638
10094WAT     H142181   1.406   3.869   7.774 -1.0091 -1.6292 -1.4713
10094WAT     H242182   1.276   3.896   7.847 -0.2307  0.2499 -0.7164
10094WAT    EPW42183   1.328   3.908   7.778 -0.2338 -0.0714 -0.7772
10095WAT      O42184   7.439   3.735   1.645 -0.4775 -0.5501 -0.7446
10095WAT     H142185   7.352   3.744   1.683 -1.1346 -0.4935 -2.1927
10095WAT     H242186   7.459   3.641   1.651 -0.4317 -0.4969 -0.0028
10095WAT    EPW42187   7.430   3.724   1.651 -0.5579 -0.5357 -0.8377
10096WAT      O42188   0.630   4.191   0.143 -1.1076 -0.1692  0.8333
10096WAT     H142189   0.643   4.275   0.187  0.3248  0.0824  0.0023
10096WAT     H242190   0.713   4.174   0.099 -2.3981 -0.4227 -1.7201
10096WAT    EPW42191   0.642   4.200   0.143 -1.0889 -0.1695  0.3869
10097WAT      O42192  -5.308   9.750   6.140  0.6027 -0.1296 -0.0063
10097WAT     H142193  -5.339   9.755   6.049 -1.2493  1.9958  0.6507
10097WAT     H242194  -5.320   9.838   6.174  2.5203 -0.5461  1.9711
10097WAT    EPW42195  -5.314   9.762   6.132  0.6115  0.0954  0.3412
10098WAT      O42196  -1.955   1.600   7.920  0.5132 -0.1523  0.1583
10098WAT     H142197  -1.924   1.529   7.863  1.9048  0.1995  0.4384
10098WAT     H242198  -1.894   1.600   7.993 -0.1330  0.6379  0.7078
10098WAT    EPW42199  -1.943   1.591   7.922  0.6115 -0.0017  0.2677
10099WAT      O42200   3.947   0.536   3.424 -0.2377 -0.5977 -0.1670
10099WAT     H142201   4.036   0.570   3.413 -0.0712 -0.7926  0.4967
10099WAT     H242202   3.960   0.447   3.458 -0.6855 -0.4245  0.4786
10099WAT    EPW42203   3.961   0.528   3.427 -0.2749 -0.6005  0.0057
10100WAT      O42204   6.345   4.685   3.470 -0.0664 -0.2461  0.0380
10100WAT     H142205   6.299   4.747   3.527 -0.1595  1.0606 -1.3912
10100WAT     H242206   6.437   4.711   3.474  0.1053 -0.8799  0.4546
10100WAT    EPW42207   6.351   4.696   3.478 -0.0558 -0.1574 -0.0955
10101WAT      O42208   3.133  10.354   0.917 -0.8500  0.4837  0.6673
10101WAT     H142209   3.173  10.270   0.897 -1.6353 -0.0065  1.1055
10101WAT     H242210   3.056  10.358   0.860  0.4866  2.0064 -1.1503
10101WAT    EPW42211   3.128  10.344   0.907 -0.7772  0.6199  0.4854
10102WAT      O42212   5.282   0.762   0.849  0.2747  0.1450  0.3923
10102WAT     H142213   5.279   0.815   0.929 -0.4027  2.4140 -1.0200
10102WAT     H242214   5.374   0.759   0.825  0.3557  0.4716  0.6559
10102WAT    EPW42215   5.294   0.769   0.856  0.1960  0.4874  0.2408
10103WAT      O42216  -3.138   8.889   4.605 -0.6526 -0.1519 -0.1714
10103WAT     H142217  -3.179   8.911   4.688 -2.2677  1.1321 -1.2526
10103WAT     H242218  -3.070   8.955   4.594 -2.6856  1.8701 -1.3975
10103WAT    EPW42219  -3.134   8.900   4.614 -1.1337  0.2847 -0.4756
10104WAT      O42220  10.255   0.694   0.082 -0.0747 -0.3353 -0.1775
10104WAT     H142221  10.160   0.700   0.083 -0.0156  0.7237  1.2356
10104WAT     H242222  10.282   0.756   0.014 -0.3737 -0.0827 -0.0691
10104WAT    EPW42223  10.246   0.703   0.073 -0.1063 -0.1623  0.0232
10105WAT      O42224  -2.194   7.811   0.509 -0.2991 -0.6302  0.5906
10105WAT     H142225  -2.198   7.892   0.559 -0.7242 -0.9477  1.0874
10105WAT     H242226  -2.276   7.766   0.530 -0.6742 -0.5894 -0.7246
10105WAT    EPW42227  -2.206   7.816   0.518 -0.4047 -0.6666  0.4827
10106WAT      O42228  -0.418   5.478   6.301  0.4009 -0.5472  0.2905
10106WAT     H142229  -0.498   5.436   6.270 -1.9229  3.7295 -0.2344
10106WAT     H242230  -0.387   5.530   6.227  1.0172  1.3717  1.8012
10106WAT    EPW42231  -0.425   5.479   6.287  0.1757  0.2699  0.4203
10107WAT      O42232   0.084   8.423   0.284 -0.5521 -0.2823 -0.0515
10107WAT     H142233   0.015   8.436   0.349 -0.2891 -2.7890  0.8501
10107WAT     H242234   0.101   8.510   0.249 -3.4024  0.5601  0.4575
10107WAT    EPW42235   0.077   8.436   0.288 -0.8933 -0.5016  0.1345
10108WAT      O42236  -6.363   5.687   8.868 -0.6657 -0.0821 -0.5683
10108WAT     H142237  -6.440   5.745   8.861 -0.8299 -0.1484  0.5253
10108WAT     H242238  -6.319   5.696   8.783 -1.9221 -0.1111 -1.2534
10108WAT    EPW42239  -6.367   5.696   8.856 -0.8533 -0.0944 -0.5140
10109WAT      O42240   1.104   2.310   4.081  0.5969  0.1876  0.2449
10109WAT     H142241   1.063   2.226   4.096 -0.6743  0.9927  1.4788
10109WAT     H242242   1.170   2.293   4.013  2.6742 -2.4836  2.6855
10109WAT    EPW42243   1.108   2.297   4.074  0.7032 -0.0585  0.7296
10110WAT      O42244   2.597   8.392   4.775 -0.4418 -0.5675 -0.2476
10110WAT     H142245   2.680   8.435   4.754  1.2261 -2.4385  2.0028
10110WAT     H242246   2.550   8.457   4.827 -0.4392  0.5127 -1.5434
10110WAT    EPW42247   2.602   8.407   4.779 -0.2215 -0.6714 -0.1216
10111WAT      O42248  -0.152   1.292   2.126  0.0613 -0.1354 -0.7687
10111WAT     H142249  -0.191   1.366   2.079 -0.1773  1.0729  1.2281
10111WAT     H242250  -0.221   1.263   2.186  0.2494 -1.8400 -1.3314
10111WAT    EPW42251  -0.166   1.298   2.128  0.0547 -0.2009 -0.5796
10112WAT      O42252   2.291   3.656   1.426 -0.1593 -0.3546 -0.2929
10112WAT     H142253   2.268   3.581   1.480  0.8532 -1.2326 -1.0250
10112WAT     H242254   2.281   3.624   1.336 -0.9382  0.7927 -0.6434
10112WAT    EPW42255   2.286   3.642   1.421 -0.1284 -0.3191 -0.4357
10113WAT      O42256   1.906   6.176   1.446 -0.1093 -0.2553 -0.5505
10113WAT     H142257   1.994   6.205   1.424 -0.1545  0.1363 -0.2117
10113WAT     H242258   1.917   6.083   1.466 -0.1736 -0.8320 -2.8777
10113WAT    EPW42259   1.919   6.167   1.445 -0.1237 -0.2797 -0.8128
10114WAT      O42260  -4.967   4.188   6.553  0.3294  0.1620  0.0596
10114WAT     H142261  -4.951   4.144   6.636 -1.2210  0.7885  0.7240
10114WAT     H242262  -5.000   4.120   6.495 -1.6304  0.2929  0.9457
10114WAT    EPW42263  -4.969   4.173   6.556 -0.1335  0.2618  0.2642
10115WAT      O42264   7.041   9.466   0.652 -0.4019  0.3592  0.5307
10115WAT     H142265   6.971   9.401   0.647 -2.8180  2.8252 -1.6138
10115WAT     H242266   7.064   9.483   0.560  1.6351  1.0737  1.1186
10115WAT    EPW42267   7.035   9.460   0.639 -0.4520  0.7787  0.3254
10116WAT      O42268   0.498   4.178   2.076  0.2478  0.3825  0.0739
10116WAT     H142269   0.471   4.211   2.162 -1.4308 -0.8672  0.0658
10116WAT     H242270   0.416   4.155   2.032  1.2189 -2.3746 -0.4839
10116WAT    EPW42271   0.484   4.180   2.081  0.1545 -0.1462 -0.0007
10117WAT      O42272   2.531   0.128   6.819  0.2067  0.2991  0.4376
10117WAT     H142273   2.461   0.104   6.758 -0.8506 -0.9781  2.0545
10117WAT     H242274   2.485   0.161   6.896  1.3820 -0.3452  1.4476
10117WAT    EPW42275   2.515   0.129   6.821  0.2223  0.0457  0.7839
10118WAT      O42276   2.270   1.123   3.653  0.2321 -0.1708 -0.5227
10118WAT     H142277   2.282   1.100   3.560 -0.6593  1.0724 -0.9703
10118WAT     H242278   2.253   1.039   3.696  2.1587 -0.9709 -1.2014
10118WAT    EPW42279   2.270   1.109   3.646  0.3687 -0.1123 -0.6713
10119WAT      O42280  -2.804   1.864   7.716  0.0747  0.2590  0.0898
10119WAT     H142281  -2.747   1.804   7.667 -1.0853  0.3275 -1.4201
10119WAT     H242282  -2.855   1.908   7.648 -0.3477  1.6744  1.2869
10119WAT    EPW42283  -2.803   1.862   7.701 -0.1339  0.4547  0.0486
10120WAT      O42284  -0.299   5.645   3.469 -0.7209 -0.3337 -0.2922
10120WAT     H142285  -0.226   5.699   3.498 -1.3937  0.1265  0.5698
10120WAT     H242286  -0.264   5.556   3.469  0.2071  0.0063 -1.1159
10120WAT    EPW42287  -0.284   5.641   3.473 -0.6873 -0.2282 -0.2872
10121WAT      O42288   2.452   6.271   8.246  0.4118 -0.2221 -0.1623
10121WAT     H142289   2.394   6.348   8.248  0.2015 -0.3748  1.9669
10121WAT     H242290   2.528   6.300   8.195  0.5015  1.5578  0.8709
10121WAT    EPW42291   2.454   6.285   8.240  0.3958 -0.0074  0.2546
10122WAT      O42292   2.456   3.236   4.879  0.1315 -0.6645  0.3855
10122WAT     H142293   2.540   3.246   4.923 -1.3703 -0.0254  3.3868
10122WAT     H242294   2.455   3.145   4.849  1.6117 -0.8680  0.8982
10122WAT    EPW42295   2.467   3.225   4.880  0.1286 -0.6070  0.8490
10123WAT      O42296  -1.407   4.752   4.122 -0.7005 -0.3654  0.3542
10123WAT     H142297  -1.315   4.766   4.144 -0.7502  0.8237 -0.1224
10123WAT     H242298  -1.407   4.676   4.065  0.1551  0.3630 -0.6594
10123WAT    EPW42299  -1.395   4.744   4.117 -0.5943 -0.1125  0.1576
10124WAT      O42300   4.568   7.214   4.761 -0.6463 -0.1588 -0.1958
10124WAT     H142301   4.590   7.188   4.672 -3.3464 -0.0819 -0.9779
10124WAT     H242302   4.635   7.174   4.815  1.0441 -0.2480 -2.2372
10124WAT    EPW42303   4.580   7.206   4.756 -0.7794 -0.1605 -0.5682
10125WAT      O42304   7.439   2.852   0.398  0.5426 -0.0706 -0.1805
10125WAT     H142305   7.505   2.892   0.455  0.6837 -0.0288 -0.3739
10125WAT     H242306   7.473   2.864   0.310  1.5938 -2.3767 -0.1592
10125WAT    EPW42307   7.453   2.859   0.394  0.6998 -0.3693 -0.2032
10126WAT      O42308  -4.869   9.377   7.101 -0.1691  0.5057  0.3598
10126WAT     H142309  -4.897   9.469   7.107  1.6696  1.4153 -2.7641
10126WAT     H242310  -4.808   9.366   7.173 -1.7831  1.1078  1.9008
10126WAT    EPW42311  -4.865   9.388   7.111 -0.1395  0.7052  0.1512
10127WAT      O42312   4.293   3.056   7.238 -0.5358 -0.6883 -0.6033
10127WAT     H142313   4.335   3.000   7.303  1.2740  0.6627 -0.5261
10127WAT     H242314   4.282   3.140   7.283 -0.9029 -0.2535 -1.4890
10127WAT    EPW42315   4.297   3.060   7.253 -0.3455 -0.4528 -0.7102
10128WAT      O42316  -0.007   2.805   0.231 -0.1139 -0.0681  0.0783
10128WAT     H142317   0.029   2.723   0.197  3.6007  2.5723 -3.2992
10128WAT     H242318   0.052   2.828   0.303  0.7413  0.9290 -0.9027
10128WAT    EPW42319   0.006   2.797   0.236  0.4888  0.4116 -0.4965
10129WAT      O42320   3.036   5.077   7.909 -0.0690  0.4428 -0.0334
10129WAT     H142321   2.999   5.165   7.902 -0.4132  0.1788 -1.7828
10129WAT     H242322   3.124   5.085   7.871 -0.3280 -0.1014 -0.7549
10129WAT    EPW42323   3.043   5.090   7.903 -0.1485  0.3364 -0.3593
10130WAT      O42324   2.654   1.845   2.405 -0.2676  0.1540 -0.4344
10130WAT     H142325   2.610   1.915   2.356  0.1503  1.1902  0.6179
10130WAT     H242326   2.746   1.873   2.409 -0.1511 -0.3033  0.2437
10130WAT    EPW42327   2.660   1.858   2.399 -0.1972  0.2304 -0.2062
10131WAT      O42328  -3.887  10.036   2.893  0.1471  0.0159  0.0523
10131WAT     H142329  -3.873  10.129   2.908  0.9931 -0.4570  2.8198
10131WAT     H242330  -3.982  10.026   2.887 -0.0115  0.9571  0.7829
10131WAT    EPW42331  -3.898  10.047   2.894  0.2377  0.0772  0.5137
10132WAT      O42332   2.807   1.161   8.912 -0.6823 -0.4476 -0.3234
10132WAT     H142333   2.842   1.142   8.999 -1.0871  2.2907  0.5132
10132WAT     H242334   2.718   1.127   8.914 -1.5739  1.7532  1.3146
10132WAT    EPW42335   2.800   1.154   8.923 -0.8534  0.2038  0.0029
10133WAT      O42336  -1.110   3.972   3.183  0.0623 -0.4275 -0.4057
10133WAT     H142337  -1.061   4.021   3.249 -1.2049  0.5974 -0.1833
10133WAT     H242338  -1.202   3.992   3.202 -0.3797 -1.1179 -1.7141
10133WAT    EPW42339  -1.115   3.981   3.194 -0.1631 -0.3834 -0.5491
10134WAT      O42340   5.055   0.671   4.619  0.1997 -0.0242  0.1366
10134WAT     H142341   5.138   0.695   4.579  0.1612  1.2414  0.7626
10134WAT     H242342   5.004   0.753   4.621 -0.2889 -0.3210  1.5404
10134WAT    EPW42343   5.059   0.685   4.614  0.1302  0.1036  0.4044
10135WAT      O42344  -0.546   8.527   3.563 -0.6014  0.6637  0.4351
10135WAT     H142345  -0.474   8.588   3.546 -0.7178  0.6850  0.0185
10135WAT     H242346  -0.603   8.575   3.624 -2.0168  2.0214 -1.8219
10135WAT    EPW42347  -0.544   8.541   3.569 -0.8034  0.8459  0.0825
10136WAT      O42348   1.986  10.195   3.100 -0.1058 -0.5889 -0.0771
10136WAT     H142349   2.042  10.180   3.024  0.4154 -1.1605  0.4139
10136WAT     H242350   1.917  10.253   3.068  0.3516 -0.4779 -0.8744
10136WAT    EPW42351   1.984  10.201   3.086  0.0233 -0.6499 -0.1174
10137WAT      O42352  -2.690   1.596   3.880  1.2207 -0.6602  0.1820
10137WAT     H142353  -2.610   1.548   3.899  1.5841 -0.0971  0.1073
10137WAT     H242354  -2.662   1.667   3.822  0.6886 -0.3997  0.2388
10137WAT    EPW42355  -2.676   1.599   3.875  1.1985 -0.5516  0.1796
10138WAT      O42356  -0.719   4.883   7.118 -0.0869  0.0817  0.3396
10138WAT     H142357  -0.668   4.872   7.038 -0.6214 -0.3766  0.0634
10138WAT     H242358  -0.753   4.973   7.112 -0.8273 -0.2404 -0.3541
10138WAT    EPW42359  -0.717   4.894   7.107 -0.2550 -0.0215  0.2117
10139WAT      O42360   3.035   2.168   3.520 -0.9731 -0.4865 -0.2366
10139WAT     H142361   3.056   2.256   3.553 -1.7078 -0.5816  0.4981
10139WAT     H242362   3.085   2.109   3.576 -0.1865 -0.5375 -0.9656
10139WAT    EPW42363   3.045   2.172   3.532 -0.9662 -0.5057 -0.2358
10140WAT      O42364   3.604   2.566   6.663 -0.1160 -0.7098  0.6674
10140WAT     H142365   3.673   2.629   6.640 -0.8530  0.4315  1.4508
10140WAT     H242366   3.623   2.543   6.754  0.6210 -2.3078  0.1539
10140WAT    EPW42367   3.616   2.571   6.672 -0.1160 -0.7701  0.7031
10141WAT      O42368  -2.755   0.020   6.121 -0.9304 -0.4872 -0.4040
10141WAT     H142369  -2.739   0.057   6.208 -1.2299 -0.8565 -0.1847
10141WAT     H242370  -2.777   0.095   6.066 -1.4554 -0.3235  0.0133
10141WAT    EPW42371  -2.756   0.035   6.125 -1.0391 -0.5143 -0.3200
10142WAT      O42372  -0.430   6.792   5.974  0.7208 -0.4963 -0.9284
10142WAT     H142373  -0.426   6.887   5.988  2.3350 -0.7909  1.0905
10142WAT     H242374  -0.523   6.774   5.965  0.1382  1.0188  1.1696
10142WAT    EPW42375  -0.442   6.802   5.975  0.8569 -0.3355 -0.3855
10143WAT      O42376   0.900   0.241   7.088 -0.1914  0.5134 -0.1749
10143WAT     H142377   0.882   0.218   6.996 -0.4007 -2.1668  0.4508
10143WAT     H242378   0.984   0.286   7.085 -0.6162  1.2817 -1.7635
10143WAT    EPW42379   0.908   0.244   7.075 -0.2750  0.2612 -0.3018
10144WAT      O42380  -0.264   1.661   1.367  0.4436 -1.0118 -0.1188
10144WAT     H142381  -0.270   1.669   1.463 -3.6036 -2.1592 -0.1159
10144WAT     H242382  -0.185   1.710   1.345  0.1215  1.5951  3.5451
10144WAT    EPW42383  -0.254   1.668   1.377 -0.1327 -0.8193  0.3648
10145WAT      O42384   1.127   8.537   2.958 -0.3352 -1.3243  0.2653
10145WAT     H142385   1.206   8.488   2.938  0.2400  0.0275 -1.0046
10145WAT     H242386   1.071   8.523   2.881  0.0853  0.4188 -0.4012
10145WAT    EPW42387   1.130   8.529   2.945 -0.2039 -0.9160  0.0099
10146WAT      O42388  -1.026   9.746   4.313 -0.3659 -0.1160 -0.5156
10146WAT     H142389  -0.973   9.675   4.349  0.1178  1.6353  2.5835
10146WAT     H242390  -0.963   9.812   4.284 -0.8264 -0.2603 -1.9235
10146WAT    EPW42391  -1.011   9.745   4.314 -0.3628  0.0958 -0.2925
10147WAT      O42392   0.580   6.464   8.142  0.2817 -0.3646 -0.2726
10147WAT     H142393   0.631   6.505   8.072  0.4495 -0.8903 -0.4654
10147WAT     H242394   0.536   6.390   8.099 -0.9686  0.3092 -0.2072
10147WAT    EPW42395   0.581   6.459   8.127  0.1389 -0.3450 -0.2894
10148WAT      O42396   7.463   3.998   0.162  0.0812  0.0713  0.2163
10148WAT     H142397   7.439   3.909   0.188 -0.2449  0.7517  2.4182
10148WAT     H242398   7.558   4.003   0.178  0.2732 -0.1317 -0.7788
10148WAT    EPW42399   7.473   3.987   0.167  0.0634  0.1342  0.3754
10149WAT      O42400   6.440   3.776   2.386  0.2616 -0.3545  0.0977
10149WAT     H142401   6.506   3.794   2.319 -1.1449  0.1595 -1.2043
10149WAT     H242402   6.356   3.784   2.340 -0.8100  0.9751  2.1195
10149WAT    EPW42403   6.438   3.780   2.371 -0.0651 -0.1113  0.1928
10150WAT      O42404   2.534   5.689   4.233  0.0655 -0.2226  0.1105
10150WAT     H142405   2.601   5.757   4.232  1.3854 -1.4331 -1.6284
10150WAT     H242406   2.455   5.733   4.261  1.2474  1.6289  0.7064
10150WAT    EPW42407   2.533   5.704   4.236  0.3955 -0.1380 -0.0403
10151WAT      O42408  -4.222   5.457   8.279 -0.5877 -0.1987 -0.3520
10151WAT     H142409  -4.135   5.443   8.243 -0.5688  0.4801 -0.5908
10151WAT     H242410  -4.225   5.404   8.358  0.2760  0.2674  0.0063
10151WAT    EPW42411  -4.211   5.448   8.285 -0.4711 -0.0479 -0.3366
10152WAT      O42412   5.969   3.888   4.444  0.3766 -0.7484 -0.1623
10152WAT     H142413   5.873   3.884   4.443  0.4001 -1.1901 -0.7329
10152WAT     H242414   5.990   3.962   4.386  0.4046 -1.1801 -0.7100
10152WAT    EPW42415   5.959   3.897   4.436  0.3831 -0.8636 -0.3097
10153WAT      O42416   4.944   0.380   4.311 -0.4529 -0.4681 -0.2799
10153WAT     H142417   5.040   0.379   4.306 -0.1683  1.6313  2.2255
10153WAT     H242418   4.923   0.317   4.380 -0.6872  0.4343  0.4919
10153WAT    EPW42419   4.954   0.371   4.320 -0.4463 -0.0722  0.1526
10154WAT      O42420  -1.746   3.322   4.916  0.0659  0.5725  0.1755
10154WAT     H142421  -1.815   3.348   4.977 -0.2615 -2.0014  1.0300
10154WAT     H242422  -1.688   3.265   4.968 -0.3606 -1.9384 -1.8850
10154WAT    EPW42423  -1.747   3.318   4.931 -0.0336 -0.0981  0.0165
10155WAT      O42424   0.334  10.012   1.267  0.5212 -0.1679 -0.5227
10155WAT     H142425   0.406  10.074   1.255  1.4797 -1.1045  0.1075
10155WAT     H242426   0.293  10.039   1.349 -0.4722  0.9364 -1.3533
10155WAT    EPW42427   0.338  10.023   1.276  0.5166 -0.1459 -0.5491
10156WAT      O42428   0.842   1.370   0.356  0.2262 -0.1431 -0.5256
10156WAT     H142429   0.843   1.313   0.279 -0.7626 -0.6122 -0.2096
10156WAT     H242430   0.864   1.456   0.322 -1.4877 -0.0754 -1.5948
10156WAT    EPW42431   0.845   1.374   0.341 -0.1303 -0.1960 -0.6249
10157WAT      O42432  -1.074   5.805   4.289  0.0428 -0.3663 -0.4354
10157WAT     H142433  -1.128   5.787   4.366 -0.3191 -1.6287 -0.9495
10157WAT     H242434  -1.082   5.899   4.275 -0.2409 -0.1935  0.8010
10157WAT    EPW42435  -1.082   5.815   4.297 -0.0424 -0.5097 -0.3402
10158WAT      O42436   3.475   7.492   7.341  0.6139 -0.1585  0.0026
10158WAT     H142437   3.413   7.515   7.271  0.5154 -1.4279 -0.3549
10158WAT     H242438   3.556   7.536   7.316  0.3129  0.1913 -0.3936
10158WAT    EPW42439   3.477   7.501   7.328  0.5612 -0.2799 -0.0968
10159WAT      O42440   5.133   3.669   1.984 -0.5427 -0.4989  0.2584
10159WAT     H142441   5.144   3.727   1.909 -1.0769 -2.4859 -1.4434
10159WAT     H242442   5.097   3.589   1.947  0.5046 -2.0704  2.4363
10159WAT    EPW42443   5.130   3.666   1.969 -0.4749 -0.9682  0.3212
10160WAT      O42444  -3.654   9.568   0.612  0.0729  0.0674 -0.5281
10160WAT     H142445  -3.706   9.570   0.693  2.8869  1.4091  1.4282
10160WAT     H242446  -3.575   9.518   0.636  1.0427  0.6271 -2.3921
10160WAT    EPW42447  -3.650   9.561   0.626  0.5720  0.3181 -0.5159
10161WAT      O42448  -5.714  10.323   8.299  0.2472 -0.0995 -0.6913
10161WAT     H142449  -5.711  10.372   8.380 -0.7020  0.7499 -1.1500
10161WAT     H242450  -5.636  10.267   8.302  1.8725  2.0330 -0.5499
10161WAT    EPW42451  -5.703  10.322   8.310  0.3364  0.2937 -0.7334
10162WAT      O42452   2.671   7.462   7.416  0.2113  0.1125 -0.1887
10162WAT     H142453   2.691   7.546   7.375  2.6741 -0.7781 -1.0083
10162WAT     H242454   2.655   7.402   7.342  1.0893 -0.6920  0.2453
10162WAT    EPW42455   2.672   7.465   7.400  0.6520 -0.1111 -0.2396
10163WAT      O42456  -2.601  10.064   0.231 -0.0059 -0.0759 -0.3753
10163WAT     H142457  -2.599   9.970   0.211 -0.2798  0.2790 -2.1815
10163WAT     H242458  -2.683  10.076   0.278  0.0202 -0.7262 -0.1439
10163WAT    EPW42459  -2.612  10.053   0.235 -0.0386 -0.1149 -0.5830
10164WAT      O42460   2.758   9.350   4.875  0.1677 -0.2271  0.6704
10164WAT     H142461   2.679   9.314   4.836  0.0149 -1.7573  2.2716
10164WAT     H242462   2.829   9.310   4.826  0.0048  1.4881 -1.0646
10164WAT    EPW42463   2.757   9.340   4.864  0.1261 -0.2022  0.6526
10165WAT      O42464  -4.105  10.156   2.760 -0.0886 -0.2130 -0.1297
10165WAT     H142465  -4.050  10.129   2.686  0.7299 -1.3354  0.8279
10165WAT     H242466  -4.152  10.232   2.729  0.3024 -0.6026 -1.7728
10165WAT    EPW42467  -4.104  10.162   2.746  0.0710 -0.4125 -0.2201
10166WAT      O42468   3.202   0.353   4.403 -0.2179  0.0458  0.0934
10166WAT     H142469   3.146   0.305   4.341 -1.3333  0.6437  0.6009
10166WAT     H242470   3.145   0.371   4.477 -0.9402  4.8466 -1.2449
10166WAT    EPW42471   3.187   0.349   4.404 -0.4603  0.7579 -0.0165
10167WAT      O42472   7.594   2.485   1.089  0.4413 -0.1847  0.2495
10167WAT     H142473   7.563   2.414   1.145 -2.5211  0.2410 -0.6993
10167WAT     H242474   7.547   2.474   1.007  3.0408  0.4908 -1.4644
10167WAT    EPW42475   7.584   2.474   1.086  0.3934 -0.0395 -0.1017
10168WAT      O42476   0.421   7.161   3.412 -0.2755 -0.0757  0.2522
10168WAT     H142477   0.362   7.234   3.430  0.3098  0.1589  1.3305
10168WAT     H242478   0.363   7.087   3.393 -0.8774  0.5195 -0.2723
10168WAT    EPW42479   0.406   7.161   3.412 -0.2777  0.0339  0.3253
10169WAT      O42480   3.706   9.888   0.655 -0.4696 -0.9968 -0.0118
10169WAT     H142481   3.688   9.925   0.741 -2.1643 -0.1539 -0.6714
10169WAT     H242482   3.798   9.909   0.639 -0.0783 -1.3105  1.6269
10169WAT    EPW42483   3.716   9.896   0.664 -0.6416 -0.9265  0.1173
10170WAT      O42484  -2.849  -0.006   6.666 -1.1521 -0.5389 -0.5391
10170WAT     H142485  -2.836   0.088   6.675  1.6712 -1.0411  2.4355
10170WAT     H242486  -2.814  -0.027   6.580  2.0328  0.6994  0.3403
10170WAT    EPW42487  -2.843   0.003   6.656 -0.3597 -0.4418 -0.0308
10171WAT      O42488   2.705   6.560   4.271  0.5540  0.3721  0.2016
10171WAT     H142489   2.793   6.539   4.303 -0.1201  0.2144  2.0698
10171WAT     H242490   2.711   6.653   4.247  0.9531  0.6881  1.4306
10171WAT    EPW42491   2.717   6.570   4.272  0.5177  0.3932  0.6101
10172WAT      O42492  -2.519   7.165   6.293  0.6073  0.1694  0.5531
10172WAT     H142493  -2.475   7.249   6.297  2.2372 -0.6665  2.0965
10172WAT     H242494  -2.457   7.104   6.334 -1.2463 -1.4313  1.1432
10172WAT    EPW42495  -2.505   7.168   6.299  0.5778 -0.1519  0.8345
10173WAT      O42496   4.567   7.455   0.346 -0.1865  0.2102 -0.6031
10173WAT     H142497   4.545   7.497   0.262  0.5642 -0.6570 -1.2479
10173WAT     H242498   4.499   7.389   0.358 -0.8111  0.9280 -0.0648
10173WAT    EPW42499   4.555   7.452   0.336 -0.1700  0.1905 -0.6171
10174WAT      O42500   6.937   7.690   1.995 -0.2572  0.7781 -0.8151
10174WAT     H142501   7.031   7.688   2.014 -0.3925  2.0254  0.1322
10174WAT     H242502   6.930   7.666   1.903  1.0576  1.3991 -1.0967
10174WAT    EPW42503   6.948   7.687   1.986 -0.1016  1.0245 -0.7273
10175WAT      O42504   3.328   9.741   3.019  0.0851  0.9377 -0.1531
10175WAT     H142505   3.377   9.814   2.981 -0.4806  0.9147 -0.9610
10175WAT     H242506   3.237   9.762   3.000 -0.2809  1.2275  1.7586
10175WAT    EPW42507   3.323   9.754   3.011 -0.0378  0.9727 -0.0076
10176WAT      O42508  -3.630   2.493   6.560  0.6166 -0.2572 -0.0781
10176WAT     H142509  -3.560   2.541   6.516  2.1174 -0.4031  2.0156
10176WAT     H242510  -3.646   2.542   6.640  0.4955 -1.9210  0.9657
10176WAT    EPW42511  -3.623   2.506   6.565  0.7986 -0.4959  0.3357
10177WAT      O42512   6.938   3.191   4.196 -0.3114  0.6297  0.4635
10177WAT     H142513   6.980   3.276   4.183  1.3829 -0.3955 -1.2410
10177WAT     H242514   6.953   3.144   4.114 -2.8980 -0.6537  0.6399
10177WAT    EPW42515   6.945   3.196   4.184 -0.4292  0.3252  0.2618
10178WAT      O42516   8.842   2.532   0.612 -0.2850  0.3861 -0.2050
10178WAT     H142517   8.822   2.453   0.661  0.5630  0.6310  0.5673
10178WAT     H242518   8.904   2.504   0.545 -1.0141  0.1568 -0.7990
10178WAT    EPW42519   8.847   2.518   0.610 -0.2689  0.3883 -0.1815
10179WAT      O42520   4.221   0.422   8.889 -0.9285 -0.2340  0.0211
10179WAT     H142521   4.242   0.330   8.903  1.9524  0.4112  0.5915
10179WAT     H242522   4.140   0.421   8.837 -0.9005 -3.0476 -0.1036
10179WAT    EPW42523   4.213   0.410   8.884 -0.5448 -0.5200  0.0796
10180WAT      O42524   5.668   0.708   5.479 -0.2373 -0.8706  0.0627
10180WAT     H142525   5.761   0.734   5.481 -0.5087  0.2991 -1.1138
10180WAT     H242526   5.671   0.612   5.473  0.8662 -0.9274  1.0052
10180WAT    EPW42527   5.681   0.699   5.478 -0.1276 -0.7238  0.0322
10181WAT      O42528   0.047   5.731   7.110 -0.6990  0.3237 -0.2646
10181WAT     H142529   0.107   5.660   7.084  0.6800  0.0526  3.1497
10181WAT     H242530  -0.022   5.687   7.159 -0.5764  1.1994  0.7117
10181WAT    EPW42531   0.046   5.716   7.113 -0.5009  0.4036  0.3145
10182WAT      O42532   0.277   0.808   5.087 -0.4114  0.3985 -0.7036
10182WAT     H142533   0.285   0.902   5.075 -0.4336  0.8437  2.0909
10182WAT     H242534   0.199   0.783   5.039 -2.3901  2.4696  1.2213
10182WAT    EPW42535   0.268   0.817   5.079 -0.6754  0.7304 -0.0813
10183WAT      O42536   2.029   5.977   0.929 -0.4045 -0.7152 -0.1078
10183WAT     H142537   2.093   5.941   0.990 -2.7057 -2.4131  1.4713
10183WAT     H242538   1.973   6.033   0.984 -1.9781 -1.5550 -0.8053
10183WAT    EPW42539   2.030   5.980   0.945 -0.9155 -1.0498  0.0085
10184WAT      O42540   2.892   8.667   1.641  0.5424 -0.3488  0.2252
10184WAT     H142541   2.801   8.645   1.622  0.9111 -0.4250 -1.6492
10184WAT     H242542   2.899   8.760   1.620  0.9922 -0.4364 -0.0144
10184WAT    EPW42543   2.881   8.676   1.636  0.6504 -0.3710 -0.0537
10185WAT      O42544   4.416   3.182   8.722 -0.1393 -0.2025 -0.9160
10185WAT     H142545   4.465   3.128   8.659 -1.6863  1.1343 -3.4548
10185WAT     H242546   4.344   3.126   8.751  0.8074 -0.9640  0.0320
10185WAT    EPW42547   4.413   3.167   8.717 -0.2184 -0.1266 -1.1263
10186WAT      O42548   1.437   1.090   8.005  0.1941  0.2326 -0.7087
10186WAT     H142549   1.394   1.169   7.973 -0.8424  0.9275  2.0673
10186WAT     H242550   1.375   1.054   8.069  1.2897 -2.0350 -0.8177
10186WAT    EPW42551   1.423   1.096   8.009  0.2018  0.0252 -0.3572
10187WAT      O42552   5.107   7.646   3.753 -0.3633 -0.6510 -0.1231
10187WAT     H142553   5.194   7.606   3.744 -1.2198 -2.1999 -3.0485
10187WAT     H242554   5.059   7.586   3.811 -0.1651 -1.2254 -0.5330
10187WAT    EPW42555   5.112   7.633   3.759 -0.4501 -0.9310 -0.5629
10188WAT      O42556  -5.654   1.239   8.865  0.0937  0.9049 -0.3166
10188WAT     H142557  -5.636   1.323   8.823  0.6989 -0.4390 -3.0079
10188WAT     H242558  -5.607   1.175   8.811  0.4324 -1.1018  2.1537
10188WAT    EPW42559  -5.645   1.241   8.853  0.2182  0.4629 -0.3457
10189WAT      O42560   1.697   9.089   7.251 -0.6833  0.6801  0.3992
10189WAT     H142561   1.684   9.157   7.317 -0.0170  1.2355 -0.0150
10189WAT     H242562   1.790   9.095   7.230 -0.3426 -1.1893  1.2227
10189WAT    EPW42563   1.708   9.099   7.257 -0.5504  0.5069  0.4532
10190WAT      O42564   4.428   9.123   0.695 -0.1202  0.2091 -0.4431
10190WAT     H142565   4.501   9.080   0.648 -0.2128  0.9082 -1.2441
10190WAT     H242566   4.356   9.121   0.633 -0.0743  1.6885 -0.5793
10190WAT    EPW42567   4.428   9.117   0.680 -0.1264  0.4964 -0.5668
10191WAT      O42568   3.999   1.212   6.991  0.4080  0.3552 -0.3823
10191WAT     H142569   4.055   1.274   7.036  0.5672 -0.2504  0.2792
10191WAT     H242570   3.962   1.261   6.917 -2.5579  2.5150  2.2269
10191WAT    EPW42571   4.001   1.226   6.987  0.0377  0.5602  0.0491
10192WAT      O42572   2.038   9.375   0.769 -0.1916  0.2418 -0.4391
10192WAT     H142573   1.988   9.299   0.741  1.0843 -0.0350 -2.1372
10192WAT     H242574   2.096   9.341   0.838 -0.8904  0.1149  0.0969
10192WAT    EPW42575   2.039   9.360   0.774 -0.1154  0.1884 -0.5924
10193WAT      O42576   0.807   6.924   1.335 -0.5344 -0.0833 -0.4065
10193WAT     H142577   0.898   6.893   1.334 -0.3397  0.1811  2.1301
10193WAT     H242578   0.757   6.854   1.295  0.5525 -1.1901  0.1166
10193WAT    EPW42579   0.812   6.911   1.330 -0.3653 -0.1945 -0.0030
10194WAT      O42580   0.715   9.179   1.451 -0.4397  0.6464  0.2943
10194WAT     H142581   0.726   9.227   1.533  0.6697 -0.3405  0.7637
10194WAT     H242582   0.805   9.158   1.424 -0.6964  2.2377 -1.9958
10194WAT    EPW42583   0.729   9.182   1.458 -0.3273  0.7262  0.0542
10195WAT      O42584  -0.244   4.894   1.054 -0.1966  0.4018 -0.5822
10195WAT     H142585  -0.234   4.834   1.127 -1.0277  0.3464 -0.5023
10195WAT     H242586  -0.161   4.888   1.006 -0.3177 -0.9091 -0.6597
10195WAT    EPW42587  -0.232   4.886   1.057 -0.3222  0.2215 -0.5819
10196WAT      O42588   3.262   8.578   1.749 -0.3226 -0.3611  0.1201
10196WAT     H142589   3.228   8.512   1.689 -1.1364 -0.3780  0.5816
10196WAT     H242590   3.352   8.594   1.720 -1.2036  0.8900 -2.1993
10196WAT    EPW42591   3.269   8.571   1.738 -0.5461 -0.1984 -0.1249
10197WAT      O42592  -1.672   3.964   8.597  0.1256 -0.4704  0.1652
10197WAT     H142593  -1.590   3.935   8.560  0.9396  2.4568 -0.6176
10197WAT     H242594  -1.712   4.018   8.529 -1.0126  0.5640  1.5705
10197WAT    EPW42595  -1.667   3.968   8.583  0.0829  0.0521  0.2470
10198WAT      O42596  -1.734   9.758   2.270  0.1092 -0.2479  0.4055
10198WAT     H142597  -1.797   9.819   2.232 -0.3531 -0.6637  0.4891
10198WAT     H242598  -1.650   9.804   2.265 -0.4661  1.0430  1.9005
10198WAT    EPW42599  -1.731   9.772   2.264 -0.0277 -0.1326  0.6137
10199WAT      O42600   1.849   8.830   2.248 -0.2896 -0.9033  0.3207
10199WAT     H142601   1.770   8.778   2.234 -2.2784  1.0031  3.2753
10199WAT     H242602   1.848   8.896   2.178 -2.0032 -0.2307  0.9370
10199WAT    EPW42603   1.839   8.832   2.237 -0.7780 -0.5631  0.7917
10200WAT      O42604  -3.220   0.751   6.046 -0.1686  0.0356 -0.2719
10200WAT     H142605  -3.172   0.676   6.010 -1.5989 -1.2355  0.3576
10200WAT     H242606  -3.176   0.768   6.130  0.9121  0.6995 -0.9530
10200WAT    EPW42607  -3.208   0.743   6.053 -0.2147 -0.0444 -0.2787
10201WAT      O42608  -0.831   5.904   2.097 -0.4023 -0.6545  1.3436
10201WAT     H142609  -0.824   5.909   2.192  1.5860 -1.1562  1.2666
10201WAT     H242610  -0.891   5.831   2.081  0.6346 -1.7431  2.2345
10201WAT    EPW42611  -0.838   5.895   2.107 -0.0032 -0.8643  1.4510
10202WAT      O42612  -3.957   8.610   7.631  0.0582 -0.4132  0.2444
10202WAT     H142613  -4.025   8.580   7.691 -0.6388 -2.1196 -1.3157
10202WAT     H242614  -4.004   8.641   7.554  0.9861 -0.1085 -0.2173
10202WAT    EPW42615  -3.972   8.610   7.629  0.0887 -0.5980 -0.0222
10203WAT      O42616   4.189   4.002   1.280  0.9604  0.3709 -0.4180
10203WAT     H142617   4.212   4.072   1.341  0.7874  0.1838 -0.1345
10203WAT     H242618   4.215   4.036   1.194  0.9784  0.7384 -0.2715
10203WAT    EPW42619   4.195   4.016   1.277  0.9401  0.3948 -0.3613
10204WAT      O42620  -5.524   4.219   8.795  0.2277 -0.0228 -0.1058
10204WAT     H142621  -5.575   4.258   8.865  1.5634  0.4583  0.6104
10204WAT     H242622  -5.435   4.249   8.809  0.8245 -1.2391 -1.0507
10204WAT    EPW42623  -5.519   4.228   8.806  0.4826 -0.1197 -0.1359
10205WAT      O42624  -4.557   8.570   8.333  0.1131 -0.2110  0.5731
10205WAT     H142625  -4.477   8.594   8.380  1.4017  0.3276 -1.7206
10205WAT     H242626  -4.542   8.479   8.304 -0.4046 -0.3463  0.7170
10205WAT    EPW42627  -4.544   8.561   8.335  0.2151 -0.1578  0.2890
10206WAT      O42628   2.441  10.303   2.103  0.4819  0.4325 -0.6678
10206WAT     H142629   2.503  10.328   2.171  0.8084  2.3735 -1.5878
10206WAT     H242630   2.370  10.259   2.149  1.8548 -0.5740  0.5771
10206WAT    EPW42631   2.440  10.300   2.118  0.7060  0.5560 -0.6249
10207WAT      O42632  -0.797  10.103   2.694 -0.2147  0.0184 -0.1823
10207WAT     H142633  -0.763  10.171   2.752 -0.5212 -0.6856  0.8459
10207WAT     H242634  -0.867  10.147   2.644 -0.5242  0.4162  0.5931
10207WAT    EPW42635  -0.802  10.118   2.695 -0.2960 -0.0215  0.0556
10208WAT      O42636   7.993   5.247   1.659  0.0429  0.1917 -0.4184
10208WAT     H142637   7.976   5.273   1.749 -1.5706  0.1306 -0.6783
10208WAT     H242638   7.913   5.202   1.631  1.0970 -1.1864 -1.3863
10208WAT    EPW42639   7.981   5.244   1.667 -0.0308  0.0019 -0.5804
10209WAT      O42640   1.556   9.563   6.435 -0.6022 -0.8600 -0.1448
10209WAT     H142641   1.532   9.487   6.382 -1.4310 -0.8226  0.1670
10209WAT     H242642   1.567   9.634   6.371  1.0424 -1.4089 -0.5377
10209WAT    EPW42643   1.555   9.562   6.419 -0.4946 -0.9274 -0.1554
10210WAT      O42644   0.224   5.717   2.540  0.1280  0.3008  0.0161
10210WAT     H142645   0.286   5.762   2.598  0.7512  1.2010 -1.2934
10210WAT     H242646   0.197   5.640   2.589  2.2911 -0.1238  0.6475
10210WAT    EPW42647   0.228   5.713   2.554  0.4955  0.3636 -0.0732
10211WAT      O42648   3.149   1.118   5.852  0.2357  0.0951  0.2524
10211WAT     H142649   3.227   1.063   5.838 -0.5682 -1.1897  0.5899
10211WAT     H242650   3.086   1.088   5.787  0.4075  1.9782 -0.8423
10211WAT    EPW42651   3.151   1.107   5.842  0.1525  0.1740  0.1526
10212WAT      O42652  -0.371   5.321   5.305 -0.2743  0.4135  0.1421
10212WAT     H142653  -0.286   5.279   5.292 -0.1569  0.4786  0.6862
10212WAT     H242654  -0.352   5.399   5.356 -0.5040  1.1203 -0.8367
10212WAT    EPW42655  -0.358   5.326   5.310 -0.2891  0.5155  0.0849
10213WAT      O42656   2.093   3.844   1.941 -0.1874  0.5825 -0.0417
10213WAT     H142657   2.180   3.848   1.982  0.2774 -1.2058 -0.7707
10213WAT     H242658   2.037   3.804   2.008 -0.0798  0.2618 -0.1429
10213WAT    EPW42659   2.097   3.839   1.956 -0.1119  0.3043 -0.1512
10214WAT      O42660   5.767   7.485   0.086 -0.1048  0.4330 -1.1393
10214WAT     H142661   5.767   7.529   0.001  3.2105  3.7774  0.3074
10214WAT     H242662   5.754   7.555   0.149  0.4010 -1.4789  1.2152
10214WAT    EPW42663   5.766   7.500   0.083  0.3994  0.6220 -0.6380
10215WAT      O42664   3.409   2.776   8.060  0.3270 -0.1103  0.5316
10215WAT     H142665   3.498   2.764   8.027  0.0477 -0.2208 -0.2110
10215WAT     H242666   3.414   2.853   8.116  0.5533  0.9560 -0.8914
10215WAT    EPW42667   3.421   2.785   8.063  0.3201  0.0159  0.2460
10216WAT      O42668  -2.243   3.204   6.865 -0.6010  0.0342 -0.9479
10216WAT     H142669  -2.300   3.204   6.788 -0.5796 -1.2652 -0.9725
10216WAT     H242670  -2.180   3.274   6.847 -2.8332  2.3784 -0.3796
10216WAT    EPW42671  -2.242   3.213   6.853 -0.8926  0.1720 -0.8762
10217WAT      O42672   5.250   2.592   1.062  0.8875 -0.1355  0.2940
10217WAT     H142673   5.317   2.524   1.067  0.6491 -0.7172 -2.6499
10217WAT     H242674   5.168   2.545   1.046  0.8774  0.7190 -2.9841
10217WAT    EPW42675   5.248   2.577   1.060  0.8547 -0.0994 -0.5267
10218WAT      O42676   3.081   2.441   3.642  0.4978  0.3546 -0.4648
10218WAT     H142677   3.164   2.439   3.691 -0.2522 -1.3163  0.8336
10218WAT     H242678   3.016   2.469   3.706 -0.3073 -0.6555 -0.8175
10218WAT    EPW42679   3.084   2.444   3.657  0.2927  0.0010 -0.3400
10219WAT      O42680   6.630   1.328   0.986 -0.3660  0.3880 -0.1251
10219WAT     H142681   6.649   1.388   0.914  0.1901  1.4398  0.8624
10219WAT     H242682   6.535   1.331   0.996 -0.3823  0.7375 -0.3934
10219WAT    EPW42683   6.620   1.336   0.978 -0.2947  0.5728 -0.0302
10220WAT      O42684  -3.217   1.815   8.025  0.0626 -0.1661 -0.3655
10220WAT     H142685  -3.249   1.849   8.109 -1.0056 -1.2329 -0.3126
10220WAT     H242686  -3.193   1.893   7.975 -3.3143  0.8377 -0.6835
10220WAT    EPW42687  -3.218   1.830   8.030 -0.5237 -0.1745 -0.4005
10221WAT      O42688  -3.359   8.640   0.958 -0.0847  0.0193  0.3900
10221WAT     H142689  -3.273   8.625   0.998  1.0037  1.5833 -1.2487
10221WAT     H242690  -3.395   8.714   1.006 -0.5936 -0.6962  1.1398
10221WAT    EPW42691  -3.352   8.648   0.970 -0.0082  0.1307  0.2728
10222WAT      O42692   4.192   4.260   4.842  0.1227  0.0250 -0.7487
10222WAT     H142693   4.218   4.342   4.882  0.6955 -1.6020  2.5894
10222WAT     H242694   4.268   4.231   4.793  1.5053 -0.3782  1.4803
10222WAT    EPW42695   4.205   4.267   4.841  0.3805 -0.2429 -0.0145
10223WAT      O42696  -2.241   3.786   5.828 -0.4618 -0.0081 -0.7195
10223WAT     H142697  -2.224   3.791   5.922 -1.1146 -0.7847 -0.5409
10223WAT     H242698  -2.190   3.857   5.790 -0.4778  0.5466  0.2637
10223WAT    EPW42699  -2.232   3.796   5.836 -0.5500 -0.0372 -0.5662
10224WAT      O42700  -0.869   7.358   5.262  0.9279  0.5068 -0.4864
10224WAT     H142701  -0.801   7.425   5.264  0.8362  0.9169 -3.9302
10224WAT     H242702  -0.893   7.344   5.353  1.7648  4.2933  0.4723
10224WAT    EPW42703  -0.863   7.365   5.274  1.0262  1.0605 -0.8142
10225WAT      O42704   7.007   1.338   4.415 -0.6919  0.4393 -0.7141
10225WAT     H142705   7.027   1.418   4.367  0.3339  2.6853  3.0254
10225WAT     H242706   7.090   1.290   4.416 -0.8281  0.1863 -1.5087
10225WAT    EPW42707   7.021   1.342   4.409 -0.5744  0.7021 -0.3257
10226WAT      O42708  -5.600   3.985   7.653 -0.5630  0.3156 -0.0112
10226WAT     H142709  -5.583   3.952   7.565 -0.2990 -2.1786  0.9019
10226WAT     H242710  -5.552   3.926   7.711 -1.5924  1.2284  1.8877
10226WAT    EPW42711  -5.591   3.973   7.649 -0.6638  0.1069  0.3598
10227WAT      O42712   6.510   5.370   2.859  0.3241 -0.2253  0.5641
10227WAT     H142713   6.589   5.369   2.805  1.2818  0.2511  1.8948
10227WAT     H242714   6.501   5.462   2.886 -1.5897  0.0587 -0.7904
10227WAT    EPW42715   6.519   5.382   2.855  0.1981 -0.1249  0.5608
10228WAT      O42716   6.098   4.899   2.046 -0.0665 -0.6169  0.4578
10228WAT     H142717   6.113   4.993   2.056 -1.0026 -0.4342  0.2330
10228WAT     H242718   6.015   4.893   1.999  1.4730 -1.5088 -2.3609
10228WAT    EPW42719   6.089   4.910   2.041  0.0129 -0.7105  0.0564
10229WAT      O42720   2.862   8.537   3.624  0.6410  0.4888  0.3720
10229WAT     H142721   2.842   8.477   3.696 -0.0543 -0.5014 -0.6069
10229WAT     H242722   2.957   8.533   3.615  0.5275 -1.4811 -0.4731
10229WAT    EPW42723   2.872   8.529   3.632  0.5343  0.0987  0.1314
10230WAT      O42724  -4.328   1.097   7.466 -0.2897 -0.6795 -0.1185
10230WAT     H142725  -4.244   1.139   7.485 -1.9025  1.7346  2.5001
10230WAT     H242726  -4.318   1.007   7.498  1.1864 -0.3451  0.4104
10230WAT    EPW42727  -4.316   1.091   7.473 -0.3076 -0.3170  0.2966
10231WAT      O42728   2.107   7.180   5.245  0.4905  0.2923 -0.1424
10231WAT     H142729   2.056   7.100   5.244  0.4452  0.1539  3.1651
10231WAT     H242730   2.053   7.244   5.198 -0.2036 -1.1489 -1.3836
10231WAT    EPW42731   2.093   7.178   5.238  0.3929  0.0842  0.1302
10232WAT      O42732  -3.090   6.907   1.291 -0.1302 -0.0040  0.5369
10232WAT     H142733  -3.064   6.967   1.220  2.5576  1.4265  2.5223
10232WAT     H242734  -3.007   6.867   1.319 -1.2834 -1.4149  2.0959
10232WAT    EPW42735  -3.075   6.910   1.285  0.0722 -0.0017  1.0043
10233WAT      O42736  -3.158   5.527   6.122  0.3439 -0.4779  0.1968
10233WAT     H142737  -3.219   5.601   6.130 -0.2397 -1.0300  0.9700
10233WAT     H242738  -3.106   5.530   6.202 -0.7488 -1.8213  1.0064
10233WAT    EPW42739  -3.160   5.537   6.134  0.1228 -0.7277  0.4058
10234WAT      O42740  -6.702   7.258   7.306 -0.6128 -0.0703  0.1309
10234WAT     H142741  -6.624   7.202   7.310 -0.0008  0.7016 -0.6439
10234WAT     H242742  -6.668   7.345   7.286 -1.7531  0.0704 -1.3806
10234WAT    EPW42743  -6.688   7.262   7.304 -0.6826  0.0501 -0.1707
10235WAT      O42744  -0.868   3.754   3.804 -0.1049  0.0042  0.6688
10235WAT     H142745  -0.875   3.845   3.775 -0.9677  0.2307  1.5480
10235WAT     H242746  -0.805   3.715   3.743 -0.3717  0.9616 -0.2557
10235WAT    EPW42747  -0.860   3.761   3.792 -0.2539  0.1605  0.6628
10236WAT      O42748  -5.873   8.140   8.976  0.7533 -0.8659 -0.4456
10236WAT     H142749  -5.929   8.072   8.937  1.0399 -1.4343  0.1124
10236WAT     H242750  -5.784   8.115   8.951  0.8554 -0.6780 -0.2705
10236WAT    EPW42751  -5.869   8.128   8.968  0.8044 -0.9165 -0.3490
10237WAT      O42752  -2.293   8.354   2.987  0.1869  0.0632  0.0732
10237WAT     H142753  -2.302   8.317   3.075  2.2672 -2.3397 -0.6148
10237WAT     H242754  -2.235   8.430   3.000  3.5893 -2.3775  0.4723
10237WAT    EPW42755  -2.287   8.359   3.000  0.9100 -0.5755  0.0352
10238WAT      O42756  -3.557   5.036   8.957 -0.0111  0.3230 -0.6154
10238WAT     H142757  -3.580   4.949   8.989  0.7587  0.3195 -0.0414
10238WAT     H242758  -3.624   5.056   8.892 -1.6334  0.3325  0.9869
10238WAT    EPW42759  -3.569   5.027   8.953 -0.1236  0.3240 -0.3285
10239WAT      O42760  -5.566   6.599   7.777 -0.1729  0.7243 -0.0349
10239WAT     H142761  -5.659   6.618   7.767 -0.6109 -0.0484  2.1006
10239WAT     H242762  -5.550   6.525   7.718 -2.0190 -2.1042  2.7105
10239WAT    EPW42763  -5.576   6.592   7.768 -0.4742  0.2494  0.6089
10240WAT      O42764   3.750   2.731   6.265  0.4892  0.1386  0.2344
10240WAT     H142765   3.812   2.788   6.310 -1.1245  0.7054  1.8986
10240WAT     H242766   3.678   2.790   6.239 -0.7199 -0.9356  1.0435
10240WAT    EPW42767   3.749   2.747   6.267  0.1169  0.0718  0.5608
10241WAT      O42768   5.224   1.143   3.221 -0.5612  0.2080  0.3894
10241WAT     H142769   5.155   1.124   3.285 -0.1066 -0.9956  0.5367
10241WAT     H242770   5.185   1.209   3.163 -3.0564 -2.6857 -1.5157
10241WAT    EPW42771   5.209   1.150   3.222 -0.8304 -0.3324  0.1575
10242WAT      O42772  -2.881   8.729   7.953 -0.1111  0.7389 -0.0318
10242WAT     H142773  -2.947   8.668   7.921  1.6202 -0.8358 -0.7963
10242WAT     H242774  -2.900   8.811   7.909 -1.5176  0.3138 -0.2539
10242WAT    EPW42775  -2.892   8.732   7.943 -0.0683  0.4754 -0.1619
10243WAT      O42776   2.389   6.471   7.932  0.3206 -0.0757 -0.0902
10243WAT     H142777   2.447   6.395   7.924  0.6660  0.1935 -0.1680
10243WAT     H242778   2.307   6.444   7.890  1.6374  0.8668 -3.5969
10243WAT    EPW42779   2.386   6.458   7.926  0.5399  0.0842 -0.5631
10244WAT      O42780  -4.924   7.128   7.379 -0.5675  0.4855 -0.1379
10244WAT     H142781  -4.857   7.155   7.442 -0.5321  1.8897 -0.7411
10244WAT     H242782  -4.886   7.051   7.336 -1.0281 -1.1420  2.2228
10244WAT    EPW42783  -4.910   7.121   7.382 -0.6237  0.4561  0.0939
10245WAT      O42784   1.804   4.618   5.188  0.8674  0.2112 -0.3799
10245WAT     H142785   1.731   4.679   5.179  0.8577  0.5901  1.8432
10245WAT     H242786   1.880   4.667   5.155  0.7047  1.1445  0.5692
10245WAT    EPW42787   1.805   4.633   5.182  0.8447  0.3843  0.0384
10246WAT      O42788  -2.560   2.573   5.186  0.3456  0.0005 -0.3179
10246WAT     H142789  -2.596   2.650   5.230  2.3891 -0.1619  1.7972
10246WAT     H242790  -2.499   2.535   5.249  2.2836 -1.1842 -2.7411
10246WAT    EPW42791  -2.557   2.578   5.200  0.8707 -0.1771 -0.3586
10247WAT      O42792  -1.181   5.148   8.326  0.1416  0.1507 -0.3831
10247WAT     H142793  -1.255   5.093   8.298 -0.4610  1.1227 -0.7767
10247WAT     H242794  -1.170   5.129   8.419  0.4883 -1.2302 -0.6792
10247WAT    EPW42795  -1.190   5.138   8.334  0.1078  0.0968 -0.4740
10248WAT      O42796  -4.784   9.362   7.365  0.2159  0.4926  0.2839
10248WAT     H142797  -4.766   9.431   7.429 -1.0445  2.6467 -1.5166
10248WAT     H242798  -4.877   9.344   7.375  0.4090 -0.5814  0.3191
10248WAT    EPW42799  -4.794   9.369   7.375  0.0751  0.6351  0.0510
10249WAT      O42800  -3.650   4.008   5.562 -0.4750  0.4122  0.0557
10249WAT     H142801  -3.635   4.080   5.500 -2.4831  2.0371  1.3135
10249WAT     H242802  -3.697   3.942   5.510 -0.0140  0.6827 -0.7251
10249WAT    EPW42803  -3.655   4.009   5.547 -0.6790  0.6623  0.1187
10250WAT      O42804   1.862   0.496   7.930  0.4911  0.0261  0.1764
10250WAT     H142805   1.907   0.483   7.847  0.6466  0.6527  0.1560
10250WAT     H242806   1.886   0.585   7.956 -0.3202  0.1734  0.4268
10250WAT    EPW42807   1.871   0.506   7.923  0.4045  0.1282  0.2067
10251WAT      O42808  -3.518   3.201   8.727 -0.2096 -0.3973 -0.4197
10251WAT     H142809  -3.454   3.271   8.713  0.3553 -1.0835 -1.3801
10251WAT     H242810  -3.467   3.120   8.722 -1.1956 -0.9757 -1.5284
10251WAT    EPW42811  -3.503   3.200   8.725 -0.2651 -0.5641 -0.6933
10252WAT      O42812  -0.619   0.893   3.293  0.2978  0.8398 -0.3688
10252WAT     H142813  -0.672   0.941   3.230  2.0268  2.4468 -0.6606
10252WAT     H242814  -0.569   0.831   3.240  2.2115  2.6095 -0.7510
10252WAT    EPW42815  -0.620   0.891   3.278  0.7783  1.2852 -0.4576
10253WAT      O42816  -3.492   8.407   6.772 -0.3770 -0.3155  0.1481
10253WAT     H142817  -3.400   8.427   6.790 -0.3030  0.7206 -1.2056
10253WAT     H242818  -3.488   8.329   6.715 -0.2380  0.4756 -0.9637
10253WAT    EPW42819  -3.479   8.399   6.767 -0.3490 -0.0744 -0.1769
10254WAT      O42820   3.869   5.678   0.057 -0.2793 -0.1342  0.0975
10254WAT     H142821   3.887   5.586   0.039 -3.4066 -1.1917  1.6126
10254WAT     H242822   3.886   5.723  -0.026  1.0819 -2.0842 -0.7508
10254WAT    EPW42823   3.874   5.672   0.044 -0.5121 -0.5307  0.1854
10255WAT      O42824   1.413   1.969   6.963 -0.4063 -0.0979  0.2795
10255WAT     H142825   1.456   1.996   7.045  0.5611 -0.2578 -0.1644
10255WAT     H242826   1.440   1.879   6.950 -0.2798  0.0334 -0.3950
10255WAT    EPW42827   1.422   1.961   6.972 -0.2620 -0.1016  0.1318
10256WAT      O42828   0.511   3.044   4.852 -0.1634 -0.6844  0.1364
10256WAT     H142829   0.535   2.954   4.833  0.2768 -0.1619 -1.9902
10256WAT     H242830   0.472   3.077   4.772  1.0574  1.4589  0.3208
10256WAT    EPW42831   0.509   3.037   4.839  0.0557 -0.3328 -0.1194
10257WAT      O42832  -1.128   3.882   0.616  0.2292  0.1956 -0.3191
10257WAT     H142833  -1.176   3.965   0.615  0.2616  0.2772  1.4420
10257WAT     H242834  -1.196   3.815   0.617  0.1730  0.2556  0.0219
10257WAT    EPW42835  -1.143   3.885   0.616  0.2261  0.2142 -0.0418
10258WAT      O42836   2.318   9.373   6.964 -0.0131 -0.0520 -0.0161
10258WAT     H142837   2.328   9.277   6.968 -0.8916 -0.1374  0.4217
10258WAT     H242838   2.241   9.386   6.907 -2.1034  0.2013  2.6612
10258WAT    EPW42839   2.309   9.362   6.957 -0.4046 -0.0300  0.3946
10259WAT      O42840   1.929   9.692   2.630  0.1730 -0.6449 -0.1577
10259WAT     H142841   1.921   9.598   2.648 -3.2116 -0.6680 -1.1674
10259WAT     H242842   1.915   9.699   2.535  0.0240  0.8914 -0.0371
10259WAT    EPW42843   1.926   9.680   2.620 -0.2931 -0.4454 -0.2750
10260WAT      O42844  -3.266   1.562   6.643  0.1175  0.5824  0.2296
10260WAT     H142845  -3.251   1.493   6.578 -2.7471  1.9655 -2.2168
10260WAT     H242846  -3.259   1.518   6.727  2.9691 -1.5991 -0.9872
10260WAT    EPW42847  -3.263   1.547   6.645  0.1159  0.4771 -0.2537
10261WAT      O42848   3.451   6.849   3.856  0.0259  0.2228  0.2526
10261WAT     H142849   3.410   6.846   3.770  1.8297  0.0493 -0.6599
10261WAT     H242850   3.469   6.942   3.870 -1.0597  0.3537  0.8659
10261WAT    EPW42851   3.448   6.861   3.846  0.1205  0.2172  0.2131
10262WAT      O42852   5.949   1.652   6.706  0.3236  0.3324  0.2184
10262WAT     H142853   5.933   1.565   6.741 -1.2768  1.0735  1.4388
10262WAT     H242854   6.036   1.675   6.738  1.0581 -1.0546 -0.6887
10262WAT    EPW42855   5.958   1.644   6.715  0.2093  0.2472  0.2599
10263WAT      O42856  -5.445   9.231   8.825  0.3214  0.1831  0.5774
10263WAT     H142857  -5.406   9.318   8.838  0.3215  0.5065 -1.2189
10263WAT     H242858  -5.495   9.215   8.904  2.3264  0.7080  2.0560
10263WAT    EPW42859  -5.446   9.241   8.837  0.5860  0.2947  0.5355
10264WAT      O42860  -3.415   0.867   5.396 -0.1028 -0.3558 -0.4095
10264WAT     H142861  -3.435   0.923   5.320  1.8049  0.3481 -0.4331
10264WAT     H242862  -3.321   0.852   5.391 -0.0495 -0.8714  1.4530
10264WAT    EPW42863  -3.405   0.873   5.385  0.1557 -0.3310 -0.1669
10265WAT      O42864   1.981   2.783   0.755  0.2828  0.2135 -0.5168
10265WAT     H142865   1.936   2.823   0.830 -0.3031 -1.4542  0.0834
10265WAT     H242866   1.919   2.791   0.683 -0.3192 -0.5685 -0.1117
10265WAT    EPW42867   1.967   2.789   0.756  0.1261 -0.1097 -0.3842
10266WAT      O42868   0.013   9.523   4.892  0.2143  0.1718  0.3242
10266WAT     H142869  -0.049   9.591   4.920  2.2223  1.5670  1.7065
10266WAT     H242870   0.047   9.487   4.974  1.1804 -0.5944 -0.3951
10266WAT    EPW42871   0.009   9.527   4.906  0.6065  0.2546  0.4115
10267WAT      O42872   1.092   8.453   3.831 -0.0455  0.4468  1.3792
10267WAT     H142873   1.038   8.419   3.760 -1.3365  0.4598  2.3212
10267WAT     H242874   1.111   8.376   3.885  0.5545  0.5106  1.2588
10267WAT    EPW42875   1.087   8.438   3.829 -0.1367  0.4568  1.4875
10268WAT      O42876  -0.675  10.133   1.872  0.3336 -0.7422  0.0678
10268WAT     H142877  -0.628  10.187   1.936  0.0549  0.2704 -0.5471
10268WAT     H242878  -0.755  10.182   1.855  0.7018 -0.6428 -1.5309
10268WAT    EPW42879  -0.679  10.147   1.878  0.3454 -0.5956 -0.2241
10269WAT      O42880  -3.261   5.481   5.113  0.6743  0.0449  0.0160
10269WAT     H142881  -3.214   5.441   5.040  1.3758  0.6177  0.1419
10269WAT     H242882  -3.219   5.446   5.191  0.2134 -0.2245  0.1496
10269WAT    EPW42883  -3.250   5.471   5.114  0.7061  0.0849  0.0503
10270WAT      O42884  -3.125   9.874   5.602  0.7204 -0.0154  0.5687
10270WAT     H142885  -3.163   9.829   5.526 -0.9434 -1.1366  1.9892
10270WAT     H242886  -3.044   9.912   5.568 -0.5806  0.6652 -2.0896
10270WAT    EPW42887  -3.119   9.873   5.587  0.3294 -0.0734  0.4055
10271WAT      O42888   1.937   2.229   6.788 -0.0411 -0.1967  0.2636
10271WAT     H142889   1.844   2.210   6.798  0.2615 -1.2182  1.3256
10271WAT     H242890   1.959   2.283   6.864  0.2091  0.1906 -0.0771
10271WAT    EPW42891   1.928   2.234   6.799  0.0318 -0.2803  0.3586
10272WAT      O42892  -1.694   9.622   5.527 -0.0473  0.4088  0.6549
10272WAT     H142893  -1.675   9.644   5.436  1.1336  0.2231  0.8366
10272WAT     H242894  -1.686   9.705   5.574  0.8816  0.2371  0.8122
10272WAT    EPW42895  -1.690   9.636   5.521  0.2310  0.3614  0.6998
10273WAT      O42896   0.379   9.850   8.558  0.5107  0.6874  0.2540
10273WAT     H142897   0.293   9.809   8.549 -0.0336  1.6641  0.7912
10273WAT     H242898   0.420   9.805   8.632  1.0807 -0.7715 -0.8983
10273WAT    EPW42899   0.373   9.839   8.567  0.5141  0.6242  0.1731
10274WAT      O42900   6.922   5.712   0.086  0.5757 -0.3882  0.2343
10274WAT     H142901   7.000   5.656   0.082 -0.3579 -1.6639 -1.2550
10274WAT     H242902   6.953   5.797   0.053  1.0794 -1.2563 -1.6566
10274WAT    EPW42903   6.937   5.716   0.081  0.5190 -0.6709 -0.2116
10275WAT      O42904   2.240   2.703   6.803 -0.1245  0.2638  0.2550
10275WAT     H142905   2.312   2.754   6.765 -1.3669  0.0778 -2.5808
10275WAT     H242906   2.254   2.614   6.772 -2.2454  0.4785 -1.5660
10275WAT    EPW42907   2.252   2.698   6.794 -0.5683  0.2676 -0.3591
10276WAT      O42908  -5.969   2.241   8.621 -0.5797  0.4114  0.3239
10276WAT     H142909  -5.955   2.234   8.527 -1.4050 -0.2227  0.2415
10276WAT     H242910  -6.027   2.168   8.643  2.2628 -1.5736  1.9018
10276WAT    EPW42911  -5.975   2.230   8.612 -0.3138  0.0659  0.5212
10277WAT      O42912  -2.653   5.637   7.733 -0.0854 -0.7495 -0.6875
10277WAT     H142913  -2.631   5.643   7.640  1.9538  0.3758 -0.1933
10277WAT     H242914  -2.613   5.555   7.762 -1.1284 -1.3438 -0.8615
10277WAT    EPW42915  -2.645   5.627   7.725  0.0461 -0.6793 -0.6452
10278WAT      O42916  -5.095   9.585   2.971 -0.5711 -0.7982 -0.8151
10278WAT     H142917  -5.002   9.579   2.949 -0.5358 -0.8760 -0.6502
10278WAT     H242918  -5.099   9.561   3.064 -0.5730  0.5750 -0.4272
10278WAT    EPW42919  -5.083   9.581   2.980 -0.5670 -0.6270 -0.7422
10279WAT      O42920  -5.941   8.718   8.703  0.5465 -0.6476  0.7027
10279WAT     H142921  -6.001   8.644   8.709  2.6940 -2.6798 -0.7326
10279WAT     H242922  -5.940   8.756   8.791 -0.6904 -2.2777  1.4693
10279WAT    EPW42923  -5.948   8.714   8.715  0.6666 -1.1306  0.6142
10280WAT      O42924   8.501   5.474   0.302 -0.0113 -0.1721  0.1028
10280WAT     H142925   8.572   5.527   0.338 -1.8877  0.5366  3.0731
10280WAT     H242926   8.472   5.420   0.376 -2.2490 -0.7860 -1.1531
10280WAT    EPW42927   8.507   5.474   0.317 -0.5541 -0.1597  0.3289
10281WAT      O42928  -0.907   8.765   7.327 -0.1369  0.1514 -0.7650
10281WAT     H142929  -0.975   8.737   7.266 -0.5745 -1.8214  0.5429
10281WAT     H242930  -0.889   8.687   7.380  0.1992  1.7613  1.6352
10281WAT    EPW42931  -0.914   8.751   7.326 -0.1503  0.1035 -0.2761
10282WAT      O42932   0.254   0.061   6.921  0.6752 -0.2693 -0.1935
10282WAT     H142933   0.232   0.138   6.869  1.9503 -1.1704 -2.2035
10282WAT     H242934   0.338   0.083   6.962  0.9555 -0.4839 -0.6336
10282WAT    EPW42935   0.262   0.074   6.919  0.8804 -0.4164 -0.5169
10283WAT      O42936  -0.116   1.719   2.138 -0.1986 -0.9129  0.3455
10283WAT     H142937  -0.124   1.660   2.213  0.7776 -0.3079  0.9496
10283WAT     H242938  -0.044   1.778   2.161 -1.9633  1.3938  0.3886
10283WAT    EPW42939  -0.107   1.719   2.151 -0.3026 -0.5289  0.4308
10284WAT      O42940   2.441   0.777   7.577 -0.2001 -0.1087 -0.0934
10284WAT     H142941   2.390   0.854   7.601  1.5571  1.3530 -0.8198
10284WAT     H242942   2.531   0.797   7.605  0.1726 -2.2216  0.3905
10284WAT    EPW42943   2.446   0.790   7.584  0.0807 -0.1946 -0.1256
10285WAT      O42944  -0.281   5.877   4.195 -0.7737  0.1090  0.7496
10285WAT     H142945  -0.332   5.854   4.117  0.1888 -1.6978  0.6045
10285WAT     H242946  -0.228   5.952   4.167  0.2663 -1.1088 -0.6855
10285WAT    EPW42947  -0.281   5.884   4.181 -0.5096 -0.2899  0.5412
10286WAT      O42948   0.646   4.948   7.592 -0.2903  0.0507  0.7033
10286WAT     H142949   0.734   4.911   7.603 -0.2539 -1.4559 -3.2612
10286WAT     H242950   0.660   5.025   7.536 -1.4361  0.3640  0.8328
10286WAT    EPW42951   0.660   4.953   7.586 -0.4366 -0.1066  0.1976
10287WAT      O42952   0.395   7.740   5.286 -0.2549  0.1023 -0.3254
10287WAT     H142953   0.325   7.795   5.321 -0.1138 -0.7470  1.4032
10287WAT     H242954   0.473   7.766   5.336  0.3806  0.1180 -1.3065
10287WAT    EPW42955   0.396   7.751   5.297 -0.1525 -0.0076 -0.2267
10288WAT      O42956  -1.554   1.529   3.715 -0.6851  0.5756 -0.8381
10288WAT     H142957  -1.469   1.485   3.723 -1.5594 -0.9021  1.1717
10288WAT     H242958  -1.601   1.480   3.648 -0.2324  0.9772 -1.4651
10288WAT    EPW42959  -1.549   1.517   3.707 -0.7407  0.4337 -0.6557
10289WAT      O42960  -2.215   9.290   6.723 -0.1624  0.2846 -0.3120
10289WAT     H142961  -2.286   9.318   6.665 -0.0744  0.8833 -0.1364
10289WAT     H242962  -2.249   9.211   6.764 -1.7164  1.7876  1.5232
10289WAT    EPW42963  -2.229   9.283   6.720 -0.3557  0.5617 -0.0470
10290WAT      O42964  -0.655  10.077   7.962  0.6504 -0.3329 -0.1834
10290WAT     H142965  -0.620  10.019   8.030 -0.0353 -1.6775 -0.9428
10290WAT     H242966  -0.747  10.052   7.953  0.2952  0.9794 -0.4506
10290WAT    EPW42967  -0.662  10.067   7.969  0.5132 -0.3371 -0.3188
10291WAT      O42968   2.925   0.285   2.170 -0.3971  0.1280 -0.1775
10291WAT     H142969   2.885   0.243   2.094 -2.2182 -1.2940  1.4617
10291WAT     H242970   2.992   0.223   2.198 -1.7979 -0.8796  1.1135
10291WAT    EPW42971   2.929   0.271   2.163 -0.8222 -0.1924  0.2090
10292WAT      O42972  -0.945   2.051   7.995 -0.1537 -0.1558 -0.0885
10292WAT     H142973  -0.921   2.141   8.014 -0.8374  0.1608 -0.6673
10292WAT     H242974  -0.997   2.023   8.070 -0.4421  0.1374 -0.1778
10292WAT    EPW42975  -0.949   2.059   8.007 -0.2819 -0.0752 -0.1764
10293WAT      O42976   0.026   9.558   3.424  0.3421  0.3550  0.3679
10293WAT     H142977   0.027   9.644   3.467 -1.4641  0.4972  0.1765
10293WAT     H242978  -0.026   9.502   3.482 -2.9872  0.7933 -1.9218
10293WAT    EPW42979   0.019   9.562   3.438 -0.3352  0.4320  0.0407
10294WAT      O42980   0.780   0.484   3.457  0.6476 -0.1592  0.2467
10294WAT     H142981   0.813   0.552   3.400  0.3285 -1.0221 -1.0040
10294WAT     H242982   0.684   0.490   3.449  0.5501  0.4758  1.6220
10294WAT    EPW42983   0.772   0.494   3.449  0.5927 -0.1892  0.2631
10295WAT      O42984  -4.368   4.093   7.108 -0.2019  0.8719  0.0065
10295WAT     H142985  -4.332   4.181   7.102  0.0294  0.9623  2.0837
10295WAT     H242986  -4.298   4.042   7.150  0.4873 -0.8479 -2.8722
10295WAT    EPW42987  -4.354   4.098   7.113 -0.0806  0.6571 -0.0994
10296WAT      O42988  -3.848  10.213   6.691 -0.3219 -0.0081 -0.8987
10296WAT     H142989  -3.818  10.141   6.635 -0.4633  0.3540 -1.4406
10296WAT     H242990  -3.927  10.178   6.734 -0.4117 -0.1645 -1.1880
10296WAT    EPW42991  -3.855  10.199   6.689 -0.3525  0.0191 -1.0085
10297WAT      O42992   4.849   6.128   2.331 -0.2925 -0.4738 -0.5832
10297WAT     H142993   4.888   6.041   2.320 -1.7534 -1.1727 -0.5292
10297WAT     H242994   4.907   6.187   2.285  1.4169 -1.2952  0.4370
10297WAT    EPW42995   4.861   6.124   2.323 -0.2596 -0.6742 -0.4417
10298WAT      O42996   1.107   0.856   6.569 -0.0674  0.8134  0.2409
10298WAT     H142997   1.029   0.816   6.532  0.0628  0.7474  0.0370
10298WAT     H242998   1.179   0.801   6.538  0.0608  0.8851  0.4110
10298WAT    EPW42999   1.106   0.844   6.560 -0.0333  0.8142  0.2363
10299WAT      O43000   5.388   5.779   4.190  0.2670 -0.0398  0.2762
10299WAT     H143001   5.341   5.706   4.229 -0.2424  0.4418  0.5880
10299WAT     H243002   5.390   5.846   4.258 -0.1768  0.6180 -0.3419
10299WAT    EPW43003   5.382   5.779   4.204  0.1411  0.1104  0.2358
10300WAT      O43004   3.200   6.044   4.633  0.1910  0.1419 -0.4158
10300WAT     H143005   3.167   5.966   4.677  0.0313  0.7418  0.5534
10300WAT     H243006   3.287   6.019   4.602 -0.2008 -0.6843 -0.8623
10300WAT    EPW43007   3.207   6.030   4.635  0.1184  0.1123 -0.3469
10301WAT      O43008  -2.241   4.875   7.130 -0.4693 -0.8886 -0.4777
10301WAT     H143009  -2.200   4.946   7.181 -3.4726  0.0239  0.8615
10301WAT     H243010  -2.190   4.873   7.048  2.2039  0.0714  1.0215
10301WAT    EPW43011  -2.229   4.884   7.126 -0.5128 -0.6416 -0.1035
10302WAT      O43012  -5.135   5.096   8.213 -0.6169 -0.3079  0.3812
10302WAT     H143013  -5.096   5.099   8.125 -0.6833  0.6858  0.3733
10302WAT     H243014  -5.153   5.188   8.234 -0.0130 -0.4735  1.6987
10302WAT    EPW43015  -5.132   5.109   8.204 -0.5457 -0.1988  0.5536
10303WAT      O43016   3.024   9.508   7.367 -0.4671 -0.1381 -0.2452
10303WAT     H143017   2.966   9.572   7.326  0.1336  0.7019  0.1708
10303WAT     H243018   3.053   9.550   7.448 -0.0748 -0.9497  0.0465
10303WAT    EPW43019   3.020   9.522   7.372 -0.3361 -0.1340 -0.1519
10304WAT      O43020  -0.562   4.648   4.985 -0.0738 -0.8840  0.0333
10304WAT     H143021  -0.577   4.627   5.077 -2.1984 -2.0483 -0.5105
10304WAT     H243022  -0.556   4.743   4.983  3.5063 -0.9047  1.7660
10304WAT    EPW43023  -0.563   4.658   4.997  0.1182 -1.0402  0.1900
10305WAT      O43024   2.890   8.221   5.394 -0.9215 -0.3134 -0.2885
10305WAT     H143025   2.973   8.185   5.366 -1.6672 -2.2175 -0.1739
10305WAT     H243026   2.906   8.251   5.484  0.0217  0.7927 -0.8018
10305WAT    EPW43027   2.903   8.220   5.402 -0.8954 -0.4187 -0.3409
10306WAT      O43028  -0.188   6.534   2.963 -0.0988 -0.2306  0.3082
10306WAT     H143029  -0.180   6.629   2.963 -1.0772 -0.1369  0.4567
10306WAT     H243030  -0.274   6.517   3.001  0.4655 -1.2160  1.2156
10306WAT    EPW43031  -0.198   6.544   2.968 -0.1534 -0.3481  0.4475
10307WAT      O43032   2.275   5.650   5.329  0.2742  0.1550 -0.7160
10307WAT     H143033   2.351   5.625   5.381  0.7389  3.4778  0.4817
10307WAT     H243034   2.274   5.589   5.256  3.4983 -0.6547 -0.2253
10307WAT    EPW43035   2.285   5.639   5.326  0.7607  0.4866 -0.4933
10308WAT      O43036   1.621   1.473   6.666 -0.2013  0.4151 -0.0338
10308WAT     H143037   1.581   1.397   6.621 -1.2501 -0.8688  2.8503
10308WAT     H243038   1.714   1.451   6.670 -0.5188 -0.9110  0.9679
10308WAT    EPW43039   1.628   1.460   6.660 -0.3815  0.0709  0.4787
10309WAT      O43040   5.470   6.081   5.541  0.9672  0.8798 -0.2673
10309WAT     H143041   5.526   6.016   5.498 -0.9351 -1.2472  0.2769
10309WAT     H243042   5.406   6.105   5.473  0.9812  1.3442 -0.1179
10309WAT    EPW43043   5.469   6.075   5.526  0.7181  0.6607 -0.1760
10310WAT      O43044   4.276   9.882   0.134 -0.2323 -1.0919 -1.1349
10310WAT     H143045   4.188   9.845   0.132 -0.2546 -1.2870  1.1273
10310WAT     H243046   4.295   9.895   0.227  2.6177 -2.1994 -1.4532
10310WAT    EPW43047   4.267   9.879   0.146  0.1407 -1.2631 -0.8785
10311WAT      O43048   7.886   2.448   1.703  0.0817 -0.1228  0.1088
10311WAT     H143049   7.805   2.429   1.656  0.5915 -2.2537 -0.0238
10311WAT     H243050   7.864   2.519   1.762 -0.7930  2.1917 -2.7524
10311WAT    EPW43051   7.873   2.454   1.704  0.0339 -0.0986 -0.2860
10312WAT      O43052  -7.781   9.143   8.409 -0.4288 -0.6309 -0.7934
10312WAT     H143053  -7.786   9.154   8.504  0.6399 -2.3928 -0.4860
10312WAT     H243054  -7.692   9.168   8.386 -1.1651  1.4587 -1.6468
10312WAT    EPW43055  -7.770   9.147   8.418 -0.3850 -0.5879 -0.8655
10313WAT      O43056  -1.546   7.844   3.048 -0.7761  0.0352 -0.9098
10313WAT     H143057  -1.472   7.785   3.059 -1.4192 -0.6325 -0.0050
10313WAT     H243058  -1.527   7.893   2.968  3.0761  3.4325  1.7111
10313WAT    EPW43059  -1.534   7.843   3.039 -0.3528  0.3953 -0.4448
10314WAT      O43060  -1.458   2.374   3.170 -0.0194  0.1819  0.3368
10314WAT     H143061  -1.510   2.396   3.247  1.0193 -0.5474  1.2980
10314WAT     H243062  -1.487   2.435   3.102 -1.2938  0.5289  1.1611
10314WAT    EPW43063  -1.468   2.385   3.171 -0.0505  0.1316  0.5723
10315WAT      O43064  -2.647   6.662   7.822  0.4295  0.6651  0.1403
10315WAT     H143065  -2.608   6.660   7.909 -1.1174 -1.0520  0.8526
10315WAT     H243066  -2.633   6.573   7.788 -2.1189  0.2077  0.1344
10315WAT    EPW43067  -2.640   6.650   7.829 -0.1107  0.3784  0.2334
10316WAT      O43068  -2.912   1.368   5.379  0.3321 -0.5065 -0.1586
10316WAT     H143069  -2.866   1.334   5.456 -0.4470  0.7299  0.8848
10316WAT     H243070  -2.842   1.400   5.321  0.8733 -0.2432  0.6334
10316WAT    EPW43071  -2.897   1.368   5.381  0.3006 -0.3087  0.0834
10317WAT      O43072  -4.269   6.156   5.079 -0.0022  0.7564 -0.1221
10317WAT     H143073  -4.282   6.062   5.085  0.5502  0.6361 -0.6524
10317WAT     H243074  -4.352   6.190   5.046 -1.0220  0.7504  2.2285
10317WAT    EPW43075  -4.282   6.148   5.076 -0.0639  0.7398  0.1180
10318WAT      O43076   7.657   4.685   0.061  0.2139 -0.0463  0.3039
10318WAT     H143077   7.697   4.626  -0.004  0.1689 -1.7258  1.7176
10318WAT     H243078   7.635   4.627   0.134 -0.7849  1.6012  1.3478
10318WAT    EPW43079   7.660   4.669   0.062  0.0761 -0.0505  0.6280
10319WAT      O43080   0.112   9.374   5.954  0.5143  0.1196 -0.3586
10319WAT     H143081   0.050   9.392   5.883 -0.3815  1.9752  0.8271
10319WAT     H243082   0.061   9.324   6.018  0.8553 -0.1618 -0.3045
10319WAT    EPW43083   0.097   9.370   5.953  0.4411  0.3271 -0.1950
10320WAT      O43084  -0.378   8.772   6.969 -1.0697 -0.2184 -0.1938
10320WAT     H143085  -0.420   8.791   6.885 -1.3295  1.0985  0.2225
10320WAT     H243086  -0.310   8.838   6.978 -1.5250  0.1132  0.9676
10320WAT    EPW43087  -0.374   8.783   6.959 -1.1640 -0.0010  0.0143
10321WAT      O43088  -5.497   6.991   6.758 -0.0795  0.0249 -0.1991
10321WAT     H143089  -5.485   6.899   6.780 -1.9148 -0.1667  0.0955
10321WAT     H243090  -5.492   6.994   6.662 -0.0722 -0.3820 -0.2102
10321WAT    EPW43091  -5.495   6.979   6.748 -0.3204 -0.0541 -0.1616
10322WAT      O43092   2.115   3.116   4.643 -0.4837  0.8362  0.0237
10322WAT     H143093   2.067   3.126   4.561 -0.9688 -0.7452  0.0869
10322WAT     H243094   2.068   3.172   4.705 -0.6906  1.2931 -0.5354
10322WAT    EPW43095   2.102   3.125   4.640 -0.5749  0.6880 -0.0417
10323WAT      O43096  -1.045   1.460   2.658 -0.1310 -0.6525  0.8062
10323WAT     H143097  -1.117   1.397   2.663  1.2368 -2.4769 -0.8486
10323WAT     H243098  -0.985   1.422   2.594  0.2306  2.9714 -1.2263
10323WAT    EPW43099  -1.046   1.446   2.650  0.0971 -0.4152  0.3198
10324WAT      O43100   5.540   9.016   1.217 -0.0398  0.2964  0.3123
10324WAT     H143101   5.542   9.089   1.155 -1.3435  1.3411  1.4212
10324WAT     H243102   5.631   8.988   1.225  0.2005  0.2943 -1.8344
10324WAT    EPW43103   5.552   9.022   1.210 -0.1802  0.4339  0.1754
10325WAT      O43104   5.646   3.604   5.629  0.1184 -0.0102  0.0681
10325WAT     H143105   5.639   3.512   5.606 -1.0424 -0.4783  2.0919
10325WAT     H243106   5.556   3.632   5.645  0.6000  1.0241  1.0797
10325WAT    EPW43107   5.633   3.596   5.628  0.0288  0.0646  0.4685
10326WAT      O43108   1.453   0.277   6.236 -0.1685  0.4506  0.3009
10326WAT     H143109   1.433   0.339   6.166 -0.9697  0.6376  0.6784
10326WAT     H243110   1.375   0.222   6.241 -0.7398  1.3417  1.9756
10326WAT    EPW43111   1.440   0.278   6.227 -0.3495  0.5928  0.5717
10327WAT      O43112  -0.551   8.369   7.812  0.1087 -0.1267 -0.7540
10327WAT     H143113  -0.552   8.330   7.899  0.5067  0.9964 -0.2400
10327WAT     H243114  -0.475   8.331   7.769  0.7650  0.4154 -0.0913
10327WAT    EPW43115  -0.541   8.359   7.818  0.2477  0.0930 -0.5989
10328WAT      O43116   3.551   5.564   7.688 -0.4033  0.5650  0.0265
10328WAT     H143117   3.637   5.543   7.723 -0.6413 -0.6417 -0.0833
10328WAT     H243118   3.569   5.608   7.605  0.1092  1.1021  0.4106
10328WAT    EPW43119   3.565   5.567   7.682 -0.3672  0.4766  0.0627
10329WAT      O43120   2.449   7.602   5.317  0.3677  0.4289 -0.4387
10329WAT     H143121   2.457   7.693   5.348 -0.3308 -0.2857  2.0559
10329WAT     H243122   2.362   7.575   5.344  0.2457 -0.7335 -1.9301
10329WAT    EPW43123   2.439   7.611   5.325  0.2594  0.1812 -0.3064
10330WAT      O43124   7.143   2.852   4.638 -0.3940  0.1194  0.1398
10330WAT     H143125   7.152   2.906   4.559  1.3847  2.3311  1.7347
10330WAT     H243126   7.196   2.774   4.620  1.0632  1.1971 -0.3894
10330WAT    EPW43127   7.151   2.849   4.625  0.0328  0.5531  0.2804
10331WAT      O43128  -2.936   7.907   7.176  0.3961 -0.1313  0.1198
10331WAT     H143129  -2.910   7.902   7.085  0.6880  3.6102 -0.1424
10331WAT     H243130  -3.032   7.903   7.174  0.2570  2.0653 -0.6950
10331WAT    EPW43131  -2.945   7.906   7.164  0.4163  0.6518 -0.0219
10332WAT      O43132   4.759   0.760   6.575  0.2223 -0.2461  0.3214
10332WAT     H143133   4.855   0.761   6.581  0.2625 -0.9346 -0.1023
10332WAT     H243134   4.741   0.728   6.486 -0.3978 -0.2731  0.4532
10332WAT    EPW43135   4.769   0.756   6.564  0.1459 -0.3405  0.2830
10333WAT      O43136   2.958   1.159   4.728  1.2136 -0.4705 -0.4845
10333WAT     H143137   2.930   1.218   4.799 -0.4649 -2.0531  0.2581
10333WAT     H243138   2.969   1.216   4.652  1.2151  1.0044  0.5766
10333WAT    EPW43139   2.956   1.175   4.728  0.9924 -0.4846 -0.2465
10334WAT      O43140  -1.470   9.853   2.746  0.8708  0.4401  0.2048
10334WAT     H143141  -1.486   9.936   2.792  2.0108 -0.2345  1.9296
10334WAT     H243142  -1.422   9.879   2.668 -2.3326  1.7732 -1.5162
10334WAT    EPW43143  -1.466   9.867   2.742  0.5987  0.5269  0.2054
10335WAT      O43144  -2.612   9.710   3.184  0.0509  0.2229  0.3717
10335WAT     H143145  -2.532   9.671   3.218  1.3168  1.5039 -1.0435
10335WAT     H243146  -2.586   9.796   3.152 -1.8046  0.5144 -0.4828
10335WAT    EPW43147  -2.598   9.716   3.184 -0.0269  0.4301  0.0724
10336WAT      O43148  -2.072   1.124   3.420  0.3992 -0.2128  0.0848
10336WAT     H143149  -2.016   1.194   3.388 -2.9715  2.3803 -0.7702
10336WAT     H243150  -2.097   1.152   3.508 -1.9868  0.5056 -0.7328
10336WAT    EPW43151  -2.068   1.137   3.427 -0.3600  0.2240 -0.1359
10337WAT      O43152   0.671   5.634   0.923 -0.0713 -0.0101 -0.3503
10337WAT     H143153   0.601   5.571   0.940  0.3081  0.0622  1.7270
10337WAT     H243154   0.626   5.714   0.896 -0.8132 -0.0095  0.8126
10337WAT    EPW43155   0.656   5.636   0.922 -0.1191 -0.0005  0.0770
10338WAT      O43156   4.501   7.601   0.058 -0.2633 -0.3436  0.2597
10338WAT     H143157   4.432   7.608  -0.008 -1.5589 -3.7639  1.0379
10338WAT     H243158   4.581   7.585   0.008 -0.5278  0.6798 -0.5370
10338WAT    EPW43159   4.502   7.600   0.043 -0.4690 -0.6599  0.2573
10339WAT      O43160   1.582   4.862   5.623 -0.3233 -0.2940 -0.4151
10339WAT     H143161   1.524   4.928   5.660  1.0484  0.3544  0.6502
10339WAT     H243162   1.541   4.778   5.644 -0.6298  0.1377  0.7282
10339WAT    EPW43163   1.569   4.860   5.630 -0.1828 -0.1514 -0.1240
10340WAT      O43164   3.414   7.444   2.925 -0.0457 -0.1093 -0.2723
10340WAT     H143165   3.337   7.500   2.932  2.6125  3.9891  0.1245
10340WAT     H243166   3.427   7.411   3.014 -1.8274 -1.7785 -0.5705
10340WAT    EPW43167   3.406   7.447   2.938  0.0699  0.2110 -0.2593
10341WAT      O43168   2.148   4.548   2.846 -0.0373 -0.5961  0.1340
10341WAT     H143169   2.135   4.525   2.938  2.6023 -0.1911  0.6900
10341WAT     H243170   2.241   4.532   2.830 -0.4074 -0.5763 -2.4628
10341WAT    EPW43171   2.159   4.543   2.856  0.2620 -0.5400 -0.1352
10342WAT      O43172   0.111   9.891   8.264 -0.5966 -0.2398 -0.6963
10342WAT     H143173   0.020   9.909   8.240 -0.9207  1.3499  1.3826
10342WAT     H243174   0.105   9.824   8.333 -0.4394  1.5206  1.1043
10342WAT    EPW43175   0.098   9.884   8.270 -0.6186  0.2022 -0.1850
10343WAT      O43176   0.393   0.737   5.343 -0.0126  0.3304 -0.4868
10343WAT     H143177   0.433   0.651   5.333 -3.8613 -1.8746  0.7989
10343WAT     H243178   0.349   0.753   5.259 -0.6835  0.2194 -0.1605
10343WAT    EPW43179   0.392   0.728   5.330 -0.6087  0.0250 -0.2744
10344WAT      O43180  -0.731   6.825   2.361  0.3143  0.1966  1.3327
10344WAT     H143181  -0.650   6.837   2.410 -0.1487  0.2186  2.0997
10344WAT     H243182  -0.796   6.875   2.409  0.2768  2.0201 -0.4915
10344WAT    EPW43183  -0.729   6.833   2.374  0.2483  0.4401  1.1932
10345WAT      O43184   4.173   6.616   2.397  0.3333  0.4475  0.4058
10345WAT     H143185   4.221   6.686   2.354 -0.8199  0.6890 -0.5469
10345WAT     H243186   4.172   6.544   2.333 -2.3994  1.2172 -0.5901
10345WAT    EPW43187   4.179   6.616   2.383 -0.1791  0.5808  0.1488
10346WAT      O43188   4.048   2.860   2.189  0.0168  0.2922  0.6627
10346WAT     H143189   4.047   2.940   2.241 -0.0845  2.2285 -2.1182
10346WAT     H243190   4.137   2.853   2.156 -0.5573  0.7544 -1.1360
10346WAT    EPW43191   4.060   2.869   2.191 -0.0720  0.6086  0.0587
10347WAT      O43192   1.427   4.415   7.286  0.1843 -0.7165 -0.4045
10347WAT     H143193   1.477   4.444   7.362  0.3637 -0.7117 -0.5233
10347WAT     H243194   1.347   4.467   7.288 -0.6054 -1.8951  0.7449
10347WAT    EPW43195   1.423   4.425   7.296  0.1038 -0.8714 -0.2687
10348WAT      O43196   3.202   6.412   6.930 -0.6342 -0.4174 -0.5186
10348WAT     H143197   3.186   6.350   6.859 -2.8024 -0.6402  0.0710
10348WAT     H243198   3.196   6.360   7.010  0.6114  0.0284 -0.1170
10348WAT    EPW43199   3.199   6.397   6.931 -0.7559 -0.3879 -0.3879
10349WAT      O43200   3.207   9.578   3.589 -0.2979 -1.2144 -0.3554
10349WAT     H143201   3.268   9.510   3.618 -1.3343 -2.9480 -1.9139
10349WAT     H243202   3.127   9.529   3.569 -1.9139  0.8537  0.7833
10349WAT    EPW43203   3.204   9.562   3.590 -0.6477 -1.1697 -0.4108
10350WAT      O43204   3.493   0.608   0.313 -0.2047  0.2915  0.3107
10350WAT     H143205   3.553   0.647   0.249  0.6731 -0.1236  0.8532
10350WAT     H243206   3.535   0.525   0.336 -1.4189 -0.4010  0.0850
10350WAT    EPW43207   3.507   0.602   0.308 -0.2490  0.1454  0.3525
10351WAT      O43208   2.781   7.566   6.782  0.6285 -0.6731  0.0485
10351WAT     H143209   2.695   7.607   6.776 -0.2799 -2.5811 -1.0226
10351WAT     H243210   2.840   7.626   6.736 -0.5566 -0.3539 -1.1147
10351WAT    EPW43211   2.778   7.579   6.775  0.3523 -0.8826 -0.2463
10352WAT      O43212  -0.441   5.550   4.532 -0.1152  0.7234 -0.0424
10352WAT     H143213  -0.391   5.631   4.541 -1.2735  1.5728 -0.9847
10352WAT     H243214  -0.530   5.579   4.512 -0.2959 -0.7825 -1.6676
10352WAT    EPW43215  -0.446   5.565   4.530 -0.2918  0.6368 -0.3810
10353WAT      O43216   0.684   3.407   3.733  0.3504  0.1390 -0.1978
10353WAT     H143217   0.732   3.489   3.719  3.9293 -1.5786  0.8667
10353WAT     H243218   0.645   3.387   3.648 -0.3471  2.6902 -0.5727
10353WAT    EPW43219   0.685   3.415   3.720  0.7305  0.2489 -0.1068
10354WAT      O43220   8.770   2.241   0.413  0.0770 -0.1246 -0.0461
10354WAT     H143221   8.779   2.166   0.472  0.3356 -1.2160 -1.4103
10354WAT     H243222   8.855   2.285   0.417 -0.0869  0.1384  0.7859
10354WAT    EPW43223   8.782   2.237   0.422  0.0896 -0.2340 -0.1163
10355WAT      O43224   2.897   6.688   7.913  0.2336  0.2249  0.3929
10355WAT     H143225   2.942   6.684   7.829 -0.8839 -3.3156 -0.1861
10355WAT     H243226   2.804   6.689   7.891 -0.0826 -0.7572  1.5629
10355WAT    EPW43227   2.890   6.688   7.899  0.0445 -0.3717  0.4709
10356WAT      O43228   2.994   1.824   2.036 -0.0236 -0.0130  0.0614
10356WAT     H143229   3.024   1.735   2.058 -0.7216 -0.3776 -0.4466
10356WAT     H243230   2.928   1.811   1.968 -0.7974  0.8340  0.6310
10356WAT    EPW43231   2.989   1.810   2.030 -0.2178  0.0506  0.0696
10357WAT      O43232   8.240   4.724   0.503 -0.1431 -0.5257 -0.5940
10357WAT     H143233   8.183   4.779   0.557 -0.1537  0.7448 -1.8501
10357WAT     H243234   8.183   4.654   0.471 -0.4093 -0.6274  0.0931
10357WAT    EPW43235   8.225   4.722   0.506 -0.1798 -0.3715 -0.6690
10358WAT      O43236  -0.616   7.262   8.231  0.6440  0.0500  0.2731
10358WAT     H143237  -0.602   7.251   8.137  2.1181 -1.4198  0.6066
10358WAT     H243238  -0.600   7.355   8.247  1.7203  0.0651 -0.7462
10358WAT    EPW43239  -0.612   7.273   8.220  0.9804 -0.1419  0.1826
10359WAT      O43240  -0.285   2.911   4.529  0.6238  0.0305 -0.0614
10359WAT     H143241  -0.213   2.930   4.589  1.0892  1.0818 -0.9116
10359WAT     H243242  -0.303   2.995   4.486 -1.7878  0.0307  0.8371
10359WAT    EPW43243  -0.278   2.925   4.531  0.3671  0.1692 -0.0548
10360WAT      O43244   3.385   2.991   8.229  0.3183  0.2592 -0.1663
10360WAT     H143245   3.342   3.021   8.149 -0.5220  0.6088  0.3966
10360WAT     H243246   3.451   3.057   8.249  0.7479  0.0070 -0.7379
10360WAT    EPW43247   3.388   3.003   8.221  0.2642  0.2722 -0.1674
10361WAT      O43248  -1.816   2.445   2.805 -0.2034 -0.6491 -0.1522
10361WAT     H143249  -1.854   2.390   2.873 -0.6632 -0.5241 -0.3090
10361WAT     H243250  -1.747   2.391   2.767  1.6543  0.0779  1.9366
10361WAT    EPW43251  -1.812   2.431   2.809 -0.0190 -0.5367  0.1026
10362WAT      O43252  -1.072   4.963   3.861 -0.1526  0.2466  0.0929
10362WAT     H143253  -1.087   4.973   3.767  2.0499 -0.6420 -0.4187
10362WAT     H243254  -1.128   5.028   3.902  0.2050  1.9300 -1.9535
10362WAT    EPW43255  -1.081   4.973   3.854  0.1851  0.3512 -0.2445
10363WAT      O43256  -1.653   1.989   5.023  0.7274 -0.2619  0.3597
10363WAT     H143257  -1.656   2.064   5.082 -1.1320  0.8944 -1.0632
10363WAT     H243258  -1.629   2.027   4.938  0.8102 -1.4588 -0.1711
10363WAT    EPW43259  -1.650   2.004   5.019  0.4931 -0.2673  0.1020
10364WAT      O43260   2.913   1.276   8.234  0.2120 -0.2615 -0.3351
10364WAT     H143261   2.933   1.226   8.314 -2.1875  0.8427  1.0586
10364WAT     H243262   2.912   1.367   8.262  0.9352  0.3139 -2.0362
10364WAT    EPW43263   2.915   1.281   8.248 -0.0091 -0.0399 -0.3757
10365WAT      O43264  -2.239   3.529   8.950  0.2133 -0.4407 -0.2303
10365WAT     H143265  -2.202   3.583   9.019  2.4109 -0.9770 -0.9149
10365WAT     H243266  -2.242   3.586   8.873 -0.0574 -0.5099 -0.2755
10365WAT    EPW43267  -2.235   3.543   8.949  0.4674 -0.5206 -0.3266
10366WAT      O43268  -1.387   4.669   0.763 -0.2439 -0.1530 -0.6290
10366WAT     H143269  -1.390   4.667   0.668 -1.3591 -2.8573 -0.6254
10366WAT     H243270  -1.296   4.646   0.785  0.0874  0.7673 -1.0244
10366WAT    EPW43271  -1.375   4.665   0.754 -0.3473 -0.3884 -0.6807
10367WAT      O43272   2.038   3.027   8.007 -0.3069  0.1607  0.1052
10367WAT     H143273   2.017   3.114   8.042  0.4789 -0.0968  1.3063
10367WAT     H243274   2.051   2.973   8.085  1.3338 -0.4983 -0.5669
10367WAT    EPW43275   2.037   3.032   8.022  0.0132  0.0397  0.1750
10368WAT      O43276   6.795   0.295   2.907  0.2605 -0.9089  0.0985
10368WAT     H143277   6.820   0.327   2.993  0.5589 -1.9534  0.4204
10368WAT     H243278   6.703   0.317   2.898  0.3006 -0.5468  0.5648
10368WAT    EPW43279   6.786   0.302   2.917  0.3054 -0.9989  0.2025
10369WAT      O43280  -6.506   6.876   8.732 -0.2999 -0.3767  0.3757
10369WAT     H143281  -6.569   6.893   8.662  0.6513 -0.9771 -0.6542
10369WAT     H243282  -6.526   6.786   8.760 -1.3151  0.2004  1.5725
10369WAT    EPW43283  -6.517   6.866   8.726 -0.3085 -0.3796  0.3982
10370WAT      O43284  -3.229   8.717   8.923  0.8193  0.0285 -0.5972
10370WAT     H143285  -3.150   8.771   8.931  1.1342 -0.0667 -2.5199
10370WAT     H243286  -3.234   8.697   8.830 -0.0568 -2.1631 -0.1213
10370WAT    EPW43287  -3.219   8.722   8.912  0.7453 -0.2732 -0.7877
10371WAT      O43288   1.293   5.911   0.393 -0.0379 -0.7361 -0.3340
10371WAT     H143289   1.255   5.982   0.341 -0.2968  0.1213  0.9957
10371WAT     H243290   1.281   5.938   0.484  1.9442 -1.3985  0.1724
10371WAT    EPW43291   1.286   5.924   0.398  0.1894 -0.7105 -0.0918
10372WAT      O43292  -3.432   6.411   7.280 -0.5089  0.5897 -0.7443
10372WAT     H143293  -3.468   6.410   7.369 -1.6936  0.1238 -1.2110
10372WAT     H243294  -3.455   6.326   7.244  0.0153  0.7525 -1.4763
10372WAT    EPW43295  -3.440   6.400   7.287 -0.5960  0.5498 -0.9024
10373WAT      O43296   6.192   6.004   2.017 -0.0328  1.2853  1.3663
10373WAT     H143297   6.275   5.960   2.035  0.0574  0.8640 -0.0054
10373WAT     H243298   6.214   6.097   2.015  0.6903  1.1038 -0.3179
10373WAT    EPW43299   6.205   6.011   2.019  0.0746  1.2057  0.9632
10374WAT      O43300   2.123   9.233   1.110  0.4458 -0.5046  0.3851
10374WAT     H143301   2.128   9.320   1.150  1.6426  0.2929 -1.3644
10374WAT     H243302   2.030   9.211   1.111  0.2808  0.0630  2.2846
10374WAT    EPW43303   2.112   9.241   1.115  0.5819 -0.3242  0.4049
10375WAT      O43304  -0.315   4.082   6.494  0.4595  0.2879  0.3855
10375WAT     H143305  -0.264   4.011   6.455  1.7251  1.1883  0.3631
10375WAT     H243306  -0.283   4.089   6.584  1.3596  1.7387 -0.0159
10375WAT    EPW43307  -0.304   4.074   6.501  0.7452  0.5977  0.3297
10376WAT      O43308   7.586   0.955   3.456  0.5976  0.3920  0.4703
10376WAT     H143309   7.675   0.942   3.424  0.0660 -0.9366 -0.5788
10376WAT     H243310   7.531   0.908   3.393 -0.7661  0.3101  1.6682
10376WAT    EPW43311   7.591   0.947   3.443  0.3476  0.2059  0.4898
10377WAT      O43312   3.794   6.357   7.727 -0.4131  0.5056  0.6423
10377WAT     H143313   3.864   6.412   7.763  0.4910 -0.0609 -0.1783
10377WAT     H243314   3.728   6.419   7.696  0.4863  1.1386 -0.0778
10377WAT    EPW43315   3.795   6.372   7.728 -0.1751  0.5145  0.4389
10378WAT      O43316   2.866   7.375   4.740 -0.1774  0.1433 -0.0937
10378WAT     H143317   2.937   7.437   4.756 -1.3591  1.0580  2.0739
10378WAT     H243318   2.804   7.422   4.684  0.5527 -0.4008 -1.3942
10378WAT    EPW43319   2.867   7.389   4.735 -0.2369  0.1922  0.0207
10379WAT      O43320  -0.451   7.666   4.328  0.1046  0.8260  0.1551
10379WAT     H143321  -0.475   7.736   4.389 -0.8385  1.6557 -1.1084
10379WAT     H243322  -0.383   7.705   4.273 -1.1205  1.1486 -1.1969
10379WAT    EPW43323  -0.445   7.680   4.329 -0.1813  0.9780 -0.1898
10380WAT      O43324  -3.875   8.080   4.273 -0.2532 -0.8144  0.0617
10380WAT     H143325  -3.877   8.175   4.271 -0.6290 -0.8124  0.4095
10380WAT     H243326  -3.929   8.056   4.349 -0.5603 -1.3134 -0.3025
10380WAT    EPW43327  -3.882   8.089   4.283 -0.3433 -0.8802  0.0596
10381WAT      O43328   8.933   0.381   0.629  0.2521 -1.1324 -0.2897
10381WAT     H143329   8.946   0.312   0.564 -0.2955  0.7742 -2.5837
10381WAT     H243330   8.848   0.420   0.606 -1.0572 -1.7453  2.9937
10381WAT    EPW43331   8.923   0.377   0.618  0.0076 -0.9618 -0.1592
10382WAT      O43332   2.524  10.123   3.597  0.0113  0.3156  0.2748
10382WAT     H143333   2.475  10.205   3.596  3.0564  2.2776 -0.5176
10382WAT     H243334   2.615  10.149   3.584  1.0568 -3.2803 -0.7397
10382WAT    EPW43335   2.530  10.137   3.595  0.5507  0.1001  0.0365
10383WAT      O43336  -0.907   3.607   8.940 -0.1211 -0.8173 -0.0343
10383WAT     H143337  -0.922   3.513   8.929 -2.1594 -0.6656  0.9963
10383WAT     H243338  -0.899   3.619   9.034  3.1363 -0.2816 -0.2560
10383WAT    EPW43339  -0.908   3.596   8.951  0.0397 -0.7267  0.0724
10384WAT      O43340   5.087   9.584   1.279 -0.8730 -0.8103  0.1746
10384WAT     H143341   5.082   9.500   1.325  0.0634 -0.8961  0.1454
10384WAT     H243342   5.064   9.649   1.346 -1.0795 -1.0491  0.3383
10384WAT    EPW43343   5.083   9.581   1.294 -0.7765 -0.8535  0.1923
10385WAT      O43344   2.689   9.101   8.114  0.0101  0.2583 -0.1137
10385WAT     H143345   2.650   9.122   8.199  0.5001  0.5602  0.0439
10385WAT     H243346   2.700   9.185   8.070  2.1277  0.4178  0.5933
10385WAT    EPW43347   2.686   9.115   8.120  0.3539  0.3195  0.0000
10386WAT      O43348   2.779   6.987   6.211  0.6955 -0.1842  0.8441
10386WAT     H143349   2.729   7.047   6.155  2.9847  1.1837  0.1144
10386WAT     H243350   2.719   6.914   6.227 -1.1034  0.7896 -0.8972
10386WAT    EPW43351   2.764   6.985   6.206  0.7602  0.1247  0.5183
10387WAT      O43352   5.141   5.911   3.439  0.1387 -0.5529  0.6567
10387WAT     H143353   5.127   5.816   3.443  0.3050 -0.7803 -2.0845
10387WAT     H243354   5.057   5.946   3.410  0.0557  0.1750  1.7305
10387WAT    EPW43355   5.128   5.903   3.435  0.1495 -0.4871  0.4368
10388WAT      O43356   4.372   5.491   1.649 -0.7418 -0.4039 -0.0132
10388WAT     H143357   4.427   5.515   1.575  1.4357  0.9424  1.9032
10388WAT     H243358   4.335   5.574   1.679  2.4148  0.0391  3.3185
10388WAT    EPW43359   4.374   5.505   1.643 -0.0384 -0.1678  0.6790
10389WAT      O43360  -0.252   3.388   3.493  0.5680  0.0461 -0.1367
10389WAT     H143361  -0.333   3.439   3.485  0.5357  0.9621  4.0315
10389WAT     H243362  -0.279   3.298   3.478 -0.5425  0.6095 -1.8369
10389WAT    EPW43363  -0.266   3.383   3.490  0.4173  0.2413  0.1887
10390WAT      O43364   5.784   6.382   2.083 -0.2327 -0.2537  0.3110
10390WAT     H143365   5.839   6.314   2.121  0.2689 -1.0243 -1.6775
10390WAT     H243366   5.732   6.337   2.017 -1.1650  1.0002  0.1516
10390WAT    EPW43367   5.785   6.367   2.080 -0.2894 -0.1900  0.0278
10391WAT      O43368  -0.768   9.986   8.772 -0.3949  0.1554 -0.1843
10391WAT     H143369  -0.695  10.048   8.777 -0.1030 -0.0590 -1.4443
10391WAT     H243370  -0.751   9.936   8.692 -0.5911 -1.6028  0.8390
10391WAT    EPW43371  -0.756   9.988   8.762 -0.3823 -0.1044 -0.2155
10392WAT      O43372   0.147   0.281   1.750 -0.1355  0.0585 -0.1662
10392WAT     H143373   0.192   0.249   1.672 -2.6261 -1.3139 -1.1806
10392WAT     H243374   0.086   0.347   1.717 -0.8198 -0.1216  0.6997
10392WAT    EPW43375   0.145   0.285   1.735 -0.5543 -0.1463 -0.1858
10393WAT      O43376   2.850   2.496   4.476 -0.0566 -0.3683  0.0765
10393WAT     H143377   2.763   2.533   4.487 -0.8912 -1.6051 -1.8231
10393WAT     H243378   2.896   2.558   4.420  0.1935  0.1143  0.8004
10393WAT    EPW43379   2.845   2.509   4.470 -0.1338 -0.4678 -0.0784
10394WAT      O43380  -0.867   5.225   5.623  0.7277 -0.0710 -0.5471
10394WAT     H143381  -0.941   5.247   5.679  0.4597 -0.4027 -0.7655
10394WAT     H243382  -0.874   5.130   5.610  1.7583 -0.2673  0.2386
10394WAT    EPW43383  -0.878   5.215   5.628  0.8283 -0.1407 -0.4723
10395WAT      O43384  -6.660  10.373   5.552 -0.5639 -0.4949  0.3111
10395WAT     H143385  -6.668  10.293   5.603 -1.8470  0.1041  1.0935
10395WAT     H243386  -6.636  10.343   5.464 -1.0446 -1.7319  0.5839
10395WAT    EPW43387  -6.658  10.359   5.547 -0.7968 -0.5789  0.4504
10396WAT      O43388  -4.066   3.496   5.312 -0.4322 -0.7089 -0.3339
10396WAT     H143389  -3.984   3.452   5.332  0.3750  1.1416  0.6120
10396WAT     H243390  -4.047   3.551   5.236 -0.2936  0.9802  0.8787
10396WAT    EPW43391  -4.053   3.498   5.304 -0.3073 -0.2420 -0.0494
10397WAT      O43392  -2.521   0.577   8.430 -0.1775  0.0881  0.2917
10397WAT     H143393  -2.454   0.638   8.399  0.3619 -0.9422 -0.5949
10397WAT     H243394  -2.545   0.526   8.353 -0.2765 -1.1469  1.1208
10397WAT    EPW43395  -2.516   0.579   8.416 -0.1194 -0.2107  0.2837
10398WAT      O43396   6.824   1.631   5.130 -0.1657 -0.0798  0.6212
10398WAT     H143397   6.782   1.715   5.115 -0.4975 -0.7246 -2.9845
10398WAT     H243398   6.836   1.594   5.042  3.3873 -2.1601  1.7686
10398WAT    EPW43399   6.820   1.637   5.116  0.2592 -0.4392  0.2968
10399WAT      O43400   2.071   7.922   3.400 -0.7146 -0.4249  0.1569
10399WAT     H143401   2.104   8.001   3.443  0.1148 -0.4954 -0.3175
10399WAT     H243402   2.129   7.852   3.432  0.7004 -0.2931 -1.9315
10399WAT    EPW43403   2.083   7.923   3.410 -0.4187 -0.4168 -0.1811
10400WAT      O43404  -0.869   1.428   8.295  0.9433  0.1176 -0.7775
10400WAT     H143405  -0.785   1.421   8.251  2.1940  0.8333  1.3574
10400WAT     H243406  -0.848   1.428   8.388 -1.4269  0.2735 -0.1704
10400WAT    EPW43407  -0.855   1.427   8.302  0.7956  0.2326 -0.4153
10401WAT      O43408  -1.019   1.920   6.175  0.5463 -0.4784 -0.4098
10401WAT     H143409  -0.983   1.995   6.129 -0.1961 -0.4947 -1.0297
10401WAT     H243410  -1.073   1.875   6.110  0.5941 -1.2780  0.0900
10401WAT    EPW43411  -1.022   1.924   6.161  0.4547 -0.5861 -0.4256
10402WAT      O43412  -2.387   7.708   7.198  0.5294  0.2282  0.6716
10402WAT     H143413  -2.474   7.674   7.176  0.1505  0.7997  1.2359
10402WAT     H243414  -2.380   7.790   7.149  0.6129  0.3506  0.8879
10402WAT    EPW43415  -2.398   7.714   7.189  0.4903  0.3195  0.7746
10403WAT      O43416  -4.180   2.755   6.706  0.1252  0.3369  0.3460
10403WAT     H143417  -4.194   2.822   6.640 -0.3315  0.2100  0.3107
10403WAT     H243418  -4.261   2.703   6.706  0.5490 -0.3413  0.2228
10403WAT    EPW43419  -4.192   2.757   6.698  0.1209  0.2307  0.3254
10404WAT      O43420   8.447   0.816   2.685  0.5189  0.5785  0.5129
10404WAT     H143421   8.536   0.780   2.691  0.5381  0.3048 -0.9932
10404WAT     H243422   8.425   0.840   2.775  2.1061  0.6333  0.9230
10404WAT    EPW43423   8.456   0.814   2.698  0.7310  0.5496  0.3682
10405WAT      O43424   3.370   2.604   1.335 -0.2834 -0.2683  0.1581
10405WAT     H143425   3.291   2.608   1.280 -1.1977 -1.3012  1.3319
10405WAT     H243426   3.343   2.644   1.418  0.6545  0.0205  0.3320
10405WAT    EPW43427   3.356   2.610   1.339 -0.2803 -0.3664  0.3359
10406WAT      O43428  -6.488   7.312   7.808 -0.6018 -0.0820 -0.5655
10406WAT     H143429  -6.584   7.303   7.805 -0.4068 -3.6911 -1.8460
10406WAT     H243430  -6.466   7.363   7.730 -1.4546 -0.4171 -1.0465
10406WAT    EPW43431  -6.498   7.317   7.797 -0.6886 -0.6022 -0.7977
10407WAT      O43432   2.359   6.646   3.245 -0.0480 -0.3920  0.3588
10407WAT     H143433   2.403   6.575   3.292  0.3607 -0.9201 -0.7956
10407WAT     H243434   2.324   6.605   3.166 -1.2088  0.3683  0.4579
10407WAT    EPW43435   2.360   6.631   3.241 -0.1472 -0.3614  0.2196
10408WAT      O43436  -5.967   7.302   7.179 -0.9719 -0.5395  0.3867
10408WAT     H143437  -6.055   7.276   7.205 -0.4928 -1.4522  1.1629
10408WAT     H243438  -5.915   7.295   7.259  0.0178 -1.0112 -0.2783
10408WAT    EPW43439  -5.971   7.298   7.193 -0.7782 -0.7219  0.4015
10409WAT      O43440   5.611   4.482   2.672  1.1878 -0.0691 -0.5546
10409WAT     H143441   5.586   4.574   2.681  2.8223  0.3289  0.2491
10409WAT     H243442   5.626   4.453   2.762  1.7836 -0.8113 -0.8820
10409WAT    EPW43443   5.610   4.490   2.685  1.4820 -0.1147 -0.4919
10410WAT      O43444  -0.138   5.489   3.221  0.0339 -0.2711  0.1358
10410WAT     H143445  -0.171   5.429   3.154 -0.5272 -0.9542  1.0037
10410WAT     H243446  -0.093   5.433   3.284  2.7810  0.5955 -0.8896
10410WAT    EPW43447  -0.136   5.474   3.220  0.3222 -0.2468  0.1150
10411WAT      O43448  -2.975   7.796   1.664  0.8800 -0.4631 -0.2147
10411WAT     H143449  -2.931   7.817   1.581 -0.6752 -0.3923 -1.0478
10411WAT     H243450  -3.060   7.838   1.657  1.6726  1.9161  2.6001
10411WAT    EPW43451  -2.980   7.804   1.652  0.7794 -0.1400  0.0467
10412WAT      O43452  -5.329   9.037   6.404 -0.0882 -0.4531  0.4002
10412WAT     H143453  -5.395   9.104   6.421 -1.1368 -1.5090  0.6219
10412WAT     H243454  -5.338   8.975   6.477  2.2033  0.1413  1.2820
10412WAT    EPW43455  -5.339   9.038   6.416  0.0753 -0.5140  0.5457
10413WAT      O43456  -2.149   7.972   7.637 -0.7669  0.0396 -0.2362
10413WAT     H143457  -2.077   7.964   7.575 -0.5789  1.4709 -0.2376
10413WAT     H243458  -2.212   7.906   7.610  1.3964 -2.7268  1.0117
10413WAT    EPW43459  -2.148   7.962   7.625 -0.4568 -0.1364 -0.0718
10414WAT      O43460   4.888   9.163   1.404 -0.3941 -0.0158  0.2274
10414WAT     H143461   4.913   9.215   1.328  0.3041  1.2003  1.2569
10414WAT     H243462   4.960   9.100   1.414 -0.1766  0.2288  0.2297
10414WAT    EPW43463   4.901   9.161   1.395 -0.2735  0.1769  0.3635
10415WAT      O43464   2.462   3.419   3.354  0.5943 -0.2866 -0.7642
10415WAT     H143465   2.404   3.423   3.277 -0.8192  0.3331  0.2808
10415WAT     H243466   2.498   3.508   3.360 -0.8048  0.2365  0.3639
10415WAT    EPW43467   2.459   3.431   3.344  0.2233 -0.1359 -0.4777
10416WAT      O43468  -0.760   7.534   6.927 -0.0722 -0.3819 -0.0004
10416WAT     H143469  -0.727   7.622   6.944 -1.1716 -0.4986  3.5907
10416WAT     H243470  -0.846   7.548   6.887 -0.3520  0.2338  0.7865
10416WAT    EPW43471  -0.767   7.548   6.924 -0.2541 -0.3159  0.5772
10417WAT      O43472   0.448   6.873   7.896 -0.0633  0.3773 -0.2705
10417WAT     H143473   0.478   6.859   7.806  0.8820  1.4336 -0.1425
10417WAT     H243474   0.459   6.967   7.911 -0.8601  0.3285  0.7255
10417WAT    EPW43475   0.453   6.883   7.886 -0.0437  0.5102 -0.1223
10418WAT      O43476  -2.619   4.388   7.412 -0.0831 -0.2124  0.3011
10418WAT     H143477  -2.677   4.312   7.406  0.6068 -0.6219 -2.4609
10418WAT     H243478  -2.672   4.461   7.379  0.4568 -0.3187 -0.8682
10418WAT    EPW43479  -2.634   4.387   7.407  0.0792 -0.2804 -0.2174
10419WAT      O43480   1.563   3.175   2.273 -0.0726 -0.0482 -0.7633
10419WAT     H143481   1.479   3.170   2.320 -0.4531 -0.4506 -1.4745
10419WAT     H243482   1.538   3.188   2.182  0.6194 -0.9745 -1.0974
10419WAT    EPW43483   1.549   3.176   2.267 -0.0315 -0.2234 -0.9011
10420WAT      O43484   1.356   6.292   5.512 -0.2248 -0.1030 -0.2562
10420WAT     H143485   1.288   6.225   5.515 -1.1081  0.6401 -1.8878
10420WAT     H243486   1.434   6.250   5.548 -0.7715 -1.9737 -1.1515
10420WAT    EPW43487   1.357   6.278   5.517 -0.4134 -0.2518 -0.5894
10421WAT      O43488   3.789   6.494   5.678  0.3378 -0.5779  0.6975
10421WAT     H143489   3.706   6.469   5.717  0.9362 -1.8870  1.1902
10421WAT     H243490   3.826   6.411   5.646  2.2451 -0.3094  2.0591
10421WAT    EPW43491   3.783   6.480   5.679  0.6683 -0.7150  0.9422
10422WAT      O43492   0.008   7.970   2.566  0.3690  0.9679 -0.5396
10422WAT     H143493  -0.070   7.957   2.620 -0.5559 -1.3555 -2.2775
10422WAT     H243494   0.079   7.984   2.629 -1.2339  2.0110  1.1219
10422WAT    EPW43495   0.007   7.970   2.581  0.0356  0.7989 -0.5497
10423WAT      O43496   2.355   0.938   0.400  0.0605  0.1542 -0.3479
10423WAT     H143497   2.410   0.925   0.323 -1.1347 -0.9403 -1.0555
10423WAT     H243498   2.310   1.021   0.384  1.4213  1.0450  0.2247
10423WAT    EPW43499   2.356   0.947   0.388  0.0824  0.1273 -0.3657
10424WAT      O43500   3.576   7.471   2.687 -0.2756  0.2280  0.5949
10424WAT     H143501   3.512   7.459   2.757  1.5666 -1.3589  2.0968
10424WAT     H243502   3.578   7.566   2.673 -0.2451  0.6792  3.1543
10424WAT    EPW43503   3.568   7.482   2.694 -0.0286  0.0782  1.1306
10425WAT      O43504  -6.220   5.487   8.709  0.4251  0.1904  0.6486
10425WAT     H143505  -6.125   5.485   8.724  0.1591  0.0275  2.6138
10425WAT     H243506  -6.258   5.474   8.796 -1.4121  0.5188 -0.0604
10425WAT    EPW43507  -6.213   5.485   8.722  0.1476  0.2122  0.8144
10426WAT      O43508   1.648   2.627   4.271 -0.0630  0.5767  0.2314
10426WAT     H143509   1.602   2.544   4.282 -1.2793  1.1064 -0.6498
10426WAT     H243510   1.741   2.604   4.273 -0.2022 -0.3116  3.9098
10426WAT    EPW43511   1.654   2.613   4.273 -0.2417  0.5294  0.6003
10427WAT      O43512   1.506   7.017   8.616  0.4955  0.5276  0.3903
10427WAT     H143513   1.530   6.976   8.532  1.8017 -0.2000  1.0765
10427WAT     H243514   1.505   7.111   8.597 -0.1230  0.3358 -0.6427
10427WAT    EPW43515   1.509   7.024   8.602  0.5863  0.4063  0.3448
10428WAT      O43516  -4.499   9.390   2.806  0.3178 -0.2939  0.4091
10428WAT     H143517  -4.579   9.347   2.838 -0.7218  0.5176 -0.9528
10428WAT     H243518  -4.435   9.377   2.876 -1.5571  0.6587  2.4074
10428WAT    EPW43519  -4.501   9.382   2.819 -0.0665 -0.0610  0.4930
10429WAT      O43520   2.619   7.682   3.002 -0.2189 -0.1015 -0.2036
10429WAT     H143521   2.697   7.672   2.947 -0.0354 -1.0057  0.2129
10429WAT     H243522   2.653   7.706   3.088 -0.3167 -1.5086  0.2496
10429WAT    EPW43523   2.634   7.684   3.006 -0.2075 -0.4063 -0.0888
10430WAT      O43524  -0.113   6.126   1.963 -0.0449 -0.1328 -0.0900
10430WAT     H143525  -0.192   6.074   1.975 -0.6693  0.6526 -0.6447
10430WAT     H243526  -0.138   6.214   1.991  1.1437 -0.2161  1.3382
10430WAT    EPW43527  -0.127   6.131   1.968  0.0295 -0.0401  0.0252
10431WAT      O43528  -1.773   4.128   7.092 -0.4352 -0.0090  0.0825
10431WAT     H143529  -1.746   4.215   7.121 -1.1437 -0.0178  0.7904
10431WAT     H243530  -1.830   4.145   7.017  0.2201  0.0807 -0.4053
10431WAT    EPW43531  -1.777   4.141   7.086 -0.4423  0.0017  0.1113
10432WAT      O43532   2.517   0.306   0.429 -0.6553 -0.2895  0.0240
10432WAT     H143533   2.567   0.354   0.495 -1.5767  1.8391 -0.7584
10432WAT     H243534   2.565   0.319   0.348 -1.1309 -0.3548 -0.2727
10432WAT    EPW43535   2.530   0.314   0.427 -0.8395 -0.0174 -0.1184
10433WAT      O43536  -3.616   7.168   6.614 -0.6926 -0.1355  0.5954
10433WAT     H143537  -3.543   7.139   6.669 -0.5910 -4.3300 -1.3686
10433WAT     H243538  -3.693   7.123   6.650 -1.1332 -0.6025 -0.8318
10433WAT    EPW43539  -3.617   7.158   6.626 -0.7373 -0.7503  0.1481
10434WAT      O43540  -2.137   6.581   8.226 -0.5528  0.0904 -0.2138
10434WAT     H143541  -2.126   6.487   8.237 -0.3158  0.2256  0.8113
10434WAT     H243542  -2.089   6.619   8.300 -0.4852  1.0200 -0.7247
10434WAT    EPW43543  -2.129   6.574   8.237 -0.5126  0.2308 -0.1459
10435WAT      O43544   1.467   0.881   6.575 -0.1044 -0.1803 -0.0384
10435WAT     H143545   1.385   0.844   6.542 -0.2211  1.1435 -1.3275
10435WAT     H243546   1.442   0.925   6.656 -0.6866  0.2615 -0.4485
10435WAT    EPW43547   1.453   0.882   6.582 -0.1966  0.0526 -0.2625
10436WAT      O43548  -6.242   8.437   5.530  0.4132 -0.4504  0.9254
10436WAT     H143549  -6.227   8.519   5.577  1.3933  0.0256 -0.1377
10436WAT     H243550  -6.157   8.392   5.533  2.6852  2.2179 -5.1051
10436WAT    EPW43551  -6.229   8.442   5.536  0.8421 -0.0358 -0.0103
10437WAT      O43552  -2.304   7.070   7.694 -0.4699 -0.2445 -0.7502
10437WAT     H143553  -2.269   6.982   7.677 -0.9971 -0.4338 -0.8667
10437WAT     H243554  -2.243   7.129   7.650 -0.5902 -0.6056 -1.4049
10437WAT    EPW43555  -2.291   7.066   7.686 -0.5554 -0.3169 -0.8519
10438WAT      O43556  -2.427   7.439   0.674 -0.4411 -0.3047  0.1610
10438WAT     H143557  -2.404   7.417   0.764  3.5111  1.4979 -0.1989
10438WAT     H243558  -2.360   7.397   0.621 -3.0297 -1.8440 -2.1418
10438WAT    EPW43559  -2.415   7.431   0.679 -0.2612 -0.2699 -0.1902
10439WAT      O43560   3.234   1.205   0.281 -0.6553  0.3579 -0.1877
10439WAT     H143561   3.307   1.211   0.219 -0.6871  0.6590 -0.1956
10439WAT     H243562   3.156   1.219   0.227 -0.9697 -2.7611 -0.7381
10439WAT    EPW43563   3.233   1.208   0.266 -0.7010 -0.0137 -0.2614
10440WAT      O43564   7.289   0.924   3.668  0.1829 -0.5443  0.0493
10440WAT     H143565   7.377   0.888   3.685  1.1610  1.7143  0.1211
10440WAT     H243566   7.305   1.011   3.633 -2.0505  0.5819  1.5974
10440WAT    EPW43567   7.303   0.931   3.666  0.0172 -0.0978  0.2630
10441WAT      O43568  -2.158   7.997   7.126 -0.9281 -0.3323  0.2487
10441WAT     H143569  -2.253   8.000   7.115 -0.8193 -0.0116 -0.7039
10441WAT     H243570  -2.125   7.972   7.039 -0.1375 -0.3595  0.5529
10441WAT    EPW43571  -2.166   7.994   7.113 -0.8096 -0.2935  0.1633
10442WAT      O43572   0.292   6.794   0.667  0.0653  0.4254  0.8275
10442WAT     H143573   0.217   6.852   0.680 -0.6329 -0.3931  0.5220
10442WAT     H243574   0.257   6.706   0.678  0.5748 -0.0626 -1.0768
10442WAT    EPW43575   0.278   6.790   0.670  0.0404  0.2530  0.5360
10443WAT      O43576  -1.267   7.033   8.235  0.1276 -0.2159  0.4262
10443WAT     H143577  -1.310   7.104   8.187 -0.1635 -0.0936  0.8667
10443WAT     H243578  -1.278   6.956   8.179 -0.3606 -0.1124  0.3786
10443WAT    EPW43579  -1.274   7.032   8.221  0.0249 -0.1860  0.4778
10444WAT      O43580  -4.354   8.680   5.149  0.4627 -0.0488  0.9446
10444WAT     H143581  -4.418   8.749   5.162  1.7296  1.4665 -0.4799
10444WAT     H243582  -4.393   8.624   5.082 -0.0357 -0.0271  1.2124
10444WAT    EPW43583  -4.368   8.681   5.142  0.5641  0.1540  0.7920
10445WAT      O43584   1.451   8.789   4.150 -0.6284 -0.1339  0.8673
10445WAT     H143585   1.536   8.776   4.110 -0.9042 -0.9972  0.5430
10445WAT     H243586   1.389   8.785   4.077 -0.9187  0.8486  1.0491
10445WAT    EPW43587   1.454   8.787   4.135 -0.7030 -0.1183  0.8485
10446WAT      O43588   1.948   6.139   1.899 -0.1995 -0.6612 -0.4713
10446WAT     H143589   2.037   6.172   1.888 -0.3627 -0.6929 -2.1788
10446WAT     H243590   1.892   6.216   1.896 -0.3291 -0.7683 -0.8939
10446WAT    EPW43591   1.952   6.153   1.897 -0.2381 -0.6795 -0.7523
10447WAT      O43592  -4.688   9.868   2.502 -0.1460 -0.7265 -0.1795
10447WAT     H143593  -4.725   9.952   2.476 -1.1179 -0.8646  0.6671
10447WAT     H243594  -4.661   9.827   2.420  0.1972  0.3336 -0.6182
10447WAT    EPW43595  -4.690   9.874   2.488 -0.2291 -0.6051 -0.1256
10448WAT      O43596  -1.803   3.477   3.395  0.3922 -0.8860  0.3088
10448WAT     H143597  -1.742   3.464   3.323 -0.6442 -0.7335 -0.6115
10448WAT     H243598  -1.839   3.390   3.413 -0.4964 -0.6737 -0.4026
10448WAT    EPW43599  -1.800   3.463   3.388  0.1383 -0.8378  0.0935
10449WAT      O43600  -3.307   7.722   7.645 -0.0501  0.3447 -0.0519
10449WAT     H143601  -3.305   7.692   7.554  0.6355  1.3340 -0.3770
10449WAT     H243602  -3.217   7.709   7.676  0.0383  1.2441  0.0768
10449WAT    EPW43603  -3.295   7.716   7.637  0.0520  0.5939 -0.0777
10450WAT      O43604   4.129   8.634   0.000  0.1037  0.9138 -0.4802
10450WAT     H143605   4.201   8.571  -0.001 -0.8352 -0.1897 -1.5657
10450WAT     H243606   4.125   8.663   0.091 -0.6628 -2.1240  0.5871
10450WAT    EPW43607   4.138   8.630   0.012 -0.1214  0.3672 -0.4826
10451WAT      O43608  -6.145   8.928   8.967  0.1015  0.0248 -0.1654
10451WAT     H143609  -6.055   8.894   8.964  0.3075  0.5940 -3.1679
10451WAT     H243610  -6.136   9.016   9.003  0.4354 -0.6036  1.3793
10451WAT    EPW43611  -6.132   8.935   8.971  0.1726  0.0172 -0.3576
10452WAT      O43612   0.961   4.020   2.127  0.0678 -0.4885  0.1806
10452WAT     H143613   0.999   4.024   2.039 -0.2132 -0.0440  0.0796
10452WAT     H243614   1.026   3.971   2.178 -0.0122 -1.2151 -0.3937
10452WAT    EPW43615   0.975   4.014   2.122  0.0202 -0.5257  0.0916
10453WAT      O43616   0.278   5.415   2.007  0.0451 -0.3141  0.5037
10453WAT     H143617   0.293   5.386   2.097 -0.6606 -0.2800  0.6412
10453WAT     H243618   0.236   5.500   2.016 -2.3469 -1.3927  0.2253
10453WAT    EPW43619   0.274   5.422   2.020 -0.3635 -0.4520  0.4851
10454WAT      O43620   9.566   0.010   0.196 -0.3392 -0.7089  0.0757
10454WAT     H143621   9.485   0.054   0.223  0.9875  1.0018  1.4801
10454WAT     H243622   9.608   0.072   0.137  0.1883 -1.3831 -0.2678
10454WAT    EPW43623   9.560   0.024   0.192 -0.0949 -0.5722  0.2156
10455WAT      O43624   1.385   5.439   7.533  0.1713  1.0057  0.2868
10455WAT     H143625   1.326   5.406   7.601 -0.7819 -3.2746 -2.2578
10455WAT     H243626   1.465   5.464   7.580 -1.3307  0.7980  3.1717
10455WAT    EPW43627   1.388   5.438   7.548 -0.1526  0.4137  0.3316
10456WAT      O43628   0.117   6.250   4.820  0.9312  0.0568  0.3845
10456WAT     H143629   0.208   6.267   4.843  0.9822  0.8197 -0.3278
10456WAT     H243630   0.122   6.202   4.737  0.6722  1.9846 -0.8032
10456WAT    EPW43631   0.129   6.246   4.812  0.9037  0.4120  0.1338
10457WAT      O43632  -1.703   4.570   4.853  0.1983  0.2139  0.4141
10457WAT     H143633  -1.729   4.478   4.847 -0.9949  0.4905  1.0354
10457WAT     H243634  -1.783   4.619   4.835  0.7273  1.1301  0.4877
10457WAT    EPW43635  -1.717   4.565   4.850  0.1107  0.3712  0.5057
10458WAT      O43636   8.816   3.766   0.859 -0.0735 -0.4909 -0.2908
10458WAT     H143637   8.851   3.697   0.802 -0.3970 -1.1923  0.3468
10458WAT     H243638   8.885   3.781   0.924 -0.2735 -0.6811 -0.0348
10458WAT    EPW43639   8.830   3.759   0.860 -0.1426 -0.6084 -0.1729
10459WAT      O43640  -4.259   2.885   8.849  0.7583 -0.0639  0.1359
10459WAT     H143641  -4.335   2.867   8.793  0.9905  1.3739 -0.6960
10459WAT     H243642  -4.294   2.937   8.922  0.8714  0.2649 -0.0417
10459WAT    EPW43643  -4.274   2.890   8.851  0.8037  0.1690  0.0029
10460WAT      O43644   0.561   5.942   6.756 -0.3200  0.2057  0.0910
10460WAT     H143645   0.556   5.936   6.851  1.0356  0.3974  0.1975
10460WAT     H243646   0.514   5.865   6.724  0.4041 -0.6211  0.9586
10460WAT    EPW43647   0.554   5.931   6.764 -0.0457  0.1221  0.2193
10461WAT      O43648  -3.248   8.122   7.764 -0.2324  0.2674  0.0426
10461WAT     H143649  -3.317   8.181   7.734  0.8153  0.8721 -1.2582
10461WAT     H243650  -3.288   8.035   7.764 -1.0251  0.6271 -0.5481
10461WAT    EPW43651  -3.263   8.118   7.760 -0.1988  0.3939 -0.2069
10462WAT      O43652  -1.548   5.690   2.112  0.5050 -0.0724  0.1699
10462WAT     H143653  -1.501   5.713   2.032 -2.0195  1.7646 -0.9565
10462WAT     H243654  -1.612   5.625   2.084  0.3373 -0.2565  0.9571
10462WAT    EPW43655  -1.551   5.685   2.098  0.1500  0.1457  0.1252
10463WAT      O43656  -0.630   3.575   1.072 -0.5569  0.3842 -0.0322
10463WAT     H143657  -0.594   3.577   0.983  2.1975  1.0773  1.0006
10463WAT     H243658  -0.568   3.522   1.121 -0.9897  1.6061  1.9085
10463WAT    EPW43659  -0.617   3.568   1.066 -0.2507  0.6368  0.3600
10464WAT      O43660   9.083   1.183   2.335 -0.2781  0.8991 -0.7812
10464WAT     H143661   9.033   1.172   2.254 -1.3047 -2.0843  0.1174
10464WAT     H243662   9.162   1.131   2.321 -0.8034 -0.2514  0.3328
10464WAT    EPW43663   9.087   1.175   2.323 -0.4830  0.3539 -0.5157
10465WAT      O43664  -1.246   2.722   8.135  0.6169  0.6285 -0.9541
10465WAT     H143665  -1.167   2.731   8.189  0.3075 -3.0384  0.4002
10465WAT     H243666  -1.318   2.728   8.198  0.0869 -0.6185 -1.4282
10465WAT    EPW43667  -1.245   2.724   8.151  0.5062 -0.0197 -0.8378
10466WAT      O43668  -2.544   8.095   7.276  0.1108  0.8029  0.1311
10466WAT     H143669  -2.564   8.180   7.315 -3.5594 -0.2452  0.9413
10466WAT     H243670  -2.567   8.032   7.344  2.2837 -0.9204 -0.6157
10466WAT    EPW43671  -2.550   8.098   7.290 -0.0868  0.4373  0.1395
10467WAT      O43672   1.669  10.372   4.995  0.3050 -0.1472 -0.3067
10467WAT     H143673   1.742  10.393   4.936  1.9216  1.2380  2.0425
10467WAT     H243674   1.709  10.318   5.063 -0.7180  1.1290  1.3498
10467WAT    EPW43675   1.684  10.368   4.996  0.3833  0.2036  0.2217
10468WAT      O43676   3.706   6.060   2.104 -0.0561 -0.3853 -0.0252
10468WAT     H143677   3.631   6.007   2.078 -1.3297 -0.0913  2.6472
10468WAT     H243678   3.697   6.069   2.199  2.6594  0.7861  0.2208
10468WAT    EPW43679   3.695   6.054   2.113  0.1340 -0.1919  0.3598
10469WAT      O43680  -0.769   1.511   6.503 -0.0978  0.0737 -0.2097
10469WAT     H143681  -0.758   1.420   6.531 -0.9592  0.4982  1.6403
10469WAT     H243682  -0.777   1.560   6.584  3.0421  2.2218 -1.0193
10469WAT    EPW43683  -0.769   1.505   6.517  0.2027  0.4130 -0.0725
10470WAT      O43684  -1.348   2.162   7.075  0.1776  0.1101 -0.4502
10470WAT     H143685  -1.265   2.204   7.055 -0.2599  0.3748 -1.8605
10470WAT     H243686  -1.368   2.110   6.996 -0.5982 -0.5814  0.1806
10470WAT    EPW43687  -1.340   2.160   7.062  0.0176  0.0538 -0.5531
10471WAT      O43688  -1.349   0.930   6.629 -0.4888 -0.3210 -0.3054
10471WAT     H143689  -1.279   0.995   6.638  0.7471 -1.3525 -1.9478
10471WAT     H243690  -1.354   0.888   6.715 -0.1442  0.7753  0.2674
10471WAT    EPW43691  -1.340   0.933   6.641 -0.2804 -0.3125 -0.4466
10472WAT      O43692  -1.778   9.584   3.766  0.4076 -0.0648  0.8871
10472WAT     H143693  -1.740   9.610   3.682  1.9032  0.6771  1.7548
10472WAT     H243694  -1.772   9.489   3.766  2.0345  0.0095  0.8616
10472WAT    EPW43695  -1.772   9.575   3.755  0.8194  0.0429  0.9983
10473WAT      O43696   4.620   0.351   4.033  0.0595 -0.0174  0.2363
10473WAT     H143697   4.710   0.318   4.036 -0.3936 -1.2712  0.5671
10473WAT     H243698   4.597   0.350   3.940 -0.6119 -2.6381  0.3399
10473WAT    EPW43699   4.629   0.346   4.021 -0.0887 -0.5284  0.2937
10474WAT      O43700   6.499   0.927   4.850  0.6900 -0.7859 -0.0279
10474WAT     H143701   6.463   1.014   4.832 -0.1827 -1.4149 -1.4615
10474WAT     H243702   6.562   0.912   4.780 -0.2455 -1.8884 -0.6653
10474WAT    EPW43703   6.503   0.937   4.839  0.4513 -1.0142 -0.3009
10475WAT      O43704  -2.474   7.650   6.156  0.9881 -0.3580 -0.2167
10475WAT     H143705  -2.503   7.738   6.132  1.5010 -0.4271 -1.1131
10475WAT     H243706  -2.538   7.591   6.116  0.7394 -0.4043  0.2420
10475WAT    EPW43707  -2.486   7.654   6.148  1.0229 -0.3734 -0.2744
10476WAT      O43708   3.333   7.393   5.138  0.1389 -0.1506 -0.1150
10476WAT     H143709   3.398   7.380   5.068 -0.1595 -0.4255 -0.3432
10476WAT     H243710   3.384   7.426   5.212  0.5446 -0.3916 -0.2844
10476WAT    EPW43711   3.349   7.396   5.138  0.1531 -0.2186 -0.1674
10477WAT      O43712   4.777   9.677   4.502  0.2994 -0.7572 -0.6560
10477WAT     H143713   4.813   9.701   4.587 -0.5993 -2.4119  0.2418
10477WAT     H243714   4.683   9.683   4.513  0.1741 -0.5322 -1.7002
10477WAT    EPW43715   4.770   9.681   4.515  0.1643 -0.9456 -0.6752
10478WAT      O43716   1.637   2.290   0.579 -0.1391  0.3118 -0.1766
10478WAT     H143717   1.732   2.273   0.576 -0.5009 -1.8086 -3.1131
10478WAT     H243718   1.602   2.218   0.631 -0.3557 -0.4610 -1.3582
10478WAT    EPW43719   1.645   2.279   0.586 -0.2154 -0.0699 -0.7197
10479WAT      O43720  -0.307   6.421   4.574  0.4607 -0.0561  0.2500
10479WAT     H143721  -0.387   6.467   4.549  1.0182  0.0977 -1.3755
10479WAT     H243722  -0.258   6.484   4.626  0.0335  0.2474  0.2906
10479WAT    EPW43723  -0.311   6.435   4.578  0.4779  0.0041  0.0412
10480WAT      O43724   0.697   1.027   1.950  0.6267  0.1982  0.8034
10480WAT     H143725   0.627   0.988   1.898  0.5545  1.0362  0.2439
10480WAT     H243726   0.654   1.055   2.031  0.2586  0.8831  0.3819
10480WAT    EPW43727   0.682   1.026   1.954  0.5687  0.3991  0.6740
10481WAT      O43728   0.338   5.535   5.038 -0.8914  0.3587 -0.4554
10481WAT     H143729   0.383   5.452   5.020 -0.8749 -0.1161  1.5919
10481WAT     H243730   0.264   5.511   5.093 -2.3361  1.4363 -1.8412
10481WAT    EPW43731   0.335   5.521   5.043 -1.0798  0.4382 -0.3684
10482WAT      O43732  -3.698   8.127   4.817  0.2520 -0.1213  0.2787
10482WAT     H143733  -3.749   8.205   4.835 -0.3077 -0.5917  0.7936
10482WAT     H243734  -3.742   8.087   4.742  0.5303  0.0567  0.0228
10482WAT    EPW43735  -3.711   8.132   4.810  0.2149 -0.1597  0.3130
10483WAT      O43736  -1.778   1.627   7.640 -0.1541 -0.4876  0.6081
10483WAT     H143737  -1.702   1.593   7.594  0.7024  0.3472  1.3679
10483WAT     H243738  -1.804   1.705   7.590 -0.3758 -0.6452  0.4760
10483WAT    EPW43739  -1.772   1.633   7.627 -0.0704 -0.3983  0.6907
10484WAT      O43740   9.337   2.484   0.122  0.3615 -0.3101  0.3102
10484WAT     H143741   9.313   2.486   0.214  1.6265  1.1788  0.6471
10484WAT     H243742   9.386   2.402   0.112  2.4982  0.7209  1.6240
10484WAT    EPW43743   9.341   2.473   0.133  0.8101  0.0223  0.5279
10485WAT      O43744  -2.261   0.314   6.504  0.3240 -0.5232 -0.7473
10485WAT     H143745  -2.352   0.288   6.488 -0.3674  1.6765 -0.7063
10485WAT     H243746  -2.227   0.333   6.417 -0.1297  1.2236 -0.5781
10485WAT    EPW43747  -2.269   0.313   6.490  0.1730 -0.0027 -0.7195
10486WAT      O43748  -1.597   6.106   7.828 -0.2887  0.0792 -0.2876
10486WAT     H143749  -1.604   6.026   7.880  0.1756 -0.4820 -1.0647
10486WAT     H243750  -1.677   6.108   7.776  0.7693 -1.2292 -2.0906
10486WAT    EPW43751  -1.609   6.095   7.828 -0.0879 -0.1676 -0.6280
10487WAT      O43752   5.156   2.136   3.647 -0.0368  0.0295  0.0077
10487WAT     H143753   5.162   2.100   3.735  1.4603 -1.2260 -0.5732
10487WAT     H243754   5.247   2.148   3.620 -0.4595  2.3051 -0.6404
10487WAT    EPW43755   5.169   2.133   3.655  0.1049  0.1640 -0.1544
10488WAT      O43756  -2.675   7.686   7.145 -0.1526  0.5075 -0.6111
10488WAT     H143757  -2.726   7.670   7.224 -0.8294  0.6277 -1.0098
10488WAT     H243758  -2.659   7.598   7.110 -1.2642  0.5180 -1.1960
10488WAT    EPW43759  -2.680   7.672   7.151 -0.3885  0.5248 -0.7408
10489WAT      O43760  -2.236   3.992   2.552 -0.1756  1.0250 -0.0114
10489WAT     H143761  -2.272   4.024   2.635 -0.0558  0.2068  0.3601
10489WAT     H243762  -2.141   4.005   2.561 -0.2013  1.3566 -0.2045
10489WAT    EPW43763  -2.228   3.998   2.564 -0.1632  0.9609  0.0122
10490WAT      O43764  -4.647   8.841   7.795 -0.3105 -0.3398  0.3125
10490WAT     H143765  -4.578   8.814   7.734  1.2650  0.8940  1.4516
10490WAT     H243766  -4.708   8.891   7.741  0.1532 -0.7096 -0.5760
10490WAT    EPW43767  -4.646   8.844   7.780 -0.0415 -0.2255  0.3457
10491WAT      O43768   0.176   7.742   1.914  0.2861  0.8421 -0.3520
10491WAT     H143769   0.147   7.801   1.844 -1.6638  0.9692  0.5009
10491WAT     H243770   0.140   7.657   1.890  0.0316  0.7819  0.2267
10491WAT    EPW43771   0.168   7.739   1.902 -0.0046  0.8509 -0.1632
10492WAT      O43772  -6.757   5.073   8.479 -0.4949 -0.0101  0.2303
10492WAT     H143773  -6.772   5.168   8.482  0.1986  0.1467 -0.7230
10492WAT     H243774  -6.701   5.055   8.555 -1.7224  0.1154  1.1861
10492WAT    EPW43775  -6.751   5.083   8.490 -0.5653  0.0269  0.2308
10493WAT      O43776   4.250   4.790   3.474  0.0192  0.1780  0.2767
10493WAT     H143777   4.270   4.779   3.381  0.1620 -0.2861  0.3562
10493WAT     H243778   4.170   4.843   3.476  0.0656  0.2610 -0.1096
10493WAT    EPW43779   4.242   4.795   3.462  0.0443  0.1276  0.2362
10494WAT      O43780   3.511   7.298   1.116  1.2108 -0.7587  0.7070
10494WAT     H143781   3.450   7.301   1.191  0.2388 -2.8709  0.0668
10494WAT     H243782   3.454   7.285   1.040  2.3944 -1.4834 -0.0694
10494WAT    EPW43783   3.495   7.297   1.116  1.2388 -1.1330  0.5201
10495WAT      O43784   2.391   7.003   5.278  0.5983 -0.8696 -0.1436
10495WAT     H143785   2.366   7.084   5.322 -0.2037  0.5918 -3.0185
10495WAT     H243786   2.485   7.010   5.266  1.2428 -2.2851  2.9506
10495WAT    EPW43787   2.400   7.015   5.282  0.5776 -0.8636 -0.1149
10496WAT      O43788  -2.746   9.273   4.368 -0.4164 -0.0984  0.2096
10496WAT     H143789  -2.715   9.254   4.456 -1.0874 -1.9566  0.0955
10496WAT     H243790  -2.834   9.309   4.380 -0.4007 -0.0934  0.3053
10496WAT    EPW43791  -2.754   9.275   4.381 -0.5028 -0.3428  0.2074
10497WAT      O43792  -3.518   7.431   2.760  0.1305  0.0904  0.3035
10497WAT     H143793  -3.565   7.377   2.823  0.4532 -2.0536 -1.1632
10497WAT     H243794  -3.586   7.468   2.704 -0.0126 -0.3370  0.1896
10497WAT    EPW43795  -3.533   7.429   2.761  0.1543 -0.2487  0.0950
10498WAT      O43796   4.144   5.334   5.884 -0.5940 -0.0373  0.4037
10498WAT     H143797   4.139   5.426   5.858  0.0503  0.2360  1.2041
10498WAT     H243798   4.175   5.337   5.975 -1.6294 -1.0012  0.8151
10498WAT    EPW43799   4.147   5.347   5.893 -0.6456 -0.1283  0.5636
10499WAT      O43800   4.453   6.654   5.617 -0.0364 -0.1228 -0.1483
10499WAT     H143801   4.475   6.595   5.690  0.8090  1.3704  0.8629
10499WAT     H243802   4.401   6.600   5.558  2.2369 -2.4372 -0.2089
10499WAT    EPW43803   4.449   6.639   5.619  0.3753 -0.2313 -0.0226
10500WAT      O43804   2.473   9.348   7.397 -0.3516 -0.0233 -0.5593
10500WAT     H143805   2.498   9.410   7.466  0.7425 -1.6188  0.5578
10500WAT     H243806   2.380   9.333   7.412  0.4019 -2.7137  2.7708
10500WAT    EPW43807   2.464   9.354   7.408 -0.1080 -0.5884  0.0272
10501WAT      O43808   2.582   2.622   2.097 -0.0627 -0.3900 -0.3984
10501WAT     H143809   2.677   2.624   2.087 -0.0380 -1.2197 -0.4071
10501WAT     H243810   2.553   2.552   2.039 -0.6122 -0.5902  0.1038
10501WAT    EPW43811   2.591   2.613   2.088 -0.1320 -0.5258 -0.3333
10502WAT      O43812   2.257   4.716   4.444 -0.1854 -0.3085 -0.4474
10502WAT     H143813   2.206   4.697   4.523  0.0097  1.4971  0.1548
10502WAT     H243814   2.254   4.811   4.436  1.9692 -0.2514 -1.1588
10502WAT    EPW43815   2.250   4.726   4.453  0.1246 -0.0627 -0.4618
10503WAT      O43816  -6.307   8.065   6.339  0.4973  0.4957  0.1255
10503WAT     H143817  -6.247   7.992   6.352  0.3689  0.4268  0.3173
10503WAT     H243818  -6.347   8.048   6.254  0.0528  0.0537  0.4220
10503WAT    EPW43819  -6.304   8.053   6.329  0.4218  0.4277  0.1898
10504WAT      O43820  -7.091   8.176   7.645  0.0016 -0.0421 -0.2022
10504WAT     H143821  -7.083   8.180   7.741 -0.6922 -2.2731  0.0046
10504WAT     H243822  -7.016   8.226   7.613  0.2592  0.7295  1.5041
10504WAT    EPW43823  -7.080   8.183   7.654 -0.0558 -0.2346  0.0501
10505WAT      O43824   6.333   7.137   1.238 -0.2046 -0.2261  0.5843
10505WAT     H143825   6.362   7.075   1.305  1.2258  1.1195  1.2598
10505WAT     H243826   6.364   7.100   1.155  1.3274 -0.0578  1.0602
10505WAT    EPW43827   6.341   7.124   1.236  0.1862 -0.0262  0.7361
10506WAT      O43828   2.317   0.502   0.535 -0.1585 -0.3263  0.1801
10506WAT     H143829   2.384   0.438   0.512 -1.3891 -1.0271 -1.6337
10506WAT     H243830   2.367   0.580   0.559  1.3218 -1.1009 -0.2157
10506WAT    EPW43831   2.333   0.504   0.536 -0.1256 -0.5209 -0.1113
10507WAT      O43832   0.118   3.486   4.735  0.2193  0.0939  0.5208
10507WAT     H143833   0.102   3.562   4.680 -0.9950  0.4436  1.3132
10507WAT     H243834   0.153   3.420   4.675  3.1342  1.8139  0.1226
10507WAT    EPW43835   0.121   3.487   4.720  0.4436  0.3669  0.5729
10508WAT      O43836  -3.846   0.023   7.840 -0.4941 -0.2046  0.2022
10508WAT     H143837  -3.861  -0.026   7.920 -0.8559 -0.9954 -0.3390
10508WAT     H243838  -3.787   0.094   7.866 -1.0055 -0.1554  1.2596
10508WAT    EPW43839  -3.840   0.026   7.854 -0.6093 -0.3024  0.2701
10509WAT      O43840  -5.417   8.541   5.881  0.2010 -0.3335  1.0320
10509WAT     H143841  -5.361   8.618   5.867 -3.5433  2.2310 -1.9100
10509WAT     H243842  -5.377   8.473   5.828 -0.5600  2.1971 -3.2415
10509WAT    EPW43843  -5.404   8.542   5.872 -0.3932  0.3386  0.0801
10510WAT      O43844   5.070   7.606   1.832  0.1392  0.1293  0.6700
10510WAT     H143845   5.088   7.696   1.804  0.3825 -0.1442 -0.0707
10510WAT     H243846   5.123   7.594   1.911  1.5361  0.0549 -0.2424
10510WAT    EPW43847   5.079   7.616   1.838  0.3555  0.0832  0.4519
10511WAT      O43848   4.494  10.325   0.421 -0.9230  0.0145 -0.3413
10511WAT     H143849   4.518  10.379   0.346 -1.3445  1.8426  0.7795
10511WAT     H243850   4.398  10.325   0.421 -0.9313  0.2853  0.3495
10511WAT    EPW43851   4.484  10.332   0.411 -0.9797  0.2909 -0.1024
10512WAT      O43852  -3.758   3.282   8.865 -0.4683  0.0523 -0.4766
10512WAT     H143853  -3.669   3.255   8.842 -1.0589 -1.7425 -0.7876
10512WAT     H243854  -3.807   3.201   8.873 -2.1132  1.0023 -0.3579
10512WAT    EPW43855  -3.752   3.268   8.863 -0.7631 -0.0591 -0.5021
10513WAT      O43856  -1.421   9.991   6.535  0.0871 -0.8876  1.4591
10513WAT     H143857  -1.476   9.952   6.467 -0.4486 -0.5864  1.7171
10513WAT     H243858  -1.332   9.968   6.508 -0.1283 -0.9775  0.7851
10513WAT    EPW43859  -1.417   9.983   6.522 -0.0119 -0.8597  1.4043
10514WAT      O43860   4.151   8.981   5.456  0.6655 -0.4518 -0.3167
10514WAT     H143861   4.065   9.019   5.439  0.4010 -1.5056 -1.3954
10514WAT     H243862   4.134   8.904   5.511  1.0798  0.1658  0.7235
10514WAT    EPW43863   4.138   8.976   5.461  0.6852 -0.5093 -0.3219
10515WAT      O43864   5.300   1.678   3.423  0.0476  0.0078  0.5162
10515WAT     H143865   5.379   1.663   3.371  0.5185 -0.9367  1.4823
10515WAT     H243866   5.232   1.627   3.379  0.4617 -0.8520  0.8503
10515WAT    EPW43867   5.301   1.670   3.410  0.1643 -0.2301  0.6877
10516WAT      O43868   3.442   1.144   4.145 -0.0943 -0.4682 -0.4899
10516WAT     H143869   3.507   1.213   4.161  1.1323 -2.0115  1.7192
10516WAT     H243870   3.373   1.161   4.209  0.2541 -1.2935  0.1262
10516WAT    EPW43871   3.441   1.155   4.155  0.1135 -0.7806 -0.1171
10517WAT      O43872   0.283   9.554   8.236 -0.0366 -0.3918 -1.2810
10517WAT     H143873   0.316   9.524   8.152  0.8565 -2.6820 -0.2053
10517WAT     H243874   0.195   9.518   8.242 -0.5593  0.7542 -1.6718
10517WAT    EPW43875   0.276   9.545   8.226  0.0122 -0.5431 -1.1902
10518WAT      O43876  -1.033   1.901   5.868 -0.1004 -0.4784 -0.7886
10518WAT     H143877  -0.981   1.838   5.818  1.0964  0.8648 -1.3054
10518WAT     H243878  -0.971   1.969   5.893 -1.3689  0.5501 -0.3134
10518WAT    EPW43879  -1.018   1.902   5.865 -0.1097 -0.1656 -0.7939
10519WAT      O43880   5.998   1.642   0.705 -0.3197  0.3969 -0.6103
10519WAT     H143881   6.077   1.589   0.693 -1.1477 -0.5529 -2.1482
10519WAT     H243882   6.024   1.730   0.675  1.3543  1.2500  2.8700
10519WAT    EPW43883   6.012   1.647   0.699 -0.2081  0.3842 -0.3541
10520WAT      O43884   0.460   0.231   0.911  0.1489  0.2727  0.7291
10520WAT     H143885   0.429   0.313   0.951  0.4831  0.9283 -0.3187
10520WAT     H243886   0.500   0.258   0.829 -2.1649 -1.1626 -1.0244
10520WAT    EPW43887   0.461   0.246   0.905 -0.1122  0.1699  0.3597
10521WAT      O43888  -3.824   4.801   7.716 -0.9545  0.3026 -0.4409
10521WAT     H143889  -3.763   4.838   7.652 -2.0804  0.1489 -1.6467
10521WAT     H243890  -3.859   4.878   7.762 -0.7738  0.4784 -0.5936
10521WAT    EPW43891  -3.820   4.816   7.714 -1.0792  0.3054 -0.6204
10522WAT      O43892  -3.540   1.424   8.572  0.5928 -0.4137 -0.1314
10522WAT     H143893  -3.554   1.459   8.660 -0.1679  1.2708 -0.8790
10522WAT     H243894  -3.474   1.356   8.584  1.0438  0.2661  1.6400
10522WAT    EPW43895  -3.533   1.420   8.585  0.5521 -0.1019  0.0033
10523WAT      O43896   0.677   4.918   6.414  0.1295  0.2833 -0.0616
10523WAT     H143897   0.649   4.953   6.329  0.0658  0.7052  0.1304
10523WAT     H243898   0.713   4.994   6.460 -3.3437  0.9586  1.8204
10523WAT    EPW43899   0.678   4.933   6.409 -0.3370  0.4280  0.2120
10524WAT      O43900  -3.805   4.695   5.628 -0.5225 -0.7598 -0.0782
10524WAT     H143901  -3.818   4.788   5.612 -0.7383 -1.0945 -2.0417
10524WAT     H243902  -3.759   4.691   5.712 -0.3947  1.1020 -0.0300
10524WAT    EPW43903  -3.801   4.707   5.637 -0.5341 -0.5584 -0.3309
10525WAT      O43904   5.335   5.143   5.247  0.1342  0.6758 -0.5974
10525WAT     H143905   5.428   5.117   5.251 -0.5736 -3.4336 -3.5707
10525WAT     H243906   5.290   5.078   5.301 -1.1766  1.9061 -0.1499
10525WAT    EPW43907   5.342   5.131   5.255 -0.1321  0.2961 -0.9308
10526WAT      O43908  -2.854  10.276   0.472  0.3910 -0.4367 -0.0883
10526WAT     H143909  -2.840  10.228   0.554  1.8265 -0.7260 -0.4866
10526WAT     H243910  -2.790  10.347   0.474 -2.6754  2.5698  1.2124
10526WAT    EPW43911  -2.844  10.279   0.483  0.1760 -0.0782  0.0307
10527WAT      O43912  -1.085   3.336   1.410 -0.1589  0.4538  0.1103
10527WAT     H143913  -1.153   3.284   1.451  0.8006  0.3370  1.6410
10527WAT     H243914  -1.023   3.272   1.374 -0.0776  0.5433  0.0877
10527WAT    EPW43915  -1.086   3.321   1.410 -0.0216  0.4503  0.3092
10528WAT      O43916   0.368   2.008   3.904  0.1007 -0.2072  0.3613
10528WAT     H143917   0.399   1.950   3.833  0.6184 -1.1262  1.3053
10528WAT     H243918   0.284   2.042   3.872  1.0186  0.6204 -1.3430
10528WAT    EPW43919   0.361   2.005   3.890  0.2901 -0.2192  0.2609
10529WAT      O43920  -3.515   5.100   3.500  0.1675 -0.3600  0.2210
10529WAT     H143921  -3.502   5.029   3.437  0.7005 -1.0133  1.0425
10529WAT     H243922  -3.450   5.084   3.568 -0.6832  0.0723  1.1619
10529WAT    EPW43923  -3.505   5.089   3.501  0.1255 -0.3891  0.4535
10530WAT      O43924   4.095   2.583   1.103 -0.5200  0.7129 -0.1722
10530WAT     H143925   4.152   2.513   1.134 -1.3757  0.1240  0.1101
10530WAT     H243926   4.145   2.663   1.117  0.9062  0.0966 -1.4633
10530WAT    EPW43927   4.109   2.584   1.109 -0.4451  0.5540 -0.3053
10531WAT      O43928   4.171   3.426   7.758  0.6190 -0.0508 -0.0464
10531WAT     H143929   4.155   3.348   7.704  2.4570  1.0163 -2.2955
10531WAT     H243930   4.248   3.403   7.810  0.8608  0.0421 -0.3526
10531WAT    EPW43931   4.179   3.412   7.757  0.8931  0.1023 -0.3836
10532WAT      O43932  -1.734   0.820   6.586 -0.3677  0.6185 -0.8317
10532WAT     H143933  -1.821   0.856   6.569 -0.2264  0.9169 -0.9314
10532WAT     H243934  -1.677   0.897   6.592  0.0275  0.3984 -1.5650
10532WAT    EPW43935  -1.738   0.835   6.584 -0.2970  0.6288 -0.9415
10533WAT      O43936   3.425   4.384   3.882 -0.9640 -0.1669  0.1724
10533WAT     H143937   3.463   4.324   3.947  2.4371 -0.1654 -1.6231
10533WAT     H243938   3.403   4.328   3.808  0.5885  0.5274 -0.8414
10533WAT    EPW43939   3.427   4.368   3.881 -0.3105 -0.0751 -0.1981
10534WAT      O43940   1.475   8.108   0.350  0.5807  0.3443 -0.3029
10534WAT     H143941   1.490   8.075   0.261 -2.4695 -0.1146 -0.7828
10534WAT     H243942   1.419   8.185   0.337  1.4168  1.2511  1.1900
10534WAT    EPW43943   1.469   8.114   0.336  0.2887  0.4034 -0.1693
10535WAT      O43944  -2.804   7.716   8.853 -0.5172 -0.5512  0.1545
10535WAT     H143945  -2.868   7.771   8.898  1.1466  1.0829  0.6824
10535WAT     H243946  -2.741   7.692   8.921 -1.4980 -3.7125  0.0647
10535WAT    EPW43947  -2.804   7.720   8.868 -0.4271 -0.7527  0.2127
10536WAT      O43948   2.840   2.465   0.497 -0.5235 -0.3225 -0.1352
10536WAT     H143949   2.816   2.505   0.581  0.0732 -1.0865  0.4268
10536WAT     H243950   2.757   2.446   0.455 -0.8960  3.1352 -1.3000
10536WAT    EPW43951   2.826   2.468   0.503 -0.4939  0.0327 -0.2147
10537WAT      O43952   5.251   1.449   0.584 -0.8505  0.2672 -0.9095
10537WAT     H143953   5.185   1.422   0.647 -0.3690  0.6385 -0.2337
10537WAT     H243954   5.221   1.413   0.500 -2.1676  0.8619 -0.7142
10537WAT    EPW43955   5.239   1.441   0.581 -0.9608  0.3946 -0.7946
10538WAT      O43956   3.203   0.783   7.167  0.0309 -0.5947 -0.3032
10538WAT     H143957   3.272   0.834   7.211 -0.4875 -0.6151  0.5646
10538WAT     H243958   3.236   0.693   7.168 -0.9287 -1.0154  2.1757
10538WAT    EPW43959   3.217   0.778   7.173 -0.1640 -0.6528  0.1380
10539WAT      O43960  -1.261   9.266   2.044  0.3626  0.6626  0.0649
10539WAT     H143961  -1.304   9.344   2.079  3.0920  1.2463  2.5624
10539WAT     H243962  -1.207   9.299   1.972  1.3678  1.1376  0.9971
10539WAT    EPW43963  -1.259   9.281   2.039  0.8552  0.8025  0.5172
10540WAT      O43964   3.178   2.033   2.851  0.4724  0.0159  0.4875
10540WAT     H143965   3.210   2.122   2.861 -1.2601  0.7510 -0.1159
10540WAT     H243966   3.163   2.002   2.940 -0.0621  0.7976  0.6837
10540WAT    EPW43967   3.180   2.041   2.864  0.1734  0.2159  0.4338
10541WAT      O43968   1.559   9.331   1.260  0.6225  0.5044  0.2720
10541WAT     H143969   1.469   9.356   1.280  0.2147 -1.1979  0.6724
10541WAT     H243970   1.568   9.349   1.166 -0.9572 -1.5729 -0.3533
10541WAT    EPW43971   1.548   9.337   1.250  0.3603  0.0062  0.2424
10542WAT      O43972   4.059   6.960   3.167  0.7274  0.5722  0.2711
10542WAT     H143973   3.975   6.961   3.213  0.9771 -2.2344  1.0283
10542WAT     H243974   4.076   7.051   3.144 -0.7789  1.7268  3.2758
10542WAT    EPW43975   4.050   6.972   3.170  0.5617  0.3545  0.7672
10543WAT      O43976   3.525   1.804   4.267 -0.5140 -0.0528  0.3903
10543WAT     H143977   3.470   1.763   4.200  0.8865 -0.0569 -0.8204
10543WAT     H243978   3.471   1.875   4.302 -1.2970 -0.0618 -0.7316
10543WAT    EPW43979   3.511   1.808   4.262 -0.4325 -0.0545  0.0827
10544WAT      O43980  -2.536   1.919   3.060 -0.1302 -0.1822  0.6997
10544WAT     H143981  -2.481   1.933   2.983 -3.4859 -2.1592 -2.4069
10544WAT     H243982  -2.494   1.848   3.108  0.3037 -1.4233 -1.3935
10544WAT    EPW43983  -2.523   1.911   3.056 -0.5156 -0.6067  0.0139
10545WAT      O43984   5.082   2.198   6.056  0.6389 -0.7182  0.2102
10545WAT     H143985   5.097   2.129   6.121  1.3144 -1.3206 -0.5623
10545WAT     H243986   5.170   2.230   6.035  0.3873 -0.1713 -0.0400
10545WAT    EPW43987   5.096   2.193   6.062  0.6948 -0.7255  0.0751
10546WAT      O43988  -2.946   6.462   1.855  0.2016 -0.3061 -0.1224
10546WAT     H143989  -2.990   6.496   1.932 -1.0055  1.4282 -1.5067
10546WAT     H243990  -2.853   6.479   1.870 -0.0638  0.3859  0.7544
10546WAT    EPW43991  -2.939   6.469   1.867  0.0074  0.0138 -0.1892
10547WAT      O43992   2.492   7.593   1.142 -0.0141 -0.1638  0.4896
10547WAT     H143993   2.584   7.576   1.160 -0.0250  0.6221  1.3966
10547WAT     H243994   2.479   7.684   1.171 -1.1908 -0.4306  0.8321
10547WAT    EPW43995   2.502   7.603   1.148 -0.1707 -0.0954  0.6543
10548WAT      O43996   4.306   4.477   7.318 -0.1129  0.1309 -0.3281
10548WAT     H143997   4.229   4.422   7.305  0.0602 -0.1661 -0.1239
10548WAT     H243998   4.275   4.566   7.302 -1.1762  0.3477  2.3432
10548WAT    EPW43999   4.292   4.482   7.314 -0.2303  0.1204  0.0513
10549WAT      O44000   2.119   1.571   4.988  0.0452  0.9248  0.3105
10549WAT     H144001   2.105   1.569   5.083 -2.6341  1.4642  0.0011
10549WAT     H244002   2.048   1.519   4.952  0.8175  1.0179 -1.4374
10549WAT    EPW44003   2.108   1.564   4.996 -0.2064  1.0082  0.0391
10550WAT      O44004   0.452   4.179   3.539  0.2015 -0.3418  0.6576
10550WAT     H144005   0.416   4.114   3.599  0.0615 -1.3315 -0.4590
10550WAT     H244006   0.461   4.133   3.455  0.2845  1.0238 -0.1266
10550WAT    EPW44007   0.449   4.165   3.536  0.1940 -0.2923  0.4069
10551WAT      O44008  -5.843   4.816   7.770 -0.4986  0.6522 -0.1277
10551WAT     H144009  -5.932   4.786   7.790  0.1621 -0.5665  1.1547
10551WAT     H244010  -5.799   4.820   7.855  0.8922  0.4842 -0.8085
10551WAT    EPW44011  -5.849   4.812   7.784 -0.2279  0.4692 -0.0484
10552WAT      O44012  -2.776   9.634   0.692 -0.2066 -0.1382  0.4263
10552WAT     H144013  -2.721   9.698   0.648 -0.1955 -0.5468 -0.1604
10552WAT     H244014  -2.851   9.622   0.634 -1.0676  0.6017  1.3258
10552WAT    EPW44015  -2.779   9.641   0.679 -0.3186 -0.0944  0.4676
10553WAT      O44016  -3.197   2.707   7.323 -0.3086 -0.3655  0.3114
10553WAT     H144017  -3.130   2.732   7.259 -1.0933 -0.0525 -0.4031
10553WAT     H244018  -3.238   2.790   7.348 -2.5919 -0.7919 -1.6894
10553WAT    EPW44019  -3.193   2.721   7.318 -0.7132 -0.3804 -0.0467
10554WAT      O44020   8.387   0.062   2.462  0.4593 -0.1411  0.0358
10554WAT     H144021   8.389   0.157   2.478  0.5238 -0.2807  0.8716
10554WAT     H244022   8.462   0.028   2.512  0.8972 -0.5475 -0.8759
10554WAT    EPW44023   8.397   0.070   2.471  0.5260 -0.2131  0.0257
10555WAT      O44024   5.756   3.153   6.212  0.0311  0.1819  0.3391
10555WAT     H144025   5.679   3.101   6.232  0.9036 -1.4557 -0.3132
10555WAT     H244026   5.824   3.088   6.193  1.3805  1.5707  0.2096
10555WAT    EPW44027   5.755   3.137   6.212  0.3240  0.1491  0.2358
10556WAT      O44028  -0.181   6.528   8.675 -0.0837  0.1214 -0.0451
10556WAT     H144029  -0.134   6.544   8.757 -0.2350  0.1879  0.0298
10556WAT     H244030  -0.246   6.598   8.671  0.9306  1.0328 -0.9918
10556WAT    EPW44031  -0.183   6.539   8.685  0.0301  0.2503 -0.1602
10557WAT      O44032  -2.972   4.392   4.007  0.1826 -0.1666 -0.0936
10557WAT     H144033  -2.899   4.419   3.950 -0.5852 -0.3779 -1.1997
10557WAT     H244034  -3.047   4.387   3.948 -1.0077  1.1978  1.2418
10557WAT    EPW44035  -2.972   4.395   3.992 -0.0758 -0.0145 -0.0634
10558WAT      O44036  -1.585   6.337   8.236 -0.2648  0.2094  0.3816
10558WAT     H144037  -1.648   6.305   8.172 -0.0483 -0.0618  0.3018
10558WAT     H244038  -1.634   6.399   8.289 -0.8771 -0.7591  0.9695
10558WAT    EPW44039  -1.600   6.341   8.235 -0.3170  0.0458  0.4482
10559WAT      O44040  -1.796   3.882   7.213  0.0945  0.5717  0.5726
10559WAT     H144041  -1.737   3.835   7.154  2.6308  1.2140  2.4086
10559WAT     H244042  -1.793   3.973   7.182 -2.7793  0.1063 -1.4099
10559WAT    EPW44043  -1.788   3.888   7.201  0.0499  0.5950  0.5531
10560WAT      O44044   0.426   1.077   2.472  0.3633  0.6510  0.1856
10560WAT     H144045   0.335   1.054   2.491  0.7355  1.3104  3.0955
10560WAT     H244046   0.475   0.995   2.486  0.4372  0.7226  0.3456
10560WAT    EPW44047   0.421   1.063   2.476  0.4222  0.7474  0.5904
10561WAT      O44048   1.744   1.713   5.878 -0.1353 -0.6808  0.5984
10561WAT     H144049   1.688   1.758   5.815 -0.4267  0.4669  1.6491
10561WAT     H244050   1.713   1.741   5.964  2.3973  0.5133  1.2420
10561WAT    EPW44051   1.733   1.723   5.881  0.1603 -0.3719  0.8221
10562WAT      O44052  -0.835   8.089   4.919  0.0768 -0.0604  0.5762
10562WAT     H144053  -0.774   8.158   4.895 -1.1797  1.1073  0.6399
10562WAT     H244054  -0.820   8.020   4.854 -0.4903  1.3784 -1.1657
10562WAT    EPW44055  -0.825   8.089   4.907 -0.1637  0.2832  0.3548
10563WAT      O44056   4.270   3.703   7.698  0.6581  0.5854 -0.2086
10563WAT     H144057   4.220   3.640   7.749  2.6207 -0.8594  0.0395
10563WAT     H244058   4.319   3.753   7.764  0.4952  1.1623 -0.5140
10563WAT    EPW44059   4.270   3.701   7.713  0.8955  0.4710 -0.2162
10564WAT      O44060   5.004   2.447   4.305  0.4484  0.5270  0.5357
10564WAT     H144061   5.057   2.429   4.228 -0.9890  1.3809 -0.7150
10564WAT     H244062   4.914   2.427   4.278  0.0761 -0.6858  2.5178
10564WAT    EPW44063   4.999   2.442   4.291  0.2096  0.4797  0.6323
10565WAT      O44064   7.561   1.970   1.533  0.0225 -0.3626  0.3163
10565WAT     H144065   7.513   1.961   1.451  1.9505  0.9910 -1.0705
10565WAT     H244066   7.549   1.887   1.578 -1.7324 -0.8456 -0.9702
10565WAT    EPW44067   7.553   1.958   1.528  0.0453 -0.2478 -0.0362
10566WAT      O44068  -1.798   1.379   8.119 -0.2758 -0.4835 -0.3158
10566WAT     H144069  -1.822   1.378   8.027 -2.8888 -2.0320  0.2733
10566WAT     H244070  -1.881   1.375   8.166  1.0062 -2.3730  2.0737
10566WAT    EPW44071  -1.812   1.378   8.113 -0.4514 -0.9370  0.0772
10567WAT      O44072   3.308   3.938   0.439  0.0388 -0.4785 -0.5837
10567WAT     H144073   3.287   3.971   0.527  0.5234 -1.5601 -0.0434
10567WAT     H244074   3.384   3.882   0.452 -1.1445 -2.3431 -1.3475
10567WAT    EPW44075   3.315   3.935   0.452 -0.0533 -0.8671 -0.6132
10568WAT      O44076   6.071   7.179   2.861  0.1011 -0.1739  0.3706
10568WAT     H144077   6.032   7.093   2.847 -3.8747  0.8482  3.4110
10568WAT     H244078   6.086   7.184   2.956  1.0650  2.2009  0.1711
10568WAT    EPW44079   6.068   7.169   2.872 -0.2964  0.2744  0.7453
10569WAT      O44080   6.959   4.155   0.757 -0.1549  0.5722 -0.0358
10569WAT     H144081   6.942   4.248   0.742  0.8583  0.9584  1.0805
10569WAT     H244082   6.876   4.112   0.737 -0.2069  1.5158 -2.0911
10569WAT    EPW44083   6.946   4.161   0.752 -0.0281  0.7477 -0.1597
10570WAT      O44084   5.937   0.638   6.178 -0.1464  0.0730 -0.4367
10570WAT     H144085   5.967   0.700   6.112  4.1495  1.6710  2.5030
10570WAT     H244086   5.975   0.555   6.152  1.3512  0.6467 -0.1760
10570WAT    EPW44087   5.946   0.636   6.166  0.6177  0.3594 -0.0145
10571WAT      O44088  -2.460   1.801   4.162  0.8845  0.3514 -0.8554
10571WAT     H144089  -2.534   1.854   4.133 -1.0828 -0.3114  2.5223
10571WAT     H244090  -2.423   1.850   4.235  0.8560 -1.4854  0.4443
10571WAT    EPW44091  -2.465   1.815   4.168  0.6213  0.0218 -0.2384
10572WAT      O44092   6.465   2.335   3.598 -0.1364 -0.3599  0.2788
10572WAT     H144093   6.431   2.422   3.578 -1.8014 -1.1294 -0.4573
10572WAT     H244094   6.553   2.350   3.632  0.6694  1.4396 -2.3581
10572WAT    EPW44095   6.472   2.348   3.600 -0.2499 -0.2240 -0.1662
10573WAT      O44096  -4.520   0.147   7.774  0.5545  0.0950  0.0934
10573WAT     H144097  -4.605   0.147   7.729  0.9898 -0.9991 -0.7758
10573WAT     H244098  -4.542   0.156   7.866 -0.4294  1.1290 -0.2139
10573WAT    EPW44099  -4.534   0.148   7.780  0.4823  0.0871 -0.0618
10574WAT      O44100  -5.280   6.570   6.420  0.5085  0.6057  0.3723
10574WAT     H144101  -5.338   6.495   6.438 -1.0841  1.8602  0.7028
10574WAT     H244102  -5.212   6.564   6.487  0.0984 -0.2317  0.7350
10574WAT    EPW44103  -5.279   6.559   6.431  0.2441  0.6607  0.4637
10575WAT      O44104  -6.398   5.221   8.397 -0.4617  0.3148 -0.0288
10575WAT     H144105  -6.479   5.206   8.447  0.8101  0.6291  2.2716
10575WAT     H244106  -6.418   5.187   8.310 -1.7832 -3.3776  1.4953
10575WAT    EPW44107  -6.412   5.215   8.392 -0.4683 -0.1309  0.4759
10576WAT      O44108  -4.834   1.544   8.238 -0.0066 -0.7787  0.0880
10576WAT     H144109  -4.792   1.458   8.244  1.4112 -0.1416 -0.4472
10576WAT     H244110  -4.772   1.598   8.189  0.9503  1.6405  3.5699
10576WAT    EPW44111  -4.820   1.540   8.232  0.3066 -0.3756  0.4764
10577WAT      O44112   2.036   7.409   3.005 -0.8439  0.1408  0.3074
10577WAT     H144113   2.091   7.486   3.018  0.2639  0.1087 -3.1452
10577WAT     H244114   1.950   7.445   2.982 -0.5825  0.3648 -0.3515
10577WAT    EPW44115   2.032   7.424   3.004 -0.6633  0.1662 -0.2348
10578WAT      O44116   4.335   5.356   0.852 -0.1273  0.5093  0.0406
10578WAT     H144117   4.256   5.338   0.802 -0.7359  2.6260  0.1766
10578WAT     H244118   4.349   5.276   0.904 -1.3262 -0.4462 -1.0566
10578WAT    EPW44119   4.327   5.343   0.853 -0.3657  0.6626 -0.0862
10579WAT      O44120   4.714   4.735   2.973  0.0499  0.3001 -0.0832
10579WAT     H144121   4.801   4.736   2.932 -0.1478  2.8651 -0.6456
10579WAT     H244122   4.653   4.728   2.899 -0.2278  0.6793  0.1047
10579WAT    EPW44123   4.718   4.734   2.958 -0.0129  0.6883 -0.1326
10580WAT      O44124   1.307   7.559   4.017  0.6092  0.4820 -0.1861
10580WAT     H144125   1.248   7.519   4.081  0.4827  1.0188  0.0399
10580WAT     H244126   1.254   7.627   3.975  0.9309  0.6637 -0.3025
10580WAT    EPW44127   1.292   7.563   4.020  0.6350  0.5765 -0.1714
10581WAT      O44128   3.668   3.373   6.287 -0.7388  0.0603 -0.9021
10581WAT     H144129   3.742   3.393   6.345 -2.2946 -1.4355  1.7863
10581WAT     H244130   3.686   3.284   6.256 -1.3471 -0.2931 -0.2662
10581WAT    EPW44131   3.680   3.364   6.291 -1.0241 -0.1836 -0.4635
10582WAT      O44132  -0.031   9.102   5.655  0.5691 -0.3578 -0.6037
10582WAT     H144133   0.040   9.059   5.703 -1.8526  0.5087  4.4034
10582WAT     H244134  -0.039   9.188   5.697 -1.8523  0.5378 -2.6740
10582WAT    EPW44135  -0.023   9.108   5.667 -0.0697 -0.1249 -0.2162
10583WAT      O44136   0.926   8.548   1.713 -0.3575 -0.5745 -0.4033
10583WAT     H144137   1.018   8.521   1.714  0.0816  0.8032  1.1733
10583WAT     H244138   0.885   8.494   1.780 -0.8927 -1.6514 -1.5488
10583WAT    EPW44139   0.933   8.537   1.722 -0.3702 -0.5350 -0.3464
10584WAT      O44140   2.013   1.940   1.611 -0.0182 -0.1090 -0.4449
10584WAT     H144141   2.073   1.936   1.685 -0.9189  0.0560  0.3006
10584WAT     H244142   1.926   1.928   1.648 -0.3533 -2.2207 -1.7326
10584WAT    EPW44143   2.009   1.938   1.625 -0.1813 -0.3657 -0.5164
10585WAT      O44144  -5.359   4.585   7.319 -0.3196  0.7341 -0.2663
10585WAT     H144145  -5.315   4.604   7.402  1.4202  2.4672 -1.4992
10585WAT     H244146  -5.442   4.544   7.345  2.2282 -3.6058  2.1773
10585WAT    EPW44147  -5.364   4.582   7.333  0.2458  0.3903 -0.1066
10586WAT      O44148  -6.530   7.995   6.131 -0.0241  0.2092  0.1846
10586WAT     H144149  -6.534   7.906   6.095 -0.2230  0.6976 -1.0284
10586WAT     H244150  -6.587   7.991   6.208  0.0462 -0.7400  0.2053
10586WAT    EPW44151  -6.538   7.983   6.136 -0.0410  0.1483  0.0274
10587WAT      O44152   3.738   7.089   5.668  0.3865 -0.2579 -0.1537
10587WAT     H144153   3.738   6.999   5.701  0.6033  0.0927  0.8307
10587WAT     H244154   3.734   7.080   5.573  0.7362 -1.3119 -0.0725
10587WAT    EPW44155   3.737   7.076   5.660  0.4612 -0.3505 -0.0131
10588WAT      O44156   0.765  10.019   0.492 -0.3529  0.0743  0.9400
10588WAT     H144157   0.670  10.014   0.480 -0.3197  2.6398 -1.3494
10588WAT     H244158   0.779  10.104   0.535  0.9756  1.1540 -1.4185
10588WAT    EPW44159   0.754  10.030   0.496 -0.1733  0.5555  0.3270
10589WAT      O44160  -1.564   8.824   7.892 -0.1631  0.0973  0.0664
10589WAT     H144161  -1.541   8.744   7.844 -1.9890 -1.9644  2.3789
10589WAT     H244162  -1.596   8.884   7.824 -0.9357 -1.9953 -1.5145
10589WAT    EPW44163  -1.565   8.822   7.876 -0.5058 -0.4506  0.1631
10590WAT      O44164   2.934   6.176   3.503 -0.4520 -0.1412  0.4560
10590WAT     H144165   2.892   6.158   3.588  0.7483 -1.6492  0.7810
10590WAT     H244166   3.020   6.211   3.526  0.1157 -1.1224 -0.1035
10590WAT    EPW44167   2.940   6.178   3.518 -0.2189 -0.4697  0.4251
10591WAT      O44168   4.172   1.279   1.882 -0.4464  0.3246 -0.3230
10591WAT     H144169   4.259   1.278   1.922 -0.7626 -2.0261  0.4527
10591WAT     H244170   4.172   1.204   1.822 -1.3478  1.3964 -1.7156
10591WAT    EPW44171   4.184   1.269   1.879 -0.6068  0.1559 -0.4044
10592WAT      O44172   0.518   0.235   1.896  0.5080  0.3384  0.3461
10592WAT     H144173   0.605   0.259   1.928  0.8235 -0.4089  0.0673
10592WAT     H244174   0.509   0.281   1.813  0.1201  1.4216  0.9619
10592WAT    EPW44175   0.529   0.244   1.889  0.4984  0.3827  0.3906
10593WAT      O44176   5.685   7.689   2.249 -0.1331  0.4537 -0.1385
10593WAT     H144177   5.671   7.718   2.339  0.9125  1.7806 -0.3684
10593WAT     H244178   5.596   7.678   2.213 -0.6301  2.8237  0.1784
10593WAT    EPW44179   5.671   7.691   2.256 -0.0608  0.9413 -0.1271
10594WAT      O44180   8.244   5.673   0.611  0.1755  0.1204 -0.2610
10594WAT     H144181   8.281   5.728   0.679 -1.4117 -0.0783  0.8061
10594WAT     H244182   8.263   5.720   0.529 -1.1220  2.2644  0.5985
10594WAT    EPW44183   8.252   5.686   0.609 -0.2050  0.3769 -0.0069
10595WAT      O44184   4.419   7.389   2.946  0.1887 -0.4228 -0.3129
10595WAT     H144185   4.416   7.442   2.867  2.5870  1.5173  0.7684
10595WAT     H244186   4.368   7.438   3.010  0.6219 -0.5006  0.1004
10595WAT    EPW44187   4.412   7.402   2.944  0.5622 -0.1774 -0.1158
10596WAT      O44188   5.502   0.831   4.134 -0.2549 -0.1591 -1.0223
10596WAT     H144189   5.459   0.752   4.103 -1.2310 -1.6828  3.4187
10596WAT     H244190   5.510   0.887   4.057 -1.7137 -3.5692 -3.8960
10596WAT    EPW44191   5.497   0.828   4.120 -0.5760 -0.8098 -0.8156
10597WAT      O44192  -3.419   8.734   8.254 -0.8511  0.0025 -0.2343
10597WAT     H144193  -3.351   8.786   8.212 -0.3598 -0.6510 -0.2727
10597WAT     H244194  -3.491   8.733   8.190  0.7326 -2.8896 -2.2305
10597WAT    EPW44195  -3.420   8.741   8.240 -0.5774 -0.4649 -0.5031
10598WAT      O44196   0.298   2.009   1.379  0.0890 -0.2536 -0.2867
10598WAT     H144197   0.226   2.054   1.423  0.5513  1.5773 -1.3186
10598WAT     H244198   0.377   2.044   1.420  0.4552 -1.7885  0.4064
10598WAT    EPW44199   0.299   2.020   1.390  0.1982 -0.2146 -0.3313
10599WAT      O44200  -5.344   6.106   8.228  0.3624  0.6085 -0.6145
10599WAT     H144201  -5.312   6.069   8.311  1.1905  0.1680 -1.1188
10599WAT     H244202  -5.265   6.129   8.180 -0.1340  2.0978 -0.7548
10599WAT    EPW44203  -5.330   6.104   8.233  0.4060  0.7470 -0.7000
10600WAT      O44204  -2.880  10.258   4.569 -0.1037  0.1703 -0.0175
10600WAT     H144205  -2.800  10.291   4.528  1.0531 -0.2614  1.7592
10600WAT     H244206  -2.941  10.332   4.566  1.2243  1.3336  0.7652
10600WAT    EPW44207  -2.878  10.272   4.563  0.2240  0.2666  0.3200
10601WAT      O44208  -5.211   5.612   6.227  0.5242 -1.3031  0.8270
10601WAT     H144209  -5.151   5.546   6.193 -0.9209 -1.2943 -2.1199
10601WAT     H244210  -5.236   5.663   6.150  0.0905  1.4876  2.6716
10601WAT    EPW44211  -5.206   5.610   6.212  0.2763 -0.9339  0.6819
10602WAT      O44212   0.526   9.144   3.731 -0.0608  0.3356  0.3796
10602WAT     H144213   0.567   9.209   3.674 -0.5326 -0.0178 -0.3797
10602WAT     H244214   0.466   9.195   3.785  0.8611  0.7649  1.0344
10602WAT    EPW44215   0.524   9.160   3.731 -0.0014  0.3457  0.3657
10603WAT      O44216   1.279   1.184   6.091  0.4937  0.4371 -0.2191
10603WAT     H144217   1.197   1.232   6.100  0.8194  1.8328 -3.3656
10603WAT     H244218   1.260   1.096   6.124 -1.1512  1.6634  2.4228
10603WAT    EPW44219   1.266   1.179   6.097  0.3197  0.7829 -0.2859
10604WAT      O44220   4.325   1.736   5.601  0.2384 -0.0684  0.3376
10604WAT     H144221   4.377   1.721   5.679  1.2428  1.5202  0.0354
10604WAT     H244222   4.331   1.831   5.586  0.7754 -0.3987 -2.1037
10604WAT    EPW44223   4.333   1.747   5.609  0.4416  0.0975 -0.0243
10605WAT      O44224   7.082   9.154   0.896 -0.3980  0.1130 -0.0394
10605WAT     H144225   7.006   9.159   0.838  0.7967  0.9851 -1.6328
10605WAT     H244226   7.053   9.196   0.977 -2.0425 -0.9055 -0.0681
10605WAT    EPW44227   7.068   9.160   0.899 -0.4573  0.0939 -0.2533
10606WAT      O44228   2.702   4.066   0.299  0.2916  0.5655  1.4299
10606WAT     H144229   2.651   4.141   0.267  0.6538 -0.3446 -1.6282
10606WAT     H244230   2.785   4.105   0.328  1.8389  1.3479 -3.1156
10606WAT    EPW44231   2.706   4.081   0.299  0.5435  0.5486  0.4271
10607WAT      O44232  -5.281   8.009   6.113  0.2189  0.4222 -0.1370
10607WAT     H144233  -5.298   7.916   6.097  0.4593  0.4016 -0.2695
10607WAT     H244234  -5.365   8.043   6.143  0.2479  0.0638  0.3581
10607WAT    EPW44235  -5.294   8.001   6.115  0.2544  0.3719 -0.0892
10608WAT      O44236  -4.015   7.351   2.586 -0.4592  0.6267 -0.3338
10608WAT     H144237  -4.084   7.291   2.559 -1.2345  1.7501 -0.9375
10608WAT     H244238  -4.061   7.419   2.636  0.3634  0.8391  0.1466
10608WAT    EPW44239  -4.030   7.352   2.589 -0.4528  0.8028 -0.3500
10609WAT      O44240   2.630   5.191   6.801 -0.1035  0.7396 -0.5370
10609WAT     H144241   2.558   5.233   6.755 -2.2562 -1.8995  0.1567
10609WAT     H244242   2.649   5.112   6.749 -0.1388 -0.4109  1.1182
10609WAT    EPW44243   2.623   5.186   6.788 -0.3921  0.2398 -0.2272
10610WAT      O44244   4.945   3.104   3.721 -0.0094  0.2516  0.2325
10610WAT     H144245   5.004   3.033   3.695  1.2679  1.5742 -0.7421
10610WAT     H244246   4.860   3.079   3.686  0.5700 -0.4806 -0.7208
10610WAT    EPW44247   4.942   3.092   3.713  0.2356  0.3295 -0.0218
10611WAT      O44248   4.324   9.170   4.727  0.0523  0.1573  1.1280
10611WAT     H144249   4.406   9.127   4.706  1.6802  2.4156  2.4445
10611WAT     H244250   4.314   9.238   4.660 -1.1643 -0.5677  0.5384
10611WAT    EPW44251   4.333   9.173   4.715  0.1066  0.3595  1.2238
10612WAT      O44252  -1.415   7.101   7.210  0.8988  0.0936 -0.1965
10612WAT     H144253  -1.473   7.028   7.233  2.2799 -1.8054 -2.3440
10612WAT     H244254  -1.473   7.163   7.165 -0.7499  1.5185  3.5217
10612WAT    EPW44255  -1.431   7.100   7.207  0.8636  0.0312  0.0107
10613WAT      O44256   5.334   5.068   4.929 -0.2374 -0.1503 -0.0139
10613WAT     H144257   5.340   5.146   4.985  0.2434 -0.5031  0.4319
10613WAT     H244258   5.402   5.009   4.962  0.9024  0.1247 -1.7596
10613WAT    EPW44259   5.344   5.071   4.941 -0.0236 -0.1605 -0.1853
10614WAT      O44260  -2.578   8.089   2.466  0.0299  0.1998  0.1216
10614WAT     H144261  -2.575   8.036   2.387 -0.5524 -1.9096  1.4365
10614WAT     H244262  -2.671   8.099   2.485  0.1353  1.4967  0.0629
10614WAT    EPW44263  -2.589   8.084   2.458 -0.0329  0.0925  0.2873
10615WAT      O44264   2.521   4.074   3.200 -0.6978 -0.5040  1.0429
10615WAT     H144265   2.488   4.027   3.277  0.2601 -0.1401  1.7012
10615WAT     H244266   2.610   4.102   3.226 -0.1227 -0.9117 -0.4182
10615WAT    EPW44267   2.529   4.072   3.214 -0.4956 -0.5097  0.9369
10616WAT      O44268   7.819   1.478   3.919  0.1264  0.2834  0.5594
10616WAT     H144269   7.900   1.427   3.919  0.3823  0.6500  1.7938
10616WAT     H244270   7.846   1.565   3.947 -0.1706  1.3824 -2.3050
10616WAT    EPW44271   7.833   1.483   3.923  0.1209  0.4767  0.3445
10617WAT      O44272  -0.605   8.576   7.520 -0.3981 -0.3112  0.5968
10617WAT     H144273  -0.522   8.530   7.514 -0.8336 -1.3543  1.9864
10617WAT     H244274  -0.582   8.668   7.533  0.5110 -0.4117 -0.2755
10617WAT    EPW44275  -0.591   8.582   7.521 -0.3356 -0.4621  0.6649
10618WAT      O44276  -1.893   2.028   8.138  0.2909 -0.0808  0.2025
10618WAT     H144277  -1.910   2.090   8.067 -1.0341  0.4135  0.9265
10618WAT     H244278  -1.979   2.003   8.170  0.8524 -0.8303  1.1938
10618WAT    EPW44279  -1.906   2.033   8.133  0.1902 -0.1144  0.4287
10619WAT      O44280  -1.987   9.302   5.094 -0.2553  0.1756 -0.2347
10619WAT     H144281  -2.069   9.262   5.123  0.5396 -0.4063  1.3809
10619WAT     H244282  -1.927   9.289   5.168  1.7333 -0.7123 -1.9076
10619WAT    EPW44283  -1.990   9.295   5.108  0.1118 -0.0186 -0.2420
10620WAT      O44284  -1.708   0.528   6.508  0.5480  0.4571  0.0973
10620WAT     H144285  -1.732   0.605   6.559 -2.0369 -1.0473  1.3154
10620WAT     H244286  -1.790   0.497   6.472  1.7449 -0.9532 -1.5596
10620WAT    EPW44287  -1.722   0.534   6.510  0.3650  0.0727  0.0396
10621WAT      O44288   2.650   8.234   1.511  0.1451 -0.6215  0.0915
10621WAT     H144289   2.573   8.285   1.485 -1.0525 -0.6380  3.2061
10621WAT     H244290   2.614   8.154   1.548  1.7236 -1.0138  0.8442
10621WAT    EPW44291   2.635   8.230   1.512  0.1954 -0.6757  0.6016
10622WAT      O44292  -0.133   8.953   2.391 -0.6171  1.0117  0.0000
10622WAT     H144293  -0.094   8.958   2.478 -1.0099  0.3267  0.2194
10622WAT     H244294  -0.195   9.026   2.389 -1.3140  0.4571  0.6562
10622WAT    EPW44295  -0.136   8.964   2.402 -0.7608  0.8483  0.1155
10623WAT      O44296   1.770   8.444   5.620 -0.4140  0.0854 -0.2353
10623WAT     H144297   1.695   8.498   5.595  0.7162  0.8731 -2.0986
10623WAT     H244298   1.743   8.355   5.598 -2.1716 -0.2090  2.5754
10623WAT    EPW44299   1.757   8.440   5.614 -0.4968  0.1507 -0.1101
10624WAT      O44300   4.434   5.577   1.978 -0.7991  0.5971  1.4248
10624WAT     H144301   4.514   5.625   2.001 -0.6142 -0.8761  4.2253
10624WAT     H244302   4.457   5.531   1.897  1.2995  0.1512  2.1889
10624WAT    EPW44303   4.448   5.577   1.970 -0.4981  0.3440  1.8950
10625WAT      O44304   2.411   5.789   3.333 -0.1743  0.1386 -0.3283
10625WAT     H144305   2.472   5.718   3.350 -0.9566 -0.4584  0.0979
10625WAT     H244306   2.414   5.842   3.413 -0.5007 -0.1212 -0.1382
10625WAT    EPW44307   2.419   5.787   3.346 -0.3206  0.0255 -0.2470
10626WAT      O44308   2.661   6.340   6.963 -0.4736 -0.1401 -0.5624
10626WAT     H144309   2.688   6.367   7.050 -0.4250  1.9061 -1.1447
10626WAT     H244310   2.733   6.366   6.906 -1.3694  0.5243 -1.4551
10626WAT    EPW44311   2.674   6.347   6.967 -0.5854  0.2174 -0.7570
10627WAT      O44312   2.931   7.911   2.373  0.0664  0.0671  0.1106
10627WAT     H144313   2.849   7.951   2.345  0.2381 -0.0316 -0.5646
10627WAT     H244314   2.995   7.939   2.306  0.2584 -1.0625 -0.2065
10627WAT    EPW44315   2.929   7.920   2.360  0.1143 -0.0951 -0.0203
10628WAT      O44316   7.486   7.697   0.304  0.1657  0.1755 -0.3882
10628WAT     H144317   7.522   7.690   0.216  0.0884 -2.9281 -0.2952
10628WAT     H244318   7.466   7.607   0.329 -5.1590  1.2652  0.6224
10628WAT    EPW44319   7.488   7.684   0.295 -0.5467 -0.0899 -0.2427
10629WAT      O44320   5.152   0.894   0.408  0.4305  0.5728 -0.2831
10629WAT     H144321   5.091   0.930   0.472  0.0053 -1.0515  0.2768
10629WAT     H244322   5.101   0.886   0.328 -0.8898 -2.8212  0.7320
10629WAT    EPW44323   5.137   0.898   0.406  0.2005 -0.0890 -0.0754
10630WAT      O44324   2.975   3.272   8.672 -0.3521  0.3549 -0.1346
10630WAT     H144325   3.001   3.309   8.757  0.5710  1.7003 -0.9650
10630WAT     H244326   2.913   3.203   8.694  1.1014 -0.4513  1.7453
10630WAT    EPW44327   2.971   3.267   8.686 -0.0386  0.4259  0.0038
10631WAT      O44328   2.671   3.719   1.008  0.8753 -0.7700 -0.7679
10631WAT     H144329   2.694   3.669   1.086 -1.1868 -0.0130  0.4343
10631WAT     H244330   2.596   3.672   0.971 -0.2807  0.6467 -0.3387
10631WAT    EPW44331   2.664   3.706   1.014  0.4508 -0.4833 -0.5527
10632WAT      O44332  -3.831   7.778   6.221  0.7507 -0.1152 -0.2131
10632WAT     H144333  -3.779   7.768   6.141  0.1193  3.1351 -1.1934
10632WAT     H244334  -3.765   7.792   6.290  1.2626 -1.3895 -0.4188
10632WAT    EPW44335  -3.815   7.779   6.220  0.7350  0.1454 -0.3693
10633WAT      O44336   5.300   1.444   7.815  0.1174 -0.1291  0.0119
10633WAT     H144337   5.268   1.514   7.758 -2.3571 -0.5460  0.7897
10633WAT     H244338   5.315   1.486   7.900 -0.8645 -0.4219  0.3380
10633WAT    EPW44339   5.298   1.459   7.819 -0.3383 -0.2227  0.1576
10634WAT      O44340   4.128   8.207   6.255  0.7644 -0.5267 -0.2954
10634WAT     H144341   4.196   8.258   6.211  1.3399 -0.8895  0.1605
10634WAT     H244342   4.173   8.127   6.285  0.6571  0.1502  1.8446
10634WAT    EPW44343   4.143   8.203   6.253  0.8261 -0.4849  0.0472
10635WAT      O44344  -3.709   6.308   6.145  0.4492 -0.0757  0.1291
10635WAT     H144345  -3.802   6.321   6.168  0.3949  0.2038 -0.2464
10635WAT     H244346  -3.686   6.226   6.188  0.4246  0.5803  1.4383
10635WAT    EPW44347  -3.718   6.299   6.154  0.4387  0.0477  0.2525
10636WAT      O44348  -0.925   9.037   7.368 -0.4930  0.9691 -0.2785
10636WAT     H144349  -0.866   9.064   7.438 -2.0794  1.1245  1.0440
10636WAT     H244350  -0.929   8.941   7.375 -0.6715  0.9869 -0.1577
10636WAT    EPW44351  -0.917   9.028   7.378 -0.7257  0.9918 -0.0880
10637WAT      O44352   5.517   7.327   3.928  0.5488  0.1618  0.6400
10637WAT     H144353   5.439   7.356   3.974  0.0636  1.0272 -0.6855
10637WAT     H244354   5.565   7.407   3.908  2.1560 -0.3952  2.0351
10637WAT    EPW44355   5.513   7.341   3.931  0.6969  0.2024  0.6492
10638WAT      O44356  -5.474   3.943   7.179 -0.0628 -0.0888  0.0955
10638WAT     H144357  -5.568   3.935   7.165 -0.2297  0.8386  0.6298
10638WAT     H244358  -5.442   3.992   7.103  0.0994 -0.9623 -0.4111
10638WAT    EPW44359  -5.482   3.948   7.167 -0.0637 -0.0818  0.0989
10639WAT      O44360   2.942   7.503   5.076  0.3808  0.2686 -0.2642
10639WAT     H144361   2.971   7.587   5.112  2.7599 -0.3365 -0.6267
10639WAT     H244362   2.859   7.524   5.033  1.5204  2.7569 -1.5009
10639WAT    EPW44363   2.935   7.517   5.075  0.8450  0.5171 -0.4752
10640WAT      O44364  -2.881   8.072   0.966  0.2004 -0.2525 -0.9918
10640WAT     H144365  -2.865   8.130   0.891 -0.0099  1.5136  0.2728
10640WAT     H244366  -2.795   8.057   1.004  0.1151  0.3720 -0.5310
10640WAT    EPW44367  -2.868   8.078   0.961  0.1613  0.0629 -0.7642
10641WAT      O44368   3.304   0.151   0.427 -0.3335 -0.2166  0.2074
10641WAT     H144369   3.261   0.156   0.513 -0.0079  0.9531  0.3288
10641WAT     H244370   3.388   0.195   0.441 -0.1457 -0.3047 -0.6322
10641WAT    EPW44371   3.310   0.157   0.440 -0.2658 -0.0739  0.1127
10642WAT      O44372   2.535   1.021   5.067  0.2437 -0.2974  0.4708
10642WAT     H144373   2.488   0.974   4.999  0.7358  0.1241 -0.1659
10642WAT     H244374   2.467   1.049   5.128 -0.0724 -1.7473  0.8231
10642WAT    EPW44375   2.520   1.018   5.066  0.2668 -0.4330  0.4332
10643WAT      O44376   5.431   0.181   8.789 -0.4744 -0.2550  0.2000
10643WAT     H144377   5.410   0.101   8.741 -0.0133  0.4902 -1.3067
10643WAT     H244378   5.399   0.252   8.733  0.0463  0.6486  1.0085
10643WAT    EPW44379   5.424   0.180   8.775 -0.3450 -0.0376  0.1078
10644WAT      O44380   1.522   8.918   3.408  0.4530 -0.3653  0.3917
10644WAT     H144381   1.616   8.937   3.405  0.3226  0.2008 -2.3561
10644WAT     H244382   1.515   8.825   3.387  0.3613 -0.1749 -0.4404
10644WAT    EPW44383   1.533   8.908   3.405  0.4237 -0.2656 -0.0805
10645WAT      O44384   2.354   9.828   5.992 -0.2282 -0.0414  0.2912
10645WAT     H144385   2.355   9.867   6.080 -1.4515  1.8932 -0.4913
10645WAT     H244386   2.261   9.818   5.971  0.0507 -1.6054 -0.3487
10645WAT    EPW44387   2.342   9.832   6.001 -0.3527  0.0072  0.1037
10646WAT      O44388   0.003   1.023   6.418 -0.3979  0.2171 -0.0863
10646WAT     H144389   0.066   1.083   6.457 -2.6008  1.6461  1.4914
10646WAT     H244390  -0.049   1.077   6.358  0.4755 -1.1544 -2.2260
10646WAT    EPW44391   0.004   1.038   6.415 -0.5732  0.2246 -0.1605
10647WAT      O44392   2.737   9.514   7.831  0.1099  0.3896 -0.0734
10647WAT     H144393   2.738   9.609   7.843  2.1998  0.1333  2.8324
10647WAT     H244394   2.829   9.489   7.830 -0.4022 -1.6748 -0.1649
10647WAT    EPW44395   2.749   9.523   7.832  0.3181  0.0834  0.2975
10648WAT      O44396   1.288   2.592   3.124 -0.0087 -0.7352 -0.5923
10648WAT     H144397   1.222   2.575   3.192 -1.2146  0.0268 -1.5446
10648WAT     H244398   1.239   2.631   3.052  1.7587  1.5732 -0.6385
10648WAT    EPW44399   1.272   2.595   3.124  0.0653 -0.3302 -0.7240
10649WAT      O44400   8.296   0.620   0.757 -0.1161  0.5636  0.4701
10649WAT     H144401   8.343   0.702   0.742  2.0365 -0.3256  1.7802
10649WAT     H244402   8.351   0.572   0.819 -0.3789 -2.6103 -1.4953
10649WAT    EPW44403   8.309   0.624   0.763  0.1330  0.0277  0.3837
10650WAT      O44404  -6.960   9.030   8.312  0.4449  0.2226 -0.6174
10650WAT     H144405  -6.974   8.985   8.229  0.0840  1.5086 -1.2842
10650WAT     H244406  -7.029   9.097   8.315  0.7443  0.5103  0.4920
10650WAT    EPW44407  -6.971   9.033   8.302  0.4368  0.4306 -0.5593
10651WAT      O44408  -2.136  -0.023   5.088 -0.4282 -0.1754  0.2586
10651WAT     H144409  -2.159   0.030   5.012 -2.6693  0.9327  1.6220
10651WAT     H244410  -2.053   0.014   5.118 -0.1929  0.2489 -0.8425
10651WAT    EPW44411  -2.128  -0.011   5.082 -0.6927  0.0267  0.2933
10652WAT      O44412   5.929   3.259   2.033  0.9539 -0.6563 -0.9002
10652WAT     H144413   5.912   3.165   2.035  0.4876 -0.5635 -0.3161
10652WAT     H244414   5.901   3.290   2.119 -0.3405  0.2642 -1.6234
10652WAT    EPW44415   5.923   3.251   2.044  0.7217 -0.5227 -0.9186
10653WAT      O44416   3.653  10.290   3.917  0.3445  0.2174 -0.3570
10653WAT     H144417   3.592  10.270   3.988  1.2099 -0.3568  0.2471
10653WAT     H244418   3.671  10.384   3.927  2.4143 -0.3117  1.8262
10653WAT    EPW44419   3.647  10.300   3.928  0.7317  0.0720  0.0106
10654WAT      O44420   2.354   4.757   3.255 -0.2193 -0.0529  0.2052
10654WAT     H144421   2.379   4.830   3.198  1.3893 -0.9225 -0.2442
10654WAT     H244422   2.370   4.789   3.344 -0.1167  0.3514  0.0431
10654WAT    EPW44423   2.359   4.771   3.259  0.0064 -0.1142  0.1246
10655WAT      O44424  -0.893  10.079   0.690 -0.6726  0.5667  0.1136
10655WAT     H144425  -0.805  10.065   0.723 -0.9558 -0.5553  0.4255
10655WAT     H244426  -0.902  10.174   0.686  0.1195  0.7067  1.2363
10655WAT    EPW44427  -0.883  10.090   0.694 -0.6055  0.4373  0.3028
10656WAT      O44428  -2.935   3.350   4.385  0.3908 -0.1984 -0.4872
10656WAT     H144429  -2.875   3.401   4.439  0.6417  0.0890 -1.0276
10656WAT     H244430  -2.975   3.414   4.327  0.7613 -0.6192 -1.2229
10656WAT    EPW44431  -2.933   3.365   4.384  0.4728 -0.2160 -0.6554
10657WAT      O44432   6.445   6.109   0.806  0.0138 -0.4650  0.7004
10657WAT     H144433   6.458   6.024   0.848  3.0008 -1.2648 -1.4826
10657WAT     H244434   6.431   6.088   0.714 -2.3632  1.3765  0.5471
10657WAT    EPW44435   6.445   6.095   0.799  0.0942 -0.3276  0.3922
10658WAT      O44436   5.129   1.938   3.423  0.3244 -0.1571 -0.1901
10658WAT     H144437   5.162   2.009   3.478  5.0168  1.2050 -4.0421
10658WAT     H244438   5.196   1.870   3.427  0.4125 -0.4060 -3.2314
10658WAT    EPW44439   5.142   1.939   3.431  0.9549 -0.0103 -1.0992
10659WAT      O44440   0.202   0.306   4.810  0.3741  0.6892 -0.4948
10659WAT     H144441   0.151   0.231   4.780  0.4178  0.1854  0.6465
10659WAT     H244442   0.214   0.360   4.731  0.9425 -0.8391 -1.5086
10659WAT    EPW44443   0.197   0.303   4.796  0.4549  0.4212 -0.4780
10660WAT      O44444   0.704   5.311   1.643 -0.2410  0.5115 -0.0825
10660WAT     H144445   0.694   5.270   1.557 -0.1274 -0.3529  0.3023
10660WAT     H244446   0.622   5.290   1.690 -0.6012  1.5698 -0.2079
10660WAT    EPW44447   0.692   5.302   1.638 -0.2736  0.5369 -0.0483
10661WAT      O44448   2.360   2.676   1.211 -0.0976  0.2938  0.1909
10661WAT     H144449   2.395   2.593   1.243 -2.1951 -0.2982  1.0732
10661WAT     H244450   2.298   2.703   1.277 -0.3368  1.9831 -0.6758
10661WAT    EPW44451   2.357   2.668   1.224 -0.4058  0.4386  0.1929
10662WAT      O44452  -3.359   8.339   3.180 -0.0191  0.3674  0.0595
10662WAT     H144453  -3.362   8.422   3.131 -0.7724 -0.5793 -1.6033
10662WAT     H244454  -3.398   8.275   3.120 -1.5019 -0.7939  2.1386
10662WAT    EPW44455  -3.365   8.342   3.165 -0.3141  0.0892  0.1144
10663WAT      O44456   6.026   6.041   0.996 -0.1745 -0.4258 -0.1452
10663WAT     H144457   5.994   6.051   1.086  0.3440 -2.4569  0.3287
10663WAT     H244458   5.959   5.988   0.953 -0.5947  0.8397 -1.0901
10663WAT    EPW44459   6.013   6.035   1.003 -0.1616 -0.5269 -0.2072
10664WAT      O44460   0.334   4.867   4.518 -0.2478  0.1639  0.1098
10664WAT     H144461   0.362   4.844   4.606 -1.7689 -3.2039 -0.1461
10664WAT     H244462   0.242   4.889   4.527 -0.7088 -1.3037 -0.7359
10664WAT    EPW44463   0.326   4.867   4.531 -0.5092 -0.4740 -0.0355
10665WAT      O44464   1.916   8.588   1.060  0.1156 -0.4114 -0.1576
10665WAT     H144465   1.830   8.558   1.029 -0.7987  1.7366  0.1323
10665WAT     H244466   1.931   8.670   1.013  2.5137 -1.2083 -0.9481
10665WAT    EPW44467   1.907   8.595   1.050  0.3113 -0.2327 -0.2236
10666WAT      O44468  -1.794   9.474   7.036 -0.5208  0.9428  0.3093
10666WAT     H144469  -1.708   9.461   7.075 -0.1215 -2.7042 -1.3829
10666WAT     H244470  -1.778   9.530   6.960  0.3385  0.4419  0.1129
10666WAT    EPW44471  -1.781   9.480   7.031 -0.3548  0.3953  0.0603
10667WAT      O44472  -6.698   8.290   8.078  0.4749 -0.5064 -0.4822
10667WAT     H144473  -6.762   8.303   8.008  0.6360  0.0637 -0.5284
10667WAT     H244474  -6.731   8.214   8.127  0.8961 -1.5568 -1.7692
10667WAT    EPW44475  -6.711   8.281   8.075  0.5517 -0.5698 -0.6580
10668WAT      O44476  -0.969   5.563   1.499 -0.8278 -0.6412  0.6625
10668WAT     H144477  -0.960   5.532   1.409 -1.6313 -1.8482  0.9775
10668WAT     H244478  -0.880   5.572   1.531 -0.5336 -0.1944 -0.2506
10668WAT    EPW44479  -0.956   5.560   1.491 -0.8949 -0.7412  0.5836
10669WAT      O44480   0.369   6.679   3.176 -0.7042 -0.5865  0.0475
10669WAT     H144481   0.285   6.673   3.131 -0.8110  0.1714  0.1438
10669WAT     H244482   0.413   6.754   3.136 -0.5664 -0.2585  0.8036
10669WAT    EPW44483   0.364   6.688   3.165 -0.7001 -0.4432  0.1600
10670WAT      O44484  -3.301   4.623   8.162  0.0009 -0.3531  0.6297
10670WAT     H144485  -3.268   4.547   8.114 -1.9898 -1.6587  1.2130
10670WAT     H244486  -3.371   4.589   8.217 -2.0424  2.1359 -0.2243
10670WAT    EPW44487  -3.306   4.609   8.163 -0.5311 -0.1969  0.5937
10671WAT      O44488   0.929   3.914   0.014  1.6211 -0.0006 -0.1985
10671WAT     H144489   0.926   3.994   0.066  1.4506 -0.6818  0.8932
10671WAT     H244490   0.898   3.846   0.074  1.5154 -0.8432 -1.1752
10671WAT    EPW44491   0.924   3.915   0.029  1.5846 -0.2015 -0.1833
10672WAT      O44492  -2.182   6.369   4.626 -0.2398 -0.4044  0.5287
10672WAT     H144493  -2.116   6.347   4.692  1.3679  1.8262 -0.2105
10672WAT     H244494  -2.265   6.344   4.666  0.8549 -1.0864  2.5080
10672WAT    EPW44495  -2.184   6.363   4.640  0.1167 -0.2000  0.6924
10673WAT      O44496   5.425   5.638   3.116 -0.1306  0.3190 -0.3342
10673WAT     H144497   5.390   5.719   3.153  1.4064  0.8073  0.1217
10673WAT     H244498   5.468   5.665   3.035 -2.0762 -0.5079 -1.7311
10673WAT    EPW44499   5.426   5.652   3.110 -0.1845  0.2744 -0.4584
10674WAT      O44500   4.476   0.534   2.095  0.4129  0.3596 -0.2480
10674WAT     H144501   4.514   0.452   2.062  1.1258  0.5421  0.0814
10674WAT     H244502   4.518   0.602   2.042 -0.3012  0.5057 -0.6328
10674WAT    EPW44503   4.487   0.533   2.083  0.4129  0.4029 -0.2552
10675WAT      O44504   0.926   4.278   3.843 -0.2622 -0.2849 -0.2719
10675WAT     H144505   0.856   4.305   3.784  0.3005 -0.8634 -1.2324
10675WAT     H244506   0.923   4.182   3.842  0.8231 -0.3372 -0.7212
10675WAT    EPW44507   0.916   4.269   3.835 -0.0449 -0.3681 -0.4579
10676WAT      O44508  -1.759   8.802   5.400  0.3485 -0.0906  0.1069
10676WAT     H144509  -1.734   8.724   5.351 -2.7196 -0.6780 -0.7111
10676WAT     H244510  -1.731   8.782   5.490 -0.3239 -2.1487 -0.0775
10676WAT    EPW44511  -1.752   8.789   5.406 -0.1448 -0.4396 -0.0253
10677WAT      O44512  -1.284  10.189   2.377  0.2057  0.4750  0.1441
10677WAT     H144513  -1.194  10.184   2.409  0.7151  1.1372 -1.0928
10677WAT     H244514  -1.319  10.269   2.415 -0.7873 -1.0886  2.7435
10677WAT    EPW44515  -1.277  10.199   2.386  0.1419  0.3557  0.3238
10678WAT      O44516   5.708   2.819   1.000  0.3278  0.0426 -1.2959
10678WAT     H144517   5.656   2.870   0.938  0.1122  1.6405  0.1472
10678WAT     H244518   5.649   2.799   1.072  0.7347 -1.2917 -1.3033
10678WAT    EPW44519   5.694   2.823   1.001  0.3529  0.0774 -1.1065
10679WAT      O44520  -3.508   9.163   5.018  0.5080  0.3333 -0.1267
10679WAT     H144521  -3.526   9.124   4.932  0.0513 -2.4080  1.1052
10679WAT     H244522  -3.595   9.174   5.057  0.7877 -1.4405  1.1335
10679WAT    EPW44523  -3.522   9.159   5.012  0.4846 -0.2623  0.2019
10680WAT      O44524  -0.720   1.673   2.458  0.6755  0.1369  0.0027
10680WAT     H144525  -0.654   1.642   2.520  0.6495  0.6690  0.3043
10680WAT     H244526  -0.727   1.767   2.475 -0.0446  0.1188 -0.1337
10680WAT    EPW44527  -0.712   1.681   2.468  0.5771  0.2047  0.0246
10681WAT      O44528   1.411   2.445   6.547 -0.6402 -0.4462 -0.7117
10681WAT     H144529   1.495   2.399   6.537  0.3108  0.6444  1.5162
10681WAT     H244530   1.421   2.525   6.495 -1.5692 -1.7389 -3.0192
10681WAT    EPW44531   1.424   2.449   6.539 -0.6373 -0.4729 -0.7222
10682WAT      O44532  -3.365   1.676   5.185 -0.0205  0.4449  0.7209
10682WAT     H144533  -3.341   1.764   5.156 -0.6908  0.1132 -1.0036
10682WAT     H244534  -3.284   1.639   5.218  0.6424  1.1776 -0.0199
10682WAT    EPW44535  -3.351   1.683   5.185 -0.0215  0.4978  0.3955
10683WAT      O44536  -5.547   5.472   8.454 -0.0578  0.4069  0.4319
10683WAT     H144537  -5.581   5.461   8.365 -1.4336  1.5438  0.7710
10683WAT     H244538  -5.585   5.399   8.503  0.0143  0.2610  0.2710
10683WAT    EPW44539  -5.557   5.461   8.449 -0.2298  0.5376  0.4559
10684WAT      O44540  -5.765   4.403   8.483 -0.0119  0.1369 -0.3326
10684WAT     H144541  -5.779   4.322   8.532 -1.8028 -0.1844 -1.2782
10684WAT     H244542  -5.849   4.419   8.439  1.3104  0.6407 -2.8939
10684WAT    EPW44543  -5.778   4.394   8.483 -0.0737  0.1609 -0.7949
10685WAT      O44544  -4.100   6.182   8.752  0.4214 -0.1655 -0.6683
10685WAT     H144545  -4.076   6.274   8.743 -2.1806  0.4892 -1.6142
10685WAT     H244546  -4.155   6.179   8.830  1.5036 -1.1985  0.0977
10685WAT    EPW44547  -4.104   6.193   8.761  0.2210 -0.2155 -0.6924
10686WAT      O44548  -4.654   3.787   6.423 -0.1089 -0.0534 -0.5840
10686WAT     H144549  -4.648   3.857   6.358  1.8976  0.6466  0.2910
10686WAT     H244550  -4.590   3.722   6.395 -0.2048 -0.3890 -0.0442
10686WAT    EPW44551  -4.645   3.788   6.411  0.1433 -0.0052 -0.3974
10687WAT      O44552   3.616   5.739   5.394  0.2514 -0.5075 -0.0619
10687WAT     H144553   3.574   5.820   5.363  2.0727  0.6408  0.3264
10687WAT     H244554   3.692   5.769   5.443  2.5187 -2.4992 -2.1148
10687WAT    EPW44555   3.620   5.754   5.396  0.7906 -0.6185 -0.2816
10688WAT      O44556   6.353   0.186   1.562  0.1452 -0.4557 -0.5021
10688WAT     H144557   6.303   0.187   1.644 -0.7751  0.7172 -1.0505
10688WAT     H244558   6.440   0.155   1.587  0.0845  0.5323  1.0436
10688WAT    EPW44559   6.358   0.182   1.576  0.0160 -0.1707 -0.3706
10689WAT      O44560  -2.544   8.582   4.344 -0.4634  0.1464 -0.3445
10689WAT     H144561  -2.499   8.666   4.345  0.4898 -0.3537 -0.7604
10689WAT     H244562  -2.632   8.603   4.312 -0.5622  1.1273  0.4848
10689WAT    EPW44563  -2.550   8.596   4.340 -0.3507  0.2098 -0.2899
10690WAT      O44564   5.111   3.691   7.372  0.2710 -0.0748 -0.1444
10690WAT     H144565   5.187   3.728   7.327  0.0251  2.7539  1.5235
10690WAT     H244566   5.040   3.754   7.355 -0.1895  0.3510  2.8510
10690WAT    EPW44567   5.111   3.704   7.364  0.1781  0.3544  0.4706
10691WAT      O44568   3.415   5.969   2.282 -0.5951 -0.0966 -0.1422
10691WAT     H144569   3.368   6.016   2.351 -1.2317  0.8623 -1.1996
10691WAT     H244570   3.347   5.920   2.236 -0.3693  0.2397 -0.8464
10691WAT    EPW44571   3.399   5.969   2.285 -0.6493  0.0744 -0.3746
10692WAT      O44572  -2.903   4.866   5.004 -0.2944 -0.0005 -0.2450
10692WAT     H144573  -2.814   4.844   5.034  0.5623  2.2775 -0.9372
10692WAT     H244574  -2.950   4.887   5.085 -0.7456 -2.7536  0.2972
10692WAT    EPW44575  -2.897   4.866   5.019 -0.2409 -0.0632 -0.2649
10693WAT      O44576  -2.945   1.934   5.665  0.0306 -0.6177 -0.4730
10693WAT     H144577  -2.891   1.938   5.586  2.4600  0.7010  1.1509
10693WAT     H244578  -2.951   1.840   5.685 -0.9243 -1.0075 -2.3199
10693WAT    EPW44579  -2.939   1.922   5.657  0.2251 -0.4953 -0.5026
10694WAT      O44580   2.567   4.825   3.470  0.0876 -0.1027 -0.1332
10694WAT     H144581   2.566   4.862   3.559 -0.0940 -3.9072  1.6475
10694WAT     H244582   2.643   4.866   3.429 -0.3948  2.5265  1.3644
10694WAT    EPW44583   2.577   4.836   3.476  0.0001 -0.2577  0.2992
10695WAT      O44584   3.371   3.593   8.499 -0.1607 -0.0123 -0.5371
10695WAT     H144585   3.322   3.545   8.432  1.0657 -0.9590 -0.7816
10695WAT     H244586   3.347   3.550   8.582 -1.7660  1.2310 -0.3104
10695WAT    EPW44587   3.361   3.581   8.501 -0.2106  0.0267 -0.5398
10696WAT      O44588   8.406   5.098   0.622  0.1346  0.1071 -0.2769
10696WAT     H144589   8.414   5.190   0.648 -0.4462 -1.1970  6.1646
10696WAT     H244590   8.320   5.071   0.656  1.0017 -3.1588 -0.3475
10696WAT    EPW44591   8.396   5.107   0.630  0.1721 -0.4954  0.5634
10697WAT      O44592   1.787  10.160   1.360 -0.1141  0.6358  0.2120
10697WAT     H144593   1.838  10.187   1.284 -1.8851  1.1708 -0.8703
10697WAT     H244594   1.802  10.228   1.426  0.5282  0.7874 -0.0881
10697WAT    EPW44595   1.795  10.172   1.359 -0.2629  0.7262  0.0296
10698WAT      O44596  -2.204   9.750   4.721 -0.4977  0.0472  0.5840
10698WAT     H144597  -2.119   9.706   4.731  0.1565  0.7482 -1.4757
10698WAT     H244598  -2.204   9.817   4.789  1.6560  1.5488 -0.7642
10698WAT    EPW44599  -2.193   9.753   4.731 -0.1273  0.3376  0.1345
10699WAT      O44600   1.694   6.734   8.700 -0.1399 -0.7939  0.2833
10699WAT     H144601   1.725   6.644   8.709 -1.5995 -1.3002  0.6135
10699WAT     H244602   1.771   6.785   8.675  0.4518 -2.3502 -1.2098
10699WAT    EPW44603   1.708   6.729   8.698 -0.2543 -1.0662  0.1302
10700WAT      O44604  -2.854   3.610   8.385  0.2482  0.2591 -0.2186
10700WAT     H144605  -2.927   3.599   8.446  1.1337 -0.4504  0.7539
10700WAT     H244606  -2.777   3.616   8.442  1.2893 -1.9493 -1.2811
10700WAT    EPW44607  -2.853   3.609   8.401  0.5023 -0.1258 -0.2308
10701WAT      O44608  -0.473   5.643   2.286  0.0687  0.4755 -0.0213
10701WAT     H144609  -0.391   5.682   2.315  0.2981  0.4789 -0.6773
10701WAT     H244610  -0.540   5.690   2.336  0.2174  2.6456 -1.7264
10701WAT    EPW44611  -0.471   5.654   2.296  0.1186  0.7622 -0.3327
10702WAT      O44612   4.027   3.802   3.417 -0.5299 -0.8190 -1.2382
10702WAT     H144613   4.006   3.861   3.488  0.3248 -2.1122  0.1509
10702WAT     H244614   4.119   3.820   3.398 -1.0416  0.3155 -2.8481
10702WAT    EPW44615   4.037   3.812   3.424 -0.4847 -0.8399 -1.2673
10703WAT      O44616  -3.468   3.371   7.573 -0.1050  0.2474  0.1807
10703WAT     H144617  -3.466   3.316   7.494  2.8124 -0.2182  0.4957
10703WAT     H244618  -3.434   3.315   7.642 -0.1991  1.4529  1.2437
10703WAT    EPW44619  -3.463   3.356   7.571  0.2674  0.3450  0.3624
10704WAT      O44620  -5.902   8.841   5.028 -0.2816  0.6497  0.0628
10704WAT     H144621  -5.857   8.924   5.048  1.0392  0.1812 -0.8093
10704WAT     H244622  -5.994   8.860   5.044  0.2268  1.5510  2.2869
10704WAT    EPW44623  -5.908   8.855   5.033 -0.0403  0.7067  0.2413
10705WAT      O44624   0.426   2.079   2.449  0.5561  0.1844 -0.3699
10705WAT     H144625   0.390   2.101   2.535 -2.0112  0.1117 -1.3250
10705WAT     H244626   0.410   2.157   2.396 -0.6742 -0.8100 -1.5276
10705WAT    EPW44627   0.419   2.092   2.454  0.0552  0.0436 -0.6486
10706WAT      O44628   7.737   1.732   1.273  0.2117  0.5486 -0.5536
10706WAT     H144629   7.819   1.713   1.228  0.4067  1.1524 -0.4658
10706WAT     H244630   7.764   1.755   1.362 -0.0518  0.8170 -0.5436
10706WAT    EPW44631   7.752   1.732   1.279  0.2027  0.6636 -0.5407
10707WAT      O44632   1.514   5.082   7.478  0.5745  0.4383 -0.5103
10707WAT     H144633   1.557   5.040   7.552  0.4793  0.4941 -0.4244
10707WAT     H244634   1.529   5.176   7.492 -1.4828  0.6353  0.7009
10707WAT    EPW44635   1.522   5.089   7.489  0.2906  0.4716 -0.3393
10708WAT      O44636   1.165   7.189   1.345  0.5413  0.6888 -0.0435
10708WAT     H144637   1.109   7.266   1.337  0.7625  0.9107  0.4897
10708WAT     H244638   1.229   7.213   1.412  0.8015  0.1569 -0.0985
10708WAT    EPW44639   1.166   7.202   1.353  0.6047  0.6478  0.0196
10709WAT      O44640   2.049   1.497   8.148  0.2857  0.9493  0.2089
10709WAT     H144641   1.959   1.524   8.130 -0.9871 -2.9948 -0.3761
10709WAT     H244642   2.040   1.433   8.220  2.3044 -0.8619 -1.0292
10709WAT    EPW44643   2.036   1.492   8.155  0.3842  0.1902 -0.0310
10710WAT      O44644  -6.747   8.827   8.389 -0.4466 -0.2327  0.6108
10710WAT     H144645  -6.810   8.826   8.317 -0.9077  2.8841  0.8270
10710WAT     H244646  -6.669   8.867   8.351  1.4212 -3.7321  0.4452
10710WAT    EPW44647  -6.745   8.832   8.374 -0.2611 -0.2832  0.6175
10711WAT      O44648   7.065   5.402   1.260  0.2221 -0.4621  0.3651
10711WAT     H144649   7.140   5.344   1.265  0.4677 -0.1794  0.0574
10711WAT     H244650   7.086   5.475   1.319  0.8270  0.3090 -0.7472
10711WAT    EPW44651   7.078   5.404   1.268  0.3343 -0.3231  0.1779
10712WAT      O44652   1.248   5.617   1.506  0.3540  0.2267  0.3095
10712WAT     H144653   1.166   5.597   1.461  0.8082 -2.8045  0.5708
10712WAT     H244654   1.276   5.701   1.471 -0.9949 -0.4239 -2.5798
10712WAT    EPW44655   1.241   5.625   1.496  0.2360 -0.2589 -0.0371
10713WAT      O44656   1.018   9.611   6.885  0.5755  0.4378  0.0144
10713WAT     H144657   0.986   9.700   6.876  0.1794  0.4151  1.0125
10713WAT     H244658   0.974   9.578   6.963  0.8381 -0.5789 -0.2517
10713WAT    EPW44659   1.008   9.618   6.894  0.5579  0.3009  0.1111
10714WAT      O44660   2.730   4.136   3.706 -0.2346  0.0017  0.3112
10714WAT     H144661   2.716   4.231   3.703  0.5774  0.1146 -0.0489
10714WAT     H244662   2.707   4.112   3.796  1.9122  0.9362  1.1856
10714WAT    EPW44663   2.725   4.145   3.718  0.1557  0.1400  0.3790
10715WAT      O44664   3.780   3.880   2.490 -0.4461 -0.4569 -0.6628
10715WAT     H144665   3.737   3.839   2.565  1.1262  1.0231  1.1543
10715WAT     H244666   3.846   3.817   2.462 -0.4718 -0.6708 -0.2457
10715WAT    EPW44667   3.783   3.866   2.496 -0.2422 -0.2899 -0.3681
10716WAT      O44668   5.057   1.347   0.048 -0.0719 -0.2749 -0.1362
10716WAT     H144669   5.114   1.417   0.018  0.1842  0.0970  1.1317
10716WAT     H244670   4.968   1.381   0.035  0.0397 -0.0086 -0.2000
10716WAT    EPW44671   5.053   1.361   0.043 -0.0231 -0.1907  0.0226
10717WAT      O44672  -4.761   9.864   5.663 -0.1435  0.4529 -0.3264
10717WAT     H144673  -4.779   9.872   5.569 -1.5516 -1.0865 -0.2246
10717WAT     H244674  -4.727   9.776   5.674  1.5626  1.1562  0.4273
10717WAT    EPW44675  -4.759   9.854   5.652 -0.1042  0.3424 -0.2134
10718WAT      O44676  -0.954   2.127   1.946  0.0309 -0.4423 -0.5400
10718WAT     H144677  -0.942   2.221   1.935 -0.1166 -0.3666 -0.0658
10718WAT     H244678  -1.033   2.119   2.000  0.2709 -0.8286 -0.2459
10718WAT    EPW44679  -0.963   2.138   1.952  0.0431 -0.4833 -0.4387
10719WAT      O44680  -3.676   2.250   6.247  0.0312  0.6664  0.0974
10719WAT     H144681  -3.627   2.170   6.228 -0.4355 -0.2784  2.5329
10719WAT     H244682  -3.629   2.318   6.198  1.8476 -0.7118 -0.2033
10719WAT    EPW44683  -3.663   2.249   6.238  0.2092  0.3600  0.3788
10720WAT      O44684   8.887   1.881   2.115  0.5739  0.4014  0.1154
10720WAT     H144685   8.929   1.839   2.041 -1.4618 -0.9831 -0.3521
10720WAT     H244686   8.949   1.871   2.187  2.2163  1.0229 -1.1634
10720WAT    EPW44687   8.901   1.874   2.115  0.5221  0.3006 -0.1150
10721WAT      O44688   1.690   7.098   7.109 -0.4320 -0.0332 -0.3752
10721WAT     H144689   1.686   7.008   7.141 -0.2800  0.2808  0.5800
10721WAT     H244690   1.609   7.110   7.059  0.3927 -1.2531 -2.1026
10721WAT    EPW44691   1.679   7.088   7.107 -0.3032 -0.1528 -0.4771
10722WAT      O44692  -0.453   3.617   0.187  0.4159 -0.2206  0.6908
10722WAT     H144693  -0.495   3.629   0.102 -2.0077 -0.2256  1.7946
10722WAT     H244694  -0.369   3.663   0.179 -0.9466  2.2546 -0.8331
10722WAT    EPW44695  -0.447   3.625   0.175 -0.0835  0.1051  0.6354
10723WAT      O44696  -4.057   9.294   5.132  0.2911  0.3609 -0.7529
10723WAT     H144697  -3.971   9.271   5.100 -0.0670 -0.4422 -1.1616
10723WAT     H244698  -4.108   9.313   5.053 -0.0302  0.3904 -0.5412
10723WAT    EPW44699  -4.053   9.293   5.117  0.2015  0.2584 -0.7789
10724WAT      O44700  -4.463   3.004   8.340 -0.1256 -0.2091 -0.4108
10724WAT     H144701  -4.381   3.037   8.303 -0.6972  1.0197 -0.6507
10724WAT     H244702  -4.527   3.074   8.322 -1.4057 -1.4470 -0.9011
10724WAT    EPW44703  -4.461   3.018   8.333 -0.3698 -0.2103 -0.5069
10725WAT      O44704  -1.446   3.969   5.086  0.5639 -0.3570 -0.6655
10725WAT     H144705  -1.439   3.955   4.992 -0.5844  0.6323 -0.9239
10725WAT     H244706  -1.530   4.013   5.098  1.4592  1.1367  0.6225
10725WAT    EPW44707  -1.456   3.973   5.075  0.5304 -0.0294 -0.5298
10726WAT      O44708   1.706   8.101   6.341  0.0952 -0.1596 -0.2805
10726WAT     H144709   1.711   8.006   6.331  1.6273 -0.0126 -1.2099
10726WAT     H244710   1.782   8.123   6.395 -0.7071  0.4709  0.6174
10726WAT    EPW44711   1.717   8.091   6.347  0.1915 -0.0572 -0.2844
10727WAT      O44712   0.989   1.661   2.784 -0.2298  0.0535  0.0481
10727WAT     H144713   0.956   1.715   2.856  0.9402  0.9942 -0.0917
10727WAT     H244714   0.917   1.601   2.765 -1.2132  0.9189  0.8650
10727WAT    EPW44715   0.975   1.660   2.791 -0.2052  0.2916  0.1374
10728WAT      O44716  -0.706   6.607   4.150  0.5843  0.1992 -0.6587
10728WAT     H144717  -0.644   6.674   4.122  2.6060 -0.2480  2.2966
10728WAT     H244718  -0.719   6.553   4.072  1.8705  1.7988 -2.0726
10728WAT    EPW44719  -0.700   6.609   4.136  1.0206  0.3512 -0.4554
10729WAT      O44720  -0.218   6.525   5.716  0.2702 -0.0206  0.3216
10729WAT     H144721  -0.154   6.594   5.735  0.6404 -0.5351  1.0218
10729WAT     H244722  -0.265   6.513   5.799 -1.6289  1.2309 -0.5184
10729WAT    EPW44723  -0.216   6.532   5.730  0.0685  0.0765  0.3033
10730WAT      O44724  -0.694   3.515   5.814  0.9338  0.1457  0.3679
10730WAT     H144725  -0.636   3.444   5.840 -0.1255 -0.6937  0.4791
10730WAT     H244726  -0.778   3.473   5.798  0.6370  1.1725 -0.9201
10730WAT    EPW44727  -0.697   3.500   5.816  0.7550  0.1705  0.2127
10731WAT      O44728   5.293   5.379   5.081  0.0110 -0.5278  0.1385
10731WAT     H144729   5.368   5.406   5.028 -1.0363  1.3513 -0.4594
10731WAT     H244730   5.329   5.371   5.170  1.0551 -0.3205 -0.2535
10731WAT    EPW44731   5.308   5.381   5.086  0.0105 -0.2527  0.0081
10732WAT      O44732  -0.841   0.263   3.252 -0.3254 -0.3342 -0.4233
10732WAT     H144733  -0.747   0.248   3.249  0.3314  1.9581  2.8526
10732WAT     H244734  -0.854   0.344   3.202 -0.2508  0.1807  0.3620
10732WAT    EPW44735  -0.830   0.272   3.245 -0.2289  0.0360  0.1124
10733WAT      O44736   3.834   4.131   8.162  0.4088  0.2462  0.5132
10733WAT     H144737   3.803   4.217   8.132  1.4359 -0.0119 -1.4045
10733WAT     H244738   3.928   4.132   8.144  0.3754 -1.4131  0.1358
10733WAT    EPW44739   3.842   4.143   8.156  0.5399 -0.0064  0.2108
10734WAT      O44740  -3.387   9.563   5.718 -0.3058 -0.1989  0.9970
10734WAT     H144741  -3.344   9.645   5.695  1.3947 -1.5122 -0.9682
10734WAT     H244742  -3.462   9.588   5.772 -0.9596  2.7538 -1.0696
10734WAT    EPW44743  -3.391   9.577   5.722 -0.1677  0.0172  0.4652
10735WAT      O44744  -0.158   8.675   7.553 -0.2284 -0.1421 -0.8406
10735WAT     H144745  -0.074   8.641   7.585 -0.4374  0.0187 -0.0962
10735WAT     H244746  -0.212   8.598   7.540  0.0233 -0.2465 -1.3127
10735WAT    EPW44747  -0.154   8.660   7.556 -0.2227 -0.1345 -0.8049
10736WAT      O44748   1.939   4.907   4.797 -0.0920  0.8979  0.3595
10736WAT     H144749   1.993   4.842   4.752 -2.3529 -1.3356  0.5994
10736WAT     H244750   1.909   4.861   4.876 -2.7373  1.7651 -0.0635
10736WAT    EPW44751   1.942   4.892   4.802 -0.7391  0.7176  0.3355
10737WAT      O44752   1.692   9.008   1.975  0.0398  0.4608  0.3787
10737WAT     H144753   1.607   8.995   1.933 -1.0659  0.3145  2.4816
10737WAT     H244754   1.740   8.928   1.958 -1.0610 -0.3265  0.8818
10737WAT    EPW44755   1.687   8.996   1.968 -0.2512  0.3381  0.7224
10738WAT      O44756  -1.200   6.119   1.950  0.3054 -0.2017  0.1706
10738WAT     H144757  -1.108   6.095   1.949  0.1015 -0.9861 -1.0176
10738WAT     H244758  -1.206   6.186   2.018  1.6291 -0.5800  0.6907
10738WAT    EPW44759  -1.189   6.125   1.959  0.4531 -0.3552  0.0826
10739WAT      O44760   7.008   1.668   4.813  0.0886  0.5516  0.5895
10739WAT     H144761   6.998   1.688   4.720  1.3039  1.7762  0.7034
10739WAT     H244762   7.045   1.747   4.851  1.0557 -0.4643  1.8443
10739WAT    EPW44763   7.011   1.681   4.806  0.3765  0.5792  0.7699
10740WAT      O44764   2.241   6.007   1.626 -0.2100 -0.3443 -0.3341
10740WAT     H144765   2.310   6.062   1.589  0.2157 -0.5992  0.0832
10740WAT     H244766   2.277   5.974   1.708 -0.1419 -1.9132 -0.9676
10740WAT    EPW44767   2.255   6.010   1.632 -0.1450 -0.5848 -0.3627
10741WAT      O44768   6.544   9.636   1.655 -0.7517 -0.5918 -0.3200
10741WAT     H144769   6.558   9.572   1.725 -1.4506 -0.1951  0.1900
10741WAT     H244770   6.631   9.648   1.616 -0.6017 -1.8156 -0.3985
10741WAT    EPW44771   6.557   9.629   1.659 -0.8242 -0.7005 -0.2631
10742WAT      O44772   1.352  10.165   3.286 -0.1559  0.3943  0.2364
10742WAT     H144773   1.350  10.170   3.381  0.3328  2.1360  0.1888
10742WAT     H244774   1.291  10.094   3.264  0.3561 -0.5996  1.8534
10742WAT    EPW44775   1.344  10.156   3.296 -0.0239  0.4926  0.4435
10743WAT      O44776   1.882   1.989   6.387 -1.3868 -0.1119  0.4404
10743WAT     H144777   1.810   1.957   6.442 -0.5700  0.4156  1.8943
10743WAT     H244778   1.941   2.032   6.449  1.2052 -2.2600 -0.3554
10743WAT    EPW44779   1.880   1.991   6.403 -0.9372 -0.3257  0.5274
10744WAT      O44780   5.389   3.118   2.120  0.7587  0.2411  0.3091
10744WAT     H144781   5.363   3.098   2.030 -0.2656  0.2378  0.5987
10744WAT     H244782   5.345   3.201   2.139 -2.2995 -1.6100  2.1142
10744WAT    EPW44783   5.380   3.127   2.110  0.2201 -0.0036  0.5854
10745WAT      O44784   3.217   2.308   6.808 -0.2817 -0.4431  0.0465
10745WAT     H144785   3.123   2.313   6.788 -0.4608  0.6200  1.0404
10745WAT     H244786   3.232   2.380   6.869  1.0950 -0.9165  0.2953
10745WAT    EPW44787   3.206   2.318   6.813 -0.1237 -0.3653  0.2103
10746WAT      O44788  -2.653   8.355   2.069 -0.5495 -0.2813 -0.2640
10746WAT     H144789  -2.595   8.420   2.029  0.4758 -0.7091  0.5085
10746WAT     H244790  -2.734   8.404   2.086  0.1947  0.8079  0.2912
10746WAT    EPW44791  -2.656   8.370   2.066 -0.3161 -0.1941 -0.0888
10747WAT      O44792   4.720   7.983   2.947  0.5535  0.2300  0.3759
10747WAT     H144793   4.775   8.021   2.879 -0.0237  1.4446  0.5572
10747WAT     H244794   4.761   8.010   3.029 -0.4514  1.4293  0.5165
10747WAT    EPW44795   4.733   7.991   2.949  0.3450  0.5486  0.4184
10748WAT      O44796   2.662   0.182   5.682 -0.6489 -0.1474 -0.1032
10748WAT     H144797   2.589   0.209   5.627 -0.4298  1.0005  0.1473
10748WAT     H244798   2.638   0.094   5.710 -1.1506 -0.4303 -1.3495
10748WAT    EPW44799   2.649   0.174   5.679 -0.6860 -0.0333 -0.2346
10749WAT      O44800   3.272  10.092   0.309  0.4796 -1.1467  1.0468
10749WAT     H144801   3.288  10.039   0.231 -0.2152  0.8720 -0.5903
10749WAT     H244802   3.352  10.085   0.361  0.5837 -3.3228  0.6564
10749WAT    EPW44803   3.285  10.084   0.305  0.4019 -1.1673  0.7794
10750WAT      O44804  -0.530   0.627   4.276  0.2088 -0.2391  0.2710
10750WAT     H144805  -0.566   0.558   4.333 -1.2551  0.2020 -0.0814
10750WAT     H244806  -0.546   0.596   4.187 -0.2062  0.4273  0.1101
10750WAT    EPW44807  -0.537   0.614   4.272 -0.0390 -0.0930  0.2034
10751WAT      O44808   2.398   4.015   4.017  0.2842  0.5746 -0.4264
10751WAT     H144809   2.351   3.932   4.027 -0.7377  1.2285  0.3805
10751WAT     H244810   2.331   4.082   4.029  0.8667  1.5385 -2.2025
10751WAT    EPW44811   2.383   4.013   4.020  0.2263  0.7880 -0.5541
10752WAT      O44812   1.030   1.587   1.360  0.5267  0.0132  0.6034
10752WAT     H144813   1.046   1.518   1.424 -4.6315 -1.0841  1.1599
10752WAT     H244814   1.018   1.539   1.277  0.7038  0.6812  0.1878
10752WAT    EPW44815   1.031   1.571   1.357 -0.1304 -0.0434  0.6220
10753WAT      O44816  -0.728   9.073   7.167 -0.3192 -0.2303 -0.0982
10753WAT     H144817  -0.805   9.068   7.224 -0.6230 -0.1273 -0.4933
10753WAT     H244818  -0.736   9.158   7.124 -0.5993 -0.7068 -1.0030
10753WAT    EPW44819  -0.739   9.084   7.169 -0.3962 -0.2799 -0.2697
10754WAT      O44820   2.941   3.503   4.695  0.6034 -0.5200 -0.6733
10754WAT     H144821   2.849   3.526   4.689  0.4000 -0.4352  1.9606
10754WAT     H244822   2.969   3.534   4.781  3.1570 -0.3533 -1.4811
10754WAT    EPW44823   2.933   3.510   4.705  0.9134 -0.4869 -0.4325
10755WAT      O44824  -3.433   3.691   6.912  0.5097  0.2509  0.0205
10755WAT     H144825  -3.398   3.613   6.870  0.4399  0.6327 -0.7847
10755WAT     H244826  -3.362   3.756   6.904  1.0635 -0.0689  1.8101
10755WAT    EPW44827  -3.419   3.690   6.905  0.5735  0.2590  0.1504
10756WAT      O44828   6.224   1.292   4.663 -0.2295  0.0723 -0.2815
10756WAT     H144829   6.274   1.255   4.736  0.8839  0.9322 -0.5671
10756WAT     H244830   6.232   1.227   4.593 -0.6920 -0.4284  0.1263
10756WAT    EPW44831   6.232   1.278   4.664 -0.1435  0.1196 -0.2654
10757WAT      O44832  -0.642   7.858   5.707  0.4523  0.2209  0.0475
10757WAT     H144833  -0.676   7.773   5.678 -2.5942  1.0712  0.6812
10757WAT     H244834  -0.672   7.920   5.640  2.4738  0.8782 -0.3149
10757WAT    EPW44835  -0.651   7.855   5.694  0.3171  0.4199  0.0832
10758WAT      O44836  -5.460   5.193   6.465 -0.1207  0.2635 -0.0450
10758WAT     H144837  -5.400   5.233   6.402 -0.8782 -0.4614 -1.2793
10758WAT     H244838  -5.465   5.101   6.439 -1.3777  0.2050  0.3221
10758WAT    EPW44839  -5.453   5.186   6.453 -0.3862  0.1602 -0.1593
10759WAT      O44840  -1.602   8.739   5.664 -0.5854  0.1535  0.3945
10759WAT     H144841  -1.626   8.661   5.715  2.2979  0.4793  2.4825
10759WAT     H244842  -1.627   8.813   5.719 -0.7529  0.6624 -0.3406
10759WAT    EPW44843  -1.609   8.738   5.678 -0.2272  0.2637  0.5729
10760WAT      O44844   3.916   1.211   0.236  0.2602 -0.2358 -0.2013
10760WAT     H144845   3.917   1.306   0.226 -1.8876 -0.3422 -2.4674
10760WAT     H244846   3.882   1.178   0.152 -1.5175 -2.8240  1.3618
10760WAT    EPW44847   3.911   1.219   0.224 -0.2576 -0.5912 -0.2940
10761WAT      O44848  -3.943   8.462   5.378  0.9026 -0.1970 -0.4098
10761WAT     H144849  -3.914   8.421   5.297 -1.9046  0.7109 -2.0294
10761WAT     H244850  -4.030   8.496   5.358 -0.0426 -0.1299  3.0905
10761WAT    EPW44851  -3.951   8.461   5.365  0.4076 -0.0687 -0.1616
10762WAT      O44852   4.251   9.985   4.017  0.2219  0.8987  0.1937
10762WAT     H144853   4.187   9.922   3.986  0.2662  0.7766  0.3521
10762WAT     H244854   4.284  10.027   3.937  2.5791 -1.5314 -0.2454
10762WAT    EPW44855   4.247   9.983   4.002  0.5386  0.5622  0.1569
10763WAT      O44856   1.664   7.931   7.468 -0.5273 -0.1491 -0.6509
10763WAT     H144857   1.608   7.996   7.510  0.2192  0.3749 -0.4439
10763WAT     H244858   1.753   7.965   7.479 -0.3162  0.2291 -2.9801
10763WAT    EPW44859   1.668   7.944   7.475 -0.4010 -0.0300 -0.9308
10764WAT      O44860   6.242   0.578   5.705  0.0379  0.4112  0.3406
10764WAT     H144861   6.278   0.618   5.626  1.7804 -0.4546  0.6332
10764WAT     H244862   6.283   0.626   5.777 -3.0423  2.5488  0.8700
10764WAT    EPW44863   6.252   0.589   5.704 -0.1388  0.5790  0.4489
10765WAT      O44864  -2.612   0.662   5.107 -0.1792  0.7286 -0.0594
10765WAT     H144865  -2.596   0.574   5.073 -1.0629  0.7536 -0.6033
10765WAT     H244866  -2.574   0.720   5.041 -1.5615  0.7698 -0.8806
10765WAT    EPW44867  -2.605   0.658   5.094 -0.4781  0.7373 -0.2394
10766WAT      O44868   4.630   2.923   1.833  0.4941  0.6230  0.5472
10766WAT     H144869   4.661   2.847   1.882  1.2125  1.2518  1.1041
10766WAT     H244870   4.709   2.959   1.793  0.1558  1.0520  0.2600
10766WAT    EPW44871   4.645   2.918   1.834  0.5441  0.7625  0.5828
10767WAT      O44872  -1.453   6.856   4.072 -0.6867 -0.2316  0.0240
10767WAT     H144873  -1.495   6.855   3.986 -2.2619  1.4805  0.6820
10767WAT     H244874  -1.415   6.944   4.078 -1.7174  0.1649  1.5111
10767WAT    EPW44875  -1.454   6.868   4.061 -1.0304  0.0465  0.3066
10768WAT      O44876   3.764   7.048   0.563  0.2678  0.1357  0.1462
10768WAT     H144877   3.722   7.133   0.551 -0.4075 -0.1464  0.4532
10768WAT     H244878   3.731   6.995   0.491 -0.4814 -0.2985  0.7874
10768WAT    EPW44879   3.754   7.052   0.552  0.0799  0.0412  0.2713
10769WAT      O44880   4.318  10.116   0.679  0.3172 -0.2979 -0.1776
10769WAT     H144881   4.244  10.130   0.738 -1.1630  0.9349 -2.1911
10769WAT     H244882   4.395  10.137   0.732 -0.7727 -1.0679  1.8191
10769WAT    EPW44883   4.318  10.121   0.694 -0.0219 -0.2370 -0.1798
10770WAT      O44884   3.067   5.602   3.495  0.1491 -0.1139  0.5491
10770WAT     H144885   3.120   5.543   3.441 -0.3335 -0.6202  0.6217
10770WAT     H244886   3.119   5.682   3.501  0.8344 -0.5481  0.4889
10770WAT    EPW44887   3.081   5.605   3.488  0.1760 -0.2379  0.5507
10771WAT      O44888   7.264   2.173   4.401  0.1613  0.2792  0.1959
10771WAT     H144889   7.189   2.187   4.459  2.1837  1.4434  2.7412
10771WAT     H244890   7.273   2.077   4.396 -1.7717  0.0985 -0.6512
10771WAT    EPW44891   7.255   2.162   4.408  0.1729  0.4090  0.4199
10772WAT      O44892   0.591   2.983   0.275 -0.2821 -0.3889  0.0046
10772WAT     H144893   0.610   3.029   0.193 -1.3506  0.7902  0.3970
10772WAT     H244894   0.664   2.921   0.284  1.0823  1.0308 -0.6851
10772WAT    EPW44895   0.603   2.981   0.265 -0.2430 -0.0463 -0.0346
10773WAT      O44896   5.954   9.353   2.516 -0.2259  0.5055  0.8318
10773WAT     H144897   5.864   9.385   2.509 -0.9178 -1.4710  0.0213
10773WAT     H244898   6.004   9.430   2.542 -1.7999  2.1631 -0.7180
10773WAT    EPW44899   5.949   9.368   2.519 -0.5250  0.4635  0.5206
10774WAT      O44900   0.819   5.629   7.772  0.2613  0.3599 -0.1413
10774WAT     H144901   0.747   5.692   7.769  1.7834  2.1826 -0.6198
10774WAT     H244902   0.893   5.675   7.732  1.4803 -1.7539 -0.5029
10774WAT    EPW44903   0.819   5.643   7.766  0.6228  0.3214 -0.2520
10775WAT      O44904   3.264   3.303   4.736 -0.7121 -0.1456  0.2400
10775WAT     H144905   3.328   3.250   4.689 -1.0060  0.1501 -0.5103
10775WAT     H244906   3.179   3.264   4.714 -1.0311  1.3050 -1.2540
10775WAT    EPW44907   3.261   3.291   4.727 -0.7930  0.0846 -0.0558
10776WAT      O44908   5.613   4.392   4.242 -0.1623  0.1030  0.5794
10776WAT     H144909   5.591   4.302   4.217 -2.4486  0.2546  1.7836
10776WAT     H244910   5.558   4.446   4.184  0.5925  0.7135  0.4211
10776WAT    EPW44911   5.603   4.388   4.231 -0.3643  0.2036  0.7172
10777WAT      O44912  -3.590   7.413   5.602 -0.1688  0.3526  0.1398
10777WAT     H144913  -3.564   7.478   5.667  0.0149 -0.4067  0.8492
10777WAT     H244914  -3.522   7.345   5.608 -0.1178  0.2987 -0.8852
10777WAT    EPW44915  -3.577   7.412   5.611 -0.1379  0.2453  0.0982
10778WAT      O44916   1.301  10.001   7.690  1.0573 -0.0806  0.2184
10778WAT     H144917   1.300   9.907   7.676  1.0002 -0.2239  1.1572
10778WAT     H244918   1.386  10.029   7.656  0.3314 -0.1704 -1.7910
10778WAT    EPW44919   1.312   9.992   7.683  0.9541 -0.1116  0.0772
10779WAT      O44920  -1.195   5.961   5.340  0.3129 -0.3470 -0.2108
10779WAT     H144921  -1.101   5.963   5.320 -0.3498 -0.7430 -4.2748
10779WAT     H244922  -1.225   5.876   5.308 -1.6137  0.2342 -0.0846
10779WAT    EPW44923  -1.186   5.950   5.333 -0.0286 -0.3223 -0.7303
10780WAT      O44924   6.064   0.053   6.164 -0.1119 -0.1709  0.3850
10780WAT     H144925   6.023   0.016   6.242 -3.2355  0.5820 -0.7396
10780WAT     H244926   6.130  -0.011   6.138 -0.3255 -1.3390  2.5284
10780WAT    EPW44927   6.067   0.040   6.171 -0.5522 -0.2256  0.5195
10781WAT      O44928   2.739   6.844   5.289 -0.3872  0.4204  0.0371
10781WAT     H144929   2.734   6.931   5.328  0.0929  0.1867  0.6242
10781WAT     H244930   2.689   6.788   5.349 -2.8903  0.7056 -1.6052
10781WAT    EPW44931   2.731   6.848   5.302 -0.6540  0.4275 -0.1020
10782WAT      O44932  -2.962  10.149   4.979  0.1166 -0.4250  0.3663
10782WAT     H144933  -2.990  10.224   4.928 -1.8154 -1.5797 -0.4122
10782WAT     H244934  -2.916  10.093   4.917  1.9159  0.2403  1.0362
10782WAT    EPW44935  -2.960  10.151   4.964  0.0991 -0.4897  0.3521
10783WAT      O44936  -2.534   7.420   4.962 -0.5541 -0.1881  0.3118
10783WAT     H144937  -2.490   7.400   4.879  0.7660 -1.8030  1.3293
10783WAT     H244938  -2.627   7.423   4.940 -0.2359 -0.6955 -1.2138
10783WAT    EPW44939  -2.541   7.418   4.948 -0.3380 -0.4680  0.2449
10784WAT      O44940   2.901   2.735   6.928  0.0314 -0.4590 -0.1790
10784WAT     H144941   2.949   2.728   6.845  0.7898  0.4002  0.1808
10784WAT     H244942   2.821   2.782   6.905  0.6605  0.5923 -0.2631
10784WAT    EPW44943   2.897   2.740   6.914  0.2145 -0.2069 -0.1426
10785WAT      O44944  -4.729   4.518   5.243  0.4670 -0.0256  0.3374
10785WAT     H144945  -4.785   4.474   5.307 -0.0387  1.3221  0.8610
10785WAT     H244946  -4.670   4.450   5.212 -1.9294 -1.7110 -0.7995
10785WAT    EPW44947  -4.729   4.503   5.247  0.0842 -0.0703  0.2563
10786WAT      O44948   3.880   1.516   8.779  0.7919  0.2692  0.1407
10786WAT     H144949   3.788   1.521   8.752  0.7230 -0.6712  0.1732
10786WAT     H244950   3.879   1.461   8.857  1.6479 -2.1058 -1.3884
10786WAT    EPW44951   3.868   1.509   8.785  0.8959 -0.1682 -0.0567
10787WAT      O44952   0.995   8.106   0.042 -0.1075  0.3048 -0.3029
10787WAT     H144953   1.067   8.049   0.070  1.3046  0.7723 -2.7097
10787WAT     H244954   0.962   8.144   0.124  1.4068 -1.0190  1.0154
10787WAT    EPW44955   1.000   8.103   0.057  0.2785  0.1922 -0.4465
10788WAT      O44956   6.301   4.106   2.013 -0.2258 -0.1322 -0.5891
10788WAT     H144957   6.390   4.072   2.011  0.1778  0.5407  2.0694
10788WAT     H244958   6.284   4.136   1.924  2.2247 -0.1831 -1.1229
10788WAT    EPW44959   6.310   4.105   2.001  0.1504 -0.0501 -0.3090
10789WAT      O44960  -1.790   5.847   2.241 -0.2069 -0.3119  0.4672
10789WAT     H144961  -1.795   5.783   2.170 -0.6099  0.0071  0.2050
10789WAT     H244962  -1.879   5.848   2.278 -0.5416  0.9680 -0.3040
10789WAT    EPW44963  -1.803   5.839   2.237 -0.3042 -0.1011  0.3308
10790WAT      O44964  -3.057   6.186   2.514  0.2801  0.5875 -0.4778
10790WAT     H144965  -2.965   6.209   2.507  1.0605 -2.3004 -1.2593
10790WAT     H244966  -3.057   6.091   2.531 -2.5123  0.7956  1.5176
10790WAT    EPW44967  -3.045   6.176   2.515  0.0148  0.2341 -0.3177
10791WAT      O44968  -4.158   5.168   6.114 -0.2479 -0.1864  0.9835
10791WAT     H144969  -4.233   5.205   6.162 -1.5765 -0.3727 -0.8585
10791WAT     H244970  -4.081   5.207   6.157 -1.4606  1.9241  1.3982
10791WAT    EPW44971  -4.158   5.178   6.126 -0.5829  0.0675  0.7954
10792WAT      O44972   1.500   1.968   4.913 -0.2087 -0.4056  0.5104
10792WAT     H144973   1.562   1.908   4.953  0.8048 -0.8944 -1.6706
10792WAT     H244974   1.436   1.912   4.869  1.8012 -0.0976 -3.1744
10792WAT    EPW44975   1.499   1.953   4.913  0.1901 -0.4294 -0.2635
10793WAT      O44976  -4.442   2.957   8.043 -0.4248  0.2087  0.0884
10793WAT     H144977  -4.401   2.896   8.103 -0.9038 -0.8079 -0.5869
10793WAT     H244978  -4.536   2.946   8.058 -0.6275 -1.0946 -1.7618
10793WAT    EPW44979  -4.449   2.947   8.053 -0.5147 -0.0973 -0.2451
10794WAT      O44980  -2.263   2.082   5.590  0.0048 -0.3494  0.2901
10794WAT     H144981  -2.348   2.084   5.633  0.7012 -3.3652  2.0966
10794WAT     H244982  -2.256   2.167   5.547 -5.1306 -0.9200 -2.5027
10794WAT    EPW44983  -2.273   2.094   5.590 -0.5807 -0.8224  0.1600
10795WAT      O44984   4.089   5.520   4.969  0.5301 -0.5361 -0.4097
10795WAT     H144985   4.178   5.491   4.991  0.1386 -1.4331  0.0789
10795WAT     H244986   4.081   5.606   5.009  0.9033 -0.8136  0.2914
10795WAT    EPW44987   4.100   5.527   4.977  0.5276 -0.6912 -0.2527
10796WAT      O44988   1.070   0.653   0.775 -0.3326 -0.1486  0.2366
10796WAT     H144989   1.060   0.607   0.858 -2.0817  1.1847  0.8262
10796WAT     H244990   1.004   0.612   0.718  1.1880 -1.3934 -0.6964
10796WAT    EPW44991   1.060   0.641   0.778 -0.3628 -0.1369  0.1913
10797WAT      O44992   4.642   8.187   5.077 -0.1100 -0.0846  0.5001
10797WAT     H144993   4.727   8.182   5.120 -0.6980 -1.1362  1.5974
10797WAT     H244994   4.586   8.129   5.128 -1.2480 -0.1477 -0.7732
10797WAT    EPW44995   4.646   8.179   5.089 -0.3374 -0.2313  0.4768
10798WAT      O44996   3.529   2.711   5.830 -0.1680 -0.0511 -0.2223
10798WAT     H144997   3.532   2.654   5.753 -0.9528  0.1529 -0.4140
10798WAT     H244998   3.621   2.728   5.851  0.0597 -0.6440 -0.7155
10798WAT    EPW44999   3.542   2.706   5.822 -0.2415 -0.1024 -0.3126
10799WAT      O45000  -1.614   3.730   3.372  0.5453 -0.1095 -0.1428
10799WAT     H145001  -1.632   3.661   3.308  0.7284 -0.7731  0.5086
10799WAT     H245002  -1.525   3.713   3.402 -0.1309 -0.8883  1.5652
10799WAT    EPW45003  -1.605   3.718   3.368  0.4802 -0.2998  0.1684
10800WAT      O45004   6.381   1.031   2.536 -0.0780 -0.3030 -0.4450
10800WAT     H145005   6.296   1.022   2.494 -1.2459  1.4878  1.3443
10800WAT     H245006   6.373   0.984   2.619  0.7020 -0.1825 -0.2916
10800WAT    EPW45007   6.369   1.024   2.542 -0.1290 -0.0508 -0.1888
10801WAT      O45008  -1.584   4.585   8.201 -0.5430  0.0265  0.3089
10801WAT     H145009  -1.608   4.620   8.115  3.0789 -0.6852 -1.2138
10801WAT     H245010  -1.648   4.622   8.261 -1.1350  3.5643 -2.1643
10801WAT    EPW45011  -1.595   4.595   8.197 -0.1435  0.3994 -0.2179
10802WAT      O45012  -3.261   7.633   5.162  0.1008  0.1827  0.8918
10802WAT     H145013  -3.183   7.663   5.210  0.7017 -0.5860  0.4159
10802WAT     H245014  -3.291   7.557   5.211  2.5068 -2.5380 -1.5094
10802WAT    EPW45015  -3.254   7.627   5.175  0.4973 -0.2775  0.5124
10803WAT      O45016  -2.536   3.243   3.988 -0.0699  0.2307 -0.4654
10803WAT     H145017  -2.524   3.261   3.895 -1.0714  0.0028 -0.6541
10803WAT     H245018  -2.537   3.147   3.993  0.7854  0.2360 -0.1009
10803WAT    EPW45019  -2.535   3.233   3.976 -0.0892  0.2013 -0.4421
10804WAT      O45020  -5.928   8.187   6.125  0.5257  0.2172 -0.4163
10804WAT     H145021  -5.994   8.255   6.111  1.2661  0.8506 -0.8655
10804WAT     H245022  -5.896   8.165   6.038  1.8440  0.8678 -0.1216
10804WAT    EPW45023  -5.932   8.193   6.112  0.7973  0.3867 -0.4365
10805WAT      O45024   5.544   0.222   6.799  0.4407  0.1135 -0.5511
10805WAT     H145025   5.451   0.201   6.807 -0.2584  1.9976 -2.8235
10805WAT     H245026   5.583   0.189   6.881 -2.4396  0.6067  1.1455
10805WAT    EPW45027   5.537   0.215   6.811 -0.0312  0.4270 -0.6268
10806WAT      O45028   0.948   4.367   8.438  0.3929 -1.1426  0.2899
10806WAT     H145029   0.947   4.274   8.458  3.5010 -1.1607  0.9164
10806WAT     H245030   0.991   4.373   8.352 -0.7525 -0.3179 -0.2523
10806WAT    EPW45031   0.954   4.356   8.429  0.6518 -1.0362  0.3014
10807WAT      O45032   3.721   2.020   6.993 -0.3273  0.5568  0.2879
10807WAT     H145033   3.728   2.012   7.088  0.6913  0.9472  0.2596
10807WAT     H245034   3.642   2.073   6.979 -1.1028 -0.4207  0.8610
10807WAT    EPW45035   3.712   2.026   7.004 -0.2953  0.4793  0.3600
10808WAT      O45036   4.528   6.750   3.043 -0.2314 -0.4693 -0.1069
10808WAT     H145037   4.433   6.760   3.052 -0.1391  1.5959 -0.7484
10808WAT     H245038   4.555   6.828   2.995  1.9754 -0.3119  1.2597
10808WAT    EPW45039   4.519   6.762   3.038  0.0720 -0.1762 -0.0113
10809WAT      O45040   1.768   1.729   7.793 -0.2743 -0.4077 -0.1731
10809WAT     H145041   1.762   1.818   7.758  2.7845  0.5570  1.4145
10809WAT     H245042   1.677   1.698   7.794 -1.1535  1.5977 -3.3378
10809WAT    EPW45043   1.755   1.737   7.788  0.0132 -0.0159 -0.3810
10810WAT      O45044   2.847   9.814   7.537  0.4887  0.8780 -0.5180
10810WAT     H145045   2.899   9.753   7.590  2.1784  1.5316 -1.3716
10810WAT     H245046   2.813   9.760   7.465 -2.4269 -0.1887  1.4605
10810WAT    EPW45047   2.849   9.799   7.534  0.3270  0.8235 -0.3695
10811WAT      O45048   3.244  10.368   4.357  0.1904 -0.3301 -0.2407
10811WAT     H145049   3.259  10.274   4.369  1.2460 -0.3182 -1.2901
10811WAT     H245050   3.228  10.401   4.446  0.8068 -1.3359  0.2690
10811WAT    EPW45051   3.244  10.360   4.371  0.4109 -0.4611 -0.3119
10812WAT      O45052  -2.236  10.338   5.065  0.4351 -0.1139  0.4158
10812WAT     H145053  -2.208  10.247   5.071 -0.6461 -0.6811 -1.8080
10812WAT     H245054  -2.222  10.361   4.973 -0.8642  1.4133  0.5455
10812WAT    EPW45055  -2.231  10.329   5.053  0.1210  0.0124  0.1397
10813WAT      O45056   4.993   6.647   3.238 -0.6484 -0.8081 -0.5254
10813WAT     H145057   5.007   6.563   3.281 -0.7678 -0.6800 -0.2336
10813WAT     H245058   4.914   6.682   3.278 -0.2494 -0.2702 -0.1854
10813WAT    EPW45059   4.985   6.641   3.249 -0.6113 -0.7203 -0.4420
10814WAT      O45060  -0.680   4.736   3.212 -0.4951 -0.0954 -0.8530
10814WAT     H145061  -0.726   4.750   3.294 -0.0829  1.7549 -0.8890
10814WAT     H245062  -0.588   4.756   3.232 -0.3464  0.1116 -1.6959
10814WAT    EPW45063  -0.674   4.740   3.225 -0.4211  0.1760 -0.9689
10815WAT      O45064  -0.554   7.865   4.521  0.0394  0.2000 -0.4744
10815WAT     H145065  -0.509   7.910   4.592 -0.1726 -0.9009  0.3979
10815WAT     H245066  -0.579   7.934   4.459  1.6920  0.9894 -0.3072
10815WAT    EPW45067  -0.551   7.880   4.522  0.2294  0.1590 -0.3371
10816WAT      O45068  -7.412   7.220   8.187 -0.3012  0.2166  0.3073
10816WAT     H145069  -7.317   7.214   8.177 -0.4228  1.0121 -1.7344
10816WAT     H245070  -7.434   7.152   8.250  1.7516  0.8386  1.7860
10816WAT    EPW45071  -7.403   7.210   8.194 -0.0467  0.4034  0.2332
10817WAT      O45072   2.699   9.679   2.605  0.0676 -0.1712 -0.3485
10817WAT     H145073   2.728   9.710   2.691  2.1607 -1.9269 -0.3295
10817WAT     H245074   2.695   9.583   2.614  1.7672 -0.5432 -2.5282
10817WAT    EPW45075   2.702   9.670   2.617  0.5678 -0.4516 -0.6334
10818WAT      O45076   0.248   5.643   3.839  0.5134  0.8754  0.7511
10818WAT     H145077   0.240   5.626   3.745  0.9104 -1.0959  1.0283
10818WAT     H245078   0.173   5.599   3.878  1.8590 -0.7713  1.5807
10818WAT    EPW45079   0.237   5.635   3.832  0.7432  0.3982  0.8970
10819WAT      O45080   1.962   4.514   0.279 -0.2785 -0.3929  0.2769
10819WAT     H145081   2.037   4.552   0.326 -0.4100  0.4394 -0.1579
10819WAT     H245082   1.886   4.545   0.328 -0.3847 -0.0995 -0.0614
10819WAT    EPW45083   1.962   4.523   0.292 -0.3098 -0.2444  0.1750
10820WAT      O45084   0.289   6.964   2.195 -0.0594 -0.2072 -0.5129
10820WAT     H145085   0.364   7.015   2.227  0.1714 -1.1490  0.5455
10820WAT     H245086   0.323   6.875   2.188 -0.4566 -0.2400 -2.3202
10820WAT    EPW45087   0.304   6.959   2.198 -0.0814 -0.3357 -0.6117
10821WAT      O45088   4.539   8.656   1.464 -0.0687  0.2665  0.4690
10821WAT     H145089   4.526   8.750   1.451  3.7328  0.8419 -0.3462
10821WAT     H245090   4.570   8.624   1.380 -2.2962 -2.0490  0.4094
10821WAT    EPW45091   4.542   8.664   1.451  0.1388  0.0372  0.3536
10822WAT      O45092  -3.280   0.790   6.401 -0.0026 -0.5656  0.6471
10822WAT     H145093  -3.349   0.850   6.373  0.2061 -0.5841  0.0726
10822WAT     H245094  -3.299   0.709   6.353  1.5443  0.0271 -1.0960
10822WAT    EPW45095  -3.291   0.787   6.391  0.2290 -0.4899  0.3417
10823WAT      O45096  -3.029   1.990   7.875 -0.5070  0.7583 -0.0838
10823WAT     H145097  -2.968   1.922   7.846 -1.4478 -0.4054  0.5832
10823WAT     H245098  -2.982   2.072   7.858  0.1942  0.0238 -2.0026
10823WAT    EPW45099  -3.014   1.992   7.869 -0.5386  0.5079 -0.2489
10824WAT      O45100  -1.145   4.217   7.329 -0.1913 -0.1781 -0.1330
10824WAT     H145101  -1.070   4.249   7.278  1.3324  0.8258  2.4861
10824WAT     H245102  -1.183   4.296   7.367  0.7007 -0.9962  2.7011
10824WAT    EPW45103  -1.140   4.232   7.328  0.1273 -0.1538  0.5863
10825WAT      O45104   2.110   7.453   5.963 -0.8599  0.2683 -0.1123
10825WAT     H145105   2.178   7.465   5.896 -1.0755  0.3440 -0.3178
10825WAT     H245106   2.073   7.540   5.976 -0.3668  0.3782  0.5939
10825WAT    EPW45107   2.114   7.466   5.956 -0.8233  0.2928 -0.0463
10826WAT      O45108   1.145   2.276   1.003 -0.5536  0.0649  0.4634
10826WAT     H145109   1.219   2.326   0.968 -2.0188  2.0212 -0.0014
10826WAT     H245110   1.186   2.205   1.052  1.6483  1.3418  0.6185
10826WAT    EPW45111   1.161   2.273   1.005 -0.4564  0.4914  0.4225
10827WAT      O45112  -8.746  10.098   8.921  0.3804 -0.0177  0.3264
10827WAT     H145113  -8.681  10.127   8.856  1.4188  1.5288  1.9584
10827WAT     H245114  -8.732  10.004   8.929  1.8663  0.1523  0.0043
10827WAT    EPW45115  -8.735  10.089   8.913  0.7133  0.2089  0.4992
10828WAT      O45116  -2.191   0.660   5.833 -0.3289 -0.0850 -0.6918
10828WAT     H145117  -2.124   0.599   5.803 -1.5165 -1.2428 -1.0792
10828WAT     H245118  -2.181   0.737   5.776  0.5811 -0.2725 -0.8031
10828WAT    EPW45119  -2.181   0.662   5.822 -0.3655 -0.2625 -0.7577
10829WAT      O45120  -4.811  10.326   6.805 -0.5343  0.4320 -0.4091
10829WAT     H145121  -4.780  10.309   6.717  2.0468  1.8598  0.1420
10829WAT     H245122  -4.826  10.420   6.808 -1.7328  0.2520  0.3829
10829WAT    EPW45123  -4.809  10.336   6.794 -0.3519  0.5965 -0.2320
10830WAT      O45124  -2.334   2.629   8.114 -0.2787 -0.0987 -0.2387
10830WAT     H145125  -2.257   2.645   8.059 -0.0067  0.4604  0.2862
10830WAT     H245126  -2.408   2.652   8.060 -0.1855 -1.9126 -1.2308
10830WAT    EPW45127  -2.333   2.634   8.100 -0.2306 -0.2643 -0.3009
10831WAT      O45128  -0.178   6.984   5.669 -0.0981  0.3730 -0.2379
10831WAT     H145129  -0.147   7.033   5.592 -0.5355  2.0815  0.6305
10831WAT     H245130  -0.154   7.039   5.743  0.6011 -1.3962  0.9055
10831WAT    EPW45131  -0.170   6.998   5.668 -0.0636  0.3650  0.0274
10832WAT      O45132   1.965  10.274   1.163  0.0266  0.1993  0.1786
10832WAT     H145133   2.005  10.193   1.132  1.4702  0.7017  0.6481
10832WAT     H245134   2.037  10.323   1.204 -0.6773  1.9758 -0.5784
10832WAT    EPW45135   1.980  10.270   1.164  0.1242  0.4997  0.1407
10833WAT      O45136   3.437   2.257   1.348 -0.0996  0.4060 -0.2110
10833WAT     H145137   3.433   2.232   1.440  0.5471  0.2018 -0.2296
10833WAT     H245138   3.346   2.267   1.321 -0.3278 -0.5846  0.1669
10833WAT    EPW45139   3.424   2.255   1.356 -0.0445  0.2486 -0.1636
10834WAT      O45140   6.272   3.284   0.229  0.0317 -0.0038 -0.3627
10834WAT     H145141   6.287   3.377   0.215 -2.0108  0.8499  2.2971
10834WAT     H245142   6.360   3.246   0.234  0.9111  1.4129 -2.9867
10834WAT    EPW45143   6.286   3.291   0.228 -0.1218  0.2956 -0.3580
10835WAT      O45144   5.568   1.217   6.462  0.2140  0.5250 -0.0205
10835WAT     H145145   5.630   1.147   6.441 -1.0442 -0.4635 -0.5130
10835WAT     H245146   5.554   1.207   6.557 -0.5562 -0.4163 -0.2156
10835WAT    EPW45147   5.575   1.206   6.472 -0.0536  0.2704 -0.1111
10836WAT      O45148  -5.133   8.229   7.367 -0.4838  0.2589 -0.3631
10836WAT     H145149  -5.128   8.219   7.462 -1.0549 -1.2216 -0.4752
10836WAT     H245150  -5.167   8.146   7.335 -1.2373  1.0697 -1.7947
10836WAT    EPW45151  -5.137   8.217   7.375 -0.6585  0.1707 -0.5667
10837WAT      O45152  -4.363   1.743   7.226  0.1299  0.1127 -0.2123
10837WAT     H145153  -4.411   1.821   7.199 -0.9920 -0.8982 -1.2548
10837WAT     H245154  -4.295   1.776   7.285 -1.5627  1.6370  1.0000
10837WAT    EPW45155  -4.360   1.758   7.230 -0.2413  0.1804 -0.1898
10838WAT      O45156   0.036  10.029   2.504 -0.2714 -0.2869  0.0891
10838WAT     H145157   0.120  10.016   2.548  0.5407 -2.7989 -1.9740
10838WAT     H245158  -0.024   9.971   2.551 -0.3331 -0.1226  0.2144
10838WAT    EPW45159   0.039  10.020   2.516 -0.1725 -0.5965 -0.1665
10839WAT      O45160   4.922   9.507   0.902 -0.4707  0.0988  0.4940
10839WAT     H145161   4.954   9.424   0.866 -2.1300 -0.1146 -0.6229
10839WAT     H245162   5.001   9.556   0.925  0.8875  0.6347 -4.3006
10839WAT    EPW45163   4.936   9.503   0.900 -0.5107  0.1411 -0.2857
10840WAT      O45164   5.357   4.063   6.225 -0.5317 -0.5803  0.1072
10840WAT     H145165   5.449   4.084   6.208 -0.8492  0.2771 -0.6570
10840WAT     H245166   5.323   4.036   6.140 -1.3844  0.7281 -0.0020
10840WAT    EPW45167   5.364   4.063   6.212 -0.6862 -0.2947 -0.0079
10841WAT      O45168   5.083   1.847   4.127 -0.0889  0.6164  0.0931
10841WAT     H145169   5.114   1.769   4.082  0.8534  1.7335 -1.2766
10841WAT     H245170   5.138   1.855   4.205  0.9318  0.8035 -0.6324
10841WAT    EPW45171   5.094   1.838   4.131  0.1700  0.7884 -0.1833
10842WAT      O45172  -3.508   1.261   8.033 -0.2543 -1.1268 -0.6048
10842WAT     H145173  -3.575   1.327   8.049 -0.9015 -1.6776 -0.9769
10842WAT     H245174  -3.434   1.309   7.997 -1.4129 -0.8379 -2.7426
10842WAT    EPW45175  -3.507   1.276   8.030 -0.4925 -1.1613 -0.9356
10843WAT      O45176   1.819   7.555   6.850 -0.1032  0.9433  0.5572
10843WAT     H145177   1.727   7.530   6.855 -0.0491  0.4708 -0.5713
10843WAT     H245178   1.855   7.532   6.935 -0.6374 -0.4856  0.4168
10843WAT    EPW45179   1.811   7.549   6.862 -0.1665  0.6926  0.3898
10844WAT      O45180   6.649   1.796   2.179 -0.1780 -0.3415 -0.3811
10844WAT     H145181   6.628   1.772   2.269  0.1673 -0.6666 -0.3835
10844WAT     H245182   6.653   1.712   2.133  1.6597 -0.3629 -0.2696
10844WAT    EPW45183   6.647   1.781   2.185  0.1099 -0.3872 -0.3667
10845WAT      O45184   8.582   0.542   1.569 -0.5994  0.2362 -0.0977
10845WAT     H145185   8.614   0.627   1.538  0.3444  0.3972  1.2124
10845WAT     H245186   8.638   0.522   1.644 -1.7403 -0.8823  0.4854
10845WAT    EPW45187   8.594   0.550   1.575 -0.6251  0.1099  0.1521
10846WAT      O45188   3.533   9.707   1.219  0.3500 -0.9079 -0.0651
10846WAT     H145189   3.499   9.621   1.245  1.0258 -0.8346  1.1349
10846WAT     H245190   3.572   9.742   1.299  2.3195 -0.5581 -1.1254
10846WAT    EPW45191   3.534   9.700   1.233  0.6989 -0.8526 -0.0467
10847WAT      O45192   1.060   5.797   0.904  0.2504  0.0183  0.0883
10847WAT     H145193   1.097   5.728   0.959 -1.6923 -1.0458  0.1357
10847WAT     H245194   1.070   5.764   0.815  2.1488  1.1308 -0.1708
10847WAT    EPW45195   1.066   5.784   0.899  0.2445  0.0246  0.0604
10848WAT      O45196   3.129   1.185   8.093 -0.0873 -0.1768  1.0600
10848WAT     H145197   3.057   1.219   8.147  2.1760  0.5894  3.8193
10848WAT     H245198   3.149   1.100   8.130 -0.8715 -1.3737 -1.0928
10848WAT    EPW45199   3.122   1.179   8.105  0.1078 -0.2335  1.1401
10849WAT      O45200   8.263   4.885   1.512  0.7098  0.6011  0.4239
10849WAT     H145201   8.296   4.918   1.596  1.6562  1.2843 -0.1856
10849WAT     H245202   8.275   4.958   1.452  0.7583 -0.1293 -0.4754
10849WAT    EPW45203   8.269   4.899   1.515  0.8411  0.5949  0.2249
10850WAT      O45204  -0.069   4.899   7.340  0.3569 -0.9595 -0.3307
10850WAT     H145205  -0.143   4.954   7.364  1.2303 -0.0884  0.4249
10850WAT     H245206  -0.104   4.810   7.342  0.0359 -0.8833  3.0809
10850WAT    EPW45207  -0.083   4.895   7.343  0.4297 -0.8345  0.2189
10851WAT      O45208   3.299   2.402   7.784  0.0121 -0.2322  0.0955
10851WAT     H145209   3.241   2.373   7.855 -0.6551 -2.3892 -1.2141
10851WAT     H245210   3.256   2.371   7.704  3.0900 -2.3468 -0.9481
10851WAT    EPW45211   3.285   2.394   7.783  0.3301 -0.7956 -0.2151
10852WAT      O45212   2.461   4.712   2.221 -0.5529 -0.6800  0.1890
10852WAT     H145213   2.474   4.803   2.198 -1.9283 -0.6685 -0.6476
10852WAT     H245214   2.369   4.695   2.201 -0.2263 -2.3556 -0.0660
10852WAT    EPW45215   2.451   4.722   2.215 -0.6913 -0.8996  0.0451
10853WAT      O45216   5.327   8.299   3.586 -0.2940 -0.2455 -0.4870
10853WAT     H145217   5.387   8.225   3.575 -0.5058 -0.3637 -0.8713
10853WAT     H245218   5.256   8.264   3.639  0.2223  0.0365  0.4000
10853WAT    EPW45219   5.326   8.285   3.591 -0.2537 -0.2241 -0.4207
10854WAT      O45220  -2.263   3.262   5.842 -0.3045 -0.2378 -0.6672
10854WAT     H145221  -2.279   3.232   5.753 -3.3363 -1.4797  0.1435
10854WAT     H245222  -2.296   3.352   5.843  0.9215  0.2348 -1.0612
10854WAT    EPW45223  -2.270   3.270   5.831 -0.5428 -0.3393 -0.6123
10855WAT      O45224  -6.634   7.536   7.455 -0.6436  0.3542 -0.5178
10855WAT     H145225  -6.639   7.614   7.399 -1.3737  0.9187  0.2898
10855WAT     H245226  -6.636   7.571   7.544  2.7182 -0.3751 -0.0308
10855WAT    EPW45227  -6.635   7.551   7.459 -0.2964  0.3326 -0.3469
10856WAT      O45228   0.874   3.321   3.052 -0.0926 -0.0685  0.4363
10856WAT     H145229   0.919   3.301   3.134 -0.2166  0.2144  0.5763
10856WAT     H245230   0.797   3.265   3.052  0.3625 -0.7196  0.0921
10856WAT    EPW45231   0.870   3.311   3.063 -0.0489 -0.1172  0.4094
10857WAT      O45232  -1.814   3.073   8.775 -0.2718 -0.0140 -0.5055
10857WAT     H145233  -1.903   3.071   8.741 -0.6505  0.0205  0.4634
10857WAT     H245234  -1.817   3.020   8.854  0.9283 -1.3533 -1.2895
10857WAT    EPW45235  -1.826   3.066   8.781 -0.1635 -0.1861 -0.4811
10858WAT      O45236   4.389   3.235   8.369 -0.0532  0.0719  0.8970
10858WAT     H145237   4.311   3.201   8.413 -0.1289  0.5807  1.1691
10858WAT     H245238   4.458   3.174   8.393 -0.7949 -1.7183 -1.2155
10858WAT    EPW45239   4.388   3.223   8.378 -0.1609 -0.0972  0.6537
10859WAT      O45240  -2.396   9.610   4.525  0.1777 -0.4879 -0.1425
10859WAT     H145241  -2.360   9.591   4.438  0.1969 -0.8563 -0.0589
10859WAT     H245242  -2.319   9.624   4.580  0.1517  0.3569 -0.3141
10859WAT    EPW45243  -2.381   9.609   4.520  0.1767 -0.4249 -0.1540
10860WAT      O45244  -0.969   5.844   1.336  0.5144  0.0435  0.2196
10860WAT     H145245  -0.916   5.802   1.404  3.6083  1.1505 -1.3399
10860WAT     H245246  -1.011   5.771   1.291  1.0912 -0.9378  1.2101
10860WAT    EPW45247  -0.968   5.829   1.339  0.9986  0.0598  0.1446
10861WAT      O45248  -1.649   2.763   2.611  0.3836 -0.4276 -0.4029
10861WAT     H145249  -1.622   2.854   2.623  0.3502 -0.7179  2.4804
10861WAT     H245250  -1.596   2.714   2.673 -0.8655 -2.1389 -0.6226
10861WAT    EPW45251  -1.639   2.769   2.620  0.2145 -0.6915 -0.0517
10862WAT      O45252  -1.699   2.003   3.324  0.0544 -0.1251  0.1280
10862WAT     H145253  -1.623   1.975   3.376 -0.0643  0.3823  0.5927
10862WAT     H245254  -1.674   1.987   3.233  1.2730  1.2834  0.1680
10862WAT    EPW45255  -1.686   1.997   3.319  0.1994  0.1276  0.1945
10863WAT      O45256   4.949   0.207   8.677 -0.0946 -0.4475 -0.4318
10863WAT     H145257   4.942   0.299   8.704  2.2633 -1.1590  3.3018
10863WAT     H245258   4.914   0.206   8.588  1.6939  4.4797 -1.5434
10863WAT    EPW45259   4.944   0.219   8.669  0.4523  0.1086 -0.0863
10864WAT      O45260  -5.702   7.383   7.649  0.4540 -1.0599 -0.2402
10864WAT     H145261  -5.640   7.455   7.660  0.9282 -1.7368  2.0167
10864WAT     H245262  -5.649   7.304   7.664  0.1682 -2.0283 -3.5836
10864WAT    EPW45263  -5.687   7.382   7.653  0.4790 -1.2770 -0.3834
10865WAT      O45264   1.709   2.151   5.691  0.1975  0.3553  0.6378
10865WAT     H145265   1.725   2.102   5.772 -0.0826 -0.9564 -0.0690
10865WAT     H245266   1.614   2.158   5.686  0.2544  2.1092  1.3565
10865WAT    EPW45267   1.699   2.145   5.701  0.1680  0.4137  0.6392
10866WAT      O45268   1.532   1.530   6.016 -0.4206 -0.5474  0.6120
10866WAT     H145269   1.546   1.445   6.058 -1.1851 -0.2695  1.4777
10866WAT     H245270   1.452   1.563   6.057 -0.3857  0.3832 -0.0544
10866WAT    EPW45271   1.523   1.523   6.027 -0.5168 -0.3880  0.6380
10867WAT      O45272   0.735   8.290   0.363 -0.3297 -0.6988 -0.0541
10867WAT     H145273   0.683   8.337   0.298  1.1947 -1.2387 -1.7527
10867WAT     H245274   0.825   8.297   0.330  0.1029 -3.8238  0.2119
10867WAT    EPW45275   0.740   8.297   0.350 -0.0716 -1.1816 -0.2431
10868WAT      O45276   2.270   0.958   0.841 -0.3716  0.5410  0.1964
10868WAT     H145277   2.209   1.023   0.876 -1.6122 -1.3097  1.6732
10868WAT     H245278   2.294   0.905   0.917  0.1646 -1.0661 -1.0514
10868WAT    EPW45279   2.265   0.960   0.856 -0.4646  0.0849  0.2266
10869WAT      O45280   0.497   4.789   7.294 -0.8962 -0.2046 -0.3517
10869WAT     H145281   0.438   4.854   7.331 -0.2257 -0.9781  2.3093
10869WAT     H245282   0.575   4.839   7.268 -0.7409  0.1831  0.8254
10869WAT    EPW45283   0.500   4.804   7.295 -0.7873 -0.2553  0.1545
10870WAT      O45284  -0.888   2.546   5.436  0.1928 -0.2949  0.0603
10870WAT     H145285  -0.970   2.513   5.474 -0.0600 -0.3989 -0.5574
10870WAT     H245286  -0.902   2.640   5.428 -1.3063 -0.6673 -3.3040
10870WAT    EPW45287  -0.901   2.554   5.440 -0.0383 -0.3577 -0.4649
10871WAT      O45288   0.467   8.103   3.172  0.4695  0.0615  0.3629
10871WAT     H145289   0.515   8.110   3.089 -3.6567  0.8878 -2.2562
10871WAT     H245290   0.487   8.185   3.217 -1.2398  2.2491 -2.4684
10871WAT    EPW45291   0.476   8.115   3.167 -0.3002  0.4587 -0.3560
10872WAT      O45292   5.424   0.665   7.877 -0.3945  0.0085 -0.2496
10872WAT     H145293   5.486   0.685   7.946 -0.8328  2.3258 -0.4598
10872WAT     H245294   5.462   0.590   7.831  0.5226 -0.7653  1.6821
10872WAT    EPW45295   5.437   0.657   7.880 -0.3314  0.2121 -0.0224
10873WAT      O45296   3.658   2.518   0.211  0.5761  0.6182 -0.2835
10873WAT     H145297   3.576   2.485   0.248  0.2850  1.6279  0.0123
10873WAT     H245298   3.632   2.595   0.160  1.5874  2.6923  2.0796
10873WAT    EPW45299   3.644   2.524   0.209  0.6711  1.0248  0.0672
10874WAT      O45300  -2.092   8.896   6.678 -0.1499  0.3737  0.5137
10874WAT     H145301  -2.030   8.856   6.617 -0.9740  2.2961 -1.7463
10874WAT     H245302  -2.071   8.857   6.763 -0.0687 -3.8635 -1.1668
10874WAT    EPW45303  -2.081   8.885   6.681 -0.2478  0.0687 -0.0060
10875WAT      O45304   5.084   5.117   6.457 -0.6153  0.2162 -0.3840
10875WAT     H145305   5.116   5.183   6.395 -0.1921 -0.5486 -0.9897
10875WAT     H245306   5.092   5.034   6.411 -0.6014 -0.3383  0.5803
10875WAT    EPW45307   5.090   5.115   6.443 -0.5579  0.0422 -0.3366
10876WAT      O45308   2.171   0.862   7.343  0.3317 -0.4594  0.2399
10876WAT     H145309   2.176   0.928   7.274  0.0181 -0.6308  0.0509
10876WAT     H245310   2.086   0.876   7.384 -0.3091 -1.5534 -0.6338
10876WAT    EPW45311   2.160   0.872   7.339  0.2058 -0.6263  0.0999
10877WAT      O45312  -1.242   8.428   3.146  0.1198 -0.0166 -0.6424
10877WAT     H145313  -1.171   8.366   3.163 -0.7891 -0.8634  0.2663
10877WAT     H245314  -1.215   8.475   3.067  0.0903 -2.7796 -2.4554
10877WAT    EPW45315  -1.229   8.426   3.138 -0.0040 -0.4926 -0.7616
10878WAT      O45316   5.561   1.963   5.034 -0.0581  0.4728  0.3677
10878WAT     H145317   5.548   1.881   4.987 -0.0476  0.4303  0.4389
10878WAT     H245318   5.605   1.938   5.115  2.7172  0.8539 -0.9031
10878WAT    EPW45319   5.565   1.949   5.039  0.3092  0.5174  0.2096
10879WAT      O45320   0.089   2.615   1.752 -0.8316 -0.2693 -0.3605
10879WAT     H145321   0.112   2.697   1.794  2.0249 -2.2215  2.3438
10879WAT     H245322   0.163   2.596   1.694 -0.1474 -2.0843  1.0276
10879WAT    EPW45323   0.101   2.623   1.750 -0.3646 -0.7662  0.1792
10880WAT      O45324   3.416   9.268   1.686 -0.0985 -0.4345 -0.3233
10880WAT     H145325   3.423   9.361   1.664 -0.9814 -0.0840  0.7441
10880WAT     H245326   3.491   9.252   1.744  1.0801 -0.8623 -1.9064
10880WAT    EPW45327   3.427   9.278   1.691 -0.0596 -0.4449 -0.3913
10881WAT      O45328  -1.957   8.476   3.590 -0.0675 -0.2167 -0.0265
10881WAT     H145329  -1.985   8.567   3.594  0.7782  0.0658 -0.3264
10881WAT     H245330  -1.921   8.457   3.677 -1.8630 -0.8253  0.6287
10881WAT    EPW45331  -1.956   8.485   3.602 -0.1928 -0.2599  0.0204
10882WAT      O45332  -3.759   3.813   5.380  0.3911 -0.0973 -0.4892
10882WAT     H145333  -3.750   3.886   5.319  0.2759  0.3212 -0.0022
10882WAT     H245334  -3.836   3.765   5.348 -1.2751  1.5829  0.8271
10882WAT    EPW45335  -3.768   3.816   5.368  0.1562  0.1795 -0.2513
10883WAT      O45336  -1.727   6.936   2.325  0.3034  0.0148  1.0356
10883WAT     H145337  -1.732   6.855   2.275 -0.6705 -0.4087  1.8062
10883WAT     H245338  -1.660   6.988   2.279 -1.4533  0.1997 -1.4909
10883WAT    EPW45339  -1.719   6.932   2.312 -0.0568 -0.0165  0.8041
10884WAT      O45340   4.866   5.865   1.376  0.1724 -0.4951 -0.3314
10884WAT     H145341   4.913   5.812   1.312 -0.0958 -0.5898 -0.4520
10884WAT     H245342   4.890   5.826   1.461  0.9695 -0.0182 -0.3255
10884WAT    EPW45343   4.875   5.853   1.379  0.2422 -0.4447 -0.3465
10885WAT      O45344   5.724   1.301   1.919 -0.1480  0.6529 -0.0709
10885WAT     H145345   5.706   1.315   1.826 -3.5865 -0.9320  0.2106
10885WAT     H245346   5.650   1.340   1.964  0.4294 -0.3709  1.8912
10885WAT    EPW45347   5.712   1.308   1.913 -0.5255  0.3088  0.2250
10886WAT      O45348   0.653   4.309   4.806  0.6322  0.3510  0.5873
10886WAT     H145349   0.671   4.221   4.838  0.4095  0.1405  0.1483
10886WAT     H245350   0.718   4.323   4.737  1.6087  1.0993  1.6415
10886WAT    EPW45351   0.664   4.299   4.801  0.7316  0.4220  0.6685
10887WAT      O45352   0.604   1.710   2.736 -0.0377  0.3524  0.6877
10887WAT     H145353   0.632   1.741   2.650 -2.1690  2.7103  0.7226
10887WAT     H245354   0.662   1.637   2.755  0.2248 -0.5722 -2.9220
10887WAT    EPW45355   0.615   1.705   2.727 -0.2842  0.5415  0.2162
10888WAT      O45356  -5.588   6.284   8.311 -0.6191  0.4776  0.4981
10888WAT     H145357  -5.612   6.376   8.305 -1.4321  0.2836  0.6301
10888WAT     H245358  -5.622   6.255   8.396 -5.1140 -1.2231 -1.5794
10888WAT    EPW45359  -5.596   6.292   8.322 -1.3194  0.2277  0.2418
10889WAT      O45360  -1.604   7.515   7.701  0.4153  0.4340  0.2844
10889WAT     H145361  -1.590   7.479   7.788  0.2273 -1.1266 -0.3081
10889WAT     H245362  -1.517   7.516   7.661  0.2505 -0.5253 -0.1216
10889WAT    EPW45363  -1.591   7.511   7.707  0.3688  0.1018  0.1526
10890WAT      O45364  -2.090   7.413   0.190 -0.1038  0.3680  0.1098
10890WAT     H145365  -2.136   7.493   0.214  0.7847  0.9114  0.0558
10890WAT     H245366  -2.027   7.441   0.123  1.4124 -0.0275  1.3115
10890WAT    EPW45367  -2.088   7.427   0.184  0.2134  0.3874  0.2612
10891WAT      O45368   2.509   2.328   4.437  0.1218  0.2240 -0.0310
10891WAT     H145369   2.454   2.282   4.374  1.7512 -0.6313 -0.8643
10891WAT     H245370   2.566   2.384   4.383 -0.7669  2.1149  0.8782
10891WAT    EPW45371   2.509   2.330   4.421  0.2195  0.3605 -0.0207
10892WAT      O45372   1.911   4.760   8.199  0.2816 -0.2780  0.3679
10892WAT     H145373   1.890   4.700   8.271 -0.5878 -0.1290  0.2555
10892WAT     H245374   1.975   4.712   8.146 -0.8582 -1.3871 -0.0669
10892WAT    EPW45375   1.916   4.746   8.202  0.0166 -0.4046  0.2956
10893WAT      O45376  -0.459   1.842   1.326 -0.4111 -0.5376  0.4860
10893WAT     H145377  -0.432   1.766   1.275  1.7091  1.0281 -0.8671
10893WAT     H245378  -0.378   1.877   1.363 -1.4548  0.5211  1.8954
10893WAT    EPW45379  -0.445   1.836   1.324 -0.2691 -0.1915  0.4934
10894WAT      O45380   0.638   4.445   0.906 -0.2152  0.4005  0.5822
10894WAT     H145381   0.579   4.400   0.845 -1.4165  0.2538  1.8160
10894WAT     H245382   0.652   4.531   0.867  0.2280 -0.1876 -0.6258
10894WAT    EPW45383   0.632   4.450   0.893 -0.3152  0.3037  0.5856
10895WAT      O45384  -1.384   8.189   3.813  0.5799  0.2880 -0.0123
10895WAT     H145385  -1.310   8.164   3.757  1.3034  0.1822  0.9745
10895WAT     H245386  -1.451   8.220   3.751  1.7561  1.1878 -0.8725
10895WAT    EPW45387  -1.383   8.190   3.797  0.8305  0.3924  0.0044
10896WAT      O45388  -1.628   7.417   2.882 -0.2838 -0.4703 -0.3099
10896WAT     H145389  -1.720   7.407   2.907 -0.4937  0.1488 -0.8028
10896WAT     H245390  -1.631   7.472   2.803  0.5924  0.6178  0.3945
10896WAT    EPW45391  -1.641   7.423   2.875 -0.1959 -0.2451 -0.2820
10897WAT      O45392   2.249   7.524   6.947  0.5146 -0.0065 -0.7239
10897WAT     H145393   2.243   7.611   6.907 -0.4735  0.7840  1.0179
10897WAT     H245394   2.225   7.464   6.877 -2.9932  1.4257 -0.9770
10897WAT    EPW45395   2.245   7.528   6.933 -0.0783  0.2866 -0.5274
10898WAT      O45396   2.744   7.434   6.094  0.5200  0.8201 -0.3521
10898WAT     H145397   2.833   7.424   6.062  0.8688  0.9858  0.5615
10898WAT     H245398   2.750   7.423   6.189 -0.7114 -1.0963 -0.4430
10898WAT    EPW45399   2.756   7.432   6.102  0.4036  0.5891 -0.2437
10899WAT      O45400  -1.635   3.206   1.179 -0.5464 -0.4309 -0.2469
10899WAT     H145401  -1.606   3.116   1.198 -1.0341 -1.0066 -2.0588
10899WAT     H245402  -1.723   3.210   1.216 -0.3479 -0.5376  0.2488
10899WAT    EPW45403  -1.643   3.194   1.187 -0.5845 -0.5209 -0.4206
10900WAT      O45404  -4.571   4.054   8.525 -0.2308  1.0148  0.4546
10900WAT     H145405  -4.567   3.984   8.459  0.4994  2.6066 -1.2794
10900WAT     H245406  -4.643   4.028   8.583  1.0601 -2.0103  0.9251
10900WAT    EPW45407  -4.580   4.041   8.524  0.0358  0.8256  0.2885
10901WAT      O45408   0.263  10.000   2.659  0.2358  0.1346  0.8677
10901WAT     H145409   0.312  10.060   2.715  1.4020  1.1647 -1.1397
10901WAT     H245410   0.330   9.949   2.613 -0.6542 -0.3572  0.0692
10901WAT    EPW45411   0.278  10.001   2.660  0.2722  0.2055  0.4976
10902WAT      O45412   3.673   7.980   0.753  0.8376  0.2978  0.0450
10902WAT     H145413   3.663   7.898   0.802  2.5122 -0.5209 -0.8837
10902WAT     H245414   3.658   7.954   0.662 -1.5781  1.6541 -0.0301
10902WAT    EPW45415   3.670   7.966   0.747  0.7398  0.3686 -0.0874
10903WAT      O45416   3.167   0.648   4.461 -0.5475 -0.3100 -0.5653
10903WAT     H145417   3.085   0.682   4.426 -0.0676 -1.2421 -2.7742
10903WAT     H245418   3.230   0.657   4.389  1.6238  1.3060  1.3768
10903WAT    EPW45419   3.165   0.653   4.447 -0.1979 -0.2198 -0.6003
10904WAT      O45420   4.812   4.607   0.844 -0.1557  0.3829 -0.4440
10904WAT     H145421   4.757   4.611   0.766  0.3136 -1.0403 -0.8775
10904WAT     H245422   4.890   4.559   0.816  0.5268  0.8416  0.6119
10904WAT    EPW45423   4.815   4.601   0.830 -0.0036  0.2558 -0.3619
10905WAT      O45424   2.207   2.427   6.131 -0.4450 -0.0311  0.0381
10905WAT     H145425   2.290   2.388   6.104 -0.2887  1.3919 -1.7786
10905WAT     H245426   2.185   2.383   6.212  1.8608 -0.7670  0.3430
10905WAT    EPW45427   2.215   2.416   6.138 -0.1204  0.0595 -0.1612
10906WAT      O45428   2.248   6.840   0.691 -0.0637  0.6283 -0.3488
10906WAT     H145429   2.329   6.855   0.642 -1.3106 -0.1213 -2.8408
10906WAT     H245430   2.190   6.911   0.662 -1.3399 -0.7070 -1.2083
10906WAT    EPW45431   2.251   6.852   0.680 -0.3964  0.3536 -0.7909
10907WAT      O45432  -4.154   2.022   7.673 -0.7368 -0.0955 -0.3412
10907WAT     H145433  -4.154   2.105   7.625  0.5251 -0.8513 -1.7267
10907WAT     H245434  -4.121   2.046   7.760  0.7248  0.7242 -1.0662
10907WAT    EPW45435  -4.149   2.036   7.678 -0.3779 -0.0870 -0.6194
10908WAT      O45436  -1.238   2.629   1.414  0.5843 -0.3866  0.3922
10908WAT     H145437  -1.221   2.721   1.437 -0.6238 -0.3131  1.0271
10908WAT     H245438  -1.151   2.589   1.411  1.5531  1.5053 -3.2414
10908WAT    EPW45439  -1.224   2.636   1.417  0.5527 -0.1274 -0.0033
10909WAT      O45440   5.950   0.163   2.269 -0.4853  0.2083 -0.7375
10909WAT     H145441   5.992   0.232   2.218 -1.7208  0.8424 -0.9202
10909WAT     H245442   5.974   0.082   2.225 -0.4518  0.6535 -1.5434
10909WAT    EPW45443   5.959   0.161   2.257 -0.6437  0.3507 -0.8678
10910WAT      O45444   3.869   4.809   3.259  0.2089  0.0089 -0.4118
10910WAT     H145445   3.877   4.902   3.236  2.6027  0.0858  0.4722
10910WAT     H245446   3.864   4.810   3.355  1.1125 -0.8056 -0.3508
10910WAT    EPW45447   3.869   4.822   3.269  0.6437 -0.0882 -0.2872
10911WAT      O45448  -4.112   9.028   8.044  0.1204 -0.4468 -0.6890
10911WAT     H145449  -4.178   8.970   8.006 -1.7493 -0.4780  2.3209
10911WAT     H245450  -4.096   9.094   7.977 -2.0091 -1.1674 -1.9901
10911WAT    EPW45451  -4.118   9.029   8.030 -0.4070 -0.5460 -0.4640
10912WAT      O45452   5.400   0.604   5.937  0.1782  0.1664  0.0840
10912WAT     H145453   5.338   0.604   5.864  2.1583 -3.9246 -1.9129
10912WAT     H245454   5.375   0.528   5.989  2.7872 -0.9612 -0.1931
10912WAT    EPW45455   5.388   0.594   5.934  0.7834 -0.5219 -0.2160
10913WAT      O45456   0.342   6.387   4.619 -0.1408 -0.3422 -0.0556
10913WAT     H145457   0.347   6.343   4.704 -0.1501 -0.8399 -0.3114
10913WAT     H245458   0.391   6.469   4.631 -0.0054 -0.4872  0.3800
10913WAT    EPW45459   0.349   6.392   4.632 -0.1242 -0.4270 -0.0319
10914WAT      O45460  -3.980   1.923   6.304 -0.2498 -0.0623 -0.2334
10914WAT     H145461  -3.977   1.850   6.366 -2.1443  0.7214  0.8581
10914WAT     H245462  -4.057   1.905   6.250 -1.7663  1.9145  1.1481
10914WAT    EPW45463  -3.990   1.911   6.305 -0.6996  0.3018  0.0927
10915WAT      O45464  -2.465   0.923   5.858  0.5227  0.0925 -0.3718
10915WAT     H145465  -2.385   0.974   5.848 -0.3613  1.2883 -1.8914
10915WAT     H245466  -2.473   0.875   5.776  0.0756 -0.6056  0.0721
10915WAT    EPW45467  -2.456   0.924   5.846  0.3471  0.1581 -0.5136
10916WAT      O45468   2.353   9.924   6.284  0.0797 -0.2673  0.3255
10916WAT     H145469   2.432   9.907   6.334  0.5865  2.8048  0.7255
10916WAT     H245470   2.335  10.017   6.296 -1.5708 -0.0535 -2.6604
10916WAT    EPW45471   2.361   9.934   6.292 -0.0710  0.1659 -0.0155
10917WAT      O45472  -6.038   9.999   4.341  0.7101 -0.4950 -0.4431
10917WAT     H145473  -6.015  10.050   4.263  0.1914 -0.0259 -0.2962
10917WAT     H245474  -6.127   9.968   4.324  0.1184  0.6392  0.4718
10917WAT    EPW45475  -6.047  10.002   4.328  0.5634 -0.2832 -0.3030
10918WAT      O45476  -3.730   8.520   3.525  0.0422  0.4788  0.1003
10918WAT     H145477  -3.743   8.430   3.555 -1.8309  0.0699 -1.7040
10918WAT     H245478  -3.693   8.566   3.601  2.9332 -2.1891  0.4952
10918WAT    EPW45479  -3.727   8.515   3.539  0.1764  0.0730 -0.0856
10919WAT      O45480  -5.661   5.749   7.207 -0.2667  0.1235  0.0008
10919WAT     H145481  -5.572   5.712   7.208 -0.2998  0.0214 -0.6815
10919WAT     H245482  -5.676   5.774   7.116 -1.1616 -0.3990 -0.0043
10919WAT    EPW45483  -5.651   5.747   7.195 -0.3891  0.0410 -0.0899
10920WAT      O45484  -0.373   0.137   4.974 -0.1536 -0.0141 -0.1994
10920WAT     H145485  -0.377   0.059   4.918  1.2294 -0.6221  0.5000
10920WAT     H245486  -0.390   0.103   5.063  2.5606  0.0516  0.4286
10920WAT    EPW45487  -0.376   0.122   4.979  0.3868 -0.0856 -0.0243
10921WAT      O45488   6.817   1.716   1.832  0.2767 -0.2671  0.0088
10921WAT     H145489   6.898   1.767   1.830  0.1722 -0.1340 -1.1494
10921WAT     H245490   6.748   1.781   1.822  0.1591 -0.6459 -1.9195
10921WAT    EPW45491   6.819   1.731   1.831  0.2475 -0.2995 -0.3982
10922WAT      O45492  -3.392  10.092   5.842 -0.5072 -0.5806  0.6402
10922WAT     H145493  -3.318  10.033   5.855  0.4783  0.4374 -0.1892
10922WAT     H245494  -3.468  10.043   5.875  0.3995 -1.9637  0.7374
10922WAT    EPW45495  -3.392  10.078   5.848 -0.2576 -0.6289  0.5436
10923WAT      O45496   3.086   4.924   4.604 -0.3220  0.1022  0.7626
10923WAT     H145497   2.993   4.918   4.624 -1.2877  0.7789 -2.8011
10923WAT     H245498   3.090   4.976   4.524  3.0050 -1.2659 -0.1458
10923WAT    EPW45499   3.074   4.930   4.596 -0.0105  0.0110  0.1729
10924WAT      O45500   7.937   7.201   0.725  0.3423 -0.2518 -0.4718
10924WAT     H145501   7.844   7.208   0.706 -0.0076 -0.2283  1.0998
10924WAT     H245502   7.951   7.262   0.797  0.9852 -2.2241  1.1688
10924WAT    EPW45503   7.927   7.210   0.732  0.3810 -0.5088 -0.0481
10925WAT      O45504   3.866   3.136   3.049 -0.1961 -1.2462  0.0863
10925WAT     H145505   3.856   3.230   3.035  1.0341 -1.2246 -0.9299
10925WAT     H245506   3.959   3.125   3.069 -0.8949 -1.9100  3.7016
10925WAT    EPW45507   3.877   3.147   3.050 -0.1260 -1.3307  0.4290
10926WAT      O45508   1.697   7.112   3.099 -0.7775 -0.3607 -0.3323
10926WAT     H145509   1.733   7.162   3.026  0.4195 -0.5144  0.1292
10926WAT     H245510   1.681   7.025   3.063  1.0371 -0.8146 -0.1055
10926WAT    EPW45511   1.700   7.107   3.085 -0.3803 -0.4408 -0.2415
10927WAT      O45512  -0.568   6.959   6.948 -0.6095 -0.1517  0.7090
10927WAT     H145513  -0.499   6.997   7.003  1.1947 -2.0540 -0.1099
10927WAT     H245514  -0.573   6.868   6.975 -1.1431 -0.6139 -0.8489
10927WAT    EPW45515  -0.560   6.952   6.959 -0.4419 -0.4637  0.3955
10928WAT      O45516   3.648   4.186   5.373 -0.0425 -0.1311 -0.0709
10928WAT     H145517   3.609   4.108   5.334  0.8360  0.6095 -2.7029
10928WAT     H245518   3.694   4.228   5.300  1.6509  1.5079  1.8246
10928WAT    EPW45519   3.649   4.181   5.358  0.2967  0.1826 -0.1681
10929WAT      O45520  -2.739   7.018   4.201 -0.1271 -0.8817  0.0160
10929WAT     H145521  -2.669   6.982   4.147  0.6831  3.0414 -1.9279
10929WAT     H245522  -2.820   6.987   4.160  0.5114 -1.0046 -1.1867
10929WAT    EPW45523  -2.741   7.009   4.188  0.0639 -0.3805 -0.3991
10930WAT      O45524   0.100   9.530   4.297 -0.6388  0.9285 -0.1904
10930WAT     H145525   0.166   9.535   4.365 -2.0579  0.6889  1.2713
10930WAT     H245526   0.137   9.578   4.223  1.1244  0.8164  0.5868
10930WAT    EPW45527   0.113   9.537   4.296 -0.5934  0.8826  0.1049
10931WAT      O45528   5.278   5.989   0.081 -0.3853 -0.1746  0.2858
10931WAT     H145529   5.297   6.074   0.121  3.4714 -0.8841  0.3652
10931WAT     H245530   5.358   5.938   0.094 -2.1131 -3.4635 -0.7945
10931WAT    EPW45531   5.291   5.993   0.088 -0.1047 -0.7019  0.1538
10932WAT      O45532  -0.335   2.929   7.980  0.2235 -0.4089 -0.1322
10932WAT     H145533  -0.383   2.847   7.963  0.6371 -0.8408  0.7363
10932WAT     H245534  -0.368   2.959   8.064  1.4980 -0.7417  0.5051
10932WAT    EPW45535  -0.346   2.922   7.989  0.4462 -0.5097  0.0665
10933WAT      O45536   5.034   2.195   2.206 -0.2453  0.2230 -0.5115
10933WAT     H145537   5.025   2.135   2.133 -1.1259  0.7368 -0.8420
10933WAT     H245538   5.054   2.139   2.281  0.9939 -0.2802 -1.1815
10933WAT    EPW45539   5.036   2.180   2.206 -0.1981  0.2244 -0.6433
10934WAT      O45540   2.815   5.731   3.445 -0.1071 -0.0851 -0.3425
10934WAT     H145541   2.903   5.692   3.452  0.7954  1.5617 -1.7252
10934WAT     H245542   2.775   5.686   3.371 -0.4443 -0.8244  0.2768
10934WAT    EPW45543   2.821   5.720   3.436 -0.0327  0.0346 -0.4431
10935WAT      O45544   2.592   5.879   3.171 -0.0680 -0.2997 -0.1571
10935WAT     H145545   2.518   5.857   3.228  1.9015 -2.9675  1.6097
10935WAT     H245546   2.654   5.924   3.228 -0.2098  1.8512 -1.5918
10935WAT    EPW45547   2.591   5.882   3.186  0.1731 -0.3679 -0.1134
10936WAT      O45548   0.500   1.533   7.438 -0.3569  0.2632 -0.9859
10936WAT     H145549   0.520   1.623   7.462 -0.6892  0.1670 -0.3310
10936WAT     H245550   0.586   1.494   7.417 -0.2692  0.8740 -1.8229
10936WAT    EPW45551   0.514   1.540   7.438 -0.3892  0.3310 -1.0099
10937WAT      O45552  -1.331   7.693   3.115  0.1192  0.1136 -0.6639
10937WAT     H145553  -1.362   7.603   3.101 -1.1223  0.7034 -1.9340
10937WAT     H245554  -1.244   7.695   3.075 -0.2789 -0.2633 -1.5770
10937WAT    EPW45555  -1.324   7.681   3.108 -0.0970  0.1416 -0.9519
10938WAT      O45556  -1.702   6.411   6.494 -0.3676  0.1503 -0.3166
10938WAT     H145557  -1.749   6.492   6.515 -2.1659  0.5297 -4.6889
10938WAT     H245558  -1.763   6.341   6.519  1.1742 -0.1009  3.4328
10938WAT    EPW45559  -1.716   6.412   6.500 -0.4014  0.1671 -0.3986
10939WAT      O45560   5.518   8.803   1.489 -0.2930 -0.4325  1.0330
10939WAT     H145561   5.500   8.876   1.431  0.9466  0.8035  2.1286
10939WAT     H245562   5.590   8.833   1.545  0.1339 -2.4100  1.6615
10939WAT    EPW45563   5.525   8.816   1.489 -0.0732 -0.5302  1.2605
10940WAT      O45564  -1.689   5.056   3.718 -0.4330  0.0338  0.0938
10940WAT     H145565  -1.613   5.007   3.748 -0.6991  0.1253  0.9503
10940WAT     H245566  -1.764   5.006   3.749 -0.8052 -1.0511 -2.2937
10940WAT    EPW45567  -1.689   5.043   3.726 -0.5172 -0.0970 -0.1080
10941WAT      O45568   2.482   0.496   7.157  0.0596  0.2395  0.0505
10941WAT     H145569   2.462   0.586   7.185  3.3263  0.9422  0.4572
10941WAT     H245570   2.470   0.444   7.236  2.0119  1.0283  0.9312
10941WAT    EPW45571   2.478   0.501   7.171  0.7479  0.4362  0.2203
10942WAT      O45572   4.686   8.132   1.550  0.1504 -0.1229 -0.4834
10942WAT     H145573   4.680   8.036   1.553 -1.6679 -0.0175  0.4883
10942WAT     H245574   4.615   8.162   1.607  0.4647  1.8224 -1.0592
10942WAT    EPW45575   4.676   8.123   1.558 -0.0479  0.1473 -0.4312
10943WAT      O45576   2.630   6.700   1.874 -0.3068  0.2138 -0.4711
10943WAT     H145577   2.671   6.645   1.807 -0.2679 -0.4283  0.0750
10943WAT     H245578   2.623   6.644   1.951 -2.9028  0.0486 -0.7458
10943WAT    EPW45579   2.635   6.686   1.875 -0.6441  0.1070 -0.4352
10944WAT      O45580   8.082   3.494   0.664  0.2230 -0.2025  0.5760
10944WAT     H145581   8.139   3.525   0.735 -1.9940  0.6201  2.1040
10944WAT     H245582   8.052   3.409   0.693 -0.1700 -0.1620  0.2891
10944WAT    EPW45583   8.086   3.487   0.677 -0.1216 -0.0887  0.7397
10945WAT      O45584   6.964   7.172   0.138 -0.1093 -0.6293  0.4136
10945WAT     H145585   7.054   7.202   0.141 -0.3305  0.2402 -1.0705
10945WAT     H245586   6.970   7.077   0.153  1.1037 -0.6886 -0.3770
10945WAT    EPW45587   6.977   7.163   0.141  0.0215 -0.5226  0.1136
10946WAT      O45588  -4.919   5.013   8.742 -0.5559  0.6754 -0.9748
10946WAT     H145589  -4.996   5.027   8.686 -1.8178 -1.3250  0.1208
10946WAT     H245590  -4.846   5.005   8.681 -1.3103  1.8471 -2.1020
10946WAT    EPW45591  -4.920   5.014   8.726 -0.8221  0.5660 -0.9794
10947WAT      O45592   1.498  10.295   5.922  0.8748 -0.4143  0.0093
10947WAT     H145593   1.415  10.342   5.911  1.4517  0.4685 -0.6789
10947WAT     H245594   1.519  10.263   5.835  2.0866  0.8166 -0.1869
10947WAT    EPW45595   1.489  10.297   5.909  1.1107 -0.1354 -0.1073
10948WAT      O45596   1.149   7.969   0.676  0.2723  0.0302  0.3751
10948WAT     H145597   1.123   7.912   0.603 -0.1736  0.0031  0.5512
10948WAT     H245598   1.162   8.054   0.635  1.2319 -0.2507  0.0593
10948WAT    EPW45599   1.147   7.972   0.661  0.3400 -0.0103  0.3567
10949WAT      O45600  -0.521   8.558   0.545 -0.1276  0.6789  0.4460
10949WAT     H145601  -0.606   8.602   0.547 -0.3745  0.6588 -3.0419
10949WAT     H245602  -0.473   8.603   0.475  2.2642 -0.1818  1.4215
10949WAT    EPW45603  -0.526   8.570   0.536  0.1553  0.5627  0.1146
10950WAT      O45604   4.019   2.948   8.293 -0.5960  0.1524  0.3200
10950WAT     H145605   4.082   2.882   8.264 -1.4212 -1.4864  2.0416
10950WAT     H245606   3.946   2.940   8.233 -1.2842 -1.5577  1.2945
10950WAT    EPW45607   4.018   2.938   8.281 -0.7958 -0.2892  0.6757
10951WAT      O45608   2.682   2.438   4.167 -0.6374 -0.0118  0.8588
10951WAT     H145609   2.654   2.376   4.100  3.5032 -0.5093 -0.7306
10951WAT     H245610   2.695   2.521   4.120  1.1770 -0.0496  1.2099
10951WAT    EPW45611   2.680   2.441   4.152  0.1479 -0.0824  0.6955
10952WAT      O45612   0.120   2.827   1.499 -0.4128  0.2617 -0.0233
10952WAT     H145613   0.038   2.844   1.453 -0.6631  0.8572  0.6207
10952WAT     H245614   0.145   2.739   1.472 -0.7510  0.4550 -0.9932
10952WAT    EPW45615   0.112   2.818   1.489 -0.4904  0.3657 -0.0663
10953WAT      O45616   1.518   1.452   8.150 -0.1781  0.0600  0.1704
10953WAT     H145617   1.548   1.410   8.231  0.7414 -0.2809 -0.3354
10953WAT     H245618   1.588   1.513   8.127 -0.7797  0.7113  0.0303
10953WAT    EPW45619   1.531   1.454   8.158 -0.1362  0.1010  0.0849
10954WAT      O45620  -0.673   7.342   0.199 -0.5111  0.2130  1.0956
10954WAT     H145621  -0.579   7.349   0.180 -1.0107  1.5480 -1.1883
10954WAT     H245622  -0.702   7.433   0.208 -2.0770  0.0131 -1.1607
10954WAT    EPW45623  -0.664   7.355   0.198 -0.7835  0.3626  0.4968
10955WAT      O45624  -3.438   4.256   6.856 -0.1394  0.7301  0.4168
10955WAT     H145625  -3.394   4.295   6.780  0.0149  2.1413  1.2118
10955WAT     H245626  -3.437   4.162   6.837  1.2923  0.9052 -0.5946
10955WAT    EPW45627  -3.432   4.249   6.843  0.0697  0.9394  0.3881
10956WAT      O45628   5.676   7.624   3.505  0.5535  0.5917 -0.2685
10956WAT     H145629   5.599   7.582   3.468 -1.7495  4.4533 -0.3938
10956WAT     H245630   5.726   7.552   3.545 -1.6798 -2.4365 -2.4841
10956WAT    EPW45631   5.673   7.609   3.506 -0.0448  0.7017 -0.5772
10957WAT      O45632   9.479   3.685   0.324  0.4504 -0.8096  0.0966
10957WAT     H145633   9.461   3.623   0.253 -0.0563  0.0237 -0.5171
10957WAT     H245634   9.480   3.771   0.282  0.1503 -0.2988  1.0943
10957WAT    EPW45635   9.476   3.688   0.309  0.3438 -0.6323  0.1472
10958WAT      O45636   3.813   5.961   0.640  0.2809 -0.2362 -0.0305
10958WAT     H145637   3.798   5.990   0.730  1.7655 -0.8794  0.4372
10958WAT     H245638   3.777   5.872   0.637  0.1217 -0.1702 -0.1219
10958WAT    EPW45639   3.806   5.953   0.652  0.4557 -0.3121  0.0191
10959WAT      O45640   3.042   3.332   5.926 -0.4470  0.7808  0.1654
10959WAT     H145641   2.950   3.331   5.952 -0.6664  0.2216 -0.6130
10959WAT     H245642   3.047   3.271   5.853  1.5439 -3.5176  3.4840
10959WAT    EPW45643   3.031   3.324   5.920 -0.2134  0.1402  0.5004
10960WAT      O45644  -0.121   3.501   0.016  0.0116  0.3394  0.2533
10960WAT     H145645  -0.130   3.436  -0.053 -1.8578  2.8138 -2.0532
10960WAT     H245646  -0.186   3.475   0.082  0.7258 -1.1975  0.3923
10960WAT    EPW45647  -0.131   3.489   0.016 -0.1408  0.4630 -0.0325
10961WAT      O45648   6.202   1.084   5.816  0.2797 -0.7937 -0.1676
10961WAT     H145649   6.232   1.033   5.891  1.5879 -0.5062 -0.4757
10961WAT     H245650   6.175   1.168   5.854 -1.0244 -1.3610  0.2221
10961WAT    EPW45651   6.202   1.089   5.831  0.2801 -0.8307 -0.1569
10962WAT      O45652   2.400   1.870   1.057  0.0879  0.6813  0.3156
10962WAT     H145653   2.410   1.846   1.150 -0.3599 -1.7824 -0.2044
10962WAT     H245654   2.437   1.795   1.009  1.1451  2.3005 -1.5359
10962WAT    EPW45655   2.406   1.857   1.063  0.1682  0.5698  0.0029
10963WAT      O45656   1.850   1.830   1.185 -0.2417 -0.1093  0.0484
10963WAT     H145657   1.784   1.814   1.117 -0.3652  0.4355  0.0403
10963WAT     H245658   1.934   1.825   1.138 -0.3796  2.0322 -0.5281
10963WAT    EPW45659   1.852   1.827   1.170 -0.2761  0.2450 -0.0287
10964WAT      O45660  -4.996   8.029   5.592  0.1214  0.5867  0.0414
10964WAT     H145661  -4.991   8.031   5.687  2.2998  0.3260 -0.0278
10964WAT     H245662  -4.982   8.119   5.565  0.0667  0.5655 -0.0608
10964WAT    EPW45663  -4.994   8.041   5.601  0.4015  0.5498  0.0186
10965WAT      O45664   2.772   2.469   2.726 -0.3616 -0.2571  0.0507
10965WAT     H145665   2.794   2.483   2.634  0.3442 -2.2242 -0.1430
10965WAT     H245666   2.677   2.475   2.729 -0.4809 -1.2040 -1.0452
10965WAT    EPW45667   2.762   2.471   2.715 -0.2843 -0.6415 -0.1194
10966WAT      O45668   2.324   6.407   3.805  0.6116 -0.0459 -0.1245
10966WAT     H145669   2.307   6.355   3.884  2.2521 -0.5725 -0.0755
10966WAT     H245670   2.298   6.496   3.828 -1.0785 -0.5841  0.2134
10966WAT    EPW45671   2.318   6.412   3.818  0.6050 -0.1862 -0.0734
10967WAT      O45672  -2.230   2.869   4.633 -0.7456  0.2860  0.1755
10967WAT     H145673  -2.196   2.954   4.662 -0.5455  0.2617  0.0171
10967WAT     H245674  -2.263   2.886   4.545  1.7278 -0.3581 -0.9806
10967WAT    EPW45675  -2.230   2.883   4.625 -0.3930  0.1978  0.0021
10968WAT      O45676  -5.336   9.220   8.240  0.1470 -0.1145 -0.0772
10968WAT     H145677  -5.325   9.161   8.315  0.0707 -0.1809 -0.1181
10968WAT     H245678  -5.356   9.162   8.167 -4.9864  0.1290  0.7737
10968WAT    EPW45679  -5.337   9.204   8.240 -0.5400 -0.0911  0.0296
10969WAT      O45680   1.861   5.489   8.487  0.2742  0.4985 -0.0625
10969WAT     H145681   1.768   5.477   8.509  0.8625 -0.6958  2.1623
10969WAT     H245682   1.888   5.404   8.452  0.9797  0.1141  1.3336
10969WAT    EPW45683   1.852   5.476   8.485  0.4448  0.2904  0.4153
10970WAT      O45684   1.749   9.193   3.176  0.4727  0.4421 -0.2209
10970WAT     H145685   1.768   9.274   3.223  0.9834  0.2396 -0.0755
10970WAT     H245686   1.653   9.190   3.171  0.3801  0.1646  1.3350
10970WAT    EPW45687   1.739   9.203   3.181  0.5279  0.3791  0.0035
10971WAT      O45688   3.663   4.294   1.097  0.7777 -0.1326  0.7571
10971WAT     H145689   3.610   4.373   1.090 -0.6760 -1.1412 -0.0997
10971WAT     H245690   3.694   4.278   1.008  1.1642 -0.4718  0.9491
10971WAT    EPW45691   3.660   4.302   1.084  0.6369 -0.3102  0.6694
10972WAT      O45692  -1.415   8.768   3.005 -0.1520  0.0744  0.0711
10972WAT     H145693  -1.367   8.758   3.087  0.1542  0.1125 -0.1058
10972WAT     H245694  -1.497   8.721   3.020 -0.8674  1.5544  1.0369
10972WAT    EPW45695  -1.420   8.761   3.018 -0.2060  0.2747  0.1751
10973WAT      O45696  -5.984   4.131   7.412 -0.3557  0.4665  0.3894
10973WAT     H145697  -6.011   4.117   7.502  0.4893 -0.8462  0.4606
10973WAT     H245698  -5.900   4.176   7.419  0.6801 -1.3515  0.3498
10973WAT    EPW45699  -5.977   4.135   7.424 -0.1075  0.0536  0.3934
10974WAT      O45700   5.794   2.908   6.484  0.4670  0.6831 -0.6903
10974WAT     H145701   5.768   2.821   6.516  2.7876 -0.3537 -1.3319
10974WAT     H245702   5.733   2.928   6.414 -0.3794 -0.2183 -0.2370
10974WAT    EPW45703   5.783   2.899   6.479  0.6616  0.4274 -0.7150
10975WAT      O45704  -5.945   8.596   6.228 -0.4182  0.2688 -0.2928
10975WAT     H145705  -5.884   8.648   6.280  0.1164  2.6135 -3.0351
10975WAT     H245706  -6.007   8.561   6.292  0.8517  1.9867  2.0200
10975WAT    EPW45707  -5.945   8.598   6.243 -0.1802  0.8044 -0.3493
10976WAT      O45708   4.693   2.885   6.712 -0.9510  0.0324  0.5552
10976WAT     H145709   4.603   2.891   6.743 -1.1005  0.3845  0.0652
10976WAT     H245710   4.686   2.874   6.618 -0.4835 -0.1414  0.5367
10976WAT    EPW45711   4.680   2.884   6.704 -0.9091  0.0559  0.4880
10977WAT      O45712  -0.189   0.417   8.194 -0.9973  0.2479  0.0979
10977WAT     H145713  -0.145   0.340   8.161  1.5919  0.2460  3.0639
10977WAT     H245714  -0.118   0.475   8.224 -2.8957  2.7873  0.0551
10977WAT    EPW45715  -0.174   0.415   8.194 -0.9062  0.5826  0.4835
10978WAT      O45716   4.117   6.238   0.579 -0.4420  0.5863 -0.1038
10978WAT     H145717   4.029   6.259   0.609 -0.6036  1.3269 -1.0567
10978WAT     H245718   4.156   6.323   0.559  1.5970  0.6078  3.1922
10978WAT    EPW45719   4.111   6.252   0.580 -0.1945  0.6869  0.2052
10979WAT      O45720   5.254   0.315   8.123  0.6145  0.2192 -0.1223
10979WAT     H145721   5.262   0.253   8.051 -0.6147 -2.8218  2.1509
10979WAT     H245722   5.316   0.283   8.189  2.9163  3.8475 -0.2472
10979WAT    EPW45723   5.264   0.303   8.122  0.7558  0.2967  0.1607
10980WAT      O45724  -5.564   7.704   6.164  0.6178 -0.3784 -0.1481
10980WAT     H145725  -5.657   7.682   6.153  0.6031 -3.7010  3.9950
10980WAT     H245726  -5.565   7.780   6.223  0.5071 -0.4363 -0.0736
10980WAT    EPW45727  -5.577   7.711   6.171  0.6011 -0.8242  0.4082
10981WAT      O45728  -3.099   2.693   5.423  0.1465 -0.4709 -0.2119
10981WAT     H145729  -3.104   2.673   5.329  0.9050 -0.6779 -0.2159
10981WAT     H245730  -3.049   2.775   5.428  0.4970 -0.6955  0.0300
10981WAT    EPW45731  -3.093   2.701   5.411  0.2928 -0.5277 -0.1805
10982WAT      O45732  -3.937   1.198   6.495  0.3218 -0.3190  0.6716
10982WAT     H145733  -3.922   1.141   6.570  0.7993 -1.9386 -0.5832
10982WAT     H245734  -3.901   1.283   6.521 -1.1464 -0.3166  2.9033
10982WAT    EPW45735  -3.930   1.202   6.508  0.1911 -0.5323  0.8004
10983WAT      O45736  -1.452   9.770   7.123 -0.6281 -0.0816  0.1208
10983WAT     H145737  -1.462   9.743   7.214 -0.4337 -0.1587  0.1193
10983WAT     H245738  -1.370   9.819   7.122 -1.5575  1.5827  0.3827
10983WAT    EPW45739  -1.442   9.773   7.135 -0.7251  0.1278  0.1552
10984WAT      O45740   4.219   9.586   2.262  0.2625  0.0499  0.2958
10984WAT     H145741   4.238   9.497   2.232 -1.0106 -0.5030  1.0263
10984WAT     H245742   4.288   9.640   2.223 -0.6881 -0.7469 -2.7910
10984WAT    EPW45743   4.231   9.581   2.253 -0.0308 -0.1283 -0.0149
10985WAT      O45744   0.727   5.628   1.295  0.3939  0.6284 -0.3846
10985WAT     H145745   0.758   5.691   1.229 -2.5371 -1.2198 -3.9179
10985WAT     H245746   0.632   5.635   1.292 -0.0170 -2.8178  0.1215
10985WAT    EPW45747   0.719   5.637   1.286 -0.0469 -0.0701 -0.7838
10986WAT      O45748   8.443   2.825   1.162  0.4952 -0.5177 -0.4551
10986WAT     H145749   8.422   2.883   1.089  0.7740  0.4117  0.1860
10986WAT     H245750   8.357   2.798   1.197  0.3117  1.3865  0.6885
10986WAT    EPW45751   8.429   2.829   1.157  0.5078 -0.1440 -0.2197
10987WAT      O45752  -3.806   3.173   5.090  0.2122 -0.3158 -0.1201
10987WAT     H145753  -3.897   3.145   5.101 -0.2149  0.7747 -0.7726
10987WAT     H245754  -3.783   3.146   5.000  1.1618 -2.2332  0.6320
10987WAT    EPW45755  -3.815   3.165   5.079  0.2812 -0.4247 -0.1068
10988WAT      O45756  -0.338   6.215   0.951  0.0688 -0.5492 -0.4067
10988WAT     H145757  -0.374   6.148   1.009 -0.2022  0.5505  0.7191
10988WAT     H245758  -0.277   6.166   0.894  3.2273 -1.2093  3.1629
10988WAT    EPW45759  -0.335   6.199   0.951  0.4497 -0.4914  0.2126
10989WAT      O45760   4.441   3.090   1.638  0.4462  0.2012  0.2485
10989WAT     H145761   4.507   3.083   1.706 -0.0923 -0.1105  0.7494
10989WAT     H245762   4.436   3.183   1.618  1.1713  0.2054  0.0630
10989WAT    EPW45763   4.449   3.101   1.644  0.4709  0.1607  0.2901
10990WAT      O45764  -7.254   9.758   7.555  0.4960  0.4437  0.1738
10990WAT     H145765  -7.305   9.820   7.502  1.5411 -0.1698 -1.6849
10990WAT     H245766  -7.183   9.812   7.591  1.1932  0.4393 -1.1332
10990WAT    EPW45767  -7.251   9.774   7.552  0.7257  0.3624 -0.2439
10991WAT      O45768  -3.900   9.182   1.301  0.6328 -0.0756 -0.9789
10991WAT     H145769  -3.873   9.091   1.293  1.9682  0.0414  1.3332
10991WAT     H245770  -3.995   9.180   1.293  0.7801 -1.3064 -3.3235
10991WAT    EPW45771  -3.909   9.170   1.299  0.8283 -0.2227 -0.9831
10992WAT      O45772  -5.870   7.789   8.177 -0.3907 -0.1003 -0.0147
10992WAT     H145773  -5.850   7.738   8.099  0.5503  0.0635  0.1083
10992WAT     H245774  -5.841   7.878   8.157 -2.2789  0.4983 -0.3359
10992WAT    EPW45775  -5.864   7.794   8.164 -0.5155  0.0002 -0.0405
10993WAT      O45776  -2.305   9.653   2.499 -0.1836  0.2942  0.2634
10993WAT     H145777  -2.363   9.608   2.561  0.7219  2.4742  2.9473
10993WAT     H245778  -2.217   9.624   2.522  0.0810 -0.1620 -1.2290
10993WAT    EPW45779  -2.301   9.643   2.510 -0.0293  0.5217  0.4207
10994WAT      O45780   0.828   1.162   0.804  0.2750 -0.0820  0.0171
10994WAT     H145781   0.857   1.099   0.738  1.7565  0.9666 -0.3778
10994WAT     H245782   0.776   1.227   0.756 -0.1661 -0.2828  0.2092
10994WAT    EPW45783   0.825   1.162   0.789  0.4122  0.0298 -0.0097
10995WAT      O45784  -1.638   2.903   1.231  0.0068 -0.1091  0.4714
10995WAT     H145785  -1.710   2.918   1.293 -0.4626 -0.7817  0.1072
10995WAT     H245786  -1.682   2.888   1.147  0.6778  2.5420 -0.4481
10995WAT    EPW45787  -1.653   2.903   1.228  0.0334  0.1519  0.3021
10996WAT      O45788   3.913   1.149   8.139 -0.3026 -0.4278  0.4043
10996WAT     H145789   3.939   1.067   8.179 -0.3057 -0.3816  0.5029
10996WAT     H245790   3.821   1.136   8.115 -0.1664 -0.6191 -0.0190
10996WAT    EPW45791   3.904   1.137   8.141 -0.2850 -0.4469  0.3614
10997WAT      O45792   5.802   8.234   0.331  0.2491 -1.2199 -0.4882
10997WAT     H145793   5.743   8.287   0.278  1.8029 -1.4581 -2.5635
10997WAT     H245794   5.782   8.260   0.421 -2.2012 -0.4953 -1.1455
10997WAT    EPW45795   5.791   8.244   0.336  0.1309 -1.1559 -0.8486
10998WAT      O45796  -3.896   8.831   5.190 -0.1824  0.5073 -0.1815
10998WAT     H145797  -3.925   8.766   5.255  2.2090  0.7571  1.2422
10998WAT     H245798  -3.911   8.915   5.233 -0.0093  0.7455 -0.5822
10998WAT    EPW45799  -3.902   8.833   5.204  0.1559  0.5713 -0.0467
10999WAT      O45800  -3.378   8.838   6.279 -0.8165  0.0137 -0.3152
10999WAT     H145801  -3.434   8.851   6.203 -1.5284 -0.8311  0.0438
10999WAT     H245802  -3.438   8.810   6.348  0.1968 -2.5981 -0.3801
10999WAT    EPW45803  -3.393   8.836   6.278 -0.7768 -0.4420 -0.2766
11000WAT      O45804  -0.442   9.029   0.592  0.5503  0.2518 -0.0556
11000WAT     H145805  -0.507   8.994   0.530 -0.3444  3.3271 -1.0127
11000WAT     H245806  -0.366   8.970   0.582 -1.7446 -3.1112  0.6676
11000WAT    EPW45807  -0.440   9.017   0.582  0.1296  0.2136 -0.0864
11001WAT      O45808  -0.604   7.559   0.551  0.3969  0.2333 -0.4220
11001WAT     H145809  -0.587   7.574   0.644  0.0571  4.3809 -0.8013
11001WAT     H245810  -0.519   7.574   0.508  0.4448 -1.1487 -0.8580
11001WAT    EPW45811  -0.590   7.563   0.557  0.3584  0.5982 -0.5296
11002WAT      O45812   1.316  -0.009   1.927 -0.1833 -0.0084 -0.1521
11002WAT     H145813   1.370  -0.008   1.848  0.4680 -2.0289  0.1830
11002WAT     H245814   1.373   0.027   1.995  0.2797 -0.7925 -0.0971
11002WAT    EPW45815   1.331  -0.004   1.926 -0.0364 -0.3781 -0.1006
11003WAT      O45816   0.740   9.544   2.893  0.1205  0.0592 -0.1037
11003WAT     H145817   0.762   9.556   2.800 -0.6959  0.5574 -0.2411
11003WAT     H245818   0.698   9.626   2.919  0.5762  0.0254  0.7879
11003WAT    EPW45819   0.737   9.556   2.884  0.0730  0.1211 -0.0042
11004WAT      O45820   3.791   6.179   7.078 -0.1036  0.0570  0.4763
11004WAT     H145821   3.797   6.145   6.989  2.9270 -1.1873  1.0381
11004WAT     H245822   3.824   6.269   7.073 -2.8385  1.1425 -0.0567
11004WAT    EPW45823   3.796   6.186   7.066 -0.0647  0.0362  0.4802
11005WAT      O45824  -7.261   8.292   8.668  0.6839 -0.0480  0.5855
11005WAT     H145825  -7.330   8.244   8.623 -0.0032  0.9563  0.5293
11005WAT     H245826  -7.242   8.366   8.611  0.8920  0.3919  1.2108
11005WAT    EPW45827  -7.267   8.295   8.655  0.6208  0.1426  0.6604
11006WAT      O45828   3.085   5.735   5.238  0.0994 -0.1566  0.5175
11006WAT     H145829   3.073   5.815   5.186  3.3674 -0.9720 -1.7920
11006WAT     H245830   3.002   5.688   5.228 -0.8870  1.6819 -0.4099
11006WAT    EPW45831   3.072   5.739   5.230  0.4003 -0.0215  0.0906
11007WAT      O45832   2.665   0.702   7.925  0.0685  0.3245 -0.9349
11007WAT     H145833   2.639   0.610   7.927  0.3766  0.2511  0.4972
11007WAT     H245834   2.592   0.746   7.880 -0.9557 -0.3649 -0.0055
11007WAT    EPW45835   2.652   0.695   7.919 -0.0259  0.2239 -0.6235
11008WAT      O45836   5.548   1.816   0.684  0.0039 -0.4229 -0.1329
11008WAT     H145837   5.564   1.837   0.592 -1.5464  0.0059 -0.3395
11008WAT     H245838   5.624   1.765   0.711  0.3373 -0.8286 -1.7406
11008WAT    EPW45839   5.560   1.812   0.676 -0.1566 -0.4199 -0.3722
11009WAT      O45840   2.639   4.580   4.959  0.0989  0.2662  0.8750
11009WAT     H145841   2.710   4.569   5.023 -0.7476  0.9342  1.9739
11009WAT     H245842   2.579   4.508   4.977 -0.4309  0.7915  1.2411
11009WAT    EPW45843   2.641   4.569   4.970 -0.0826  0.4237  1.0684
11010WAT      O45844  -3.785   2.727   6.504 -0.6152  0.5004 -0.0217
11010WAT     H145845  -3.850   2.685   6.560  0.5380 -1.3669  0.0288
11010WAT     H245846  -3.703   2.682   6.525  0.4238  1.7939 -1.0937
11010WAT    EPW45847  -3.783   2.715   6.514 -0.3260  0.4247 -0.1564
11011WAT      O45848  -2.354   5.614   2.107  0.0859  0.2182 -0.0607
11011WAT     H145849  -2.438   5.636   2.146 -0.3073 -0.9249 -0.2499
11011WAT     H245850  -2.349   5.670   2.029 -1.8661 -1.7623 -1.7245
11011WAT    EPW45851  -2.364   5.624   2.102 -0.2235 -0.1938 -0.3052
11012WAT      O45852  -0.957   9.407   7.730 -0.8708 -0.2188  0.0152
11012WAT     H145853  -0.872   9.362   7.726 -2.0685 -2.8659  1.4534
11012WAT     H245854  -0.974   9.435   7.640  1.4589  0.3200 -0.3174
11012WAT    EPW45855  -0.948   9.405   7.718 -0.7216 -0.4969  0.1612
11013WAT      O45856   3.615   8.358   1.278 -0.5009  0.5358 -0.1490
11013WAT     H145857   3.647   8.361   1.188  1.2701  2.1385  0.4505
11013WAT     H245858   3.695   8.350   1.331 -1.5484 -1.0819  1.2760
11013WAT    EPW45859   3.630   8.358   1.273 -0.4053  0.5336  0.1180
11014WAT      O45860   0.034   4.683   4.510 -0.5574 -0.3901  1.0707
11014WAT     H145861  -0.050   4.652   4.476  0.0716 -1.5378  0.5277
11014WAT     H245862   0.073   4.606   4.552  0.5509 -0.0607  0.6642
11014WAT    EPW45863   0.028   4.669   4.511 -0.3283 -0.4981  0.9453
11015WAT      O45864   0.203   2.546   2.109 -0.5017 -0.0687  0.6514
11015WAT     H145865   0.202   2.456   2.141 -0.4687 -0.2035  0.2704
11015WAT     H245866   0.125   2.586   2.147 -0.9871 -0.4991  0.1199
11015WAT    EPW45867   0.193   2.539   2.119 -0.5613 -0.1433  0.5312
11016WAT      O45868   0.525   5.945   6.084 -0.5149  0.4733 -0.4507
11016WAT     H145869   0.508   5.851   6.087 -1.9264  0.6631 -1.4306
11016WAT     H245870   0.443   5.985   6.110 -0.6911  1.4320 -2.3109
11016WAT    EPW45871   0.512   5.938   6.088 -0.7243  0.6247 -0.8252
11017WAT      O45872  -3.577   1.034   5.742 -0.5735  0.2498  0.1581
11017WAT     H145873  -3.504   0.975   5.758 -0.8423  0.1526  1.0463
11017WAT     H245874  -3.625   0.992   5.670 -0.5696 -0.4432  0.5475
11017WAT    EPW45875  -3.574   1.020   5.734 -0.6083  0.1456  0.3266
11018WAT      O45876  -3.201   7.947   5.462 -0.6702  0.4940  0.1807
11018WAT     H145877  -3.229   7.928   5.373  2.5314  0.7681 -0.9964
11018WAT     H245878  -3.144   7.875   5.485 -1.0630  0.6801  1.8732
11018WAT    EPW45879  -3.197   7.935   5.453 -0.2998  0.5548  0.2487
11019WAT      O45880  -2.173   4.226   6.720  0.4693  0.1018 -0.6521
11019WAT     H145881  -2.214   4.282   6.654  0.5078  1.4706  0.4346
11019WAT     H245882  -2.152   4.145   6.674  0.1955  0.8975 -2.2226
11019WAT    EPW45883  -2.176   4.223   6.705  0.4382  0.3874 -0.7157
11020WAT      O45884  -0.975   3.942   5.554  0.8293 -0.7730 -0.3664
11020WAT     H145885  -0.909   3.884   5.516 -0.0363 -0.2661 -2.8186
11020WAT     H245886  -0.995   4.004   5.484 -1.1989 -0.0191  0.8092
11020WAT    EPW45887  -0.969   3.942   5.540  0.4476 -0.6067 -0.5348
11021WAT      O45888   2.505   8.864   6.548 -0.0036 -0.7543 -0.5769
11021WAT     H145889   2.540   8.815   6.473 -0.3795 -2.8870  0.5511
11021WAT     H245890   2.547   8.824   6.624  0.1915  1.2076  0.4056
11021WAT    EPW45891   2.515   8.852   6.548 -0.0274 -0.7768 -0.2987
11022WAT      O45892  -4.082   8.370   2.169  0.0097 -0.5742 -0.9310
11022WAT     H145893  -4.082   8.274   2.170  0.8039 -0.5879  0.6550
11022WAT     H245894  -4.155   8.393   2.112  0.5434 -2.1135 -2.3143
11022WAT    EPW45895  -4.091   8.360   2.162  0.1848 -0.7787 -0.9043
11023WAT      O45896   1.099   1.463   4.579  0.1083  0.3062  0.3035
11023WAT     H145897   1.165   1.532   4.588  0.4650 -0.2449  2.5572
11023WAT     H245898   1.150   1.382   4.582 -0.3227 -0.1137 -2.1428
11023WAT    EPW45899   1.115   1.462   4.581  0.0985  0.1782  0.2782
11024WAT      O45900  -0.177   7.614   6.576  0.5411  0.1200  0.2906
11024WAT     H145901  -0.166   7.620   6.481 -1.8248 -0.1558 -0.0510
11024WAT     H245902  -0.113   7.548   6.603  0.5143 -0.5895 -1.2761
11024WAT    EPW45903  -0.167   7.606   6.567  0.2255 -0.0100  0.0391
11025WAT      O45904   4.890   3.228   5.425 -0.0858  0.1922  0.2347
11025WAT     H145905   4.939   3.223   5.508  2.2565  1.4302 -0.9635
11025WAT     H245906   4.926   3.157   5.373  0.2405  0.9181 -0.5543
11025WAT    EPW45907   4.902   3.218   5.429  0.2661  0.4512 -0.0272
11026WAT      O45908   2.600   6.779   5.008 -0.7824 -0.0900  0.1978
11026WAT     H145909   2.660   6.822   5.069 -0.2032 -0.4425 -0.1109
11026WAT     H245910   2.587   6.692   5.044 -1.2276  0.0307  0.3369
11026WAT    EPW45911   2.606   6.773   5.021 -0.7646 -0.1206  0.1757
11027WAT      O45912   1.832   6.922   1.135  0.2188  0.4808 -0.0991
11027WAT     H145913   1.830   7.007   1.092 -0.3019 -0.2645 -1.6597
11027WAT     H245914   1.751   6.879   1.107  0.0216 -0.1966  1.3973
11027WAT    EPW45915   1.821   6.927   1.125  0.1242  0.2930 -0.1076
11028WAT      O45916  -2.189   5.479   3.194  0.9204 -0.2077 -0.0807
11028WAT     H145917  -2.217   5.559   3.149  0.9741  0.0041  0.2611
11028WAT     H245918  -2.253   5.413   3.166  1.7209 -0.4130 -1.5238
11028WAT    EPW45919  -2.201   5.480   3.184  1.0331 -0.2069 -0.2259
11029WAT      O45920  -1.546   0.522   8.598  1.0079 -0.1977  0.2627
11029WAT     H145921  -1.616   0.470   8.558  0.7073  1.1019 -1.0292
11029WAT     H245922  -1.548   0.499   8.691 -1.0178 -0.3495  0.2200
11029WAT    EPW45923  -1.556   0.512   8.605  0.7011 -0.0463  0.0863
11030WAT      O45924  -5.428  10.065   4.421  0.0556  0.0546  0.1158
11030WAT     H145925  -5.478  10.060   4.339  0.9976  0.2621 -0.4885
11030WAT     H245926  -5.400  10.157   4.426 -0.8375  0.2973  1.2012
11030WAT    EPW45927  -5.431  10.077   4.411  0.0622  0.1140  0.1793
11031WAT      O45928  -0.379   7.685   5.702 -0.3648  0.2542 -0.2992
11031WAT     H145929  -0.412   7.611   5.753  1.2762  0.5642  1.3551
11031WAT     H245930  -0.457   7.737   5.681 -1.2921 -0.7970  0.4274
11031WAT    EPW45931  -0.394   7.682   5.706 -0.2706  0.1566  0.0148
11032WAT      O45932   4.824   8.839   1.878 -0.1250 -0.1692  0.2262
11032WAT     H145933   4.918   8.858   1.881 -0.4187  1.4625  0.0372
11032WAT     H245934   4.808   8.817   1.786  0.0098 -0.0949  0.1834
11032WAT    EPW45935   4.835   8.839   1.866 -0.1459  0.0558  0.1956
11033WAT      O45936  -2.295   2.201   5.167 -0.0628  0.4316 -0.0390
11033WAT     H145937  -2.348   2.193   5.247  1.5027  0.2888  1.0245
11033WAT     H245938  -2.357   2.229   5.100 -1.6826 -0.7385  0.9105
11033WAT    EPW45939  -2.310   2.203   5.169 -0.0700  0.2586  0.2265
11034WAT      O45940  -1.915   6.260   6.303  0.1887  0.1688  0.4832
11034WAT     H145941  -1.828   6.291   6.276  1.7322 -1.4647  3.1322
11034WAT     H245942  -1.951   6.333   6.353  0.6510  0.3554  0.5499
11034WAT    EPW45943  -1.908   6.274   6.306  0.4532 -0.0219  0.8414
11035WAT      O45944  -2.247   4.265   7.191  0.5614  0.0966  0.2425
11035WAT     H145945  -2.167   4.225   7.224  0.7291 -0.8362 -1.1985
11035WAT     H245946  -2.264   4.220   7.108 -2.3034 -0.8364  1.2148
11035WAT    EPW45947  -2.239   4.254   7.184  0.2058 -0.1495  0.1805
11036WAT      O45948   2.835   1.194   7.204 -0.6582  0.8413 -0.0554
11036WAT     H145949   2.831   1.122   7.142 -1.6174 -0.7910  1.8115
11036WAT     H245950   2.890   1.260   7.160  0.6172 -1.1535 -1.6553
11036WAT    EPW45951   2.842   1.194   7.190 -0.6166  0.3629 -0.0200
11037WAT      O45952  -1.392   3.070   3.716  0.6304 -0.8016  0.4788
11037WAT     H145953  -1.321   3.077   3.651  2.4128 -0.7896  2.3362
11037WAT     H245954  -1.362   3.124   3.789 -0.8783 -1.5636  1.6955
11037WAT    EPW45955  -1.378   3.078   3.717  0.6666 -0.9006  0.8843
11038WAT      O45956   2.864   2.793   0.166  0.4607 -0.4658 -0.6143
11038WAT     H145957   2.936   2.838   0.122  1.7335 -1.5594  0.2718
11038WAT     H245958   2.848   2.843   0.245  2.8104 -2.1857  1.0857
11038WAT    EPW45959   2.872   2.805   0.170  0.9385 -0.8370 -0.2732
11039WAT      O45960   5.282   0.786   5.541  0.1052 -0.4012 -0.4935
11039WAT     H145961   5.246   0.818   5.624  1.3309  0.5427 -0.2895
11039WAT     H245962   5.280   0.691   5.549 -0.6147 -0.3414  0.2423
11039WAT    EPW45963   5.277   0.778   5.553  0.1719 -0.2688 -0.3695
11040WAT      O45964  -4.756   6.869   7.980 -0.0660 -0.2549  0.4955
11040WAT     H145965  -4.700   6.791   7.976  0.6590  0.2119  1.2518
11040WAT     H245966  -4.746   6.900   8.070  0.0521  0.9986  0.0604
11040WAT    EPW45967  -4.747   6.863   7.992  0.0451 -0.0279  0.5379
11041WAT      O45968   2.841   0.107   7.130 -0.9401  0.5721 -0.2047
11041WAT     H145969   2.809   0.180   7.184 -2.7168  0.9061 -1.6416
11041WAT     H245970   2.891   0.149   7.061 -1.9141  0.4616 -0.9986
11041WAT    EPW45971   2.843   0.122   7.128 -1.3030  0.6016 -0.4990
11042WAT      O45972  -0.455   2.290   0.674 -0.3074  0.0278  0.4819
11042WAT     H145973  -0.503   2.233   0.735 -1.3762  0.7694  0.3747
11042WAT     H245974  -0.396   2.341   0.730 -1.0172  0.4422  0.8687
11042WAT    EPW45975  -0.454   2.289   0.689 -0.5420  0.1802  0.5188
11043WAT      O45976   0.697   0.417   8.525 -0.0558 -0.4766  0.5794
11043WAT     H145977   0.760   0.443   8.458  1.0523 -0.8497  1.4543
11043WAT     H245978   0.612   0.430   8.483  0.5915 -0.2022 -0.7148
11043WAT    EPW45979   0.694   0.422   8.511  0.1757 -0.4897  0.5240
11044WAT      O45980  -0.914   3.399   4.146  0.1825  0.3823  0.4691
11044WAT     H145981  -0.875   3.334   4.205  0.7344  1.2483  1.0793
11044WAT     H245982  -1.009   3.384   4.154  0.1790  1.1900  2.4361
11044WAT    EPW45983  -0.922   3.388   4.155  0.2548  0.6031  0.8090
11045WAT      O45984   6.663   1.479   0.103  0.1962 -0.0067 -0.2360
11045WAT     H145985   6.718   1.468   0.181  0.6320 -1.5525 -0.7226
11045WAT     H245986   6.598   1.544   0.129 -0.0594 -0.9285  1.6568
11045WAT    EPW45987   6.662   1.486   0.117  0.2201 -0.3321 -0.0505
11046WAT      O45988  -0.194   8.017   3.097 -0.0258 -0.2108 -0.2893
11046WAT     H145989  -0.124   8.012   3.032  0.7131 -1.1863  0.5555
11046WAT     H245990  -0.182   8.102   3.139 -0.5886  0.4874 -1.4845
11046WAT    EPW45991  -0.183   8.028   3.094 -0.0026 -0.2475 -0.3356
11047WAT      O45992  -5.466   2.284   8.266 -0.0810  0.3144 -0.8714
11047WAT     H145993  -5.530   2.215   8.283  0.9151 -0.3807  0.2020
11047WAT     H245994  -5.509   2.364   8.298 -1.1636  0.1857 -1.9419
11047WAT    EPW45995  -5.480   2.286   8.273 -0.0925  0.2058 -0.8712
11048WAT      O45996   6.448   3.047   4.858  0.0401 -0.5862  0.0729
11048WAT     H145997   6.433   3.055   4.952 -0.8917 -1.1259 -0.0221
11048WAT     H245998   6.435   3.136   4.824  0.7785 -0.3071  0.4962
11048WAT    EPW45999   6.444   3.060   4.866  0.0145 -0.6205  0.1161
11049WAT      O46000  -1.407   3.141   8.484 -0.3150  0.7806 -0.8029
11049WAT     H146001  -1.458   3.114   8.560  0.1696 -1.6423 -1.2528
11049WAT     H246002  -1.383   3.232   8.502  0.1635  0.1687  2.1435
11049WAT    EPW46003  -1.411   3.149   8.496 -0.1879  0.3804 -0.4740
11050WAT      O46004   5.272   3.632   4.389  0.3839  0.3146 -0.6664
11050WAT     H146005   5.254   3.718   4.350 -2.3288 -0.2914 -0.9668
11050WAT     H246006   5.254   3.570   4.319 -1.6148 -0.6438  0.5984
11050WAT    EPW46007   5.267   3.635   4.375 -0.2375  0.1084 -0.5391
11051WAT      O46008   2.860   4.729   8.934 -0.2720  0.1126  0.1167
11051WAT     H146009   2.886   4.646   8.893 -0.5034 -0.1533  0.4978
11051WAT     H246010   2.768   4.717   8.956  0.2321 -0.3891  2.1817
11051WAT    EPW46011   2.852   4.716   8.932 -0.2360  0.0114  0.4392
11052WAT      O46012   0.149   2.842   3.252  0.9085  0.2267 -0.0642
11052WAT     H146013   0.115   2.813   3.336  2.4436  0.0255  0.5154
11052WAT     H246014   0.093   2.799   3.187  0.6997 -0.8861  0.8315
11052WAT    EPW46015   0.137   2.832   3.254  1.0835  0.0534  0.1304
11053WAT      O46016  -1.607   8.472   6.241  0.4354  0.5132  0.6352
11053WAT     H146017  -1.680   8.419   6.209 -0.4630  0.4374  2.6499
11053WAT     H246018  -1.622   8.559   6.205  2.1016 -0.5263 -2.9883
11053WAT    EPW46019  -1.619   8.476   6.232  0.5367  0.3662  0.4230
11054WAT      O46020   6.979   8.241   0.188  0.5306 -0.3111  0.4780
11054WAT     H146021   7.059   8.198   0.218  1.1835  0.5013 -0.0466
11054WAT     H246022   7.006   8.292   0.112 -0.4170  0.2774  0.5145
11054WAT    EPW46023   6.993   8.242   0.182  0.4916 -0.1264  0.4136
11055WAT      O46024  -4.927   4.077   6.095  0.3752  0.8508  0.3204
11055WAT     H146025  -4.896   4.002   6.043 -0.4287  1.2116 -0.7136
11055WAT     H246026  -4.968   4.037   6.171 -0.5647  0.1954 -0.5069
11055WAT    EPW46027  -4.928   4.061   6.098  0.1452  0.8121  0.0749
11056WAT      O46028   0.265   8.439   0.067  0.0913 -0.0676  0.1818
11056WAT     H146029   0.223   8.466   0.149  0.3424 -1.5240  0.8256
11056WAT     H246030   0.193   8.407   0.013 -0.1657  1.4915 -0.4666
11056WAT    EPW46031   0.250   8.438   0.071  0.0905 -0.0544  0.1812
11057WAT      O46032   2.151   4.965   7.166 -0.1158  0.5343 -0.5612
11057WAT     H146033   2.243   4.941   7.160  1.0648  4.4346 -1.1869
11057WAT     H246034   2.119   4.958   7.077 -0.7590 -1.6923 -0.1970
11057WAT    EPW46035   2.159   4.961   7.154 -0.0449  0.7551 -0.5958
11058WAT      O46036   7.902   1.724   1.500  0.3871  0.5071 -0.3626
11058WAT     H146037   7.891   1.796   1.563  3.1528  0.6634  0.0779
11058WAT     H246038   7.883   1.645   1.551  0.6482  0.7606  0.1435
11058WAT    EPW46039   7.898   1.723   1.515  0.7863  0.5612 -0.2378
11059WAT      O46040  -2.305   9.106   0.276  0.1037 -0.3268 -0.1684
11059WAT     H146041  -2.305   9.153   0.359  0.5740 -1.7768  0.6921
11059WAT     H246042  -2.291   9.015   0.300  0.9313 -0.7009 -1.9012
11059WAT    EPW46043  -2.304   9.100   0.290  0.2748 -0.5679 -0.2835
11060WAT      O46044  -5.580   9.577   5.650 -0.4188 -0.6264 -0.4800
11060WAT     H146045  -5.615   9.648   5.703 -2.0810 -1.8033  0.0554
11060WAT     H246046  -5.490   9.567   5.682 -1.2570 -1.1134  2.0002
11060WAT    EPW46047  -5.572   9.585   5.661 -0.7486 -0.8459 -0.0823
11061WAT      O46048  -0.738   0.599   6.636 -0.9267 -0.2245 -0.1383
11061WAT     H146049  -0.818   0.632   6.595 -0.7887 -1.4331 -1.4577
11061WAT     H246050  -0.765   0.573   6.723 -1.7660  0.2303 -0.2494
11061WAT    EPW46051  -0.752   0.600   6.642 -1.0192 -0.3239 -0.3271
11062WAT      O46052   0.551   2.319   1.614 -0.1136 -0.3336  0.5797
11062WAT     H146053   0.586   2.342   1.700  0.2517 -0.7852  0.5562
11062WAT     H246054   0.578   2.390   1.557  0.6890 -0.6292  0.5829
11062WAT    EPW46055   0.559   2.331   1.618  0.0404 -0.4321  0.5770
11063WAT      O46056   6.185   0.292   6.530  0.0769 -0.5444 -0.2950
11063WAT     H146057   6.239   0.232   6.582  1.5555  0.2969 -0.7774
11063WAT     H246058   6.201   0.267   6.439  0.7254  0.5421 -0.5055
11063WAT    EPW46059   6.194   0.281   6.525  0.3574 -0.2901 -0.3865
11064WAT      O46060   6.135   5.409   2.489 -0.5078  0.1973 -0.4297
11064WAT     H146061   6.078   5.340   2.455  0.2252 -1.5243  1.6046
11064WAT     H246062   6.205   5.417   2.424 -1.3971  0.1348 -1.4232
11064WAT    EPW46063   6.137   5.401   2.476 -0.5283 -0.0381 -0.2924
11065WAT      O46064   2.567   8.889   0.442  0.3993 -0.4284  0.6449
11065WAT     H146065   2.561   8.963   0.502  4.0100  0.7088 -0.1271
11065WAT     H246066   2.483   8.888   0.396 -0.5112  1.9202  2.0865
11065WAT    EPW46067   2.555   8.899   0.443  0.7555  0.0310  0.7332
11066WAT      O46068   0.902   1.440   8.552 -0.3438 -0.0797  0.3279
11066WAT     H146069   0.821   1.491   8.547 -0.5441 -0.4939 -1.0876
11066WAT     H246070   0.960   1.494   8.606 -1.2308  0.6646  0.5876
11066WAT    EPW46071   0.899   1.454   8.559 -0.4872 -0.0362  0.1755
11067WAT      O46072   3.231   0.006   1.357  0.1956  0.5425  0.4929
11067WAT     H146073   3.158  -0.053   1.338 -0.0061  0.5233  1.2602
11067WAT     H246074   3.196   0.065   1.424  0.8858  0.5349  0.8715
11067WAT    EPW46075   3.216   0.006   1.364  0.2600  0.5393  0.6441
11068WAT      O46076   4.331   4.867   1.377 -0.2188  0.5238  0.4178
11068WAT     H146077   4.293   4.781   1.364 -0.4779  0.6649  0.2331
11068WAT     H246078   4.266   4.915   1.428 -0.3467  0.8045 -0.0022
11068WAT    EPW46079   4.318   4.862   1.382 -0.2699  0.5794  0.3380
11069WAT      O46080   5.123   8.904   2.243  0.8863  0.2119 -0.2383
11069WAT     H146081   5.033   8.895   2.277  0.8113  5.5586  2.0158
11069WAT     H246082   5.119   8.864   2.156 -3.1235 -1.4328  0.4374
11069WAT    EPW46083   5.110   8.897   2.236  0.3474  0.7000  0.1483
11070WAT      O46084   1.050   7.873   4.389 -0.4455  0.2206  0.4424
11070WAT     H146085   1.128   7.832   4.428  1.5246 -0.7379 -3.9650
11070WAT     H246086   0.984   7.804   4.387  0.1103 -0.3108  0.2628
11070WAT    EPW46087   1.052   7.859   4.394 -0.1124  0.0241 -0.1624
11071WAT      O46088   4.329   5.739   2.258 -0.2638 -0.3128  0.6114
11071WAT     H146089   4.315   5.679   2.184  0.5531 -1.4911  1.3714
11071WAT     H246090   4.410   5.785   2.236 -1.5471  1.5190 -0.5761
11071WAT    EPW46091   4.338   5.737   2.245 -0.3252 -0.2267  0.5550
11072WAT      O46092   2.651   8.066   0.111  0.0022 -0.2655  0.0417
11072WAT     H146093   2.679   7.978   0.086  1.1192  0.1780 -0.2842
11072WAT     H246094   2.616   8.104   0.031 -1.1718 -0.6510  0.3434
11072WAT    EPW46095   2.650   8.059   0.097 -0.0054 -0.2580  0.0385
11073WAT      O46096   0.129   2.705   6.698 -0.9264 -0.0756  0.2548
11073WAT     H146097   0.185   2.635   6.732 -1.1453 -0.5912 -0.4177
11073WAT     H246098   0.127   2.771   6.768 -2.3906 -1.6551  1.7899
11073WAT    EPW46099   0.136   2.705   6.712 -1.1484 -0.3520  0.3688
11074WAT      O46100   5.609   0.485   1.791 -0.3360 -0.4350  0.0476
11074WAT     H146101   5.615   0.537   1.871 -0.8646 -0.0088 -0.1797
11074WAT     H246102   5.621   0.394   1.820  1.9466 -0.1142  0.2791
11074WAT    EPW46103   5.611   0.480   1.805 -0.1047 -0.3365  0.0482
11075WAT      O46104   0.335   0.536   7.866  0.3212 -0.4659  0.0258
11075WAT     H146105   0.357   0.474   7.796  3.0661  1.3979 -0.9800
11075WAT     H246106   0.365   0.494   7.946  0.6689 -1.0978 -0.4249
11075WAT    EPW46107   0.342   0.522   7.867  0.7291 -0.3034 -0.1662
11076WAT      O46108   1.744   9.185   3.934  0.3979 -0.2601  0.2717
11076WAT     H146109   1.739   9.130   4.011 -1.2320 -0.2377  0.2205
11076WAT     H246110   1.657   9.225   3.927  1.2393  1.5871 -0.2227
11076WAT    EPW46111   1.732   9.183   3.943  0.2939 -0.0134  0.1996
11077WAT      O46112   4.765   0.702   6.253 -0.5634  0.1403  1.2280
11077WAT     H146113   4.788   0.618   6.213 -1.4310  0.4140  0.0931
11077WAT     H246114   4.686   0.729   6.207 -0.8171  1.1495  2.2170
11077WAT    EPW46115   4.757   0.694   6.242 -0.7112  0.3095  1.2088
11078WAT      O46116  -3.201   4.248   3.649 -0.7813  0.3261 -1.1034
11078WAT     H146117  -3.228   4.157   3.649  0.6265 -0.1120 -1.4322
11078WAT     H246118  -3.215   4.278   3.739 -1.0370 -0.2678 -0.9451
11078WAT    EPW46119  -3.206   4.240   3.661 -0.6294  0.1900 -1.1258
11079WAT      O46120  -3.104   8.391   2.631  0.1084 -0.0295 -0.1785
11079WAT     H146121  -3.162   8.458   2.666 -0.3253 -0.6594  0.3255
11079WAT     H246122  -3.163   8.326   2.593  0.5349  0.0288 -0.9765
11079WAT    EPW46123  -3.119   8.391   2.631  0.1074 -0.1049 -0.2172
11080WAT      O46124   3.020   6.216   8.109 -0.2899  0.1072  0.0862
11080WAT     H146125   3.044   6.187   8.021 -0.8290 -1.8635  0.5447
11080WAT     H246126   2.926   6.233   8.105 -0.6088 -1.3861  0.5927
11080WAT    EPW46127   3.011   6.215   8.097 -0.4032 -0.3498  0.2131
11081WAT      O46128   0.971   5.145   3.208  0.4506 -0.3527 -0.5212
11081WAT     H146129   1.057   5.164   3.246 -0.7779 -0.3431  2.5067
11081WAT     H246130   0.957   5.215   3.144  1.7661  0.9414  0.5404
11081WAT    EPW46131   0.980   5.157   3.205  0.4621 -0.1807  0.0182
11082WAT      O46132   0.813   3.571   7.307  0.0518 -0.1213  0.0340
11082WAT     H146133   0.744   3.634   7.328  0.2075 -0.0779  0.4330
11082WAT     H246134   0.773   3.485   7.321  0.2228 -0.0922  0.7757
11082WAT    EPW46135   0.799   3.568   7.312  0.0949 -0.1117  0.1845
11083WAT      O46136  -2.784   6.984   4.690 -0.0462 -0.4171  0.0347
11083WAT     H146137  -2.808   6.982   4.598 -1.8418  0.4415  0.4399
11083WAT     H246138  -2.846   6.923   4.732  1.0193 -1.1270  0.6434
11083WAT    EPW46139  -2.796   6.975   4.683 -0.1425 -0.3974  0.1683
11084WAT      O46140  -2.780   1.565   7.171 -0.2850  0.0189 -0.4413
11084WAT     H146141  -2.865   1.595   7.204 -1.0085 -0.2458 -1.9573
11084WAT     H246142  -2.757   1.490   7.225 -1.3436 -0.3060 -0.4315
11084WAT    EPW46143  -2.788   1.559   7.182 -0.5200 -0.0589 -0.6399
11085WAT      O46144   4.981   4.604   4.971 -0.7209 -0.2106 -0.2596
11085WAT     H146145   4.989   4.662   4.895  0.1029  0.4353  0.2961
11085WAT     H246146   5.033   4.527   4.947  2.1793  1.2741  0.7897
11085WAT    EPW46147   4.989   4.601   4.957 -0.2298  0.0703 -0.0479
11086WAT      O46148   1.263   1.218   2.396 -0.1691 -0.4712  0.0811
11086WAT     H146149   1.298   1.274   2.327 -1.4060  0.4021  0.1145
11086WAT     H246150   1.299   1.253   2.477  0.1222 -0.5610 -0.0119
11086WAT    EPW46151   1.272   1.230   2.398 -0.2938 -0.3679  0.0732
11087WAT      O46152  -4.951   0.053   8.175  0.0276 -0.1977 -0.3115
11087WAT     H146153  -4.958   0.094   8.261 -1.8398 -1.5710  0.2420
11087WAT     H246154  -4.858   0.063   8.152  0.3268  1.2464  1.2883
11087WAT    EPW46155  -4.939   0.060   8.183 -0.1791 -0.1883 -0.0272
11088WAT      O46156   8.621   3.224   0.779  0.2096 -0.4669 -0.2004
11088WAT     H146157   8.579   3.290   0.723  1.4941  0.4221 -0.1473
11088WAT     H246158   8.665   3.166   0.717  0.1918 -0.4996 -0.1825
11088WAT    EPW46159   8.621   3.225   0.763  0.3767 -0.3539 -0.1911
11089WAT      O46160   6.619   7.047   2.631 -0.2680 -0.1709  0.0137
11089WAT     H146161   6.598   7.122   2.686 -0.9520 -1.2288  1.2712
11089WAT     H246162   6.587   6.972   2.681 -0.8599 -1.1959 -1.8346
11089WAT    EPW46163   6.612   7.047   2.645 -0.4363 -0.4456 -0.0643
11090WAT      O46164   5.675   1.247   1.092  0.1546  0.4669 -0.3512
11090WAT     H146165   5.657   1.204   1.008  0.6370 -0.6159  0.0722
11090WAT     H246166   5.725   1.182   1.141 -0.1344  1.0782  0.7861
11090WAT    EPW46167   5.679   1.232   1.088  0.1802  0.4047 -0.1453
11091WAT      O46168  -3.999   9.920   1.692  0.3865  0.3860 -0.2400
11091WAT     H146169  -3.911   9.896   1.662  0.2992 -0.4671  0.1634
11091WAT     H246170  -3.998  10.016   1.693  1.6914  0.3967  0.8241
11091WAT    EPW46171  -3.987   9.930   1.688  0.5471  0.2747 -0.0464
11092WAT      O46172   2.442   7.752   2.447  0.4903  0.3783  0.0097
11092WAT     H146173   2.513   7.776   2.506  0.6319  0.5347 -0.2207
11092WAT     H246174   2.486   7.731   2.364  0.3370 -0.3107  0.0985
11092WAT    EPW46175   2.457   7.752   2.444  0.4888  0.3083 -0.0089
11093WAT      O46176   1.743   2.559   7.287  0.2061  0.3548 -0.1024
11093WAT     H146177   1.751   2.649   7.319 -1.6893  0.6732 -0.4450
11093WAT     H246178   1.701   2.512   7.359 -2.1829  0.6155 -1.2391
11093WAT    EPW46179   1.739   2.565   7.301 -0.3589  0.4313 -0.2973
11094WAT      O46180  -1.762   6.513   4.120 -0.5015  0.2802 -0.0470
11094WAT     H146181  -1.790   6.479   4.035 -0.9905  1.3035 -0.3078
11094WAT     H246182  -1.810   6.595   4.130 -0.8455 -0.0889  1.4634
11094WAT    EPW46183  -1.772   6.519   4.110 -0.6114  0.3664  0.1178
11095WAT      O46184  -1.655   7.726   7.032  0.5308  0.0081 -0.2015
11095WAT     H146185  -1.577   7.754   6.983  1.5735 -2.1028  0.1086
11095WAT     H246186  -1.619   7.683   7.110 -0.8645 -2.0702 -0.6251
11095WAT    EPW46187  -1.640   7.724   7.036  0.4843 -0.5443 -0.2165
11096WAT      O46188  -3.882   4.715   8.821  0.0488  0.1034  0.0252
11096WAT     H146189  -3.825   4.668   8.760  4.4758  2.2832  2.0241
11096WAT     H246190  -3.903   4.797   8.777  0.2956  0.1862  0.0560
11096WAT    EPW46191  -3.877   4.719   8.807  0.6653  0.4017  0.2928
11097WAT      O46192   3.698   2.567   7.676 -0.4571  0.4740 -0.5075
11097WAT     H146193   3.714   2.494   7.616  0.0822  0.4984 -0.3931
11097WAT     H246194   3.633   2.621   7.630 -2.4320 -1.0984  0.2493
11097WAT    EPW46195   3.691   2.564   7.662 -0.6465  0.2699 -0.3927
11098WAT      O46196   7.760   0.499   4.913  0.7301  0.9769 -0.2783
11098WAT     H146197   7.754   0.413   4.871  2.4937 -0.8754  2.9185
11098WAT     H246198   7.844   0.534   4.883  0.0955  1.5778 -1.4348
11098WAT    EPW46199   7.770   0.492   4.903  0.8790  0.8119 -0.0093
11099WAT      O46200   0.214   1.086   3.963 -0.6122 -0.1143 -0.3726
11099WAT     H146201   0.152   1.034   4.013  0.0389 -0.5267  0.0160
11099WAT     H246202   0.234   1.160   4.020  0.1270 -0.5823 -0.0105
11099WAT    EPW46203   0.208   1.089   3.977 -0.4288 -0.2304 -0.2735
11100WAT      O46204   1.028   7.153   6.354  0.4401  0.2661 -0.3289
11100WAT     H146205   0.948   7.147   6.301  0.1022  1.7076 -0.0364
11100WAT     H246206   1.014   7.091   6.426 -1.1469  1.5974  0.5847
11100WAT    EPW46207   1.016   7.144   6.357  0.1862  0.6318 -0.1698
11101WAT      O46208   0.001   3.825   6.976  0.5902 -0.7991  0.2445
11101WAT     H146209  -0.094   3.833   6.971  0.5846  0.8426  2.0836
11101WAT     H246210   0.028   3.891   7.040  3.0365 -0.8030 -0.6637
11101WAT    EPW46211  -0.008   3.835   6.984  0.9121 -0.5831  0.3672
11102WAT      O46212  -3.228   1.028   8.959 -0.5648  0.2671 -0.1793
11102WAT     H146213  -3.153   1.078   8.925 -0.4712 -0.3073 -0.8435
11102WAT     H246214  -3.239   1.059   9.049  1.0726 -0.3050  0.2614
11102WAT    EPW46215  -3.219   1.039   8.966 -0.3365  0.1159 -0.2089
11103WAT      O46216   7.884   0.082   4.755 -0.9209  0.4821  0.9333
11103WAT     H146217   7.869   0.031   4.834 -0.4414  1.8898  1.9887
11103WAT     H246218   7.958   0.040   4.712 -0.0594  0.6936  2.1637
11103WAT    EPW46219   7.892   0.070   4.759 -0.7441  0.6957  1.2348
11104WAT      O46220  -3.498   4.817   8.279  0.2747  0.2027  0.1502
11104WAT     H146221  -3.579   4.858   8.312  0.5281  0.6590  0.2127
11104WAT     H246222  -3.498   4.837   8.185  0.3906  0.3360  0.1778
11104WAT    EPW46223  -3.509   4.825   8.271  0.3234  0.2804  0.1621
11105WAT      O46224   0.349   2.476   1.109 -0.1276 -0.0111 -0.4966
11105WAT     H146225   0.346   2.381   1.122 -0.2756 -0.1097 -1.2287
11105WAT     H246226   0.440   2.500   1.124  0.2209 -0.4847 -1.7371
11105WAT    EPW46227   0.361   2.467   1.113 -0.1011 -0.0867 -0.7567
11106WAT      O46228   5.143   3.600   0.373  0.8246  0.6700 -0.7027
11106WAT     H146229   5.083   3.641   0.310 -0.2747  0.1752  0.0012
11106WAT     H246230   5.114   3.633   0.458  3.1732  2.4454 -0.5051
11106WAT    EPW46231   5.131   3.610   0.376  0.9892  0.8388 -0.5838
11107WAT      O46232   5.937   3.655   3.876  0.4382 -0.5194  0.0633
11107WAT     H146233   6.003   3.629   3.812  2.1236  1.7544  0.7514
11107WAT     H246234   5.868   3.696   3.823  1.5685  0.8718 -0.3996
11107WAT    EPW46235   5.937   3.657   3.860  0.8094 -0.0360  0.0930
11108WAT      O46236   5.108   8.536   0.556 -0.3810 -0.0602 -0.9407
11108WAT     H146237   5.033   8.580   0.515 -0.4826 -1.8862 -2.8732
11108WAT     H246238   5.129   8.463   0.497  1.1240 -1.3223  1.0107
11108WAT    EPW46239   5.101   8.532   0.542 -0.1957 -0.4673 -0.9383
11109WAT      O46240   8.499   0.488   1.180 -0.4728  0.0812 -0.2838
11109WAT     H146241   8.453   0.406   1.163  3.3128 -2.2351 -0.6224
11109WAT     H246242   8.516   0.524   1.093 -1.1955  0.6850 -0.1832
11109WAT    EPW46243   8.495   0.482   1.166 -0.0687 -0.1446 -0.3151
11110WAT      O46244   4.285   8.361   2.800 -0.1270  0.8658  0.2905
11110WAT     H146245   4.257   8.296   2.864  1.7556 -0.4423 -0.1383
11110WAT     H246246   4.253   8.444   2.836 -0.2597  0.0361  2.2449
11110WAT    EPW46247   4.277   8.363   2.813  0.1037  0.5841  0.4917
11111WAT      O46248   6.085   2.022   4.817 -0.3175 -0.4940 -0.2998
11111WAT     H146249   6.067   1.935   4.855 -3.3870 -0.1095 -0.5856
11111WAT     H246250   6.073   2.010   4.723 -1.1664  0.2845 -0.3050
11111WAT    EPW46251   6.081   2.009   4.810 -0.8345 -0.3407 -0.3381
11112WAT      O46252  -1.956   1.647   3.568 -0.1384 -0.1841  0.1852
11112WAT     H146253  -1.978   1.676   3.479 -1.2671 -1.6840 -0.0752
11112WAT     H246254  -1.896   1.714   3.601  1.2282 -0.1394 -2.1205
11112WAT    EPW46255  -1.951   1.659   3.560 -0.1070 -0.3760 -0.1533
11113WAT      O46256   3.615   0.144   7.041 -0.0338  0.4397  0.0790
11113WAT     H146257   3.667   0.223   7.055 -0.0570  0.4512  0.1007
11113WAT     H246258   3.535   0.159   7.091 -0.0966  0.4606 -0.0284
11113WAT    EPW46259   3.611   0.156   7.049 -0.0452  0.4439  0.0677
11114WAT      O46260   6.479   2.072   3.679 -0.0720 -0.2679 -0.4903
11114WAT     H146261   6.499   2.017   3.603 -0.6220 -1.0493 -0.0785
11114WAT     H246262   6.472   2.160   3.643 -1.9887 -0.8357 -1.6669
11114WAT    EPW46263   6.481   2.076   3.664 -0.3972 -0.4458 -0.5912
11115WAT      O46264   4.939   9.826   0.295  0.5669 -0.2009 -0.1821
11115WAT     H146265   4.962   9.919   0.291 -0.1853  0.0043  0.0210
11115WAT     H246266   4.935   9.807   0.389  0.7031 -0.4338 -0.2236
11115WAT    EPW46267   4.942   9.836   0.307  0.4854 -0.2041 -0.1608
11116WAT      O46268   1.363   2.191   5.069 -0.1889  0.4639 -0.1854
11116WAT     H146269   1.363   2.117   5.008 -1.9341  0.2367  0.0310
11116WAT     H246270   1.270   2.213   5.080 -0.1514 -0.4723  3.4983
11116WAT    EPW46271   1.351   2.184   5.063 -0.4141  0.3103  0.3290
11117WAT      O46272   2.010   1.595   2.660 -0.4604  0.3432 -0.1410
11117WAT     H146273   2.050   1.575   2.576  2.0251 -2.5952  1.5430
11117WAT     H246274   2.055   1.675   2.690  2.5288 -1.4620  0.5537
11117WAT    EPW46275   2.021   1.603   2.653  0.2618 -0.2825  0.1726
11118WAT      O46276  -0.694   9.650   3.809 -0.0131  0.6935  0.2698
11118WAT     H146277  -0.615   9.703   3.823  0.7549 -0.2174 -0.4551
11118WAT     H246278  -0.678   9.570   3.860 -0.7709  0.7815  0.6537
11118WAT    EPW46279  -0.681   9.646   3.817 -0.0118  0.5851  0.2248
11119WAT      O46280   5.323   3.119   1.833  0.0997  0.3278  0.2298
11119WAT     H146281   5.287   3.202   1.805 -1.1069 -0.9201 -2.2225
11119WAT     H246282   5.247   3.067   1.860  0.4948 -0.7888 -0.6786
11119WAT    EPW46283   5.309   3.123   1.833 -0.0074  0.0160 -0.2134
11120WAT      O46284  -2.231   1.400   3.227  0.0497 -0.2705  0.1434
11120WAT     H146285  -2.294   1.330   3.209 -0.1464 -0.6020  1.9562
11120WAT     H246286  -2.150   1.355   3.250 -0.3042  0.0308  2.1379
11120WAT    EPW46287  -2.229   1.385   3.227 -0.0229 -0.2744  0.6456
11121WAT      O46288   4.418   3.401   5.717 -0.6272  0.4299 -0.5926
11121WAT     H146289   4.451   3.428   5.802  0.1016 -2.1844  0.0511
11121WAT     H246290   4.433   3.476   5.660  0.7014  1.5382  1.1326
11121WAT    EPW46291   4.424   3.414   5.721 -0.3557  0.2313 -0.2801
11122WAT      O46292   0.107   7.400   2.573  0.1742 -0.2152 -0.1771
11122WAT     H146293   0.163   7.399   2.496  0.7801  0.7260  0.2305
11122WAT     H246294   0.058   7.482   2.566 -2.4647 -1.7441 -1.4009
11122WAT    EPW46295   0.108   7.411   2.562 -0.0939 -0.2925 -0.2848
11123WAT      O46296   4.795   0.919   1.216  0.2925 -0.5922 -1.1638
11123WAT     H146297   4.857   0.963   1.273  0.9706  1.3237 -3.2158
11123WAT     H246298   4.839   0.838   1.190 -0.1679 -1.6604  1.1568
11123WAT    EPW46299   4.809   0.914   1.220  0.3211 -0.4804 -1.1284
11124WAT      O46300   2.373   4.776   7.257 -0.5235  0.6241  0.4566
11124WAT     H146301   2.416   4.816   7.181 -0.5868  1.6957  0.9628
11124WAT     H246302   2.444   4.731   7.303 -0.2563  0.9628  0.3824
11124WAT    EPW46303   2.388   4.776   7.253 -0.4966  0.8104  0.5136
11125WAT      O46304  -4.445   5.902   8.943 -0.6929  0.4485 -0.1285
11125WAT     H146305  -4.536   5.919   8.921 -0.2591  2.2524 -0.7675
11125WAT     H246306  -4.448   5.848   9.022 -2.2979  0.0529 -0.4331
11125WAT    EPW46307  -4.457   5.897   8.950 -0.8473  0.6342 -0.2532
11126WAT      O46308   3.938   8.047   6.660  0.0004  0.2655  0.4339
11126WAT     H146309   3.945   8.118   6.597  0.8774  0.1482  0.3903
11126WAT     H246310   3.897   8.087   6.737 -0.7786  0.4826 -0.0771
11126WAT    EPW46311   3.933   8.062   6.662  0.0134  0.2785  0.3607
11127WAT      O46312   3.358   6.441   7.740  0.0039  0.4913 -0.7159
11127WAT     H146313   3.311   6.421   7.822 -0.2167  2.1389 -0.4140
11127WAT     H246314   3.359   6.357   7.693 -1.4098 -0.0918  0.1984
11127WAT    EPW46315   3.352   6.427   7.745 -0.2116  0.6316 -0.5553
11128WAT      O46316   4.188   0.664   1.962 -0.0550 -0.4921 -0.4966
11128WAT     H146317   4.127   0.646   1.891  0.6804  3.4295 -2.4193
11128WAT     H246318   4.268   0.618   1.937 -0.1102  0.0669 -1.7926
11128WAT    EPW46319   4.191   0.656   1.950  0.0346  0.0988 -0.9211
11129WAT      O46320  -2.662   4.322   2.757 -0.5464 -0.2172  0.3753
11129WAT     H146321  -2.736   4.266   2.732  0.6267 -1.0614 -1.4716
11129WAT     H246322  -2.615   4.272   2.824 -0.2243 -0.8813 -0.3336
11129WAT    EPW46323  -2.666   4.308   2.762 -0.3492 -0.4163  0.0383
11130WAT      O46324   0.857   6.667   4.007 -0.0795 -0.2998  0.2263
11130WAT     H146325   0.766   6.672   3.979  0.3807  0.3937 -1.2096
11130WAT     H246326   0.905   6.643   3.928  0.8397 -2.1417  1.2761
11130WAT    EPW46327   0.851   6.664   3.993  0.1024 -0.4513  0.1754
11131WAT      O46328   6.950   3.888   1.453  0.5806 -0.5561 -0.4089
11131WAT     H146329   6.893   3.965   1.453  2.4232  0.8726 -0.0455
11131WAT     H246330   6.945   3.855   1.363 -0.9629 -0.6076 -0.3290
11131WAT    EPW46331   6.941   3.894   1.441  0.6201 -0.3744 -0.3504
11132WAT      O46332  -1.244   6.422   1.004 -0.5807 -0.0574 -0.1552
11132WAT     H146333  -1.310   6.488   1.023  0.1293  0.6116  0.0506
11132WAT     H246334  -1.252   6.358   1.075  0.4297  1.1615  1.1105
11132WAT    EPW46335  -1.253   6.422   1.016 -0.3538  0.1915  0.0389
11133WAT      O46336   5.982   3.532   4.592  0.5312 -0.4550 -0.1365
11133WAT     H146337   5.908   3.504   4.539  0.3246 -0.2274  0.0314
11133WAT     H246338   6.043   3.571   4.529  1.2450 -2.1087 -0.5100
11133WAT    EPW46339   5.980   3.534   4.577  0.5980 -0.6431 -0.1636
11134WAT      O46340  -1.546  10.049   4.798 -0.6158 -0.6768  0.7279
11134WAT     H146341  -1.595  10.129   4.814 -0.1081 -0.5823  1.9582
11134WAT     H246342  -1.456  10.070   4.824  0.2725 -0.6447 -2.0316
11134WAT    EPW46343  -1.540  10.062   4.803 -0.4317 -0.6604  0.5262
11135WAT      O46344  -2.212  10.352   4.085  0.4128  0.3304  0.2909
11135WAT     H146345  -2.155  10.307   4.148  1.2335  2.1252  0.8979
11135WAT     H246346  -2.299  10.315   4.100  0.7632  0.0669  1.8436
11135WAT    EPW46347  -2.216  10.341   4.095  0.5672  0.5317  0.5758
11136WAT      O46348   0.371   0.723   8.107  0.3644 -0.2068  0.3876
11136WAT     H146349   0.420   0.648   8.138  2.6797  1.7267  1.7418
11136WAT     H246350   0.437   0.791   8.091 -1.6044  1.6368 -0.5594
11136WAT    EPW46351   0.386   0.722   8.109  0.4101  0.2913  0.4411
11137WAT      O46352  -6.095   9.413   4.801  0.2597 -0.0765 -0.1179
11137WAT     H146353  -6.032   9.411   4.729  1.5596 -0.1449  0.9772
11137WAT     H246354  -6.118   9.506   4.810  0.0917 -0.0693 -0.6218
11137WAT    EPW46355  -6.090   9.425   4.793  0.4089 -0.0844 -0.0401
11138WAT      O46356  -4.171   6.477   7.674  0.2512  0.7038 -0.0582
11138WAT     H146357  -4.079   6.465   7.699  0.6941  0.0225 -1.8573
11138WAT     H246358  -4.214   6.396   7.702  0.6636  0.1008 -1.1424
11138WAT    EPW46359  -4.164   6.465   7.681  0.3641  0.5343 -0.4385
11139WAT      O46360  -5.750   9.379   5.580 -0.1787 -1.1548  0.0474
11139WAT     H146361  -5.841   9.406   5.564 -0.3638 -1.5685  0.3991
11139WAT     H246362  -5.708   9.458   5.613 -0.5707 -1.1280  0.4938
11139WAT    EPW46363  -5.757   9.393   5.582 -0.2549 -1.2059  0.1526
11140WAT      O46364   5.841   1.072   3.507 -0.5507  0.1130  0.2896
11140WAT     H146365   5.896   0.993   3.510  1.1997  1.2952  1.3160
11140WAT     H246366   5.752   1.039   3.495  0.1076 -2.0160  0.8519
11140WAT    EPW46367   5.837   1.057   3.506 -0.2329 -0.0119  0.4991
11141WAT      O46368  -4.979   4.034   7.052  1.0363  0.6493 -0.1534
11141WAT     H146369  -5.065   4.062   7.081  0.8840  0.3614 -0.3132
11141WAT     H246370  -4.929   4.115   7.040  0.0661  1.0064 -2.3459
11141WAT    EPW46371  -4.984   4.048   7.054  0.8881  0.6585 -0.4637
11142WAT      O46372  -0.506  10.134   2.942  0.0285  0.1973 -0.0922
11142WAT     H146373  -0.578  10.072   2.928  0.7336 -0.2653 -2.0402
11142WAT     H246374  -0.444  10.087   2.997  0.3901 -0.7502 -1.2635
11142WAT    EPW46375  -0.507  10.120   2.947  0.1692  0.0114 -0.5037
11143WAT      O46376   0.561   7.744   0.809  0.0686 -0.3985  0.0710
11143WAT     H146377   0.509   7.825   0.806 -2.5579 -1.9740  0.3250
11143WAT     H246378   0.509   7.684   0.862  1.2479 -2.7509 -1.3026
11143WAT    EPW46379   0.547   7.747   0.816 -0.1223 -0.9165 -0.0767
11144WAT      O46380  -1.476   1.489   7.773  0.8754  0.4378 -0.2781
11144WAT     H146381  -1.530   1.421   7.734 -0.2471  1.3751 -0.4063
11144WAT     H246382  -1.432   1.445   7.846  1.7668 -0.9220 -1.5601
11144WAT    EPW46383  -1.477   1.474   7.778  0.8450  0.3821 -0.4642
11145WAT      O46384   7.487   2.107   3.038  0.4000  0.0975  0.9542
11145WAT     H146385   7.499   2.015   3.060 -0.7006 -0.2044  0.3633
11145WAT     H246386   7.397   2.126   3.063 -1.6738 -0.7260 -4.4268
11145WAT    EPW46387   7.476   2.097   3.044 -0.0186 -0.0509  0.1665
11146WAT      O46388  -0.236   6.422   6.636  0.2243  0.1371  0.6812
11146WAT     H146389  -0.278   6.394   6.554 -0.5229  1.8376  0.4317
11146WAT     H246390  -0.151   6.457   6.609 -1.0559  3.1659  0.1692
11146WAT    EPW46391  -0.231   6.423   6.621 -0.0431  0.7608  0.5805
11147WAT      O46392   9.138   1.467   1.093  0.5522 -0.0093 -0.8351
11147WAT     H146393   9.121   1.374   1.081  1.2399 -0.4011  0.9924
11147WAT     H246394   9.222   1.482   1.051  0.5415 -0.2444 -0.9435
11147WAT    EPW46395   9.147   1.457   1.086  0.6413 -0.0920 -0.6083
11148WAT      O46396   2.963   3.660   2.277 -0.0942  0.0836  0.0900
11148WAT     H146397   2.872   3.664   2.306  0.2815 -1.6890  1.6907
11148WAT     H246398   2.996   3.578   2.313  2.3231  0.9673  0.0481
11148WAT    EPW46399   2.955   3.650   2.285  0.2742 -0.0336  0.2956
11149WAT      O46400   5.907   3.182   0.810  0.5556 -0.1816 -0.3796
11149WAT     H146401   5.988   3.132   0.803 -0.3523 -1.6021 -1.3458
11149WAT     H246402   5.850   3.144   0.743 -1.0101  0.5830  0.4673
11149WAT    EPW46403   5.910   3.170   0.800  0.2294 -0.2682 -0.3954
11150WAT      O46404   6.776   2.437   2.451 -0.2000 -0.6535 -0.9046
11150WAT     H146405   6.829   2.430   2.530 -0.2495 -0.5080 -0.8573
11150WAT     H246406   6.689   2.463   2.482  0.0692  0.5524 -1.0926
11150WAT    EPW46407   6.771   2.440   2.465 -0.1709 -0.4753 -0.9232
11151WAT      O46408  -2.038   2.429   4.329  0.6910 -0.2214 -0.3340
11151WAT     H146409  -2.023   2.450   4.237  1.7444  0.3844 -0.0487
11151WAT     H246410  -2.016   2.510   4.376  2.5136 -1.1896  0.6113
11151WAT    EPW46411  -2.033   2.442   4.323  1.0703 -0.2692 -0.1717
11152WAT      O46412  -2.283   8.959   8.861 -0.7668  0.0612  0.0993
11152WAT     H146413  -2.378   8.944   8.856 -0.6072 -1.0007 -0.0683
11152WAT     H246414  -2.252   8.949   8.771 -0.4316 -0.0815  0.2297
11152WAT    EPW46415  -2.292   8.956   8.849 -0.7015 -0.0973  0.0944
11153WAT      O46416  -2.661   8.756   8.702 -0.5921  0.4399 -0.1922
11153WAT     H146417  -2.634   8.681   8.755  2.2860 -0.6533 -2.8491
11153WAT     H246418  -2.740   8.727   8.657  0.3614 -1.0173 -1.0188
11153WAT    EPW46419  -2.668   8.742   8.703 -0.0868  0.1030 -0.6514
11154WAT      O46420   1.187   6.711   0.846  0.1011 -0.3269 -0.3917
11154WAT     H146421   1.103   6.744   0.815 -0.8842 -1.7242  0.6719
11154WAT     H246422   1.237   6.790   0.868 -0.6583  0.5486 -1.6587
11154WAT    EPW46423   1.183   6.726   0.845 -0.1290 -0.3958 -0.4185
11155WAT      O46424   4.653   3.964   7.186 -0.0002  0.2108 -0.7499
11155WAT     H146425   4.593   4.037   7.198  0.7830  0.8299 -0.4698
11155WAT     H246426   4.603   3.899   7.137 -1.1485  0.3704  0.1705
11155WAT    EPW46427   4.639   3.965   7.181 -0.0486  0.3135 -0.5915
11156WAT      O46428   4.903   3.736   1.358  0.3418 -0.3146 -0.1325
11156WAT     H146429   4.970   3.745   1.291  1.6746  0.5566  1.2559
11156WAT     H246430   4.826   3.703   1.311  1.1356  0.5177 -2.1009
11156WAT    EPW46431   4.902   3.733   1.343  0.6223 -0.0900 -0.2089
11157WAT      O46432   3.025   2.571   3.413 -0.8047 -0.3963 -0.1243
11157WAT     H146433   3.107   2.615   3.389 -1.4686  1.6608  1.1238
11157WAT     H246434   3.046   2.522   3.492 -0.5435 -0.6999 -0.3784
11157WAT    EPW46435   3.038   2.571   3.420 -0.8579 -0.1650  0.0069
11158WAT      O46436   1.261   8.066   5.325  0.2060 -0.0830 -0.1691
11158WAT     H146437   1.251   7.976   5.295 -2.2973  1.1068 -3.5159
11158WAT     H246438   1.185   8.112   5.289  0.8398  3.2132  2.2273
11158WAT    EPW46439   1.250   8.060   5.317 -0.0405  0.5088 -0.2944
11159WAT      O46440   7.659   0.795   4.914  0.2901  0.1498  0.3599
11159WAT     H146441   7.624   0.808   4.826 -0.3756 -1.3300  0.3779
11159WAT     H246442   7.740   0.746   4.902  0.7894  0.9149  0.5175
11159WAT    EPW46443   7.665   0.791   4.901  0.2682  0.0555  0.3829
11160WAT      O46444  -0.125   0.975   6.779 -0.0598 -0.9143  0.7221
11160WAT     H146445  -0.202   0.964   6.723  0.4199 -0.6385 -0.0115
11160WAT     H246446  -0.119   0.894   6.829  0.9848 -2.2872 -1.4988
11160WAT    EPW46447  -0.134   0.963   6.778  0.1412 -1.0590  0.3324
11161WAT      O46448  -1.959   4.032   1.735 -0.0736 -0.0428  0.0638
11161WAT     H146449  -2.051   4.031   1.709  0.8400  2.6851 -4.3486
11161WAT     H246450  -1.951   4.107   1.793 -0.2032  2.1392 -2.5556
11161WAT    EPW46451  -1.970   4.041   1.739  0.0299  0.6046 -0.8636
11162WAT      O46452  -0.266   6.006   3.186  0.6611 -0.4101  0.0082
11162WAT     H146453  -0.284   5.934   3.126  2.1032 -0.1214 -0.8352
11162WAT     H246454  -0.171   6.006   3.195  0.7715  1.7231 -0.4949
11162WAT    EPW46455  -0.256   5.997   3.179  0.8659 -0.0908 -0.1694
11163WAT      O46456  -2.419   0.343   4.800 -0.3738  0.1657  0.3945
11163WAT     H146457  -2.344   0.285   4.812 -0.2578 -0.3461 -2.2609
11163WAT     H246458  -2.432   0.346   4.705 -4.2086 -0.4436  0.7347
11163WAT    EPW46459  -2.411   0.336   4.789 -0.8643  0.0178  0.0892
11164WAT      O46460   9.552   0.170   1.574 -0.7444 -0.4177  0.7704
11164WAT     H146461   9.516   0.201   1.657 -0.1177  2.0037  0.2214
11164WAT     H246462   9.642   0.147   1.595 -0.5830  0.1998  0.7861
11164WAT    EPW46463   9.559   0.171   1.588 -0.6409 -0.0169  0.7001
11165WAT      O46464   0.296   4.911   6.099  0.1223 -0.4664 -0.2379
11165WAT     H146465   0.343   4.994   6.083 -2.5142  1.2495  0.2952
11165WAT     H246466   0.288   4.907   6.194 -0.8819 -0.6581 -0.3264
11165WAT    EPW46467   0.301   4.922   6.110 -0.3579 -0.2654 -0.1793
11166WAT      O46468   0.121   1.312   5.434  0.5835 -0.1886 -0.3615
11166WAT     H146469   0.107   1.224   5.470  2.2118  0.4308  2.0314
11166WAT     H246470   0.169   1.297   5.352 -0.5246 -1.5327 -0.8161
11166WAT    EPW46471   0.125   1.298   5.428  0.6521 -0.2841 -0.1059
11167WAT      O46472  -3.210   0.635   7.576  0.2953  0.0040  0.2386
11167WAT     H146473  -3.278   0.642   7.509  1.6256  0.5153 -1.1171
11167WAT     H246474  -3.218   0.546   7.609 -1.5743  0.3202  0.7485
11167WAT    EPW46475  -3.220   0.624   7.572  0.2241  0.1132  0.1268
11168WAT      O46476  -4.313  10.182   8.478  0.1668  0.6668 -0.0914
11168WAT     H146477  -4.252  10.187   8.404  2.2027 -1.9065  1.2490
11168WAT     H246478  -4.281  10.108   8.530  0.2719  3.6205  4.6060
11168WAT    EPW46479  -4.300  10.173   8.475  0.4494  0.7172  0.7052
11169WAT      O46480  -3.064   6.637   5.603 -0.2014  0.1313 -0.2863
11169WAT     H146481  -3.036   6.624   5.693 -0.8089  0.6334 -0.0176
11169WAT     H246482  -2.982   6.646   5.553  0.1330  0.5454  0.3237
11169WAT    EPW46483  -3.050   6.637   5.608 -0.2375  0.2520 -0.1702
11170WAT      O46484  -0.851   9.815   4.714 -0.5251  0.1620  0.4593
11170WAT     H146485  -0.929   9.780   4.670 -1.2624  0.6791  1.3094
11170WAT     H246486  -0.781   9.804   4.651 -1.8711  2.6336 -1.6576
11170WAT    EPW46487  -0.852   9.809   4.700 -0.7999  0.5555  0.2921
11171WAT      O46488   1.968   7.234   8.514 -0.6861 -0.2921 -0.3324
11171WAT     H146489   1.936   7.149   8.483 -0.1756 -0.5289 -0.2230
11171WAT     H246490   1.927   7.297   8.455 -1.5822 -0.5557 -0.0192
11171WAT    EPW46491   1.958   7.231   8.502 -0.7369 -0.3581 -0.2761
11172WAT      O46492  -1.457   1.880   2.038  0.1697 -0.5478  0.3257
11172WAT     H146493  -1.539   1.885   1.989 -1.1781  0.3503  2.5136
11172WAT     H246494  -1.484   1.866   2.129  2.3090  1.8900  1.4614
11172WAT    EPW46495  -1.471   1.879   2.044  0.2741 -0.1078  0.7641
11173WAT      O46496   6.804   5.372   1.354 -0.4225  0.1819 -0.7838
11173WAT     H146497   6.891   5.367   1.314 -0.7184  0.8000 -1.5418
11173WAT     H246498   6.754   5.303   1.311 -0.7768  0.9275 -1.6049
11173WAT    EPW46499   6.809   5.362   1.343 -0.5081  0.3617 -0.9921
11174WAT      O46500   0.217   1.347   0.727 -0.2985 -0.1358  0.3957
11174WAT     H146501   0.234   1.401   0.803  0.4105  1.8297 -1.0751
11174WAT     H246502   0.123   1.352   0.714 -0.3825 -0.2294  0.9607
11174WAT    EPW46503   0.207   1.355   0.735 -0.2161  0.1111  0.2763
11175WAT      O46504  -1.878   2.540   5.305  0.2879  0.0285 -0.3826
11175WAT     H146505  -1.965   2.512   5.276  0.3963  1.2891 -2.0372
11175WAT     H246506  -1.896   2.605   5.373  0.0361 -2.9002  2.6280
11175WAT    EPW46507  -1.892   2.545   5.310  0.2690 -0.1916 -0.2038
11176WAT      O46508   8.221   0.392   3.684 -0.0837  0.0734  0.4763
11176WAT     H146509   8.214   0.346   3.600 -3.7232 -0.2297  0.8105
11176WAT     H246510   8.287   0.342   3.733 -0.2039 -1.6641 -1.0485
11176WAT    EPW46511   8.229   0.379   3.679 -0.5794 -0.1958  0.3192
11177WAT      O46512  -5.644   9.791   7.976 -0.4314 -0.5561  0.2224
11177WAT     H146513  -5.733   9.784   8.011 -1.2243 -1.1465 -1.7531
11177WAT     H246514  -5.599   9.715   8.012 -1.0281 -0.8178  0.4417
11177WAT    EPW46515  -5.650   9.780   7.985 -0.6146 -0.6685 -0.0093
11178WAT      O46516  -4.418   7.619   3.654  0.2897  0.5433  0.7570
11178WAT     H146517  -4.414   7.698   3.600 -3.4156  0.9609  0.8276
11178WAT     H246518  -4.442   7.650   3.741 -1.9468 -0.5709  0.6283
11178WAT    EPW46519  -4.421   7.633   3.658 -0.4940  0.4516  0.7493
11179WAT      O46520  -2.384   9.326   1.011  0.3188  0.0489 -0.6654
11179WAT     H146521  -2.395   9.231   1.007  2.5675 -0.2397 -2.8961
11179WAT     H246522  -2.469   9.361   0.985 -0.5314 -1.3253  0.1293
11179WAT    EPW46523  -2.397   9.318   1.007  0.5032 -0.1702 -0.8547
11180WAT      O46524  -4.296   0.946   7.118 -0.8067 -0.2523  0.2741
11180WAT     H146525  -4.379   0.976   7.155  0.2593  0.2579  2.4461
11180WAT     H246526  -4.236   1.019   7.130 -0.7851  0.8912 -4.7055
11180WAT    EPW46527  -4.299   0.959   7.125 -0.6633 -0.0342 -0.0961
11181WAT      O46528   4.882   5.496   2.921 -0.3230  0.8173  0.3467
11181WAT     H146529   4.808   5.553   2.943 -0.1123  1.2340 -0.0058
11181WAT     H246530   4.951   5.556   2.894 -0.1835  0.3812 -0.2795
11181WAT    EPW46531   4.881   5.511   2.920 -0.2770  0.8147  0.2176
11182WAT      O46532   4.471   8.753   4.273  1.1678  0.2206 -0.1051
11182WAT     H146533   4.480   8.833   4.324 -2.6363  1.1271 -0.5548
11182WAT     H246534   4.452   8.685   4.337 -0.9493  0.8324 -0.0147
11182WAT    EPW46535   4.469   8.754   4.288  0.3867  0.4210 -0.1523
11183WAT      O46536   2.421   6.906   4.842  0.2973 -0.8742 -0.9044
11183WAT     H146537   2.487   6.958   4.796 -0.3820  1.6904  0.8522
11183WAT     H246538   2.472   6.853   4.903  0.8705 -0.4955 -1.0436
11183WAT    EPW46539   2.437   6.906   4.844  0.2832 -0.4861 -0.6909
11184WAT      O46540   4.653   2.823   8.665  0.2356  0.0258  0.0412
11184WAT     H146541   4.659   2.767   8.742  2.0608  0.4226  0.2328
11184WAT     H246542   4.614   2.767   8.598 -1.4653 -0.2994  1.2432
11184WAT    EPW46543   4.649   2.808   8.666  0.2520  0.0353  0.2246
11185WAT      O46544   0.687   7.718   1.427 -0.4644  0.1296  0.1652
11185WAT     H146545   0.704   7.802   1.385 -0.9527  1.4285  2.3879
11185WAT     H246546   0.677   7.656   1.355  1.6152  1.6059 -1.5046
11185WAT    EPW46547   0.688   7.720   1.412 -0.2545  0.4959  0.2381
11186WAT      O46548  -4.480   9.667   4.606  0.6751 -1.0953 -0.3127
11186WAT     H146549  -4.574   9.664   4.625  0.4267 -0.6661 -1.3928
11186WAT     H246550  -4.462   9.585   4.559  1.0471 -1.6145  0.7019
11186WAT    EPW46551  -4.490   9.656   4.602  0.6914 -1.1072 -0.3214
11187WAT      O46552   0.878   4.327   6.022  0.0052  0.2279 -0.0083
11187WAT     H146553   0.851   4.348   6.112  1.7715  2.6138  0.0565
11187WAT     H246554   0.925   4.245   6.030  0.4374  0.5783  1.3363
11187WAT    EPW46555   0.881   4.319   6.035  0.2952  0.5884  0.1774
11188WAT      O46556   6.456   4.981   3.195  0.5823 -0.0780  0.1542
11188WAT     H146557   6.447   4.887   3.212  0.1341 -0.1160 -0.2733
11188WAT     H246558   6.550   4.995   3.185  0.6801 -0.4158  0.5705
11188WAT    EPW46559   6.467   4.970   3.196  0.5360 -0.1276  0.1527
11189WAT      O46560   6.413   1.628   0.839 -0.1922 -0.1222 -0.6053
11189WAT     H146561   6.445   1.715   0.864 -0.6262 -0.0154 -0.4030
11189WAT     H246562   6.470   1.567   0.885  0.0534  0.0561 -0.6683
11189WAT    EPW46563   6.424   1.632   0.848 -0.2172 -0.0845 -0.5870
11190WAT      O46564  -2.495   7.971   4.252 -0.4554  0.0430  0.4913
11190WAT     H146565  -2.573   7.948   4.203  0.8541 -1.3625 -1.0362
11190WAT     H246566  -2.461   8.049   4.208  0.8069 -1.3096 -1.0470
11190WAT    EPW46567  -2.501   7.978   4.240 -0.1163 -0.3209  0.0868
11191WAT      O46568   1.522   6.310   8.774 -0.1760 -0.0878 -0.7508
11191WAT     H146569   1.438   6.294   8.817  0.0514  0.9568  0.1190
11191WAT     H246570   1.565   6.224   8.774  0.5350  0.1315  2.7278
11191WAT    EPW46571   1.517   6.296   8.779 -0.0522  0.0789 -0.1769
11192WAT      O46572   3.494   7.115   5.813  0.4619  0.1319 -0.0123
11192WAT     H146573   3.441   7.035   5.809  0.2705  0.2735 -0.3380
11192WAT     H246574   3.562   7.102   5.747 -0.7068  1.0403 -1.4721
11192WAT    EPW46575   3.496   7.102   5.804  0.2825  0.2706 -0.2480
11193WAT      O46576  -5.081   9.419   8.469 -0.0662  0.0648 -0.2452
11193WAT     H146577  -5.073   9.327   8.496 -0.0000  0.5602  1.4874
11193WAT     H246578  -5.174   9.439   8.481  0.3658  0.9923  2.1335
11193WAT    EPW46579  -5.093   9.409   8.474 -0.0007  0.2527  0.2971
11194WAT      O46580   5.169   4.768   6.529 -0.2504 -0.5475  0.1657
11194WAT     H146581   5.088   4.728   6.559  0.7633 -3.2812 -0.3946
11194WAT     H246582   5.147   4.807   6.444 -1.8072  2.2841  1.7519
11194WAT    EPW46583   5.156   4.768   6.521 -0.3221 -0.5348  0.3014
11195WAT      O46584  -1.082   0.528   8.359 -0.0460 -0.0605  0.1911
11195WAT     H146585  -1.153   0.558   8.415  1.3711 -0.5206  2.3670
11195WAT     H246586  -1.078   0.593   8.288 -0.1679  2.1657  2.1148
11195WAT    EPW46587  -1.091   0.541   8.357  0.1248  0.1725  0.7315
11196WAT      O46588   1.755   1.161   0.584  0.1972 -0.2184  0.1348
11196WAT     H146589   1.680   1.206   0.623 -1.2247 -3.1614  1.1259
11196WAT     H246590   1.738   1.163   0.490  1.2042  2.8397 -0.0849
11196WAT    EPW46591   1.743   1.167   0.577  0.1425 -0.2032  0.2365
11197WAT      O46592  -0.668   4.403   0.197  0.3673 -0.1581 -0.0582
11197WAT     H146593  -0.677   4.436   0.286 -1.5954 -0.1850 -0.2046
11197WAT     H246594  -0.647   4.481   0.145 -0.2686  0.1770  0.1803
11197WAT    EPW46595  -0.667   4.418   0.202  0.0246 -0.1173 -0.0461
11198WAT      O46596   1.043   1.485   0.583 -0.6895 -0.4752  0.3020
11198WAT     H146597   1.057   1.539   0.660 -0.4262 -0.6155  0.3547
11198WAT     H246598   1.085   1.402   0.604 -1.6788 -0.9374  0.4894
11198WAT    EPW46599   1.050   1.481   0.596 -0.7853 -0.5547  0.3336
11199WAT      O46600   4.645   4.657   1.194  0.5463  0.0197 -0.2960
11199WAT     H146601   4.731   4.615   1.194  0.7216  0.2457  2.0141
11199WAT     H246602   4.615   4.650   1.285 -2.8751 -1.9981 -1.4064
11199WAT    EPW46603   4.652   4.651   1.206  0.1183 -0.2165 -0.1378
11200WAT      O46604  -4.741   6.124   8.326 -0.4867  1.2928  0.2963
11200WAT     H146605  -4.663   6.179   8.324 -0.2130  0.9807  1.4429
11200WAT     H246606  -4.774   6.132   8.415 -1.3215  0.8008  0.0471
11200WAT    EPW46607  -4.735   6.132   8.337 -0.5608  1.1866  0.4144
11201WAT      O46608   5.785   4.406   0.897  0.1277 -0.2045 -0.0425
11201WAT     H146609   5.824   4.494   0.894 -0.1173 -0.0255  1.3441
11201WAT     H246610   5.774   4.382   0.805 -1.8478  2.1493 -0.5382
11201WAT    EPW46611   5.789   4.415   0.884 -0.1650  0.1295  0.0750
11202WAT      O46612   4.146   2.510   0.739  0.0334 -0.1049 -0.5802
11202WAT     H146613   4.192   2.432   0.768 -0.3002  0.2912  1.1378
11202WAT     H246614   4.085   2.479   0.672 -1.1978 -1.6229  1.1351
11202WAT    EPW46615   4.144   2.496   0.734 -0.1729 -0.2528 -0.1274
11203WAT      O46616   2.817   8.832   2.161 -0.0623  0.1189  1.2456
11203WAT     H146617   2.775   8.888   2.096 -1.7354  0.3501  2.4398
11203WAT     H246618   2.757   8.757   2.170  1.0881 -0.8356  1.1767
11203WAT    EPW46619   2.804   8.830   2.154 -0.1311  0.0234  1.3940
11204WAT      O46620  -6.710   7.433   8.955  0.0880  0.9067  0.0083
11204WAT     H146621  -6.614   7.439   8.958  0.2559  0.0686 -2.0256
11204WAT     H246622  -6.730   7.423   8.862 -1.9853  0.9372  0.4147
11204WAT    EPW46623  -6.700   7.433   8.943 -0.1633  0.8001 -0.2065
11205WAT      O46624  -1.475  10.329   5.366  0.4599 -0.5164  0.2370
11205WAT     H146625  -1.406  10.349   5.429  0.1735  1.6687 -0.0587
11205WAT     H246626  -1.544  10.288   5.418 -0.6137  3.0276  1.8691
11205WAT    EPW46627  -1.475  10.326   5.381  0.2805  0.2389  0.4134
11206WAT      O46628  -3.745   4.135   5.782  0.0778 -0.4594 -0.1881
11206WAT     H146629  -3.669   4.153   5.837 -0.6167  0.2749  0.5691
11206WAT     H246630  -3.710   4.087   5.707  1.1400 -0.9759  0.6058
11206WAT    EPW46631  -3.731   4.131   5.779  0.1264 -0.4306  0.0165
11207WAT      O46632  -3.643   1.676   8.963 -0.5953 -0.7050  0.6932
11207WAT     H146633  -3.552   1.651   8.949 -0.5809  0.3345 -1.6018
11207WAT     H246634  -3.693   1.624   8.900 -1.2845  0.4367  0.2632
11207WAT    EPW46635  -3.638   1.666   8.953 -0.6844 -0.4173  0.3338
11208WAT      O46636  -5.310   6.694   5.149 -0.0531 -0.2519  0.0434
11208WAT     H146637  -5.339   6.633   5.217  0.9872  0.4773  1.1780
11208WAT     H246638  -5.220   6.714   5.171 -0.1427  1.1277 -0.7297
11208WAT    EPW46639  -5.302   6.689   5.161  0.0725  0.0260  0.0911
11209WAT      O46640  -3.878   2.877   6.873 -0.1851 -0.1206  0.3804
11209WAT     H146641  -3.961   2.918   6.849  0.4519  1.6511  1.0526
11209WAT     H246642  -3.812   2.926   6.825  0.4452 -2.6002 -1.5280
11209WAT    EPW46643  -3.880   2.889   6.864 -0.0179 -0.2140  0.2174
11210WAT      O46644   1.753   0.017   7.353 -1.0745  0.3725 -0.4216
11210WAT     H146645   1.816  -0.042   7.394 -2.6884  0.3922  2.2764
11210WAT     H246646   1.800   0.052   7.277  0.6746 -2.7141 -0.9338
11210WAT    EPW46647   1.767   0.014   7.348 -1.0567 -0.0320 -0.1333
11211WAT      O46648   1.583   6.079   5.457  0.0030  1.2037  1.2406
11211WAT     H146649   1.506   6.081   5.400 -0.7813 -3.6452  1.7038
11211WAT     H246650   1.652   6.040   5.403  1.7518  3.7551  1.4199
11211WAT    EPW46651   1.582   6.074   5.443  0.1302  0.9005  1.3251
11212WAT      O46652  -1.072   5.328   4.633  0.5308  0.6526  0.8733
11212WAT     H146653  -1.073   5.347   4.539  1.1892 -1.0906  0.4748
11212WAT     H246654  -1.155   5.364   4.665 -1.4782 -1.8374 -1.0837
11212WAT    EPW46655  -1.083   5.335   4.624  0.3527  0.0942  0.5627
11213WAT      O46656  -3.268   9.964   4.044 -0.2824  0.0241 -0.3621
11213WAT     H146657  -3.315   9.945   4.125  1.4343  0.2737  0.7404
11213WAT     H246658  -3.333   9.950   3.975 -1.8013 -0.1458  1.0423
11213WAT    EPW46659  -3.283   9.959   4.045 -0.2563  0.0348 -0.0312
11214WAT      O46660  -0.403   0.828   8.600 -0.3167  0.0419  0.0608
11214WAT     H146661  -0.350   0.896   8.559 -0.4183 -0.4843 -0.9705
11214WAT     H246662  -0.457   0.794   8.529 -1.0779 -0.3375  0.8167
11214WAT    EPW46663  -0.403   0.833   8.585 -0.4305 -0.0776  0.0248
11215WAT      O46664  -6.135   3.705   8.446  0.0783 -0.0724 -0.7156
11215WAT     H146665  -6.107   3.619   8.414 -0.7896 -0.9138  0.7000
11215WAT     H246666  -6.095   3.712   8.533 -1.5621  0.0300  0.0604
11215WAT    EPW46667  -6.126   3.695   8.453 -0.2525 -0.1699 -0.4268
11216WAT      O46668  -0.298   5.624   2.597  0.1165 -0.4856  0.2040
11216WAT     H146669  -0.210   5.586   2.599  0.6231  0.6385 -0.1072
11216WAT     H246670  -0.295   5.688   2.527 -0.1378  1.4862  1.9166
11216WAT    EPW46671  -0.286   5.627   2.588  0.1497 -0.0772  0.3889
11217WAT      O46672  -0.080   7.967   1.146  0.1239  0.3400  0.1072
11217WAT     H146673  -0.004   8.018   1.117  1.7090 -1.6680  0.5099
11217WAT     H246674  -0.087   7.896   1.082  1.2005 -1.8538  2.2830
11217WAT    EPW46675  -0.071   7.965   1.134  0.4750 -0.2143  0.4473
11218WAT      O46676  -7.038  10.209   6.994 -0.1139  0.4653  0.7762
11218WAT     H146677  -7.018  10.117   6.977 -1.1384  0.2160  0.8557
11218WAT     H246678  -6.952  10.249   7.011  0.2116 -0.8395  2.5227
11218WAT    EPW46679  -7.024  10.202   6.994 -0.2062  0.2604  1.0171
11219WAT      O46680  -1.758   9.116   4.173  0.6971  0.6326 -0.0386
11219WAT     H146681  -1.739   9.114   4.267 -2.6014  0.4134  0.7518
11219WAT     H246682  -1.727   9.201   4.144  1.5082  0.8210  1.3190
11219WAT    EPW46683  -1.751   9.127   4.182  0.3690  0.6289  0.2449
11220WAT      O46684   0.594   6.567   7.867 -0.2831  0.5118 -0.2436
11220WAT     H146685   0.583   6.475   7.843  0.0936  0.0002  1.4207
11220WAT     H246686   0.609   6.612   7.783 -0.5773 -0.9075 -1.0948
11220WAT    EPW46687   0.595   6.561   7.853 -0.2722  0.2573 -0.1366
11221WAT      O46688   5.587   6.748   0.542  0.0925  0.7661  0.2289
11221WAT     H146689   5.560   6.786   0.625  1.7536  0.9222  0.7281
11221WAT     H246690   5.621   6.822   0.492 -0.2056  0.5489 -0.3081
11221WAT    EPW46691   5.588   6.763   0.546  0.2723  0.7579  0.2239
11222WAT      O46692  -1.111   3.129   4.330 -0.3999 -0.2020  0.4132
11222WAT     H146693  -1.103   3.034   4.322  1.4048 -0.1022  0.5964
11222WAT     H246694  -1.037   3.155   4.386 -1.3136  1.2309  1.0233
11222WAT    EPW46695  -1.100   3.120   4.336 -0.2823  0.0001  0.5178
11223WAT      O46696   5.772   0.284   2.577  0.4062 -0.3504  0.2677
11223WAT     H146697   5.684   0.319   2.562  0.8915  0.0253 -2.2747
11223WAT     H246698   5.768   0.245   2.664 -1.8133  1.0032  0.8548
11223WAT    EPW46699   5.760   0.283   2.586  0.1774 -0.1224  0.0099
11224WAT      O46700   3.823   7.377   0.522  0.1941  0.4180 -0.3725
11224WAT     H146701   3.739   7.421   0.514  0.4655  0.7385 -1.5975
11224WAT     H246702   3.833   7.363   0.616 -1.8552 -0.9102 -0.2999
11224WAT    EPW46703   3.814   7.381   0.534 -0.0404  0.2849 -0.5245
11225WAT      O46704   8.633   1.059   1.942  0.3018  1.2623  0.1822
11225WAT     H146705   8.561   1.060   2.004  0.2107  0.3215  0.1036
11225WAT     H246706   8.597   1.020   1.863  1.2767 -0.7407  0.6604
11225WAT    EPW46707   8.619   1.054   1.940  0.4182  0.8740  0.2348
11226WAT      O46708   3.577   3.471   8.293  0.1854  0.3143 -0.6431
11226WAT     H146709   3.553   3.548   8.241  1.3006  0.3434 -1.1456
11226WAT     H246710   3.631   3.506   8.364 -1.4973  0.2995  0.7095
11226WAT    EPW46711   3.581   3.486   8.296  0.1106  0.3163 -0.5307
11227WAT      O46712  -3.734   2.750   4.999  0.6020 -0.4124  0.1647
11227WAT     H146713  -3.824   2.771   4.974  0.2467  0.8413  2.2935
11227WAT     H246714  -3.704   2.688   4.932 -1.7742 -0.7328 -0.6761
11227WAT    EPW46715  -3.742   2.744   4.987  0.2418 -0.2893  0.3347
11228WAT      O46716  -0.129   1.410   8.528 -0.2550 -0.0373 -0.3116
11228WAT     H146717  -0.114   1.408   8.434  2.0259 -0.2568 -0.0130
11228WAT     H246718  -0.055   1.362   8.565 -0.3755  1.1777  1.6685
11228WAT    EPW46719  -0.117   1.403   8.521  0.0300  0.0940 -0.0114
11229WAT      O46720   0.756   9.514   8.088 -0.4839  0.0917  0.7099
11229WAT     H146721   0.743   9.600   8.128  0.8891  0.5659  0.1832
11229WAT     H246722   0.818   9.470   8.146 -0.0003  0.0400  0.1592
11229WAT    EPW46723   0.763   9.519   8.101 -0.2390  0.1473  0.5679
11230WAT      O46724  -1.006   2.589   8.443  0.1681 -0.2348  0.0961
11230WAT     H146725  -1.058   2.640   8.504 -2.5656 -1.9506 -0.6288
11230WAT     H246726  -0.969   2.654   8.383 -0.4278  1.1392  1.1671
11230WAT    EPW46727  -1.008   2.604   8.443 -0.2711 -0.2799  0.1421
11231WAT      O46728  -0.833   1.742   0.814  0.4867  0.4505  0.1885
11231WAT     H146729  -0.865   1.788   0.892  0.7267 -0.1214  0.6348
11231WAT     H246730  -0.898   1.672   0.800 -2.7795  3.6986 -3.4188
11231WAT    EPW46731  -0.846   1.739   0.822  0.0876  0.8035 -0.2284
11232WAT      O46732   4.553   2.831   3.342  0.5423  0.1411  0.1533
11232WAT     H146733   4.588   2.920   3.340 -0.1332  0.4044 -0.0207
11232WAT     H246734   4.484   2.833   3.408 -0.4971  0.1347 -0.9118
11232WAT    EPW46735   4.549   2.843   3.350  0.3164  0.1750 -0.0101
11233WAT      O46736   2.586   9.866   6.906  0.1027  0.3874  0.6759
11233WAT     H146737   2.658   9.841   6.848  0.1798  0.8671  0.5588
11233WAT     H246738   2.619   9.942   6.954  0.4386 -0.6235  2.1360
11233WAT    EPW46739   2.600   9.873   6.905  0.1572  0.3171  0.8533
11234WAT      O46740   8.029   7.671   0.027  0.0623 -0.3489 -0.1884
11234WAT     H146741   8.109   7.649   0.074  1.0734  1.5858 -0.8863
11234WAT     H246742   7.964   7.686   0.095  1.0005  0.5880  0.5241
11234WAT    EPW46743   8.031   7.670   0.042  0.3190  0.0300 -0.1865
11235WAT      O46744  -1.843   6.500   1.972 -0.2195 -0.3911  0.0437
11235WAT     H146745  -1.802   6.460   1.896 -1.8153  0.0777 -1.1289
11235WAT     H246746  -1.774   6.553   2.012  0.4821 -0.1236 -1.4661
11235WAT    EPW46747  -1.828   6.502   1.967 -0.3375 -0.2940 -0.3101
11236WAT      O46748   0.914   3.054   1.822  0.1384 -0.6127 -0.1687
11236WAT     H146749   0.918   3.081   1.914  1.0963 -2.0695  0.2558
11236WAT     H246750   0.933   3.134   1.773 -0.6857  0.2530  0.8686
11236WAT    EPW46751   0.917   3.068   1.828  0.1561 -0.6906  0.0241
11237WAT      O46752  -4.237   8.411   4.341 -0.2227 -0.5838 -0.2085
11237WAT     H146753  -4.236   8.319   4.369  1.9732 -0.8840 -1.0373
11237WAT     H246754  -4.305   8.452   4.394 -0.7037 -2.5132  0.7543
11237WAT    EPW46755  -4.246   8.404   4.352  0.0033 -0.8783 -0.1910
11238WAT      O46756   2.488   5.930   6.731  0.2683  0.3288  0.4467
11238WAT     H146757   2.450   6.009   6.769  1.9431  0.9533  0.9027
11238WAT     H246758   2.519   5.879   6.805 -2.6086 -1.8373  0.3294
11238WAT    EPW46759   2.487   5.934   6.746  0.1097  0.1256  0.4914
11239WAT      O46760  -2.398   6.625   8.407 -0.2900 -0.2629  0.4295
11239WAT     H146761  -2.357   6.568   8.342 -1.3034  0.5071 -0.9494
11239WAT     H246762  -2.417   6.568   8.481  1.7552 -0.9701  0.4718
11239WAT    EPW46763  -2.395   6.610   8.408 -0.1538 -0.2546  0.2532
11240WAT      O46764  -0.675   8.330   1.609  0.4411  0.7158 -0.2747
11240WAT     H146765  -0.614   8.286   1.551 -2.3259 -1.8428 -1.5033
11240WAT     H246766  -0.674   8.278   1.690  0.9225  1.5502  0.2757
11240WAT    EPW46767  -0.667   8.317   1.612  0.1397  0.4888 -0.3641
11241WAT      O46768  -3.163   0.385   6.152  0.4433  0.0116 -0.1501
11241WAT     H146769  -3.204   0.374   6.066 -0.7742  0.9368  0.2854
11241WAT     H246770  -3.215   0.330   6.210  0.1570  0.7611  0.3118
11241WAT    EPW46771  -3.175   0.376   6.148  0.2450  0.2325 -0.0317
11242WAT      O46772   3.491   2.058   2.021 -0.3282 -1.0621 -0.2910
11242WAT     H146773   3.545   2.137   2.024 -1.9619  0.0591  0.6644
11242WAT     H246774   3.553   1.986   2.038  0.6139  0.3135  2.6762
11242WAT    EPW46775   3.506   2.059   2.023 -0.4195 -0.7327  0.2264
11243WAT      O46776   2.116   5.504   3.205 -0.2141 -0.3937  0.3975
11243WAT     H146777   2.098   5.582   3.152  1.5320  0.0202  0.3442
11243WAT     H246778   2.078   5.432   3.156 -3.3368  0.5511  1.2324
11243WAT    EPW46779   2.109   5.505   3.192 -0.3957 -0.2143  0.5007
11244WAT      O46780   3.764   7.682   6.857 -0.0383 -0.1531  0.5222
11244WAT     H146781   3.760   7.755   6.795 -1.7416 -1.4715 -1.0094
11244WAT     H246782   3.674   7.669   6.885  0.0407 -2.2296  0.0165
11244WAT    EPW46783   3.752   7.690   6.852 -0.2525 -0.6011  0.2534
11245WAT      O46784   4.739   4.386   2.698  0.7302  0.2864 -0.0697
11245WAT     H146785   4.809   4.375   2.763 -0.6613  1.0156  1.6119
11245WAT     H246786   4.767   4.461   2.646  1.0374  0.8186  0.8377
11245WAT    EPW46787   4.752   4.395   2.700  0.5872  0.4528  0.2718
11246WAT      O46788   0.806   7.291   4.069 -0.7855 -0.3940 -0.3820
11246WAT     H146789   0.784   7.336   4.150 -2.3017 -1.4971 -0.1326
11246WAT     H246790   0.795   7.198   4.089  1.0994 -0.8441 -1.2119
11246WAT    EPW46791   0.802   7.284   4.082 -0.7368 -0.5989 -0.4585
11247WAT      O46792  -1.534  10.294   7.034  0.1770 -0.1496  0.1443
11247WAT     H146793  -1.498  10.306   7.122 -0.3474  0.9045  0.2352
11247WAT     H246794  -1.601  10.228   7.045  0.4973 -0.4339  0.4267
11247WAT    EPW46795  -1.538  10.287   7.047  0.1501 -0.0482  0.1934
11248WAT      O46796   2.785   2.135   0.330  0.6945 -0.1984  0.0990
11248WAT     H146797   2.846   2.171   0.395  1.9371  0.4747 -1.3628
11248WAT     H246798   2.838   2.126   0.250 -0.9325 -0.3857 -1.0121
11248WAT    EPW46799   2.800   2.139   0.328  0.6438 -0.1345 -0.2404
11249WAT      O46800   0.039   2.543   8.883 -0.0468  0.1069  0.6770
11249WAT     H146801   0.008   2.508   8.800 -0.3251 -1.1170  1.2757
11249WAT     H246802   0.135   2.540   8.876  0.0308  2.5891 -0.6273
11249WAT    EPW46803   0.048   2.538   8.871 -0.0733  0.2729  0.5841
11250WAT      O46804   4.817   4.984   7.109  0.3668 -0.4146 -0.9967
11250WAT     H146805   4.724   4.960   7.107  0.1186 -0.4167  2.8489
11250WAT     H246806   4.861   4.902   7.132  0.5858  0.5265  2.5083
11250WAT    EPW46807   4.810   4.970   7.112  0.3629 -0.2909 -0.0272
11251WAT      O46808   6.643   0.698   6.659  0.3127 -0.3640 -0.3208
11251WAT     H146809   6.646   0.605   6.680  0.9375 -0.1666  0.5463
11251WAT     H246810   6.612   0.740   6.740  0.3302  0.1971 -0.5996
11251WAT    EPW46811   6.639   0.691   6.673  0.3972 -0.2640 -0.2429
11252WAT      O46812   2.045   5.679   1.668  0.1383 -0.0789  0.1630
11252WAT     H146813   2.114   5.633   1.717 -0.5910 -3.2217 -1.5045
11252WAT     H246814   1.966   5.630   1.687 -0.6251  0.1692 -2.1582
11252WAT    EPW46815   2.044   5.667   1.677 -0.0585 -0.4609 -0.3631
11253WAT      O46816  -3.908   8.256   8.169  0.1180 -0.2070  0.2409
11253WAT     H146817  -3.878   8.339   8.206  0.6066 -0.3176  0.1086
11253WAT     H246818  -3.857   8.246   8.089 -2.0791  0.8136 -1.3561
11253WAT    EPW46819  -3.897   8.265   8.164 -0.1074 -0.0868  0.0129
11254WAT      O46820  -1.646   6.033   2.113 -0.0697  0.1065 -0.1634
11254WAT     H146821  -1.559   6.018   2.149 -0.1716 -1.8635 -0.6368
11254WAT     H246822  -1.702   5.972   2.161 -0.3455 -2.0396 -3.0133
11254WAT    EPW46823  -1.642   6.023   2.124 -0.1195 -0.4365 -0.6018
11255WAT      O46824  -2.779   4.550   4.693  0.1039 -0.2889  0.3536
11255WAT     H146825  -2.734   4.629   4.722 -2.4331  1.7813 -1.0135
11255WAT     H246826  -2.759   4.543   4.599  0.6811 -1.5853  0.5422
11255WAT    EPW46827  -2.770   4.559   4.684 -0.1545 -0.1867  0.1981
11256WAT      O46828   0.384   1.208   4.742  1.0050 -0.3722 -0.4449
11256WAT     H146829   0.386   1.196   4.837 -0.0068 -0.0843 -0.3748
11256WAT     H246830   0.291   1.213   4.720  1.1701 -1.6841 -1.6201
11256WAT    EPW46831   0.372   1.207   4.752  0.8933 -0.5072 -0.5906
11257WAT      O46832  -2.826   9.443   4.937 -0.2894 -0.1220  0.3619
11257WAT     H146833  -2.739   9.434   4.976  0.2222  2.2867 -0.0056
11257WAT     H246834  -2.868   9.512   4.989 -2.6333 -2.2604  1.4934
11257WAT    EPW46835  -2.820   9.451   4.949 -0.5311 -0.0863  0.4628
11258WAT      O46836   0.361   2.953   2.255  1.4158  0.5084  0.4075
11258WAT     H146837   0.358   2.866   2.216  3.0421  1.1246 -1.2317
11258WAT     H246838   0.436   2.950   2.313  0.4927  0.3649  1.6363
11258WAT    EPW46839   0.370   2.941   2.257  1.5085  0.5708  0.3535
11259WAT      O46840  -3.635   6.854   7.807  0.7626 -0.4930  0.0085
11259WAT     H146841  -3.652   6.766   7.841  1.0837  0.2125  2.1159
11259WAT     H246842  -3.717   6.879   7.765  0.5372 -1.6315 -0.2856
11259WAT    EPW46843  -3.648   6.845   7.806  0.7752 -0.5503  0.2477
11260WAT      O46844   5.988   7.262   2.273  0.2159  0.3565  0.1620
11260WAT     H146845   5.965   7.345   2.315  1.3526  1.6689 -1.6532
11260WAT     H246846   6.001   7.201   2.346  3.5372  2.8543  1.9592
11260WAT    EPW46847   5.987   7.265   2.289  0.8039  0.8590  0.1596
11261WAT      O46848  -4.702   4.468   6.055 -0.1585  0.2075  0.2074
11261WAT     H146849  -4.732   4.552   6.091  0.3628 -0.0832  1.3568
11261WAT     H246850  -4.726   4.472   5.962  0.2147  1.7864  0.1518
11261WAT    EPW46851  -4.709   4.480   6.048 -0.0405  0.3774  0.3517
11262WAT      O46852   6.634   9.663   0.241  0.9719  0.1034 -0.0889
11262WAT     H146853   6.655   9.753   0.218 -0.7167  0.1467 -1.7011
11262WAT     H246854   6.557   9.642   0.188 -1.8147 -0.6335  3.7396
11262WAT    EPW46855   6.626   9.672   0.231  0.3817  0.0119  0.2034
11263WAT      O46856  -1.415   3.068   8.962 -0.0130  0.9800  0.1712
11263WAT     H146857  -1.448   3.141   8.911 -3.0057 -0.6824 -0.4639
11263WAT     H246858  -1.417   3.099   9.053  1.8454  2.6727 -0.2741
11263WAT    EPW46859  -1.419   3.082   8.968 -0.1625  0.9841  0.0286
11264WAT      O46860  -2.203   3.774   7.748  0.2170  0.3236 -0.1878
11264WAT     H146861  -2.174   3.812   7.666  0.7289 -0.6562 -0.4782
11264WAT     H246862  -2.285   3.819   7.768  1.1741  2.1050 -0.1044
11264WAT    EPW46863  -2.210   3.785   7.740  0.4108  0.4293 -0.2151
11265WAT      O46864   0.055   2.324   0.280 -0.4755 -1.1073 -0.0420
11265WAT     H146865   0.009   2.379   0.343 -1.3926 -2.7065  0.7438
11265WAT     H246866   0.143   2.314   0.316 -0.5476 -0.8129  0.2120
11265WAT    EPW46867   0.061   2.330   0.293 -0.6060 -1.2795  0.0952
11266WAT      O46868   0.698   5.889   0.186 -0.1096  0.3375 -0.0457
11266WAT     H146869   0.707   5.953   0.116  0.1517  0.4145  0.0564
11266WAT     H246870   0.621   5.838   0.162  0.2515  0.0552 -0.6385
11266WAT    EPW46871   0.689   5.891   0.174 -0.0275  0.3107 -0.1105
11267WAT      O46872   5.011   4.214   3.890 -0.1778 -0.6753  0.1947
11267WAT     H146873   5.009   4.201   3.985 -3.6189  1.6478  0.5822
11267WAT     H246874   4.943   4.155   3.857 -1.6656  1.2578 -0.3128
11267WAT    EPW46875   5.002   4.204   3.898 -0.8278 -0.1140  0.1789
11268WAT      O46876   5.309   3.966   1.938 -0.0666  0.4581 -0.3239
11268WAT     H146877   5.259   4.028   1.991 -1.5542 -1.5024  0.7103
11268WAT     H246878   5.353   3.909   2.001 -0.8006 -1.0921 -1.1257
11268WAT    EPW46879   5.308   3.966   1.953 -0.3595 -0.0050 -0.2933
11269WAT      O46880  -2.590   1.586   7.479 -0.3526 -0.6118 -0.2713
11269WAT     H146881  -2.557   1.665   7.522 -2.4571 -0.9637  2.2241
11269WAT     H246882  -2.534   1.576   7.402 -0.7949  4.0526 -1.5130
11269WAT    EPW46883  -2.578   1.595   7.475 -0.6886 -0.0430 -0.1059
11270WAT      O46884   0.520   5.175   5.240 -0.6076 -0.0807 -0.8404
11270WAT     H146885   0.437   5.142   5.205 -1.7963  0.9279  0.8765
11270WAT     H246886   0.523   5.266   5.213 -0.1873 -0.0452 -0.6765
11270WAT    EPW46887   0.509   5.182   5.232 -0.7090  0.0570 -0.5925
11271WAT      O46888   3.534   6.086   4.699 -0.6550  0.3266  0.3213
11271WAT     H146889   3.524   6.099   4.605  2.1117  0.2993 -0.0590
11271WAT     H246890   3.488   6.159   4.739 -1.2729  0.7256 -1.0604
11271WAT    EPW46891   3.527   6.097   4.692 -0.3716  0.3757  0.0889
11272WAT      O46892   5.385   0.277   3.152  0.0179  0.5717  0.3994
11272WAT     H146893   5.454   0.337   3.182 -0.0043  0.7838  0.0380
11272WAT     H246894   5.416   0.190   3.177  0.0143  0.7369  1.0050
11272WAT    EPW46895   5.398   0.274   3.159  0.0145  0.6215  0.4315
11273WAT      O46896   5.364   4.209   4.769  0.1262  0.2322  0.3803
11273WAT     H146897   5.357   4.139   4.833  2.2285 -1.0434 -0.6754
11273WAT     H246898   5.384   4.287   4.821 -1.9431  0.0404  1.5464
11273WAT    EPW46899   5.366   4.210   4.784  0.1307  0.0386  0.3948
11274WAT      O46900  -3.349   7.768   2.029 -0.4602  0.2691 -0.0998
11274WAT     H146901  -3.403   7.832   1.983 -1.1651 -0.7795 -0.7759
11274WAT     H246902  -3.288   7.735   1.963  0.2257  0.5822  0.3654
11274WAT    EPW46903  -3.348   7.772   2.014 -0.4627  0.1719 -0.1277
11275WAT      O46904  -1.855   9.680   1.098 -0.5036 -0.3667  0.1176
11275WAT     H146905  -1.865   9.760   1.150  1.5731  0.0602 -0.0398
11275WAT     H246906  -1.812   9.618   1.157  0.6157 -0.3432 -0.6409
11275WAT    EPW46907  -1.851   9.682   1.113 -0.0821 -0.3076 -0.0032
11276WAT      O46908  -4.523   9.553   3.479 -1.2593  0.7474  0.4672
11276WAT     H146909  -4.569   9.628   3.441  0.9344  1.3111 -1.2212
11276WAT     H246910  -4.433   9.582   3.488 -0.4874 -1.4836  0.4087
11276WAT    EPW46911  -4.517   9.567   3.475 -0.8681  0.5274  0.2367
11277WAT      O46912  -3.417  10.352   3.805  0.0965 -0.6541  0.0304
11277WAT     H146913  -3.420  10.347   3.901  1.4977  1.1257  0.2134
11277WAT     H246914  -3.327  10.375   3.785  0.1080 -2.0507 -1.8254
11277WAT    EPW46915  -3.405  10.354   3.815  0.2829 -0.6035 -0.1901
11278WAT      O46916  -3.109   9.277   5.939  0.4021  0.1244  0.2383
11278WAT     H146917  -3.193   9.320   5.950 -1.3928 -2.9794 -0.1753
11278WAT     H246918  -3.107   9.211   6.009  1.9081 -0.7006 -0.5314
11278WAT    EPW46919  -3.120   9.274   5.950  0.3639 -0.3939  0.0823
11279WAT      O46920   0.556   1.114   2.162 -0.6867 -0.1766 -0.4340
11279WAT     H146921   0.469   1.078   2.144 -1.5367  1.1146  0.8685
11279WAT     H246922   0.551   1.144   2.253  1.1475 -0.1257 -0.3212
11279WAT    EPW46923   0.544   1.113   2.171 -0.5569  0.0004 -0.2474
11280WAT      O46924   3.459   6.410   0.104 -1.3017  0.0337 -0.7606
11280WAT     H146925   3.526   6.350   0.137 -0.4482  1.3147 -0.0867
11280WAT     H246926   3.387   6.401   0.167 -0.5930  0.7697  0.1771
11280WAT    EPW46927   3.458   6.401   0.117 -1.0957  0.2997 -0.5480
11281WAT      O46928   4.362   2.115   2.871 -0.3405  0.1469 -0.0390
11281WAT     H146929   4.324   2.202   2.879  0.5665  0.6969 -1.3142
11281WAT     H246930   4.359   2.096   2.777  1.4959 -0.2114 -0.0716
11281WAT    EPW46931   4.357   2.124   2.860  0.0212  0.1723 -0.2115
11282WAT      O46932   5.470   4.121   4.466  0.4003 -0.1128  0.0628
11282WAT     H146933   5.440   4.184   4.532 -0.6148 -2.1159  1.6216
11282WAT     H246934   5.495   4.044   4.516 -0.5966 -1.7997 -1.8772
11282WAT    EPW46935   5.469   4.119   4.481  0.1349 -0.5996  0.0124
11283WAT      O46936  -3.089   9.781   2.529 -0.4459 -0.3578  0.0069
11283WAT     H146937  -3.014   9.811   2.478 -1.2441 -0.8953 -1.5472
11283WAT     H246938  -3.077   9.687   2.538 -0.5788 -0.3440  0.3721
11283WAT    EPW46939  -3.078   9.773   2.524 -0.5687 -0.4268 -0.1498
11284WAT      O46940   1.050  10.295   3.180  0.0814 -0.5818  0.2017
11284WAT     H146941   1.093  10.320   3.098 -1.2691 -0.0461 -0.3704
11284WAT     H246942   1.114  10.315   3.248 -0.4287  3.5099 -0.2852
11284WAT    EPW46943   1.064  10.301   3.178 -0.1640  0.0281  0.0620
11285WAT      O46944   1.716   3.221   1.063  0.2977  0.1252 -0.6113
11285WAT     H146945   1.798   3.271   1.060  1.9169 -2.2850  0.3230
11285WAT     H246946   1.743   3.130   1.052 -1.9154 -1.0635  2.5320
11285WAT    EPW46947   1.731   3.216   1.061  0.2194 -0.3494 -0.0735
11286WAT      O46948   2.494   1.013   6.498 -0.3101 -0.3063 -0.0356
11286WAT     H146949   2.450   1.017   6.413 -0.3286  0.6575  0.0140
11286WAT     H246950   2.578   1.058   6.484 -0.2502 -0.2715  0.4177
11286WAT    EPW46951   2.500   1.019   6.485 -0.3046 -0.1745  0.0308
11287WAT      O46952  -0.637   5.764   2.715 -0.0895  0.2831  0.1922
11287WAT     H146953  -0.731   5.749   2.725 -0.0411  0.5867  1.2205
11287WAT     H246954  -0.598   5.718   2.788  0.3353  2.3744  1.3609
11287WAT    EPW46955  -0.645   5.756   2.726 -0.0271  0.5989  0.4820
11288WAT      O46956   3.793   0.853   5.245 -0.3172  0.0949 -0.1125
11288WAT     H146957   3.717   0.911   5.245  0.6561  1.5305  1.8405
11288WAT     H246958   3.769   0.782   5.304 -0.2876  0.3711  0.2388
11288WAT    EPW46959   3.780   0.852   5.253 -0.1850  0.3207  0.1917
11289WAT      O46960   3.779   2.779   5.917  0.4471  0.0453 -0.8108
11289WAT     H146961   3.858   2.732   5.942  0.3521 -0.9262 -2.1925
11289WAT     H246962   3.799   2.871   5.931  1.8681 -0.1811 -1.2243
11289WAT    EPW46963   3.792   2.785   5.922  0.6220 -0.1127 -1.0474
11290WAT      O46964   6.989   6.953   0.321  0.4082  0.4179 -0.1589
11290WAT     H146965   7.072   6.999   0.317  1.8655 -2.0089  0.2512
11290WAT     H246966   6.931   7.013   0.368  2.2660  1.6561  0.6839
11290WAT    EPW46967   6.992   6.967   0.326  0.8454  0.2608  0.0063
11291WAT      O46968  -2.529   5.445   1.702  0.2620  0.0636 -0.6168
11291WAT     H146969  -2.559   5.534   1.718  0.6403  0.0287  0.3464
11291WAT     H246970  -2.569   5.393   1.772  2.7802  0.0705  0.9707
11291WAT    EPW46971  -2.538   5.450   1.713  0.6440  0.0598 -0.2804
11292WAT      O46972   5.344   1.797   2.316  0.8379 -0.4044 -0.2700
11292WAT     H146973   5.324   1.705   2.303  1.3940 -0.6563  0.5803
11292WAT     H246974   5.431   1.809   2.278  0.6958 -0.1832 -0.5352
11292WAT    EPW46975   5.353   1.787   2.309  0.8922 -0.4085 -0.1929
11293WAT      O46976   5.101   2.521   2.458  0.0120 -0.1078  0.7366
11293WAT     H146977   5.020   2.490   2.497 -0.2750 -0.6629 -0.2429
11293WAT     H246978   5.156   2.442   2.452 -0.9063 -0.6668 -2.2337
11293WAT    EPW46979   5.098   2.506   2.462 -0.1471 -0.2546  0.2158
11294WAT      O46980  -1.928   5.037   6.577 -0.7923 -0.1331  0.0821
11294WAT     H146981  -1.866   5.025   6.649 -1.1095 -1.0668  0.2138
11294WAT     H246982  -2.000   4.977   6.597 -1.1971  0.0819 -0.6723
11294WAT    EPW46983  -1.929   5.028   6.589 -0.8876 -0.2279  0.0000
11295WAT      O46984  -2.375   3.014   5.963  0.9428 -0.3937  0.3363
11295WAT     H146985  -2.322   3.094   5.960 -2.7839  2.4282  1.3906
11295WAT     H246986  -2.465   3.045   5.977 -0.8378 -4.8206  0.5370
11295WAT    EPW46987  -2.380   3.029   5.965  0.2165 -0.6053  0.5019
11296WAT      O46988   3.591   1.553   2.870  0.0185 -0.3645 -0.3748
11296WAT     H146989   3.533   1.606   2.924 -1.3878 -0.9048 -1.2796
11296WAT     H246990   3.675   1.598   2.873  0.2316 -0.7578  2.8001
11296WAT    EPW46991   3.594   1.566   2.877 -0.1389 -0.4876 -0.0753
11297WAT      O46992  -0.509   6.155   6.181 -0.0338 -0.5888 -0.6070
11297WAT     H146993  -0.415   6.155   6.197 -0.3146 -0.0006  1.2824
11297WAT     H246994  -0.544   6.220   6.243 -1.9161 -2.4820  0.4514
11297WAT    EPW46995  -0.502   6.164   6.191 -0.3191 -0.7610 -0.2179
11298WAT      O46996  -3.645   9.800   7.993 -0.1983 -0.5427  0.2018
11298WAT     H146997  -3.734   9.836   7.993 -0.0797 -0.2194 -0.7157
11298WAT     H246998  -3.628   9.778   8.085  0.0099  2.4861  0.9860
11298WAT    EPW46999  -3.655   9.802   8.006 -0.1552 -0.1006  0.1841
11299WAT      O47000   2.298   7.347   0.355 -0.2013 -0.3868 -0.7451
11299WAT     H147001   2.203   7.357   0.362  0.0613  1.3126  1.4569
11299WAT     H247002   2.333   7.421   0.404  2.2642 -2.8723  1.6055
11299WAT    EPW47003   2.290   7.358   0.362  0.1585 -0.4904 -0.1446
11300WAT      O47004  -1.107   4.173   8.013 -0.4570 -0.3304  1.1612
11300WAT     H147005  -1.169   4.100   8.003  0.5124 -1.7235  4.2348
11300WAT     H247006  -1.108   4.192   8.106  1.1097  2.0601  0.7632
11300WAT    EPW47007  -1.115   4.166   8.024 -0.1225 -0.1988  1.5140
11301WAT      O47008   2.770   3.017   2.160 -0.0422  0.3812 -0.5718
11301WAT     H147009   2.781   3.082   2.230 -2.6019  1.0339 -0.6822
11301WAT     H247010   2.698   2.962   2.190 -1.3928  0.8288 -2.7606
11301WAT    EPW47011   2.762   3.018   2.173 -0.5579  0.5263 -0.8751
11302WAT      O47012  -4.368   6.914   4.457  0.7763 -0.0546 -0.3164
11302WAT     H147013  -4.299   6.942   4.397 -1.0605  1.4952 -1.8013
11302WAT     H247014  -4.444   6.966   4.433 -1.5955 -3.2057 -0.2248
11302WAT    EPW47015  -4.369   6.924   4.446  0.2210 -0.2658 -0.5002
11303WAT      O47016   3.241   5.614   0.880  0.0105  0.2164 -0.2085
11303WAT     H147017   3.215   5.540   0.825  1.9408 -1.5202  1.0797
11303WAT     H247018   3.170   5.623   0.943 -1.2975  0.9827 -1.7067
11303WAT    EPW47019   3.228   5.606   0.881  0.0926  0.0887 -0.2362
11304WAT      O47020  -1.292   2.548   0.886 -0.5765 -0.9773  0.6389
11304WAT     H147021  -1.219   2.518   0.831 -1.5256 -2.0626 -0.0665
11304WAT     H247022  -1.303   2.640   0.861 -1.5894 -1.6610 -1.7821
11304WAT    EPW47023  -1.284   2.556   0.875 -0.8352 -1.2106  0.2266
11305WAT      O47024  -4.419   8.990   2.630 -0.4125 -0.1804 -0.2628
11305WAT     H147025  -4.457   9.027   2.710  1.6441  0.9762  0.2492
11305WAT     H247026  -4.460   9.040   2.559 -1.6425 -0.6498  0.0952
11305WAT    EPW47027  -4.430   9.002   2.631 -0.3035 -0.0896 -0.1482
11306WAT      O47028  -2.063   5.197   6.925  0.5626 -0.1480 -0.2770
11306WAT     H147029  -2.040   5.241   6.844  0.9184 -0.4102 -0.3220
11306WAT     H247030  -2.137   5.247   6.960  1.1559  0.6565 -0.1653
11306WAT    EPW47031  -2.070   5.209   6.919  0.6877 -0.0765 -0.2685
11307WAT      O47032   2.471   8.233   2.866 -0.1867  0.6731 -0.3463
11307WAT     H147033   2.565   8.215   2.873 -0.2211  0.0005 -1.4312
11307WAT     H247034   2.453   8.293   2.939  1.1656  1.1636 -0.3793
11307WAT    EPW47035   2.481   8.239   2.877 -0.0129  0.6490 -0.4938
11308WAT      O47036   1.754   8.861   5.399 -0.1823  0.3760 -0.2222
11308WAT     H147037   1.694   8.933   5.379 -3.0534 -2.3395 -2.2266
11308WAT     H247038   1.800   8.844   5.317  0.4361 -0.1654  0.2187
11308WAT    EPW47039   1.752   8.868   5.386 -0.4794 -0.0539 -0.4287
11309WAT      O47040   2.988   6.649   5.308  0.5095 -1.1592  0.3857
11309WAT     H147041   2.915   6.708   5.322  1.2091 -0.2768  0.4407
11309WAT     H247042   2.981   6.621   5.217 -0.9488 -2.5816  0.8909
11309WAT    EPW47043   2.978   6.653   5.298  0.4094 -1.2305  0.4597
11310WAT      O47044  -2.023   0.021   3.852 -0.9135  0.2894 -0.0807
11310WAT     H147045  -1.950  -0.034   3.823 -1.0772  1.0961 -2.1386
11310WAT     H247046  -2.071   0.042   3.772 -3.3937 -0.1288  1.1837
11310WAT    EPW47047  -2.020   0.016   3.838 -1.2622  0.3406 -0.1854
11311WAT      O47048  -2.228   3.095   3.582 -0.4801  1.2176 -0.2338
11311WAT     H147049  -2.278   3.081   3.502 -0.8828 -0.1523  0.2220
11311WAT     H247050  -2.195   3.008   3.605  0.8615  1.8383  0.2990
11311WAT    EPW47051  -2.230   3.082   3.575 -0.3564  1.1188 -0.1034
11312WAT      O47052  -2.982  10.334   4.077  0.1319 -0.2809 -0.2040
11312WAT     H147053  -2.999  10.419   4.119  1.6414  0.6890 -1.4148
11312WAT     H247054  -3.034  10.336   3.996 -0.8534 -1.1005  0.3847
11312WAT    EPW47055  -2.991  10.346   4.072  0.2011 -0.2611 -0.2861
11313WAT      O47056  -1.472   5.453   8.138 -0.2640 -0.1342 -0.2226
11313WAT     H147057  -1.471   5.509   8.060  0.1922  1.1799  0.7034
11313WAT     H247058  -1.461   5.513   8.211  0.2363 -1.4465  0.8189
11313WAT    EPW47059  -1.471   5.468   8.137 -0.1378 -0.1340  0.0372
11314WAT      O47060  -2.284   0.038   4.000 -1.0233  0.0428  0.5158
11314WAT     H147061  -2.211   0.070   3.947 -0.6286 -2.4784 -0.6315
11314WAT     H247062  -2.361   0.051   3.945 -1.5465  2.7422  1.7434
11314WAT    EPW47063  -2.285   0.044   3.986 -1.0403  0.0663  0.5265
11315WAT      O47064  -0.480   5.484   7.426 -0.7221  0.4313  0.1794
11315WAT     H147065  -0.422   5.408   7.430  0.3800  1.2008 -0.6445
11315WAT     H247066  -0.555   5.460   7.481  1.3791  0.3229  3.1971
11315WAT    EPW47067  -0.483   5.471   7.434 -0.2996  0.5186  0.4687
11316WAT      O47068   0.229   1.643   5.329  0.0996 -0.0295 -0.0732
11316WAT     H147069   0.301   1.685   5.376  1.0019 -0.9766 -0.5763
11316WAT     H247070   0.154   1.701   5.344  0.3422 -0.2772  2.5424
11316WAT    EPW47071   0.229   1.656   5.337  0.2506 -0.1872  0.2053
11317WAT      O47072   0.633   0.962   4.885 -0.6727 -0.0384  0.3074
11317WAT     H147073   0.554   0.912   4.906 -1.0334  0.3827 -0.0312
11317WAT     H247074   0.659   1.002   4.968  0.5450 -2.0666  0.9540
11317WAT    EPW47075   0.626   0.961   4.898 -0.5597 -0.2504  0.3481
11318WAT      O47076   5.217   2.657   4.439 -0.3540  0.2778 -0.2952
11318WAT     H147077   5.176   2.744   4.434 -0.8459  0.0271 -0.6608
11318WAT     H247078   5.148   2.597   4.412 -1.3856 -0.6625  3.7715
11318WAT    EPW47079   5.202   2.661   4.435 -0.5548  0.1208  0.1929
11319WAT      O47080   0.624   2.486   7.900 -0.1630 -0.4416  0.6098
11319WAT     H147081   0.672   2.427   7.957 -1.3785  1.5982  4.0118
11319WAT     H247082   0.671   2.570   7.906 -0.6365 -0.0126 -1.0267
11319WAT    EPW47083   0.636   2.490   7.908 -0.3857 -0.1159  0.8426
11320WAT      O47084   2.142   1.285   5.100  1.0046 -0.2013 -0.4109
11320WAT     H147085   2.220   1.341   5.099  1.1668 -0.3565 -3.0977
11320WAT     H247086   2.072   1.342   5.134  1.6922  0.8608 -0.7394
11320WAT    EPW47087   2.143   1.300   5.105  1.1168 -0.0817 -0.8085
11321WAT      O47088  -3.046   0.289   8.871  0.1436 -0.0991  0.0422
11321WAT     H147089  -3.014   0.202   8.846 -0.2982 -1.2706  3.1258
11321WAT     H247090  -3.135   0.293   8.836 -0.0412 -1.1667  0.3484
11321WAT    EPW47091  -3.054   0.278   8.863  0.0609 -0.3944  0.4892
11322WAT      O47092   0.717  10.177   2.237 -0.8157  0.0477  0.2879
11322WAT     H147093   0.623  10.165   2.222 -1.0736  1.0334  1.0203
11322WAT     H247094   0.758  10.105   2.189 -1.7827  0.8907 -1.9438
11322WAT    EPW47095   0.710  10.166   2.229 -0.9773  0.2890  0.0901
11323WAT      O47096   0.790   4.229   3.451  0.1150  0.0084 -0.5646
11323WAT     H147097   0.813   4.144   3.413 -2.9505 -0.8350 -0.8533
11323WAT     H247098   0.873   4.264   3.483  1.4413 -3.4530  0.3073
11323WAT    EPW47099   0.804   4.222   3.450 -0.1144 -0.5591 -0.4876
11324WAT      O47100  -0.873   2.041   8.309  0.2642 -0.5405 -0.4321
11324WAT     H147101  -0.868   2.131   8.277 -1.8263  1.0303  3.0870
11324WAT     H247102  -0.953   2.039   8.362  1.0755 -4.0382  0.9393
11324WAT    EPW47103  -0.883   2.052   8.312  0.0955 -0.7945  0.2131
11325WAT      O47104  -1.571   8.368   4.720  0.0490  1.1030 -0.1443
11325WAT     H147105  -1.508   8.398   4.654 -0.7000 -1.4691 -2.1863
11325WAT     H247106  -1.532   8.288   4.756 -1.1000  0.6438  0.1138
11325WAT    EPW47107  -1.557   8.362   4.716 -0.2013  0.7038 -0.3796
11326WAT      O47108  -1.436   5.978   8.469  0.2059  0.3606 -0.0147
11326WAT     H147109  -1.494   5.906   8.443  4.5017 -3.5522 -0.1175
11326WAT     H247110  -1.402   6.012   8.387  1.0493 -0.2067  0.0900
11326WAT    EPW47111  -1.439   5.973   8.455  0.8837 -0.2303 -0.0143
11327WAT      O47112   3.871   4.248   7.711 -0.7098 -0.2416  0.1834
11327WAT     H147113   3.871   4.271   7.618  0.9882 -2.7735 -0.5418
11327WAT     H247114   3.814   4.171   7.717 -3.7995  1.9436  1.9851
11327WAT    EPW47115   3.864   4.240   7.700 -0.8932 -0.2873  0.3257
11328WAT      O47116  -7.120   8.932   7.438 -0.2656  0.1463 -0.3327
11328WAT     H147117  -7.049   8.870   7.454 -1.7773 -1.2861  1.1682
11328WAT     H247118  -7.083   8.994   7.375  3.0113  0.7141  1.8983
11328WAT    EPW47119  -7.106   8.932   7.432 -0.0329  0.0324  0.1593
11329WAT      O47120   6.592   1.086   3.596  0.2682 -0.8823  0.1594
11329WAT     H147121   6.586   1.014   3.533 -3.2662  0.5323 -1.3261
11329WAT     H247122   6.574   1.045   3.681 -1.0271 -1.8990 -0.5683
11329WAT    EPW47123   6.589   1.071   3.599 -0.3688 -0.8298 -0.1324
11330WAT      O47124  -1.307   7.510   7.011 -0.6320  0.1213  0.2843
11330WAT     H147125  -1.380   7.449   7.016 -1.5197  1.1296  0.0703
11330WAT     H247126  -1.313   7.548   6.923  1.4296 -1.2872 -0.5455
11330WAT    EPW47127  -1.317   7.507   7.000 -0.4772  0.0687  0.1466
11331WAT      O47128   1.039   3.213   6.433 -0.1586 -0.3697  0.5920
11331WAT     H147129   1.057   3.119   6.423 -1.1539 -0.4806 -0.3750
11331WAT     H247130   1.049   3.248   6.344 -0.4696  0.3184  0.8294
11331WAT    EPW47131   1.043   3.205   6.420 -0.3309 -0.2936  0.4957
11332WAT      O47132  -3.524   4.929   5.721  0.4097 -0.1760  0.6371
11332WAT     H147133  -3.511   4.946   5.814  2.3219 -1.0475  0.5595
11332WAT     H247134  -3.455   4.979   5.677 -2.4754  3.0632 -0.6749
11332WAT    EPW47135  -3.513   4.938   5.727  0.2813  0.1361  0.4537
11333WAT      O47136  -4.469   7.793   7.334 -0.2519  0.1218 -0.6106
11333WAT     H147137  -4.537   7.861   7.338  0.2077  0.8380 -3.0728
11333WAT     H247138  -4.391   7.839   7.304  1.0035 -0.9396  0.8768
11333WAT    EPW47139  -4.468   7.808   7.330 -0.0257  0.0763 -0.7393
11334WAT      O47140  -6.065   8.181   8.310  0.6371 -0.3854 -0.2858
11334WAT     H147141  -6.025   8.096   8.325 -0.2026 -0.3508  2.8131
11334WAT     H247142  -6.139   8.163   8.252  0.5908 -1.7078  0.1652
11334WAT    EPW47143  -6.069   8.167   8.304  0.5202 -0.5550  0.1822
11335WAT      O47144   4.182   0.673   4.872 -0.4156  0.1541 -0.0101
11335WAT     H147145   4.173   0.766   4.892 -1.3523  0.4059 -1.4654
11335WAT     H247146   4.273   0.653   4.892 -0.1138  1.4724  0.0233
11335WAT    EPW47147   4.193   0.682   4.877 -0.4995  0.3612 -0.1976
11336WAT      O47148  -4.430   3.619   8.278 -0.2743  0.4213 -0.6931
11336WAT     H147149  -4.511   3.588   8.239 -1.1996  4.0000 -2.0476
11336WAT     H247150  -4.379   3.652   8.205  0.6666  1.7315  0.4914
11336WAT    EPW47151  -4.434   3.619   8.263 -0.2725  1.0661 -0.7157
11337WAT      O47152  -3.120   6.748   2.201 -0.0097  0.0485  0.0394
11337WAT     H147153  -3.134   6.842   2.185 -1.7692 -0.2507 -0.3623
11337WAT     H247154  -3.204   6.717   2.232  0.2182 -1.6430 -0.9456
11337WAT    EPW47155  -3.133   6.757   2.203 -0.2116 -0.2143 -0.1434
11338WAT      O47156   3.785   3.617   3.373  0.1497  0.3414  0.2961
11338WAT     H147157   3.851   3.685   3.388 -0.8418  1.5233 -0.5154
11338WAT     H247158   3.766   3.622   3.279  0.4724 -1.4814  0.0968
11338WAT    EPW47159   3.791   3.627   3.363  0.0615  0.2570  0.1627
11339WAT      O47160  -1.903   0.548   3.598  0.1164 -0.6877 -0.1503
11339WAT     H147161  -1.948   0.464   3.583  0.2270 -0.2964 -3.2027
11339WAT     H247162  -1.846   0.559   3.522  3.0091  0.4191  1.9977
11339WAT    EPW47163  -1.901   0.538   3.586  0.5125 -0.4902 -0.2695
11340WAT      O47164   6.582   4.038   4.789 -0.2694  0.8101  0.0316
11340WAT     H147165   6.492   4.036   4.759 -0.3116  0.6886  0.1615
11340WAT     H247166   6.580   3.995   4.875  0.3874 -2.0555 -1.2516
11340WAT    EPW47167   6.570   4.032   4.797 -0.1884  0.4160 -0.1206
11341WAT      O47168  -0.005   8.175   2.028 -0.2409 -0.1036 -0.6042
11341WAT     H147169  -0.022   8.223   1.947 -0.0278 -0.4673 -0.8697
11341WAT     H247170   0.081   8.206   2.056 -0.2097 -0.1507 -0.6469
11341WAT    EPW47171   0.004   8.185   2.021 -0.2087 -0.1578 -0.6448
11342WAT      O47172  -1.958   5.763   6.914 -0.0141 -0.4672  0.6690
11342WAT     H147173  -1.993   5.686   6.958  0.0821 -1.7359 -1.3555
11342WAT     H247174  -2.032   5.798   6.865 -0.4839  1.7361  2.7371
11342WAT    EPW47175  -1.973   5.758   6.913 -0.0634 -0.3440  0.6747
11343WAT      O47176   1.670   9.853   2.463 -0.0340  0.0266 -0.1563
11343WAT     H147177   1.758   9.890   2.458  1.1066 -2.3951  0.6073
11343WAT     H247178   1.667   9.808   2.547 -1.3098 -1.5096 -0.9568
11343WAT    EPW47179   1.681   9.852   2.473 -0.0519 -0.4950 -0.1612
11344WAT      O47180   2.910   0.840   6.688  0.1867 -0.0635  0.1044
11344WAT     H147181   2.874   0.861   6.602  1.3279 -0.5654 -0.5109
11344WAT     H247182   2.837   0.855   6.749 -1.4948 -2.2083 -1.2182
11344WAT    EPW47183   2.896   0.844   6.685  0.1154 -0.4126 -0.1512
11345WAT      O47184  -1.589   7.775   0.269 -0.1806 -0.1821 -0.9258
11345WAT     H147185  -1.681   7.768   0.240  0.3550 -0.1036 -2.7742
11345WAT     H247186  -1.566   7.867   0.253  0.4453 -0.3814 -1.1725
11345WAT    EPW47187  -1.598   7.787   0.263 -0.0274 -0.1979 -1.2022
11346WAT      O47188   4.109   1.689   4.011 -0.4311 -0.0572 -0.1171
11346WAT     H147189   4.080   1.609   4.056 -0.3034 -0.8239 -1.3611
11346WAT     H247190   4.073   1.681   3.923 -1.5377  1.9154  0.1006
11346WAT    EPW47191   4.101   1.677   4.005 -0.5603  0.1019 -0.2525
11347WAT      O47192  -0.288   5.289   0.528  0.1487 -0.1038  0.2538
11347WAT     H147193  -0.223   5.345   0.486 -0.3029  1.3230  1.3766
11347WAT     H247194  -0.239   5.243   0.596  0.1889  0.1879  0.4231
11347WAT    EPW47195  -0.273   5.291   0.531  0.0944  0.1230  0.4242
11348WAT      O47196   0.814   5.508   7.187  1.1396 -0.4301 -0.3205
11348WAT     H147197   0.765   5.451   7.128  0.3919 -0.9213  0.7407
11348WAT     H247198   0.750   5.537   7.252  1.7270  0.8685 -0.2793
11348WAT    EPW47199   0.799   5.504   7.188  1.1185 -0.3235 -0.1750
11349WAT      O47200  -1.140   6.412   5.823 -0.4182  0.4608 -0.3438
11349WAT     H147201  -1.078   6.340   5.812 -2.6140 -1.6559  0.3363
11349WAT     H247202  -1.213   6.391   5.765 -2.6409  0.2292  2.2804
11349WAT    EPW47203  -1.142   6.400   5.814 -1.0009  0.1512  0.0920
11350WAT      O47204   7.591   7.292   0.918  0.6534 -0.0042  0.6607
11350WAT     H147205   7.657   7.297   0.987 -0.1289  0.7859  1.3645
11350WAT     H247206   7.602   7.204   0.882  1.0819 -0.4379  1.7890
11350WAT    EPW47207   7.602   7.281   0.923  0.6068  0.0429  0.9024
11351WAT      O47208   2.130   9.525   0.069 -0.4911 -0.4616 -0.5374
11351WAT     H147209   2.153   9.533   0.162 -0.1143  1.5787 -0.7722
11351WAT     H247210   2.138   9.431   0.051 -1.5999 -1.0851  1.7305
11351WAT    EPW47211   2.134   9.513   0.079 -0.5877 -0.2751 -0.2693
11352WAT      O47212  -5.002   7.573   7.032  0.0713 -0.3367 -0.0047
11352WAT     H147213  -5.015   7.478   7.040 -1.0011 -0.1181  1.3335
11352WAT     H247214  -4.995   7.589   6.938 -1.3747 -1.5512 -0.3557
11352WAT    EPW47215  -5.003   7.562   7.021 -0.2608 -0.4680  0.1254
11353WAT      O47216   7.041   9.516   0.050  0.2791 -0.4659 -0.2375
11353WAT     H147217   6.947   9.507   0.062  0.2542  1.5047  1.6116
11353WAT     H247218   7.079   9.479   0.130  1.1556 -1.7842 -1.2151
11353WAT    EPW47219   7.034   9.510   0.062  0.3915 -0.3800 -0.1225
11354WAT      O47220   5.497   9.941   2.851 -0.1511  0.1534  0.0424
11354WAT     H147221   5.501   9.904   2.763 -0.4628 -0.5935  0.3396
11354WAT     H247222   5.587   9.969   2.869 -0.0244  0.0256 -0.3839
11354WAT    EPW47223   5.510   9.940   2.842 -0.1752  0.0381  0.0253
11355WAT      O47224   0.345   8.364   5.327 -0.1576 -0.3649  0.0537
11355WAT     H147225   0.292   8.359   5.406 -0.7014 -3.1843 -0.3720
11355WAT     H247226   0.282   8.348   5.256  0.7640 -0.7953 -0.6876
11355WAT    EPW47227   0.329   8.361   5.328 -0.1078 -0.7935 -0.1004
11356WAT      O47228  -1.114   4.068   8.556 -0.1688  0.0232 -0.0155
11356WAT     H147229  -1.077   4.133   8.615 -1.6562 -0.8377  1.9837
11356WAT     H247230  -1.076   3.985   8.584 -0.9266 -0.4019 -0.2011
11356WAT    EPW47231  -1.104   4.066   8.567 -0.4650 -0.1464  0.2232
11357WAT      O47232   5.366   2.796   5.896  0.3860  0.6424 -0.0872
11357WAT     H147233   5.389   2.881   5.932  2.0528  0.0475  0.3200
11357WAT     H247234   5.347   2.742   5.973  1.3689  0.0888 -0.2278
11357WAT    EPW47235   5.366   2.800   5.911  0.7355  0.4909 -0.0517
11358WAT      O47236   0.881   7.306   0.536 -0.0175  0.3282 -0.0068
11358WAT     H147237   0.861   7.214   0.520  1.8448 -0.6791  2.5663
11358WAT     H247238   0.975   7.314   0.515  0.2952  1.1088  1.5285
11358WAT    EPW47239   0.891   7.295   0.531  0.2694  0.2985  0.5351
11359WAT      O47240   7.235   1.037   5.532 -0.2945 -0.0440  0.1318
11359WAT     H147241   7.152   1.085   5.535  0.9777  2.8003 -3.1586
11359WAT     H247242   7.219   0.964   5.472 -0.0376  1.8162 -2.3823
11359WAT    EPW47243   7.222   1.034   5.524 -0.0927  0.5765 -0.6340
11360WAT      O47244  -6.604   4.406   8.202  0.2567  0.3427  0.5133
11360WAT     H147245  -6.565   4.413   8.289 -0.4824 -1.6810  1.0528
11360WAT     H247246  -6.565   4.478   8.153 -0.6971  2.7519  3.0211
11360WAT    EPW47247  -6.594   4.417   8.207  0.0334  0.3934  0.9155
11361WAT      O47248   1.566   7.305   0.094  0.1302 -0.1221 -0.5482
11361WAT     H147249   1.629   7.283   0.026  1.4719 -1.8451  1.1353
11361WAT     H247250   1.499   7.236   0.087  1.4847 -1.7343  1.2462
11361WAT    EPW47251   1.566   7.293   0.084  0.4858 -0.5622 -0.0895
11362WAT      O47252  -0.028   5.928   1.768  0.0307  0.3557 -0.2084
11362WAT     H147253  -0.046   5.989   1.839  0.0147  1.1455 -0.8772
11362WAT     H247254  -0.073   5.848   1.794  0.7287  0.3487  1.0696
11362WAT    EPW47255  -0.036   5.925   1.781  0.1206  0.4592 -0.1280
11363WAT      O47256  -3.402   7.585   1.791  1.0251 -0.4682 -0.0007
11363WAT     H147257  -3.445   7.561   1.709  0.3084  1.8508 -0.3599
11363WAT     H247258  -3.318   7.539   1.789  0.9551 -0.5744 -1.9551
11363WAT    EPW47259  -3.397   7.576   1.780  0.9212 -0.1762 -0.3059
11364WAT      O47260  -2.565  10.174   5.421  0.5454  0.9156  0.4946
11364WAT     H147261  -2.472  10.188   5.404  0.6818 -0.4360  0.1012
11364WAT     H247262  -2.597  10.126   5.345  0.2820 -1.5970  2.0771
11364WAT    EPW47263  -2.557  10.170   5.409  0.5287  0.4063  0.6514
11365WAT      O47264   2.646   8.440   5.679  0.1572 -0.3666  0.5567
11365WAT     H147265   2.590   8.427   5.603 -0.9187  2.0918  0.8325
11365WAT     H247266   2.610   8.382   5.746 -0.3494 -0.8210 -0.1092
11365WAT    EPW47267   2.634   8.431   5.678 -0.0515 -0.1025  0.5052
11366WAT      O47268   1.195   3.290   5.865 -0.0196  0.7427  0.1882
11366WAT     H147269   1.202   3.385   5.866 -0.3958  0.7658  0.7993
11366WAT     H247270   1.162   3.269   5.777  0.2688  1.1559 -0.0195
11366WAT    EPW47271   1.192   3.300   5.853 -0.0312  0.8003  0.2413
11367WAT      O47272   4.325   9.267   1.040 -0.1354 -0.4757 -0.0795
11367WAT     H147273   4.280   9.342   1.001 -2.2461 -0.7410  1.6692
11367WAT     H247274   4.284   9.190   1.000 -0.4838 -0.7148  0.7177
11367WAT    EPW47275   4.314   9.267   1.030 -0.4597 -0.5417  0.2563
11368WAT      O47276  -0.534   2.921   2.404 -0.2862  0.1453 -0.2457
11368WAT     H147277  -0.603   2.925   2.338 -0.7746  3.3291  0.2929
11368WAT     H247278  -0.579   2.897   2.485 -0.1113 -1.1610 -0.5017
11368WAT    EPW47279  -0.549   2.918   2.406 -0.3276  0.3928 -0.2084
11369WAT      O47280  -1.293   5.019   0.158  0.0039  0.2443 -0.4978
11369WAT     H147281  -1.356   5.009   0.087 -1.2612  2.2251  0.2426
11369WAT     H247282  -1.340   5.070   0.225  1.7652  0.1093  0.9352
11369WAT    EPW47283  -1.308   5.024   0.158  0.0693  0.4878 -0.2112
11370WAT      O47284   4.006   8.487   2.384 -0.3758  0.6394 -0.2241
11370WAT     H147285   4.047   8.469   2.299 -2.5799 -0.5092 -1.1283
11370WAT     H247286   4.067   8.450   2.448  0.3715 -0.3271 -1.4443
11370WAT    EPW47287   4.019   8.479   2.382 -0.5682  0.3600 -0.5041
11371WAT      O47288  -1.811   5.908   1.299 -0.0699 -0.0113  0.0782
11371WAT     H147289  -1.776   5.864   1.376  0.7777 -0.3351 -0.4788
11371WAT     H247290  -1.807   5.843   1.229  1.3444  0.9515 -0.8013
11371WAT    EPW47291  -1.806   5.894   1.300  0.2285  0.0727 -0.1113
11372WAT      O47292   2.477   5.307   1.322  0.2466 -0.2347 -0.3719
11372WAT     H147293   2.424   5.386   1.335 -1.1226 -1.1840  0.1328
11372WAT     H247294   2.427   5.255   1.259  0.8222 -0.9681 -0.2351
11372WAT    EPW47295   2.463   5.310   1.316  0.1420 -0.4568 -0.2873
11373WAT      O47296   2.216   3.680   3.489 -0.4502  0.8345  0.6446
11373WAT     H147297   2.127   3.645   3.496 -1.1450  2.4366  0.2543
11373WAT     H247298   2.247   3.684   3.580 -1.4341  1.8327  0.9638
11373WAT    EPW47299   2.208   3.676   3.502 -0.6716  1.1774  0.6351
11374WAT      O47300   2.708  10.295   5.799  0.2181  0.1660 -0.7952
11374WAT     H147301   2.766  10.225   5.826  0.3894  0.0973 -1.3409
11374WAT     H247302   2.620  10.259   5.809  0.3148 -0.2074 -1.3130
11374WAT    EPW47303   2.704  10.281   5.804  0.2534  0.1078 -0.9353
11375WAT      O47304  -3.001   9.366   4.451  0.6976 -0.0023 -0.7145
11375WAT     H147305  -2.977   9.277   4.477  1.7660 -0.1619 -2.1197
11375WAT     H247306  -2.965   9.422   4.519 -2.5948 -0.7188  1.8988
11375WAT    EPW47307  -2.993   9.362   4.463  0.4042 -0.1178 -0.5550
11376WAT      O47308  -2.251   6.765   5.957  0.6131 -0.1046  0.1519
11376WAT     H147309  -2.328   6.711   5.976 -1.0823  0.9573 -2.9856
11376WAT     H247310  -2.239   6.817   6.037 -1.4562 -0.8381  1.0371
11376WAT    EPW47311  -2.260   6.765   5.970  0.1165 -0.0613 -0.1452
11377WAT      O47312   2.875   4.495   6.328  0.9036 -0.3666  0.0682
11377WAT     H147313   2.872   4.420   6.387 -1.7362 -0.7063 -0.3723
11377WAT     H247314   2.783   4.514   6.309  1.5935  1.3059 -1.9635
11377WAT    EPW47315   2.863   4.488   6.333  0.6464 -0.1907 -0.2580
11378WAT      O47316  -0.490   6.939   2.983 -0.8850  0.6908 -0.4667
11378WAT     H147317  -0.419   6.880   3.009 -2.6529 -1.0111  0.8213
11378WAT     H247318  -0.527   6.899   2.905 -0.8917  1.1693 -0.7104
11378WAT    EPW47319  -0.485   6.926   2.976 -1.1190  0.5295 -0.3290
11379WAT      O47320  -1.162   1.802   4.052  0.7215 -0.4908  0.0386
11379WAT     H147321  -1.128   1.767   4.134  0.6911 -1.2614 -0.2729
11379WAT     H247322  -1.144   1.896   4.058  2.1569 -0.7499  0.2498
11379WAT    EPW47323  -1.155   1.810   4.064  0.9068 -0.6266  0.0253
11380WAT      O47324   2.905   4.969   0.669  0.3280  0.0745  0.1622
11380WAT     H147325   2.905   4.931   0.757 -2.0535  0.8279  0.5702
11380WAT     H247326   2.927   5.061   0.683 -0.2652  0.2444  0.0191
11380WAT    EPW47327   2.908   4.976   0.683 -0.0643  0.1965  0.1971
11381WAT      O47328   2.901   8.296   8.085  0.4282 -0.4354 -0.0245
11381WAT     H147329   2.807   8.302   8.101  1.0508  2.1219  4.7677
11381WAT     H247330   2.936   8.380   8.117  4.5467 -2.4063  1.3635
11381WAT    EPW47331   2.894   8.308   8.092  1.0536 -0.3576  0.7906
11382WAT      O47332   2.141   7.104   4.321  0.3314  0.2319 -0.2528
11382WAT     H147333   2.151   7.199   4.330 -0.8033  0.6162 -2.4369
11382WAT     H247334   2.147   7.088   4.227  1.5657 -2.0421  0.1367
11382WAT    EPW47335   2.143   7.114   4.310  0.3446 -0.0174 -0.4895
11383WAT      O47336   5.454   5.596   4.726 -0.1764 -0.1204  0.4569
11383WAT     H147337   5.369   5.561   4.753 -1.3748  0.5603 -2.1071
11383WAT     H247338   5.472   5.554   4.641  1.8352  0.1134  0.7123
11383WAT    EPW47339   5.445   5.586   4.718 -0.0691  0.0002  0.1523
11384WAT      O47340   3.238   9.652   3.339 -0.1263  0.0333 -0.0637
11384WAT     H147341   3.228   9.629   3.431 -0.3289  0.4451  0.0191
11384WAT     H247342   3.330   9.637   3.320 -0.4222 -1.7450 -0.2608
11384WAT    EPW47343   3.249   9.647   3.348 -0.1920 -0.1469 -0.0788
11385WAT      O47344   0.787   8.661   7.294 -0.4317 -0.2810 -0.3408
11385WAT     H147345   0.729   8.736   7.306 -0.3043 -0.4263  1.5092
11385WAT     H247346   0.729   8.586   7.286 -0.5409 -0.3069  0.5695
11385WAT    EPW47347   0.772   8.661   7.294 -0.4293 -0.3033  0.0231
11386WAT      O47348   5.566   8.946   1.961 -0.0896 -0.0100  1.1737
11386WAT     H147349   5.481   8.980   1.934  0.2744  0.2441  0.2957
11386WAT     H247350   5.565   8.951   2.056 -2.0781 -2.5348  1.3767
11386WAT    EPW47351   5.555   8.951   1.970 -0.3037 -0.3095  1.0847
11387WAT      O47352   4.487   1.632   3.370  0.1217 -0.6233 -0.3937
11387WAT     H147353   4.393   1.649   3.379  0.2419  0.8639 -1.5339
11387WAT     H247354   4.527   1.719   3.373  1.4851 -1.2598  0.2373
11387WAT    EPW47355   4.480   1.646   3.371  0.3173 -0.5110 -0.4609
11388WAT      O47356   5.926   5.045   0.082  0.3888  0.5650 -0.0439
11388WAT     H147357   5.977   4.967   0.060  0.4320 -0.4480  3.1601
11388WAT     H247358   5.992   5.110   0.106  0.2556  0.6773  0.0184
11388WAT    EPW47359   5.942   5.044   0.082  0.3769  0.4463  0.3869
11389WAT      O47360  -1.510   4.135   3.598 -0.2282 -0.1011 -0.1046
11389WAT     H147361  -1.602   4.109   3.603  0.0946 -1.0121  1.9458
11389WAT     H247362  -1.512   4.216   3.547 -2.4646  1.0872  1.6515
11389WAT    EPW47363  -1.523   4.142   3.592 -0.4806 -0.0644  0.3974
11390WAT      O47364  -4.052   7.975   8.216 -0.6067  0.0897  0.3118
11390WAT     H147365  -4.054   8.064   8.181 -2.5811  0.6564  1.7075
11390WAT     H247366  -4.143   7.945   8.210  0.0423 -1.9482 -0.3154
11390WAT    EPW47367  -4.064   7.983   8.211 -0.7815 -0.1044  0.4134
11391WAT      O47368   2.171   4.002   3.234  0.3074 -0.0441 -0.3393
11391WAT     H147369   2.080   4.000   3.264  0.8069 -0.4145  1.2780
11391WAT     H247370   2.175   4.075   3.173 -0.7573  0.9007  0.6806
11391WAT    EPW47371   2.160   4.011   3.230  0.2328  0.0317  0.0086
11392WAT      O47372  -4.849   7.542   8.892  0.2269  0.7755  0.9796
11392WAT     H147373  -4.915   7.544   8.823 -1.1841  1.9807  2.2905
11392WAT     H247374  -4.769   7.510   8.849 -0.8448  0.5767 -0.9499
11392WAT    EPW47375  -4.847   7.538   8.877 -0.1006  0.9084  0.8979
11393WAT      O47376  -1.247   8.001   0.275 -0.0571 -0.3659 -0.3007
11393WAT     H147377  -1.341   8.015   0.288 -0.6236 -2.4299 -1.6558
11393WAT     H247378  -1.207   8.033   0.356 -1.8322  1.1588  0.0473
11393WAT    EPW47379  -1.254   8.007   0.288 -0.3659 -0.4368 -0.4335
11394WAT      O47380   3.171   5.428   5.465 -0.6923 -0.0644  0.3726
11394WAT     H147381   3.201   5.519   5.461  1.8513 -0.8289 -0.0257
11394WAT     H247382   3.076   5.434   5.470 -0.9822  2.5947 -3.4281
11394WAT    EPW47383   3.162   5.441   5.465 -0.3951  0.1855 -0.1814
11395WAT      O47384  -2.209   2.909   8.500 -0.3755 -0.2701  0.0660
11395WAT     H147385  -2.209   2.843   8.431  3.9646 -1.3275  0.7635
11395WAT     H247386  -2.217   2.992   8.453  1.8225 -0.9891 -1.7678
11395WAT    EPW47387  -2.210   2.911   8.485  0.4869 -0.5044 -0.0839
11396WAT      O47388   3.142   3.040   8.634 -0.3469 -0.8553  0.1313
11396WAT     H147389   3.112   3.130   8.649 -1.3363 -1.3330  1.2187
11396WAT     H247390   3.120   3.022   8.543 -0.9652 -0.2908  0.1600
11396WAT    EPW47391   3.135   3.050   8.624 -0.5590 -0.8439  0.2789
11397WAT      O47392  -3.465   8.133   8.448 -0.2449  0.0548  0.5783
11397WAT     H147393  -3.420   8.088   8.377  1.6176  2.2424  0.2850
11397WAT     H247394  -3.557   8.136   8.420  0.5355  1.5828 -2.2220
11397WAT    EPW47395  -3.471   8.127   8.435  0.1038  0.5450  0.1707
11398WAT      O47396  -1.867   7.254   6.265  0.2946  0.6661  0.0414
11398WAT     H147397  -1.848   7.163   6.284 -2.1624  0.6827  3.8390
11398WAT     H247398  -1.940   7.252   6.203 -0.4440 -0.0671  0.9045
11398WAT    EPW47399  -1.874   7.242   6.260 -0.1269  0.5715  0.6561
11399WAT      O47400  -0.577   7.545   8.450  0.1160 -0.2740 -0.3854
11399WAT     H147401  -0.562   7.559   8.356  0.5892 -2.7466 -0.7513
11399WAT     H247402  -0.538   7.460   8.467 -1.9433 -0.9008  1.5784
11399WAT    EPW47403  -0.570   7.536   8.440 -0.0932 -0.6828 -0.1745
11400WAT      O47404   0.842   5.645   5.206  0.0954  0.3479  0.7665
11400WAT     H147405   0.775   5.709   5.183  0.2228  0.1426 -0.2378
11400WAT     H247406   0.912   5.696   5.247  1.4520  1.3700 -2.4894
11400WAT    EPW47407   0.842   5.660   5.209  0.2911  0.4556  0.2046
11401WAT      O47408   2.925   0.402   3.280 -0.4774 -0.0231 -0.2653
11401WAT     H147409   2.932   0.319   3.231 -1.3490 -1.9042  2.5409
11401WAT     H247410   2.994   0.396   3.346 -1.2749  0.9748  0.6782
11401WAT    EPW47411   2.935   0.390   3.282 -0.6976 -0.1396  0.2294
11402WAT      O47412  -1.124   5.145   4.218 -0.1046 -0.3093 -0.1657
11402WAT     H147413  -1.182   5.168   4.145 -0.9939 -0.8638  0.3501
11402WAT     H247414  -1.047   5.106   4.176  0.7069  1.9879 -0.9678
11402WAT    EPW47415  -1.121   5.143   4.203 -0.1149 -0.0794 -0.2034
11403WAT      O47416   1.423   4.115   1.128 -0.9139  0.3190 -0.7175
11403WAT     H147417   1.496   4.170   1.158 -1.2479 -0.3515  1.5253
11403WAT     H247418   1.465   4.043   1.081 -0.4013  1.8266 -2.6512
11403WAT    EPW47419   1.438   4.113   1.126 -0.8904  0.4294 -0.6767
11404WAT      O47420   0.063   9.095   2.218 -0.0410  0.2981  0.5396
11404WAT     H147421   0.144   9.047   2.237 -0.4563 -0.7806 -0.3253
11404WAT     H247422  -0.001   9.056   2.277 -0.0231  0.8968  0.9589
11404WAT    EPW47423   0.066   9.083   2.228 -0.0934  0.2346  0.4809
11405WAT      O47424   0.965   9.345   5.930  0.8005  0.0981 -0.1278
11405WAT     H147425   0.931   9.281   5.868  0.4580  0.3695 -0.2256
11405WAT     H247426   1.052   9.313   5.953 -0.2179 -1.7140  1.6314
11405WAT    EPW47427   0.972   9.333   5.925  0.6210 -0.1054  0.0913
11406WAT      O47428  -1.868   6.502   6.859  0.2689 -0.0177  0.0394
11406WAT     H147429  -1.791   6.460   6.899  0.2803 -0.8472 -0.8168
11406WAT     H247430  -1.924   6.429   6.834 -1.1788  0.5904  1.3198
11406WAT    EPW47431  -1.865   6.486   6.861  0.0795 -0.0470  0.0954
11407WAT      O47432   3.635  10.184   1.283 -0.0246  1.0310 -0.9136
11407WAT     H147433   3.657  10.121   1.214 -1.7460  0.0846 -0.6634
11407WAT     H247434   3.589  10.254   1.237 -2.6466 -0.3752 -0.6316
11407WAT    EPW47435   3.632  10.185   1.268 -0.5974  0.7205 -0.8434
11408WAT      O47436  -0.160   3.564   3.256 -0.3577 -0.4175 -0.4768
11408WAT     H147437  -0.127   3.508   3.185 -0.1503 -1.1546  0.1926
11408WAT     H247438  -0.237   3.518   3.289 -1.2977  0.6286 -1.1346
11408WAT    EPW47439  -0.166   3.551   3.251 -0.4544 -0.3767 -0.4752
11409WAT      O47440   3.437   6.034  -0.009 -0.6561  0.7334 -0.1649
11409WAT     H147441   3.472   5.963   0.044 -0.3970  1.7321  1.0141
11409WAT     H247442   3.386   6.087   0.052 -3.3249 -0.0086 -1.5662
11409WAT    EPW47443   3.435   6.031   0.006 -0.9739  0.7672 -0.1942
11410WAT      O47444   0.080   2.552   6.421 -0.1443  0.0325  0.1742
11410WAT     H147445   0.042   2.640   6.418  0.0380  0.2345 -5.1252
11410WAT     H247446   0.171   2.565   6.395  0.0442 -1.6779 -0.1062
11410WAT    EPW47447   0.087   2.565   6.417 -0.0954 -0.1664 -0.5620
11411WAT      O47448   0.677   9.266   5.646  0.4854 -0.1480  0.6099
11411WAT     H147449   0.735   9.275   5.570 -0.3270 -0.9683 -0.1447
11411WAT     H247450   0.627   9.347   5.649 -2.0229 -1.4121 -1.9871
11411WAT    EPW47451   0.678   9.278   5.636  0.0474 -0.4230  0.1681
11412WAT      O47452  -0.073   4.044   5.481 -0.2676  0.0845  0.2479
11412WAT     H147453   0.002   4.076   5.430 -0.0973  1.7151  1.4188
11412WAT     H247454  -0.060   3.949   5.487  0.7891  0.1312 -0.9947
11412WAT    EPW47455  -0.061   4.036   5.475 -0.1058  0.3057  0.2387
11413WAT      O47456   5.517   8.180   2.571  0.1558  0.1541 -0.1776
11413WAT     H147457   5.456   8.244   2.608  1.3389  1.1301  0.1587
11413WAT     H247458   5.600   8.227   2.563  0.7716 -1.0011 -1.0397
11413WAT    EPW47459   5.520   8.195   2.575  0.3929  0.1302 -0.2470
11414WAT      O47460  -1.987   1.734   4.860  0.5955  0.0631 -0.3867
11414WAT     H147461  -1.929   1.723   4.784  1.1345  0.7047 -0.0785
11414WAT     H247462  -1.950   1.675   4.926  0.5935  0.0978 -0.3550
11414WAT    EPW47463  -1.974   1.725   4.858  0.6663  0.1523 -0.3419
11415WAT      O47464   0.627   3.814   5.546  0.7944 -0.1785 -0.6290
11415WAT     H147465   0.656   3.811   5.637  0.0878  0.9277 -0.3400
11415WAT     H247466   0.569   3.890   5.542 -0.6515 -1.2706 -1.5841
11415WAT    EPW47467   0.623   3.824   5.557  0.5105 -0.1767 -0.7169
11416WAT      O47468  -0.506   4.211   2.896  0.3136  0.5910  0.1942
11416WAT     H147469  -0.597   4.207   2.925  0.6741 -0.1446  1.2775
11416WAT     H247470  -0.470   4.126   2.920  1.3395  0.9527 -0.0472
11416WAT    EPW47471  -0.514   4.199   2.903  0.4965  0.5417  0.3053
11417WAT      O47472   6.098   1.879   0.468  0.2248  0.3321  0.1576
11417WAT     H147473   6.057   1.962   0.492  1.1741  0.4760  1.3866
11417WAT     H247474   6.109   1.884   0.374 -4.4362 -0.5997 -0.7125
11417WAT    EPW47475   6.094   1.891   0.459 -0.2649  0.2282  0.2050
11418WAT      O47476   0.043   3.443   0.240  0.4799  0.2747  0.4777
11418WAT     H147477   0.106   3.514   0.247 -0.2026  1.0329 -0.6675
11418WAT     H247478  -0.007   3.463   0.161  2.3119 -3.1364 -1.7995
11418WAT    EPW47479   0.044   3.455   0.231  0.6315 -0.0752  0.0263
11419WAT      O47480  -1.758   5.733   3.527 -0.3093  0.0379 -0.2423
11419WAT     H147481  -1.821   5.725   3.455  0.2672 -0.2204 -0.7310
11419WAT     H247482  -1.686   5.675   3.502 -0.7097 -1.1459  1.2234
11419WAT    EPW47483  -1.757   5.725   3.514 -0.2861 -0.1523 -0.1134
11420WAT      O47484  -0.431   2.020   6.994  0.6853  0.0159 -0.2111
11420WAT     H147485  -0.432   1.975   6.909  1.6374  0.5827 -0.5353
11420WAT     H247486  -0.338   2.025   7.017  0.3954 -0.8718  1.2799
11420WAT    EPW47487  -0.419   2.015   6.986  0.7727 -0.0265 -0.0572
11421WAT      O47488  -7.073  10.220   6.337 -0.1205  0.3927  0.3588
11421WAT     H147489  -7.058  10.125   6.337 -1.6033  0.1108  1.4803
11421WAT     H247490  -7.126  10.236   6.259 -0.6646  0.1228  0.6621
11421WAT    EPW47491  -7.078  10.210   6.327 -0.3879  0.3204  0.5467
11422WAT      O47492  -3.407   9.004   5.895 -0.0621 -0.0187  0.5746
11422WAT     H147493  -3.321   8.964   5.904 -0.4702 -1.2333 -0.6344
11422WAT     H247494  -3.423   9.045   5.980  0.4050 -2.4301  1.9062
11422WAT    EPW47495  -3.398   9.004   5.908 -0.0544 -0.4969  0.5908
11423WAT      O47496  -3.241   7.191   7.591 -0.6253  0.1329  0.5049
11423WAT     H147497  -3.310   7.140   7.633 -2.4277  1.1701 -1.0633
11423WAT     H247498  -3.217   7.139   7.513  1.2218 -0.7558  1.5800
11423WAT    EPW47499  -3.247   7.177   7.586 -0.6193  0.1523  0.4399
11424WAT      O47500  -0.861   3.170   1.387  0.0939 -0.4323  0.5010
11424WAT     H147501  -0.776   3.186   1.347 -1.0450  0.3395 -1.7751
11424WAT     H247502  -0.864   3.231   1.461  0.9495  0.6210 -0.2950
11424WAT    EPW47503  -0.850   3.180   1.391  0.0565 -0.1915  0.0958
11425WAT      O47504   6.222   0.543   2.866 -0.1106  0.0396 -0.0079
11425WAT     H147505   6.156   0.475   2.850  1.2207 -1.5750  1.0161
11425WAT     H247506   6.273   0.547   2.785 -0.2430 -0.1200 -0.0982
11425WAT    EPW47507   6.220   0.535   2.853  0.0474 -0.1944  0.1153
11426WAT      O47508   0.865   4.773   4.071 -0.8358  0.0782  0.5300
11426WAT     H147509   0.936   4.715   4.044  0.1417  0.5838  1.8767
11426WAT     H247510   0.891   4.859   4.036 -0.9122  0.2143  0.8077
11426WAT    EPW47511   0.878   4.777   4.063 -0.7170  0.1628  0.7443
11427WAT      O47512   4.004   1.680   2.594 -0.2923  0.2892  0.5472
11427WAT     H147513   4.095   1.665   2.569  0.3148 -0.3192  2.8761
11427WAT     H247514   4.002   1.770   2.627 -0.4871  0.2220  0.7212
11427WAT    EPW47515   4.016   1.690   2.595 -0.2379  0.2001  0.8774
11428WAT      O47516   7.266   3.608   0.711 -0.4809  0.1548 -0.2183
11428WAT     H147517   7.234   3.678   0.767 -1.4663 -0.5581  0.1379
11428WAT     H247518   7.236   3.528   0.753  3.0914 -0.7090  1.0047
11428WAT    EPW47519   7.258   3.607   0.724 -0.1397 -0.0530 -0.0100
11429WAT      O47520   0.365   2.722   3.096 -0.6753 -0.2406 -0.1997
11429WAT     H147521   0.272   2.712   3.116 -0.2165 -0.9270  1.8457
11429WAT     H247522   0.391   2.637   3.060 -0.8265 -0.0343 -0.8136
11429WAT    EPW47523   0.356   2.709   3.094 -0.6348 -0.3039 -0.0110
11430WAT      O47524   1.944  10.076   6.160 -0.1054 -0.6021 -0.0631
11430WAT     H147525   1.883  10.149   6.172  1.0781  0.6246 -1.1172
11430WAT     H247526   2.025  10.117   6.128  1.9236 -1.9281  2.8937
11430WAT    EPW47527   1.947  10.091   6.158  0.3182 -0.6156  0.1881
11431WAT      O47528   8.589   1.391   2.958 -0.6743  0.8377  0.3101
11431WAT     H147529   8.654   1.421   3.021 -1.3007 -0.8773  1.8666
11431WAT     H247530   8.533   1.467   2.942  0.2666  1.6484  0.8056
11431WAT    EPW47531   8.590   1.405   2.964 -0.6328  0.7185  0.5807
11432WAT      O47532  -0.392   2.382   6.175 -0.9525  0.1416 -0.6155
11432WAT     H147533  -0.425   2.437   6.246 -1.2345 -0.3295 -0.3740
11432WAT     H247534  -0.461   2.386   6.108 -0.4909  0.9374 -1.0576
11432WAT    EPW47535  -0.406   2.390   6.176 -0.9288  0.1843 -0.6421
11433WAT      O47536   1.788  10.109   0.474  0.2760 -0.5927 -0.4633
11433WAT     H147537   1.728  10.119   0.400 -1.0847 -1.2866  0.5116
11433WAT     H247538   1.812  10.016   0.473  0.9299 -0.4308 -0.5226
11433WAT    EPW47539   1.784  10.098   0.464  0.1828 -0.6628 -0.3425
11434WAT      O47540  -0.097   3.310   4.492  0.4152 -0.4572 -0.2022
11434WAT     H147541  -0.038   3.339   4.422  0.3932  2.2656  0.7916
11434WAT     H247542  -0.139   3.390   4.523 -2.2301 -2.0329  0.5930
11434WAT    EPW47543  -0.094   3.324   4.487  0.0634 -0.3058  0.0339
11435WAT      O47544  -4.932   4.447   8.434  0.0606  0.3006 -0.8220
11435WAT     H147545  -4.901   4.392   8.362 -0.2984  0.2636 -0.9474
11435WAT     H247546  -4.852   4.480   8.475  0.7335 -4.6063  2.6858
11435WAT    EPW47547  -4.917   4.444   8.430  0.1018 -0.3514 -0.3757
11436WAT      O47548   4.212   0.934   1.947 -0.3847 -0.4905  0.1732
11436WAT     H147549   4.198   0.840   1.954 -2.0885 -0.1893  2.0357
11436WAT     H247550   4.162   0.971   2.020 -0.0907  1.8923 -0.7186
11436WAT    EPW47551   4.203   0.927   1.958 -0.5708 -0.1365  0.3012
11437WAT      O47552   3.470   9.394   4.939 -0.3603  0.2175 -0.0917
11437WAT     H147553   3.494   9.306   4.969 -0.5636 -0.1584 -0.9977
11437WAT     H247554   3.551   9.444   4.945 -0.7433  0.6626  2.7049
11437WAT    EPW47555   3.484   9.389   4.944 -0.4377  0.2265  0.1576
11438WAT      O47556   5.776   8.304   2.522  0.7119 -0.5830  0.7002
11438WAT     H147557   5.800   8.285   2.432  1.3839 -0.6513  0.8884
11438WAT     H247558   5.852   8.277   2.574 -0.2818 -2.0664  1.4491
11438WAT    EPW47559   5.789   8.298   2.517  0.6692 -0.7873  0.8237
11439WAT      O47560  -1.186   7.385   1.528 -0.0165 -0.1427  0.3076
11439WAT     H147561  -1.096   7.418   1.534  0.0688  0.5932 -3.0105
11439WAT     H247562  -1.191   7.348   1.440 -2.2837 -2.4774  1.3099
11439WAT    EPW47563  -1.175   7.385   1.517 -0.3043 -0.3536  0.0022
11440WAT      O47564   2.175   5.855   2.380 -0.0920 -0.4011  0.1825
11440WAT     H147565   2.250   5.804   2.413 -0.1705 -0.9714 -0.4936
11440WAT     H247566   2.102   5.826   2.434  0.5419  1.7811  2.3773
11440WAT    EPW47567   2.176   5.844   2.392 -0.0187 -0.1886  0.3829
11441WAT      O47568  -0.750   3.667   3.551 -0.4480  0.3328  0.0692
11441WAT     H147569  -0.821   3.609   3.524 -2.9598  3.3287 -0.3839
11441WAT     H247570  -0.758   3.743   3.494  3.0331  0.9751  0.2288
11441WAT    EPW47571  -0.761   3.669   3.540 -0.3202  0.8126  0.0305
11442WAT      O47572  -6.680   9.772   5.295 -0.3388 -0.0248 -0.3089
11442WAT     H147573  -6.596   9.818   5.291  0.3207 -1.1108  0.4608
11442WAT     H247574  -6.695   9.758   5.388  0.0410 -2.3092 -0.5465
11442WAT    EPW47575  -6.671   9.776   5.307 -0.2017 -0.4692 -0.2389
11443WAT      O47576  -4.968   7.906   8.389 -1.1099 -1.6640  0.3439
11443WAT     H147577  -5.001   7.823   8.425 -2.9052 -0.7037  1.0129
11443WAT     H247578  -5.012   7.974   8.439  1.4445 -0.2232  0.8293
11443WAT    EPW47579  -4.978   7.904   8.400 -1.0097 -1.3473  0.4964
11444WAT      O47580  -0.873   7.150   1.312 -0.1199 -0.2677  0.1664
11444WAT     H147581  -0.872   7.164   1.217 -0.2604 -2.4864 -0.2169
11444WAT     H247582  -0.781   7.142   1.336 -0.0148  1.4859  0.4580
11444WAT    EPW47583  -0.861   7.151   1.303 -0.1245 -0.3290  0.1543
11445WAT      O47584   7.189   7.168   0.566 -0.2415  0.3989  0.6664
11445WAT     H147585   7.174   7.196   0.476  0.8502  0.2418  0.4182
11445WAT     H247586   7.143   7.084   0.573  1.0732 -0.4493 -0.2930
11445WAT    EPW47587   7.181   7.160   0.555  0.0758  0.2666  0.5071
11446WAT      O47588   0.861   4.563   4.822  0.1458  0.4963 -0.4926
11446WAT     H147589   0.832   4.563   4.914  0.9893  0.0310 -0.2175
11446WAT     H247590   0.953   4.537   4.826 -0.3568 -1.6829 -1.6316
11446WAT    EPW47591   0.869   4.560   4.835  0.1908  0.1473 -0.6068
11447WAT      O47592   6.226   3.670   4.547 -0.5608  0.5761 -0.5592
11447WAT     H147593   6.247   3.759   4.574  2.0263 -0.1642  0.2522
11447WAT     H247594   6.289   3.650   4.478  0.6771 -1.3690  0.9797
11447WAT    EPW47595   6.237   3.679   4.542 -0.0565  0.2218 -0.2494
11448WAT      O47596   4.715   2.018   0.658  0.0653 -0.0296  0.3061
11448WAT     H147597   4.663   1.941   0.681  0.9326 -1.1647 -1.2642
11448WAT     H247598   4.784   2.021   0.725 -0.2953 -0.2968  0.6926
11448WAT    EPW47599   4.717   2.008   0.670  0.1321 -0.2146  0.1499
11449WAT      O47600  -2.602   8.551   1.501  0.3961  0.2298 -0.0024
11449WAT     H147601  -2.587   8.479   1.440 -1.1472 -0.0165 -0.1195
11449WAT     H247602  -2.624   8.626   1.446  1.8255  0.7870  0.1275
11449WAT    EPW47603  -2.603   8.552   1.486  0.3811  0.2708 -0.0007
11450WAT      O47604   3.717   1.110   3.785 -0.2435 -0.2225 -0.0214
11450WAT     H147605   3.710   1.033   3.842 -0.9683  1.6248  2.5977
11450WAT     H247606   3.638   1.106   3.730  1.0263 -2.6388 -1.8459
11450WAT    EPW47607   3.706   1.099   3.785 -0.1717 -0.2975  0.0834
11451WAT      O47608  -0.763   2.405   3.458 -0.7416 -0.6186  0.4391
11451WAT     H147609  -0.853   2.427   3.434 -0.1314  0.0279 -1.3703
11451WAT     H247610  -0.769   2.317   3.495 -2.3088 -0.0118  1.7561
11451WAT    EPW47611  -0.776   2.396   3.460 -0.8678 -0.4532  0.3742
11452WAT      O47612   1.428   3.974   2.359  0.8088  0.2503  0.7205
11452WAT     H147613   1.358   3.944   2.301 -1.4855  0.6724  3.0832
11452WAT     H247614   1.504   3.922   2.334 -0.7453 -1.3334 -0.9799
11452WAT    EPW47615   1.428   3.963   2.348  0.3012  0.0970  0.8079
11453WAT      O47616   2.853   7.202   8.760 -0.2546  0.1168  0.0885
11453WAT     H147617   2.883   7.293   8.772 -1.9709  0.9441 -1.4174
11453WAT     H247618   2.765   7.201   8.799  0.0433 -1.1446  0.7816
11453WAT    EPW47619   2.845   7.214   8.767 -0.4417  0.0594 -0.0191
11454WAT      O47620  -1.356   4.972   7.488 -0.4741 -0.6444 -0.8958
11454WAT     H147621  -1.357   5.018   7.404  1.7912  1.5762  0.1596
11454WAT     H247622  -1.344   4.880   7.465  1.1871  0.0197 -3.0238
11454WAT    EPW47623  -1.354   4.966   7.474  0.0437 -0.2639 -1.0374
11455WAT      O47624  -3.177   8.235   3.766  0.4160  0.4813 -0.6763
11455WAT     H147625  -3.134   8.268   3.844 -2.8812  1.1027  1.0664
11455WAT     H247626  -3.221   8.155   3.795  0.4302 -0.1670 -2.3305
11455WAT    EPW47627  -3.177   8.229   3.780 -0.0170  0.4778 -0.6645
11456WAT      O47628  -0.206   6.944   6.442 -0.1276 -0.3160 -0.6724
11456WAT     H147629  -0.174   7.011   6.502 -0.4379 -3.2011  3.0797
11456WAT     H247630  -0.301   6.952   6.445 -0.1763 -1.0274  0.0018
11456WAT    EPW47631  -0.214   6.954   6.450 -0.1749 -0.7904 -0.0887
11457WAT      O47632  -2.864   8.624   0.394  0.3057 -0.3089 -0.5109
11457WAT     H147633  -2.824   8.562   0.332 -0.2363 -0.8074 -0.3659
11457WAT     H247634  -2.915   8.683   0.339  0.7159 -0.0646 -0.6369
11457WAT    EPW47635  -2.865   8.624   0.378  0.2882 -0.3424 -0.5084
11458WAT      O47636   6.602   3.922   3.255 -0.2599 -0.0306 -0.5695
11458WAT     H147637   6.578   3.854   3.191  2.4861 -3.1231  1.3652
11458WAT     H247638   6.518   3.950   3.292 -1.7390  0.1239 -3.7176
11458WAT    EPW47639   6.588   3.916   3.251 -0.0930 -0.4179 -0.7296
11459WAT      O47640   3.825   2.016   3.471 -0.7239  0.3174  0.2910
11459WAT     H147641   3.832   2.089   3.533  1.9705  0.2478  0.1851
11459WAT     H247642   3.820   2.058   3.385  0.8057  0.4432  0.2318
11459WAT    EPW47643   3.825   2.031   3.468 -0.1669  0.3248  0.2692
11460WAT      O47644  -7.844   8.317   8.571  0.0267 -0.5933 -0.6612
11460WAT     H147645  -7.926   8.343   8.612  0.0528 -0.2475 -0.8256
11460WAT     H247646  -7.821   8.235   8.614  0.7901  0.4586  1.0985
11460WAT    EPW47647  -7.852   8.310   8.582  0.1309 -0.4091 -0.4506
11461WAT      O47648   7.799   2.901   0.136  0.3629 -0.8036  0.2534
11461WAT     H147649   7.785   2.877   0.045 -2.3031 -1.2619  0.7076
11461WAT     H247650   7.723   2.866   0.182 -0.6418  3.1360  1.9702
11461WAT    EPW47651   7.787   2.893   0.130 -0.1214 -0.3444  0.5397
11462WAT      O47652   2.783   7.990   0.880  0.8956 -0.6075 -0.7859
11462WAT     H147653   2.737   7.910   0.905  1.3183 -0.6884 -0.2588
11462WAT     H247654   2.713   8.049   0.851  0.3480 -0.4312  0.7979
11462WAT    EPW47655   2.768   7.987   0.880  0.8790 -0.5949 -0.5075
11463WAT      O47656   2.698   3.402   7.074  1.1961 -0.1097  0.0639
11463WAT     H147657   2.661   3.407   7.163  0.4996  0.1389 -0.2275
11463WAT     H247658   2.712   3.493   7.049  1.9728 -0.2031  0.1494
11463WAT    EPW47659   2.695   3.415   7.083  1.2066 -0.0892  0.0370
11464WAT      O47660   5.760   5.971   2.210  0.4390 -0.3151  0.5957
11464WAT     H147661   5.745   6.019   2.291 -1.0972 -0.7480  0.6001
11464WAT     H247662   5.747   5.879   2.232  1.6754 -0.6055  0.2098
11464WAT    EPW47663   5.756   5.966   2.223  0.3996 -0.4106  0.5454
11465WAT      O47664   2.833   7.244   1.268  0.0484 -0.7411 -0.4944
11465WAT     H147665   2.905   7.184   1.251 -0.5816 -1.1204 -2.0832
11465WAT     H247666   2.757   7.200   1.228 -0.0558  2.0371 -3.8343
11465WAT    EPW47667   2.832   7.230   1.260 -0.0484 -0.4246 -1.1445
11466WAT      O47668  -5.653   8.004   7.452  0.4346  0.4406 -0.0009
11466WAT     H147669  -5.693   8.089   7.433 -0.7615 -0.1253 -0.1106
11466WAT     H247670  -5.574   8.025   7.502 -0.7721  1.5416  1.5516
11466WAT    EPW47671  -5.648   8.018   7.456  0.1178  0.5112  0.1895
11467WAT      O47672  -0.457   2.322   8.362  0.3905  0.5496  0.2928
11467WAT     H147673  -0.432   2.354   8.449 -0.4750  2.1080  0.0021
11467WAT     H247674  -0.536   2.372   8.341 -0.7121 -1.4221 -0.4476
11467WAT    EPW47675  -0.464   2.333   8.371  0.1309  0.4951  0.1569
11468WAT      O47676  -2.574   8.137   2.934 -0.5045 -0.0921  0.1562
11468WAT     H147677  -2.655   8.162   2.977 -0.7435  0.4310 -0.5909
11468WAT     H247678  -2.539   8.219   2.899  0.4949 -0.2650  0.7168
11468WAT    EPW47679  -2.580   8.151   2.935 -0.4042 -0.0458  0.1315
11469WAT      O47680  -5.840   6.072   8.119  0.1649  0.9049 -0.3151
11469WAT     H147681  -5.881   6.158   8.119 -0.3073  0.6837  0.2649
11469WAT     H247682  -5.894   6.020   8.178  0.0891  0.0332 -1.1426
11469WAT    EPW47683  -5.852   6.077   8.127  0.0927  0.7608 -0.3481
11470WAT      O47684   5.719   1.479   7.094 -0.1276  0.5419 -0.0305
11470WAT     H147685   5.812   1.472   7.072  0.0882  2.2880  0.1434
11470WAT     H247686   5.703   1.407   7.154  0.4515 -1.3549 -2.0398
11470WAT    EPW47687   5.729   1.469   7.099 -0.0226  0.5220 -0.2725
11471WAT      O47688   1.139   5.895   1.199 -0.0828 -0.2011  0.1866
11471WAT     H147689   1.234   5.888   1.202 -0.1987 -1.8477  1.7767
11471WAT     H247690   1.118   5.958   1.268 -0.2251 -1.8889  1.7740
11471WAT    EPW47691   1.149   5.902   1.208 -0.1168 -0.6409  0.6057
11472WAT      O47692   3.908   6.891   3.791  0.2813 -0.2051 -0.1231
11472WAT     H147693   3.829   6.929   3.830  0.2705 -1.1810  0.8554
11472WAT     H247694   3.932   6.952   3.722 -1.1402  0.2903 -0.2251
11472WAT    EPW47695   3.900   6.904   3.787  0.0923 -0.2685 -0.0075
11473WAT      O47696  -3.786   1.837   5.648  0.2845  0.7019 -0.0839
11473WAT     H147697  -3.860   1.786   5.615 -0.7165  1.3885  1.0021
11473WAT     H247698  -3.809   1.856   5.739  2.5367 -0.3772  0.7783
11473WAT    EPW47699  -3.799   1.833   5.656  0.4495  0.6501  0.1731
11474WAT      O47700   1.395   3.422   0.965 -0.3470 -0.0207 -0.2150
11474WAT     H147701   1.417   3.368   1.040 -2.1746 -0.9086 -0.2846
11474WAT     H247702   1.338   3.490   1.000  1.3917  1.5551 -0.2517
11474WAT    EPW47703   1.390   3.424   0.980 -0.3588  0.0699 -0.2290
11475WAT      O47704  -1.158   9.938   0.025  0.0550 -0.2701 -0.0200
11475WAT     H147705  -1.151   9.855   0.072  2.7987  0.0472  0.3111
11475WAT     H247706  -1.189  10.000   0.091  0.3453 -0.5559  0.3885
11475WAT    EPW47707  -1.161   9.935   0.040  0.4552 -0.2661  0.0776
11476WAT      O47708  -2.781   8.143   7.525  0.1203  0.2067 -0.8577
11476WAT     H147709  -2.707   8.204   7.526 -0.2558  0.6934  1.3092
11476WAT     H247710  -2.744   8.061   7.490  2.0647  0.0393  1.3326
11476WAT    EPW47711  -2.766   8.140   7.521  0.3271  0.2489 -0.2828
11477WAT      O47712  -1.803   7.145   1.705  0.6447 -0.2290 -0.0615
11477WAT     H147713  -1.840   7.141   1.617  0.1441  0.2335  0.1138
11477WAT     H247714  -1.730   7.207   1.698  0.1248  0.4096 -0.0027
11477WAT    EPW47715  -1.799   7.153   1.693  0.5100 -0.0837 -0.0306
11478WAT      O47716   0.817   7.146   6.168 -0.4600  0.1431  0.2541
11478WAT     H147717   0.872   7.088   6.116 -0.0410  0.9153 -0.1890
11478WAT     H247718   0.799   7.220   6.111  0.6022  1.3529  1.3985
11478WAT    EPW47719   0.822   7.148   6.154 -0.2647  0.4044  0.3467
11479WAT      O47720   3.092   4.400   5.718  0.1588 -0.6135 -0.2151
11479WAT     H147721   2.998   4.413   5.718  0.1180 -0.0352 -3.5578
11479WAT     H247722   3.129   4.487   5.703  1.2533 -0.8061  1.1914
11479WAT    EPW47723   3.085   4.413   5.716  0.2979 -0.5627 -0.4704
11480WAT      O47724  -0.118   7.931   6.518  0.0709 -0.4678 -0.2671
11480WAT     H147725  -0.079   8.014   6.490 -0.8986 -0.6294 -2.2331
11480WAT     H247726  -0.054   7.865   6.492 -0.4524 -0.5464 -1.4224
11480WAT    EPW47727  -0.105   7.933   6.511 -0.1260 -0.4995 -0.6788
11481WAT      O47728   5.224   0.752   8.107  0.5960  0.2901 -0.4850
11481WAT     H147729   5.236   0.716   8.019 -2.0186 -0.9375 -0.4286
11481WAT     H247730   5.147   0.809   8.099  0.0211 -0.2269  1.0970
11481WAT    EPW47731   5.216   0.755   8.094  0.1752  0.0600 -0.2689
11482WAT      O47732   2.358  10.188   6.945  0.0434 -0.0017 -0.0529
11482WAT     H147733   2.364  10.113   7.005 -0.0987 -1.3398 -1.6606
11482WAT     H247734   2.271  10.180   6.905 -0.0088  1.0868 -0.1704
11482WAT    EPW47735   2.347  10.177   6.948  0.0178 -0.0348 -0.2804
11483WAT      O47736   4.354   7.574   4.124 -0.1317 -0.4313  0.9574
11483WAT     H147737   4.344   7.488   4.081 -2.0419 -0.0526  0.5593
11483WAT     H247738   4.443   7.573   4.158  0.2689 -2.1412 -0.0043
11483WAT    EPW47739   4.365   7.562   4.123 -0.3307 -0.6068  0.7780
11484WAT      O47740  -1.672   4.181   5.877  0.1038  0.4959  0.6871
11484WAT     H147741  -1.583   4.209   5.898  0.9340 -1.4918  0.0813
11484WAT     H247742  -1.700   4.133   5.955 -0.5598  1.3473  0.9818
11484WAT    EPW47743  -1.664   4.178   5.890  0.1258  0.3459  0.6461
11485WAT      O47744   5.021   5.159   1.591  0.1274 -0.3223 -0.0644
11485WAT     H147745   4.980   5.131   1.673  2.6453 -2.1345  0.7086
11485WAT     H247746   4.994   5.094   1.527  3.0205 -2.6621  0.8777
11485WAT    EPW47747   5.012   5.147   1.593  0.8411 -0.8700  0.1618
11486WAT      O47748  -4.831   8.602   6.432 -0.0299 -0.1715 -0.8284
11486WAT     H147749  -4.913   8.593   6.480  0.0474  0.5459 -0.5578
11486WAT     H247750  -4.824   8.695   6.411 -0.3146 -0.5248 -2.7029
11486WAT    EPW47751  -4.841   8.613   6.435 -0.0572 -0.1235 -1.0397
11487WAT      O47752  -1.892   6.039   4.344 -0.3183 -0.4773 -0.0014
11487WAT     H147753  -1.883   6.025   4.250 -0.4767 -1.2001  0.0880
11487WAT     H247754  -1.852   6.125   4.360  1.2067 -1.0697 -0.4783
11487WAT    EPW47755  -1.885   6.049   4.334 -0.1381 -0.6506 -0.0525
11488WAT      O47756   1.374   8.729   6.047 -0.0140 -0.8563  0.1331
11488WAT     H147757   1.361   8.711   6.140 -0.0690 -0.4988  0.1956
11488WAT     H247758   1.352   8.646   6.004 -1.4675 -0.6073  0.3233
11488WAT    EPW47759   1.369   8.716   6.054 -0.2130 -0.7763  0.1662
11489WAT      O47760  -4.879   3.077   6.833  0.2443 -0.0406  0.1100
11489WAT     H147761  -4.829   3.124   6.900 -0.5576  1.7340 -0.4714
11489WAT     H247762  -4.952   3.135   6.811  0.3776 -0.6104 -2.1952
11489WAT    EPW47763  -4.882   3.091   6.839  0.1562  0.1184 -0.2706
11490WAT      O47764  -1.092   1.129   2.025  0.7119  0.2665 -0.2908
11490WAT     H147765  -1.075   1.202   1.965  3.6828  1.0529  1.3279
11490WAT     H247766  -1.035   1.059   1.993 -1.3719 -1.0944 -1.2196
11490WAT    EPW47767  -1.082   1.130   2.013  0.8289  0.1907 -0.1998
11491WAT      O47768   0.621   3.135   3.015 -0.1953 -0.0426 -0.6909
11491WAT     H147769   0.545   3.078   3.011 -0.8195  0.7789 -0.8472
11491WAT     H247770   0.640   3.157   2.924 -2.1878  2.8157 -0.5596
11491WAT    EPW47771   0.614   3.131   3.003 -0.5405  0.4427 -0.6943
11492WAT      O47772  -4.303   5.610   7.926 -0.0423 -0.2633 -0.7522
11492WAT     H147773  -4.364   5.617   7.999  1.2427  1.0583  0.2459
11492WAT     H247774  -4.297   5.699   7.891  0.4213 -0.6103 -1.5987
11492WAT    EPW47775  -4.310   5.623   7.931  0.1884 -0.1349 -0.7324
11493WAT      O47776   5.296   4.362   4.319  0.0496 -0.6429 -0.1970
11493WAT     H147777   5.359   4.433   4.314  1.8256 -1.9553  1.6731
11493WAT     H247778   5.265   4.364   4.410  0.6132 -2.5727  0.0903
11493WAT    EPW47779   5.300   4.372   4.331  0.3583 -1.0705  0.0875
11494WAT      O47780  -0.914   2.394   0.371 -0.2388 -0.8010 -0.0783
11494WAT     H147781  -0.931   2.352   0.287  0.9123 -1.1899 -0.1254
11494WAT     H247782  -0.865   2.329   0.422 -1.5544 -0.8748  1.2049
11494WAT    EPW47783  -0.910   2.380   0.367 -0.2605 -0.8620  0.0847
11495WAT      O47784   0.305   7.434   0.487 -0.8981  0.3490 -0.0186
11495WAT     H147785   0.383   7.386   0.514 -0.9273  0.0764 -0.4141
11495WAT     H247786   0.246   7.368   0.452 -1.8945  0.3407  1.5371
11495WAT    EPW47787   0.308   7.419   0.486 -1.0334  0.3119  0.1344
11496WAT      O47788   3.892   0.194   3.154  0.2072 -0.0303  0.5598
11496WAT     H147789   3.816   0.243   3.184 -0.4030 -0.4084 -0.2841
11496WAT     H247790   3.962   0.217   3.214 -0.5788  0.3329  1.3573
11496WAT    EPW47791   3.891   0.203   3.166  0.0230 -0.0323  0.5537
11497WAT      O47792   5.173   3.914   3.221 -0.7112 -0.3681 -0.2729
11497WAT     H147793   5.121   3.984   3.182 -1.3759 -1.2067 -0.9513
11497WAT     H247794   5.144   3.835   3.175  0.8690 -0.9188 -0.3692
11497WAT    EPW47795   5.162   3.913   3.210 -0.5903 -0.5513 -0.3752
11498WAT      O47796   3.192   0.958   8.222 -0.2042  0.6999 -0.2330
11498WAT     H147797   3.191   0.964   8.317 -0.8804 -0.7052 -0.1271
11498WAT     H247798   3.241   0.878   8.203  1.1397  1.6855 -1.1412
11498WAT    EPW47799   3.198   0.948   8.232 -0.1161  0.6446 -0.3390
11499WAT      O47800   0.709   8.251   8.865 -0.5877 -0.7383  0.2064
11499WAT     H147801   0.625   8.274   8.827  0.9197  4.2340 -0.8185
11499WAT     H247802   0.774   8.279   8.800  1.9028 -0.6748  2.5142
11499WAT    EPW47803   0.707   8.258   8.852 -0.0604 -0.0744  0.3757
11500WAT      O47804  -5.043   9.922   3.455  0.3626 -0.0342  0.2316
11500WAT     H147805  -5.018  10.013   3.471  2.2296 -0.2568 -0.9996
11500WAT     H247806  -5.002   9.873   3.526  1.1894 -0.1038 -0.2734
11500WAT    EPW47807  -5.034   9.928   3.466  0.7179 -0.0730  0.0026
11501WAT      O47808  -3.141   6.991   2.080 -0.3181 -0.1764  0.1740
11501WAT     H147809  -3.204   7.053   2.043 -1.4777 -0.8308  0.9851
11501WAT     H247810  -3.083   7.045   2.133 -0.2773  0.4135 -0.4494
11501WAT    EPW47811  -3.142   7.006   2.082 -0.4656 -0.1850  0.1987
11502WAT      O47812   0.071   7.765   2.387  0.3671  0.3087  0.0739
11502WAT     H147813  -0.001   7.768   2.324 -1.3436 -0.5645  1.8377
11502WAT     H247814   0.054   7.838   2.446  2.2454  1.4470 -0.7215
11502WAT    EPW47815   0.059   7.775   2.387  0.3892  0.3438  0.2016
11503WAT      O47816   6.143   4.471   0.011  0.0150  0.2207  0.4516
11503WAT     H147817   6.197   4.550   0.015 -0.3171  0.5306 -0.6371
11503WAT     H247818   6.054   4.502   0.027  0.1339 -0.2904  2.2473
11503WAT    EPW47819   6.139   4.485   0.013 -0.0131  0.1941  0.5445
11504WAT      O47820  -7.898   8.823   8.911 -0.0116 -0.0989  0.6805
11504WAT     H147821  -7.901   8.729   8.927  1.6625 -0.1612  0.7639
11504WAT     H247822  -7.990   8.851   8.918 -1.2398 -2.3302 -3.3671
11504WAT    EPW47823  -7.911   8.814   8.914  0.0474 -0.4010  0.1574
11505WAT      O47824   5.541   1.198   5.579 -0.2715  0.3940  0.0250
11505WAT     H147825   5.532   1.104   5.595  1.3114  0.2533  0.1741
11505WAT     H247826   5.622   1.206   5.529 -0.7254  1.6348 -0.5469
11505WAT    EPW47827   5.550   1.187   5.575 -0.1225  0.5391 -0.0308
11506WAT      O47828   1.261   1.355   4.269 -0.0984 -0.7711 -0.8990
11506WAT     H147829   1.233   1.303   4.344 -1.2464 -3.0453 -2.7873
11506WAT     H247830   1.187   1.412   4.250 -2.0657 -3.8115 -3.2901
11506WAT    EPW47831   1.248   1.356   4.276 -0.5093 -1.4721 -1.4634
11507WAT      O47832   3.646   0.593   1.565  0.4129 -0.2075 -0.6067
11507WAT     H147833   3.571   0.538   1.543  0.9159 -0.9010 -0.6392
11507WAT     H247834   3.613   0.683   1.559 -0.2217 -0.4793 -1.3114
11507WAT    EPW47835   3.632   0.598   1.561  0.3955 -0.3348 -0.7040
11508WAT      O47836  -1.074   4.142   5.742 -0.3503  0.3743 -0.0528
11508WAT     H147837  -1.029   4.074   5.692  0.7487  0.5403  0.6696
11508WAT     H247838  -1.113   4.096   5.816 -3.2279 -0.1183 -1.7173
11508WAT    EPW47839  -1.073   4.127   5.745 -0.5849  0.3312 -0.1771
11509WAT      O47840   0.112   7.317   3.716 -0.6929 -0.1580  0.5833
11509WAT     H147841   0.062   7.285   3.791  0.2837  1.2652  1.8867
11509WAT     H247842   0.056   7.384   3.677 -0.8629 -0.3436  0.5041
11509WAT    EPW47843   0.098   7.322   3.721 -0.5865  0.0050  0.7447
11510WAT      O47844   4.135   4.703   5.173 -0.1019  0.3896 -0.6901
11510WAT     H147845   4.145   4.614   5.207  1.0571  0.5171 -0.6646
11510WAT     H247846   4.092   4.750   5.244 -0.1160  0.0158 -0.4463
11510WAT    EPW47847   4.131   4.697   5.187  0.0491  0.3572 -0.6545
11511WAT      O47848  -2.244  10.020   7.777  0.0230  0.3653 -0.0281
11511WAT     H147849  -2.209   9.981   7.697 -1.7708  1.9060 -1.6570
11511WAT     H247850  -2.190   9.983   7.847  0.9657 -1.8849 -1.8100
11511WAT    EPW47851  -2.233  10.010   7.775 -0.0893  0.2718 -0.4780
11512WAT      O47852   3.717   7.371   4.214  0.0647  0.1964  0.3197
11512WAT     H147853   3.670   7.451   4.189  1.6207  1.1008  0.1515
11512WAT     H247854   3.799   7.375   4.164 -0.0633 -1.8062 -0.1159
11512WAT    EPW47855   3.722   7.382   4.204  0.2531  0.0517  0.2401
11513WAT      O47856  -0.354   8.472   7.464  0.1328 -0.0891 -0.1770
11513WAT     H147857  -0.380   8.513   7.382 -1.2233  0.6143  0.5651
11513WAT     H247858  -0.322   8.386   7.438 -0.5636 -0.0044 -1.4215
11513WAT    EPW47859  -0.353   8.466   7.450 -0.1379  0.0148 -0.2434
11514WAT      O47860   2.135   5.704   2.871  0.3432 -0.1251  0.7783
11514WAT     H147861   2.162   5.792   2.896 -1.0028  0.8416 -0.8965
11514WAT     H247862   2.217   5.658   2.850  1.0716  0.6407  1.8678
11514WAT    EPW47863   2.149   5.709   2.871  0.2618  0.1035  0.7012
11515WAT      O47864  -0.942   6.004   5.203 -0.8368 -0.1761 -0.2682
11515WAT     H147865  -0.873   5.939   5.189 -1.8274 -0.8946 -2.2610
11515WAT     H247866  -0.920   6.076   5.144 -0.5133  0.7209  0.8971
11515WAT    EPW47867  -0.930   6.005   5.194 -0.9248 -0.1526 -0.3772
11516WAT      O47868   7.688   7.258   0.626 -0.3283  0.2482  0.0447
11516WAT     H147869   7.635   7.278   0.703  0.5881 -1.7609  1.2783
11516WAT     H247870   7.629   7.206   0.570 -0.5556  0.5260  0.0212
11516WAT    EPW47871   7.673   7.254   0.629 -0.2375  0.0198  0.2043
11517WAT      O47872   4.788   5.986   5.059  0.5491  0.1354 -0.0108
11517WAT     H147873   4.710   6.038   5.079  1.0052  0.3694  1.2242
11517WAT     H247874   4.761   5.895   5.077  0.3019  0.1232 -0.4305
11517WAT    EPW47875   4.774   5.981   5.064  0.5767  0.1645  0.0968
11518WAT      O47876  -1.498   4.836   8.466 -0.4756  0.6124 -0.6309
11518WAT     H147877  -1.526   4.761   8.518  1.0863 -0.9881 -1.9855
11518WAT     H247878  -1.545   4.911   8.505  1.6519 -0.1514  4.0488
11518WAT    EPW47879  -1.508   4.836   8.478  0.0110  0.3004 -0.1922
11519WAT      O47880  -2.651   9.202   0.032 -0.0443 -0.5161 -0.1837
11519WAT     H147881  -2.744   9.181   0.035 -0.0850 -0.1869  1.2068
11519WAT     H247882  -2.616   9.141  -0.033 -1.2155 -0.6382 -0.7322
11519WAT    EPW47883  -2.659   9.191   0.024 -0.2042 -0.4888 -0.0726
11520WAT      O47884   5.050   7.165   2.454 -0.8152 -0.0840 -0.0004
11520WAT     H147885   5.073   7.244   2.503 -2.6340  1.2997 -1.2390
11520WAT     H247886   5.014   7.106   2.520  3.1844 -1.2060  1.4844
11520WAT    EPW47887   5.048   7.167   2.469 -0.5274 -0.0496  0.0321
11521WAT      O47888   0.135   3.865   0.361  0.3980 -0.7027  0.1104
11521WAT     H147889   0.226   3.885   0.386  0.3883 -0.6969  0.1420
11521WAT     H247890   0.090   3.852   0.445  0.0750  0.5819  0.1608
11521WAT    EPW47891   0.141   3.866   0.376  0.3541 -0.5326  0.1212
11522WAT      O47892   0.716   2.838   8.267 -0.0391 -0.5210  0.3816
11522WAT     H147893   0.646   2.841   8.202  0.6423  0.4375 -0.3326
11522WAT     H247894   0.792   2.876   8.223  0.0536  1.5895  2.1959
11522WAT    EPW47895   0.717   2.844   8.253  0.0630 -0.1162  0.5269
11523WAT      O47896   0.979   7.402   5.502  0.2788  0.2581 -0.3202
11523WAT     H147897   1.059   7.453   5.512  0.8867 -0.6584 -0.3265
11523WAT     H247898   1.008   7.311   5.512  0.0146 -0.4688 -4.4732
11523WAT    EPW47899   0.994   7.396   5.505  0.3241  0.0415 -0.8688
11524WAT      O47900  -1.558   9.962   4.017  0.5128 -0.4241  0.0224
11524WAT     H147901  -1.605   9.879   4.025 -0.8167  0.2997 -0.0255
11524WAT     H247902  -1.468   9.941   4.041 -0.4718 -1.1696  3.5715
11524WAT    EPW47903  -1.552   9.948   4.021  0.2075 -0.4272  0.4842
11525WAT      O47904   4.205   1.156   0.162 -0.0867  0.3094 -0.2262
11525WAT     H147905   4.231   1.146   0.071  1.3633  1.7656 -0.0296
11525WAT     H247906   4.110   1.154   0.161 -0.1037  0.7326 -1.8404
11525WAT    EPW47907   4.196   1.155   0.150  0.1025  0.5573 -0.4132
11526WAT      O47908   6.965   3.681   0.206 -0.4152  0.5944  0.5863
11526WAT     H147909   7.036   3.712   0.262 -0.4794  1.0120  0.4398
11526WAT     H247910   6.892   3.740   0.225  0.2829  2.4176 -1.7327
11526WAT    EPW47911   6.965   3.693   0.216 -0.3316  0.8900  0.2611
11527WAT      O47912  -5.135   9.044   7.775  0.2004 -0.2857  0.0388
11527WAT     H147913  -5.046   9.038   7.742  0.9030  0.3743  1.6781
11527WAT     H247914  -5.190   9.023   7.700  1.6724  0.8823 -1.4511
11527WAT    EPW47915  -5.131   9.041   7.761  0.4873 -0.0443  0.0587
11528WAT      O47916   0.074   5.898   4.685 -0.4258  0.0552 -0.1879
11528WAT     H147917   0.025   5.977   4.662 -1.3957  0.3313  2.4183
11528WAT     H247918   0.062   5.840   4.610 -2.3407  1.2224 -0.8708
11528WAT    EPW47919   0.066   5.901   4.672 -0.8063  0.2453  0.0658
11529WAT      O47920   5.022   8.794   3.092 -0.1558  0.5230 -0.5212
11529WAT     H147921   4.997   8.748   3.012 -2.5148 -1.0012  0.9815
11529WAT     H247922   5.099   8.747   3.124 -2.2417 -2.3258  0.7371
11529WAT    EPW47923   5.029   8.782   3.085 -0.7420 -0.0539 -0.1570
11530WAT      O47924   0.848   1.357   5.053  0.6819  0.4123  0.7143
11530WAT     H147925   0.853   1.263   5.036 -2.4432  0.2966 -0.0493
11530WAT     H247926   0.873   1.397   4.969  0.5082  0.2182  0.5665
11530WAT    EPW47927   0.852   1.350   5.039  0.2468  0.3715  0.5941
11531WAT      O47928  -1.576   9.256   3.496  0.2413 -0.6094 -0.4682
11531WAT     H147929  -1.490   9.235   3.460  0.2145 -1.0465 -0.2843
11531WAT     H247930  -1.558   9.278   3.588  0.1512 -0.7277 -0.4234
11531WAT    EPW47931  -1.562   9.256   3.503  0.2258 -0.6828 -0.4381
11532WAT      O47932  -1.033   5.310   7.164 -0.5112  0.8426 -0.4670
11532WAT     H147933  -1.080   5.276   7.087  1.0444  2.1706 -2.0923
11532WAT     H247934  -1.089   5.379   7.199 -0.7040  1.0430 -1.1582
11532WAT    EPW47935  -1.047   5.314   7.158 -0.3315  1.0443 -0.7725
11533WAT      O47936   1.873   1.691   8.307  0.7782 -0.0169  0.4732
11533WAT     H147937   1.954   1.724   8.344  0.3202  0.5077  1.0350
11533WAT     H247938   1.806   1.714   8.371  0.1218 -0.0287 -0.1920
11533WAT    EPW47939   1.875   1.699   8.320  0.6313  0.0508  0.4592
11534WAT      O47940   5.522   3.390   4.376 -0.3740  0.6288 -0.4399
11534WAT     H147941   5.433   3.419   4.357 -1.6839 -2.0367  1.0286
11534WAT     H247942   5.534   3.312   4.322  0.9306  0.7270 -0.3292
11534WAT    EPW47943   5.512   3.384   4.367 -0.3748  0.2903 -0.2315
11535WAT      O47944   1.729   8.229   3.265  0.4828 -0.1543 -0.3006
11535WAT     H147945   1.695   8.305   3.218  0.6395 -0.3238 -0.6926
11535WAT     H247946   1.801   8.198   3.211  0.8718 -0.1595  0.2222
11535WAT    EPW47947   1.734   8.235   3.252  0.5547 -0.1774 -0.2834
11536WAT      O47948  -5.337   8.762   4.107  0.0316 -0.3180 -0.0520
11536WAT     H147949  -5.375   8.687   4.062  0.1864  0.2013 -1.0845
11536WAT     H247950  -5.383   8.765   4.191 -3.3075  1.0719 -1.7249
11536WAT    EPW47951  -5.348   8.753   4.112 -0.3881 -0.0663 -0.4089
11537WAT      O47952   4.914   3.243   2.439  0.5947 -0.3175 -0.1900
11537WAT     H147953   4.847   3.285   2.385 -2.2491  0.1221  3.3736
11537WAT     H247954   4.974   3.314   2.462 -0.9043  0.6159  1.0364
11537WAT    EPW47955   4.913   3.258   2.435  0.0219 -0.1364  0.4418
11538WAT      O47956  -2.506   4.490   1.800 -0.7245 -0.0775  0.4336
11538WAT     H147957  -2.529   4.445   1.882 -1.3413  0.7595  0.7378
11538WAT     H247958  -2.584   4.479   1.745 -0.5222 -0.1737  0.1679
11538WAT    EPW47959  -2.520   4.483   1.804 -0.7793  0.0203  0.4386
11539WAT      O47960  -3.037   1.039   6.292 -0.5462  0.2322 -0.1343
11539WAT     H147961  -2.973   1.105   6.265 -0.7611  0.1318 -0.9170
11539WAT     H247962  -3.022   0.965   6.233 -0.5494 -0.2815  0.4976
11539WAT    EPW47963  -3.027   1.038   6.281 -0.5749  0.1512 -0.1543
11540WAT      O47964   0.807   2.886   4.241  0.4318  1.6072 -0.3906
11540WAT     H147965   0.883   2.907   4.296 -1.0797  2.4939  1.4660
11540WAT     H247966   0.756   2.967   4.239 -1.6481  0.3991  0.4284
11540WAT    EPW47967   0.810   2.899   4.248 -0.0419  1.5649 -0.0377
11541WAT      O47968  -0.063   4.371   0.074  0.7404 -0.1055 -0.2433
11541WAT     H147969  -0.065   4.403  -0.016 -1.5606  3.1107  0.7598
11541WAT     H247970   0.027   4.386   0.103  0.8401  1.3375 -1.2275
11541WAT    EPW47971  -0.052   4.377   0.066  0.4501  0.5090 -0.2408
11542WAT      O47972  -0.506   0.861   8.097  0.8751  0.6698  0.6931
11542WAT     H147973  -0.589   0.906   8.107  0.6103  0.2808  0.2861
11542WAT     H247974  -0.441   0.931   8.097  0.5299  0.9931  0.7765
11542WAT    EPW47975  -0.508   0.876   8.098  0.7946  0.6611  0.6509
11543WAT      O47976   3.469   1.048   0.362 -0.3923 -0.2105 -0.3690
11543WAT     H147977   3.448   0.996   0.440 -1.0833  0.4740 -0.0879
11543WAT     H247978   3.397   1.110   0.355 -0.0357  0.1149 -1.2282
11543WAT    EPW47979   3.456   1.049   0.372 -0.4364 -0.0773 -0.4452
11544WAT      O47980  -1.405   1.349   6.029 -0.1830 -0.3428 -0.6266
11544WAT     H147981  -1.430   1.267   6.071  1.4263 -0.3050  0.4730
11544WAT     H247982  -1.488   1.396   6.018 -0.7577 -0.4661  2.3257
11544WAT    EPW47983  -1.420   1.344   6.033 -0.0465 -0.3541 -0.0923
11545WAT      O47984   4.639   4.245   3.048  0.2440 -0.7466 -0.2200
11545WAT     H147985   4.585   4.180   3.003 -2.4237  3.1990 -3.4415
11545WAT     H247986   4.718   4.251   2.995  1.3236 -2.3528  1.0862
11545WAT    EPW47987   4.642   4.237   3.035  0.0346 -0.4380 -0.4725
11546WAT      O47988  -0.371   1.861   6.772  0.1277  0.5075  0.2666
11546WAT     H147989  -0.437   1.841   6.706 -0.2682 -3.4522  1.5255
11546WAT     H247990  -0.295   1.808   6.747  0.4728  0.0457  2.0925
11546WAT    EPW47991  -0.370   1.851   6.760  0.1210 -0.0756  0.6735
11547WAT      O47992  -3.586   7.347   4.972 -0.4960  0.1560 -0.0459
11547WAT     H147993  -3.629   7.430   4.949 -1.1356 -0.4235 -1.0172
11547WAT     H247994  -3.512   7.373   5.026  1.0655  1.6382 -2.7042
11547WAT    EPW47995  -3.582   7.362   4.976 -0.3744  0.2751 -0.5245
11548WAT      O47996   3.178   8.326   7.811  0.1236 -0.1832 -0.0964
11548WAT     H147997   3.182   8.297   7.902  1.6391  0.5453  0.1004
11548WAT     H247998   3.151   8.249   7.762 -0.9961 -0.5064  0.9947
11548WAT    EPW47999   3.175   8.312   7.817  0.1757 -0.1292  0.0732
11549WAT      O48000  -7.461   6.049   8.784  0.1095 -0.0659  0.2520
11549WAT     H148001  -7.552   6.078   8.780  0.0495 -0.1388  1.0813
11549WAT     H248002  -7.459   5.982   8.851  0.4753 -1.2180 -0.8737
11549WAT    EPW48003  -7.472   6.044   8.792  0.1497 -0.2275  0.2127
11550WAT      O48004   6.352   3.554   0.165  1.0391 -0.7153 -0.0414
11550WAT     H148005   6.416   3.565   0.235  2.7773 -1.2365 -1.4808
11550WAT     H248006   6.292   3.628   0.176  1.7004 -0.3659  1.5108
11550WAT    EPW48007   6.353   3.565   0.176  1.3556 -0.7379 -0.0265
11551WAT      O48008  -3.000   0.446   7.893  0.6111  0.1491 -0.3174
11551WAT     H148009  -3.042   0.529   7.873 -2.5983 -1.1027  0.5782
11551WAT     H248010  -3.008   0.394   7.813  3.2808  0.8148 -1.1340
11551WAT    EPW48011  -3.006   0.450   7.880  0.5399  0.0718 -0.3068
11552WAT      O48012  -3.600   8.813   8.660 -0.4989  0.5015 -0.4801
11552WAT     H148013  -3.575   8.903   8.682 -0.4625  0.0152  1.7549
11552WAT     H248014  -3.519   8.764   8.665 -0.9244 -0.1021  1.1452
11552WAT    EPW48015  -3.586   8.819   8.664 -0.5503  0.3572  0.0296
11553WAT      O48016  -0.277   4.941   2.887  0.8029 -0.2600  0.6023
11553WAT     H148017  -0.275   4.854   2.928  1.7005 -0.8072 -0.5654
11553WAT     H248018  -0.368   4.969   2.895  0.0786 -2.1249 -0.6694
11553WAT    EPW48019  -0.289   4.933   2.894  0.8258 -0.5779  0.2806
11554WAT      O48020   9.462   0.519   0.353 -0.2272  0.0943  0.2063
11554WAT     H148021   9.504   0.435   0.336 -0.1119  0.4053 -1.2548
11554WAT     H248022   9.533   0.578   0.379 -0.6346 -0.8196  3.8080
11554WAT    EPW48023   9.477   0.516   0.354 -0.2656  0.0148  0.4887
11555WAT      O48024   6.361   1.383   6.254  0.9046  0.2328 -0.7735
11555WAT     H148025   6.444   1.392   6.302  0.1901  1.3572  0.3154
11555WAT     H248026   6.366   1.297   6.212  1.0448 -1.4275  2.3598
11555WAT    EPW48027   6.373   1.373   6.255  0.8290  0.1621 -0.2165
11556WAT      O48028   1.861   5.559   6.966  0.3541 -0.3100 -0.0545
11556WAT     H148029   1.855   5.477   6.917  1.1275  0.3508 -1.3041
11556WAT     H248030   1.835   5.536   7.055 -1.5539 -1.4675 -0.8448
11556WAT    EPW48031   1.857   5.545   6.971  0.2045 -0.3755 -0.3235
11557WAT      O48032   4.011   3.875   8.671 -0.3544 -0.5234  0.1347
11557WAT     H148033   4.074   3.868   8.598 -0.5707  0.1951 -0.1249
11557WAT     H248034   4.051   3.824   8.741 -0.0968 -1.1514 -0.4540
11557WAT    EPW48035   4.025   3.867   8.671 -0.3488 -0.5114  0.0229
11558WAT      O48036  -1.275   5.480   3.882  0.2286  0.4165 -0.2432
11558WAT     H148037  -1.297   5.524   3.964  1.4568  1.2021 -0.3102
11558WAT     H248038  -1.319   5.531   3.814 -2.0996 -1.1449 -0.0032
11558WAT    EPW48039  -1.284   5.492   3.884  0.0835  0.3142 -0.2203
11559WAT      O48040   3.953   5.228   1.387 -0.1939  0.2552 -0.1949
11559WAT     H148041   3.989   5.278   1.313  1.3337 -2.1333 -1.2118
11559WAT     H248042   4.016   5.241   1.458  0.7167 -0.8756 -0.7567
11559WAT    EPW48043   3.966   5.236   1.386  0.1278 -0.2091 -0.4031
11560WAT      O48044   4.690   4.143   5.461  0.4429 -0.2179  0.3051
11560WAT     H148045   4.644   4.109   5.538  1.7227  1.3834  1.8838
11560WAT     H248046   4.751   4.073   5.437 -0.8565 -1.2540 -0.1065
11560WAT    EPW48047   4.692   4.129   5.468  0.4404 -0.1433  0.4592
11561WAT      O48048  -3.221   5.955   6.355  0.1156 -0.2505  0.0872
11561WAT     H148049  -3.166   5.947   6.433 -1.3819  0.7599  1.2979
11561WAT     H248050  -3.310   5.952   6.388 -0.5611  0.8090 -1.5281
11561WAT    EPW48051  -3.225   5.953   6.370 -0.1711  0.0224  0.0339
11562WAT      O48052   4.301   6.455   5.097 -0.1741 -0.4023  0.4493
11562WAT     H148053   4.298   6.443   5.003  1.4717 -2.4203  0.5966
11562WAT     H248054   4.227   6.404   5.130 -2.0662  2.0021  0.2076
11562WAT    EPW48055   4.290   6.447   5.089 -0.2065 -0.3514  0.4370
11563WAT      O48056   6.684   1.814   5.359 -0.0467  0.7090 -0.1526
11563WAT     H148057   6.720   1.901   5.341 -2.1575  1.2028 -2.7076
11563WAT     H248058   6.740   1.778   5.427  0.9661  4.0346  0.9876
11563WAT    EPW48059   6.696   1.821   5.365 -0.1917  1.2128 -0.3390
11564WAT      O48060   0.366   5.680   5.637  0.0672  0.2549 -0.7413
11564WAT     H148061   0.333   5.625   5.708 -0.1880 -0.6715 -1.5559
11564WAT     H248062   0.413   5.750   5.682  0.8284 -0.8788  0.3227
11564WAT    EPW48063   0.368   5.682   5.653  0.1339 -0.0169 -0.7083
11565WAT      O48064  -1.453   7.368   4.716  0.1545  0.0210 -0.5062
11565WAT     H148065  -1.504   7.288   4.706  0.7334 -0.3375 -0.5832
11565WAT     H248066  -1.430   7.371   4.809  3.4454 -1.9617 -1.1107
11565WAT    EPW48067  -1.457   7.358   4.727  0.6649 -0.2878 -0.5963
11566WAT      O48068   4.591   4.668   1.980  0.3003  0.2509 -0.4302
11566WAT     H148069   4.645   4.746   1.989 -0.7489  1.2892 -2.4291
11566WAT     H248070   4.648   4.604   1.938  0.7848  0.3434  0.0701
11566WAT    EPW48071   4.605   4.669   1.976  0.2258  0.3998 -0.6278
11567WAT      O48072  -1.383   8.435   6.828  0.0027  0.2401 -0.6153
11567WAT     H148073  -1.360   8.515   6.875  1.9331  0.4755 -1.8200
11567WAT     H248074  -1.300   8.388   6.820 -0.6780 -0.8191 -1.8550
11567WAT    EPW48075  -1.369   8.439   6.833  0.1674  0.1316 -0.9379
11568WAT      O48076   5.015   3.445   5.018 -0.5932 -0.0432 -0.0486
11568WAT     H148077   4.971   3.445   5.103 -1.5014  1.6759 -0.4825
11568WAT     H248078   4.954   3.400   4.960 -0.8274  0.4629 -0.1955
11568WAT    EPW48079   5.001   3.439   5.022 -0.7436  0.2502 -0.1254
11569WAT      O48080   0.399   8.655   6.244  0.7342  0.2522  0.4653
11569WAT     H148081   0.400   8.641   6.339  2.5881  0.7012  0.5501
11569WAT     H248082   0.403   8.567   6.207 -1.7726 -0.0499  0.7128
11569WAT    EPW48083   0.400   8.642   6.252  0.6481  0.2718  0.5090
11570WAT      O48084   0.002   2.192   3.762  0.0502 -0.1399  0.2081
11570WAT     H148085   0.026   2.267   3.815 -1.4955  0.2001  0.4696
11570WAT     H248086   0.006   2.117   3.821  1.3024 -0.2299  0.0209
11570WAT    EPW48087   0.005   2.192   3.777  0.0115 -0.1069  0.2179
11571WAT      O48088   2.987   9.642   6.418 -0.6429  0.5554  0.4239
11571WAT     H148089   3.057   9.702   6.392  1.1840 -1.9237 -0.9093
11571WAT     H248090   3.022   9.597   6.495  0.2951 -2.0915 -1.3725
11571WAT    EPW48091   3.001   9.644   6.425 -0.2781 -0.1211  0.0110
11572WAT      O48092   3.800   4.003   4.324  0.5069  0.6443  0.3263
11572WAT     H148093   3.783   3.991   4.231  1.4701 -0.5256  0.2774
11572WAT     H248094   3.845   3.923   4.351 -0.4876  0.5873  1.9848
11572WAT    EPW48095   3.804   3.991   4.315  0.5027  0.4826  0.5386
11573WAT      O48096  -1.769   2.214   6.978 -0.1023 -0.5280  0.1298
11573WAT     H148097  -1.706   2.179   7.041 -0.0171 -0.2415  0.2057
11573WAT     H248098  -1.742   2.305   6.966 -1.6234  0.1709  1.6025
11573WAT    EPW48099  -1.757   2.222   6.985 -0.2917 -0.3980  0.3340
11574WAT      O48100   4.227   5.989   2.344 -0.1844  0.0510 -0.2018
11574WAT     H148101   4.152   5.999   2.285  1.2550  4.6141 -1.6962
11574WAT     H248102   4.268   5.907   2.317 -2.1008 -0.2802 -2.4373
11574WAT    EPW48103   4.222   5.980   2.333 -0.2472  0.6092 -0.6938
11575WAT      O48104   3.473   4.011   5.262 -0.0865 -0.0458  0.0399
11575WAT     H148105   3.455   4.070   5.189 -0.8348  0.2292  0.4292
11575WAT     H248106   3.396   4.019   5.318 -0.1963 -1.4050  0.1024
11575WAT    EPW48107   3.460   4.020   5.260 -0.1997 -0.1888  0.0997
11576WAT      O48108   7.827   0.757   4.252 -0.2489  0.8432 -0.1739
11576WAT     H148109   7.735   0.778   4.272  0.1692 -0.2328  3.7622
11576WAT     H248110   7.826   0.663   4.234  0.2941  0.2201  2.6300
11576WAT    EPW48111   7.815   0.748   4.252 -0.1223  0.6191  0.7150
11577WAT      O48112   6.696   3.213   3.755 -0.2714  0.3703 -0.7815
11577WAT     H148113   6.738   3.194   3.839  1.0554  0.3601 -1.4301
11577WAT     H248114   6.677   3.307   3.759  0.9801  0.6540 -0.9617
11577WAT    EPW48115   6.699   3.223   3.766  0.0689  0.4064 -0.8909
11578WAT      O48116   6.383   2.787   0.869 -0.8708  0.2853 -0.4451
11578WAT     H148117   6.469   2.797   0.829 -0.6906  0.7262  0.0516
11578WAT     H248118   6.344   2.713   0.822 -1.1229  1.4900 -2.2283
11578WAT    EPW48119   6.389   2.778   0.858 -0.8800  0.5023 -0.6148
11579WAT      O48120  -0.248   6.453   1.287 -0.2061 -0.0541  0.3084
11579WAT     H148121  -0.254   6.470   1.193  0.0373 -0.9463  0.1182
11579WAT     H248122  -0.272   6.361   1.296  0.7357 -0.2464  1.0093
11579WAT    EPW48123  -0.252   6.443   1.276 -0.0498 -0.1972  0.3757
11580WAT      O48124   1.975   6.480   1.085 -0.2204 -0.6305 -0.0582
11580WAT     H148125   2.067   6.468   1.108 -0.2510  0.1008  0.4815
11580WAT     H248126   1.942   6.543   1.150 -1.7738 -2.8159  1.4131
11580WAT    EPW48127   1.982   6.487   1.097 -0.4293 -0.8223  0.2071
11581WAT      O48128   3.956   1.773   2.984 -0.2060 -0.2298  0.4559
11581WAT     H148129   4.047   1.788   2.962 -0.5144  0.5632 -0.3211
11581WAT     H248130   3.913   1.858   2.971 -0.5002  0.2972  3.8216
11581WAT    EPW48131   3.962   1.786   2.980 -0.2854 -0.0557  0.7974
11582WAT      O48132   3.986   7.322   2.601 -0.3686  0.0965 -0.5745
11582WAT     H148133   3.910   7.377   2.621 -0.4085  0.3783 -1.4440
11582WAT     H248134   3.995   7.327   2.506  2.7309  2.7905 -0.3223
11582WAT    EPW48135   3.977   7.330   2.591  0.0349  0.4890 -0.6559
11583WAT      O48136   0.779   8.869   0.083 -0.2632  0.4728  0.3460
11583WAT     H148137   0.805   8.824   0.003  1.2687 -0.5801  1.3846
11583WAT     H248138   0.684   8.859   0.087 -0.2009 -0.7031 -0.6114
11583WAT    EPW48139   0.770   8.862   0.073 -0.0529  0.1788  0.3567
11584WAT      O48140  -0.091  10.267   0.601 -0.4501 -0.8925  0.5972
11584WAT     H148141  -0.173  10.314   0.612  0.2602  0.4080  0.4959
11584WAT     H248142  -0.025  10.335   0.592  0.5964 -1.9107  0.2754
11584WAT    EPW48143  -0.093  10.282   0.601 -0.2184 -0.8554  0.5414
11585WAT      O48144   4.589   9.836   4.768 -0.2017  0.5007 -0.5331
11585WAT     H148145   4.535   9.823   4.847  0.2557  0.3710 -0.2384
11585WAT     H248146   4.544   9.906   4.721  0.3999  1.7614  0.6706
11585WAT    EPW48147   4.576   9.844   4.772 -0.0620  0.6495 -0.3355
11586WAT      O48148  -0.813   9.357   1.873  0.5263  0.0760 -0.4345
11586WAT     H148149  -0.761   9.415   1.817 -1.3312  0.4084 -1.8884
11586WAT     H248150  -0.800   9.270   1.835 -0.0433  0.1745 -0.8626
11586WAT    EPW48151  -0.804   9.353   1.861  0.2062  0.1330 -0.6827
11587WAT      O48152  -4.924   2.028   8.299 -0.3931  0.6666 -0.4345
11587WAT     H148153  -4.966   2.102   8.343 -1.6092 -0.5840  0.5961
11587WAT     H248154  -4.831   2.038   8.319 -0.4364  2.3601 -1.0120
11587WAT    EPW48155  -4.917   2.039   8.308 -0.5593  0.7250 -0.3743
11588WAT      O48156  -1.794   4.894   4.505 -0.9028  0.3995  0.2690
11588WAT     H148157  -1.822   4.896   4.413 -0.0962 -2.1276 -0.0947
11588WAT     H248158  -1.874   4.909   4.555 -2.1516 -2.0668 -0.8204
11588WAT    EPW48159  -1.808   4.896   4.499 -0.9612 -0.2589  0.0775
11589WAT      O48160   7.551   4.600   1.928 -1.2104  0.7123  0.4374
11589WAT     H148161   7.582   4.678   1.976  1.4802 -0.8009  1.3917
11589WAT     H248162   7.621   4.582   1.866 -1.4804 -1.2619  0.6426
11589WAT    EPW48163   7.564   4.608   1.926 -0.8912  0.2522  0.5903
11590WAT      O48164  -0.631   7.002   7.304 -0.6218 -0.3944 -0.3424
11590WAT     H148165  -0.645   7.091   7.337 -0.1617  0.0892 -1.4165
11590WAT     H248166  -0.719   6.967   7.293 -0.7999 -0.4849  1.1198
11590WAT    EPW48167  -0.644   7.009   7.307 -0.5846 -0.3426 -0.2913
11591WAT      O48168   7.065   5.748   2.269  0.2182  0.0235  0.2432
11591WAT     H148169   7.158   5.723   2.263  0.2012  0.1244 -0.5558
11591WAT     H248170   7.026   5.712   2.190 -0.1003  1.3319 -0.2238
11591WAT    EPW48171   7.072   5.740   2.258  0.1738  0.2093  0.0763
11592WAT      O48172   6.067   8.312   2.381  0.2534 -0.3894  0.7244
11592WAT     H148173   6.117   8.388   2.412  0.8957 -0.8074  0.7418
11592WAT     H248174   6.131   8.259   2.335 -0.4358 -0.3874 -0.2550
11592WAT    EPW48175   6.082   8.315   2.379  0.2472 -0.4444  0.5974
11593WAT      O48176   3.626   1.787   3.678  0.0403  0.3856 -0.8407
11593WAT     H148177   3.625   1.771   3.584  0.6664 -1.3313 -0.5848
11593WAT     H248178   3.718   1.774   3.704 -0.3797 -0.6481  0.2180
11593WAT    EPW48179   3.638   1.783   3.669  0.0676  0.0228 -0.6673
11594WAT      O48180   2.140   6.002   0.055  0.8822 -0.3236  0.1597
11594WAT     H148181   2.137   6.049   0.139 -0.2576 -1.0043  0.5187
11594WAT     H248182   2.215   5.943   0.064  1.8894  0.8857 -0.0232
11594WAT    EPW48183   2.150   6.000   0.068  0.8646 -0.2537  0.1829
11595WAT      O48184  -0.914   2.291   8.183  0.3089 -0.3165  0.6175
11595WAT     H148185  -0.864   2.373   8.177 -1.0665  0.4897 -0.2221
11595WAT     H248186  -1.003   2.316   8.160 -0.1643 -2.0366  0.4978
11595WAT    EPW48187  -0.919   2.305   8.179  0.0651 -0.4370  0.4911
11596WAT      O48188  -1.489   8.429   1.541 -0.6141  0.8358 -0.2337
11596WAT     H148189  -1.414   8.428   1.601  0.1497  3.5028 -1.0266
11596WAT     H248190  -1.539   8.506   1.568 -2.6081 -0.3654 -0.3447
11596WAT    EPW48191  -1.486   8.439   1.553 -0.7764  1.0295 -0.3529
11597WAT      O48192   2.934   5.274   0.265 -0.5182 -0.3899  1.5802
11597WAT     H148193   2.948   5.367   0.250  1.1076 -0.6256  1.4049
11597WAT     H248194   2.938   5.234   0.178  1.0680 -0.8553  1.8337
11597WAT    EPW48195   2.937   5.281   0.252 -0.0944 -0.4826  1.5905
11598WAT      O48196   2.534   3.609   5.872  0.3309 -0.1808 -0.8711
11598WAT     H148197   2.504   3.622   5.782  0.0304  2.1412 -0.5149
11598WAT     H248198   2.559   3.697   5.901 -1.6882 -0.4532  2.0551
11598WAT    EPW48199   2.534   3.623   5.864  0.0249  0.0895 -0.4382
11599WAT      O48200  -6.716   9.052   6.136 -0.8944  0.7514 -0.7919
11599WAT     H148201  -6.794   8.995   6.135  0.3560 -1.0892 -0.0403
11599WAT     H248202  -6.690   9.054   6.228 -0.7406  2.3905 -0.8471
11599WAT    EPW48203  -6.723   9.044   6.148 -0.7093  0.7253 -0.7000
11600WAT      O48204  -3.741   9.118   1.539 -0.2026  0.1017  0.3438
11600WAT     H148205  -3.823   9.147   1.499 -1.4449 -1.1147  1.8987
11600WAT     H248206  -3.687   9.197   1.543 -2.7397  1.8969  2.7325
11600WAT    EPW48207  -3.744   9.133   1.534 -0.7011  0.1783  0.8639
11601WAT      O48208  -1.161   1.972   5.634 -0.0979  0.3705 -0.0125
11601WAT     H148209  -1.126   1.942   5.718  0.2830 -1.5182 -0.7901
11601WAT     H248210  -1.107   2.048   5.611  0.7972 -0.0168  0.7394
11601WAT    EPW48211  -1.149   1.978   5.642  0.0704  0.0703 -0.0160
11602WAT      O48212   5.241   0.199   6.774  0.7780  0.3291 -0.1224
11602WAT     H148213   5.239   0.241   6.688  1.7376  2.9242  1.0258
11602WAT     H248214   5.153   0.209   6.808  0.2283 -1.2430 -0.9780
11602WAT    EPW48215   5.229   0.206   6.767  0.8318  0.4640 -0.0839
11603WAT      O48216   3.614   9.191   1.227  0.6710 -0.5588 -0.7320
11603WAT     H148217   3.610   9.095   1.223 -2.1330 -0.5183 -0.7463
11603WAT     H248218   3.594   9.220   1.138 -1.2264  0.0004 -0.1721
11603WAT    EPW48219   3.611   9.182   1.215  0.0508 -0.4797 -0.6601
11604WAT      O48220  -3.780   5.296   7.193 -0.5213  1.0292  0.3452
11604WAT     H148221  -3.700   5.259   7.232 -1.0828 -1.0290 -0.3338
11604WAT     H248222  -3.759   5.303   7.100 -1.4013 -0.4617 -0.0064
11604WAT    EPW48223  -3.766   5.292   7.186 -0.7114  0.5610  0.2091
11605WAT      O48224  -0.739   0.891   5.787  0.1892 -0.3882 -0.1614
11605WAT     H148225  -0.706   0.865   5.701 -0.0360 -0.7845 -0.1289
11605WAT     H248226  -0.718   0.985   5.793 -1.3973  0.0944 -1.4024
11605WAT    EPW48227  -0.732   0.900   5.776 -0.0498 -0.3768 -0.3209
11606WAT      O48228   1.327   4.351   8.123 -0.1094  0.5186 -0.1231
11606WAT     H148229   1.380   4.388   8.052  3.4090 -2.8581  0.4318
11606WAT     H248230   1.380   4.365   8.202 -1.2272 -0.8130  0.9041
11606WAT    EPW48231   1.341   4.358   8.124  0.2072 -0.1025  0.0849
11607WAT      O48232   3.368   5.087   4.639  0.8642  0.1522 -0.3144
11607WAT     H148233   3.349   5.155   4.704 -0.9892 -0.4640 -0.1679
11607WAT     H248234   3.415   5.020   4.689 -2.4839 -1.3783  1.1053
11607WAT    EPW48235   3.372   5.087   4.654  0.1782 -0.1307 -0.1078
11608WAT      O48236   1.094   3.633   0.311 -0.3804 -0.9256 -0.2119
11608WAT     H148237   1.152   3.705   0.334 -1.5266 -0.1630  0.4277
11608WAT     H248238   1.048   3.613   0.393 -1.1592 -1.3585 -0.7432
11608WAT    EPW48239   1.095   3.640   0.325 -0.6344 -0.8820 -0.1976
11609WAT      O48240   5.974   5.442   1.430  0.7534 -0.1604  0.5463
11609WAT     H148241   6.060   5.480   1.413  1.2197  0.6230  3.8816
11609WAT     H248242   5.916   5.517   1.445 -0.7310 -0.6558 -2.0508
11609WAT    EPW48243   5.977   5.457   1.430  0.6192 -0.1225  0.6437
11610WAT      O48244  -0.227   2.900   7.700 -0.2506  0.0365 -0.1771
11610WAT     H148245  -0.236   2.928   7.791 -0.6683  0.0236 -0.2131
11610WAT     H248246  -0.134   2.913   7.680  0.4355 -2.3849  1.0471
11610WAT    EPW48247  -0.216   2.906   7.709 -0.2152 -0.2846 -0.0205
11611WAT      O48248   0.822   6.683   8.006 -0.1268  0.0196  0.8867
11611WAT     H148249   0.758   6.627   7.960 -0.9939  1.1235  0.7189
11611WAT     H248250   0.841   6.753   7.943  1.7461 -0.6175  0.6900
11611WAT    EPW48251   0.816   6.685   7.992  0.0059  0.0813  0.8385
11612WAT      O48252   3.255   9.484   5.747  0.3684  0.4695  0.5727
11612WAT     H148253   3.167   9.491   5.784  0.5260 -0.8424  1.2482
11612WAT     H248254   3.241   9.451   5.658  0.1885 -0.0483  0.7905
11612WAT    EPW48255   3.241   9.481   5.740  0.3656  0.2284  0.6905
11613WAT      O48256  -1.896   2.505   8.982  0.1905  0.3283 -0.2413
11613WAT     H148257  -1.982   2.498   8.942 -0.8556 -0.0106  1.9418
11613WAT     H248258  -1.853   2.421   8.963 -0.5420 -0.0883 -0.0731
11613WAT    EPW48259  -1.902   2.493   8.974 -0.0441  0.2286  0.0688
11614WAT      O48260  -1.987   5.105   4.986 -0.1812 -0.1124  0.5449
11614WAT     H148261  -1.973   5.077   5.076 -2.0327  0.8761  1.1899
11614WAT     H248262  -2.060   5.051   4.955 -0.1205  0.1533 -0.0859
11614WAT    EPW48263  -1.994   5.094   4.994 -0.4174  0.0532  0.5467
11615WAT      O48264   2.091   5.898   1.228  0.2730 -0.1511 -0.4938
11615WAT     H148265   2.105   5.868   1.318 -0.8022  0.2898 -0.1603
11615WAT     H248266   2.032   5.833   1.190 -0.7702  0.6314 -0.2740
11615WAT    EPW48267   2.085   5.885   1.235 -0.0064  0.0100 -0.4208
11616WAT      O48268   5.099   0.689   2.535  0.1472  0.2929 -0.4996
11616WAT     H148269   5.168   0.744   2.571 -0.0799 -0.2163  0.7464
11616WAT     H248270   5.131   0.599   2.549 -0.7063  0.0586 -0.0510
11616WAT    EPW48271   5.113   0.684   2.541  0.0048  0.1948 -0.2761
11617WAT      O48272   5.617   5.493   3.274  0.2472 -0.2788 -0.7177
11617WAT     H148273   5.562   5.546   3.216 -1.5896 -0.0385  1.1403
11617WAT     H248274   5.706   5.505   3.240 -0.5832  0.8884 -2.6590
11617WAT    EPW48275   5.622   5.502   3.262 -0.1044 -0.0932 -0.7286
11618WAT      O48276  -3.077   8.144   6.223 -0.2652 -0.0099 -0.6046
11618WAT     H148277  -3.053   8.233   6.249  0.5662 -0.7293  1.3097
11618WAT     H248278  -3.170   8.137   6.247 -0.0335 -0.0056  0.3263
11618WAT    EPW48279  -3.086   8.155   6.230 -0.1251 -0.1040 -0.2291
11619WAT      O48280   8.120   2.261   1.245  0.2491 -0.2781 -0.2963
11619WAT     H148281   8.038   2.305   1.222 -0.1611 -1.2422 -0.6979
11619WAT     H248282   8.176   2.331   1.280 -1.4062  0.0771  1.8360
11619WAT    EPW48283   8.117   2.276   1.247 -0.0229 -0.3585 -0.0681
11620WAT      O48284   0.511   9.849   2.249 -0.2413  0.0973  0.2729
11620WAT     H148285   0.598   9.814   2.231  1.0074  2.3362  1.5734
11620WAT     H248286   0.509   9.934   2.205 -1.7973  0.0966  0.2651
11620WAT    EPW48287   0.522   9.856   2.241 -0.2818  0.3929  0.4433
11621WAT      O48288  -2.247   1.044   6.679 -0.2641  0.4028  0.4009
11621WAT     H148289  -2.293   0.987   6.740  1.6502 -1.0903  0.5692
11621WAT     H248290  -2.199   1.106   6.734 -2.1663  2.1359  0.2228
11621WAT    EPW48291  -2.247   1.045   6.694 -0.2625  0.4345  0.3996
11622WAT      O48292   1.704   7.410   0.578 -0.6596  0.1842 -0.4445
11622WAT     H148293   1.640   7.385   0.511  0.0547 -0.8710 -0.7473
11622WAT     H248294   1.717   7.330   0.629 -0.4684  0.7191  0.3621
11622WAT    EPW48295   1.697   7.396   0.576 -0.5402  0.1156 -0.3780
11623WAT      O48296   1.327   8.012   1.553 -0.0283  0.6678 -0.1349
11623WAT     H148297   1.316   8.105   1.569  0.1614  0.8933 -1.1933
11623WAT     H248298   1.246   7.985   1.509 -1.3160 -0.3173  2.5974
11623WAT    EPW48299   1.315   8.020   1.549 -0.1732  0.5674  0.0859
11624WAT      O48300   8.578   1.920   2.522  0.8154  0.1034  0.4018
11624WAT     H148301   8.522   1.978   2.574  0.8742 -0.3384  0.9662
11624WAT     H248302   8.520   1.884   2.455  0.7890  0.8466  0.0108
11624WAT    EPW48303   8.563   1.923   2.520  0.8197  0.1431  0.4247
11625WAT      O48304   1.054   9.061   7.003 -0.2202  0.6358 -0.0903
11625WAT     H148305   1.001   9.034   6.928  0.2355  1.3685 -0.6904
11625WAT     H248306   0.991   9.099   7.064 -0.5378  0.4338 -0.2906
11625WAT    EPW48307   1.039   9.063   7.002 -0.2020  0.7057 -0.1957
11626WAT      O48308   0.070   6.628   0.669  0.1562 -0.1794  0.1828
11626WAT     H148309   0.012   6.697   0.702 -0.2201  0.1827 -1.1937
11626WAT     H248310   0.012   6.565   0.629  0.5819 -0.8282  0.5636
11626WAT    EPW48311   0.055   6.629   0.668  0.1627 -0.2172  0.0515
11627WAT      O48312   2.170   8.565   2.730  0.1537 -0.3358 -0.2469
11627WAT     H148313   2.184   8.658   2.710  0.8242 -0.5588 -0.8094
11627WAT     H248314   2.235   8.519   2.679  1.6208 -0.9684  2.0334
11627WAT    EPW48315   2.180   8.571   2.721  0.4357 -0.4487 -0.0204
11628WAT      O48316  -2.465   0.372   4.533  0.3839  1.0092 -0.2002
11628WAT     H148317  -2.400   0.328   4.478  0.3833  1.7771 -0.8275
11628WAT     H248318  -2.546   0.365   4.484 -0.0365  0.0183  0.6006
11628WAT    EPW48319  -2.467   0.365   4.519  0.3284  0.9798 -0.1774
11629WAT      O48320  -3.894   9.276   5.414  0.1202 -0.3579 -0.5539
11629WAT     H148321  -3.853   9.321   5.340  1.4363 -1.6952 -0.6726
11629WAT     H248322  -3.934   9.347   5.465  2.9179  1.1194 -0.2209
11629WAT    EPW48323  -3.894   9.292   5.411  0.6628 -0.3395 -0.5257
11630WAT      O48324   1.994   1.674   7.615 -0.7438  0.8240 -0.1764
11630WAT     H148325   2.014   1.582   7.603  1.6738  1.2524  0.1495
11630WAT     H248326   1.940   1.676   7.695  0.8335 -0.1853  0.9867
11630WAT    EPW48327   1.989   1.662   7.624 -0.2169  0.7474  0.0200
11631WAT      O48328   4.173   2.803   5.732  0.6138 -0.0298  0.3091
11631WAT     H148329   4.249   2.805   5.790  1.6331  1.9366 -0.9719
11631WAT     H248330   4.191   2.731   5.671  1.5083  0.4638 -0.0256
11631WAT    EPW48331   4.185   2.794   5.732  0.8662  0.2947  0.0958
11632WAT      O48332  -6.591   7.796   7.347 -0.0330 -0.2348 -0.4241
11632WAT     H148333  -6.513   7.791   7.402  0.8614 -2.6014 -1.7430
11632WAT     H248334  -6.556   7.810   7.258 -1.3088  1.3664 -0.7222
11632WAT    EPW48335  -6.576   7.797   7.342 -0.0834 -0.3357 -0.6375
11633WAT      O48336  -2.808   3.213   8.005  0.0530 -0.1461 -0.3617
11633WAT     H148337  -2.823   3.132   8.053  0.4078  0.2581  0.4542
11633WAT     H248338  -2.893   3.234   7.965 -0.4279 -0.1292  0.6540
11633WAT    EPW48339  -2.821   3.205   8.006  0.0364 -0.0906 -0.1202
11634WAT      O48340  -1.525   9.924   2.243  0.4264 -0.0110 -0.0378
11634WAT     H148341  -1.456   9.868   2.207 -1.2845 -0.5206 -2.8242
11634WAT     H248342  -1.556   9.974   2.168 -2.0229  0.4256  1.1811
11634WAT    EPW48343  -1.520   9.923   2.228 -0.1223 -0.0210 -0.2445
11635WAT      O48344   5.852   3.795   1.442  0.5070  0.5994 -0.4507
11635WAT     H148345   5.901   3.737   1.384  2.3192 -0.7923  2.2155
11635WAT     H248346   5.906   3.875   1.446  1.5776 -0.1452  0.8970
11635WAT    EPW48347   5.866   3.798   1.435  0.8874  0.3177  0.0787
11636WAT      O48348  -6.979   8.756   6.652  0.0144  0.1811  0.3989
11636WAT     H148349  -6.894   8.800   6.649  0.0151  0.1561 -0.1756
11636WAT     H248350  -6.965   8.679   6.705  0.1770  0.5447  0.8902
11636WAT    EPW48351  -6.966   8.752   6.658  0.0360  0.2255  0.3879
11637WAT      O48352   1.171   6.955   1.882 -0.4675  0.2087 -0.1767
11637WAT     H148353   1.106   6.976   1.949 -0.3213 -1.4844  0.5306
11637WAT     H248354   1.255   6.973   1.924 -0.4082  0.9761 -0.5912
11637WAT    EPW48355   1.174   6.960   1.896 -0.4404  0.0865 -0.1381
11638WAT      O48356   4.368   2.126   6.675  0.8188  0.0979  0.5067
11638WAT     H148357   4.425   2.202   6.682  2.1788 -0.9626  1.4751
11638WAT     H248358   4.391   2.088   6.590 -0.9629  1.5579 -0.7035
11638WAT    EPW48359   4.379   2.131   6.664  0.7632  0.1506  0.4747
11639WAT      O48360   2.337   4.191   1.119  0.6095 -0.0298 -0.2059
11639WAT     H148361   2.297   4.274   1.145  3.1564  0.3057  3.3953
11639WAT     H248362   2.283   4.124   1.161  0.6947  0.0636  0.0539
11639WAT    EPW48363   2.325   4.193   1.128  0.9567  0.0265  0.3034
11640WAT      O48364  -1.107   2.090   8.483  0.9732 -0.3383  0.4070
11640WAT     H148365  -1.117   2.074   8.577  1.9306  0.4942  0.6680
11640WAT     H248366  -1.116   2.184   8.473  2.1419 -0.2673 -0.1537
11640WAT    EPW48367  -1.109   2.100   8.494  1.2537 -0.2191  0.3672
11641WAT      O48368  -0.246   7.636   7.343  0.9601 -0.4736  0.1845
11641WAT     H148369  -0.223   7.566   7.404  1.7141  1.3499  2.1288
11641WAT     H248370  -0.163   7.667   7.308  0.9568  1.2607  1.5470
11641WAT    EPW48371  -0.232   7.631   7.347  1.0591 -0.0045  0.6206
11642WAT      O48372  -3.453   7.626   3.756  0.5878 -0.1317 -0.6380
11642WAT     H148373  -3.478   7.604   3.846 -2.6639  0.4374 -1.2682
11642WAT     H248374  -3.515   7.578   3.702  1.0658  1.2130 -2.4790
11642WAT    EPW48375  -3.465   7.617   3.761  0.2218  0.1206 -0.9639
11643WAT      O48376   2.757   1.835   0.994 -0.0385  0.9452  0.0373
11643WAT     H148377   2.838   1.831   0.941  0.9794 -2.0243  1.6138
11643WAT     H248378   2.708   1.757   0.969 -1.5535  1.7105  0.5021
11643WAT    EPW48379   2.762   1.824   0.983 -0.1040  0.6545  0.3065
11644WAT      O48380   0.532   4.700   0.403  0.2217 -0.2375 -0.5548
11644WAT     H148381   0.555   4.792   0.413  1.0316 -0.1968 -2.4933
11644WAT     H248382   0.436   4.699   0.409  0.2807  0.5050  0.8979
11644WAT    EPW48383   0.522   4.712   0.405  0.3363 -0.1340 -0.6189
11645WAT      O48384   4.419   6.052   3.412 -0.2878  0.1888 -0.2345
11645WAT     H148385   4.478   5.989   3.452 -1.1557  0.8562  2.2902
11645WAT     H248386   4.466   6.135   3.418 -0.2858  0.2405 -0.9445
11645WAT    EPW48387   4.433   6.055   3.418 -0.4017  0.2835  0.0048
11646WAT      O48388   5.344   0.446   0.893 -0.1049 -0.2618  0.0392
11646WAT     H148389   5.339   0.539   0.871  0.6974 -0.5363 -1.4381
11646WAT     H248390   5.413   0.412   0.837  0.6994 -1.4577  1.6601
11646WAT    EPW48391   5.353   0.454   0.883  0.1073 -0.4558  0.0581
11647WAT      O48392   0.773   5.862   7.501  0.9085 -0.0782 -0.4413
11647WAT     H148393   0.724   5.897   7.426  0.1644  1.1380  0.5644
11647WAT     H248394   0.864   5.862   7.472  0.6246  0.2953 -1.3789
11647WAT    EPW48395   0.779   5.867   7.487  0.7730  0.1316 -0.4320
11648WAT      O48396   0.965   0.733   1.368  0.0907  0.0251 -0.1054
11648WAT     H148397   0.983   0.816   1.324 -0.0847 -1.2073 -2.7070
11648WAT     H248398   0.869   0.731   1.376  0.1053  0.1319  0.1077
11648WAT    EPW48399   0.954   0.744   1.364  0.0695 -0.1234 -0.4205
11649WAT      O48400   0.212   4.166   1.989 -0.6210  0.1874  1.3132
11649WAT     H148401   0.225   4.116   1.908 -0.2798  1.8262  0.3045
11649WAT     H248402   0.160   4.108   2.045 -2.2175 -0.4385 -0.6826
11649WAT    EPW48403   0.207   4.152   1.986 -0.7865  0.3209  0.9169
11650WAT      O48404  -7.019  10.008   7.835 -0.2362  0.1432  0.5770
11650WAT     H148405  -6.925  10.020   7.824 -0.2583  0.4059  0.6805
11650WAT     H248406  -7.043  10.067   7.906 -0.2856 -0.7610  1.3268
11650WAT    EPW48407  -7.010  10.017   7.843 -0.2456  0.0587  0.6895
11651WAT      O48408   2.850   1.958   4.751 -0.0514 -0.5545 -0.8856
11651WAT     H148409   2.846   1.867   4.779  0.8209 -0.2499  0.3167
11651WAT     H248410   2.942   1.972   4.728  0.5449  0.7894  1.8509
11651WAT    EPW48411   2.862   1.948   4.751  0.1422 -0.3371 -0.3660
11652WAT      O48412  -6.664   6.960   8.520 -0.2868 -0.1795 -0.1728
11652WAT     H148413  -6.650   6.985   8.429 -0.9605  1.8379  0.2142
11652WAT     H248414  -6.748   6.915   8.521 -0.0320 -0.6653 -0.6196
11652WAT    EPW48415  -6.673   6.958   8.508 -0.3421  0.0224 -0.1807
11653WAT      O48416  -1.537   1.006   3.063  0.0346 -0.5770  0.3324
11653WAT     H148417  -1.572   1.092   3.041 -0.3423 -0.1838  2.2976
11653WAT     H248418  -1.611   0.946   3.048  0.3431 -0.6193 -1.1836
11653WAT    EPW48419  -1.552   1.009   3.058  0.0256 -0.5308  0.3916
11654WAT      O48420  -3.703   6.254   8.275  0.0712  0.9082 -0.1839
11654WAT     H148421  -3.744   6.244   8.361 -3.2553  0.1622 -1.7321
11654WAT     H248422  -3.645   6.179   8.268 -0.7247  0.1651  0.8330
11654WAT    EPW48423  -3.700   6.243   8.286 -0.4724  0.7119 -0.2537
11655WAT      O48424   2.419   1.570   2.239  0.6108 -0.3034 -1.2429
11655WAT     H148425   2.383   1.643   2.189  0.0821 -1.7371 -3.0652
11655WAT     H248426   2.378   1.493   2.202  0.5734 -1.5153  1.1457
11655WAT    EPW48427   2.409   1.570   2.228  0.5361 -0.6523 -1.1681
11656WAT      O48428   3.330   3.272   8.595 -0.5363  0.4025 -0.3675
11656WAT     H148429   3.287   3.190   8.621  2.1342 -1.6279 -1.7681
11656WAT     H248430   3.310   3.333   8.666 -0.9760 -2.1072  1.8487
11656WAT    EPW48431   3.322   3.269   8.608 -0.2421 -0.1963 -0.2599
11657WAT      O48432  -0.371   0.548   8.989  0.2226 -0.0454 -0.2088
11657WAT     H148433  -0.374   0.642   9.009  2.9363  0.2075 -0.5626
11657WAT     H248434  -0.375   0.544   8.894  0.3197 -0.2631 -0.2040
11657WAT    EPW48435  -0.372   0.560   8.979  0.5933 -0.0407 -0.2546
11658WAT      O48436   0.765   1.336   2.471 -0.5299  0.0723 -0.2584
11658WAT     H148437   0.819   1.262   2.499  2.1682  3.1180  3.5904
11658WAT     H248438   0.809   1.370   2.393  0.3646 -0.1895  0.1315
11658WAT    EPW48439   0.778   1.331   2.464 -0.0561  0.4395  0.3006
11659WAT      O48440  -3.060   9.512   2.594 -0.4372  0.2969 -0.3042
11659WAT     H148441  -3.144   9.467   2.593  0.3251 -1.1608 -0.7149
11659WAT     H248442  -3.025   9.495   2.681  0.0886 -0.3837 -0.6394
11659WAT    EPW48443  -3.066   9.504   2.605 -0.2673  0.0148 -0.4027
11660WAT      O48444  -2.127   8.048   7.899  0.0424 -0.4347  0.0723
11660WAT     H148445  -2.048   8.103   7.904  0.1857 -0.7390  1.8363
11660WAT     H248446  -2.129   8.017   7.809  0.2093  2.0818 -0.8931
11660WAT    EPW48447  -2.117   8.051   7.888  0.0833 -0.1431  0.1776
11661WAT      O48448   2.646   3.819   2.629 -0.2652  0.2417 -0.3953
11661WAT     H148449   2.684   3.906   2.617 -0.1135  0.6580  2.4582
11661WAT     H248450   2.688   3.785   2.708 -2.0943 -1.4170 -0.0596
11661WAT    EPW48451   2.657   3.826   2.638 -0.4864  0.0778  0.0253
11662WAT      O48452  -5.831   8.226   6.680  0.2720  0.0248  0.0766
11662WAT     H148453  -5.871   8.284   6.615  1.3941 -0.4465 -1.0552
11662WAT     H248454  -5.906   8.178   6.717 -0.6333  1.8718  0.7601
11662WAT    EPW48455  -5.846   8.227   6.676  0.3006  0.2060  0.0174
11663WAT      O48456  -4.566  10.048   5.511  0.0906  0.1635  0.1426
11663WAT     H148457  -4.572  10.000   5.429 -1.0032  1.4336 -0.5521
11663WAT     H248458  -4.597   9.986   5.577 -1.1874 -0.1465 -0.7095
11663WAT    EPW48459  -4.571  10.034   5.509 -0.2222  0.2899 -0.0613
11664WAT      O48460  -2.570   2.087   6.583  0.2713 -0.7271 -0.2968
11664WAT     H148461  -2.591   2.141   6.660  1.0485 -1.1669  0.2288
11664WAT     H248462  -2.642   2.104   6.523  0.2604  0.5479  0.0438
11664WAT    EPW48463  -2.582   2.096   6.586  0.3723 -0.6169 -0.1826
11665WAT      O48464  -4.271   5.279   4.737  0.5279  0.6862 -0.1185
11665WAT     H148465  -4.348   5.324   4.771  1.2597 -0.7097  4.0325
11665WAT     H248466  -4.204   5.346   4.731 -0.4019  1.5185 -1.7504
11665WAT    EPW48467  -4.272   5.293   4.741  0.5016  0.6118  0.2139
11666WAT      O48468   0.235   2.865   3.698 -0.1803 -0.0444  0.3705
11666WAT     H148469   0.324   2.879   3.666  0.1795 -0.8091  0.9885
11666WAT     H248470   0.247   2.838   3.789 -1.0602  0.0495  0.5197
11666WAT    EPW48471   0.249   2.863   3.706 -0.2489 -0.1329  0.4717
11667WAT      O48472  -2.121   3.218   8.598  0.5468 -0.8843  0.6396
11667WAT     H148473  -2.087   3.257   8.679 -1.0378  1.8701  0.1218
11667WAT     H248474  -2.064   3.251   8.529 -2.9630  4.4487 -0.3458
11667WAT    EPW48475  -2.109   3.228   8.600 -0.1253  0.1824  0.4416
11668WAT      O48476   6.330   4.454   3.879 -0.6704  0.1685 -0.5508
11668WAT     H148477   6.264   4.414   3.822 -1.8730  0.3872  0.6397
11668WAT     H248478   6.340   4.392   3.951 -2.1323  1.6485  1.0183
11668WAT    EPW48479   6.322   4.441   3.881 -1.0216  0.3924 -0.1868
11669WAT      O48480   6.481   0.421   6.929  0.5113 -0.2706  0.4159
11669WAT     H148481   6.508   0.334   6.958 -1.4235 -0.3815  2.1638
11669WAT     H248482   6.528   0.481   6.987  1.8129 -0.1067 -0.7606
11669WAT    EPW48483   6.491   0.418   6.941  0.4280 -0.2636  0.4914
11670WAT      O48484  -4.137   8.651   6.329  0.8436  0.1305  0.0633
11670WAT     H148485  -4.147   8.701   6.248  2.4048  0.2100 -0.1121
11670WAT     H248486  -4.043   8.650   6.345  0.6949 -1.2098  1.0479
11670WAT    EPW48487  -4.126   8.657   6.320  1.0297 -0.0358  0.1700
11671WAT      O48488   6.441   3.280   1.221  0.2343  0.4009  0.0986
11671WAT     H148489   6.419   3.232   1.301 -3.1650 -0.9381 -1.4517
11671WAT     H248490   6.417   3.370   1.240  3.5933  1.0809  1.9194
11671WAT    EPW48491   6.435   3.285   1.234  0.2289  0.3140  0.1342
11672WAT      O48492   1.727   8.452   1.300 -0.2959  0.5794 -0.1797
11672WAT     H148493   1.656   8.388   1.310 -0.5543  0.5179 -2.0966
11672WAT     H248494   1.799   8.402   1.262 -0.1763  1.2269 -0.8171
11672WAT    EPW48495   1.727   8.437   1.296 -0.3142  0.6566 -0.5167
11673WAT      O48496   1.420   2.018   4.504 -0.7407  0.3953 -0.7859
11673WAT     H148497   1.346   2.033   4.563  0.2992  1.0474  0.4061
11673WAT     H248498   1.434   2.102   4.461  0.2574  0.7279  0.1495
11673WAT    EPW48499   1.412   2.031   4.506 -0.4719  0.5252 -0.5052
11674WAT      O48500   6.547   2.690   0.099  0.0815  0.4917 -0.1902
11674WAT     H148501   6.502   2.746   0.162 -2.5238 -0.7727 -0.7464
11674WAT     H248502   6.548   2.741   0.018 -0.8666  0.3753 -0.2931
11674WAT    EPW48503   6.541   2.704   0.097 -0.3872  0.3096 -0.2772
11675WAT      O48504  -0.059   6.638   3.567  0.1885  0.7221 -0.4826
11675WAT     H148505  -0.111   6.572   3.613  0.9116  0.7222  0.3628
11675WAT     H248506   0.002   6.672   3.634  1.4272  0.5569 -1.4796
11675WAT    EPW48507  -0.057   6.634   3.582  0.4473  0.7002 -0.5026
11676WAT      O48508  -0.013   2.526   3.590  0.0133 -0.7901 -1.1096
11676WAT     H148509   0.060   2.465   3.592 -0.1524 -1.1650 -3.5595
11676WAT     H248510   0.024   2.607   3.555 -0.2821 -0.1976 -0.1203
11676WAT    EPW48511   0.001   2.529   3.586 -0.0475 -0.7614 -1.3022
11677WAT      O48512   0.468   6.601   8.576 -0.4831  0.3258  0.4642
11677WAT     H148513   0.520   6.652   8.514 -1.9945 -0.1188 -1.2428
11677WAT     H248514   0.472   6.651   8.657  1.4912  0.9655  0.0230
11677WAT    EPW48515   0.475   6.614   8.579 -0.4220  0.3514  0.1807
11678WAT      O48516   6.831   4.889   0.042  0.2057  0.0693  0.4216
11678WAT     H148517   6.811   4.817   0.102  1.8285 -0.8352 -0.0503
11678WAT     H248518   6.927   4.888   0.034  0.1037  0.6426 -1.5662
11678WAT    EPW48519   6.841   4.880   0.048  0.4063  0.0253  0.0973
11679WAT      O48520   1.742   9.472   5.126 -0.0691  0.4927  0.1403
11679WAT     H148521   1.829   9.465   5.089 -0.3832 -1.7180 -0.3434
11679WAT     H248522   1.754   9.456   5.219  0.1890  1.5262  0.2885
11679WAT    EPW48523   1.755   9.469   5.133 -0.0765  0.3376  0.0963
11680WAT      O48524   1.087   5.352   1.567 -0.1054  0.0235  0.3227
11680WAT     H148525   1.182   5.357   1.582 -0.1404  0.3731  0.4389
11680WAT     H248526   1.059   5.273   1.613  0.1038  0.0149  0.4362
11680WAT    EPW48527   1.096   5.342   1.575 -0.0824  0.0684  0.3530
11681WAT      O48528   5.185   3.567   6.746 -0.4750  0.1734 -0.1247
11681WAT     H148529   5.217   3.495   6.800 -0.6582  1.1483  1.3550
11681WAT     H248530   5.237   3.642   6.773 -0.4959  0.6759 -1.4205
11681WAT    EPW48531   5.196   3.567   6.757 -0.5019  0.3684 -0.1006
11682WAT      O48532  -1.875   9.930   2.044  0.2794 -0.4671 -0.0493
11682WAT     H148533  -1.829  10.009   2.072  0.2444  0.2864 -1.9858
11682WAT     H248534  -1.804   9.869   2.021  0.3049 -0.9756  1.3121
11682WAT    EPW48535  -1.859   9.932   2.044  0.2781 -0.4344 -0.1253
11683WAT      O48536   3.741   1.547   5.870 -0.2548 -0.0316 -0.2412
11683WAT     H148537   3.678   1.612   5.838 -0.6201  0.0836  0.6941
11683WAT     H248538   3.757   1.491   5.794 -1.5623 -0.1291 -0.4667
11683WAT    EPW48539   3.734   1.548   5.856 -0.4754 -0.0293 -0.1476
11684WAT      O48540   2.386   1.764   4.192 -0.6330  0.1420  0.2822
11684WAT     H148541   2.291   1.774   4.200 -0.4179  2.7450  0.3039
11684WAT     H248542   2.417   1.757   4.282 -0.5770  2.3937  0.4791
11684WAT    EPW48543   2.377   1.764   4.205 -0.5972  0.7823  0.3109
11685WAT      O48544  -5.414   9.039   7.361  0.2006 -0.1035  0.2336
11685WAT     H148545  -5.349   9.108   7.346  1.2813 -1.2989 -0.8146
11685WAT     H248546  -5.365   8.957   7.352 -1.1518 -1.0387  0.9424
11685WAT    EPW48547  -5.399   9.037   7.358  0.1650 -0.3843  0.1888
11686WAT      O48548   5.342   4.656   3.379 -0.0454 -0.3815 -0.3808
11686WAT     H148549   5.426   4.693   3.406  0.2470 -0.1716 -1.5692
11686WAT     H248550   5.285   4.732   3.368 -0.4983 -0.5408  0.7140
11686WAT    EPW48551   5.346   4.671   3.381 -0.0668 -0.3750 -0.3932
11687WAT      O48552   0.740   6.786   5.405 -0.0459 -0.6879 -0.3921
11687WAT     H148553   0.675   6.855   5.416  1.2497  0.2172  2.6799
11687WAT     H248554   0.791   6.814   5.329 -2.0176 -0.4638 -1.7098
11687WAT    EPW48555   0.738   6.799   5.396 -0.1351 -0.5391 -0.1607
11688WAT      O48556  -4.369   7.538   4.960  0.4882 -0.5837  0.1223
11688WAT     H148557  -4.298   7.544   5.024 -0.5351  2.4452  1.1522
11688WAT     H248558  -4.449   7.537   5.014 -0.4504  2.9380 -0.9377
11688WAT    EPW48559  -4.370   7.539   4.976  0.2294  0.2804  0.1183
11689WAT      O48560   7.893   0.129   0.062 -0.2085  0.7769  0.0328
11689WAT     H148561   7.892   0.211   0.011 -0.6631  0.5326 -0.3659
11689WAT     H248562   7.829   0.073   0.018  1.1538 -0.3477 -0.5812
11689WAT    EPW48563   7.884   0.133   0.050 -0.0889  0.5964 -0.1007
11690WAT      O48564  -3.582   4.327   4.902 -0.7732  0.2491  0.5493
11690WAT     H148565  -3.543   4.329   4.814 -1.2330  0.6793  0.3509
11690WAT     H248566  -3.610   4.236   4.914  1.1732 -0.3211  1.1000
11690WAT    EPW48567  -3.581   4.315   4.892 -0.5771  0.2306  0.5960
11691WAT      O48568   6.466   4.416   1.556  0.5217 -0.1158  0.4492
11691WAT     H148569   6.508   4.494   1.592  0.9237 -0.2960  0.3777
11691WAT     H248570   6.389   4.449   1.510  0.6796  0.2369  0.4338
11691WAT    EPW48571   6.462   4.431   1.555  0.5953 -0.0930  0.4377
11692WAT      O48572  -0.788   5.029   2.176  0.5758 -0.1622 -0.4293
11692WAT     H148573  -0.829   4.984   2.249 -0.0533  3.9847  2.0779
11692WAT     H248574  -0.861   5.067   2.127  1.1509  1.3490 -0.1535
11692WAT    EPW48575  -0.803   5.028   2.179  0.5687  0.5841 -0.0622
11693WAT      O48576  -4.131   2.052   5.710 -0.4108  0.3652  0.0739
11693WAT     H148577  -4.074   2.118   5.671 -0.3037 -1.2502 -2.6873
11693WAT     H248578  -4.205   2.103   5.745  0.2828  2.0488 -0.7967
11693WAT    EPW48579  -4.133   2.068   5.710 -0.3054  0.3743 -0.4053
11694WAT      O48580  -1.697   4.046   2.475 -0.8374  0.8800 -0.0957
11694WAT     H148581  -1.696   4.141   2.485 -0.6748  0.8429  0.2649
11694WAT     H248582  -1.778   4.018   2.518 -0.6032  0.8063  0.3059
11694WAT    EPW48583  -1.707   4.055   2.482 -0.7851  0.8655  0.0048
11695WAT      O48584  10.287   0.641   0.738  0.4115 -0.0605  0.0705
11695WAT     H148585  10.222   0.572   0.724 -0.2622  0.1985  1.6532
11695WAT     H248586  10.366   0.594   0.766  0.6957 -0.3187 -1.0954
11695WAT    EPW48587  10.289   0.626   0.740  0.3600 -0.0604  0.1255
11696WAT      O48588   4.878   1.467   0.773 -0.5021  0.0052 -0.3728
11696WAT     H148589   4.801   1.417   0.748 -0.0703 -1.3933  0.9655
11696WAT     H248590   4.949   1.403   0.775  0.2733  0.8565  0.4118
11696WAT    EPW48591   4.877   1.452   0.770 -0.3428 -0.0669 -0.0928
11697WAT      O48592   3.939   9.367   4.868  0.1679  0.1638 -0.1636
11697WAT     H148593   3.917   9.408   4.951 -0.8621 -1.9338  0.6960
11697WAT     H248594   4.026   9.330   4.881 -0.6123 -1.4974  0.5882
11697WAT    EPW48595   3.948   9.367   4.880 -0.0709 -0.3324  0.0489
11698WAT      O48596   1.127   7.000   0.973  0.2284 -0.5942  0.1981
11698WAT     H148597   1.123   6.983   1.067  1.1883 -2.3279 -0.0310
11698WAT     H248598   1.085   7.085   0.962 -0.4236 -0.6210  2.1195
11698WAT    EPW48599   1.121   7.009   0.984  0.2690 -0.8264  0.4213
11699WAT      O48600   2.743   8.066   3.700 -0.0498 -0.0778 -0.0103
11699WAT     H148601   2.688   8.103   3.769  0.5353  0.4128  0.1943
11699WAT     H248602   2.759   7.976   3.728 -0.8309 -0.2576 -0.1208
11699WAT    EPW48603   2.738   8.059   3.713 -0.0757 -0.0367  0.0020
11700WAT      O48604   5.393   3.229   2.419  0.2021  0.4371  0.3337
11700WAT     H148605   5.354   3.283   2.350 -1.9465 -0.3891  0.8264
11700WAT     H248606   5.370   3.274   2.501  2.1907  1.0740  0.5964
11700WAT    EPW48607   5.385   3.242   2.421  0.1812  0.4122  0.4333
11701WAT      O48608   0.271   5.947   0.254  0.8003  0.3249  0.4275
11701WAT     H148609   0.206   5.991   0.200 -0.3279 -1.9369 -0.2042
11701WAT     H248610   0.349   5.940   0.198 -0.9626 -3.7563 -1.9368
11701WAT    EPW48611   0.273   5.952   0.240  0.4189 -0.5116  0.0324
11702WAT      O48612   4.101   1.967   7.245  0.2142 -0.4051  0.2441
11702WAT     H148613   4.019   1.955   7.197  0.2990 -1.6368  0.3612
11702WAT     H248614   4.082   1.939   7.334  0.8369 -1.0604  0.1889
11702WAT    EPW48615   4.088   1.961   7.250  0.3073 -0.6539  0.2522
11703WAT      O48616  -1.104   0.245   2.542  0.1199 -0.7878 -0.4033
11703WAT     H148617  -1.115   0.322   2.598 -1.2064  0.2487 -1.9815
11703WAT     H248618  -1.130   0.171   2.597  0.6871 -0.0466  0.9096
11703WAT    EPW48619  -1.109   0.245   2.557  0.0197 -0.5533 -0.4383
11704WAT      O48620   1.731   2.731   2.595 -0.1797 -0.4201 -0.2353
11704WAT     H148621   1.745   2.738   2.501 -0.4841  0.8345 -0.2008
11704WAT     H248622   1.702   2.640   2.608 -0.2680 -0.5684 -1.3568
11704WAT    EPW48623   1.729   2.720   2.585 -0.2316 -0.2742 -0.3786
11705WAT      O48624   7.101   3.801   2.068 -0.3344  0.8942 -0.3915
11705WAT     H148625   7.110   3.839   2.155  0.2545 -0.7007  0.2825
11705WAT     H248626   7.076   3.710   2.084  1.5955  0.0424 -1.8091
11705WAT    EPW48627   7.099   3.794   2.082 -0.0021  0.5715 -0.4896
11706WAT      O48628  -2.188   6.262   0.736 -0.3401 -0.7766  0.7056
11706WAT     H148629  -2.144   6.246   0.652 -0.2178  1.3430  0.3254
11706WAT     H248630  -2.266   6.206   0.732  1.7456 -3.9907  1.0507
11706WAT    EPW48631  -2.192   6.252   0.724 -0.0488 -0.9210  0.7010
11707WAT      O48632  -2.952   7.563   3.644 -0.4693 -0.6632  0.3248
11707WAT     H148633  -2.957   7.520   3.559  0.8217 -2.3121  1.0271
11707WAT     H248634  -2.859   7.571   3.662 -0.7140 -1.0685  1.9262
11707WAT    EPW48635  -2.941   7.558   3.635 -0.3313 -0.9341  0.6286
11708WAT      O48636   2.190   4.167   3.808 -0.3628 -0.2445 -0.2800
11708WAT     H148637   2.134   4.229   3.760  0.3182 -0.0021 -0.7704
11708WAT     H248638   2.227   4.220   3.879 -3.0660 -1.0885  1.9542
11708WAT    EPW48639   2.187   4.182   3.811 -0.6295 -0.3238 -0.0499
11709WAT      O48640   1.762   4.924   1.721 -0.0378  0.5714 -0.1777
11709WAT     H148641   1.847   4.898   1.685  0.6624  0.9792  1.0929
11709WAT     H248642   1.699   4.865   1.679  1.0027 -0.4567 -0.3671
11709WAT    EPW48643   1.765   4.913   1.711  0.1918  0.4897 -0.0350
11710WAT      O48644  -1.174   8.795   4.216 -0.3107  0.0067  0.0874
11710WAT     H148645  -1.229   8.769   4.291  0.7916 -1.9227  0.2930
11710WAT     H248646  -1.129   8.714   4.191 -2.3029 -0.0467 -4.1397
11710WAT    EPW48647  -1.175   8.781   4.223 -0.4281 -0.2551 -0.4432
11711WAT      O48648  -3.420   2.646   4.438 -0.3408 -0.4734  0.1840
11711WAT     H148649  -3.356   2.647   4.368  0.5899 -0.1466  1.0258
11711WAT     H248650  -3.390   2.712   4.500 -0.4092 -1.6505  1.5243
11711WAT    EPW48651  -3.408   2.655   4.437 -0.2270 -0.5856  0.4718
11712WAT      O48652  -4.226   1.252   8.432  0.1100  0.7459  0.1701
11712WAT     H148653  -4.230   1.344   8.407 -2.7039  0.9573  1.0358
11712WAT     H248654  -4.315   1.220   8.417  1.2253 -2.1389 -1.0307
11712WAT    EPW48655  -4.239   1.260   8.426 -0.1142  0.3933  0.1259
11713WAT      O48656  -3.333   4.597   7.623 -0.0421  0.2656  0.0593
11713WAT     H148657  -3.390   4.523   7.601  0.1819  0.5019 -1.3646
11713WAT     H248658  -3.388   4.653   7.678 -0.5152 -0.4842  0.3763
11713WAT    EPW48659  -3.348   4.594   7.627 -0.0750  0.1979 -0.0868
11714WAT      O48660  -0.462   3.310   7.951  0.0570 -0.2766  0.0855
11714WAT     H148661  -0.480   3.346   7.863 -0.8202 -0.8817  0.0051
11714WAT     H248662  -0.492   3.378   8.011  3.1936  1.3616 -0.0374
11714WAT    EPW48663  -0.469   3.324   7.947  0.3550 -0.1403  0.0589
11715WAT      O48664   1.892   8.099   2.025 -0.1084 -0.1595 -0.4539
11715WAT     H148665   1.964   8.104   2.088 -1.0497 -1.9353  0.8356
11715WAT     H248666   1.935   8.110   1.940  1.7822 -1.4998  0.2437
11715WAT    EPW48667   1.907   8.101   2.022  0.0167 -0.5703 -0.1918
11716WAT      O48668   5.591   6.869   1.556 -0.8133  0.0611 -0.1246
11716WAT     H148669   5.542   6.933   1.608 -0.0234  0.3145  0.3320
11716WAT     H248670   5.674   6.913   1.536 -0.4474 -0.6465 -0.2022
11716WAT    EPW48671   5.596   6.883   1.560 -0.6609  0.0010 -0.0746
11717WAT      O48672  -2.843   8.101   3.450 -0.5477 -0.4542 -0.7455
11717WAT     H148673  -2.756   8.121   3.485 -1.6916  2.5725  0.7603
11717WAT     H248674  -2.864   8.016   3.488  0.2342  0.5462  2.2848
11717WAT    EPW48675  -2.835   8.093   3.460 -0.5953  0.0768 -0.1472
11718WAT      O48676   6.832   7.114   1.300  0.5528  0.1351 -0.2739
11718WAT     H148677   6.798   7.110   1.389 -1.5197  0.9751 -0.9766
11718WAT     H248678   6.804   7.032   1.260 -1.3983  1.1127 -1.0537
11718WAT    EPW48679   6.824   7.102   1.307  0.0222  0.3750 -0.4694
11719WAT      O48680   6.373   3.818   3.738 -0.2871 -0.7333  0.4604
11719WAT     H148681   6.457   3.788   3.772 -0.2481 -0.1414  0.9112
11719WAT     H248682   6.396   3.884   3.673 -0.3342 -2.4083 -1.3521
11719WAT    EPW48683   6.387   3.823   3.734 -0.2880 -0.8762  0.2809
11720WAT      O48684  -0.493   1.475   6.731 -0.0550  0.2355 -0.2924
11720WAT     H148685  -0.473   1.488   6.823 -2.5659 -2.1854  0.7196
11720WAT     H248686  -0.573   1.526   6.716 -0.0729  0.0318 -0.9502
11720WAT    EPW48687  -0.501   1.483   6.741 -0.3885 -0.1106 -0.2456
11721WAT      O48688   3.600   7.064   6.915  0.6273 -0.0855 -0.2405
11721WAT     H148689   3.644   7.139   6.955  0.2705 -0.2712  0.5290
11721WAT     H248690   3.515   7.098   6.888 -0.0888 -0.4971  1.3465
11721WAT    EPW48691   3.594   7.079   6.917  0.4858 -0.1643  0.0703
11722WAT      O48692  -1.397   7.286   6.842  0.8628  0.8230  0.5799
11722WAT     H148693  -1.402   7.365   6.789  0.6208  0.5576  0.1981
11722WAT     H248694  -1.454   7.303   6.917 -0.4409  0.4355 -0.2790
11722WAT    EPW48695  -1.405   7.299   6.845  0.6589  0.7370  0.4163
11723WAT      O48696  -0.866   7.836   5.151 -0.8589 -0.1605  0.1067
11723WAT     H148697  -0.793   7.794   5.105 -0.5907 -1.5415  1.6651
11723WAT     H248698  -0.894   7.907   5.093  2.0400  0.7623 -0.3131
11723WAT    EPW48699  -0.860   7.840   5.137 -0.4412 -0.2210  0.2570
11724WAT      O48700  -3.179   7.773   6.225 -0.3896  0.3536 -0.0152
11724WAT     H148701  -3.160   7.824   6.146 -0.2775  0.8395  0.3210
11724WAT     H248702  -3.235   7.831   6.278  0.7713  0.6497  0.9378
11724WAT    EPW48703  -3.184   7.788   6.222 -0.2216  0.4566  0.1547
11725WAT      O48704   3.538   3.809   3.047  0.0547 -0.2920 -0.2502
11725WAT     H148705   3.498   3.833   3.130 -0.5379 -2.7950  0.2340
11725WAT     H248706   3.469   3.823   2.982 -0.6440 -1.6323  0.1723
11725WAT    EPW48707   3.524   3.814   3.049 -0.1156 -0.7989 -0.1307
11726WAT      O48708   3.246  10.192   5.084 -0.0930 -0.2882  0.0022
11726WAT     H148709   3.187  10.121   5.061 -1.2437  0.9771 -1.1660
11726WAT     H248710   3.197  10.244   5.148  1.2199 -1.1649  1.8136
11726WAT    EPW48711   3.232  10.190   5.089 -0.0718 -0.2370  0.0868
11727WAT      O48712   0.489   6.345   3.103  0.0967 -0.3888 -0.4925
11727WAT     H148713   0.419   6.357   3.039  0.1015 -1.5178 -0.7258
11727WAT     H248714   0.495   6.250   3.115 -0.0696 -0.2119  1.3626
11727WAT    EPW48715   0.480   6.334   3.097  0.0754 -0.5145 -0.2786
11728WAT      O48716  -2.180   1.917   8.217 -0.6016  0.6063 -0.2743
11728WAT     H148717  -2.243   1.860   8.173  0.6191 -0.2919 -0.9239
11728WAT     H248718  -2.223   2.002   8.220 -1.8033  0.0432 -0.7724
11728WAT    EPW48719  -2.194   1.920   8.212 -0.5991  0.4135 -0.4258
11729WAT      O48720   3.233   6.749   0.442 -0.0065 -0.1546  0.4590
11729WAT     H148721   3.328   6.754   0.444 -0.0262  2.3726 -0.9467
11729WAT     H248722   3.207   6.746   0.534  1.3916  0.9037  0.9204
11729WAT    EPW48723   3.242   6.749   0.455  0.1754  0.3181  0.3344
11730WAT      O48724  -1.947  10.212   2.207  0.6977 -0.0866  0.2480
11730WAT     H148725  -2.010  10.272   2.246  1.4971  1.7985 -1.2257
11730WAT     H248726  -1.912  10.163   2.282  0.2048  1.4606  1.5444
11730WAT    EPW48727  -1.950  10.213   2.222  0.7382  0.3657  0.2246
11731WAT      O48728  -4.145   7.481   5.144  0.3798 -0.6418 -0.4577
11731WAT     H148729  -4.112   7.533   5.217  1.7367 -4.1828  1.6976
11731WAT     H248730  -4.204   7.417   5.184 -0.9376 -1.0649 -2.8893
11731WAT    EPW48731  -4.148   7.479   5.159  0.3850 -1.1647 -0.4942
11732WAT      O48732   6.073   4.678   0.295  0.0835  0.0524 -0.0950
11732WAT     H148733   6.135   4.610   0.323  1.2052  2.3041  3.5716
11732WAT     H248734   5.987   4.643   0.320  0.5024 -0.5804  0.5208
11732WAT    EPW48735   6.070   4.664   0.302  0.2866  0.2661  0.4698
11733WAT      O48736  -2.507   6.867   0.326 -0.1234 -0.0361 -0.2462
11733WAT     H148737  -2.412   6.864   0.313 -0.2867 -2.4129 -1.4977
11733WAT     H248738  -2.542   6.874   0.237 -1.1291  0.2950  0.1732
11733WAT    EPW48739  -2.499   6.868   0.312 -0.2776 -0.3061 -0.3560
11734WAT      O48740   1.531   6.098   0.612  0.7597 -0.4124  0.4103
11734WAT     H148741   1.538   6.004   0.594  0.4523 -0.1430 -1.2509
11734WAT     H248742   1.461   6.104   0.677  0.8704 -1.3457  0.6317
11734WAT    EPW48743   1.523   6.086   0.618  0.7337 -0.5002  0.2204
11735WAT      O48744   2.436   3.645   0.869 -0.3337  0.0257 -0.0953
11735WAT     H148745   2.469   3.602   0.790  2.3884  1.9176 -0.1372
11735WAT     H248746   2.354   3.686   0.842 -0.5533 -1.1494 -1.3182
11735WAT    EPW48747   2.430   3.645   0.855 -0.0037  0.1202 -0.2621
11736WAT      O48748  -4.084  10.168   6.864 -0.2497 -0.7803 -0.1382
11736WAT     H148749  -4.151  10.181   6.931  0.9030  0.5499  0.8196
11736WAT     H248750  -4.024  10.104   6.902  1.6785  1.6724  1.2036
11736WAT    EPW48751  -4.085  10.161   6.878  0.1566 -0.2818  0.1650
11737WAT      O48752   2.406   2.185   6.079 -0.1837 -0.4125  1.0151
11737WAT     H148753   2.336   2.120   6.070  0.8626 -1.6221  1.2605
11737WAT     H248754   2.473   2.141   6.131 -0.2789  1.5988  2.9834
11737WAT    EPW48755   2.406   2.171   6.085 -0.0582 -0.3067  1.3070
11738WAT      O48756  -3.158   2.403   4.038  0.4426 -0.2731 -0.1551
11738WAT     H148757  -3.069   2.377   4.061  0.0574 -1.6704 -0.1596
11738WAT     H248758  -3.202   2.321   4.016 -0.4723  0.5428 -1.4829
11738WAT    EPW48759  -3.152   2.389   4.038  0.2712 -0.3496 -0.3309
11739WAT      O48760   2.458   9.923   5.013 -0.3153 -0.0022  0.1592
11739WAT     H148761   2.509   9.966   5.081  0.9617 -0.1460 -0.6809
11739WAT     H248762   2.367   9.938   5.039  0.1316  0.4859  1.5469
11739WAT    EPW48763   2.453   9.931   5.026 -0.0879  0.0434  0.2315
11740WAT      O48764   5.947   4.505   1.972 -0.0280 -0.2577 -0.3497
11740WAT     H148765   5.891   4.582   1.964  1.3387  0.6972 -1.2329
11740WAT     H248766   5.944   4.483   2.065 -2.1229 -0.4862 -0.4156
11740WAT    EPW48767   5.939   4.512   1.983 -0.1242 -0.1619 -0.4749
11741WAT      O48768   0.292   3.993   7.050  0.5289 -0.1401  0.5088
11741WAT     H148769   0.277   3.927   7.117  0.6696  0.4174  1.1039
11741WAT     H248770   0.326   3.944   6.975 -1.5188 -1.0520  0.1127
11741WAT    EPW48771   0.295   3.978   7.049  0.2774 -0.1868  0.5350
11742WAT      O48772   0.229   6.211   7.798 -0.1508  0.3585 -0.8182
11742WAT     H148773   0.261   6.158   7.725  0.2004 -0.5854 -0.0027
11742WAT     H248774   0.218   6.149   7.870 -1.7796  1.0431 -0.4396
11742WAT    EPW48775   0.232   6.196   7.798 -0.3193  0.3245 -0.6607
11743WAT      O48776   5.412   2.383   3.497 -0.7182  0.0183 -0.3947
11743WAT     H148777   5.484   2.435   3.461  1.7056 -0.7438  2.8644
11743WAT     H248778   5.379   2.437   3.569 -2.6623 -0.1905 -1.0936
11743WAT    EPW48779   5.417   2.397   3.502 -0.6549 -0.1098 -0.0570
11744WAT      O48780   0.287   3.075   5.025  0.5449  0.0485  0.5321
11744WAT     H148781   0.357   3.094   4.963  1.8992 -2.5635  1.1390
11744WAT     H248782   0.207   3.101   4.980  1.4668 -1.7786 -2.3877
11744WAT    EPW48783   0.286   3.081   5.011  0.8451 -0.5372  0.2272
11745WAT      O48784   7.284   0.820   0.128  0.9375  0.0227 -0.2655
11745WAT     H148785   7.281   0.815   0.033 -1.7294  0.8629 -0.3097
11745WAT     H248786   7.356   0.881   0.147  3.4983 -2.3766 -1.4975
11745WAT    EPW48787   7.293   0.827   0.118  0.9236 -0.1829 -0.4338
11746WAT      O48788  -2.913   4.930   5.582 -0.0232 -0.2372 -0.2401
11746WAT     H148789  -2.824   4.963   5.592  0.2059 -0.9427  0.1399
11746WAT     H248790  -2.906   4.837   5.602 -0.7177 -0.4438 -0.9216
11746WAT    EPW48791  -2.900   4.922   5.586 -0.0846 -0.3576 -0.2799
11747WAT      O48792  -0.767   2.759   0.878  0.9335 -0.5114  0.1255
11747WAT     H148793  -0.764   2.669   0.912 -1.1321 -2.0988 -3.3192
11747WAT     H248794  -0.680   2.774   0.841  1.5389 -0.7385  1.4091
11747WAT    EPW48795  -0.755   2.749   0.877  0.7409 -0.7508 -0.1595
11748WAT      O48796   1.262   6.502   1.739  0.4350  0.4176 -0.4755
11748WAT     H148797   1.322   6.471   1.671 -1.6991 -0.2036 -2.1738
11748WAT     H248798   1.252   6.427   1.797 -0.6113 -0.3758 -1.6227
11748WAT    EPW48799   1.269   6.488   1.738  0.0156  0.2313 -0.8508
11749WAT      O48800   4.243   1.743   1.252  0.0037  0.2211  0.1937
11749WAT     H148801   4.210   1.828   1.280 -1.1006 -0.0722 -0.1783
11749WAT     H248802   4.258   1.695   1.334 -2.6713 -0.4377  0.3873
11749WAT    EPW48803   4.241   1.748   1.267 -0.4947  0.0955  0.1701
11750WAT      O48804  -0.509  10.227   8.712 -0.1260  0.0480 -0.2987
11750WAT     H148805  -0.510  10.292   8.783 -0.7873 -0.1437 -0.1289
11750WAT     H248806  -0.568  10.263   8.646  1.2421  0.7199 -1.2192
11750WAT    EPW48807  -0.517  10.240   8.713 -0.0328  0.1116 -0.3972
11751WAT      O48808   6.848   0.106   5.786  0.4251  0.0144 -0.4493
11751WAT     H148809   6.761   0.094   5.748  1.3058 -2.3538 -1.9177
11751WAT     H248810   6.832   0.119   5.879 -1.5198  0.3146 -0.7855
11751WAT    EPW48811   6.834   0.106   5.793  0.2847 -0.2584 -0.6874
11752WAT      O48812  -1.151   5.172   3.262 -0.7257  0.5480 -0.2116
11752WAT     H148813  -1.141   5.226   3.184 -0.2647  0.7244 -0.0354
11752WAT     H248814  -1.223   5.113   3.241  2.0008 -2.3583 -2.4912
11752WAT    EPW48815  -1.159   5.171   3.249 -0.3053  0.1881 -0.4890
11753WAT      O48816  -3.222   5.151   7.320 -0.1861  0.3671 -0.4198
11753WAT     H148817  -3.149   5.090   7.309  0.8307  0.7345  3.0490
11753WAT     H248818  -3.191   5.233   7.281  0.5888  0.0553 -0.4731
11753WAT    EPW48819  -3.209   5.154   7.313  0.0501  0.3746  0.0308
11754WAT      O48820   6.055   1.365   6.158 -0.0882 -0.0960 -0.5028
11754WAT     H148821   6.143   1.400   6.171  0.4250 -0.9559 -1.4827
11754WAT     H248822   6.011   1.431   6.104 -0.8699  1.4717  1.9046
11754WAT    EPW48823   6.061   1.378   6.152 -0.1237 -0.0027 -0.3145
11755WAT      O48824   2.295   3.612   5.223  0.0256  0.4250  0.2849
11755WAT     H148825   2.292   3.523   5.259 -0.1411  0.7862  1.2108
11755WAT     H248826   2.364   3.610   5.158 -0.6665 -0.6482 -0.4460
11755WAT    EPW48827   2.304   3.600   5.219 -0.0876  0.3312  0.3104
11756WAT      O48828   2.621   3.107   0.454  0.4821 -0.3451 -0.2296
11756WAT     H148829   2.609   3.181   0.514  0.9547 -1.8411  1.8373
11756WAT     H248830   2.532   3.082   0.430  0.3233  1.0210 -1.1661
11756WAT    EPW48831   2.608   3.113   0.459  0.5236 -0.3622 -0.0805
11757WAT      O48832   7.715   4.585   0.897 -0.4464  0.1429  0.2693
11757WAT     H148833   7.754   4.502   0.870  0.2816  0.6980 -0.4306
11757WAT     H248834   7.626   4.582   0.862  0.3436  0.6815 -1.9899
11757WAT    EPW48835   7.708   4.573   0.889 -0.2463  0.2871 -0.1210
11758WAT      O48836  -1.018   8.073   4.397 -0.4961  0.1381  0.0469
11758WAT     H148837  -1.068   7.993   4.382 -2.2765  1.3880 -1.0802
11758WAT     H248838  -0.963   8.082   4.319  0.3285 -0.3867  0.5506
11758WAT    EPW48839  -1.017   8.064   4.385 -0.6222  0.2341 -0.0355
11759WAT      O48840  -3.623   8.759   3.053 -0.9710  0.6194 -0.1710
11759WAT     H148841  -3.536   8.797   3.068  0.6298 -2.1185 -1.6273
11759WAT     H248842  -3.637   8.702   3.128 -1.0784  0.3400 -0.4041
11759WAT    EPW48843  -3.613   8.757   3.065 -0.7739  0.2213 -0.3939
11760WAT      O48844  -3.421   5.848   3.855 -0.9783 -0.9565  0.4035
11760WAT     H148845  -3.439   5.942   3.845 -0.0185 -0.8057  0.0522
11760WAT     H248846  -3.483   5.819   3.922  0.6802  0.5220  2.6831
11760WAT    EPW48847  -3.432   5.857   3.862 -0.6329 -0.7415  0.6578
11761WAT      O48848   2.933   3.531   2.623  0.1870 -0.0647 -0.0888
11761WAT     H148849   3.012   3.521   2.570 -0.1268 -0.2998 -0.5314
11761WAT     H248850   2.956   3.496   2.709  0.9145  0.9541  0.1404
11761WAT    EPW48851   2.946   3.525   2.627  0.2415  0.0386 -0.1169
11762WAT      O48852   0.744   2.976   3.522  0.7933  0.2062  0.3875
11762WAT     H148853   0.756   2.931   3.438  2.6178 -2.2223  1.8331
11762WAT     H248854   0.657   2.948   3.552  0.2601  0.8468 -0.5124
11762WAT    EPW48855   0.734   2.967   3.515  0.9636 -0.0296  0.4594
11763WAT      O48856   7.461   0.718   1.661 -0.0209 -0.6323  0.3032
11763WAT     H148857   7.511   0.678   1.590  3.1525 -0.0774  2.0492
11763WAT     H248858   7.456   0.650   1.729 -0.7600 -0.3408  0.5485
11763WAT    EPW48859   7.467   0.704   1.661  0.3002 -0.5207  0.5659
11764WAT      O48860   1.207   2.507   7.960 -0.1223 -0.4503 -0.6607
11764WAT     H148861   1.133   2.528   8.017  0.2896  3.1461 -1.1782
11764WAT     H248862   1.284   2.540   8.007  1.1337 -3.2801 -0.5464
11764WAT    EPW48863   1.207   2.514   7.974  0.0978 -0.3492 -0.7138
11765WAT      O48864  -2.048   5.117   8.731 -0.8307  0.1996 -0.0649
11765WAT     H148865  -1.979   5.156   8.677 -0.0476  1.4293  1.6979
11765WAT     H248866  -2.123   5.108   8.672  0.2601  0.5685 -1.5754
11765WAT    EPW48867  -2.049   5.121   8.716 -0.5835  0.4106 -0.0315
11766WAT      O48868   1.883   5.832   3.916  0.3954  0.2358 -0.1331
11766WAT     H148869   1.879   5.922   3.950 -1.7020 -0.1752  0.8400
11766WAT     H248870   1.875   5.777   3.994  1.3226 -0.8098 -0.7605
11766WAT    EPW48871   1.882   5.837   3.931  0.2411  0.0439 -0.0875
11767WAT      O48872  -0.972   1.793   3.677  0.3548 -0.1127  0.6917
11767WAT     H148873  -0.964   1.742   3.758  0.2418  0.2078  0.9049
11767WAT     H248874  -0.940   1.880   3.700 -1.6658  0.5945  0.9741
11767WAT    EPW48875  -0.966   1.798   3.691  0.0734  0.0228  0.7570
11768WAT      O48876   4.431  10.223   2.980 -0.2036 -0.5842  0.4268
11768WAT     H148877   4.487  10.146   2.968 -0.3020 -0.8100  1.3612
11768WAT     H248878   4.356  10.191   3.030 -1.2075 -0.2893 -0.8589
11768WAT    EPW48879   4.429  10.208   2.985 -0.3490 -0.5751  0.3805
11769WAT      O48880   5.406   6.710   4.152  0.4362  0.4584  0.4072
11769WAT     H148881   5.479   6.651   4.138 -0.1493  0.2428 -2.3628
11769WAT     H248882   5.446   6.797   4.160  1.0446  0.3937 -1.4924
11769WAT    EPW48883   5.421   6.714   4.151  0.4392  0.4215 -0.2086
11770WAT      O48884   7.559   0.908   1.267 -0.3202  0.7905  0.3323
11770WAT     H148885   7.504   0.958   1.327 -1.5608 -0.5011  0.3240
11770WAT     H248886   7.640   0.957   1.263 -1.1029  2.2236  1.1442
11770WAT    EPW48887   7.562   0.921   1.274 -0.5870  0.8092  0.4383
11771WAT      O48888  -2.980   8.205   7.743 -0.1014 -0.6073 -0.6017
11771WAT     H148889  -3.052   8.143   7.734  0.0378 -1.0508  1.0639
11771WAT     H248890  -2.901   8.151   7.731  0.0105  0.0466 -3.4288
11771WAT    EPW48891  -2.979   8.190   7.740 -0.0683 -0.5794 -0.7551
11772WAT      O48892   6.851   1.409   2.016 -0.5281  0.2338 -0.0463
11772WAT     H148893   6.805   1.449   1.941 -0.2196 -0.7112 -0.7650
11772WAT     H248894   6.943   1.408   1.989 -0.2940  0.6322  0.7072
11772WAT    EPW48895   6.857   1.414   2.002 -0.4566  0.1617 -0.0416
11773WAT      O48896   2.667   5.131   8.542 -0.0768 -0.0058 -0.2064
11773WAT     H148897   2.590   5.081   8.569  0.7429 -0.7567  0.8083
11773WAT     H248898   2.737   5.066   8.536  0.5370  0.7021 -0.9067
11773WAT    EPW48899   2.666   5.116   8.545  0.1123 -0.0114 -0.1650
11774WAT      O48900   3.490   1.657   3.180 -0.3805  0.3714  0.2529
11774WAT     H148901   3.573   1.705   3.184  0.9231 -1.7324  0.1031
11774WAT     H248902   3.479   1.620   3.268  1.3078 -3.0789 -0.8001
11774WAT    EPW48903   3.500   1.658   3.192  0.0142 -0.3611  0.0943
11775WAT      O48904   0.460   5.841   7.457 -0.0726 -0.6517 -0.7802
11775WAT     H148905   0.366   5.843   7.440 -0.8450 -3.7621  2.1902
11775WAT     H248906   0.499   5.838   7.369 -2.9133 -2.2300 -2.1549
11775WAT    EPW48907   0.453   5.841   7.443 -0.5491 -1.2701 -0.5698
11776WAT      O48908   5.171   1.309   5.815  0.3091 -0.3598  0.2783
11776WAT     H148909   5.194   1.376   5.880 -2.8231 -0.9639  2.2216
11776WAT     H248910   5.088   1.339   5.779  0.6572 -1.4308 -1.5229
11776WAT    EPW48911   5.163   1.322   5.819 -0.0582 -0.5808  0.2971
11777WAT      O48912   4.426   9.643   3.743  0.0753 -0.2758 -0.6853
11777WAT     H148913   4.483   9.613   3.672 -1.2002 -3.4646 -0.5559
11777WAT     H248914   4.378   9.716   3.706  0.8867 -0.5487 -2.4145
11777WAT    EPW48915   4.427   9.648   3.729  0.0141 -0.7319 -0.8963
11778WAT      O48916   6.406   9.128   0.743  0.2083 -0.3729  0.1171
11778WAT     H148917   6.460   9.200   0.710 -1.5946  1.0900  0.1967
11778WAT     H248918   6.387   9.075   0.666 -3.0113  2.3777 -1.2390
11778WAT    EPW48919   6.410   9.130   0.728 -0.4542  0.1831 -0.0513
11779WAT      O48920  -5.350  10.108   7.371  0.3321  0.5529  0.1641
11779WAT     H148921  -5.341  10.076   7.281  0.3959  2.8198 -0.7050
11779WAT     H248922  -5.444  10.108   7.387  0.2256  1.4635 -0.4310
11779WAT    EPW48923  -5.361  10.103   7.361  0.3264  0.9718 -0.0291
11780WAT      O48924  -5.901   8.952   7.940 -0.0211 -0.0650 -0.5990
11780WAT     H148925  -5.828   8.914   7.989 -1.4171  1.6498  3.2338
11780WAT     H248926  -5.889   9.047   7.949 -1.7193  0.2856 -1.5056
11780WAT    EPW48927  -5.890   8.960   7.947 -0.4292  0.2079 -0.2129
11781WAT      O48928  -1.652   0.675   5.043 -0.2911 -0.3499 -0.6960
11781WAT     H148929  -1.683   0.602   4.990 -1.4756 -1.5562  1.4827
11781WAT     H248930  -1.599   0.633   5.112  0.5111  1.0513 -0.4225
11781WAT    EPW48931  -1.649   0.660   5.045 -0.3415 -0.3242 -0.3729
11782WAT      O48932   1.643   9.423   0.602 -0.3566  0.0268 -0.0475
11782WAT     H148933   1.733   9.421   0.570  0.2466 -1.4298  1.6038
11782WAT     H248934   1.648   9.387   0.690 -2.7145 -1.0787 -0.2931
11782WAT    EPW48935   1.655   9.418   0.609 -0.5881 -0.3114  0.1379
11783WAT      O48936   5.510   0.318   5.181 -0.6920 -0.8718 -0.2527
11783WAT     H148937   5.450   0.332   5.107 -0.5819  2.0498  0.1085
11783WAT     H248938   5.467   0.360   5.255 -0.3037 -2.8415  1.1835
11783WAT    EPW48939   5.496   0.325   5.181 -0.6263 -0.7463 -0.0153
11784WAT      O48940  -4.539   4.408   6.698 -0.0858  0.1183  0.3142
11784WAT     H148941  -4.604   4.433   6.764  1.1867  1.9708  0.9548
11784WAT     H248942  -4.587   4.353   6.636 -2.3420  1.6589  0.5817
11784WAT    EPW48943  -4.554   4.404   6.699 -0.2155  0.5658  0.4339
11785WAT      O48944  -1.825   2.903   3.498 -0.5399  0.7448  0.2201
11785WAT     H148945  -1.782   2.958   3.433 -0.4431  0.7331  0.2744
11785WAT     H248946  -1.792   2.935   3.582 -0.8949  0.9591  0.2786
11785WAT    EPW48947  -1.815   2.915   3.501 -0.5739  0.7716  0.2350
11786WAT      O48948   2.274   8.620   4.414  0.4491  0.4363  0.0379
11786WAT     H148949   2.269   8.571   4.496 -0.0771 -3.1380 -1.9490
11786WAT     H248950   2.187   8.657   4.403 -0.9200 -2.7448 -0.8625
11786WAT    EPW48951   2.262   8.619   4.424  0.1992 -0.4549 -0.3428
11787WAT      O48952   2.893   2.918   7.690  0.5095  0.2774 -0.5908
11787WAT     H148953   2.834   2.994   7.700 -1.8336 -1.0566 -2.9354
11787WAT     H248954   2.879   2.866   7.768 -2.1165 -0.3415 -1.3758
11787WAT    EPW48955   2.883   2.921   7.701 -0.1459  0.0199 -1.0037
11788WAT      O48956   5.553   1.255   2.966 -0.6931  0.0641 -0.7076
11788WAT     H148957   5.474   1.307   2.976 -1.4474 -0.7339 -2.1751
11788WAT     H248958   5.534   1.195   2.894  0.8312 -0.9416 -0.3365
11788WAT    EPW48959   5.540   1.254   2.958 -0.5915 -0.1738 -0.8522
11789WAT      O48960   5.546   1.337   3.921 -0.1664 -0.7676  0.2953
11789WAT     H148961   5.613   1.293   3.974  1.6081 -0.0555 -1.2332
11789WAT     H248962   5.530   1.419   3.966  2.2887  0.4231 -0.8241
11789WAT    EPW48963   5.553   1.342   3.934  0.3915 -0.5167 -0.0540
11790WAT      O48964  -2.520   7.880   3.745  0.5437 -0.4915  0.6216
11790WAT     H148965  -2.442   7.914   3.790  1.3630 -2.6734  0.9861
11790WAT     H248966  -2.497   7.883   3.652  1.0721 -1.0763  0.7242
11790WAT    EPW48967  -2.506   7.885   3.739  0.7215 -0.8564  0.6832
11791WAT      O48968   1.721   1.503   6.914  0.3090 -0.4397 -0.0036
11791WAT     H148969   1.677   1.455   6.984  0.0380 -1.9847 -1.1761
11791WAT     H248970   1.661   1.498   6.840  0.2492  1.8073 -0.1935
11791WAT    EPW48971   1.708   1.496   6.913  0.2654 -0.3471 -0.1833
11792WAT      O48972  -3.676   9.096   3.642 -0.7096  0.2387  0.3512
11792WAT     H148973  -3.630   9.176   3.617 -1.0522  0.0325 -1.0089
11792WAT     H248974  -3.739   9.081   3.572  1.0597 -2.5951 -0.8167
11792WAT    EPW48975  -3.678   9.104   3.630 -0.5215 -0.1626  0.0178
11793WAT      O48976   7.367   1.910   3.605 -0.6535  0.4090 -0.1211
11793WAT     H148977   7.420   1.839   3.642  1.4028  1.5160 -0.7934
11793WAT     H248978   7.365   1.977   3.674 -0.3380  0.7529 -0.4356
11793WAT    EPW48979   7.374   1.910   3.619 -0.3407  0.6003 -0.2512
11794WAT      O48980   4.867   7.206   5.222 -0.0991  0.1853 -0.4934
11794WAT     H148981   4.962   7.213   5.217 -0.1285  1.2799  0.1792
11794WAT     H248982   4.850   7.112   5.221  0.9925 -0.0203 -0.5734
11794WAT    EPW48983   4.877   7.194   5.221  0.0410  0.3026 -0.4151
11795WAT      O48984   8.523   4.183   1.551 -0.3738 -0.2665  0.1085
11795WAT     H148985   8.540   4.133   1.471 -0.2761 -1.0235  0.5998
11795WAT     H248986   8.606   4.228   1.569 -0.2369 -0.4993  0.0643
11795WAT    EPW48987   8.536   4.183   1.543 -0.3428 -0.3972  0.1675
11796WAT      O48988   7.397   1.087   4.137 -0.3335 -0.3157 -0.0320
11796WAT     H148989   7.435   1.000   4.148 -1.4386 -0.7162  0.7973
11796WAT     H248990   7.331   1.093   4.206 -4.0002 -0.8802 -3.1353
11796WAT    EPW48991   7.393   1.076   4.147 -0.9627 -0.4429 -0.3319
11797WAT      O48992   1.658   5.797   4.845  0.3182 -0.2035  0.6943
11797WAT     H148993   1.581   5.852   4.858  0.2620  0.6328 -2.4392
11797WAT     H248994   1.732   5.858   4.854  0.3358  0.0699 -0.9852
11797WAT    EPW48995   1.658   5.812   4.848  0.3132 -0.0572  0.0594
11798WAT      O48996  -4.556   4.802   6.686 -0.5681 -0.6548  0.5746
11798WAT     H148997  -4.639   4.844   6.707 -1.2700 -2.1135  0.8111
11798WAT     H248998  -4.572   4.755   6.605 -0.2853 -1.7936  1.1675
11798WAT    EPW48999  -4.569   4.802   6.678 -0.6232 -0.9975  0.6840
11799WAT      O49000   4.469   3.319   0.100  0.1204  0.7446  0.6461
11799WAT     H149001   4.531   3.249   0.076  0.1603  0.7517  0.7288
11799WAT     H249002   4.499   3.395   0.051 -0.0351  0.6541  0.4094
11799WAT    EPW49003   4.481   3.319   0.090  0.1051  0.7336  0.6258
11800WAT      O49004   4.834   1.407   1.708 -0.1673  0.1685  0.2786
11800WAT     H149005   4.897   1.472   1.739  2.1875 -2.8724  2.3686
11800WAT     H249006   4.768   1.403   1.777  0.6790 -0.8535  1.0623
11800WAT    EPW49007   4.833   1.415   1.721  0.2549 -0.3673  0.6576
11801WAT      O49008   6.959   4.775   2.105  0.4839  1.0809 -0.8547
11801WAT     H149009   6.960   4.691   2.150  0.8011  1.9077  0.7528
11801WAT     H249010   6.919   4.757   2.020  1.0388 -0.7843 -0.7537
11801WAT    EPW49011   6.954   4.762   2.099  0.5991  0.9439 -0.6294
11802WAT      O49012   7.047   8.572   0.138 -0.5069  0.0688 -0.0323
11802WAT     H149013   7.075   8.500   0.194  0.6415  0.6691  0.1899
11802WAT     H249014   6.972   8.611   0.183 -0.4481 -0.2968  0.3831
11802WAT    EPW49015   7.040   8.568   0.151 -0.3476  0.0997  0.0518
11803WAT      O49016  -2.406   4.476   7.247 -0.6688  0.2159 -0.4958
11803WAT     H149017  -2.474   4.468   7.313 -1.0823  1.4736 -0.7449
11803WAT     H249018  -2.366   4.389   7.243 -2.1570 -0.5083 -0.2485
11803WAT    EPW49019  -2.409   4.464   7.255 -0.9197  0.2861 -0.4961
11804WAT      O49020   0.758   3.795   2.903  0.5732  0.1743  0.4926
11804WAT     H149021   0.758   3.758   2.814  0.9794  1.1406  0.0736
11804WAT     H249022   0.753   3.889   2.889 -1.8377  0.2734  1.5395
11804WAT    EPW49023   0.757   3.802   2.889  0.3088  0.3147  0.5755
11805WAT      O49024   0.092   5.620   2.856 -0.3096  0.3087  0.4283
11805WAT     H149025   0.123   5.691   2.911 -0.0539  0.7262 -0.2460
11805WAT     H249026   0.156   5.550   2.869  0.9444  1.1535 -0.9364
11805WAT    EPW49027   0.105   5.620   2.865 -0.1105  0.4752  0.1594
11806WAT      O49028  -3.745   1.931   7.451 -0.0354  0.3274 -0.2184
11806WAT     H149029  -3.763   2.011   7.401  1.0882  0.0574 -1.1081
11806WAT     H249030  -3.653   1.912   7.432  0.7388  0.7230  2.7360
11806WAT    EPW49031  -3.735   1.939   7.442  0.2149  0.3439  0.0539
11807WAT      O49032  -2.655  10.080   8.023  0.7036  0.3575  0.9431
11807WAT     H149033  -2.604  10.034   7.957 -0.7715  0.0120 -0.0058
11807WAT     H249034  -2.714  10.014   8.058 -2.4164  1.6658 -1.4135
11807WAT    EPW49035  -2.656  10.065   8.019  0.0976  0.4845  0.5074
11808WAT      O49036  -1.089   9.180   7.999 -0.1680 -0.3387  0.6190
11808WAT     H149037  -1.005   9.218   8.025 -0.3598 -0.4874  1.5052
11808WAT     H249038  -1.146   9.256   7.985  0.2302 -0.2262 -0.4090
11808WAT    EPW49039  -1.086   9.195   8.001 -0.1408 -0.3433  0.6003
11809WAT      O49040   5.839   9.475   0.022  0.2853 -0.2425 -0.5357
11809WAT     H149041   5.778   9.525   0.075  2.2057 -0.1941  1.8238
11809WAT     H249042   5.879   9.540  -0.037  0.0097  0.2443 -0.1931
11809WAT    EPW49043   5.836   9.490   0.021  0.5023 -0.1717 -0.1793
11810WAT      O49044   3.598   2.319   2.020 -0.6624  0.4478 -0.6503
11810WAT     H149045   3.676   2.371   2.037  0.0411  0.0647 -2.5422
11810WAT     H249046   3.590   2.316   1.925 -2.9165  0.3530 -0.5250
11810WAT    EPW49047   3.607   2.325   2.010 -0.8670  0.3847 -0.8833
11811WAT      O49048   0.921   1.533   5.489 -0.4086 -0.0530 -0.0597
11811WAT     H149049   0.986   1.568   5.549 -0.4387 -0.8630  0.4499
11811WAT     H249050   0.971   1.496   5.417 -0.3800  1.1691 -0.6944
11811WAT    EPW49051   0.936   1.533   5.487 -0.4088  0.0014 -0.0763
11812WAT      O49052   5.611   6.051   0.067  0.4883  0.3182  0.2093
11812WAT     H149053   5.695   6.081   0.100  0.7678  0.1148 -0.3163
11812WAT     H249054   5.631   5.972   0.017  0.6423  2.4528 -3.4992
11812WAT    EPW49055   5.624   6.044   0.065  0.5455  0.5729 -0.3492
11813WAT      O49056  -1.439   2.217   1.962 -0.0612  0.4498 -0.2290
11813WAT     H149057  -1.479   2.224   1.875  0.9684  0.7615 -0.7012
11813WAT     H249058  -1.408   2.127   1.968  1.0617  0.7785 -0.7550
11813WAT    EPW49059  -1.440   2.206   1.951  0.2227  0.5343 -0.3607
11814WAT      O49060   5.300   7.034   4.878 -0.8063 -0.0826  1.2369
11814WAT     H149061   5.230   7.096   4.899  0.6152  2.0717 -0.0054
11814WAT     H249062   5.377   7.089   4.864  0.5318 -2.1542 -0.0352
11814WAT    EPW49063   5.301   7.049   4.879 -0.4423 -0.0718  0.9055
11815WAT      O49064   2.421   2.757   0.376 -0.1813 -0.0725  0.0211
11815WAT     H149065   2.402   2.847   0.350 -2.8797 -0.1590  1.3443
11815WAT     H249066   2.469   2.720   0.302 -1.0864  1.7559 -1.5656
11815WAT    EPW49067   2.425   2.764   0.363 -0.6566  0.1574 -0.0137
11816WAT      O49068   0.897   8.581   0.591 -0.0131 -0.5029  0.0760
11816WAT     H149069   0.956   8.569   0.517  0.7440 -1.2845  0.7848
11816WAT     H249070   0.824   8.633   0.556  1.7862  1.7957 -0.4564
11816WAT    EPW49071   0.895   8.587   0.576  0.3241 -0.3028  0.0993
11817WAT      O49072  -3.713   4.923   6.853 -0.2038  0.1581  0.1688
11817WAT     H149073  -3.694   4.979   6.777 -0.0199  0.4855  0.4479
11817WAT     H249074  -3.730   4.985   6.924  0.5305 -0.1327  0.6172
11817WAT    EPW49075  -3.713   4.939   6.852 -0.0827  0.1633  0.2649
11818WAT      O49076  -0.799   9.139   2.553 -0.5891 -0.0930 -0.2691
11818WAT     H149077  -0.793   9.224   2.507 -0.4741 -0.6174 -1.2503
11818WAT     H249078  -0.817   9.163   2.644 -1.7527  0.9649 -0.7435
11818WAT    EPW49079  -0.801   9.154   2.559 -0.7274 -0.0224 -0.4611
11819WAT      O49080  -3.836   9.873   6.837 -0.2719 -0.0065 -0.5392
11819WAT     H149081  -3.745   9.891   6.812  0.0889 -1.0875 -0.0798
11819WAT     H249082  -3.832   9.787   6.879 -1.5068 -0.0418 -0.4686
11819WAT    EPW49083  -3.823   9.864   6.839 -0.3872 -0.1540 -0.4694
11820WAT      O49084   4.118   1.030   0.630 -0.0930 -0.4610  0.6727
11820WAT     H149085   4.161   1.031   0.545  0.8372 -0.1093  1.1219
11820WAT     H249086   4.188   1.053   0.692 -0.7207 -0.8133  1.5386
11820WAT    EPW49087   4.133   1.033   0.627 -0.0532 -0.4611  0.8462
11821WAT      O49088   2.886   5.766   2.482 -0.0588 -0.1787  1.1002
11821WAT     H149089   2.938   5.775   2.561  0.9367 -1.0702  0.5798
11821WAT     H249090   2.926   5.828   2.420  0.0055 -0.4241  0.8934
11821WAT    EPW49091   2.898   5.776   2.484  0.0811 -0.3288  1.0043
11822WAT      O49092  -2.323   7.793   4.847 -0.3842  0.4160  0.6078
11822WAT     H149093  -2.298   7.759   4.761  0.7063  1.4948  0.4762
11822WAT     H249094  -2.375   7.723   4.886 -0.8377 -0.1197 -0.8982
11822WAT    EPW49095  -2.327   7.779   4.841 -0.3002  0.4876  0.3917
11823WAT      O49096   1.595   5.096   1.811 -0.7737  0.6447  0.2648
11823WAT     H149097   1.667   5.040   1.782  0.6759  1.4604  2.1394
11823WAT     H249098   1.611   5.180   1.767  0.2091  1.2167  1.6269
11823WAT    EPW49099   1.607   5.100   1.801 -0.4529  0.8276  0.6918
11824WAT      O49100   0.334   8.828   4.349  0.9983  0.5354 -0.2909
11824WAT     H149101   0.308   8.919   4.340  3.5671  1.3298 -0.3733
11824WAT     H249102   0.373   8.805   4.264  0.3977 -0.6502 -0.2718
11824WAT    EPW49103   0.336   8.837   4.337  1.2579  0.4840 -0.2992
11825WAT      O49104  -3.703   7.883   8.995  0.2499 -0.3884  0.1955
11825WAT     H149105  -3.757   7.961   8.994  1.7170  0.6664  0.7434
11825WAT     H249106  -3.657   7.885   8.911  0.8427 -0.2492  0.5171
11825WAT    EPW49107  -3.704   7.893   8.984  0.5217 -0.2310  0.3099
11826WAT      O49108  -1.686   1.105   8.629  0.9571  0.1971 -0.4329
11826WAT     H149109  -1.617   1.171   8.634  2.3400 -1.2850  1.0883
11826WAT     H249110  -1.649   1.035   8.575 -0.4841  0.5668 -2.0050
11826WAT    EPW49111  -1.672   1.104   8.622  0.9494  0.0504 -0.4396
11827WAT      O49112   0.181   5.251   4.538 -0.3460  0.2890  0.1430
11827WAT     H149113   0.173   5.206   4.622 -0.4916 -0.9360 -0.5120
11827WAT     H249114   0.133   5.333   4.550 -2.8917 -1.1159  0.3883
11827WAT    EPW49115   0.174   5.256   4.551 -0.7010 -0.0577  0.0889
11828WAT      O49116  -2.401   3.938   6.815  0.0786  0.2432 -0.1843
11828WAT     H149117  -2.431   4.009   6.758 -0.1664 -0.4484 -0.9241
11828WAT     H249118  -2.468   3.931   6.883  0.0508  0.6347 -0.1652
11828WAT    EPW49119  -2.414   3.947   6.817  0.0427  0.2036 -0.2792
11829WAT      O49120   4.318   7.371   4.987 -0.6893  0.5053  0.3038
11829WAT     H149121   4.294   7.458   4.956 -1.2357  0.1781 -0.2138
11829WAT     H249122   4.275   7.311   4.926  0.1840 -0.1215  0.2869
11829WAT    EPW49123   4.309   7.374   4.975 -0.6461  0.3793  0.2332
11830WAT      O49124  -4.511   1.258   7.007  0.5958 -0.7515  0.3566
11830WAT     H149125  -4.472   1.323   7.066  1.7334 -1.5209  0.4756
11830WAT     H249126  -4.577   1.214   7.060  1.9816 -1.8107  1.2639
11830WAT    EPW49127  -4.515   1.261   7.021  0.9286 -0.9927  0.4921
11831WAT      O49128   1.216   4.304   5.527  0.3482 -0.1013 -0.2875
11831WAT     H149129   1.197   4.270   5.615 -1.3465 -1.3493 -1.0790
11831WAT     H249130   1.203   4.228   5.470  1.2930  0.7333 -1.6348
11831WAT    EPW49131   1.211   4.289   5.531  0.2493 -0.1557 -0.5698
11832WAT      O49132  -3.293  10.291   8.322  0.1429  0.0273 -0.7011
11832WAT     H149133  -3.234  10.236   8.270 -0.3735  0.3979 -1.7129
11832WAT     H249134  -3.379  10.250   8.311  0.3321 -1.1688  1.6790
11832WAT    EPW49135  -3.296  10.278   8.313  0.0999 -0.0815 -0.5202
11833WAT      O49136   3.480   5.894   6.782 -0.5232  0.0017 -0.0250
11833WAT     H149137   3.491   5.931   6.694  2.0633 -1.5824 -0.4834
11833WAT     H249138   3.548   5.827   6.788 -1.5442 -0.9216  2.7021
11833WAT    EPW49139   3.490   5.890   6.771 -0.3167 -0.3290  0.2742
11834WAT      O49140   3.914   2.143   3.214 -0.1295 -0.0052 -0.1235
11834WAT     H149141   3.976   2.096   3.158  1.3849  0.6022  0.9804
11834WAT     H249142   3.903   2.228   3.171 -0.2040 -0.1204 -0.3330
11834WAT    EPW49143   3.921   2.148   3.201  0.0603  0.0598 -0.0055
11835WAT      O49144   8.161   3.083   1.514 -0.1687  0.3501  0.2026
11835WAT     H149145   8.091   3.135   1.554  0.6997  0.8520  1.0936
11835WAT     H249146   8.241   3.114   1.555  0.6631  0.2117 -1.2567
11835WAT    EPW49147   8.162   3.094   1.525  0.0558  0.3980  0.1277
11836WAT      O49148  -2.226   3.753   8.122 -0.7385 -0.0101 -0.4828
11836WAT     H149149  -2.143   3.720   8.085 -0.1698 -0.5529  1.1706
11836WAT     H249150  -2.213   3.747   8.217 -2.3033  0.8884 -0.1906
11836WAT    EPW49151  -2.213   3.748   8.130 -0.8699  0.0370 -0.2260
11837WAT      O49152   5.877   8.486   1.361  0.2211  0.0501  0.9389
11837WAT     H149153   5.910   8.554   1.419  1.6950  1.9226 -1.8685
11837WAT     H249154   5.889   8.521   1.273 -2.2019 -2.4665 -0.5587
11837WAT    EPW49155   5.883   8.499   1.357  0.0958 -0.0348  0.3711
11838WAT      O49156  -2.144  10.153   1.124  0.0868  0.3692 -0.6825
11838WAT     H149157  -2.189  10.235   1.144 -0.5597  0.0785 -0.9156
11838WAT     H249158  -2.073  10.148   1.188 -0.1100  0.9168 -0.4171
11838WAT    EPW49159  -2.140  10.164   1.135 -0.0244  0.4029 -0.6782
11839WAT      O49160   2.214   6.513   4.260 -0.0798 -0.1324  0.2764
11839WAT     H149161   2.159   6.566   4.318 -2.1341 -0.0148 -1.6255
11839WAT     H249162   2.290   6.569   4.242  0.0419  0.2807  1.8810
11839WAT    EPW49163   2.216   6.528   4.265 -0.3346 -0.0622  0.2372
11840WAT      O49164  -1.355   4.939   5.326  0.1823  0.4768  0.0902
11840WAT     H149165  -1.438   4.950   5.280  0.4671  0.4265 -0.4534
11840WAT     H249166  -1.312   4.866   5.280 -1.1648 -2.2960  2.8669
11840WAT    EPW49167  -1.360   4.931   5.314  0.0423  0.1047  0.3846
11841WAT      O49168   6.202   5.660   0.749 -0.0421 -0.0642 -0.3464
11841WAT     H149169   6.146   5.716   0.695  0.8402  0.5686 -0.6408
11841WAT     H249170   6.277   5.641   0.692  0.1170 -0.7534  0.0939
11841WAT    EPW49171   6.205   5.665   0.734  0.0954 -0.0715 -0.3272
11842WAT      O49172   1.079   0.740   7.007 -0.3619 -0.3684  0.2638
11842WAT     H149173   1.108   0.794   7.081  0.6034  0.9862 -1.0632
11842WAT     H249174   0.985   0.757   7.000 -0.1501  0.8007  0.1445
11842WAT    EPW49175   1.070   0.749   7.016 -0.2067 -0.0355  0.0730
11843WAT      O49176   2.795   2.961   1.192  0.5859  0.2970  0.6094
11843WAT     H149177   2.760   2.943   1.105 -1.1789 -1.9745  1.6969
11843WAT     H249178   2.875   2.908   1.197 -0.8962 -2.0266  1.3279
11843WAT    EPW49179   2.801   2.952   1.181  0.1576 -0.3091  0.8476
11844WAT      O49180  -1.652   4.033   0.510  0.4125 -0.2550  0.4962
11844WAT     H149181  -1.740   4.060   0.483  0.3530 -0.9913 -0.0617
11844WAT     H249182  -1.611   4.114   0.542  1.1482  1.1390 -3.4475
11844WAT    EPW49183  -1.658   4.047   0.511  0.5016 -0.1681 -0.0975
11845WAT      O49184   2.397   9.144   4.997 -0.1231  0.6468 -0.2379
11845WAT     H149185   2.481   9.129   5.041  0.2775  3.1605  0.0600
11845WAT     H249186   2.341   9.073   5.026  1.7324 -0.8031 -0.0163
11845WAT    EPW49187   2.401   9.133   5.007  0.1745  0.7873 -0.1693
11846WAT      O49188   5.701   0.650   5.808  0.2452 -0.1142  0.0894
11846WAT     H149189   5.791   0.618   5.806 -0.1291 -1.4300  1.5148
11846WAT     H249190   5.695   0.712   5.736  1.6993 -1.5857 -1.3743
11846WAT    EPW49191   5.712   0.654   5.799  0.3877 -0.4818  0.0844
11847WAT      O49192   4.119   2.815   0.172  0.8997  0.2575  0.3878
11847WAT     H149193   4.043   2.760   0.189  1.5586 -1.2360 -1.2513
11847WAT     H249194   4.142   2.851   0.258 -0.5692 -0.6516  1.2022
11847WAT    EPW49195   4.112   2.813   0.185  0.7927 -0.0595  0.2790
11848WAT      O49196   5.687   5.768   0.066 -0.8607 -0.1233  0.3708
11848WAT     H149197   5.700   5.794   0.158  0.6036  0.9147 -0.1081
11848WAT     H249198   5.630   5.691   0.072  0.9195 -1.4281  2.3069
11848WAT    EPW49199   5.681   5.761   0.079 -0.4327 -0.1585  0.5630
11849WAT      O49200   3.264   6.627   4.535 -0.2169 -0.2627 -0.0594
11849WAT     H149201   3.301   6.714   4.523  0.3792 -0.7255 -2.0048
11849WAT     H249202   3.175   6.633   4.500 -0.2608 -0.3509  0.0381
11849WAT    EPW49203   3.257   6.639   4.528 -0.1440 -0.3355 -0.3033
11850WAT      O49204   2.344   3.454   3.966 -0.6114  0.5186 -0.4597
11850WAT     H149205   2.356   3.545   3.992  0.7872  0.9312 -2.3557
11850WAT     H249206   2.432   3.418   3.961 -1.1875 -1.3574  1.4669
11850WAT    EPW49207   2.357   3.461   3.969 -0.5029  0.3256 -0.4557
11851WAT      O49208  -1.321   2.457   2.383 -0.3765 -0.0852  0.1996
11851WAT     H149209  -1.348   2.372   2.419  0.4356 -0.1132  0.7789
11851WAT     H249210  -1.225   2.456   2.390 -0.3670  0.9465  0.3627
11851WAT    EPW49211  -1.312   2.445   2.389 -0.2682  0.0472  0.2975
11852WAT      O49212  -3.534   2.508   7.730 -0.1282 -0.1400  0.1245
11852WAT     H149213  -3.615   2.460   7.711  0.1583 -0.2797 -0.7982
11852WAT     H249214  -3.533   2.579   7.665  0.1437  0.2785  0.5809
11852WAT    EPW49215  -3.545   2.511   7.719 -0.0545 -0.1031  0.0629
11853WAT      O49216   0.101   0.160   7.817 -0.4715  0.3407  0.9914
11853WAT     H149217   0.125   0.165   7.909 -3.9281  1.9772  1.9772
11853WAT     H249218   0.081   0.251   7.793 -0.4739 -0.1684 -1.1448
11853WAT    EPW49219   0.102   0.173   7.826 -0.9277  0.4894  0.8397
11854WAT      O49220   4.874   1.415   2.478  0.1172 -0.1695 -0.2036
11854WAT     H149221   4.801   1.372   2.434  2.4438 -3.6810 -1.0900
11854WAT     H249222   4.921   1.461   2.408 -1.1854  2.2335  0.3917
11854WAT    EPW49223   4.871   1.415   2.463  0.2520 -0.3157 -0.2420
11855WAT      O49224   1.959   2.606   7.090  0.2850  0.1782  0.7219
11855WAT     H149225   1.970   2.700   7.075 -1.6062  0.7307  2.3874
11855WAT     H249226   1.896   2.600   7.162 -0.1800 -2.3906  0.2053
11855WAT    EPW49227   1.953   2.617   7.097 -0.0257 -0.0876  0.8733
11856WAT      O49228  -0.041   1.623   8.090  0.2287 -0.1518  0.1512
11856WAT     H149229  -0.053   1.550   8.029 -2.6158 -0.2068  0.6025
11856WAT     H249230  -0.030   1.580   8.175  2.2405 -0.0445 -0.0132
11856WAT    EPW49231  -0.041   1.608   8.093  0.1189 -0.1449  0.1888
11857WAT      O49232   1.726   2.711   7.665 -0.2926 -0.2725  0.1228
11857WAT     H149233   1.696   2.622   7.683 -0.6835 -0.1645  0.0285
11857WAT     H249234   1.821   2.708   7.677 -0.6370  0.2459  4.1692
11857WAT    EPW49235   1.735   2.699   7.669 -0.3896 -0.1899  0.6440
11858WAT      O49236   6.213   5.622   3.168  0.3200  0.1699  0.1437
11858WAT     H149237   6.165   5.655   3.092  1.0631  2.0700  0.4487
11858WAT     H249238   6.193   5.528   3.170 -1.4853  0.4853 -1.0826
11858WAT    EPW49239   6.204   5.614   3.158  0.1800  0.4621  0.0223
11859WAT      O49240   4.575   0.214   5.203  0.5802  0.0296  0.1427
11859WAT     H149241   4.596   0.180   5.290 -0.7748 -0.9727  0.1095
11859WAT     H249242   4.652   0.192   5.150  0.3709 -1.7257  0.4895
11859WAT    EPW49243   4.588   0.207   5.208  0.3738 -0.3341  0.1841
11860WAT      O49244   2.111   6.620   6.859  0.0605  0.1505  0.2491
11860WAT     H149245   2.171   6.692   6.878  1.2108 -0.8061  0.3361
11860WAT     H249246   2.067   6.603   6.943  0.3074  0.2698  0.4046
11860WAT    EPW49247   2.113   6.628   6.873  0.2449  0.0401  0.2809
11861WAT      O49248  -2.297   3.557   2.125  0.1088 -0.1706  0.2735
11861WAT     H149249  -2.322   3.648   2.139 -0.8539 -0.5735  1.4698
11861WAT     H249250  -2.250   3.557   2.042 -1.1633  1.1818 -0.5057
11861WAT    EPW49251  -2.294   3.569   2.116 -0.1860 -0.0454  0.3284
11862WAT      O49252   1.498   1.349   4.774 -0.3541  0.1598  0.2364
11862WAT     H149253   1.574   1.388   4.819  1.3720 -1.9754 -0.5970
11862WAT     H249254   1.453   1.301   4.843  1.2602 -1.6155  0.1570
11862WAT    EPW49255   1.502   1.348   4.789  0.0865 -0.3560  0.1159
11863WAT      O49256  -4.286   1.990   6.526  0.3088  0.8959 -0.1605
11863WAT     H149257  -4.233   1.929   6.475 -0.5480  0.3191 -0.3603
11863WAT     H249258  -4.347   2.028   6.463 -0.8433  0.0835  0.4252
11863WAT    EPW49259  -4.287   1.987   6.511  0.0439  0.7126 -0.1094
11864WAT      O49260   5.188   4.642   2.045  0.6722  0.4875  0.7751
11864WAT     H149261   5.197   4.671   2.136 -0.7283  1.0912  0.7443
11864WAT     H249262   5.249   4.697   1.996 -0.3537  1.9269  1.0343
11864WAT    EPW49263   5.197   4.653   2.050  0.3521  0.7570  0.8053
11865WAT      O49264   2.322   6.191   0.360 -0.1684 -0.1380  0.3810
11865WAT     H149265   2.388   6.191   0.430  1.0428 -1.3743 -0.6870
11865WAT     H249266   2.320   6.281   0.329  1.8641 -0.2691 -0.2799
11865WAT    EPW49267   2.331   6.203   0.365  0.2594 -0.3183  0.1530
11866WAT      O49268  -0.429   6.450   2.508  0.0103  0.3091  0.1938
11866WAT     H149269  -0.397   6.360   2.500 -1.2984 -0.2272  0.7407
11866WAT     H249270  -0.357   6.504   2.474  0.9922 -0.9044  0.2703
11866WAT    EPW49271  -0.415   6.446   2.502 -0.0328  0.0784  0.2760
11867WAT      O49272  -0.649   6.097   7.972  0.0317 -0.1955  0.1208
11867WAT     H149273  -0.592   6.092   7.895  1.6786  1.6608  1.1037
11867WAT     H249274  -0.594   6.138   8.039 -1.9389 -0.0100  1.7157
11867WAT    EPW49275  -0.634   6.102   7.970 -0.0110  0.0737  0.4606
11868WAT      O49276  -3.894   8.669   2.684 -0.5036 -0.7268 -0.7025
11868WAT     H149277  -3.985   8.699   2.678 -0.9217 -1.8323 -0.1468
11868WAT     H249278  -3.898   8.593   2.742  1.0003  0.0791  0.4938
11868WAT    EPW49279  -3.907   8.663   2.691 -0.3604 -0.7663 -0.4715
11869WAT      O49280  -0.086   2.738   5.060  0.3398 -0.7671 -0.1084
11869WAT     H149281   0.001   2.769   5.035 -0.6758  2.0036 -0.6762
11869WAT     H249282  -0.096   2.654   5.017  2.1827 -0.4441 -1.2499
11869WAT    EPW49283  -0.076   2.731   5.051  0.4489 -0.3591 -0.3335
11870WAT      O49284  -2.649   4.295   7.953  0.0289  0.1213 -0.5565
11870WAT     H149285  -2.618   4.326   7.868  0.2301  2.6256  0.3615
11870WAT     H249286  -2.573   4.249   7.991  1.6148  3.1155  0.1769
11870WAT    EPW49287  -2.635   4.293   7.947  0.2645  0.8466 -0.3388
11871WAT      O49288  -0.352   4.382   2.124 -0.1853 -0.5434 -0.2592
11871WAT     H149289  -0.399   4.426   2.195  0.3953 -0.2493 -0.0567
11871WAT     H249290  -0.420   4.334   2.077 -1.1775  1.9017 -1.5109
11871WAT    EPW49291  -0.367   4.382   2.127 -0.2396 -0.1822 -0.3976
11872WAT      O49292   0.288   2.330   0.446  0.3118  0.0861 -0.2632
11872WAT     H149293   0.291   2.295   0.535 -1.7120 -1.0985 -0.5835
11872WAT     H249294   0.315   2.421   0.455  1.8888 -0.4790  1.2432
11872WAT    EPW49295   0.292   2.337   0.459  0.2529 -0.1447 -0.1067
11873WAT      O49296   6.536   1.301   2.978  0.6539  0.4153  0.2658
11873WAT     H149297   6.495   1.216   2.993  2.3180 -0.1371  2.0678
11873WAT     H249298   6.493   1.334   2.899 -3.1863 -0.1141  1.8948
11873WAT    EPW49299   6.525   1.294   2.970  0.3669  0.2726  0.7184
11874WAT      O49300  -1.802   0.268   8.350  0.4310  0.0642  0.6437
11874WAT     H149301  -1.727   0.325   8.337  0.8228 -0.9736 -2.4200
11874WAT     H249302  -1.846   0.303   8.427  1.2567  3.7660 -0.3933
11874WAT    EPW49303  -1.798   0.280   8.359  0.5916  0.4156  0.1025
11875WAT      O49304  -1.156   6.731   7.805  0.1220  0.6114  0.3267
11875WAT     H149305  -1.077   6.702   7.758  0.1956  1.0152  0.1984
11875WAT     H249306  -1.211   6.771   7.738 -1.7213 -2.5859 -0.2871
11875WAT    EPW49307  -1.153   6.732   7.790 -0.1114  0.2429  0.2289
11876WAT      O49308   0.857   3.613   1.175 -0.1567 -0.7576 -0.2983
11876WAT     H149309   0.875   3.632   1.083  1.4257 -1.7934 -0.2451
11876WAT     H249310   0.909   3.535   1.194  1.7060  0.9017  2.1566
11876WAT    EPW49311   0.867   3.606   1.166  0.2977 -0.6754  0.0325
11877WAT      O49312   6.862   1.066   1.850 -0.0205 -0.5787  0.1780
11877WAT     H149313   6.796   1.135   1.838  0.8640  0.6269  1.8237
11877WAT     H249314   6.880   1.035   1.761 -2.0952 -0.2962 -0.3996
11877WAT    EPW49315   6.855   1.071   1.837 -0.1774 -0.3824  0.3188
11878WAT      O49316  -1.581   2.108   6.526  0.0032  0.1130  0.6843
11878WAT     H149317  -1.633   2.167   6.472  0.6682 -1.7083 -2.2078
11878WAT     H249318  -1.644   2.047   6.563 -0.5451  1.8105  2.7017
11878WAT    EPW49319  -1.596   2.107   6.524  0.0187  0.0966  0.5689
11879WAT      O49320  -3.388   6.779   5.986 -0.4884 -0.2319 -0.0585
11879WAT     H149321  -3.371   6.856   6.040 -0.9366 -0.1240 -0.0606
11879WAT     H249322  -3.424   6.715   6.048  1.6088 -1.1175  0.3125
11879WAT    EPW49323  -3.391   6.781   6.002 -0.2710 -0.3345 -0.0100
11880WAT      O49324   2.502   5.553   1.954 -0.0948 -0.3773  0.3408
11880WAT     H149325   2.472   5.624   2.011 -1.6775 -0.8452  0.1479
11880WAT     H249326   2.564   5.595   1.893  1.4666  0.1732  2.2077
11880WAT    EPW49327   2.506   5.568   1.953 -0.0975 -0.3662  0.5616
11881WAT      O49328   1.470   3.221   3.612  0.0860  0.6341  0.5202
11881WAT     H149329   1.457   3.189   3.702 -2.3336  1.4880  0.5502
11881WAT     H249330   1.507   3.146   3.565  2.3605  0.4670  2.3922
11881WAT    EPW49331   1.473   3.207   3.618  0.0668  0.7247  0.7710
11882WAT      O49332  -1.924   9.927   4.583  0.1648 -0.1308 -0.2635
11882WAT     H149333  -1.928   9.856   4.647  0.7215 -0.3959 -0.5101
11882WAT     H249334  -1.933   9.883   4.499 -0.6692  0.2260 -0.3711
11882WAT    EPW49335  -1.926   9.912   4.580  0.1282 -0.1192 -0.3102
11883WAT      O49336   7.251   7.235   1.540 -0.4481  0.8448 -0.2623
11883WAT     H149337   7.282   7.232   1.449  2.6396 -0.1780  0.6911
11883WAT     H249338   7.187   7.164   1.546  0.8302 -0.4551 -1.2029
11883WAT    EPW49339   7.247   7.225   1.528  0.1280  0.5386 -0.2607
11884WAT      O49340   4.448   2.808   7.974  0.0420  0.4954 -0.1049
11884WAT     H149341   4.535   2.774   7.958  0.3526  0.5427  1.3802
11884WAT     H249342   4.406   2.809   7.888  1.4467  0.3406 -0.8100
11884WAT    EPW49343   4.454   2.804   7.960  0.2682  0.4812 -0.0019
11885WAT      O49344  -2.795   6.311   5.363 -0.2641 -0.9906 -0.3271
11885WAT     H149345  -2.721   6.333   5.306 -0.1868 -1.3334 -0.3667
11885WAT     H249346  -2.776   6.355   5.446 -0.5465 -0.2138 -0.6716
11885WAT    EPW49347  -2.783   6.320   5.367 -0.2911 -0.9334 -0.3777
11886WAT      O49348  -1.352   8.758   1.951 -0.4543 -0.5393 -0.3516
11886WAT     H149349  -1.293   8.821   1.992 -1.1134 -0.3195  0.2912
11886WAT     H249350  -1.437   8.801   1.952 -0.9703 -1.5118  0.3184
11886WAT    EPW49351  -1.355   8.772   1.957 -0.6092 -0.6385 -0.1785
11887WAT      O49352   3.268   4.175   1.406 -0.0729  0.5742  0.3426
11887WAT     H149353   3.180   4.176   1.444 -1.0484  2.7580 -1.7132
11887WAT     H249354   3.318   4.117   1.463 -2.4169  0.5198  2.5235
11887WAT    EPW49355   3.263   4.167   1.419 -0.5108  0.8552  0.3591
11888WAT      O49356  -0.171   2.100   8.722  0.2405  0.4954  0.3622
11888WAT     H149357  -0.078   2.112   8.740  0.6317  1.2758 -1.9004
11888WAT     H249358  -0.212   2.181   8.751  0.2450  0.1990  1.2476
11888WAT    EPW49359  -0.164   2.112   8.729  0.2927  0.5593  0.1807
11889WAT      O49360  -4.294   4.944   6.659 -0.4762 -0.4332 -0.0832
11889WAT     H149361  -4.269   4.940   6.566 -0.9725 -1.1075 -0.1986
11889WAT     H249362  -4.370   4.886   6.665 -0.3077 -0.5674  0.7940
11889WAT    EPW49363  -4.301   4.936   6.647 -0.5195 -0.5398  0.0172
11890WAT      O49364  -2.200   7.516   7.688  0.5242  0.0087 -0.3371
11890WAT     H149365  -2.282   7.468   7.690 -1.0220  2.4694  0.1251
11890WAT     H249366  -2.173   7.523   7.779 -0.0124  1.1218 -0.2420
11890WAT    EPW49367  -2.207   7.511   7.700  0.2494  0.4799 -0.2635
11891WAT      O49368   7.489   7.612   1.210  0.5762  0.4594 -0.2032
11891WAT     H149369   7.522   7.523   1.195 -0.2213  0.5329 -2.9841
11891WAT     H249370   7.432   7.629   1.136 -0.9234  2.5847  1.3048
11891WAT    EPW49371   7.486   7.602   1.198  0.2735  0.7493 -0.3711
11892WAT      O49372   1.751   9.357   5.871 -0.5411 -0.2591 -0.1194
11892WAT     H149373   1.775   9.450   5.864  0.4441 -0.4785  0.2893
11892WAT     H249374   1.763   9.336   5.964  0.5113 -1.1372 -0.4409
11892WAT    EPW49375   1.756   9.367   5.882 -0.2723 -0.4034 -0.1080
11893WAT      O49376  -4.827   8.106   7.531  0.0098 -0.1983  0.5443
11893WAT     H149377  -4.829   8.199   7.506 -1.6980 -0.6941 -1.4150
11893WAT     H249378  -4.826   8.108   7.627 -3.7170  1.9284  0.7248
11893WAT    EPW49379  -4.827   8.119   7.541 -0.7071  0.0167  0.3095
11894WAT      O49380   6.086   8.660   0.096  0.0629 -0.3871 -0.0959
11894WAT     H149381   6.078   8.692   0.186 -0.5968  1.6168 -0.8152
11894WAT     H249382   6.071   8.566   0.102  2.5272 -0.7435  2.2271
11894WAT    EPW49383   6.083   8.652   0.108  0.3006 -0.1693  0.1156
11895WAT      O49384  -2.285   7.038   3.872  0.1007 -0.6549  0.8550
11895WAT     H149385  -2.351   7.068   3.809  0.9384  0.9579  0.7034
11895WAT     H249386  -2.317   7.067   3.957 -0.1556 -1.2810  0.9794
11895WAT    EPW49387  -2.298   7.046   3.875  0.1774 -0.5250  0.8513
11896WAT      O49388   0.050   5.185   3.114 -0.4209  0.0693  0.2529
11896WAT     H149389   0.075   5.270   3.149 -3.7468 -0.1993  3.8851
11896WAT     H249390   0.119   5.125   3.145 -0.4572  0.7534  1.7440
11896WAT    EPW49391   0.063   5.188   3.123 -0.8644  0.1242  0.9286
11897WAT      O49392   4.874   1.576   1.501  0.4331  0.2689 -0.3689
11897WAT     H149393   4.899   1.628   1.577 -0.0353  0.6920 -0.4972
11897WAT     H249394   4.853   1.490   1.537  0.3023  0.4381 -0.0340
11897WAT    EPW49395   4.875   1.572   1.516  0.3543  0.3470 -0.3417
11898WAT      O49396  -6.563   9.429   5.744  0.2441 -0.0117  0.2366
11898WAT     H149397  -6.623   9.361   5.774  1.3440 -2.0967 -1.9568
11898WAT     H249398  -6.476   9.392   5.755  1.0589  1.9935  1.0838
11898WAT    EPW49399  -6.560   9.415   5.749  0.4966 -0.0219  0.0594
11899WAT      O49400   5.580   2.842   0.377  0.1737 -0.1273  0.0376
11899WAT     H149401   5.594   2.748   0.388 -1.1716 -0.2616  0.7432
11899WAT     H249402   5.667   2.877   0.357  0.7369 -1.4751  0.0564
11899WAT    EPW49403   5.593   2.835   0.376  0.0706 -0.3228  0.1331
11900WAT      O49404  -5.244   8.868   4.763  0.1869  0.1202 -0.8366
11900WAT     H149405  -5.272   8.869   4.671 -2.5194  0.3164 -0.0768
11900WAT     H249406  -5.312   8.819   4.809  1.6638 -0.2952  1.0603
11900WAT    EPW49407  -5.256   8.861   4.757  0.0246  0.0916 -0.4864
11901WAT      O49408   6.747   5.034   3.185 -0.7894 -0.2109  0.2964
11901WAT     H149409   6.729   5.089   3.261  1.0677  0.5029  0.2696
11901WAT     H249410   6.781   5.095   3.119 -1.2789 -0.9976 -0.7133
11901WAT    EPW49411   6.749   5.050   3.186 -0.6089 -0.2205  0.1596
11902WAT      O49412  -0.088   0.277   7.293 -0.1877 -0.6312 -0.2971
11902WAT     H149413  -0.058   0.229   7.371 -0.8838 -0.6370 -0.0256
11902WAT     H249414  -0.184   0.279   7.301 -0.1977  0.4905 -0.4940
11902WAT    EPW49415  -0.097   0.271   7.304 -0.2808 -0.4840 -0.2873
11903WAT      O49416   5.268   4.327   3.766  0.2153  0.1456  0.3777
11903WAT     H149417   5.244   4.393   3.702  0.5470 -1.1725 -1.1845
11903WAT     H249418   5.185   4.294   3.799 -0.0264 -0.3690 -0.6972
11903WAT    EPW49419   5.254   4.331   3.762  0.2270 -0.0961  0.0299
11904WAT      O49420   4.426   9.364   3.030  0.1524 -0.3184  0.0103
11904WAT     H149421   4.394   9.366   3.120  1.3428  1.1176  0.4376
11904WAT     H249422   4.380   9.436   2.987  1.0615  0.2935  0.0308
11904WAT    EPW49423   4.416   9.374   3.036  0.4294 -0.0482  0.0693
11905WAT      O49424  -1.380   5.104   6.110 -0.3816  0.2171  0.0578
11905WAT     H149425  -1.464   5.113   6.155 -1.5506 -1.8346 -1.5185
11905WAT     H249426  -1.390   5.155   6.030 -0.3373 -0.4233 -0.3640
11905WAT    EPW49427  -1.393   5.112   6.106 -0.5299 -0.1383 -0.2058
11906WAT      O49428  -4.014   7.651   6.485  0.2808  0.3984 -0.0933
11906WAT     H149429  -4.030   7.719   6.551  0.0330  0.0433  0.2196
11906WAT     H249430  -4.068   7.577   6.514  0.5810  0.0532 -0.4076
11906WAT    EPW49431  -4.023   7.650   6.497  0.2875  0.3059 -0.0935
11907WAT      O49432   6.508   2.058   3.254 -0.9022 -0.0292 -0.4427
11907WAT     H149433   6.413   2.052   3.258 -0.8446 -2.4962 -1.0094
11907WAT     H249434   6.538   2.003   3.326  0.0862  0.3802 -0.5323
11907WAT    EPW49435   6.499   2.050   3.264 -0.7644 -0.3006 -0.5293
11908WAT      O49436   0.141   9.623   4.032 -0.1071 -0.1776 -0.5886
11908WAT     H149437   0.048   9.634   4.009 -0.3475  2.2327  1.1197
11908WAT     H249438   0.173   9.712   4.045  2.2914 -0.9931 -0.4128
11908WAT    EPW49439   0.133   9.636   4.031  0.1775  0.0329 -0.3402
11909WAT      O49440  -1.720   1.349   7.234  0.1094  0.0927  0.4553
11909WAT     H149441  -1.802   1.387   7.266 -1.9665 -2.0730 -1.8315
11909WAT     H249442  -1.698   1.401   7.156 -0.2416 -0.5271 -0.0717
11909WAT    EPW49443  -1.728   1.361   7.228 -0.2108 -0.2747  0.0842
11910WAT      O49444   1.074   1.951   3.935 -0.2508  0.7341  0.0321
11910WAT     H149445   1.021   1.999   3.870 -0.1195 -0.7461 -1.2370
11910WAT     H249446   1.040   1.862   3.931  0.6690  0.3256  1.0563
11910WAT    EPW49447   1.063   1.946   3.926 -0.1122  0.4849 -0.0002
11911WAT      O49448  -0.904   6.549   3.238  0.4384 -0.2868 -0.5591
11911WAT     H149449  -0.939   6.509   3.318 -0.6832  1.7983  0.0471
11911WAT     H249450  -0.815   6.513   3.231  1.1002  0.4887  2.4165
11911WAT    EPW49451  -0.897   6.539   3.248  0.3778  0.0904 -0.0867
11912WAT      O49452   5.779   7.259   1.836  0.3744 -0.1645 -1.0291
11912WAT     H149453   5.839   7.279   1.908 -1.8587 -0.3460  0.9666
11912WAT     H249454   5.773   7.163   1.835 -1.4263 -0.1084  0.1959
11912WAT    EPW49455   5.787   7.249   1.845 -0.1576 -0.1810 -0.6043
11913WAT      O49456   6.487   4.868   3.774  0.5305  0.4872 -0.5847
11913WAT     H149457   6.399   4.859   3.737  0.1275  1.1681  0.1728
11913WAT     H249458   6.473   4.873   3.868  1.5577 -1.3935 -0.2913
11913WAT    EPW49459   6.473   4.868   3.782  0.6127  0.3288 -0.4461
11914WAT      O49460  -0.200  10.302   8.948  0.2484 -0.4402  0.3102
11914WAT     H149461  -0.169  10.310   8.858  1.7106  1.7325  0.9154
11914WAT     H249462  -0.194  10.209   8.967 -0.2635 -0.9754 -1.8780
11914WAT    EPW49463  -0.195  10.291   8.939  0.3737 -0.2241  0.1020
11915WAT      O49464  -3.884   8.251   6.747  0.1823  0.2292  0.3506
11915WAT     H149465  -3.803   8.244   6.799  0.1892 -2.4782  0.1019
11915WAT     H249466  -3.954   8.243   6.811  0.1522  0.0867  0.3005
11915WAT    EPW49467  -3.882   8.249   6.762  0.1793 -0.1469  0.3111
11916WAT      O49468  -0.508   9.351   5.174 -0.4132  0.2419  0.3470
11916WAT     H149469  -0.496   9.445   5.158 -0.6052  0.2361  0.1757
11916WAT     H249470  -0.578   9.348   5.240  1.6792  0.3636  2.7458
11916WAT    EPW49471  -0.516   9.363   5.181 -0.1625  0.2575  0.6409
11917WAT      O49472  -1.791   0.371   8.601 -0.6389 -0.5241  0.5415
11917WAT     H149473  -1.823   0.431   8.669 -0.0196  0.5684 -0.0998
11917WAT     H249474  -1.816   0.284   8.632 -2.3606  0.1208  1.0766
11917WAT    EPW49475  -1.799   0.368   8.614 -0.7843 -0.2950  0.5279
11918WAT      O49476  -1.941   1.560   4.414 -0.2972 -0.6983 -0.2337
11918WAT     H149477  -2.028   1.561   4.454  0.2663 -0.6851  1.0570
11918WAT     H249478  -1.889   1.504   4.473  1.7482  2.8390  1.7053
11918WAT    EPW49479  -1.945   1.553   4.427  0.0469 -0.2300  0.1924
11919WAT      O49480  -0.779   4.437   3.845 -0.1595 -0.9042  0.0791
11919WAT     H149481  -0.723   4.362   3.867 -0.1771 -1.2722 -1.0545
11919WAT     H249482  -0.859   4.423   3.895  1.4464  0.7343  3.4489
11919WAT    EPW49483  -0.782   4.425   3.854  0.0500 -0.7367  0.3742
11920WAT      O49484   2.171   1.287   7.875 -0.1557 -0.8837  0.8874
11920WAT     H149485   2.258   1.327   7.865 -0.5130  0.0389  1.3642
11920WAT     H249486   2.130   1.337   7.945 -1.7413 -0.1348 -0.5128
11920WAT    EPW49487   2.177   1.299   7.883 -0.4120 -0.6632  0.7656
11921WAT      O49488  -1.745   4.392   7.110  0.1536  0.3977  0.6210
11921WAT     H149489  -1.695   4.454   7.163  2.5837 -2.0902  1.4653
11921WAT     H249490  -1.699   4.391   7.026 -0.8161  0.8302  0.0688
11921WAT    EPW49491  -1.733   4.400   7.106  0.3462  0.1266  0.6595
11922WAT      O49492   0.488   4.885   5.721 -0.1592 -0.8064 -0.0360
11922WAT     H149493   0.475   4.942   5.645  2.4960 -0.9934 -0.7152
11922WAT     H249494   0.407   4.834   5.727 -1.5004  1.0860 -1.0656
11922WAT    EPW49495   0.475   4.886   5.712  0.0141 -0.5815 -0.2613
11923WAT      O49496   4.311   1.894   8.460  0.1985 -0.2594  0.3051
11923WAT     H149497   4.282   1.819   8.512 -0.7505  1.0642  1.7579
11923WAT     H249498   4.362   1.855   8.389  0.6567 -2.2009  1.6203
11923WAT    EPW49499   4.314   1.879   8.457  0.1338 -0.3409  0.6700
11924WAT      O49500  -7.081   6.370   8.675 -0.0565 -0.5239 -0.4861
11924WAT     H149501  -7.164   6.360   8.721 -0.5441  1.7517 -0.7148
11924WAT     H249502  -7.097   6.339   8.586 -0.6780 -0.0969 -0.5257
11924WAT    EPW49503  -7.094   6.365   8.670 -0.2029 -0.1676 -0.5217
11925WAT      O49504  -2.514   8.579   0.509 -0.1563 -0.7198 -0.1612
11925WAT     H149505  -2.564   8.657   0.482 -0.4074 -0.2908  1.4212
11925WAT     H249506  -2.482   8.542   0.428 -1.8854 -0.1992 -1.1284
11925WAT    EPW49507  -2.516   8.585   0.495 -0.4175 -0.5951 -0.0801
11926WAT      O49508  -5.215   8.222   8.752  0.0341 -0.0262 -0.4191
11926WAT     H149509  -5.259   8.175   8.823  0.6029 -0.1787 -0.1682
11926WAT     H249510  -5.123   8.201   8.763  0.6700  2.9603  1.1233
11926WAT    EPW49511  -5.209   8.213   8.763  0.1929  0.3476 -0.1826
11927WAT      O49512  -1.941   9.576   6.049 -0.1825 -0.8163  0.2879
11927WAT     H149513  -1.889   9.602   5.974 -0.3317  0.2715  0.5540
11927WAT     H249514  -2.014   9.527   6.012 -0.7920  0.5495 -0.3800
11927WAT    EPW49515  -1.944   9.573   6.034 -0.2826 -0.4921  0.2348
11928WAT      O49516   1.201   1.261   0.666  0.0480 -0.3719 -0.1509
11928WAT     H149517   1.292   1.287   0.680  0.9738 -1.8741 -2.5957
11928WAT     H249518   1.169   1.235   0.752  1.6180  1.0420  0.9067
11928WAT    EPW49519   1.209   1.261   0.679  0.3772 -0.3836 -0.3339
11929WAT      O49520  -5.235   5.513   5.871  0.7597 -0.1304  0.4739
11929WAT     H149521  -5.157   5.534   5.819 -0.3149  0.6929 -0.8730
11929WAT     H249522  -5.254   5.594   5.919  0.3962 -0.1299  0.3333
11929WAT    EPW49523  -5.227   5.527   5.871  0.5703 -0.0217  0.2778
11930WAT      O49524   7.859   7.408   0.214  0.3902 -0.0614 -0.0642
11930WAT     H149525   7.949   7.408   0.181  1.0031  0.4916  1.5377
11930WAT     H249526   7.867   7.430   0.307 -1.2306 -2.1135  0.6211
11930WAT    EPW49527   7.872   7.411   0.222  0.2575 -0.2594  0.2374
11931WAT      O49528   1.361   4.483   4.844  0.0495 -0.0951  0.2230
11931WAT     H149529   1.396   4.571   4.850 -0.2510 -0.0081  0.7451
11931WAT     H249530   1.438   4.427   4.838  0.2370  0.2900 -1.6858
11931WAT    EPW49531   1.376   4.487   4.844  0.0346 -0.0329  0.0403
11932WAT      O49532   3.020   6.886   5.042 -0.1414  0.4680 -1.1083
11932WAT     H149533   3.033   6.946   5.116  0.8001  1.8934 -2.3490
11932WAT     H249534   2.982   6.807   5.080  1.6512  0.5925  1.1189
11932WAT    EPW49535   3.017   6.884   5.057  0.2191  0.6723 -0.9782
11933WAT      O49536  -0.027   8.643   3.627  1.0011  0.5103  0.1523
11933WAT     H149537   0.016   8.616   3.546  1.2669 -0.9857  0.7548
11933WAT     H249538  -0.057   8.561   3.667 -1.1933  1.3727  0.4569
11933WAT    EPW49539  -0.026   8.628   3.621  0.7467  0.4268  0.2719
11934WAT      O49540   0.101   3.389   7.402 -0.3978  0.1195  0.8029
11934WAT     H149541   0.053   3.471   7.400  0.3023  0.5408 -1.0036
11934WAT     H249542   0.081   3.348   7.317 -1.1229 -1.8244  1.8480
11934WAT    EPW49543   0.092   3.394   7.390 -0.4011 -0.0814  0.7029
11935WAT      O49544   6.496   1.659   0.291 -0.1434 -0.5070 -0.1039
11935WAT     H149545   6.461   1.698   0.372  0.6157 -2.0271  1.0035
11935WAT     H249546   6.495   1.731   0.228 -0.1422  0.9101  1.4354
11935WAT    EPW49547   6.491   1.674   0.293 -0.0432 -0.5205  0.2452
11936WAT      O49548  -4.382   5.272   8.102  0.2838 -0.3067  0.2959
11936WAT     H149549  -4.321   5.342   8.126 -0.8880  0.4334  1.2554
11936WAT     H249550  -4.412   5.296   8.014  0.4157  0.0144  0.3353
11936WAT    EPW49551  -4.378   5.284   8.094  0.1466 -0.1667  0.4277
11937WAT      O49552   4.928   0.480   8.780 -0.4468 -0.8207  0.4590
11937WAT     H149553   4.890   0.453   8.864 -0.7603 -1.0892  0.2336
11937WAT     H249554   5.020   0.495   8.800 -0.8427  0.8150  1.2386
11937WAT    EPW49555   4.935   0.478   8.794 -0.5403 -0.6403  0.5322
11938WAT      O49556   7.251   0.691   4.816  0.2333 -0.4144 -0.4047
11938WAT     H149557   7.164   0.650   4.826 -0.7393  1.6589  0.1385
11938WAT     H249558   7.286   0.696   4.904  0.6389 -0.6404 -0.5486
11938WAT    EPW49559   7.244   0.686   4.829  0.1583 -0.1708 -0.3519
11939WAT      O49560  -0.681   3.028   6.431  0.5590  0.3819  0.2021
11939WAT     H149561  -0.745   2.958   6.420  0.6828  0.2339  0.4157
11939WAT     H249562  -0.597   2.982   6.439  0.7476  0.5852 -0.4989
11939WAT    EPW49563  -0.678   3.012   6.430  0.6002  0.3891  0.1378
11940WAT      O49564   0.254   3.538   5.486  0.1205  0.7686 -0.4338
11940WAT     H149565   0.169   3.507   5.454 -0.2303  1.7935 -0.5404
11940WAT     H249566   0.234   3.580   5.570  0.5800  0.6675 -0.2718
11940WAT    EPW49567   0.240   3.540   5.493  0.1349  0.8905 -0.4263
11941WAT      O49568   4.130   3.088   3.125  0.7084 -0.4293 -0.5919
11941WAT     H149569   4.109   3.111   3.215  0.4575 -1.4021 -0.3851
11941WAT     H249570   4.225   3.077   3.124  0.9907  1.7264 -0.9821
11941WAT    EPW49571   4.139   3.089   3.136  0.7126 -0.2733 -0.6162
11942WAT      O49572   1.399   4.499   6.228  0.3301  0.0610 -0.5265
11942WAT     H149573   1.443   4.573   6.185  3.6669 -0.9638  0.8007
11942WAT     H249574   1.333   4.540   6.283 -0.9480  1.6809 -3.0799
11942WAT    EPW49575   1.396   4.514   6.230  0.6016  0.1395 -0.6883
11943WAT      O49576   4.712   4.444   6.486 -0.2168  0.5011 -0.3563
11943WAT     H149577   4.762   4.524   6.500 -1.7298  1.1594  1.8380
11943WAT     H249578   4.774   4.384   6.445  1.4206  2.2521 -0.6078
11943WAT    EPW49579   4.727   4.447   6.482 -0.2003  0.8187 -0.0999
11944WAT      O49580   5.929   0.173  -0.002 -0.7918 -0.4584  0.5082
11944WAT     H149581   5.959   0.148   0.086 -0.1009  0.4187  0.5334
11944WAT     H249582   5.918   0.268   0.003 -0.2847 -0.3341 -0.4779
11944WAT    EPW49583   5.932   0.182   0.011 -0.6338 -0.3262  0.3815
11945WAT      O49584  -0.879   2.504   6.894  0.3116 -0.7768  0.2117
11945WAT     H149585  -0.846   2.451   6.822 -2.4431 -1.5206 -0.6414
11945WAT     H249586  -0.944   2.561   6.853 -0.1586 -0.0683  1.8683
11945WAT    EPW49587  -0.884   2.505   6.879 -0.1137 -0.7814  0.3178
11946WAT      O49588  -0.318   3.525   7.671  0.5162 -0.0588 -0.3653
11946WAT     H149589  -0.321   3.565   7.758  1.3731  0.4806 -0.5783
11946WAT     H249590  -0.376   3.579   7.618  1.0376  0.4213 -0.4527
11946WAT    EPW49591  -0.326   3.537   7.676  0.6980  0.0756 -0.4048
11947WAT      O49592  -2.486   6.100   7.449  0.5323 -0.1898 -0.2425
11947WAT     H149593  -2.406   6.048   7.442  1.0208  0.4288  0.5069
11947WAT     H249594  -2.503   6.131   7.361  0.5425 -1.1575 -0.5970
11947WAT    EPW49595  -2.478   6.097   7.437  0.5982 -0.2360 -0.1905
11948WAT      O49596   1.120   2.472   7.118 -0.4473  0.5741  0.5843
11948WAT     H149597   1.094   2.489   7.027 -0.5235 -1.6247  0.1315
11948WAT     H249598   1.140   2.378   7.119  0.1432  0.6872  2.7141
11948WAT    EPW49599   1.119   2.462   7.106 -0.3795  0.2991  0.8056
11949WAT      O49600   3.726   3.704   1.543 -0.7755  0.5324  0.4172
11949WAT     H149601   3.672   3.733   1.470  2.2940  1.8652 -1.4902
11949WAT     H249602   3.694   3.615   1.562 -1.8360  0.2062 -2.3926
11949WAT    EPW49603   3.715   3.696   1.536 -0.5107  0.6651 -0.2049
11950WAT      O49604   9.696   0.068   0.709  0.6910 -0.2889 -0.1907
11950WAT     H149605   9.689   0.147   0.654  0.6288  2.3115  3.1815
11950WAT     H249606   9.746   0.097   0.786  0.1485 -3.4277  1.5186
11950WAT    EPW49607   9.702   0.083   0.712  0.6113 -0.3599  0.4795
11951WAT      O49608   0.474   0.538   1.001 -0.5576 -0.3700  0.0899
11951WAT     H149609   0.439   0.532   1.089  0.3414  0.8714  0.5714
11951WAT     H249610   0.569   0.547   1.013 -0.2169 -1.9664 -1.0903
11951WAT    EPW49611   0.482   0.539   1.014 -0.3941 -0.4168 -0.0023
11952WAT      O49612   1.938   0.985   2.306 -0.0094  0.9807  0.1283
11952WAT     H149613   1.944   1.057   2.369 -0.6595  1.4860 -0.3684
11952WAT     H249614   1.922   1.028   2.222  0.2330  0.2836 -0.2831
11952WAT    EPW49615   1.936   1.000   2.304 -0.0632  0.9554  0.0085
11953WAT      O49616   2.141   3.266   6.118  0.4742  0.5928  0.2834
11953WAT     H149617   2.054   3.259   6.079  0.3161 -2.2700  0.9210
11953WAT     H249618   2.180   3.342   6.075 -2.0861  1.5806 -0.4773
11953WAT    EPW49619   2.135   3.275   6.107  0.1158  0.3455  0.2673
11954WAT      O49620  -2.039   0.881   5.122  0.5022 -0.0313 -0.2691
11954WAT     H149621  -2.046   0.805   5.064 -0.3416 -0.3366  0.2153
11954WAT     H249622  -1.945   0.891   5.137  0.7347  0.0379 -1.6510
11954WAT    EPW49623  -2.027   0.872   5.116  0.4216 -0.0624 -0.3877
11955WAT      O49624  -3.859   6.469   4.806 -0.2953  0.1535 -0.2595
11955WAT     H149625  -3.949   6.489   4.834 -0.9537 -1.2614 -1.2381
11955WAT     H249626  -3.813   6.553   4.815 -1.1881  0.4710  2.0897
11955WAT    EPW49627  -3.865   6.483   4.811 -0.4998  0.0086 -0.0787
11956WAT      O49628   0.333   0.527   4.010 -0.1162 -0.2373  0.5761
11956WAT     H149629   0.391   0.483   4.073  0.3695 -0.9965 -0.3769
11956WAT     H249630   0.267   0.460   3.988  0.1374 -0.2224 -0.2531
11956WAT    EPW49631   0.332   0.512   4.016 -0.0187 -0.3355  0.3409
11957WAT      O49632   2.191  10.188   5.983 -0.3928  0.4534  0.5771
11957WAT     H149633   2.212  10.281   5.993 -0.8218  0.5623  0.4650
11957WAT     H249634   2.121  10.186   5.918 -0.1548  0.0244  0.3338
11957WAT    EPW49635   2.185  10.200   5.976 -0.4179  0.4110  0.5302
11958WAT      O49636   0.084   0.418   7.688  0.2132 -0.7743  0.2785
11958WAT     H149637   0.108   0.509   7.674 -0.9889 -0.7160 -1.8680
11958WAT     H249638   0.128   0.371   7.617 -0.3779 -1.6426  0.4732
11958WAT    EPW49639   0.093   0.423   7.677 -0.0233 -0.8812  0.0212
11959WAT      O49640  -6.429   9.048   5.844  0.1182  0.1099 -0.1403
11959WAT     H149641  -6.341   9.024   5.872  0.2106  1.8630  1.2493
11959WAT     H249642  -6.432   9.025   5.751  2.0334  0.0157 -0.2135
11959WAT    EPW49643  -6.418   9.042   5.836  0.3831  0.3285  0.0334
11960WAT      O49644   0.791   0.863   2.192 -0.3925 -0.5437  0.0696
11960WAT     H149645   0.824   0.919   2.262  0.5184 -0.2345 -0.5850
11960WAT     H249646   0.769   0.924   2.121 -0.3877 -0.9233 -0.2635
11960WAT    EPW49647   0.792   0.879   2.192 -0.2718 -0.5530 -0.0606
11961WAT      O49648   5.772   7.349   2.658 -0.1001 -0.3580  0.2989
11961WAT     H149649   5.709   7.393   2.716  1.8758  1.6677  1.0464
11961WAT     H249650   5.727   7.344   2.574 -0.8294  2.3144  0.4454
11961WAT    EPW49651   5.758   7.354   2.654  0.0644  0.2618  0.4168
11962WAT      O49652   7.343   1.177   3.540  0.1675  0.1946 -0.2531
11962WAT     H149653   7.414   1.186   3.604  1.7396  2.4741 -2.1017
11962WAT     H249654   7.388   1.160   3.457 -1.7004 -1.3126 -1.0338
11962WAT    EPW49655   7.359   1.176   3.537  0.1283  0.2965 -0.5999
11963WAT      O49656  -2.317  10.041   0.141  0.0630  0.0622  0.0657
11963WAT     H149657  -2.409  10.016   0.152  0.1538 -1.5131 -2.0660
11963WAT     H249658  -2.275   9.961   0.110  2.3751  0.5096  1.8206
11963WAT    EPW49659  -2.324  10.027   0.139  0.3799 -0.0868  0.0160
11964WAT      O49660   1.842   7.189   3.942  0.1437 -0.8710 -0.5848
11964WAT     H149661   1.907   7.182   3.873 -0.7348  0.2005 -1.5683
11964WAT     H249662   1.782   7.116   3.926 -0.8930  0.1933 -1.9413
11964WAT    EPW49663   1.842   7.179   3.931 -0.1089 -0.5894 -0.8935
11965WAT      O49664   6.753   4.239   1.878 -0.0839  0.0967  0.3313
11965WAT     H149665   6.844   4.249   1.850 -0.0111 -1.3326 -0.0195
11965WAT     H249666   6.756   4.247   1.974  0.6133 -1.1428  0.4298
11965WAT    EPW49667   6.765   4.241   1.887  0.0179 -0.2553  0.2980
11966WAT      O49668  -0.242   5.738   3.932 -0.5184 -0.8136 -0.1429
11966WAT     H149669  -0.226   5.826   3.897  0.4876 -2.0101 -2.9335
11966WAT     H249670  -0.172   5.724   3.995  3.2192 -1.7421 -4.0722
11966WAT    EPW49671  -0.231   5.748   3.936  0.1072 -1.0939 -1.0293
11967WAT      O49672   3.639   0.450   2.214 -0.2112  0.6568 -0.8176
11967WAT     H149673   3.721   0.404   2.236  0.0415  0.9477 -1.1342
11967WAT     H249674   3.647   0.535   2.258 -0.9796  0.1524  0.3348
11967WAT    EPW49675   3.651   0.455   2.223 -0.2791  0.6287 -0.7073
11968WAT      O49676  -1.943   0.834   4.022 -0.7050  0.1659 -0.8214
11968WAT     H149677  -1.863   0.830   3.969  0.5977 -1.7416  1.1189
11968WAT     H249678  -1.975   0.923   4.009  1.9998  1.1765 -1.3523
11968WAT    EPW49679  -1.937   0.845   4.013 -0.1764  0.0476 -0.6354
11969WAT      O49680   0.190   4.597   8.018 -0.4203  0.9092 -0.9809
11969WAT     H149681   0.129   4.539   7.973  2.9732 -0.9483 -3.6889
11969WAT     H249682   0.191   4.676   7.965 -0.5394  0.9845 -0.8714
11969WAT    EPW49683   0.182   4.600   8.005  0.0116  0.6740 -1.3237
11970WAT      O49684  -2.753   0.479   8.719  0.1013 -0.1638 -0.2835
11970WAT     H149685  -2.845   0.494   8.697 -0.6247  1.3695  3.1527
11970WAT     H249686  -2.707   0.555   8.683 -0.1038 -0.5140 -1.2941
11970WAT    EPW49687  -2.759   0.491   8.712 -0.0215 -0.0078  0.0367
11971WAT      O49688  -2.824   2.583   8.049 -0.6407 -0.1234  0.1654
11971WAT     H149689  -2.891   2.519   8.074 -0.4116 -0.6154 -0.4382
11971WAT     H249690  -2.806   2.632   8.129 -2.2324  0.4961  0.1800
11971WAT    EPW49691  -2.830   2.581   8.063 -0.8204 -0.1066  0.0877
11972WAT      O49692   3.609   4.419   8.433 -0.6963  0.0213 -0.2036
11972WAT     H149693   3.674   4.484   8.406  0.2327 -0.4147  0.8894
11972WAT     H249694   3.536   4.471   8.466 -0.5920  0.5134 -0.7199
11972WAT    EPW49695   3.608   4.435   8.434 -0.5602  0.0288 -0.1278
11973WAT      O49696   5.729   3.153   6.667 -0.2307 -0.3488 -0.3358
11973WAT     H149697   5.649   3.109   6.696  0.3172 -2.0994 -1.3414
11973WAT     H249698   5.780   3.084   6.624  2.2746  0.4837  1.1422
11973WAT    EPW49699   5.725   3.138   6.665  0.1719 -0.4699 -0.2737
11974WAT      O49700   5.746   8.903   0.157 -0.1392 -0.1391 -0.4876
11974WAT     H149701   5.724   8.914   0.250 -1.5871 -0.6077 -0.7468
11974WAT     H249702   5.840   8.918   0.153 -0.0329 -0.1824  1.0717
11974WAT    EPW49703   5.755   8.907   0.169 -0.3159 -0.2069 -0.3162
11975WAT      O49704  -2.461   5.687   1.340 -0.7215  0.1284  0.5811
11975WAT     H149705  -2.436   5.605   1.383  1.5923 -0.5239 -1.7932
11975WAT     H249706  -2.465   5.665   1.247  0.4638  2.8141 -0.1767
11975WAT    EPW49707  -2.458   5.673   1.334 -0.2600  0.3967  0.1680
11976WAT      O49708   4.115  10.292   3.759  0.1198 -0.1564  0.5058
11976WAT     H149709   4.031  10.247   3.766 -0.6712  1.3748  1.4271
11976WAT     H249710   4.127  10.305   3.665  1.6069 -4.3566 -0.0955
11976WAT    EPW49711   4.105  10.288   3.748  0.2115 -0.5083  0.5479
11977WAT      O49712   8.788   2.508   1.077  0.2905  0.4265 -0.2877
11977WAT     H149713   8.874   2.505   1.120  1.2781 -0.6460 -2.2214
11977WAT     H249714   8.748   2.424   1.098  0.4817  0.1854 -0.8864
11977WAT    EPW49715   8.794   2.497   1.086  0.4458  0.2532 -0.6217
11978WAT      O49716   4.531   0.299   1.926 -0.0847  0.4615 -0.4159
11978WAT     H149717   4.623   0.322   1.916  0.4528 -1.9779 -1.8472
11978WAT     H249718   4.486   0.350   1.858  0.1286  1.8472  0.4475
11978WAT    EPW49719   4.537   0.309   1.916  0.0143  0.3225 -0.4908
11979WAT      O49720  -0.067   5.376   8.578 -0.2354 -0.8698 -0.9075
11979WAT     H149721  -0.081   5.282   8.565  1.1156 -1.5922  2.0666
11979WAT     H249722   0.028   5.387   8.573 -0.3926  0.3841 -1.3631
11979WAT    EPW49723  -0.056   5.365   8.576 -0.0780 -0.7997 -0.5751
11980WAT      O49724  -0.055   6.679   6.007  0.1190 -0.4339  0.3320
11980WAT     H149725  -0.092   6.666   6.094 -2.4322 -0.9203 -0.7301
11980WAT     H249726   0.011   6.612   5.998 -0.5019 -1.2209  1.4345
11980WAT    EPW49727  -0.051   6.669   6.017 -0.2994 -0.6020  0.3374
11981WAT      O49728   0.776   7.180   5.236 -0.2213 -0.1641  0.3797
11981WAT     H149729   0.832   7.162   5.161  0.6557 -4.1992  1.7546
11981WAT     H249730   0.834   7.175   5.312 -1.6714  0.1400  1.5605
11981WAT    EPW49731   0.791   7.177   5.236 -0.2969 -0.6561  0.7169
11982WAT      O49732   0.445   9.253   6.928  0.7696  0.0489 -0.2425
11982WAT     H149733   0.506   9.320   6.958 -0.7102  1.1128  0.5572
11982WAT     H249734   0.376   9.302   6.882 -0.2030 -0.9361  0.1081
11982WAT    EPW49735   0.444   9.269   6.926  0.4461  0.0591 -0.0908
11983WAT      O49736   3.441   2.677   0.588 -0.0444  0.4362 -0.2262
11983WAT     H149737   3.413   2.763   0.618 -0.7940  0.4751 -0.9881
11983WAT     H249738   3.533   2.670   0.614  0.4722  2.0822 -1.4435
11983WAT    EPW49739   3.450   2.687   0.595 -0.0751  0.6585 -0.4872
11984WAT      O49740  -7.306   7.097   8.554  0.0326  0.6017  0.1732
11984WAT     H149741  -7.351   7.181   8.543  0.6837  0.9701  0.2761
11984WAT     H249742  -7.230   7.103   8.497  0.6668  0.5173  0.9844
11984WAT    EPW49743  -7.302   7.109   8.545  0.2022  0.6394  0.2937
11985WAT      O49744  -5.819   9.718   5.460 -0.3222  0.1702 -0.0439
11985WAT     H149745  -5.845   9.783   5.395 -0.2891 -0.4516 -0.6822
11985WAT     H249746  -5.756   9.662   5.415  0.4048  0.2910  0.8022
11985WAT    EPW49747  -5.814   9.719   5.446 -0.2217  0.1040 -0.0167
11986WAT      O49748   1.645   7.076   8.131  0.3709 -0.7031 -0.5813
11986WAT     H149749   1.671   7.071   8.039  2.4079 -1.8095  0.0046
11986WAT     H249750   1.722   7.110   8.176 -0.2173 -1.2434  0.8732
11986WAT    EPW49751   1.658   7.080   8.125  0.5619 -0.9203 -0.3119
11987WAT      O49752  -1.963   0.531   7.207 -0.2195 -0.7469 -0.0238
11987WAT     H149753  -1.973   0.529   7.112 -4.6334 -1.8898  0.2277
11987WAT     H249754  -1.958   0.438   7.232 -0.5104 -0.5164  0.9330
11987WAT    EPW49755  -1.964   0.518   7.198 -0.8401 -0.8673  0.1357
11988WAT      O49756  -5.120   8.150   8.401 -0.8025 -0.1530  0.1634
11988WAT     H149757  -5.186   8.132   8.333  1.0892 -2.4782 -1.2139
11988WAT     H249758  -5.062   8.214   8.362 -0.9298  0.1464  0.4624
11988WAT    EPW49759  -5.121   8.156   8.387 -0.5698 -0.4201  0.0215
11989WAT      O49760   4.183   7.041   6.556  0.2672 -0.9059 -0.0153
11989WAT     H149761   4.262   7.090   6.579  0.1367 -0.1192 -1.1461
11989WAT     H249762   4.183   7.039   6.460 -0.4827 -1.9096 -0.0123
11989WAT    EPW49763   4.194   7.047   6.546  0.1512 -0.9344 -0.1640
11990WAT      O49764   0.344   4.022   0.921 -0.2321 -0.7502 -0.1407
11990WAT     H149765   0.306   4.023   0.833  2.3077 -0.6966 -1.3230
11990WAT     H249766   0.437   4.002   0.907  0.0961 -1.5833  2.6151
11990WAT    EPW49767   0.351   4.020   0.908  0.1462 -0.8531  0.0668
11991WAT      O49768   1.655   3.450   3.369 -0.2520 -0.0429  0.8323
11991WAT     H149769   1.684   3.497   3.291 -0.8242 -0.5649  0.2856
11991WAT     H249770   1.580   3.398   3.339  2.5521 -4.3045  0.3588
11991WAT    EPW49771   1.649   3.449   3.355  0.0424 -0.6738  0.6977
11992WAT      O49772  -4.206   8.014   7.570  0.0505 -0.4347 -0.6067
11992WAT     H149773  -4.248   8.020   7.656 -0.6966  1.6733 -1.0671
11992WAT     H249774  -4.112   8.012   7.590 -0.1331 -1.5064  0.2857
11992WAT    EPW49775  -4.199   8.015   7.584 -0.0725 -0.2980 -0.5498
11993WAT      O49776  -2.218   3.329   2.297  0.3595  0.0085 -0.2441
11993WAT     H149777  -2.260   3.409   2.266  0.4569  0.1524 -0.0081
11993WAT     H249778  -2.130   3.332   2.258 -0.1278 -0.7366 -1.4773
11993WAT    EPW49779  -2.212   3.340   2.288  0.3080 -0.0708 -0.3756
11994WAT      O49780  -1.221   9.957   7.229 -0.3948  0.5275  0.4607
11994WAT     H149781  -1.126   9.958   7.241 -0.3509  3.6866  0.6559
11994WAT     H249782  -1.254  10.022   7.291 -2.6792 -0.2548  0.1667
11994WAT    EPW49783  -1.213   9.966   7.239 -0.6903  0.8411  0.4478
11995WAT      O49784   5.257   8.697   3.581 -0.0378  0.0937  0.0029
11995WAT     H149785   5.164   8.676   3.577  0.5431 -3.3406  0.8694
11995WAT     H249786   5.262   8.791   3.562 -3.6749  0.5151  0.4524
11995WAT    EPW49787   5.246   8.707   3.578 -0.4408 -0.3037  0.1765
11996WAT      O49788   6.052   2.921   3.493  0.0337  0.1690  0.0440
11996WAT     H149789   6.056   3.013   3.467 -2.3514 -0.2459 -2.1236
11996WAT     H249790   6.101   2.874   3.425 -0.0531 -0.3110  0.3063
11996WAT    EPW49791   6.059   2.927   3.481 -0.2923  0.0509 -0.2072
11997WAT      O49792  -3.777   6.927   6.102  0.2415 -0.5119 -0.2266
11997WAT     H149793  -3.854   6.933   6.158  0.0035 -0.7498 -0.5290
11997WAT     H249794  -3.775   6.836   6.074  1.9637 -1.1408  1.6808
11997WAT    EPW49795  -3.787   6.916   6.106  0.4371 -0.6263 -0.0150
11998WAT      O49796   4.048   6.515   1.406 -0.5392 -0.3030 -0.1277
11998WAT     H149797   3.961   6.475   1.394 -0.9582  0.9339 -1.4343
11998WAT     H249798   4.054   6.530   1.500 -1.7084 -0.5114  0.0044
11998WAT    EPW49799   4.037   6.511   1.417 -0.7486 -0.1671 -0.2826
11999WAT      O49800  -2.283   9.426   6.276 -0.0625 -0.0970  0.6902
11999WAT     H149801  -2.189   9.412   6.266  0.1336  0.9030  1.1053
11999WAT     H249802  -2.301   9.409   6.368  0.0854  1.7567  1.0851
11999WAT    EPW49803  -2.273   9.422   6.287 -0.0172  0.2794  0.7970
12000WAT      O49804   4.397   5.206   7.686 -0.4320 -0.0917  0.8322
12000WAT     H149805   4.381   5.279   7.746 -0.8655 -0.6455  1.3932
12000WAT     H249806   4.343   5.227   7.609 -0.4835  0.2235  0.9517
12000WAT    EPW49807   4.388   5.219   7.684 -0.4961 -0.1233  0.9222
12001WAT      O49808  -0.521   8.805   5.346 -0.5898  0.4181  0.5429
12001WAT     H149809  -0.435   8.828   5.312 -0.7866  0.5614  0.1351
12001WAT     H249810  -0.551   8.735   5.287 -1.8120  2.0699 -0.8797
12001WAT    EPW49811  -0.514   8.799   5.334 -0.7769  0.6547  0.3014
12002WAT      O49812  -4.041   7.690   7.301 -0.3448 -0.5009 -0.6441
12002WAT     H149813  -4.109   7.756   7.316  0.3970 -0.2155  2.0458
12002WAT     H249814  -4.067   7.617   7.357 -0.1962 -1.8059 -2.2253
12002WAT    EPW49815  -4.054   7.689   7.310 -0.2275 -0.6354 -0.4981
12003WAT      O49816  -1.440   1.270   4.007 -0.1465 -0.0981 -0.7667
12003WAT     H149817  -1.402   1.182   4.004  1.7252  0.5524  1.7872
12003WAT     H249818  -1.524   1.258   4.051  0.3030 -0.5466 -0.0268
12003WAT    EPW49819  -1.446   1.257   4.012  0.1596 -0.0715 -0.3324
12004WAT      O49820   6.811   6.004   0.891 -0.5704  0.0342 -0.2408
12004WAT     H149821   6.738   5.943   0.878 -0.7168 -0.2801  1.7587
12004WAT     H249822   6.883   5.949   0.920  0.6234  0.3034 -2.4790
12004WAT    EPW49823   6.811   5.988   0.893 -0.4325  0.0281 -0.2722
12005WAT      O49824   2.393   0.452   2.620  0.2652 -0.2809  0.9171
12005WAT     H149825   2.339   0.531   2.625  1.5966  0.7807 -0.3334
12005WAT     H249826   2.460   0.465   2.687  1.6589  0.6726 -0.5684
12005WAT    EPW49827   2.395   0.464   2.629  0.6247 -0.0151  0.5563
12006WAT      O49828   0.174   3.627   8.568  0.1618  0.7228  0.0799
12006WAT     H149829   0.218   3.545   8.590 -1.3800  0.0136  0.7103
12006WAT     H249830   0.083   3.612   8.594 -0.4163  2.1834 -0.9829
12006WAT    EPW49831   0.167   3.614   8.574 -0.1178  0.8219  0.0229
12007WAT      O49832  -4.951   8.789   7.971  0.2830 -0.3928  0.0450
12007WAT     H149833  -4.873   8.830   8.009  0.1176  0.7794 -0.7987
12007WAT     H249834  -5.024   8.838   8.010  0.0393 -0.4031 -0.4003
12007WAT    EPW49835  -4.951   8.801   7.981  0.2291 -0.2398 -0.1252
12008WAT      O49836   4.806   3.677   4.661 -0.0777  0.4316 -0.0630
12008WAT     H149837   4.764   3.593   4.680 -2.6481  1.3472 -1.1861
12008WAT     H249838   4.828   3.713   4.747 -0.8921 -0.4704  0.5409
12008WAT    EPW49839   4.804   3.671   4.675 -0.5240  0.4333 -0.1314
12009WAT      O49840   4.577   3.565   3.566 -0.1625  0.2709 -0.4691
12009WAT     H149841   4.487   3.575   3.535 -0.5019 -2.4479 -0.6547
12009WAT     H249842   4.570   3.565   3.661 -0.7559 -2.1085 -0.4588
12009WAT    EPW49843   4.564   3.566   3.574 -0.2856 -0.4015 -0.4922
12010WAT      O49844   4.051   2.897   6.400 -0.5191  0.4274  0.3335
12010WAT     H149845   4.108   2.970   6.425  2.4205 -1.6823  0.2200
12010WAT     H249846   4.074   2.826   6.460 -3.9729 -0.2665  1.0786
12010WAT    EPW49847   4.061   2.897   6.411 -0.5870  0.0576  0.4168
12011WAT      O49848   4.988   3.685   0.155 -0.1876  0.2815 -0.9425
12011WAT     H149849   5.028   3.691   0.069  1.3443 -0.9237 -0.3579
12011WAT     H249850   4.921   3.754   0.155 -1.1910 -0.5426 -3.5673
12011WAT    EPW49851   4.984   3.695   0.144 -0.1180  0.0138 -1.2116
12012WAT      O49852  -3.229   7.251   8.014  1.0432 -0.0695 -0.0959
12012WAT     H149853  -3.218   7.323   8.076 -0.1067  0.6845 -0.7434
12012WAT     H249854  -3.323   7.242   8.004  1.1983 -0.2082 -1.7023
12012WAT    EPW49855  -3.240   7.259   8.021  0.9121  0.0114 -0.3934
12013WAT      O49856   4.252   9.800   0.664  0.2681  0.1691  0.2790
12013WAT     H149857   4.294   9.876   0.705 -0.6252 -0.1196  1.8187
12013WAT     H249858   4.324   9.743   0.638  0.8936  0.4287  1.3842
12013WAT    EPW49859   4.267   9.802   0.666  0.2329  0.1655  0.6278
12014WAT      O49860  -0.291   2.142   4.518 -0.0909 -0.3963  0.8340
12014WAT     H149861  -0.239   2.063   4.530 -0.7333 -0.9641 -0.0431
12014WAT     H249862  -0.379   2.110   4.497 -0.4113  0.5453  0.6935
12014WAT    EPW49863  -0.296   2.128   4.517 -0.2179 -0.3470  0.6998
12015WAT      O49864  -0.775   6.543   2.564 -0.4860 -0.0451  0.0211
12015WAT     H149865  -0.840   6.591   2.615  1.5030  1.8292  0.9850
12015WAT     H249866  -0.809   6.543   2.475 -2.7925 -1.0576  0.8362
12015WAT    EPW49867  -0.788   6.549   2.559 -0.5279  0.0687  0.2557
12016WAT      O49868  -4.411   9.755   4.062 -0.6393 -0.1388 -0.0276
12016WAT     H149869  -4.412   9.683   3.999 -0.2067 -0.6728  0.5597
12016WAT     H249870  -4.361   9.721   4.136  1.6168  1.5772 -0.6603
12016WAT    EPW49871  -4.404   9.741   4.063 -0.2849  0.0167 -0.0336
12017WAT      O49872   1.290   7.954   5.576 -0.3291  0.6788  0.2064
12017WAT     H149873   1.260   7.980   5.489 -2.4575  4.7874  1.9027
12017WAT     H249874   1.210   7.935   5.625  0.8240 -1.8155  1.2998
12017WAT    EPW49875   1.275   7.955   5.571 -0.4577  0.8917  0.5744
12018WAT      O49876  -1.604   3.614   6.574  0.2175  0.2510 -0.7806
12018WAT     H149877  -1.523   3.598   6.525  0.3172  0.4378 -0.6799
12018WAT     H249878  -1.645   3.528   6.582  0.9574 -0.0288  0.1420
12018WAT    EPW49879  -1.599   3.601   6.569  0.3282  0.2388 -0.6456
12019WAT      O49880  -0.680   7.339   1.668 -0.1340 -0.1374  0.4239
12019WAT     H149881  -0.642   7.310   1.751  0.5159 -2.0201 -0.4657
12019WAT     H249882  -0.678   7.434   1.673  1.9412 -0.1702  1.6643
12019WAT    EPW49883  -0.675   7.348   1.680  0.2254 -0.3901  0.4702
12020WAT      O49884   5.803   5.660   0.547 -0.2614 -1.1622  0.3690
12020WAT     H149885   5.849   5.602   0.607 -2.3357 -2.3719  0.9000
12020WAT     H249886   5.711   5.653   0.572 -0.8969  0.3210 -1.2897
12020WAT    EPW49887   5.797   5.651   0.558 -0.6187 -1.1261  0.2202
12021WAT      O49888   0.101   3.242   8.707 -0.1240 -0.3282 -0.1311
12021WAT     H149889   0.024   3.299   8.711  0.5956  0.5845  1.3529
12021WAT     H249890   0.068   3.156   8.733 -1.1516 -0.5919 -2.0756
12021WAT    EPW49891   0.087   3.238   8.711 -0.1646 -0.2426 -0.1922
12022WAT      O49892   2.809   7.346   0.170 -0.0049 -0.0904 -0.5480
12022WAT     H149893   2.723   7.308   0.159  0.9147 -1.6183 -3.5404
12022WAT     H249894   2.866   7.295   0.111  2.8302  1.1865  0.8788
12022WAT    EPW49895   2.805   7.334   0.161  0.4903 -0.1235 -0.7545
12023WAT      O49896  -3.128   5.797   4.794  0.0178  0.1493 -0.5819
12023WAT     H149897  -3.110   5.761   4.881  0.9310 -1.6163 -1.4405
12023WAT     H249898  -3.163   5.885   4.811 -4.1582 -1.6476  1.7771
12023WAT    EPW49899  -3.130   5.804   4.808 -0.4125 -0.3207 -0.3841
12024WAT      O49900   1.771   6.200   7.766  0.2867  0.1059 -0.9046
12024WAT     H149901   1.837   6.167   7.827 -0.6583  0.8017  0.5569
12024WAT     H249902   1.821   6.245   7.699  1.3050  1.2155  0.5348
12024WAT    EPW49903   1.786   6.201   7.766  0.2964  0.3443 -0.5219
12025WAT      O49904  -1.555   0.319   6.646 -0.1428  0.0989  0.2351
12025WAT     H149905  -1.585   0.406   6.621  0.8225  0.8454  1.5441
12025WAT     H249906  -1.495   0.293   6.577 -0.3778  0.4951 -0.1207
12025WAT    EPW49907  -1.551   0.327   6.634 -0.0465  0.2496  0.3607
12026WAT      O49908  -0.662   9.971   4.092 -0.7392  0.0414 -0.1234
12026WAT     H149909  -0.666  10.066   4.103 -0.1541 -0.0271  0.8200
12026WAT     H249910  -0.704   9.936   4.171 -1.2862 -0.4847 -0.6397
12026WAT    EPW49911  -0.668   9.979   4.104 -0.7342 -0.0367 -0.0672
12027WAT      O49912  -0.337   9.585   6.886 -1.1861  0.1162  0.2739
12027WAT     H149913  -0.307   9.494   6.881  1.7647  0.9768  0.1917
12027WAT     H249914  -0.428   9.583   6.857 -1.2577 -2.8147  0.4792
12027WAT    EPW49915  -0.345   9.573   6.882 -0.8064 -0.1574  0.2899
12028WAT      O49916   2.019  10.084   7.172 -0.1099 -0.0030 -1.1496
12028WAT     H149917   1.927  10.070   7.149 -0.0333  0.4897 -1.7918
12028WAT     H249918   2.049   9.999   7.204 -1.0585  0.0779  0.0444
12028WAT    EPW49919   2.010  10.071   7.173 -0.2249  0.0730 -1.0769
12029WAT      O49920   5.523   4.734   4.824  0.1734  0.3666 -0.2834
12029WAT     H149921   5.592   4.669   4.831 -0.4714 -0.2367  0.8408
12029WAT     H249922   5.559   4.802   4.768  0.5840 -1.2979 -2.1220
12029WAT    EPW49923   5.537   4.734   4.818  0.1426  0.0675 -0.3774
12030WAT      O49924   1.436   6.731   6.583 -0.0292 -0.3067  0.2396
12030WAT     H149925   1.403   6.643   6.601 -0.1736 -0.6941 -1.6730
12030WAT     H249926   1.531   6.721   6.580 -0.0696 -0.5582 -0.5812
12030WAT    EPW49927   1.444   6.718   6.585 -0.0536 -0.3910 -0.1209
12031WAT      O49928   4.449   5.376   4.661  0.4082 -0.0433 -0.1126
12031WAT     H149929   4.359   5.404   4.680 -0.4388 -0.5886 -2.9718
12031WAT     H249930   4.504   5.443   4.703 -1.3974  1.8550 -0.6025
12031WAT    EPW49931   4.444   5.389   4.669  0.0584  0.1352 -0.5543
12032WAT      O49932   4.231   3.071   3.608  0.7085  0.1188  0.6436
12032WAT     H149933   4.283   3.021   3.671  0.7145 -0.0999  0.4644
12032WAT     H249934   4.217   3.155   3.651  2.0237  0.5314  0.3141
12032WAT    EPW49935   4.236   3.076   3.622  0.8829  0.1444  0.5764
12033WAT      O49936  -4.767   6.503   4.363  0.5677 -0.2247 -0.2096
12033WAT     H149937  -4.774   6.487   4.458 -0.5400  1.3746  0.0212
12033WAT     H249938  -4.747   6.596   4.356  2.4795 -0.6920 -1.5382
12033WAT    EPW49939  -4.766   6.513   4.375  0.6735 -0.0753 -0.3543
12034WAT      O49940  -1.696   1.768   7.845  0.1801 -0.7609 -0.0353
12034WAT     H149941  -1.724   1.700   7.784 -1.0144  0.2667 -0.6754
12034WAT     H249942  -1.718   1.733   7.931 -0.1494 -1.2986 -0.3332
12034WAT    EPW49943  -1.702   1.755   7.848 -0.0209 -0.6962 -0.1590
12035WAT      O49944  -0.619  10.307   6.766 -0.1157  0.0975 -0.1083
12035WAT     H149945  -0.686  10.265   6.820 -2.4042  0.2728 -2.5917
12035WAT     H249946  -0.611  10.251   6.689  0.3820  1.6447 -1.2357
12035WAT    EPW49947  -0.627  10.294   6.763 -0.3519  0.3247 -0.5844
12036WAT      O49948  -3.890   4.290   6.782 -0.4328 -0.0665 -0.0748
12036WAT     H149949  -3.879   4.298   6.687  0.5365 -1.9064 -0.1767
12036WAT     H249950  -3.980   4.261   6.793  0.3127 -3.0274 -0.7656
12036WAT    EPW49951  -3.900   4.287   6.771 -0.2067 -0.6995 -0.1793
12037WAT      O49952   2.354   8.366   5.508  0.8323  0.6707  1.1422
12037WAT     H149953   2.396   8.427   5.447 -2.5780  2.0783 -0.0579
12037WAT     H249954   2.375   8.279   5.474  2.7377  1.2661  0.6911
12037WAT    EPW49955   2.362   8.363   5.496  0.6338  0.9346  0.9246
12038WAT      O49956  -2.592   8.227   5.240  0.4398 -0.4065  0.2868
12038WAT     H149957  -2.526   8.293   5.259 -1.9599  3.0226 -2.0614
12038WAT     H249958  -2.569   8.193   5.154 -0.2388  0.0330 -0.0758
12038WAT    EPW49959  -2.581   8.231   5.231  0.0339  0.1040 -0.0706
12039WAT      O49960  -1.060   0.937   4.927  0.3057  0.1126 -0.1606
12039WAT     H149961  -1.045   0.975   4.841  1.7794  1.9463  0.8450
12039WAT     H249962  -0.973   0.913   4.959 -0.3261 -1.6224  0.3799
12039WAT    EPW49963  -1.047   0.938   4.920  0.4168  0.1257  0.0434
12040WAT      O49964   4.780   6.809   2.855  0.5482  0.0285 -0.3906
12040WAT     H149965   4.720   6.880   2.831  1.6784  0.6622 -1.4656
12040WAT     H249966   4.734   6.729   2.830 -0.3849  0.4120  0.0342
12040WAT    EPW49967   4.766   6.808   2.848  0.5741  0.1628 -0.4764
12041WAT      O49968  -0.548   0.930   7.754 -0.4869 -0.4691 -0.5313
12041WAT     H149969  -0.453   0.921   7.757 -0.3537  0.9422  0.1691
12041WAT     H249970  -0.579   0.844   7.724  0.9640 -1.1190 -0.2613
12041WAT    EPW49971  -0.540   0.917   7.751 -0.2779 -0.3687 -0.4034
12042WAT      O49972  -2.583   3.666   7.415  0.2226 -0.9461  0.1604
12042WAT     H149973  -2.609   3.640   7.327  1.6580  0.3655 -0.7072
12042WAT     H249974  -2.499   3.620   7.430  0.9685  0.3343  0.0362
12042WAT    EPW49975  -2.575   3.656   7.406  0.5103 -0.6043  0.0296
12043WAT      O49976  -4.590   6.469   4.921 -0.4938 -0.0641 -0.1983
12043WAT     H149977  -4.526   6.533   4.889 -1.4987  1.0355 -0.0551
12043WAT     H249978  -4.537   6.395   4.951  0.5783 -0.3646 -2.6568
12043WAT    EPW49979  -4.575   6.468   4.921 -0.4849  0.0412 -0.5035
12044WAT      O49980   3.665   7.238   3.161 -0.2468 -1.1716 -0.2105
12044WAT     H149981   3.623   7.217   3.244  0.7657 -2.0538  0.0961
12044WAT     H249982   3.594   7.271   3.106 -0.6283  1.3090  1.6023
12044WAT    EPW49983   3.650   7.240   3.165 -0.1636 -0.9608  0.0690
12045WAT      O49984   9.130   4.387   0.365  0.1587 -0.1572  0.1080
12045WAT     H149985   9.207   4.341   0.333  2.9879  2.7182  2.0809
12045WAT     H249986   9.164   4.445   0.433 -3.3824  3.0821 -0.5427
12045WAT    EPW49987   9.145   4.389   0.370  0.0648  0.6492  0.2823
12046WAT      O49988   5.066   3.767   2.255 -0.5329 -0.6899  0.0380
12046WAT     H149989   5.114   3.740   2.177  1.7333 -1.2704  1.5202
12046WAT     H249990   4.980   3.792   2.223  0.3720 -0.6982 -2.6504
12046WAT    EPW49991   5.061   3.767   2.241 -0.1147 -0.7677 -0.1211
12047WAT      O49992   7.368   6.862   0.533  0.7138 -0.1568 -0.2027
12047WAT     H149993   7.445   6.807   0.518  0.1555 -1.2975  0.9622
12047WAT     H249994   7.358   6.864   0.628  0.7186  2.0059 -0.2125
12047WAT    EPW49995   7.377   6.855   0.543  0.6409 -0.0219 -0.0504
12048WAT      O49996   6.894   5.863   1.558 -0.0651  0.0841 -0.6787
12048WAT     H149997   6.974   5.875   1.506  1.5829  1.7664  1.9378
12048WAT     H249998   6.919   5.801   1.627 -1.3974 -0.2731 -0.4912
12048WAT    EPW49999   6.908   5.857   1.560 -0.0234  0.2589 -0.3089
12049WAT      O50000   2.954  10.018   2.676 -0.0988  0.0557 -0.3205
12049WAT     H150001   2.905  10.058   2.748  0.0913  0.0259 -0.1715
12049WAT     H250002   2.953  10.083   2.606  1.1628  0.8039  0.3185
12049WAT    EPW50003   2.948  10.031   2.677  0.0926  0.1507 -0.2166
12050WAT      O50004   6.385   9.591   0.149  0.9603 -0.4484 -0.1909
12050WAT     H150005   6.393   9.499   0.127  2.9686 -0.4927  0.4752
12050WAT     H250006   6.396   9.637   0.066  0.7745 -0.7962 -0.4070
12050WAT    EPW50007   6.388   9.585   0.135  1.2007 -0.5002 -0.1315
12051WAT      O50008   4.968   9.326   1.193  0.3636 -0.0182 -0.0514
12051WAT     H150009   5.022   9.268   1.138  1.7290  0.0387  1.1595
12051WAT     H250010   4.912   9.372   1.132  1.0058 -0.8194 -1.2848
12051WAT    EPW50011   4.968   9.324   1.178  0.6285 -0.1163 -0.0543
12052WAT      O50012   6.079   2.736   4.638  0.0214 -0.3551  0.1420
12052WAT     H150013   6.050   2.647   4.619  0.0238 -0.1948 -0.6211
12052WAT     H250014   6.164   2.725   4.680 -0.4896 -0.7584  1.1004
12052WAT    EPW50015   6.086   2.723   4.641 -0.0458 -0.3872  0.1676
12053WAT      O50016   2.352   0.097   2.266  0.1410  0.5822 -0.2623
12053WAT     H150017   2.402   0.158   2.320  1.4089 -0.2765 -0.4165
12053WAT     H250018   2.417   0.032   2.238 -1.3527 -1.5019  0.8512
12053WAT    EPW50019   2.367   0.096   2.270  0.1112  0.1941 -0.1357
12054WAT      O50020  -6.703   8.686   6.227 -0.0724 -0.8218  0.0114
12054WAT     H150021  -6.784   8.667   6.180 -0.9267 -0.2850  1.2405
12054WAT     H250022  -6.654   8.604   6.222 -0.4968 -1.0309 -1.0880
12054WAT    EPW50023  -6.707   8.672   6.220 -0.2410 -0.7787  0.0286
12055WAT      O50024  -0.142   7.412   2.788 -0.0508 -0.3708 -0.1290
12055WAT     H150025  -0.189   7.332   2.764  0.0758 -1.1647  2.0191
12055WAT     H250026  -0.183   7.440   2.870  0.3289  1.4357 -0.5115
12055WAT    EPW50027  -0.153   7.405   2.796  0.0160 -0.2372  0.1040
12056WAT      O50028   1.274   8.122   3.537  0.3564 -0.2883 -0.6658
12056WAT     H150029   1.184   8.093   3.524  0.3512  0.0355 -1.3944
12056WAT     H250030   1.302   8.079   3.618 -0.2885 -0.7702 -0.6958
12056WAT    EPW50031   1.266   8.113   3.546  0.2707 -0.3095 -0.7660
12057WAT      O50032   6.203   1.247   5.224  0.5749 -0.5496  0.3194
12057WAT     H150033   6.224   1.206   5.308  0.4085  0.0721  0.6753
12057WAT     H250034   6.126   1.301   5.242  2.7820  2.7958  0.8445
12057WAT    EPW50035   6.196   1.249   5.238  0.8440 -0.0263  0.4356
12058WAT      O50036  -2.028   5.459   8.865 -0.3355  0.2254 -0.1758
12058WAT     H150037  -2.109   5.422   8.832 -1.4044  3.0135 -0.9737
12058WAT     H250038  -2.048   5.488   8.954  0.8647 -2.0345  0.9438
12058WAT    EPW50039  -2.041   5.458   8.873 -0.3183  0.2949 -0.1330
12059WAT      O50040  -1.100   1.038   6.628  0.8143 -0.1126  0.2588
12059WAT     H150041  -1.107   1.061   6.721  0.4092 -0.4236  0.3070
12059WAT     H250042  -1.023   0.981   6.624 -0.1819 -1.5467  0.7057
12059WAT    EPW50043  -1.091   1.034   6.640  0.6295 -0.3428  0.3240
12060WAT      O50044  -5.064   8.153   5.248  0.2157  0.7733  0.1698
12060WAT     H150045  -4.998   8.084   5.235  0.2492  0.5259  1.5526
12060WAT     H250046  -5.019   8.220   5.299  0.0053  1.5786 -0.6772
12060WAT    EPW50047  -5.049   8.152   5.253  0.1924  0.8464  0.2403
12061WAT      O50048  -0.931   6.033   4.650 -0.4031 -0.4943  0.2190
12061WAT     H150049  -0.891   6.110   4.611 -1.1796  0.2415  0.8233
12061WAT     H250050  -0.886   6.021   4.734  1.0771 -1.9114 -0.7065
12061WAT    EPW50051  -0.920   6.041   4.656 -0.3103 -0.5841  0.1764
12062WAT      O50052   8.977   0.662   2.749 -0.5649 -0.5938  0.3717
12062WAT     H150053   8.998   0.676   2.841 -1.3472 -1.4411  0.7052
12062WAT     H250054   9.059   0.635   2.708  0.0605  0.9307  0.5422
12062WAT    EPW50055   8.990   0.660   2.756 -0.5856 -0.5045  0.4381
12063WAT      O50056   8.207   2.264   1.831 -0.2566  0.2282  0.3642
12063WAT     H150057   8.224   2.358   1.829  1.5032 -0.0701  0.1176
12063WAT     H250058   8.175   2.245   1.742  0.7063  0.3845 -0.0326
12063WAT    EPW50059   8.205   2.274   1.819  0.1025  0.2095  0.2794
12064WAT      O50060   3.515   7.780   3.316 -0.1878  0.5025  0.7199
12064WAT     H150061   3.542   7.859   3.364 -4.0227  2.3115  0.2241
12064WAT     H250062   3.497   7.811   3.227 -0.8655 -1.1547  0.2459
12064WAT    EPW50063   3.516   7.795   3.310 -0.7830  0.5226  0.5920
12065WAT      O50064   4.889   4.933   2.594  0.2609 -0.3078  0.0626
12065WAT     H150065   4.955   4.894   2.651  1.3120 -0.5469 -1.2494
12065WAT     H250066   4.869   5.017   2.633  2.2639  0.3101 -0.1291
12065WAT    EPW50067   4.895   4.939   2.607  0.6638 -0.2580 -0.1357
12066WAT      O50068   9.636   2.714   0.408 -0.0822  0.3960 -0.2832
12066WAT     H150069   9.547   2.740   0.384 -0.3589 -1.5034 -1.5549
12066WAT     H250070   9.651   2.632   0.360  2.5377  0.9144 -0.4854
12066WAT    EPW50071   9.626   2.706   0.399  0.2270  0.2139 -0.4776
12067WAT      O50072  -1.927   7.557   8.439  0.3804  0.3065 -0.2101
12067WAT     H150073  -1.989   7.587   8.372  1.6823  1.0741 -1.0959
12067WAT     H250074  -1.964   7.590   8.522 -0.2225  1.0617 -0.7616
12067WAT    EPW50075  -1.940   7.566   8.441  0.4726  0.5074 -0.3996
12068WAT      O50076  -4.813   9.493   3.594 -0.2016 -0.1333 -0.6271
12068WAT     H150077  -4.732   9.534   3.624  1.4089 -2.9401 -0.8562
12068WAT     H250078  -4.820   9.520   3.502  0.3597  0.2550 -0.5625
12068WAT    EPW50079  -4.804   9.502   3.586  0.0846 -0.4520 -0.6489
12069WAT      O50080  -1.257   5.103   0.593  0.0499  0.3307 -0.4112
12069WAT     H150081  -1.189   5.036   0.595  0.4921  0.7700 -0.4758
12069WAT     H250082  -1.278   5.117   0.686 -1.2528 -1.0820 -0.4478
12069WAT    EPW50083  -1.250   5.096   0.606 -0.0637  0.2022 -0.4246
12070WAT      O50084   2.316   3.134   8.432 -0.5612 -0.5225  1.2090
12070WAT     H150085   2.289   3.094   8.350 -0.1444 -0.4670  1.0430
12070WAT     H250086   2.346   3.222   8.408  0.3635 -0.8023  1.2944
12070WAT    EPW50087   2.317   3.140   8.418 -0.3842 -0.5521  1.1978
12071WAT      O50088   5.015   8.512   4.075  0.4481  0.8081 -0.7904
12071WAT     H150089   5.053   8.485   3.992 -1.8541 -0.8775 -1.3816
12071WAT     H250090   4.920   8.509   4.061 -0.0030  2.0700  1.4260
12071WAT    EPW50091   5.007   8.508   4.062  0.0849  0.7520 -0.5760
12072WAT      O50092   2.755   0.749   3.428 -0.2341  0.4412  0.4314
12072WAT     H150093   2.826   0.798   3.469 -0.4756  0.9444  0.2542
12072WAT     H250094   2.699   0.816   3.388 -1.1425  0.0960  1.0981
12072WAT    EPW50095   2.757   0.764   3.428 -0.3856  0.4621  0.4958
12073WAT      O50096  -1.668   9.197   4.465  0.7146 -0.2197 -0.0776
12073WAT     H150097  -1.589   9.252   4.456 -0.7393  2.1114  0.5318
12073WAT     H250098  -1.733   9.255   4.505 -1.7078 -1.6839 -1.6328
12073WAT    EPW50099  -1.666   9.212   4.469  0.2033 -0.1049 -0.2024
12074WAT      O50100   1.696   5.557   6.241  0.0776  0.2056 -0.2337
12074WAT     H150101   1.723   5.495   6.309  1.5405 -1.4798 -2.2223
12074WAT     H250102   1.777   5.605   6.219 -0.4256  0.8792 -0.6533
12074WAT    EPW50103   1.710   5.556   6.247  0.2043  0.0720 -0.5512
12075WAT      O50104   0.599   9.613   0.372 -0.0030 -0.6737 -0.0323
12075WAT     H150105   0.636   9.619   0.460 -0.0366  1.1028 -0.1138
12075WAT     H250106   0.638   9.533   0.335  2.4056  0.1845  0.4911
12075WAT    EPW50107   0.609   9.603   0.379  0.3102 -0.3262  0.0260
12076WAT      O50108  -0.384   7.536   3.240  0.8545 -1.1212 -0.3166
12076WAT     H150109  -0.321   7.484   3.289 -1.0956 -0.3951  3.2357
12076WAT     H250110  -0.355   7.626   3.252  0.1362 -0.9035 -0.1600
12076WAT    EPW50111  -0.372   7.541   3.248  0.5025 -0.9966  0.1725
12077WAT      O50112   0.326   7.708   2.547  0.1405 -0.1422 -0.0414
12077WAT     H150113   0.384   7.646   2.503 -1.7185 -1.0980 -1.3090
12077WAT     H250114   0.256   7.724   2.483 -1.5940  0.0620  1.8067
12077WAT    EPW50115   0.324   7.702   2.532 -0.3334 -0.2415  0.0352
12078WAT      O50116   3.966   6.290   4.996 -0.6802  0.1880  0.0755
12078WAT     H150117   4.048   6.241   4.987 -1.0205 -0.2144 -0.9822
12078WAT     H250118   3.897   6.225   4.980 -1.1430  1.0113 -1.4176
12078WAT    EPW50119   3.967   6.275   4.993 -0.7862  0.2434 -0.2608
12079WAT      O50120  -2.516   9.663   6.968  0.2708 -0.4681 -0.0196
12079WAT     H150121  -2.456   9.653   7.042  0.6628 -0.6048 -0.3517
12079WAT     H250122  -2.567   9.741   6.988  1.4029  0.3563 -0.3158
12079WAT    EPW50123  -2.515   9.672   6.980  0.4717 -0.3772 -0.1023
12080WAT      O50124   0.913   9.808   7.132  0.4325 -0.5653  0.3667
12080WAT     H150125   0.820   9.806   7.109 -0.1147  1.4844  2.0824
12080WAT     H250126   0.921   9.881   7.193  3.6098  0.7993 -1.4531
12080WAT    EPW50127   0.902   9.817   7.137  0.7794 -0.1149  0.3531
12081WAT      O50128   4.979   1.515   4.460  0.0635  0.4676  0.4434
12081WAT     H150129   4.946   1.452   4.524 -0.4500  0.9591  0.6679
12081WAT     H250130   5.074   1.499   4.458  0.4634  1.8570  2.9359
12081WAT    EPW50131   4.987   1.505   4.468  0.0484  0.7157  0.8018
12082WAT      O50132  -2.106   1.261   7.116 -0.0617 -0.2470 -0.6733
12082WAT     H150133  -2.043   1.208   7.163 -0.2597  1.5655  1.7961
12082WAT     H250134  -2.058   1.339   7.090 -1.3519  1.5538  1.9862
12082WAT    EPW50135  -2.092   1.264   7.119 -0.2578  0.2295  0.0031
12083WAT      O50136  -0.865   7.566   8.447  0.4378  0.5686  0.3386
12083WAT     H150137  -0.888   7.507   8.375  1.4366  0.7662 -0.1719
12083WAT     H250138  -0.771   7.552   8.459  0.7624  2.2701 -0.0065
12083WAT    EPW50139  -0.855   7.556   8.439  0.6123  0.8192  0.2255
12084WAT      O50140   6.642   1.460   2.201 -0.2621 -0.1608  0.6295
12084WAT     H150141   6.591   1.392   2.158 -0.3190 -0.3933  1.0629
12084WAT     H250142   6.725   1.463   2.153 -0.9063  0.6499 -0.4851
12084WAT    EPW50143   6.646   1.452   2.189 -0.3543 -0.0845  0.5395
12085WAT      O50144   2.941  10.281   7.244 -0.3689 -0.4221 -0.2317
12085WAT     H150145   2.880  10.212   7.217 -1.7176  1.0886 -1.1481
12085WAT     H250146   2.998  10.293   7.168 -2.6451  2.1442 -1.7101
12085WAT    EPW50147   2.941  10.273   7.230 -0.8473  0.1154 -0.5474
12086WAT      O50148  -1.100   5.406   4.376  0.2612 -0.2376 -0.3182
12086WAT     H150149  -1.081   5.324   4.331 -2.2830 -0.5333 -0.9883
12086WAT     H250150  -1.014   5.441   4.400  1.4570 -2.4321 -1.1721
12086WAT    EPW50151  -1.086   5.400   4.373  0.0834 -0.5660 -0.5193
12087WAT      O50152  -4.680   8.057   5.666  0.3864  0.1088  0.1409
12087WAT     H150153  -4.752   8.033   5.609 -2.2973 -0.7580  3.5299
12087WAT     H250154  -4.626   7.978   5.672  0.2619 -0.0272 -0.5711
12087WAT    EPW50155  -4.682   8.043   5.660  0.0162 -0.0234  0.4940
12088WAT      O50156   5.864   1.693   3.449 -0.0238 -0.2245 -0.0574
12088WAT     H150157   5.874   1.707   3.355  3.5999  2.4122  0.5468
12088WAT     H250158   5.893   1.603   3.463 -1.7927 -1.0807 -1.5065
12088WAT    EPW50159   5.869   1.683   3.438  0.2208  0.0103 -0.1689
12089WAT      O50160  -0.191   3.970   1.519 -0.3662  0.0825  0.0131
12089WAT     H150161  -0.133   4.007   1.452 -0.3933  0.5563  0.2440
12089WAT     H250162  -0.246   3.908   1.472 -2.7648  2.8377 -1.1702
12089WAT    EPW50163  -0.191   3.967   1.504 -0.6861  0.5084 -0.1125
12090WAT      O50164  -3.075  10.002   0.336  0.1895 -0.0548 -0.4743
12090WAT     H150165  -3.016  10.077   0.330  1.0573 -0.2331  3.2254
12090WAT     H250166  -3.139  10.028   0.402 -3.1552 -0.4478 -3.3177
12090WAT    EPW50167  -3.075  10.015   0.344 -0.1371 -0.1302 -0.3614
12091WAT      O50168   0.283   4.268   6.144  0.4108  0.3965  0.5525
12091WAT     H150169   0.251   4.355   6.120  0.2783 -0.1463 -1.4914
12091WAT     H250170   0.352   4.250   6.079 -0.0302 -1.2790  0.5087
12091WAT    EPW50171   0.288   4.277   6.132  0.3351  0.1040  0.2770
12092WAT      O50172  -0.313   6.190   0.541  0.1210  0.1389 -0.4472
12092WAT     H150173  -0.408   6.185   0.546  0.0010  1.7224 -0.4602
12092WAT     H250174  -0.290   6.153   0.456 -0.5094  0.0203 -0.5660
12092WAT    EPW50175  -0.322   6.185   0.531  0.0220  0.3321 -0.4646
12093WAT      O50176   4.065   9.384   3.024 -0.1552  0.1783  0.2467
12093WAT     H150177   4.084   9.444   2.952 -0.4039  0.8214  0.6953
12093WAT     H250178   4.003   9.433   3.079 -0.1061 -0.3656  0.7944
12093WAT    EPW50179   4.059   9.399   3.022 -0.1814  0.1917  0.3781
12094WAT      O50180   4.522   7.427   1.514  0.9058  0.0047  0.4704
12094WAT     H150181   4.457   7.410   1.582  0.9425  0.8086  0.7222
12094WAT     H250182   4.472   7.434   1.433  0.6690  0.6330  0.6659
12094WAT    EPW50183   4.507   7.426   1.512  0.8795  0.1936  0.5294
12095WAT      O50184   1.433   5.292   0.811 -0.9487 -0.3446  0.0429
12095WAT     H150185   1.418   5.386   0.808 -3.7998 -0.6950  0.5935
12095WAT     H250186   1.505   5.277   0.750  0.5685  2.3182  1.0346
12095WAT    EPW50187   1.440   5.302   0.803 -1.1246 -0.0393  0.2463
12096WAT      O50188   5.035   2.277   6.427  0.1934  1.1841  0.2957
12096WAT     H150189   5.107   2.224   6.391  0.1964  1.4847 -0.1410
12096WAT     H250190   5.026   2.350   6.366 -0.0032  1.5375  0.7440
12096WAT    EPW50191   5.043   2.279   6.414  0.1681  1.2703  0.2973
12097WAT      O50192   0.341   1.994   0.026  0.6898 -0.5078 -0.2465
12097WAT     H150193   0.399   2.019   0.098  0.3201  1.5890 -0.6033
12097WAT     H250194   0.259   2.039   0.045  0.4526 -0.2531 -1.7688
12097WAT    EPW50195   0.338   2.003   0.038  0.6098 -0.1976 -0.4943
12098WAT      O50196  -3.613   1.500   7.538  0.7175 -0.5757 -0.3770
12098WAT     H150197  -3.527   1.504   7.579  1.3234  0.8416 -1.6691
12098WAT     H250198  -3.604   1.555   7.460 -0.9896 -1.4342 -1.2313
12098WAT    EPW50199  -3.600   1.507   7.533  0.5723 -0.5020 -0.6602
12099WAT      O50200  -0.904   7.740   2.190 -0.3549 -0.9073  0.3920
12099WAT     H150201  -0.990   7.771   2.160  0.7465  1.2599 -0.7333
12099WAT     H250202  -0.890   7.658   2.141 -0.7453  0.0042 -1.3363
12099WAT    EPW50203  -0.914   7.733   2.179 -0.2612 -0.5012  0.0156
12100WAT      O50204   3.506   3.285   3.739 -0.2226  0.0809 -0.1378
12100WAT     H150205   3.489   3.379   3.753 -1.7927 -0.1855 -0.0740
12100WAT     H250206   3.501   3.274   3.644 -0.2697  0.0154 -0.1275
12100WAT    EPW50207   3.503   3.296   3.728 -0.4359  0.0371 -0.1280
12101WAT      O50208   1.732   3.030   1.304 -0.0404  0.1592 -0.4791
12101WAT     H150209   1.747   3.067   1.390 -3.7419  0.3086  0.2555
12101WAT     H250210   1.751   2.936   1.314 -0.2497  0.2136  0.4590
12101WAT    EPW50211   1.737   3.022   1.317 -0.5562  0.1861 -0.2585
12102WAT      O50212  -0.585   9.278   5.955  0.2451 -0.1570  0.3705
12102WAT     H150213  -0.641   9.222   6.009 -0.2524 -1.0785 -1.0526
12102WAT     H250214  -0.561   9.223   5.880  1.8186  0.7239  0.1822
12102WAT    EPW50215  -0.589   9.263   5.952  0.3871 -0.1626  0.1581
12103WAT      O50216   3.078   3.919   8.110 -0.4523 -0.1142  0.1340
12103WAT     H150217   3.068   3.853   8.178 -0.5785 -2.4507 -2.0265
12103WAT     H250218   3.017   3.988   8.135 -0.5792 -0.9101  2.2844
12103WAT    EPW50219   3.069   3.920   8.123 -0.4857 -0.5274  0.1326
12104WAT      O50220  -2.875   0.466   7.571  0.4769  0.3930  0.7501
12104WAT     H150221  -2.824   0.418   7.636 -0.7779 -1.7056  0.2519
12104WAT     H250222  -2.901   0.547   7.616 -0.1426 -0.8819  2.7888
12104WAT    EPW50223  -2.871   0.471   7.586  0.2296 -0.0519  0.9532
12105WAT      O50224   0.818   8.065   4.198  0.1915 -0.3231 -0.0802
12105WAT     H150225   0.874   8.034   4.126  1.5625  0.4973  0.5836
12105WAT     H250226   0.774   7.986   4.229 -0.2064 -0.7437 -1.6148
12105WAT    EPW50227   0.820   8.050   4.193  0.3199 -0.2704 -0.1950
12106WAT      O50228  -0.815   8.710   4.172 -0.5508  0.2540  0.0366
12106WAT     H150229  -0.790   8.701   4.264  1.2822  0.3600 -0.3992
12106WAT     H250230  -0.733   8.696   4.124 -1.3702  0.6780 -1.5557
12106WAT    EPW50231  -0.801   8.707   4.178 -0.4171  0.3238 -0.2308
12107WAT      O50232   5.825   1.425   0.013 -0.1585 -0.2920  0.1820
12107WAT     H150233   5.907   1.438  -0.036 -0.5396  0.1995 -0.3460
12107WAT     H250234   5.845   1.355   0.075  0.8596  0.2490  0.5047
12107WAT    EPW50235   5.839   1.417   0.015 -0.0745 -0.1559  0.1545
12108WAT      O50236   2.441   7.449   8.912 -0.0820  0.7003  0.0247
12108WAT     H150237   2.429   7.427   8.819  0.7341  2.4730 -0.5437
12108WAT     H250238   2.378   7.393   8.958  2.1459 -3.1805 -1.1686
12108WAT    EPW50239   2.431   7.439   8.906  0.3196  0.4220 -0.2079
12109WAT      O50240  -5.497   1.343   8.599 -0.7319 -0.5602  0.1310
12109WAT     H150241  -5.422   1.395   8.570 -2.6816  2.1071 -0.4432
12109WAT     H250242  -5.466   1.253   8.594  2.6068  0.4168  0.4744
12109WAT    EPW50243  -5.483   1.338   8.595 -0.5486 -0.0795  0.1006
12110WAT      O50244   9.236   0.338   1.166 -0.3754 -0.6456 -0.0782
12110WAT     H150245   9.153   0.381   1.143 -1.2925 -2.4348 -0.3502
12110WAT     H250246   9.218   0.245   1.151  2.3825 -0.9428 -2.3469
12110WAT    EPW50247   9.223   0.331   1.161 -0.1330 -0.9208 -0.4132
12111WAT      O50248   2.172   0.464   0.760 -0.6138 -0.7745  0.3947
12111WAT     H150249   2.127   0.535   0.806  0.5742  0.4875 -0.3154
12111WAT     H250250   2.200   0.503   0.677  2.8362 -1.0387  1.2787
12111WAT    EPW50251   2.170   0.479   0.755 -0.0021 -0.6429  0.4176
12112WAT      O50252   9.339   2.089   0.969  0.0347  0.4265 -0.2789
12112WAT     H150253   9.246   2.070   0.983  0.5792 -2.0031  0.5615
12112WAT     H250254   9.360   2.047   0.885  0.2305  1.6247 -0.8477
12112WAT    EPW50255   9.330   2.081   0.960  0.1321  0.2640 -0.2431
12113WAT      O50256  -1.558   6.071   1.036  0.3135  0.1260  0.2470
12113WAT     H150257  -1.495   6.069   1.109  0.4824 -1.7894  0.0858
12113WAT     H250258  -1.503   6.077   0.958  0.1210  2.6026  0.2279
12113WAT    EPW50259  -1.543   6.072   1.035  0.3104  0.2003  0.2232
12114WAT      O50260   3.411   5.916   7.936  0.8937 -0.0496  0.2133
12114WAT     H150261   3.475   5.845   7.944  1.2148  0.2762  0.5387
12114WAT     H250262   3.456   5.983   7.885 -0.1014 -0.8892 -1.8789
12114WAT    EPW50263   3.425   5.916   7.930  0.8049 -0.1173 -0.0196
12115WAT      O50264  -2.315   4.076   5.224  0.4811 -0.0652  0.3523
12115WAT     H150265  -2.371   4.127   5.283 -0.0124  0.3146 -0.4231
12115WAT     H250266  -2.331   4.114   5.138 -0.5059 -2.0071 -0.4067
12115WAT    EPW50267  -2.325   4.088   5.220  0.2857 -0.2713  0.1500
12116WAT      O50268   2.692   7.996   0.411  0.4699 -0.7605 -0.8821
12116WAT     H150269   2.653   8.009   0.325 -0.8782  0.9445 -0.0625
12116WAT     H250270   2.654   7.914   0.442  0.9612 -1.3902 -1.8626
12116WAT    EPW50271   2.682   7.987   0.404  0.3569 -0.6185 -0.9033
12117WAT      O50272   9.673   0.635   1.288 -0.5741  0.2410  0.5590
12117WAT     H150273   9.663   0.713   1.233 -0.2422  0.3869  0.6993
12117WAT     H250274   9.594   0.634   1.343 -0.8688  0.1373  0.1393
12117WAT    EPW50275   9.661   0.645   1.288 -0.5693  0.2465  0.5221
12118WAT      O50276   4.691   6.445   1.187  0.2430 -0.3827  0.1532
12118WAT     H150277   4.607   6.450   1.142 -0.5168 -0.4187  1.4975
12118WAT     H250278   4.668   6.443   1.280  1.7846  0.8902  0.6064
12118WAT    EPW50279   4.677   6.446   1.194  0.3459 -0.2196  0.3903
12119WAT      O50280   6.353   7.929   2.354  0.4351  0.0023  0.4182
12119WAT     H150281   6.297   7.965   2.423  2.1285  1.5330  1.0859
12119WAT     H250282   6.327   7.837   2.348 -2.8739  0.8525 -0.1099
12119WAT    EPW50283   6.342   7.921   2.363  0.2220  0.3164  0.4367
12120WAT      O50284  -1.257   6.248   4.115  0.1288 -0.5191 -0.2069
12120WAT     H150285  -1.256   6.343   4.126 -0.3741 -0.5606  0.1890
12120WAT     H250286  -1.349   6.226   4.101  0.4858 -0.6975 -2.5875
12120WAT    EPW50287  -1.269   6.258   4.115  0.1096 -0.5481 -0.4687
12121WAT      O50288   5.570  10.271   2.207  0.5976 -0.0340  0.5446
12121WAT     H150289   5.592  10.178   2.200 -1.2503 -0.4382 -0.6161
12121WAT     H250290   5.566  10.302   2.117 -1.0377  0.5754  0.7934
12121WAT    EPW50291   5.572  10.263   2.194  0.1383 -0.0067  0.4243
12122WAT      O50292   7.245   2.005   1.527 -0.0332 -0.1491  0.4737
12122WAT     H150293   7.329   2.027   1.567  0.0790 -0.4408  0.4034
12122WAT     H250294   7.185   2.073   1.556  0.3225  0.2796  0.2055
12122WAT    EPW50295   7.248   2.017   1.536  0.0286 -0.1311  0.4291
12123WAT      O50296   4.942   3.981   6.173  0.4148  0.5486  0.3468
12123WAT     H150297   4.912   4.008   6.260  0.2864 -0.8712  0.7786
12123WAT     H250298   4.972   4.061   6.131  0.2756  1.2885  1.6274
12123WAT    EPW50299   4.942   3.995   6.179  0.3796  0.4591  0.5727
12124WAT      O50300  -5.252   7.946   4.928 -0.1201 -0.5143 -0.6855
12124WAT     H150301  -5.337   7.915   4.960 -0.0300 -0.5287 -0.4566
12124WAT     H250302  -5.249   7.917   4.837  0.1243 -1.5190 -0.3751
12124WAT    EPW50303  -5.263   7.938   4.921 -0.0761 -0.6487 -0.6144
12125WAT      O50304   5.024   0.068   4.260 -0.2723  0.1069  0.8992
12125WAT     H150305   5.049   0.154   4.294 -0.2233  0.8614 -0.9488
12125WAT     H250306   5.078   0.056   4.182 -0.4588 -1.4953  0.9888
12125WAT    EPW50307   5.034   0.078   4.254 -0.2906 -0.0049  0.6673
12126WAT      O50308  -0.501   9.037   4.989 -0.2802 -0.1484  0.2311
12126WAT     H150309  -0.422   9.037   4.935 -1.5688 -2.4630 -1.8195
12126WAT     H250310  -0.552   9.111   4.955 -1.5023 -2.1091 -2.6239
12126WAT    EPW50311  -0.497   9.047   4.977 -0.6114 -0.7119 -0.4158
12127WAT      O50312   3.430   6.611   8.364  0.3993  0.1487  0.1340
12127WAT     H150313   3.510   6.560   8.349  2.3826  2.3896  2.1945
12127WAT     H250314   3.416   6.607   8.458 -1.2862  0.7910 -0.0524
12127WAT    EPW50315   3.439   6.603   8.374  0.4386  0.5291  0.3810
12128WAT      O50316  -1.462   6.128   7.084 -0.8660 -0.4462 -0.4477
12128WAT     H150317  -1.407   6.121   7.006 -0.4140  0.7868 -0.2575
12128WAT     H250318  -1.401   6.136   7.157 -1.2941 -0.6214 -0.0611
12128WAT    EPW50319  -1.447   6.128   7.083 -0.8628 -0.3066 -0.3717
12129WAT      O50320   5.500   4.157   6.505  0.0031  0.5850 -0.6245
12129WAT     H150321   5.506   4.107   6.424  0.5234 -0.2237 -0.1020
12129WAT     H250322   5.583   4.140   6.550 -0.9892 -0.4335  0.8923
12129WAT    EPW50323   5.512   4.148   6.500 -0.0591  0.3438 -0.3557
12130WAT      O50324   5.549   1.748   7.296  0.4572 -0.0215  0.6791
12130WAT     H150325   5.594   1.741   7.380  1.3913  0.0118  0.1875
12130WAT     H250326   5.617   1.734   7.231 -0.4665 -1.1833 -0.0695
12130WAT    EPW50327   5.564   1.746   7.299  0.4585 -0.1704  0.5155
12131WAT      O50328  -2.135   6.698   2.711  0.1131 -0.0185 -0.3062
12131WAT     H150329  -2.223   6.687   2.749  0.7271  0.1393  1.2640
12131WAT     H250330  -2.090   6.616   2.733  2.1646  1.9821  4.2632
12131WAT    EPW50331  -2.141   6.686   2.719  0.4647  0.2663  0.5035
12132WAT      O50332  -0.041   3.699   7.377 -0.3505  0.2299 -0.2387
12132WAT     H150333  -0.049   3.758   7.452 -3.2206 -1.1059  0.6293
12132WAT     H250334  -0.130   3.689   7.344  0.0379 -3.1575 -0.6633
12132WAT    EPW50335  -0.053   3.706   7.383 -0.6778 -0.3930 -0.1802
12133WAT      O50336  -3.679   1.087   8.385 -0.1956  0.3546 -0.8654
12133WAT     H150337  -3.627   1.150   8.434  0.4959 -1.0701  0.3062
12133WAT     H250338  -3.727   1.140   8.321  0.6961  1.9925 -0.2326
12133WAT    EPW50339  -3.678   1.102   8.383  0.0131  0.3827 -0.6275
12134WAT      O50340   8.820   0.891   2.192 -0.0990 -0.1023 -0.5795
12134WAT     H150341   8.765   0.919   2.265  0.1668 -0.5061 -0.2234
12134WAT     H250342   8.762   0.841   2.135  0.2050 -1.7916  0.5255
12134WAT    EPW50343   8.805   0.888   2.194 -0.0238 -0.3783 -0.3868
12135WAT      O50344  -0.330   0.653   3.842 -0.1836  0.1440  0.3818
12135WAT     H150345  -0.379   0.734   3.826  0.9864  1.4632  2.9220
12135WAT     H250346  -0.396   0.584   3.836 -1.3825  1.3341 -0.9477
12135WAT    EPW50347  -0.345   0.654   3.839 -0.1874  0.4749  0.5414
12136WAT      O50348  -3.134   9.161   5.226  0.3565 -0.1118 -0.2224
12136WAT     H150349  -3.134   9.097   5.155 -0.6811 -0.4015  0.0287
12136WAT     H250350  -3.119   9.245   5.182  1.0713 -0.4435 -0.6247
12136WAT    EPW50351  -3.132   9.164   5.210  0.3140 -0.1941 -0.2422
12137WAT      O50352   1.449   7.778   8.664  0.4438  0.0721  0.4234
12137WAT     H150353   1.384   7.805   8.728  1.7251  0.3630  1.6558
12137WAT     H250354   1.528   7.826   8.688  1.5581 -1.4219 -0.0509
12137WAT    EPW50355   1.451   7.788   8.675  0.7598 -0.0868  0.5236
12138WAT      O50356  -1.167   6.174   0.589 -0.1099  0.2168 -0.4750
12138WAT     H150357  -1.128   6.205   0.508  2.0720  0.8831  0.7617
12138WAT     H250358  -1.210   6.251   0.626 -0.1538  0.1860 -0.4607
12138WAT    EPW50359  -1.168   6.188   0.583  0.1720  0.3006 -0.3100
12139WAT      O50360   4.420   8.875   5.619 -0.2026  0.3176  0.5586
12139WAT     H150361   4.370   8.877   5.700 -0.8996  1.5632  0.1310
12139WAT     H250362   4.358   8.905   5.552  0.1990 -1.1926 -0.5355
12139WAT    EPW50363   4.406   8.879   5.620 -0.2415  0.2823  0.3579
12140WAT      O50364   3.802   8.168   3.642 -0.3195 -0.3756 -0.2005
12140WAT     H150365   3.854   8.168   3.723 -1.5005  0.7560  0.5928
12140WAT     H250366   3.740   8.095   3.654  0.9524 -1.6640 -1.1059
12140WAT    EPW50367   3.801   8.158   3.654 -0.3074 -0.3963 -0.2152
12141WAT      O50368   2.765   6.670   7.017  0.1236  0.1174 -0.2804
12141WAT     H150369   2.733   6.677   6.927 -0.0631  1.2905 -0.1289
12141WAT     H250370   2.690   6.634   7.065  0.0674 -0.0691 -0.5047
12141WAT    EPW50371   2.751   6.666   7.011  0.0916  0.2477 -0.2902
12142WAT      O50372  -6.360   8.667   6.535  0.2277  0.7004 -0.1053
12142WAT     H150373  -6.360   8.762   6.528 -1.0893  0.6624 -1.1373
12142WAT     H250374  -6.451   8.642   6.517  0.1474 -0.6474  1.9349
12142WAT    EPW50375  -6.372   8.676   6.531  0.0434  0.5178  0.0277
12143WAT      O50376   7.523   3.876   1.038 -0.0089  0.6292 -0.7544
12143WAT     H150377   7.446   3.839   1.082  0.7226 -0.8740 -0.6776
12143WAT     H250378   7.507   3.862   0.945  1.3835 -2.3721 -0.6530
12143WAT    EPW50379   7.511   3.870   1.032  0.2711  0.0352 -0.7308
12144WAT      O50380  -2.630   6.852   5.631 -0.3082  0.0529 -0.3039
12144WAT     H150381  -2.574   6.775   5.643 -0.8644 -0.8831 -2.9394
12144WAT     H250382  -2.570   6.921   5.604  0.1273  0.4672  1.5792
12144WAT    EPW50383  -2.615   6.851   5.629 -0.3242 -0.0157 -0.4032
12145WAT      O50384   3.821   0.850   6.338 -0.0684  0.0870  0.1031
12145WAT     H150385   3.868   0.810   6.412  0.1157 -1.3061 -0.7296
12145WAT     H250386   3.813   0.780   6.274 -1.9673  0.7087 -0.4156
12145WAT    EPW50387   3.826   0.836   6.339 -0.2944 -0.0147 -0.0753
12146WAT      O50388   0.681   4.686   1.126  0.0725 -0.7113 -0.1852
12146WAT     H150389   0.660   4.680   1.032  2.8365 -0.1049 -0.9166
12146WAT     H250390   0.626   4.759   1.157 -2.3089 -2.1213 -0.8159
12146WAT    EPW50391   0.671   4.695   1.118  0.1230 -0.8173 -0.3648
12147WAT      O50392   8.958   3.862   0.105 -0.5780 -0.5675  0.0610
12147WAT     H150393   8.879   3.826   0.065 -0.1789 -0.0243 -1.2738
12147WAT     H250394   9.029   3.830   0.050 -0.0631  0.7750 -0.0938
12147WAT    EPW50395   8.957   3.853   0.093 -0.4573 -0.3189 -0.1355
12148WAT      O50396   0.181   7.114   2.641  0.0852 -0.5798 -0.1753
12148WAT     H150397   0.258   7.170   2.635 -0.0957 -0.1762  0.9546
12148WAT     H250398   0.108   7.175   2.650 -0.4395 -0.9475 -1.6946
12148WAT    EPW50399   0.182   7.130   2.642 -0.0078 -0.5751 -0.2266
12149WAT      O50400  -4.751   7.532   5.607  0.4426 -0.4789 -0.1585
12149WAT     H150401  -4.835   7.579   5.602  0.0245 -1.2101 -0.2365
12149WAT     H250402  -4.771   7.455   5.661  0.7094 -1.3791 -1.3145
12149WAT    EPW50403  -4.765   7.528   5.613  0.4227 -0.6943 -0.3211
12150WAT      O50404   0.375   2.230   3.533 -0.0866 -0.4403 -0.5003
12150WAT     H150405   0.282   2.233   3.557  0.0760 -0.4736  0.1563
12150WAT     H250406   0.419   2.279   3.603  0.2824  0.5393 -1.3910
12150WAT    EPW50407   0.369   2.237   3.546 -0.0165 -0.3154 -0.5312
12151WAT      O50408  -0.745   2.541   3.732  0.9727 -0.0268 -0.4707
12151WAT     H150409  -0.785   2.617   3.690  0.8024 -0.1239 -0.4876
12151WAT     H250410  -0.665   2.525   3.683  1.7551  1.0090  0.4090
12151WAT    EPW50411  -0.740   2.549   3.720  1.0535  0.0970 -0.3569
12152WAT      O50412   6.075   0.543   7.068 -0.7624  0.3926  0.0474
12152WAT     H150413   5.981   0.542   7.050 -0.3953  0.0138 -2.1729
12152WAT     H250414   6.116   0.539   6.981  1.3493  3.8566  0.7028
12152WAT    EPW50415   6.068   0.542   7.054 -0.4356  0.7995 -0.1590
12153WAT      O50416   3.370   0.875   8.813  0.0623 -0.4935  0.0301
12153WAT     H150417   3.283   0.906   8.786 -0.3779 -1.2832  0.4928
12153WAT     H250418   3.401   0.824   8.739  0.2728  0.0550 -0.2624
12153WAT    EPW50419   3.362   0.872   8.800  0.0319 -0.5254  0.0525
12154WAT      O50420  -1.484   7.107   0.128 -0.0560 -0.2908  0.2154
12154WAT     H150421  -1.476   7.047   0.053  0.3516  0.6566 -0.5193
12154WAT     H250422  -1.499   7.193   0.089 -0.8611  0.0634  1.2646
12154WAT    EPW50423  -1.485   7.110   0.113 -0.1084 -0.1190  0.2569
12155WAT      O50424   6.499   5.208   4.108 -0.0692  0.2353  0.2449
12155WAT     H150425   6.528   5.257   4.185 -1.2876 -0.5209  1.2219
12155WAT     H250426   6.460   5.275   4.051  3.0062  1.1964 -0.9024
12155WAT    EPW50427   6.498   5.224   4.111  0.1757  0.2625  0.2224
12156WAT      O50428  -4.808   9.385   8.121 -0.6328  0.2414  0.4700
12156WAT     H150429  -4.768   9.331   8.190 -1.6183 -0.6407  0.3785
12156WAT     H250430  -4.895   9.346   8.108 -2.3123  3.1553  1.9560
12156WAT    EPW50431  -4.815   9.373   8.129 -0.9844  0.5093  0.6537
12157WAT      O50432  -0.611   8.307   8.166  0.3617  0.2733 -0.4199
12157WAT     H150433  -0.583   8.273   8.251 -1.0481 -2.8408 -1.0370
12157WAT     H250434  -0.699   8.272   8.154 -0.2884  2.3312 -2.3187
12157WAT    EPW50435  -0.619   8.298   8.176  0.0901  0.1340 -0.7520
12158WAT      O50436   2.152   7.049   5.616 -0.1029 -0.0137 -0.6653
12158WAT     H150437   2.121   7.042   5.706 -0.1226 -0.7778 -0.7246
12158WAT     H250438   2.075   7.072   5.565  0.5818  4.7023  0.0056
12158WAT    EPW50439   2.138   7.051   5.622 -0.0153  0.5076 -0.5844
12159WAT      O50440   0.854   9.180   6.233 -1.0747 -0.1810 -0.0676
12159WAT     H150441   0.902   9.172   6.150  0.2170  0.8731  0.5392
12159WAT     H250442   0.769   9.216   6.207  0.4010  3.2698 -0.7507
12159WAT    EPW50443   0.849   9.183   6.218 -0.7097  0.4134 -0.0780
12160WAT      O50444   1.423   2.027   7.560  0.8296  0.7261 -0.2588
12160WAT     H150445   1.378   1.950   7.595  2.8577  0.0098  0.9754
12160WAT     H250446   1.363   2.062   7.494 -0.7388 -1.1212  0.0882
12160WAT    EPW50447   1.409   2.022   7.556  0.8902  0.3879 -0.0501
12161WAT      O50448  -1.007   1.316   1.089 -0.4787 -0.0445  0.7450
12161WAT     H150449  -1.049   1.390   1.044 -0.2709 -1.3662 -1.7964
12161WAT     H250450  -0.941   1.357   1.145  0.3533  1.7020 -1.3540
12161WAT    EPW50451  -1.004   1.331   1.090 -0.3416  0.0116  0.1329
12162WAT      O50452  -0.976   7.784   3.720  0.6468  0.3210 -0.2747
12162WAT     H150453  -0.899   7.836   3.697  1.5060 -1.0706 -0.6913
12162WAT     H250454  -0.943   7.720   3.783 -0.3485  0.2083  0.1419
12162WAT    EPW50455  -0.961   7.782   3.725  0.6288  0.1223 -0.2747
12163WAT      O50456   1.977   8.617   4.697  0.6390  0.2507  0.3990
12163WAT     H150457   1.977   8.656   4.609  1.4823 -0.7519 -0.0688
12163WAT     H250458   2.012   8.686   4.753  0.0874  0.9044 -0.0488
12163WAT    EPW50459   1.982   8.631   4.693  0.6774  0.2046  0.2782
12164WAT      O50460   0.403   8.586   2.648 -0.3967  0.9344 -0.0449
12164WAT     H150461   0.455   8.608   2.571 -0.1921  1.5719  0.2712
12164WAT     H250462   0.340   8.658   2.656 -2.0115 -0.3096 -1.0109
12164WAT    EPW50463   0.401   8.598   2.639 -0.5827  0.8545 -0.1307
12165WAT      O50464   5.870   1.695   6.268  0.2152 -0.1472 -0.3486
12165WAT     H150465   5.835   1.639   6.337 -0.1696  1.9531  1.2698
12165WAT     H250466   5.965   1.681   6.271  0.1427 -0.5381  0.1871
12165WAT    EPW50467   5.878   1.686   6.278  0.1550  0.0783 -0.0646
12166WAT      O50468  -2.878   4.976   8.421  0.1905  0.0117 -0.3988
12166WAT     H150469  -2.866   5.066   8.391 -0.3650  0.8004  1.5671
12166WAT     H250470  -2.802   4.958   8.475 -0.1856 -0.3348  0.0240
12166WAT    EPW50471  -2.866   4.985   8.424  0.0676  0.0701 -0.0839
12167WAT      O50472  -1.194   8.157   3.618  0.0954  0.4968 -0.3157
12167WAT     H150473  -1.107   8.121   3.601 -0.2821 -0.5659 -0.0803
12167WAT     H250474  -1.231   8.172   3.531  1.6904  4.0934 -0.5489
12167WAT    EPW50475  -1.188   8.155   3.604  0.2559  0.8311 -0.3154
12168WAT      O50476  -2.414   1.765   6.896  0.5762 -0.0039  0.2671
12168WAT     H150477  -2.386   1.797   6.981 -1.5781 -0.1867  1.1005
12168WAT     H250478  -2.372   1.679   6.888  1.0550  0.1546  0.9708
12168WAT    EPW50479  -2.404   1.758   6.906  0.3552 -0.0071  0.4697
12169WAT      O50480   4.013   5.118   5.587 -0.9549  0.3733  0.2339
12169WAT     H150481   3.973   5.101   5.673  1.0980  1.0673  1.3869
12169WAT     H250482   3.947   5.167   5.540 -2.2097 -0.1787  1.3389
12169WAT    EPW50483   3.999   5.122   5.592 -0.8496  0.3920  0.5317
12170WAT      O50484  -3.617   9.759   1.890 -0.1984 -0.1479  0.3022
12170WAT     H150485  -3.700   9.802   1.910 -1.3444 -1.0560 -2.0953
12170WAT     H250486  -3.597   9.707   1.968  0.2419  3.0272  2.5133
12170WAT    EPW50487  -3.625   9.758   1.903 -0.2915  0.1507  0.2775
12171WAT      O50488   5.987   6.884   2.475  0.7479  0.0310  0.6703
12171WAT     H150489   5.904   6.854   2.511 -0.9481  2.8843 -0.4824
12171WAT     H250490   5.990   6.848   2.386  0.9633 -0.3927  0.8457
12171WAT    EPW50491   5.977   6.876   2.468  0.5527  0.3514  0.5413
12172WAT      O50492   3.738   5.636   8.023  0.0669 -0.2498 -0.6564
12172WAT     H150493   3.756   5.549   8.060 -0.0334 -0.6192 -1.4543
12172WAT     H250494   3.649   5.629   7.989 -0.5085  0.6360  0.5782
12172WAT    EPW50495   3.729   5.623   8.024 -0.0222 -0.1817 -0.5989
12173WAT      O50496  -5.517   8.613   7.203 -0.4768 -0.0083 -0.2388
12173WAT     H150497  -5.568   8.602   7.123  1.6458 -1.5654 -1.5007
12173WAT     H250498  -5.578   8.592   7.274 -1.5697 -1.9998 -1.6675
12173WAT    EPW50499  -5.531   8.608   7.202 -0.3412 -0.4764 -0.5937
12174WAT      O50500   7.495   1.873   1.259  0.4957  0.4318  0.8524
12174WAT     H150501   7.430   1.828   1.206  0.5671  0.1900  0.9672
12174WAT     H250502   7.571   1.814   1.257  0.1690 -0.0553  2.0278
12174WAT    EPW50503   7.497   1.859   1.252  0.4621  0.3356  1.0226
12175WAT      O50504   1.066   6.644   7.146  0.3622 -0.0419 -0.6482
12175WAT     H150505   0.976   6.674   7.133  0.4618  2.2922  2.6867
12175WAT     H250506   1.109   6.659   7.061 -1.8635  0.7320 -1.7114
12175WAT    EPW50507   1.060   6.650   7.133  0.0818  0.3681 -0.3486
12176WAT      O50508   0.992   1.199   2.838 -0.3483  0.5072  0.2009
12176WAT     H150509   0.933   1.204   2.913 -1.5825  1.3052 -0.7951
12176WAT     H250510   1.050   1.125   2.858 -0.4247  0.9185  2.0869
12176WAT    EPW50511   0.992   1.190   2.850 -0.5211  0.6667  0.3183
12177WAT      O50512  -0.885   5.363   3.677  0.5601 -1.0376 -0.0775
12177WAT     H150513  -0.887   5.421   3.754  3.9338 -0.6221 -0.1542
12177WAT     H250514  -0.939   5.408   3.612 -0.8467 -0.4698  1.4201
12177WAT    EPW50515  -0.892   5.377   3.679  0.8196 -0.9079  0.1099
12178WAT      O50516  -3.260   7.493   7.126 -0.3371 -0.3477 -0.3814
12178WAT     H150517  -3.336   7.438   7.107  0.4857 -1.3892 -0.7027
12178WAT     H250518  -3.286   7.542   7.204 -1.4081 -0.5543 -0.5864
12178WAT    EPW50519  -3.273   7.492   7.134 -0.3699 -0.5121 -0.4506
12179WAT      O50520   3.885   2.321   0.936  0.1061 -0.9504 -0.2690
12179WAT     H150521   3.902   2.415   0.932  2.2850 -1.2999 -0.2955
12179WAT     H250522   3.939   2.283   0.866  0.3676 -2.3491  0.6435
12179WAT    EPW50523   3.894   2.328   0.926  0.4280 -1.1810 -0.1522
12180WAT      O50524   1.253   1.142   1.914 -0.5753 -0.1357 -0.1570
12180WAT     H150525   1.271   1.072   1.851 -1.2689  0.9333 -1.6161
12180WAT     H250526   1.159   1.159   1.903 -0.6369  0.2786  0.9681
12180WAT    EPW50527   1.243   1.135   1.904 -0.6749  0.0598 -0.2010
12181WAT      O50528   5.115   4.964   3.881 -0.5280  0.3663 -0.3917
12181WAT     H150529   5.047   5.031   3.879  0.6098  1.5475 -1.5160
12181WAT     H250530   5.076   4.889   3.837 -1.2569  0.8781 -0.6328
12181WAT    EPW50531   5.101   4.963   3.875 -0.4742  0.5896 -0.5718
12182WAT      O50532  -1.516   4.275   0.639 -0.9691  0.2674 -0.5876
12182WAT     H150533  -1.456   4.328   0.588  2.8915 -3.2859 -0.2594
12182WAT     H250534  -1.524   4.321   0.723 -0.2551  1.7873 -1.3235
12182WAT    EPW50535  -1.509   4.288   0.644 -0.3657 -0.0007 -0.6414
12183WAT      O50536   2.374   6.055   4.237  0.4210 -0.0038 -0.5815
12183WAT     H150537   2.362   5.967   4.273  1.4690 -0.8157 -2.1015
12183WAT     H250538   2.289   6.098   4.250  0.7742 -0.0884  2.9826
12183WAT    EPW50539   2.361   6.049   4.243  0.6058 -0.1221 -0.3119
12184WAT      O50540   5.734   2.029   1.724  0.2866 -0.6162 -0.3238
12184WAT     H150541   5.684   1.949   1.737 -0.0051 -0.4299 -0.2900
12184WAT     H250542   5.681   2.097   1.766  2.1534 -0.9093  2.8352
12184WAT    EPW50543   5.720   2.028   1.732  0.4945 -0.6304  0.0973
12185WAT      O50544  -1.831   8.939   2.542  0.5738 -0.0783 -0.1855
12185WAT     H150545  -1.835   9.035   2.532 -0.5692  0.0533  1.2361
12185WAT     H250546  -1.894   8.920   2.611  0.8305 -1.8739 -0.4136
12185WAT    EPW50547  -1.840   8.949   2.550  0.4569 -0.2975 -0.0280
12186WAT      O50548   6.421   5.256   2.218 -0.6923 -0.4399 -0.1195
12186WAT     H150549   6.483   5.312   2.172 -1.6545  0.6250 -0.1673
12186WAT     H250550   6.461   5.169   2.217  1.5801  0.5179  1.3202
12186WAT    EPW50551   6.434   5.252   2.212 -0.5195 -0.1731  0.0640
12187WAT      O50552   0.374   1.574   0.607 -0.3234 -0.3097  0.5135
12187WAT     H150553   0.357   1.513   0.678  0.8467  0.5635  1.5844
12187WAT     H250554   0.308   1.643   0.619 -0.8726 -0.7491  0.0366
12187WAT    EPW50555   0.363   1.575   0.618 -0.2415 -0.2525  0.5918
12188WAT      O50556  -0.735   5.101   1.111 -0.1030  0.2595 -1.1339
12188WAT     H150557  -0.682   5.148   1.174  0.7492 -1.7593 -0.2669
12188WAT     H250558  -0.721   5.148   1.028 -0.3494  2.2581 -0.1078
12188WAT    EPW50559  -0.726   5.113   1.108 -0.0231  0.2568 -0.8842
12189WAT      O50560   2.724   9.919   6.026  0.3547 -0.0002 -0.2663
12189WAT     H150561   2.640   9.963   6.017  1.4641  2.5954  1.0982
12189WAT     H250562   2.714   9.863   6.103 -0.1714  0.1739 -0.2046
12189WAT    EPW50563   2.712   9.917   6.035  0.4317  0.3648 -0.0782
12190WAT      O50564   4.909   8.258   3.808  0.4306  0.1055  0.0004
12190WAT     H150565   4.957   8.207   3.742  0.3340 -2.0513  1.5098
12190WAT     H250566   4.971   8.269   3.880 -0.4575 -0.3478  0.8577
12190WAT    EPW50567   4.923   8.253   3.809  0.3009 -0.2389  0.3126
12191WAT      O50568   0.924   3.575   5.427  0.3869 -0.3530 -0.0496
12191WAT     H150569   0.916   3.649   5.488  2.2543 -1.0785  1.1716
12191WAT     H250570   0.849   3.519   5.447  0.8519 -0.4783  1.5182
12191WAT    EPW50571   0.913   3.577   5.438  0.6945 -0.4652  0.3183
12192WAT      O50572   5.738   3.127   3.722  0.1218  0.9686  0.1509
12192WAT     H150573   5.722   3.196   3.786  0.0919  0.2450  0.9434
12192WAT     H250574   5.832   3.112   3.727  0.1395  1.0068 -0.0783
12192WAT    EPW50575   5.748   3.134   3.731  0.1202  0.8782  0.2253
12193WAT      O50576  -2.193   6.670   6.309  0.0713  0.0762  0.0433
12193WAT     H150577  -2.279   6.700   6.336  0.7569  5.8090 -2.5619
12193WAT     H250578  -2.204   6.648   6.216  0.9808 -1.7033  0.3266
12193WAT    EPW50579  -2.206   6.671   6.300  0.2817  0.5977 -0.2630
12194WAT      O50580   6.018   6.946   1.443  0.3013  0.6527  0.8727
12194WAT     H150581   6.086   6.924   1.379  0.0240  0.8530  0.5019
12194WAT     H250582   5.937   6.909   1.406  0.2262  0.3078  1.3692
12194WAT    EPW50583   6.016   6.938   1.429  0.2546  0.6337  0.8893
12195WAT      O50584   4.037   1.557   8.417  0.1492 -1.4924 -0.2317
12195WAT     H150585   3.974   1.623   8.447  0.4341 -0.6660 -1.3834
12195WAT     H250586   4.120   1.582   8.458  0.6854  0.0104 -2.0605
12195WAT    EPW50587   4.040   1.569   8.426  0.2575 -1.1852 -0.6247
12196WAT      O50588  -0.270   5.380   7.069 -0.0098 -0.3741  0.1879
12196WAT     H150589  -0.356   5.397   7.107  1.7699  2.5018  3.4885
12196WAT     H250590  -0.272   5.425   6.984 -2.5205 -2.7461 -1.1573
12196WAT    EPW50591  -0.282   5.388   7.063 -0.1062 -0.3076  0.4456
12197WAT      O50592   4.528   0.942   5.337  0.0580  0.7065 -1.0611
12197WAT     H150593   4.458   1.007   5.333 -0.5383  0.1127 -0.5931
12197WAT     H250594   4.603   0.989   5.372 -1.0570  0.6039  1.7359
12197WAT    EPW50595   4.528   0.957   5.341 -0.1676  0.6147 -0.6304
12198WAT      O50596   1.462   4.499   8.576  0.3469 -0.2347  0.1073
12198WAT     H150597   1.513   4.425   8.610 -0.5681 -0.1445  1.7899
12198WAT     H250598   1.371   4.474   8.593 -0.0777  0.4346 -1.1161
12198WAT    EPW50599   1.456   4.486   8.583  0.1702 -0.1345  0.1678
12199WAT      O50600  -3.255   4.159   7.056  0.3654 -0.3607  0.3594
12199WAT     H150601  -3.172   4.131   7.095  0.3911 -2.1730 -0.8892
12199WAT     H250602  -3.229   4.202   6.974  0.1066 -0.0528  0.4378
12199WAT    EPW50603  -3.240   4.161   7.050  0.3346 -0.5591  0.2053
12200WAT      O50604   2.133   8.678   3.745  0.8648  0.1797 -0.1650
12200WAT     H150605   2.090   8.681   3.830  0.1337 -1.5037 -0.4421
12200WAT     H250606   2.062   8.662   3.682  1.6478 -0.7317 -0.8466
12200WAT    EPW50607   2.118   8.677   3.748  0.8717 -0.1626 -0.2915
12201WAT      O50608   7.666   2.256   3.169  0.0467  0.0797 -0.4164
12201WAT     H150609   7.679   2.343   3.131 -2.6451  0.7778  0.0708
12201WAT     H250610   7.608   2.211   3.108 -1.5616 -0.0089  1.0920
12201WAT    EPW50611   7.660   2.262   3.156 -0.5205  0.1600 -0.1531
12202WAT      O50612  -0.074   1.812   2.876  0.0126  0.2038 -0.9209
12202WAT     H150613  -0.039   1.748   2.814 -1.4449  0.0943 -1.6720
12202WAT     H250614  -0.142   1.764   2.923  1.0735  0.2989  0.7731
12202WAT    EPW50615  -0.078   1.797   2.874 -0.0397  0.2018 -0.7966
12203WAT      O50616   3.546   3.759   7.315  0.0517  0.6258  1.1511
12203WAT     H150617   3.637   3.759   7.345 -0.0426 -0.4613  1.5025
12203WAT     H250618   3.552   3.736   7.222  0.1730  1.2239  1.0082
12203WAT    EPW50619   3.559   3.756   7.307  0.0552  0.5612  1.1787
12204WAT      O50620  -3.052   9.478   8.324  0.1949 -0.0409  0.0721
12204WAT     H150621  -3.116   9.549   8.324 -0.2718 -0.4480  0.3683
12204WAT     H250622  -3.073   9.426   8.247 -1.9479 -1.9877  1.8200
12204WAT    EPW50623  -3.063   9.480   8.314 -0.1494 -0.3514  0.3419
12205WAT      O50624   3.339   6.225   1.182  0.6123  0.1109 -0.6192
12205WAT     H150625   3.382   6.161   1.125  0.6024 -0.4725  0.0084
12205WAT     H250626   3.249   6.194   1.190  1.0660 -0.9201  1.2162
12205WAT    EPW50627   3.333   6.212   1.176  0.6709 -0.1023 -0.2943
12206WAT      O50628  -1.183   8.817   3.795 -0.5476 -0.4705 -0.2086
12206WAT     H150629  -1.135   8.886   3.840 -1.0105 -0.4905  0.3295
12206WAT     H250630  -1.163   8.737   3.843 -0.6088 -0.5879 -0.3755
12206WAT    EPW50631  -1.174   8.816   3.807 -0.6167 -0.4883 -0.1595
12207WAT      O50632  -3.038   5.992   4.162 -0.3157  0.2563  0.8676
12207WAT     H150633  -2.999   5.905   4.163 -0.8516  0.0071  0.2897
12207WAT     H250634  -2.978   6.045   4.215  2.3860  0.5473 -2.1099
12207WAT    EPW50635  -3.025   5.988   4.169 -0.0300  0.2618  0.3986
12208WAT      O50636   3.940   2.631   8.127  0.2534  0.5535  0.6203
12208WAT     H150637   3.848   2.612   8.107  0.3856  1.5945 -1.2743
12208WAT     H250638   3.988   2.598   8.051  1.7018 -1.4743  2.3085
12208WAT    EPW50639   3.934   2.624   8.114  0.4619  0.4233  0.5932
12209WAT      O50640  -3.953   8.827   4.338 -0.4893 -0.3604 -0.1473
12209WAT     H150641  -4.030   8.839   4.282  0.3187  1.8337 -0.8944
12209WAT     H250642  -3.984   8.770   4.409 -2.5812 -0.1724 -0.8327
12209WAT    EPW50643  -3.967   8.821   4.340 -0.6586 -0.0463 -0.3364
12210WAT      O50644  -1.845   8.636   7.153 -0.4164 -0.7762 -0.2625
12210WAT     H150645  -1.809   8.698   7.090  3.7402 -2.4661  0.1685
12210WAT     H250646  -1.815   8.668   7.238  0.8219 -2.6500  0.0688
12210WAT    EPW50647  -1.836   8.649   7.156  0.2952 -1.2460 -0.1621
12211WAT      O50648   7.199   6.052   0.899 -0.5918 -0.1142 -0.5593
12211WAT     H150649   7.283   6.066   0.941 -1.3845  1.5711  0.5907
12211WAT     H250650   7.170   5.966   0.929 -0.9232  0.8425  2.0715
12211WAT    EPW50651   7.206   6.043   0.908 -0.7401  0.2344 -0.0606
12212WAT      O50652   3.924   1.563   1.523  0.1146 -0.1602  0.1021
12212WAT     H150653   3.946   1.515   1.603 -0.4780  1.8554  1.5739
12212WAT     H250654   3.852   1.621   1.549 -0.9005 -0.2405 -2.2245
12212WAT    EPW50655   3.917   1.565   1.537 -0.0975  0.0950 -0.0107
12213WAT      O50656   1.157   8.345   4.437 -0.2110 -0.6824  0.7089
12213WAT     H150657   1.086   8.281   4.430  0.6477 -1.4892 -1.1475
12213WAT     H250658   1.148   8.380   4.526 -2.7260 -0.9665  0.6399
12213WAT    EPW50659   1.147   8.341   4.448 -0.4295 -0.8264  0.4551
12214WAT      O50660   1.439   2.604   2.424  0.5173 -0.6628  0.4278
12214WAT     H150661   1.361   2.655   2.446  0.9800  0.0664  0.4168
12214WAT     H250662   1.496   2.667   2.379  0.8618 -1.3426 -0.0958
12214WAT    EPW50663   1.436   2.619   2.421  0.6237 -0.6564  0.3574
12215WAT      O50664   6.389   6.807   2.267 -0.3176 -0.4208  0.0247
12215WAT     H150665   6.483   6.793   2.278 -0.1785  0.1235 -0.4018
12215WAT     H250666   6.376   6.899   2.292  0.1503  1.2440 -4.8018
12215WAT    EPW50667   6.400   6.818   2.272 -0.2375 -0.1292 -0.6682
12216WAT      O50668   0.656   1.259   7.552  0.0870 -0.7801 -0.1706
12216WAT     H150669   0.642   1.191   7.487 -1.8623  0.8909 -1.6298
12216WAT     H250670   0.708   1.325   7.507  0.1167 -0.3298  0.5019
12216WAT    EPW50671   0.661   1.259   7.538 -0.1662 -0.5003 -0.2742
12217WAT      O50672   5.947   1.619   5.213 -0.1586 -0.6029  0.4254
12217WAT     H150673   5.964   1.584   5.126 -0.6654 -0.0426  0.0900
12217WAT     H250674   5.853   1.639   5.212 -0.0637 -0.1126  0.9197
12217WAT    EPW50675   5.937   1.617   5.202 -0.2129 -0.4643  0.4463
12218WAT      O50676   3.170   9.903   5.191 -0.3246 -0.7754 -0.1885
12218WAT     H150677   3.249   9.858   5.222  0.8892  0.4515 -1.3274
12218WAT     H250678   3.112   9.904   5.267  1.1055 -0.9466  0.9616
12218WAT    EPW50679   3.173   9.897   5.205  0.0241 -0.6361 -0.1869
12219WAT      O50680   2.986   8.359   2.919  0.2018 -0.1219  0.2773
12219WAT     H150681   3.033   8.403   2.990 -0.0708  1.5738 -0.5278
12219WAT     H250682   2.984   8.424   2.848 -1.8389 -0.7764 -0.3258
12219WAT    EPW50683   2.992   8.373   2.919 -0.1034  0.0153  0.0916
12220WAT      O50684   1.771  10.254   1.837 -0.0290 -0.3322 -0.2108
12220WAT     H150685   1.738  10.219   1.919  0.8635  0.0928  0.3442
12220WAT     H250686   1.726  10.203   1.769  1.3187 -2.7009  0.5536
12220WAT    EPW50687   1.761  10.242   1.839  0.2665 -0.5889 -0.0368
12221WAT      O50688   3.678   4.763   3.859 -0.7334  1.0013  0.5389
12221WAT     H150689   3.624   4.747   3.936  1.2475  0.1008  1.8014
12221WAT     H250690   3.661   4.687   3.802 -0.5356  0.5467  1.0813
12221WAT    EPW50691   3.668   4.751   3.861 -0.4461  0.8228  0.7770
12222WAT      O50692   4.832   0.472   2.625  0.1189  0.0657 -1.0385
12222WAT     H150693   4.891   0.525   2.572  3.2234 -0.6111  1.4397
12222WAT     H250694   4.874   0.467   2.711 -2.4144 -2.4597  0.2415
12222WAT    EPW50695   4.845   0.478   2.630  0.1943 -0.3566 -0.5428
12223WAT      O50696   2.706   5.110   7.544  0.2367 -0.1397  1.0412
12223WAT     H150697   2.801   5.116   7.548  0.2218  1.1566  0.0062
12223WAT     H250698   2.677   5.198   7.521 -1.0768 -1.0272 -0.9558
12223WAT    EPW50699   2.715   5.122   7.542  0.0615 -0.0858  0.6413
12224WAT      O50700   2.126   7.207   7.037  0.4117 -0.3960  0.3521
12224WAT     H150701   2.130   7.112   7.043 -1.4454 -0.5609 -0.3093
12224WAT     H250702   2.127   7.237   7.128  3.3789 -0.8420  0.5616
12224WAT    EPW50703   2.127   7.199   7.050  0.5580 -0.4766  0.2925
12225WAT      O50704  -4.008   8.079   8.502  0.1109  0.2951  0.3040
12225WAT     H150705  -4.060   8.028   8.439  0.0012  0.5097  0.2192
12225WAT     H250706  -4.057   8.161   8.513  0.8277  0.8255 -0.3730
12225WAT    EPW50707  -4.022   8.083   8.495  0.1910  0.3934  0.2036
12226WAT      O50708   2.936   4.978   5.169  0.1576  0.1150 -0.1635
12226WAT     H150709   2.996   4.951   5.100  0.2355  1.5844 -0.7259
12226WAT     H250710   2.894   5.057   5.134 -1.0033 -0.0342  0.8186
12226WAT    EPW50711   2.938   4.985   5.155  0.0148  0.2892 -0.1082
12227WAT      O50712   4.029   7.104   2.793 -0.1405  0.0004 -0.1896
12227WAT     H150713   4.031   7.015   2.757 -1.6307  0.9429 -2.9120
12227WAT     H250714   4.020   7.161   2.716 -1.3370  2.3909  1.5743
12227WAT    EPW50715   4.028   7.100   2.778 -0.4947  0.4399 -0.3160
12228WAT      O50716  -2.525   8.205   4.557 -0.3243  0.0775  0.3502
12228WAT     H150717  -2.467   8.129   4.560  2.2739  1.6581 -2.7826
12228WAT     H250718  -2.613   8.168   4.557  0.7197 -2.7130  1.3376
12228WAT    EPW50719  -2.529   8.190   4.557  0.1560 -0.0820  0.0672
12229WAT      O50720   9.170   0.555   1.413  0.3995  0.2739 -0.5046
12229WAT     H150721   9.176   0.608   1.334 -2.0496  0.2974 -0.7540
12229WAT     H250722   9.081   0.519   1.412 -0.3574  1.5953  3.0079
12229WAT    EPW50723   9.159   0.557   1.403 -0.0234  0.4513 -0.0742
12230WAT      O50724  -2.201   9.347   7.533 -0.2636 -0.6703 -0.4924
12230WAT     H150725  -2.197   9.268   7.586 -1.4403 -0.2656  0.2402
12230WAT     H250726  -2.274   9.333   7.474  0.4207 -0.7050 -1.3538
12230WAT    EPW50727  -2.210   9.335   7.532 -0.3285 -0.6218 -0.5095
12231WAT      O50728  10.676   0.403   0.263  0.1242  0.2742  0.5717
12231WAT     H150729  10.587   0.434   0.277 -0.4034 -0.7711 -0.3734
12231WAT     H250730  10.707   0.377   0.350 -0.9424 -0.5333  0.7240
12231WAT    EPW50731  10.668   0.404   0.276 -0.0863  0.0298  0.4671
12232WAT      O50732  -1.725   6.063   8.561  0.5787  0.2207 -0.0089
12232WAT     H150733  -1.630   6.059   8.552  0.6751  2.2556 -0.3432
12232WAT     H250734  -1.739   6.130   8.629 -0.6172  1.3158 -1.2765
12232WAT    EPW50735  -1.714   6.072   8.569  0.4337  0.6332 -0.2203
12233WAT      O50736   0.065   3.753   1.657 -0.3720  1.0086 -0.6932
12233WAT     H150737   0.002   3.797   1.601  1.5063  1.1343 -2.8392
12233WAT     H250738   0.133   3.722   1.597  0.4803 -1.1350  1.2330
12233WAT    EPW50739   0.066   3.755   1.642 -0.0118  0.7424 -0.7222
12234WAT      O50740  -1.996   7.711   3.289  0.0715 -0.3904 -0.5883
12234WAT     H150741  -1.951   7.779   3.240  0.8347  0.4668  1.2039
12234WAT     H250742  -1.926   7.654   3.321 -0.3395 -0.5392  0.0709
12234WAT    EPW50743  -1.981   7.713   3.287  0.1180 -0.2968 -0.2650
12235WAT      O50744   3.207   1.574   6.577 -0.3061 -0.3222 -0.4214
12235WAT     H150745   3.139   1.543   6.637  0.7031 -2.9047 -0.4737
12235WAT     H250746   3.285   1.581   6.632 -0.2678  1.2657 -0.6438
12235WAT    EPW50747   3.209   1.571   6.592 -0.1680 -0.4534 -0.4578
12236WAT      O50748   1.777   7.788   7.032 -0.3718  0.7138 -0.7391
12236WAT     H150749   1.766   7.710   6.978 -1.4816  0.4626 -0.1907
12236WAT     H250750   1.805   7.755   7.117 -0.8474  0.9005 -0.5036
12236WAT    EPW50751   1.779   7.774   7.036 -0.5809  0.7052 -0.6359
12237WAT      O50752  -3.991   1.614   7.536 -0.2593 -0.5706 -0.2849
12237WAT     H150753  -3.938   1.622   7.457  0.3059  1.7469  0.2475
12237WAT     H250754  -3.974   1.525   7.568  2.2965 -0.3655 -0.8552
12237WAT    EPW50755  -3.982   1.603   7.530  0.1523 -0.2379 -0.2899
12238WAT      O50756   2.411   3.576   7.379  0.9396  0.1011 -0.1761
12238WAT     H150757   2.393   3.573   7.285 -2.4361  1.4365  0.2878
12238WAT     H250758   2.340   3.525   7.419  3.4943 -2.3664  1.6623
12238WAT    EPW50759   2.399   3.569   7.372  0.8314 -0.0482  0.1276
12239WAT      O50760   5.121   7.232   3.598  0.0054 -0.2483  0.6697
12239WAT     H150761   5.198   7.224   3.654  0.6549  2.9860  0.4334
12239WAT     H250762   5.153   7.215   3.510 -0.3945 -2.4234  0.8900
12239WAT    EPW50763   5.135   7.229   3.594  0.0384 -0.1085  0.6676
12240WAT      O50764   2.231   2.224   2.283  0.0435 -0.6286 -0.0728
12240WAT     H150765   2.174   2.235   2.359 -1.2588  1.9432 -1.3138
12240WAT     H250766   2.319   2.221   2.320 -0.6237 -0.4397  1.6162
12240WAT    EPW50767   2.235   2.225   2.298 -0.2162 -0.2645 -0.0137
12241WAT      O50768  -2.832   3.063   4.309 -0.5214 -0.8923  0.3853
12241WAT     H150769  -2.865   3.150   4.331 -1.7879 -1.6384  1.5832
12241WAT     H250770  -2.738   3.076   4.294 -0.7596  0.7312  0.1582
12241WAT    EPW50771  -2.824   3.076   4.310 -0.7200 -0.7766  0.5133
12242WAT      O50772   1.610   5.481   8.590 -0.1217 -0.2276 -0.0057
12242WAT     H150773   1.575   5.393   8.603  1.8855 -1.4181 -1.9031
12242WAT     H250774   1.578   5.531   8.665 -1.7562 -2.4232  0.8712
12242WAT    EPW50775   1.601   5.476   8.602 -0.0725 -0.6742 -0.1407
12243WAT      O50776   6.057   8.801   0.381  0.0394  0.0391  0.5931
12243WAT     H150777   6.145   8.839   0.383  0.2655 -0.1482 -1.9927
12243WAT     H250778   6.035   8.786   0.473  3.0809 -0.7577  1.3033
12243WAT    EPW50779   6.066   8.804   0.393  0.4704 -0.0906  0.3457
12244WAT      O50780  -0.899   1.452   5.250  0.2359 -0.2944  0.1755
12244WAT     H150781  -0.889   1.474   5.342  0.8496 -0.5333  0.1668
12244WAT     H250782  -0.873   1.532   5.204  2.1341 -0.8826  0.1536
12244WAT    EPW50783  -0.895   1.466   5.256  0.5672 -0.4035  0.1714
12245WAT      O50784  -0.275   7.816   5.201 -0.3045  0.4093 -0.2228
12245WAT     H150785  -0.255   7.882   5.268 -2.3072  0.7560  0.0893
12245WAT     H250786  -0.197   7.760   5.199  1.7115  3.0374 -0.8545
12245WAT    EPW50787  -0.262   7.818   5.210 -0.3027  0.8016 -0.2651
12246WAT      O50788   6.518   2.414   4.601 -0.2651 -0.1785  0.4427
12246WAT     H150789   6.431   2.422   4.562 -0.7734  0.8106  1.7058
12246WAT     H250790   6.556   2.502   4.594  0.4621 -0.4940  0.3022
12246WAT    EPW50791   6.512   2.427   4.595 -0.2363 -0.0896  0.5908
12247WAT      O50792   5.712   3.891   1.996 -0.1408 -0.2043 -0.2081
12247WAT     H150793   5.650   3.830   1.955 -0.2604 -0.1846 -0.0591
12247WAT     H250794   5.775   3.911   1.927  0.7186 -1.5973  0.1381
12247WAT    EPW50795   5.712   3.885   1.981 -0.0432 -0.3854 -0.1428
12248WAT      O50796  -2.850   9.912   4.008 -0.8683 -0.4849 -0.0365
12248WAT     H150797  -2.755   9.918   3.995 -1.0122 -1.3496 -1.8604
12248WAT     H250798  -2.860   9.862   4.089  0.2309 -0.1978  0.2908
12248WAT    EPW50799  -2.839   9.906   4.017 -0.7422 -0.5608 -0.2341
12249WAT      O50800   1.543   8.719   6.567 -0.1764  0.0608 -0.8458
12249WAT     H150801   1.627   8.746   6.605  0.7338 -0.0649 -2.6885
12249WAT     H250802   1.565   8.644   6.512 -1.5499 -0.1129 -1.1786
12249WAT    EPW50803   1.557   8.713   6.565 -0.2375  0.0210 -1.1325
12250WAT      O50804  -2.244   2.261   8.804  0.8070 -0.1136 -0.2484
12250WAT     H150805  -2.332   2.251   8.839  0.7373  0.8300 -0.1320
12250WAT     H250806  -2.256   2.290   8.714  0.9779  1.1110  0.0986
12250WAT    EPW50807  -2.257   2.263   8.797  0.8203  0.1724 -0.1874
12251WAT      O50808   7.921   4.215   0.563  0.6066  0.1219 -0.2883
12251WAT     H150809   7.861   4.269   0.614  1.3203 -0.3013  1.0576
12251WAT     H250810   7.895   4.125   0.581  1.5790 -0.0663  0.2772
12251WAT    EPW50811   7.910   4.211   0.572  0.8290  0.0412 -0.0362
12252WAT      O50812   6.875   0.878   3.328  0.1965 -0.0726  0.6511
12252WAT     H150813   6.877   0.971   3.351 -2.6897 -0.0041  1.0353
12252WAT     H250814   6.902   0.876   3.236  0.1725  1.1849  0.5904
12252WAT    EPW50815   6.879   0.890   3.319 -0.1874  0.1023  0.6938
12253WAT      O50816  -4.433   7.412   8.327  0.1591  0.1261 -0.4931
12253WAT     H150817  -4.509   7.401   8.269  0.1481  0.2475 -0.5019
12253WAT     H250818  -4.357   7.393   8.271  0.1047 -0.6679 -0.3125
12253WAT    EPW50819  -4.433   7.408   8.312  0.1507  0.0374 -0.4706
12254WAT      O50820  -3.922   0.739   8.353  0.2631  0.4635  0.5494
12254WAT     H150821  -3.857   0.686   8.398 -1.4268 -2.2954 -0.0379
12254WAT     H250822  -3.997   0.742   8.413 -1.5949 -2.3168 -1.4226
12254WAT    EPW50823  -3.923   0.733   8.367 -0.2049 -0.2671  0.2122
12255WAT      O50824  -0.187   7.287   3.098  0.5019 -0.2353 -0.4785
12255WAT     H150825  -0.201   7.196   3.121 -0.7893 -0.4315 -1.8598
12255WAT     H250826  -0.273   7.318   3.069  0.6402  1.7522  0.9855
12255WAT    EPW50827  -0.200   7.279   3.097  0.3499  0.0010 -0.4675
12256WAT      O50828  -2.322   7.791   6.493 -0.1477  0.6508 -0.8189
12256WAT     H150829  -2.347   7.819   6.405 -2.1268 -1.5477 -1.0564
12256WAT     H250830  -2.263   7.716   6.478  1.4728  1.7543 -0.2224
12256WAT    EPW50831  -2.317   7.785   6.479 -0.1949  0.5064 -0.7715
12257WAT      O50832   3.763   2.922   8.423 -0.2816 -0.0209  0.3897
12257WAT     H150833   3.725   3.010   8.426  0.6305  0.4172 -0.4446
12257WAT     H250834   3.851   2.935   8.386 -0.3816 -1.3660 -0.3786
12257WAT    EPW50835   3.770   2.936   8.419 -0.1744 -0.1405  0.1783
12258WAT      O50836   2.827   2.914   0.400 -0.4491  1.0910  0.7296
12258WAT     H150837   2.752   2.968   0.423 -0.6798  1.7745 -1.4866
12258WAT     H250838   2.892   2.934   0.468 -1.9069  1.1137  2.1951
12258WAT    EPW50839   2.826   2.923   0.412 -0.6717  1.1841  0.6306
12259WAT      O50840  -1.476   3.585   1.941 -0.9351 -0.2553  0.4698
12259WAT     H150841  -1.451   3.569   2.032  0.2587 -0.4340  0.1223
12259WAT     H250842  -1.494   3.498   1.906 -2.2373 -0.1223  0.7485
12259WAT    EPW50843  -1.475   3.571   1.948 -0.9494 -0.2613  0.4607
12260WAT      O50844   1.478   2.507   1.296  0.1389 -0.1750  0.5548
12260WAT     H150845   1.505   2.595   1.271  2.3197 -1.1512 -0.8669
12260WAT     H250846   1.383   2.507   1.285  0.3611  1.2092 -2.3784
12260WAT    EPW50847   1.469   2.518   1.291  0.4559 -0.1212 -0.0196
12261WAT      O50848  -3.926   7.966   3.578  0.2436  0.3349  0.3903
12261WAT     H150849  -4.021   7.977   3.578  0.0054 -1.4416  0.0894
12261WAT     H250850  -3.904   7.948   3.670  0.1066 -0.4328  0.2837
12261WAT    EPW50851  -3.936   7.965   3.590  0.1941 -0.0007  0.3365
12262WAT      O50852   4.833   4.155   7.655 -0.3605 -0.5956  0.0308
12262WAT     H150853   4.753   4.102   7.661  0.7648 -2.3797  0.2280
12262WAT     H250854   4.804   4.244   7.671 -3.0651 -0.4163 -4.2371
12262WAT    EPW50855   4.819   4.159   7.658 -0.5686 -0.8070 -0.5059
12263WAT      O50856   8.516   2.924   0.233  1.0085  0.0280  0.7094
12263WAT     H150857   8.525   2.832   0.258 -0.1269 -0.2066  0.3074
12263WAT     H250858   8.565   2.932   0.151  0.2181 -0.4808  0.1785
12263WAT    EPW50859   8.524   2.913   0.226  0.7548 -0.0700  0.5863
12264WAT      O50860  -1.701   8.418   8.510  0.3383  0.2999  0.0414
12264WAT     H150861  -1.782   8.381   8.544  0.9671 -0.4463  0.7550
12264WAT     H250862  -1.729   8.480   8.442 -0.8300  0.2596  0.4771
12264WAT    EPW50863  -1.715   8.421   8.505  0.2672  0.1960  0.1931
12265WAT      O50864  -2.035   0.310   7.791 -0.4475  0.5389 -0.5102
12265WAT     H150865  -2.113   0.274   7.750 -1.1044  1.6747 -0.2840
12265WAT     H250866  -2.061   0.330   7.881  0.4320 -0.1336 -0.0883
12265WAT    EPW50867  -2.048   0.308   7.798 -0.4181  0.6000 -0.4244
12266WAT      O50868  -0.438   0.090   8.409 -0.0762 -0.0220  0.5561
12266WAT     H150869  -0.515   0.079   8.353 -0.3397  3.1485  0.1004
12266WAT     H250870  -0.373   0.031   8.373 -0.7644  0.7385 -2.1445
12266WAT    EPW50871  -0.440   0.081   8.397 -0.2017  0.4965  0.1397
12267WAT      O50872   2.635   0.989   3.332 -0.0273  0.6583 -0.2065
12267WAT     H150873   2.581   1.022   3.260  0.9612  1.2711 -0.6948
12267WAT     H250874   2.723   1.025   3.315 -0.1727  2.5813  2.4220
12267WAT    EPW50875   2.640   0.998   3.320  0.0838  0.9928  0.0757
12268WAT      O50876   1.271   8.375   7.906 -0.3199 -0.2380 -0.7978
12268WAT     H150877   1.248   8.414   7.821  0.7937 -1.1308 -1.5327
12268WAT     H250878   1.366   8.380   7.909 -0.3895  0.7139  0.8776
12268WAT    EPW50879   1.280   8.381   7.895 -0.1823 -0.2303 -0.6738
12269WAT      O50880   2.444  10.164   5.896 -0.2479  0.3450  0.4103
12269WAT     H150881   2.503  10.161   5.972 -0.6771 -1.3474  0.7134
12269WAT     H250882   2.357  10.174   5.934 -0.5610 -1.4157  0.2296
12269WAT    EPW50883   2.440  10.165   5.911 -0.3457 -0.1106  0.4263
12270WAT      O50884   0.344   7.830   3.512 -0.2497 -0.8279  0.0645
12270WAT     H150885   0.254   7.850   3.484  0.6598  1.2017 -1.6489
12270WAT     H250886   0.338   7.826   3.608 -2.6428 -3.6159 -0.0279
12270WAT    EPW50887   0.331   7.832   3.521 -0.4454 -0.9282 -0.1737
12271WAT      O50888   3.898   4.509   2.651 -0.4201 -0.3308  0.3977
12271WAT     H150889   3.924   4.568   2.580  0.9357 -0.2475  0.9316
12271WAT     H250890   3.912   4.421   2.616 -0.5063 -0.3008  0.2891
12271WAT    EPW50891   3.903   4.505   2.637 -0.2526 -0.3157  0.4538
12272WAT      O50892  -1.002   1.988   7.000  0.5322 -0.2206 -0.6442
12272WAT     H150893  -1.002   2.033   7.085  1.1158 -2.1757  0.4514
12272WAT     H250894  -0.916   2.007   6.964  1.0375 -0.9588  0.1251
12272WAT    EPW50895  -0.991   1.997   7.007  0.6758 -0.5758 -0.3982
12273WAT      O50896  -6.373   4.689   8.750 -0.2657 -0.2813  0.2365
12273WAT     H150897  -6.278   4.692   8.762 -0.3536 -1.6217  1.5183
12273WAT     H250898  -6.407   4.663   8.836 -1.7555 -0.3233 -0.3458
12273WAT    EPW50899  -6.365   4.686   8.763 -0.4740 -0.4637  0.3285
12274WAT      O50900   1.481   4.717   5.912 -0.0151  0.2879 -0.1325
12274WAT     H150901   1.414   4.709   5.980  0.1556 -0.3128 -0.0276
12274WAT     H250902   1.535   4.791   5.939  0.0082  0.0960  0.3474
12274WAT    EPW50903   1.479   4.725   5.924  0.0105  0.1836 -0.0556
12275WAT      O50904   3.578   9.895   6.369  0.1545  0.2040  0.5196
12275WAT     H150905   3.640   9.952   6.414  1.4758  0.1263 -1.1015
12275WAT     H250906   3.577   9.927   6.279  0.9193 -2.2689 -0.4499
12275WAT    EPW50907   3.586   9.906   6.363  0.4296 -0.1321  0.1781
12276WAT      O50908  -2.375   1.347   8.036  0.3424 -0.5873 -0.1115
12276WAT     H150909  -2.442   1.410   8.063  2.4094  2.0139 -0.5804
12276WAT     H250910  -2.424   1.269   8.010 -2.2191 -0.4041  3.4311
12276WAT    EPW50911  -2.390   1.345   8.036  0.2772 -0.2201  0.2937
12277WAT      O50912  -3.719   7.322   4.318 -0.1287 -0.2331 -0.5081
12277WAT     H150913  -3.766   7.405   4.310  1.5403  0.9114  0.8290
12277WAT     H250914  -3.677   7.309   4.234  2.8066  2.3972  0.4035
12277WAT    EPW50915  -3.720   7.331   4.306  0.4786  0.2649 -0.2115
12278WAT      O50916   1.376   6.841   6.326 -0.2186  0.4951 -0.2956
12278WAT     H150917   1.464   6.866   6.297 -1.1713  2.1653 -1.9747
12278WAT     H250918   1.387   6.819   6.418  1.9618  0.6433 -0.4599
12278WAT    EPW50919   1.389   6.842   6.334 -0.0567  0.7348 -0.5386
12279WAT      O50920   5.893   4.057   5.092 -1.4707 -0.0302  0.9249
12279WAT     H150921   5.822   4.057   5.028 -2.4448  2.7035  1.8304
12279WAT     H250922   5.958   3.998   5.056 -2.3200  0.7454 -2.1733
12279WAT    EPW50923   5.892   4.049   5.079 -1.7111  0.4327  0.6359
12280WAT      O50924   4.449   9.336   3.576  0.3942  0.4661  0.1079
12280WAT     H150925   4.520   9.399   3.568 -1.6781  2.9967  0.3356
12280WAT     H250926   4.408   9.335   3.489  0.0469 -0.1465  0.2692
12280WAT    EPW50927   4.453   9.344   3.563  0.0751  0.7191  0.1590
12281WAT      O50928   5.988   3.136   4.690  0.1764  0.6811  0.5625
12281WAT     H150929   5.918   3.150   4.626  1.0169 -2.0215 -1.0792
12281WAT     H250930   5.942   3.115   4.771 -0.9560 -0.0841 -0.2400
12281WAT    EPW50931   5.973   3.135   4.692  0.1376  0.2236  0.2401
12282WAT      O50932  -3.138   8.076   2.872  0.2324  0.0451  0.3855
12282WAT     H150933  -3.061   8.058   2.926  0.0503 -1.3140  0.2282
12282WAT     H250934  -3.212   8.051   2.927 -0.1056  1.0353  0.4142
12282WAT    EPW50935  -3.138   8.071   2.887  0.1638 -0.0038  0.3685
12283WAT      O50936  -2.309  10.366   0.595  0.7034 -0.3861  0.3824
12283WAT     H150937  -2.225  10.410   0.610  1.6194 -1.2046 -1.8570
12283WAT     H250938  -2.292  10.274   0.617  0.6029 -0.6587 -0.6080
12283WAT    EPW50939  -2.296  10.360   0.600  0.8111 -0.5302 -0.0436
12284WAT      O50940  -1.699   6.914   2.611  0.2985  0.4791 -0.4295
12284WAT     H150941  -1.756   6.989   2.629  2.1268  1.8638 -0.0510
12284WAT     H250942  -1.691   6.912   2.516 -1.9074 -0.9970 -0.6563
12284WAT    EPW50943  -1.705   6.924   2.601  0.2487  0.4671 -0.4095
12285WAT      O50944  -6.964   7.547   8.260  0.3712  0.4636 -0.1956
12285WAT     H150945  -6.926   7.459   8.262 -0.7293 -0.0448 -0.7153
12285WAT     H250946  -7.051   7.537   8.298 -1.1434  0.5745 -3.3033
12285WAT    EPW50947  -6.970   7.534   8.265  0.0262  0.4113 -0.6738
12286WAT      O50948   5.969   2.434   2.963  1.2550  0.7057 -0.4307
12286WAT     H150949   5.974   2.489   3.042  2.2954 -1.3395  1.0287
12286WAT     H250950   5.983   2.495   2.891 -3.3098  3.3642  0.5308
12286WAT    EPW50951   5.972   2.449   2.964  0.7904  0.7865 -0.1115
12287WAT      O50952   2.834   3.052   8.829 -0.0982  0.0878  0.7991
12287WAT     H150953   2.798   2.968   8.857  2.4785 -0.9115  1.4824
12287WAT     H250954   2.765   3.092   8.777 -1.7132 -2.1082  1.0991
12287WAT    EPW50955   2.820   3.046   8.826  0.0286 -0.3335  0.9289
12288WAT      O50956  -6.852   8.328   8.735 -0.6644  0.0496  0.0318
12288WAT     H150957  -6.803   8.272   8.675 -3.9528 -0.4713 -2.4431
12288WAT     H250958  -6.838   8.417   8.702  1.7178  0.4320  1.8278
12288WAT    EPW50959  -6.844   8.332   8.722 -0.7839  0.0310 -0.0577
12289WAT      O50960   4.138   5.462   1.014 -0.3268 -0.2174 -0.4079
12289WAT     H150961   4.078   5.392   1.038  0.0334 -0.5077 -0.3327
12289WAT     H250962   4.193   5.424   0.945  0.0184 -0.0853 -0.2080
12289WAT    EPW50963   4.138   5.448   1.008 -0.2337 -0.2382 -0.3716
12290WAT      O50964   5.871   6.185   4.282 -0.0265  0.0931  0.2621
12290WAT     H150965   5.931   6.172   4.355 -0.9051  0.5448  1.0917
12290WAT     H250966   5.911   6.138   4.209  0.8798 -0.3549  1.0267
12290WAT    EPW50967   5.884   6.177   4.282 -0.0229  0.0935  0.4723
12291WAT      O50968  -2.535   9.006   5.199  0.3836  0.2286 -0.2083
12291WAT     H150969  -2.470   8.938   5.215 -1.6511 -1.3370  2.1305
12291WAT     H250970  -2.606   8.962   5.153 -1.0355  0.6499  1.4610
12291WAT    EPW50971  -2.536   8.992   5.195 -0.0720  0.0782  0.3204
12292WAT      O50972   3.497  10.002   5.786 -0.6649  0.1233  0.4266
12292WAT     H150973   3.500  10.075   5.724  0.8923  0.1067  0.4328
12292WAT     H250974   3.586   9.999   5.823 -1.3740 -0.2500  2.2015
12292WAT    EPW50975   3.509  10.011   5.783 -0.5530  0.0725  0.6614
12293WAT      O50976  -6.126   5.360   8.457 -0.5433  0.5453 -0.0797
12293WAT     H150977  -6.212   5.320   8.447 -0.7677  0.7447  0.9349
12293WAT     H250978  -6.142   5.437   8.512  0.5769 -0.5482  1.8814
12293WAT    EPW50979  -6.139   5.365   8.463 -0.4251  0.4275  0.3128
12294WAT      O50980  -1.737   9.588   0.583  0.3393  0.3537 -0.0669
12294WAT     H150981  -1.773   9.677   0.580  0.3914  0.3704 -1.9958
12294WAT     H250982  -1.788   9.543   0.650 -1.3838  1.1707 -0.7789
12294WAT    EPW50983  -1.749   9.594   0.591  0.1190  0.4635 -0.4152
12295WAT      O50984  -0.460   2.299   6.957 -0.0364  0.1182  0.6383
12295WAT     H150985  -0.499   2.249   7.028  1.1379 -2.3792 -0.3551
12295WAT     H250986  -0.429   2.233   6.895 -0.3961  2.1343 -1.9000
12295WAT    EPW50987  -0.461   2.284   6.958  0.0710  0.0547  0.1724
12296WAT      O50988  -1.502   9.318   1.627 -0.5605 -0.1578  0.5974
12296WAT     H150989  -1.515   9.276   1.542  0.3243  1.2172 -0.2473
12296WAT     H250990  -1.478   9.246   1.686 -1.1426 -1.1211 -0.3094
12296WAT    EPW50991  -1.501   9.303   1.624 -0.5205 -0.1040  0.3664
12297WAT      O50992   3.923   5.555   1.317  0.1083  0.3525 -0.2618
12297WAT     H150993   4.012   5.582   1.339  0.4925 -0.4955 -0.7251
12297WAT     H250994   3.895   5.502   1.392 -1.0776  2.8611  1.1917
12297WAT    EPW50995   3.931   5.552   1.330  0.0025  0.5717 -0.1312
12298WAT      O50996   1.937   4.754   8.705  0.7423  0.0090  0.0550
12298WAT     H150997   1.982   4.830   8.667  1.1501 -0.5289 -0.5686
12298WAT     H250998   1.850   4.755   8.664  1.9631 -1.9821 -2.9938
12298WAT    EPW50999   1.931   4.764   8.694  0.9571 -0.3247 -0.4292
12299WAT      O51000   6.922   3.427   3.423  0.2662 -0.2172 -0.2631
12299WAT     H151001   6.956   3.482   3.493  0.0757  0.7809 -0.9337
12299WAT     H251002   6.933   3.479   3.344  0.1618 -1.1865 -0.9360
12299WAT    EPW51003   6.928   3.441   3.422  0.2270 -0.2134 -0.4402
12300WAT      O51004  -3.158   1.105   4.824  0.3430 -0.3976  0.0214
12300WAT     H151005  -3.126   1.016   4.807 -1.6785 -1.0253 -0.6876
12300WAT     H251006  -3.184   1.105   4.916 -1.3306 -1.1124 -0.4304
12300WAT    EPW51007  -3.157   1.094   4.834 -0.1444 -0.5747 -0.1316
12301WAT      O51008   6.452   3.538   1.687 -0.4388 -1.0097  0.8086
12301WAT     H151009   6.490   3.620   1.656  1.1640 -1.1706  2.2089
12301WAT     H251010   6.380   3.565   1.744  1.0400 -0.4890  2.4862
12301WAT    EPW51011   6.447   3.552   1.690 -0.0322 -0.9621  1.2146
12302WAT      O51012  -6.499   9.734   7.040 -0.0508 -0.3759 -0.4592
12302WAT     H151013  -6.409   9.748   7.068  0.3288 -1.8921 -0.8232
12302WAT     H251014  -6.537   9.678   7.108 -0.7363  0.2510 -0.3053
12302WAT    EPW51015  -6.492   9.729   7.053 -0.0911 -0.4930 -0.4866
12303WAT      O51016   5.596   5.258   1.327 -0.1914  0.1743 -0.1418
12303WAT     H151017   5.551   5.340   1.348 -0.0263 -0.2674  2.2038
12303WAT     H251018   5.649   5.279   1.250 -0.3937  2.1873  0.2126
12303WAT    EPW51019   5.597   5.272   1.319 -0.1962  0.3815  0.2143
12304WAT      O51020   7.861   3.594   0.557 -0.2400 -0.5728  0.3492
12304WAT     H151021   7.945   3.558   0.588 -0.9856 -2.4932  0.2944
12304WAT     H251022   7.796   3.559   0.618 -1.4467 -2.4163 -1.8459
12304WAT    EPW51023   7.864   3.584   0.569 -0.4978 -1.0693  0.0524
12305WAT      O51024   4.630   3.639   2.336 -0.5958 -0.0612 -0.5049
12305WAT     H151025   4.579   3.607   2.262 -0.3463 -3.8900  0.7550
12305WAT     H251026   4.574   3.623   2.412  1.2079 -1.4636  0.6022
12305WAT    EPW51027   4.616   3.632   2.336 -0.3250 -0.7511 -0.1928
12306WAT      O51028  -2.078   4.061   5.406 -0.3656  0.5569 -0.1214
12306WAT     H151029  -2.142   4.043   5.337 -1.2421 -0.0242  0.8034
12306WAT     H251030  -1.999   4.088   5.359 -1.5455  2.1833 -1.2620
12306WAT    EPW51031  -2.076   4.062   5.391 -0.6367  0.6948 -0.1497
12307WAT      O51032  -2.445  10.269   2.481 -0.4767 -1.0914  0.7558
12307WAT     H151033  -2.451  10.298   2.390 -0.8815 -0.7485  0.8880
12307WAT     H251034  -2.526  10.299   2.521  0.2457 -0.1024  1.5519
12307WAT    EPW51035  -2.456  10.277   2.474 -0.4349 -0.9160  0.8782
12308WAT      O51036   1.770   4.124   2.421 -0.1994  0.8037  0.0565
12308WAT     H151037   1.696   4.177   2.395 -0.1894  0.1815 -1.3288
12308WAT     H251038   1.847   4.179   2.404 -0.0390 -0.2510 -3.3206
12308WAT    EPW51039   1.771   4.138   2.415 -0.1770  0.5822 -0.5716
12309WAT      O51040   1.546   9.256   2.357  0.4909 -0.7299  0.0210
12309WAT     H151041   1.559   9.168   2.393 -0.5071 -0.4882  1.0089
12309WAT     H251042   1.593   9.254   2.273 -0.1791 -2.4730 -0.3630
12309WAT    EPW51043   1.554   9.244   2.350  0.2709 -0.9279  0.1006
12310WAT      O51044   1.255   7.255   7.589  0.7703 -0.4396  0.3441
12310WAT     H151045   1.349   7.239   7.580  1.0408  1.6114 -1.0583
12310WAT     H251046   1.249   7.325   7.654  0.4092  0.8797 -1.0552
12310WAT    EPW51047   1.267   7.262   7.596  0.7583  0.0050 -0.0255
12311WAT      O51048  -2.794   9.473   0.167 -0.0941  0.0493 -0.1830
12311WAT     H151049  -2.813   9.542   0.230 -1.3886  0.2124 -0.7131
12311WAT     H251050  -2.702   9.486   0.144 -0.5112  2.1920 -0.9338
12311WAT    EPW51051  -2.784   9.484   0.172 -0.3200  0.3533 -0.3520
12312WAT      O51052  -1.440  10.078   3.626  0.2159 -0.5364 -0.1747
12312WAT     H151053  -1.461  10.054   3.536 -0.7811 -1.4313  0.2756
12312WAT     H251054  -1.477  10.166   3.636  0.4372 -0.3788 -0.6544
12312WAT    EPW51055  -1.448  10.087   3.615  0.1136 -0.6332 -0.1786
12313WAT      O51056   7.540   1.088   4.940 -0.3204  0.2995  0.0552
12313WAT     H151057   7.474   1.077   4.872  0.5974 -0.9613 -0.6582
12313WAT     H251058   7.597   1.012   4.932  2.5717  2.3504 -0.8270
12313WAT    EPW51059   7.539   1.077   4.930  0.1822  0.4038 -0.1552
12314WAT      O51060   4.519   3.119   4.019 -0.1976  0.1716 -0.4811
12314WAT     H151061   4.542   3.034   3.980 -0.6324 -0.0001 -0.3650
12314WAT     H251062   4.590   3.177   3.992  0.2987 -0.3177 -0.2565
12314WAT    EPW51063   4.532   3.115   4.010 -0.1893  0.0843 -0.4361
12315WAT      O51064   2.235   2.823   0.935  0.8486  0.1863 -0.3977
12315WAT     H151065   2.312   2.880   0.928  0.6218  0.4785 -0.5653
12315WAT     H251066   2.235   2.773   0.854  0.9736  0.0424 -0.3092
12315WAT    EPW51067   2.245   2.824   0.923  0.8352  0.2059 -0.4081
12316WAT      O51068   3.236   2.156   5.781  0.6238 -0.7078  0.0577
12316WAT     H151069   3.179   2.233   5.777  1.4867 -0.0610 -0.0860
12316WAT     H251070   3.263   2.151   5.873  1.3358 -0.2460 -0.1121
12316WAT    EPW51071   3.232   2.165   5.793  0.8316 -0.5616  0.0165
12317WAT      O51072   5.693   5.121   0.204  0.0267 -0.0710 -0.9627
12317WAT     H151073   5.778   5.116   0.162  0.8700  2.8028  0.1593
12317WAT     H251074   5.707   5.173   0.283 -2.3066 -1.6740  0.6735
12317WAT    EPW51075   5.706   5.127   0.209 -0.1698  0.0966 -0.5989
12318WAT      O51076   0.964   2.124   8.668  0.1562  0.6173 -0.2438
12318WAT     H151077   0.992   2.110   8.759 -0.2912 -0.3912 -0.2521
12318WAT     H251078   1.033   2.082   8.616  0.3201  1.0388 -0.3707
12318WAT    EPW51079   0.977   2.117   8.673  0.1188  0.5400 -0.2613
12319WAT      O51080   0.317   3.388   8.621  0.3225 -0.5341  1.3554
12319WAT     H151081   0.320   3.358   8.530 -1.8028  2.7520  0.0505
12319WAT     H251082   0.255   3.328   8.663  1.0419 -1.8630  0.6153
12319WAT    EPW51083   0.310   3.376   8.615  0.1370 -0.2760  1.0862
12320WAT      O51084   4.104   9.920   2.986  0.2983  0.4466  0.0166
12320WAT     H151085   4.016   9.953   2.968  1.4424  3.4094 -0.7792
12320WAT     H251086   4.152   9.931   2.904  1.8670  0.6064  0.9070
12320WAT    EPW51087   4.099   9.926   2.973  0.6561  0.8583  0.0291
12321WAT      O51088  -1.355   9.150   6.325 -0.1073 -0.2122  0.0047
12321WAT     H151089  -1.350   9.112   6.238  2.1245 -1.6863  0.6888
12321WAT     H251090  -1.315   9.237   6.316  2.2585 -1.2168 -0.1069
12321WAT    EPW51091  -1.349   9.156   6.313  0.4992 -0.5388  0.0803
12322WAT      O51092   5.623  10.115   1.260  0.0330  0.0994 -0.1492
12322WAT     H151093   5.693  10.050   1.266 -0.5768 -0.8227 -2.0742
12322WAT     H251094   5.585  10.118   1.348  0.0646 -2.2292  0.0168
12322WAT    EPW51095   5.627  10.107   1.272 -0.0432 -0.3295 -0.3812
12323WAT      O51096  -4.413   4.274   8.471  0.5063 -0.1937 -0.1885
12323WAT     H151097  -4.481   4.212   8.499  1.0311 -0.0385  1.4825
12323WAT     H251098  -4.419   4.346   8.533  0.9239  0.7486 -1.2068
12323WAT    EPW51099  -4.423   4.275   8.483  0.6306 -0.0489 -0.1025
12324WAT      O51100   0.293   8.604   6.780  0.2721  0.0681  0.4268
12324WAT     H151101   0.286   8.511   6.804 -1.4380  0.5530  2.0371
12324WAT     H251102   0.210   8.623   6.737  0.2328  1.0820  0.9413
12324WAT    EPW51103   0.281   8.594   6.778  0.0413  0.2661  0.7071
12325WAT      O51104   3.507   6.738   3.173  0.2990 -0.8749 -0.5379
12325WAT     H151105   3.516   6.690   3.255 -0.7853 -0.4741 -0.1714
12325WAT     H251106   3.418   6.773   3.175  1.4499  2.3145 -0.1382
12325WAT    EPW51107   3.496   6.736   3.184  0.3078 -0.4013 -0.4368
12326WAT      O51108  -0.348   6.725   5.534  0.0776 -0.2210  0.0425
12326WAT     H151109  -0.308   6.811   5.546 -2.1569  0.6425  1.9998
12326WAT     H251110  -0.291   6.665   5.582 -0.4542  0.8412  2.0969
12326WAT    EPW51111  -0.335   6.729   5.542 -0.2873  0.0329  0.5715
12327WAT      O51112   3.086   8.597   6.811 -0.0143 -0.3583  0.4996
12327WAT     H151113   3.098   8.526   6.874  0.8220 -1.7687 -1.1679
12327WAT     H251114   3.157   8.585   6.748  0.2390  2.0821  0.2470
12327WAT    EPW51115   3.097   8.586   6.811  0.1295 -0.2222  0.2465
12328WAT      O51116   6.660   0.860   5.081  0.6642  0.0049  0.3906
12328WAT     H151117   6.746   0.866   5.038  1.2361  1.5889  1.6326
12328WAT     H251118   6.599   0.898   5.018  0.7866 -1.4165 -0.6315
12328WAT    EPW51119   6.664   0.866   5.067  0.7558  0.0264  0.4199
12329WAT      O51120  -3.017   7.868   0.585 -0.0772 -0.5840  0.3301
12329WAT     H151121  -3.085   7.933   0.603  0.3456 -0.1496  0.3732
12329WAT     H251122  -2.997   7.879   0.492  1.9560  1.2907  0.9028
12329WAT    EPW51123  -3.023   7.878   0.575  0.2466 -0.2794  0.4113
12330WAT      O51124  -1.560   0.375   3.535  0.5477 -0.2746  0.0629
12330WAT     H151125  -1.638   0.323   3.517 -1.2572  2.3648 -0.4241
12330WAT     H251126  -1.529   0.401   3.448  0.2516  0.9553  0.3019
12330WAT    EPW51127  -1.566   0.372   3.521  0.2706  0.2357  0.0302
12331WAT      O51128  -0.005   2.308   4.823  0.5304 -0.3816 -0.0911
12331WAT     H151129   0.062   2.270   4.765  1.0512  0.2360  0.0957
12331WAT     H251130  -0.085   2.261   4.801  0.9054 -0.7350 -0.7277
12331WAT    EPW51131  -0.006   2.297   4.812  0.6486 -0.3468 -0.1504
12332WAT      O51132   0.860   5.374   8.088 -0.1265  0.0817  0.2295
12332WAT     H151133   0.887   5.461   8.117 -0.1984  0.8187 -1.7272
12332WAT     H251134   0.768   5.367   8.114  0.4355 -0.3458  2.3176
12332WAT    EPW51135   0.851   5.384   8.095 -0.0619  0.1225  0.2465
12333WAT      O51136   1.836   0.715   5.434 -0.2743 -0.0742  0.1909
12333WAT     H151137   1.782   0.778   5.385 -0.4729  0.2080  0.7634
12333WAT     H251138   1.919   0.714   5.387 -0.3125  0.5259  0.0964
12333WAT    EPW51139   1.840   0.723   5.421 -0.3055  0.0422  0.2542
12334WAT      O51140  -0.177   5.122   6.114 -0.2904  0.5158 -0.2884
12334WAT     H151141  -0.141   5.073   6.040  0.5186  0.3292  0.2197
12334WAT     H251142  -0.125   5.201   6.119 -0.0753  0.3434  0.3249
12334WAT    EPW51143  -0.166   5.126   6.105 -0.1553  0.4685 -0.1404
12335WAT      O51144   5.401   8.694   2.081 -0.2270 -0.3925 -0.7429
12335WAT     H151145   5.365   8.667   1.997 -1.2826 -1.3193 -0.0180
12335WAT     H251146   5.331   8.677   2.144  0.2203  1.1270  0.2109
12335WAT    EPW51147   5.387   8.688   2.078 -0.3071 -0.3142 -0.5215
12336WAT      O51148   3.465   0.177   4.414 -0.2050 -0.3401  0.0577
12336WAT     H151149   3.398   0.245   4.412 -1.4809 -1.3264  3.1226
12336WAT     H251150   3.526   0.205   4.482 -0.6424 -2.0493  1.2439
12336WAT    EPW51151   3.464   0.190   4.423 -0.4309 -0.6956  0.6185
12337WAT      O51152   0.994   5.482   8.608 -0.1647 -0.3327  0.4953
12337WAT     H151153   1.064   5.541   8.637  1.9901 -1.9774 -0.9903
12337WAT     H251154   0.995   5.490   8.512 -3.2794  0.8468  0.4282
12337WAT    EPW51155   1.003   5.491   8.599 -0.2913 -0.3941  0.2904
12338WAT      O51156   3.733  10.086   4.337 -0.2507 -0.3480  0.2473
12338WAT     H151157   3.800  10.048   4.395 -0.9833  2.2324  3.0792
12338WAT     H251158   3.650  10.063   4.379 -0.8327  1.2331  0.0281
12338WAT    EPW51159   3.731  10.078   4.350 -0.4240  0.2007  0.5920
12339WAT      O51160   2.855   6.033   7.256 -0.0718 -0.5507  0.5226
12339WAT     H151161   2.934   6.063   7.302 -0.6765  2.3205 -0.1372
12339WAT     H251162   2.782   6.067   7.308 -0.7730  2.1387 -1.9494
12339WAT    EPW51163   2.856   6.042   7.269 -0.2441  0.1829  0.1094
12340WAT      O51164  -1.838   5.297   6.495 -0.1518  0.1111 -0.0046
12340WAT     H151165  -1.862   5.205   6.488 -2.8777  0.6123  1.1879
12340WAT     H251166  -1.884   5.340   6.422  0.5962  0.6024 -0.1954
12340WAT    EPW51167  -1.847   5.291   6.485 -0.4126  0.2418  0.1276
12341WAT      O51168   2.308  10.017   1.430  0.0587 -0.5090 -0.2413
12341WAT     H151169   2.299  10.092   1.489  1.8065 -1.0768  0.8091
12341WAT     H251170   2.256   9.948   1.472  0.1147 -0.4836 -0.1284
12341WAT    EPW51171   2.300  10.018   1.443  0.2966 -0.5808 -0.0879
12342WAT      O51172  -4.888   7.102   8.423  0.1714 -0.2253  0.5780
12342WAT     H151173  -4.800   7.135   8.442  0.3226 -0.3119  0.0559
12342WAT     H251174  -4.934   7.108   8.506  0.3988  0.6769  0.6544
12342WAT    EPW51175  -4.882   7.107   8.436  0.2213 -0.1178  0.5193
12343WAT      O51176  -1.022   4.382   5.151 -0.5049  0.0359  0.5521
12343WAT     H151177  -0.989   4.307   5.102 -0.4894  2.1247 -2.9837
12343WAT     H251178  -0.944   4.424   5.187 -0.0204  0.7466 -1.2586
12343WAT    EPW51179  -1.008   4.377   5.149 -0.4389  0.4051 -0.1531
12344WAT      O51180  -2.056   6.305   7.728  0.4684  0.5120 -0.3455
12344WAT     H151181  -2.126   6.240   7.731  1.5059 -0.7639 -1.8245
12344WAT     H251182  -2.062   6.351   7.811 -0.6795 -1.1001  0.5255
12344WAT    EPW51183  -2.066   6.302   7.739  0.4538  0.1311 -0.4256
12345WAT      O51184  -2.204   3.186   5.083 -0.3354 -0.4455 -0.3278
12345WAT     H151185  -2.131   3.249   5.080  1.2898 -2.2240  0.1508
12345WAT     H251186  -2.166   3.107   5.121 -3.0389 -0.8154  1.9389
12345WAT    EPW51187  -2.189   3.184   5.088 -0.4777 -0.7288  0.0343
12346WAT      O51188  -1.950  10.202   8.391  0.4848 -0.2118 -0.7649
12346WAT     H151189  -2.008  10.154   8.451  2.6064 -3.1327 -0.8486
12346WAT     H251190  -2.006  10.223   8.317 -1.3838  0.5363  0.7672
12346WAT    EPW51191  -1.965  10.198   8.390  0.5181 -0.4983 -0.5736
12347WAT      O51192   3.506   0.040   2.078  0.3830 -0.3435 -0.2257
12347WAT     H151193   3.460  -0.015   2.142 -3.0550  0.2424 -1.9542
12347WAT     H251194   3.444   0.110   2.058  2.1158  0.6174 -2.7133
12347WAT    EPW51195   3.492   0.042   2.084  0.1581 -0.1395 -0.7818
12348WAT      O51196  -0.339   8.941   2.690 -0.2083 -0.5756 -0.5046
12348WAT     H151197  -0.336   9.031   2.722  0.9751 -0.1207 -1.8318
12348WAT     H251198  -0.395   8.896   2.753 -1.1017  1.1498  0.0111
12348WAT    EPW51199  -0.346   8.947   2.703 -0.1701 -0.2880 -0.6117
12349WAT      O51200   6.174   3.640   3.719 -0.0894 -0.4621 -0.4927
12349WAT     H151201   6.239   3.710   3.721 -0.9768  0.3820 -0.5593
12349WAT     H251202   6.185   3.600   3.633  1.4542 -1.4400  0.1037
12349WAT    EPW51203   6.184   3.644   3.708 -0.0029 -0.4798 -0.4228
12350WAT      O51204   3.436   0.226   3.440  0.2900 -0.3866  0.5859
12350WAT     H151205   3.452   0.167   3.366  3.0791  1.1518 -0.1712
12350WAT     H251206   3.451   0.172   3.517  2.3471 -0.8785 -0.0892
12350WAT    EPW51207   3.440   0.211   3.440  0.9292 -0.2486  0.3970
12351WAT      O51208   4.049   3.967   0.451 -0.1547 -0.6583  0.1136
12351WAT     H151209   4.042   4.028   0.377 -1.4387  2.8352  2.8004
12351WAT     H251210   3.959   3.958   0.483  0.1700 -3.2517  0.4496
12351WAT    EPW51211   4.036   3.974   0.446 -0.2813 -0.5397  0.5123
12352WAT      O51212   1.988  10.292   2.811  0.8878 -0.0769  0.2795
12352WAT     H151213   1.896  10.277   2.832  0.8666 -2.0805 -0.9783
12352WAT     H251214   2.015  10.214   2.763  3.7862 -0.4253  2.2258
12352WAT    EPW51215   1.980  10.280   2.808  1.2673 -0.3867  0.3703
12353WAT      O51216   6.614   4.030   1.200 -0.4754  0.7775  0.5242
12353WAT     H151217   6.654   3.956   1.154 -1.0721 -0.0871  1.3461
12353WAT     H251218   6.553   4.067   1.137  1.0862  1.7011 -0.5157
12353WAT    EPW51219   6.611   4.025   1.186 -0.3483  0.7856  0.4954
12354WAT      O51220   1.986   9.000   3.544 -0.2226  0.7085 -0.2534
12354WAT     H151221   1.963   9.091   3.564 -0.2933  0.3936  1.1723
12354WAT     H251222   2.082   8.999   3.548 -0.2611  0.5071  0.7451
12354WAT    EPW51223   1.996   9.012   3.547 -0.2370  0.6404  0.0664
12355WAT      O51224   0.731   9.302   2.525  0.0664  0.2476  0.5381
12355WAT     H151225   0.824   9.302   2.503  0.0676  1.1915  0.5117
12355WAT     H251226   0.725   9.246   2.603  0.4741 -0.7456 -0.1187
12355WAT    EPW51227   0.742   9.294   2.533  0.1204  0.2413  0.4480
12356WAT      O51228  -3.715   9.461   3.743 -0.0869 -0.1701  0.4098
12356WAT     H151229  -3.644   9.408   3.707 -0.3535 -1.1682  1.2954
12356WAT     H251230  -3.671   9.533   3.787  0.3200 -0.1218 -0.0648
12356WAT    EPW51231  -3.700   9.464   3.744 -0.0683 -0.2952  0.4638
12357WAT      O51232   2.503   8.157   3.538  0.7639 -0.1529  0.2406
12357WAT     H151233   2.528   8.066   3.521 -0.5025 -0.4456 -0.1674
12357WAT     H251234   2.585   8.200   3.560  1.0610 -2.0538  3.5268
12357WAT    EPW51235   2.517   8.150   3.539  0.6360 -0.4425  0.6201
12358WAT      O51236  -0.913   2.329   5.198 -0.4091 -0.2768 -0.0104
12358WAT     H151237  -0.878   2.413   5.228  0.9164 -1.1779  1.0599
12358WAT     H251238  -0.915   2.337   5.103 -0.3567  0.9805  0.0752
12358WAT    EPW51239  -0.909   2.341   5.190 -0.2274 -0.2298  0.1421
12359WAT      O51240  -4.864   9.573   3.320 -0.2838 -0.2090 -0.4594
12359WAT     H151241  -4.863   9.656   3.271  1.3427 -0.2810 -0.5964
12359WAT     H251242  -4.809   9.514   3.268 -1.6958 -1.5281 -0.5529
12359WAT    EPW51243  -4.857   9.576   3.306 -0.2556 -0.3924 -0.4898
12360WAT      O51244  -2.475   0.233   6.168  0.0889 -0.3143  0.0970
12360WAT     H151245  -2.564   0.247   6.199 -0.5604 -0.3128 -1.7104
12360WAT     H251246  -2.482   0.225   6.073  1.8875 -1.3171 -0.0126
12360WAT    EPW51247  -2.488   0.234   6.160  0.2404 -0.4463 -0.1557
12361WAT      O51248   2.568   3.590   4.383 -0.6705 -0.1316 -0.2492
12361WAT     H151249   2.604   3.672   4.351  2.0058 -0.7556  0.9200
12361WAT     H251250   2.604   3.523   4.324  0.1275 -0.7752  0.9334
12361WAT    EPW51251   2.577   3.592   4.371 -0.2122 -0.2989  0.0608
12362WAT      O51252  -3.193   2.637   4.221  0.4126  0.0730 -0.2651
12362WAT     H151253  -3.251   2.657   4.147 -0.3914 -1.9961 -0.2502
12362WAT     H251254  -3.175   2.543   4.213  2.2371  0.2702  0.8410
12362WAT    EPW51255  -3.198   2.627   4.210  0.5471 -0.1739 -0.1173
12363WAT      O51256   6.224   4.462   4.447  0.4608 -0.3580 -0.0364
12363WAT     H151257   6.135   4.461   4.482  0.9370  0.5799  1.2510
12363WAT     H251258   6.280   4.482   4.522  1.9572 -2.6478 -0.4471
12363WAT    EPW51259   6.220   4.464   4.461  0.7207 -0.5362  0.0792
12364WAT      O51260  -2.461   8.640   3.136  0.4644  0.0352 -0.9842
12364WAT     H151261  -2.464   8.704   3.207  0.0489 -3.4416  2.4258
12364WAT     H251262  -2.373   8.603   3.141 -0.1085 -1.4060 -1.1430
12364WAT    EPW51263  -2.449   8.644   3.146  0.3340 -0.6132 -0.5554
12365WAT      O51264  -0.731   2.509   0.731  0.3897 -0.5927 -0.5428
12365WAT     H151265  -0.661   2.572   0.712 -3.4833  4.4122 -0.5162
12365WAT     H251266  -0.730   2.501   0.826 -0.0002  0.9408 -0.3700
12365WAT    EPW51267  -0.722   2.516   0.741 -0.1725  0.2698 -0.5165
12366WAT      O51268   1.053   8.232   1.016  0.4416  0.1949  0.0329
12366WAT     H151269   1.130   8.238   1.073 -0.0711  1.1970  0.6455
12366WAT     H251270   1.079   8.282   0.938  0.3354  0.7418  0.3406
12366WAT    EPW51271   1.067   8.240   1.013  0.3600  0.3991  0.1543
12367WAT      O51272  -2.500   8.349   7.625  0.1639  0.0279 -0.0679
12367WAT     H151273  -2.523   8.357   7.717  1.9813  2.5670  0.2504
12367WAT     H251274  -2.415   8.303   7.626 -0.5055 -1.2634 -0.6110
12367WAT    EPW51275  -2.492   8.344   7.637  0.3153  0.1922 -0.0978
12368WAT      O51276   3.736   6.279   0.132 -0.1087 -0.3651 -0.0385
12368WAT     H151277   3.756   6.325   0.214  4.2798  0.7852 -1.4602
12368WAT     H251278   3.752   6.187   0.152 -1.1296 -0.3619  0.8714
12368WAT    EPW51279   3.741   6.273   0.146  0.3355 -0.2129 -0.1060
12369WAT      O51280  -1.818   0.770   7.171 -0.2483  0.3113  0.4866
12369WAT     H151281  -1.879   0.696   7.174  2.2362 -1.9133  0.3271
12369WAT     H251282  -1.822   0.808   7.258  0.4064 -1.8843  1.5731
12369WAT    EPW51283  -1.826   0.765   7.183  0.1658 -0.2716  0.6089
12370WAT      O51284   1.349   3.712   1.765 -0.0082  0.1729  0.0092
12370WAT     H151285   1.261   3.705   1.800  0.5326  0.0669  1.4314
12370WAT     H251286   1.374   3.803   1.782  0.3471  0.0587  0.1144
12370WAT    EPW51287   1.341   3.723   1.772  0.1100  0.1439  0.2106
12371WAT      O51288   3.324   4.780   1.210  0.2149 -0.9520  0.3914
12371WAT     H151289   3.269   4.702   1.208 -3.3601  1.3124  0.8227
12371WAT     H251290   3.354   4.791   1.120 -2.0445 -1.0969 -0.4459
12371WAT    EPW51291   3.321   4.771   1.198 -0.5547 -0.6726  0.3378
12372WAT      O51292  -5.345   9.469   8.465  0.2442 -0.5201 -1.0129
12372WAT     H151293  -5.352   9.474   8.369  0.1277 -0.1851 -0.9912
12372WAT     H251294  -5.387   9.387   8.488  2.5743 -1.9152 -1.4491
12372WAT    EPW51295  -5.352   9.459   8.455  0.5362 -0.6599 -1.0672
12373WAT      O51296   5.151   1.172   2.231  0.6720 -0.7399 -0.2490
12373WAT     H151297   5.126   1.135   2.147 -0.8288  0.6881 -0.4748
12373WAT     H251298   5.246   1.180   2.226  0.4746  1.0009 -2.5518
12373WAT    EPW51299   5.160   1.168   2.220  0.4480 -0.3219 -0.5825
12374WAT      O51300   1.999   9.622   5.630 -0.6659  0.2309 -0.5392
12374WAT     H151301   2.084   9.583   5.650 -0.6516 -0.5359 -1.9637
12374WAT     H251302   2.019   9.714   5.611 -0.5489  0.7346  1.6860
12374WAT    EPW51303   2.013   9.629   5.630 -0.6486  0.1965 -0.4337
12375WAT      O51304  -5.304   7.204   6.871  0.3156 -0.1343  1.0564
12375WAT     H151305  -5.362   7.259   6.924 -1.1730  0.2436 -0.8658
12375WAT     H251306  -5.358   7.130   6.845  0.3865  0.5856 -1.3963
12375WAT    EPW51307  -5.318   7.201   6.875  0.1285  0.0105  0.4792
12376WAT      O51308  -6.036   8.171   7.071  0.3255  0.0422 -0.5613
12376WAT     H151309  -6.018   8.086   7.031 -0.7199 -0.7781  0.6233
12376WAT     H251310  -6.112   8.204   7.024  1.1461  0.6573 -1.4790
12376WAT    EPW51311  -6.044   8.164   7.060  0.2959  0.0148 -0.5262
12377WAT      O51312   4.930   6.396   3.392  0.3425  0.5574  0.2039
12377WAT     H151313   4.984   6.328   3.432 -1.9096 -1.4329  0.0926
12377WAT     H251314   4.860   6.410   3.456  0.2784  2.1738 -0.1851
12377WAT    EPW51315   4.928   6.389   3.406  0.0370  0.5081  0.1380
12378WAT      O51316  -1.247   8.264   4.413 -0.0387 -0.1229  0.3720
12378WAT     H151317  -1.195   8.194   4.373 -2.9523 -1.2534 -1.8805
12378WAT     H251318  -1.203   8.284   4.495  2.6705 -2.4038 -0.3924
12378WAT    EPW51319  -1.235   8.257   4.419 -0.0656 -0.5727 -0.0260
12379WAT      O51320   0.347   9.302   3.886  0.1311  0.1503 -0.3814
12379WAT     H151321   0.300   9.291   3.969  0.8898 -2.4742 -0.2047
12379WAT     H251322   0.278   9.298   3.819 -0.5311  2.6293  0.0272
12379WAT    EPW51323   0.331   9.300   3.888  0.1439  0.1311 -0.3042
12380WAT      O51324   1.893   1.471   6.103 -0.3440 -0.1822 -0.3401
12380WAT     H151325   1.985   1.497   6.095 -0.3208  0.5487  1.6371
12380WAT     H251326   1.867   1.502   6.190 -2.6907  0.2673 -1.1350
12380WAT    EPW51327   1.902   1.478   6.113 -0.6505 -0.0265 -0.1843
12381WAT      O51328   2.133   6.283   7.500 -0.0168  0.5740  0.4275
12381WAT     H151329   2.119   6.236   7.418  0.9447  0.5774  0.2544
12381WAT     H251330   2.044   6.300   7.533 -0.3846 -1.1891  0.4156
12381WAT    EPW51331   2.119   6.279   7.493  0.0615  0.3419  0.4034
12382WAT      O51332  -3.427   8.649   3.608 -1.0638  0.0794  0.5273
12382WAT     H151333  -3.382   8.570   3.639 -0.4261  0.2850  0.1347
12382WAT     H251334  -3.373   8.681   3.536 -2.2971 -0.1682 -0.5577
12382WAT    EPW51335  -3.414   8.643   3.602 -1.1423  0.0739  0.3324
12383WAT      O51336  -1.364   4.995   3.229  0.3628  0.0327  0.1054
12383WAT     H151337  -1.431   4.952   3.176  0.3295  2.4042 -1.9451
12383WAT     H251338  -1.345   4.933   3.299 -1.7571 -1.9913 -1.0007
12383WAT    EPW51339  -1.370   4.981   3.231  0.0788  0.0787 -0.3109
12384WAT      O51340   6.044   5.238   0.425 -0.2052  0.1238  0.4540
12384WAT     H151341   6.059   5.148   0.454 -1.0484  0.2841  1.4090
12384WAT     H251342   5.951   5.254   0.441 -0.1812  1.0009 -0.1885
12384WAT    EPW51343   6.034   5.228   0.431 -0.3133  0.2604  0.4952
12385WAT      O51344  -5.257   3.345   7.322 -0.5270 -0.3632  0.3157
12385WAT     H151345  -5.350   3.352   7.299 -0.4104  0.4323  0.0476
12385WAT     H251346  -5.257   3.327   7.416 -0.9269  2.2838  0.8956
12385WAT    EPW51347  -5.270   3.343   7.331 -0.5641  0.0908  0.3569
12386WAT      O51348  -0.643   4.942   1.437 -0.0309  0.0082  0.2913
12386WAT     H151349  -0.650   4.880   1.509  0.2248 -1.4570 -0.8900
12386WAT     H251350  -0.718   4.923   1.381 -0.5538  1.5196  0.4273
12386WAT    EPW51351  -0.654   4.931   1.439 -0.0661  0.0141  0.1534
12387WAT      O51352   1.002  10.201   2.220  0.2964 -0.5365  0.0243
12387WAT     H151353   0.987  10.257   2.144 -1.1118 -0.2831  0.4568
12387WAT     H251354   0.995  10.261   2.295  0.9984 -0.9026  0.3912
12387WAT    EPW51355   0.999  10.216   2.220  0.2032 -0.5512  0.1297
12388WAT      O51356   5.137   1.104   7.925  0.1445 -0.0467  0.0940
12388WAT     H151357   5.080   1.097   7.848  0.8891  0.7753 -0.5544
12388WAT     H251358   5.158   1.197   7.931  1.3171 -0.3124  0.3900
12388WAT    EPW51359   5.132   1.115   7.915  0.3972  0.0266  0.0477
12389WAT      O51360   2.752   2.591   1.860  0.5846  0.2464 -0.1383
12389WAT     H151361   2.734   2.681   1.833  0.9080 -0.2193 -2.0432
12389WAT     H251362   2.843   2.575   1.834 -0.1824 -1.3586 -2.0306
12389WAT    EPW51363   2.762   2.601   1.853  0.5262 -0.0267 -0.6391
12390WAT      O51364  -3.322   7.247   4.479  0.5286  0.1432 -0.6056
12390WAT     H151365  -3.304   7.285   4.565 -0.7969  2.5949 -1.3053
12390WAT     H251366  -3.273   7.303   4.418 -0.8945  0.3142 -1.6440
12390WAT    EPW51367  -3.313   7.259   4.482  0.1661  0.4892 -0.8352
12391WAT      O51368  -0.110   7.725   2.202 -0.8077  0.2729  0.0184
12391WAT     H151369  -0.140   7.635   2.190  1.8967 -0.7304  0.1176
12391WAT     H251370  -0.053   7.741   2.127  1.4117  0.6583  1.6976
12391WAT    EPW51371  -0.107   7.715   2.190 -0.1583  0.1915  0.2530
12392WAT      O51372   3.516   3.857   4.631 -0.1848  0.0389  0.5666
12392WAT     H151373   3.589   3.910   4.663  0.7233 -0.9443  0.1489
12392WAT     H251374   3.480   3.907   4.558  0.5414  0.1854  0.3022
12392WAT    EPW51375   3.521   3.871   4.626  0.0308 -0.0714  0.4766
12393WAT      O51376  -1.792   4.312   3.738  0.0023 -0.2958  0.3903
12393WAT     H151377  -1.865   4.317   3.800  0.5424 -0.4198  1.0456
12393WAT     H251378  -1.715   4.334   3.790  0.5343 -0.9321 -0.1085
12393WAT    EPW51379  -1.792   4.315   3.753  0.1437 -0.3960  0.4110
12394WAT      O51380   0.152   2.195   2.626 -0.2410 -0.4051  0.3615
12394WAT     H151381   0.075   2.200   2.569 -0.0515  0.1961  0.1438
12394WAT     H251382   0.189   2.284   2.624 -0.2235 -0.3732  1.4162
12394WAT    EPW51383   0.147   2.207   2.618 -0.2137 -0.3217  0.4718
12395WAT      O51384   3.637   6.960   7.309  0.0108  0.4611 -0.2070
12395WAT     H151385   3.697   6.917   7.249 -1.9039 -1.0824 -1.1330
12395WAT     H251386   3.636   6.904   7.386  0.4287  0.9856  0.1889
12395WAT    EPW51387   3.645   6.947   7.311 -0.1867  0.3266 -0.2770
12396WAT      O51388   2.304   6.800   5.439 -0.7541 -0.5326  0.7203
12396WAT     H151389   2.331   6.851   5.516 -3.0327  0.5793  0.8502
12396WAT     H251390   2.313   6.861   5.365 -3.3455  0.1346  0.8566
12396WAT    EPW51391   2.309   6.815   5.439 -1.3964 -0.2980  0.7555
12397WAT      O51392   3.640   8.704   3.835  0.1164 -0.1920 -0.4465
12397WAT     H151393   3.570   8.769   3.826  1.4274  1.1824 -1.2566
12397WAT     H251394   3.663   8.706   3.928 -0.0598  0.2915 -0.4109
12397WAT    EPW51395   3.634   8.713   3.846  0.2661  0.0534 -0.5486
12398WAT      O51396   1.032   1.499   5.893 -0.0935  0.2050  0.0429
12398WAT     H151397   1.100   1.433   5.895 -0.6811 -0.4028  0.1685
12398WAT     H251398   0.953   1.454   5.923 -0.1506  1.3686  1.8429
12398WAT    EPW51399   1.030   1.485   5.898 -0.1785  0.2784  0.2968
12399WAT      O51400   0.537   7.228   1.417  0.8913  0.4979 -0.4564
12399WAT     H151401   0.534   7.227   1.322  0.3696 -0.4364 -0.4474
12399WAT     H251402   0.519   7.137   1.442 -1.6844  1.2191  0.5949
12399WAT    EPW51403   0.534   7.216   1.408  0.4828  0.4697 -0.3166
12400WAT      O51404   0.559   7.898   6.098 -0.2894  0.1327  0.6998
12400WAT     H151405   0.465   7.910   6.114 -0.4185  0.1739 -0.0647
12400WAT     H251406   0.596   7.986   6.107 -0.2686  0.0663  1.3180
12400WAT    EPW51407   0.551   7.912   6.101 -0.3037  0.1295  0.6807
12401WAT      O51408   2.814   1.499   8.018 -0.2329 -0.6169 -0.5252
12401WAT     H151409   2.783   1.422   7.970 -0.1322 -1.2990  0.4791
12401WAT     H251410   2.764   1.572   7.980 -0.9357 -1.2880 -0.9296
12401WAT    EPW51411   2.803   1.499   8.006 -0.3123 -0.7954 -0.4463
12402WAT      O51412   0.951   4.611   1.713  0.2951 -0.5031 -0.4431
12402WAT     H151413   0.925   4.682   1.653  0.7433  0.6774  0.7172
12402WAT     H251414   0.951   4.652   1.800 -2.6473 -2.7127  0.7632
12402WAT    EPW51415   0.947   4.626   1.716 -0.0339 -0.6390 -0.1310
12403WAT      O51416   5.256   6.247   0.372 -0.2726  0.5040  0.3542
12403WAT     H151417   5.292   6.258   0.284 -1.1202  0.6161  0.0039
12403WAT     H251418   5.331   6.226   0.427  0.3686  1.1464 -0.2647
12403WAT    EPW51419   5.270   6.245   0.367 -0.2999  0.6034  0.2264
12404WAT      O51420   3.512   3.612   4.459 -0.7203 -0.2533 -0.1913
12404WAT     H151421   3.531   3.697   4.498 -0.5005 -0.9063  1.1901
12404WAT     H251422   3.486   3.632   4.370 -0.1618  1.2198 -0.0545
12404WAT    EPW51423   3.511   3.626   4.453 -0.6176 -0.1451  0.0088
12405WAT      O51424   6.625   6.238   3.448 -0.1957 -0.2082  0.1247
12405WAT     H151425   6.702   6.250   3.504 -0.6290  1.1930  0.4743
12405WAT     H251426   6.553   6.278   3.498 -1.1483 -1.4524 -0.2187
12405WAT    EPW51427   6.626   6.245   3.462 -0.3784 -0.1874  0.1255
12406WAT      O51428   3.919   5.255   7.483  0.2877 -0.2318 -0.0532
12406WAT     H151429   3.979   5.325   7.507  0.1630 -0.0194 -0.3633
12406WAT     H251430   3.858   5.295   7.422  0.1111 -0.5660 -0.0998
12406WAT    EPW51431   3.919   5.269   7.478  0.2480 -0.2477 -0.1001
12407WAT      O51432   6.688   1.467   1.768 -0.0307  0.3754 -0.2640
12407WAT     H151433   6.663   1.380   1.798  3.0039 -0.2445  0.8248
12407WAT     H251434   6.652   1.473   1.679  0.4270 -2.3732 -0.7185
12407WAT    EPW51435   6.680   1.456   1.760  0.4299 -0.0689 -0.1803
12408WAT      O51436  -0.609   5.891   8.174  0.6755 -0.4514 -0.4542
12408WAT     H151437  -0.654   5.941   8.107 -1.2578  0.5618  1.4735
12408WAT     H251438  -0.528   5.939   8.190  0.1450  0.5172 -0.5870
12408WAT    EPW51439  -0.605   5.904   8.167  0.3505 -0.1903 -0.2174
12409WAT      O51440  -1.878  10.088   6.433 -0.2174 -0.0895  0.5915
12409WAT     H151441  -1.862  10.009   6.484 -0.8281 -0.9780 -0.5477
12409WAT     H251442  -1.931  10.144   6.490  0.9718 -0.1118  1.7353
12409WAT    EPW51443  -1.883  10.085   6.447 -0.1411 -0.2093  0.5922
12410WAT      O51444  -0.815   1.497   8.581 -0.3490  0.2112  1.0836
12410WAT     H151445  -0.727   1.468   8.607 -0.3818  0.0808  1.0503
12410WAT     H251446  -0.873   1.459   8.647 -0.1424  2.5023  2.7062
12410WAT    EPW51447  -0.811   1.488   8.593 -0.3261  0.4962  1.2927
12411WAT      O51448   2.561   6.399   1.371 -0.0302  0.0369  0.1644
12411WAT     H151449   2.653   6.378   1.361  0.6469  2.0777  1.3826
12411WAT     H251450   2.533   6.429   1.285  0.4475 -0.5907 -0.2100
12411WAT    EPW51451   2.569   6.400   1.358  0.1221  0.2234  0.2757
12412WAT      O51452   3.819   3.558   0.565 -0.1968  0.7239 -0.2638
12412WAT     H151453   3.830   3.464   0.553  0.3689  0.1252  3.6188
12412WAT     H251454   3.744   3.580   0.510 -3.9049 -3.1791  2.5069
12412WAT    EPW51455   3.810   3.549   0.556 -0.6113  0.1303  0.6138
12413WAT      O51456   0.026   9.636   2.218 -0.0073  0.0101 -0.0006
12413WAT     H151457   0.067   9.659   2.134 -1.1125  0.5558 -0.4060
12413WAT     H251458   0.029   9.540   2.220 -1.9748 -0.1638 -1.7529
12413WAT    EPW51459   0.032   9.626   2.207 -0.4125  0.0591 -0.2851
12414WAT      O51460   3.526   4.045   2.733  0.3989  0.1710  0.1077
12414WAT     H151461   3.558   3.967   2.687  1.2023 -0.8809  2.2980
12414WAT     H251462   3.434   4.026   2.749 -1.1864  2.3772 -4.5180
12414WAT    EPW51463   3.518   4.032   2.729  0.2959  0.3233 -0.2136
12415WAT      O51464  -2.413   9.719   8.408 -0.2598  0.0609 -0.1496
12415WAT     H151465  -2.465   9.724   8.488  0.7973 -0.7895  0.6236
12415WAT     H251466  -2.386   9.809   8.392 -0.2675  0.2069  0.6098
12415WAT    EPW51467  -2.416   9.732   8.417 -0.1214 -0.0324  0.0525
12416WAT      O51468   6.551   2.717   4.577  0.3898  0.0162 -0.1191
12416WAT     H151469   6.615   2.782   4.605 -0.1793 -0.0570  1.4276
12416WAT     H251470   6.482   2.768   4.536  1.1955  0.1324 -1.3907
12416WAT    EPW51471   6.551   2.732   4.575  0.4210  0.0219 -0.0827
12417WAT      O51472  -5.351   5.988   6.895  0.2255  0.5298  0.3191
12417WAT     H151473  -5.398   6.057   6.942 -1.4128 -1.1070  1.1723
12417WAT     H251474  -5.313   5.933   6.963 -1.2048 -1.2129 -0.2182
12417WAT    EPW51475  -5.352   5.990   6.910 -0.1793  0.0839  0.3607
12418WAT      O51476   3.687   3.242   8.635 -0.2892  0.2317  0.2728
12418WAT     H151477   3.646   3.268   8.552 -1.2119  0.9846  0.9606
12418WAT     H251478   3.633   3.169   8.666  0.9110 -1.0374 -0.4769
12418WAT    EPW51479   3.675   3.235   8.628 -0.2527  0.1637  0.2646
12419WAT      O51480  -1.826   7.597   0.438 -0.2219  0.0308  0.6095
12419WAT     H151481  -1.852   7.636   0.355 -0.9514  0.3855  0.9942
12419WAT     H251482  -1.730   7.593   0.435 -0.2795 -1.7855 -1.0714
12419WAT    EPW51483  -1.817   7.601   0.427 -0.3257 -0.1619  0.4385
12420WAT      O51484   3.053   2.359   8.917 -0.1977  0.4911 -0.3300
12420WAT     H151485   2.982   2.338   8.856  0.2272  1.1027 -1.0494
12420WAT     H251486   3.011   2.413   8.984 -0.8720 -0.9751  0.4727
12420WAT    EPW51487   3.038   2.364   8.918 -0.2306  0.3784 -0.3190
12421WAT      O51488   8.125   3.289   0.043 -0.1654 -1.0356  0.6226
12421WAT     H151489   8.108   3.291   0.137  0.5351 -2.3751  0.7953
12421WAT     H251490   8.090   3.205   0.014 -2.8577  0.4230 -0.8704
12421WAT    EPW51491   8.118   3.278   0.052 -0.4277 -1.0200  0.4484
12422WAT      O51492   4.257   4.753   0.487 -0.1648  0.2175  0.3124
12422WAT     H151493   4.309   4.701   0.425  0.4548  0.8627  0.2745
12422WAT     H251494   4.303   4.744   0.570 -0.8031 -0.3691  0.6025
12422WAT    EPW51495   4.270   4.745   0.490 -0.1674  0.2253  0.3457
12423WAT      O51496   0.729   3.183   4.949  0.3276  0.0020 -0.2884
12423WAT     H151497   0.723   3.275   4.972  1.1457 -0.3578  1.5821
12423WAT     H251498   0.640   3.158   4.924 -0.1948  0.9896  0.5247
12423WAT    EPW51499   0.717   3.192   4.949  0.3666  0.0848  0.0656
12424WAT      O51500  -2.344   5.983   1.183 -0.1745 -0.4705  0.0227
12424WAT     H151501  -2.389   5.991   1.267  1.5361 -0.9315  1.0307
12424WAT     H251502  -2.279   5.914   1.197  1.2804  0.6027 -1.1385
12424WAT    EPW51503  -2.341   5.975   1.196  0.2431 -0.3896  0.0026
12425WAT      O51504  -5.435   8.671   6.408 -0.3037  0.2208 -0.2386
12425WAT     H151505  -5.427   8.741   6.343 -2.1208 -0.5805 -1.3982
12425WAT     H251506  -5.389   8.705   6.485 -1.5800  2.9627 -0.5592
12425WAT    EPW51507  -5.428   8.685   6.410 -0.7117  0.4768 -0.4339
12426WAT      O51508   5.665   4.047   4.939 -0.1210  0.0506 -0.6351
12426WAT     H151509   5.575   4.044   4.970  0.3545 -0.4853  0.8102
12426WAT     H251510   5.677   3.965   4.891  0.4446 -1.4494  1.8702
12426WAT    EPW51511   5.655   4.036   4.937  0.0162 -0.2179 -0.1142
12427WAT      O51512   2.982   2.629   7.909  0.1614  0.1567 -0.6168
12427WAT     H151513   3.010   2.698   7.969 -1.3152  1.3296 -1.2138
12427WAT     H251514   3.013   2.658   7.824 -0.1922 -0.0756 -0.8254
12427WAT    EPW51515   2.990   2.642   7.906 -0.0799  0.2807 -0.7231
12428WAT      O51516  -1.832   7.720   6.347 -0.2594 -0.8783  0.5673
12428WAT     H151517  -1.923   7.717   6.375 -0.1903 -1.0008  0.7768
12428WAT     H251518  -1.813   7.631   6.318 -0.2736 -0.7985  0.3144
12428WAT    EPW51519  -1.842   7.708   6.347 -0.2522 -0.8841  0.5617
12429WAT      O51520   3.303   0.278   7.509  0.2300  0.2222  0.4619
12429WAT     H151521   3.259   0.360   7.488  0.9717  0.4464 -0.2392
12429WAT     H251522   3.282   0.262   7.601  0.3151  1.3235  0.6741
12429WAT    EPW51523   3.294   0.286   7.518  0.3390  0.3970  0.3974
12430WAT      O51524  -0.338   7.060   5.390  0.2941 -0.9014  0.1745
12430WAT     H151525  -0.350   7.021   5.303  1.9256  0.5418 -0.7557
12430WAT     H251526  -0.407   7.127   5.396 -2.2400 -3.4153  1.6070
12430WAT    EPW51527  -0.349   7.064   5.379  0.1751 -1.0424  0.2408
12431WAT      O51528  -1.719   6.288   5.333 -0.5356  0.4310  0.1784
12431WAT     H151529  -1.745   6.313   5.245  2.2996  1.2605 -0.5564
12431WAT     H251530  -1.746   6.197   5.342 -1.5710  0.5715 -1.2360
12431WAT    EPW51531  -1.726   6.279   5.323 -0.2983  0.5589 -0.1051
12432WAT      O51532  -5.025   5.583   5.255  0.1857 -0.4657 -0.2938
12432WAT     H151533  -4.960   5.546   5.314  1.3669 -1.3347 -2.0301
12432WAT     H251534  -4.987   5.570   5.168 -1.6391  0.4065 -1.2649
12432WAT    EPW51535  -5.011   5.576   5.251  0.1009 -0.4654 -0.6509
12433WAT      O51536   3.863   1.545   3.172 -0.2569  0.5323  0.0598
12433WAT     H151537   3.865   1.612   3.103  2.1687 -0.1021 -0.5797
12433WAT     H251538   3.836   1.465   3.126  2.2777 -0.1076 -0.4747
12433WAT    EPW51539   3.860   1.544   3.157  0.3973  0.3642 -0.0950
12434WAT      O51540  -0.432   4.638   0.678 -0.6873  0.0417  0.3704
12434WAT     H151541  -0.410   4.559   0.726 -1.3637 -0.4645 -0.1242
12434WAT     H251542  -0.450   4.703   0.746  0.0467 -0.1741  0.7764
12434WAT    EPW51543  -0.432   4.636   0.693 -0.6797 -0.0534  0.3587
12435WAT      O51544  -0.540   7.078   5.135 -0.0621  0.0257  0.2134
12435WAT     H151545  -0.602   7.136   5.179  1.1280  0.8212  0.8938
12435WAT     H251546  -0.567   6.990   5.160 -1.6314  0.2743 -0.4796
12435WAT    EPW51547  -0.552   7.074   5.144 -0.1121  0.1633  0.2117
12436WAT      O51548   0.400   3.644   3.999 -0.4133 -0.4107  0.4638
12436WAT     H151549   0.408   3.675   3.909  3.7403  0.1690  0.8423
12436WAT     H251550   0.467   3.576   4.006 -1.4911 -1.3147  2.8293
12436WAT    EPW51551   0.410   3.639   3.988 -0.0076 -0.4535  0.8258
12437WAT      O51552   6.409   0.608   3.057 -0.3301 -0.6737  0.3636
12437WAT     H151553   6.360   0.679   3.097  1.7981 -0.1521  2.2852
12437WAT     H251554   6.350   0.571   2.992 -1.9295  2.1160  0.0803
12437WAT    EPW51555   6.395   0.612   3.054 -0.2604 -0.2369  0.5797
12438WAT      O51556   0.833   7.337   7.320 -0.2862 -0.3476 -0.2618
12438WAT     H151557   0.919   7.378   7.324 -1.4244  2.2674  4.2254
12438WAT     H251558   0.793   7.375   7.241  1.7363  0.3524 -1.0364
12438WAT    EPW51559   0.839   7.347   7.310 -0.1695  0.0894  0.2279
12439WAT      O51560  -1.430   1.004   6.039 -0.3220  0.5391  0.6934
12439WAT     H151561  -1.502   0.979   5.982 -0.5369  2.5558 -0.0161
12439WAT     H251562  -1.438   0.947   6.116 -0.3095 -1.9153 -1.0354
12439WAT    EPW51563  -1.440   0.994   6.042 -0.3487  0.4814  0.3717
12440WAT      O51564   3.296   4.012   2.959  0.4253 -0.0171 -0.0932
12440WAT     H151565   3.213   4.055   2.936  0.5811 -0.7850 -2.2823
12440WAT     H251566   3.273   3.954   3.032 -0.3348  1.7405  1.1559
12440WAT    EPW51567   3.282   4.010   2.966  0.3456  0.1132 -0.2172
12441WAT      O51568   5.277   3.382   0.475  0.3037 -0.7605 -0.3203
12441WAT     H151569   5.363   3.367   0.436  1.0829  0.5456  0.8304
12441WAT     H251570   5.245   3.462   0.433 -0.0540 -0.8778 -0.2725
12441WAT    EPW51571   5.284   3.390   0.464  0.3593 -0.6037 -0.1622
12442WAT      O51572   5.806   5.668   1.785  0.5083  0.1296 -0.3629
12442WAT     H151573   5.816   5.604   1.856 -1.4120 -0.2915 -0.4142
12442WAT     H251574   5.836   5.751   1.823  1.0682 -0.3924  0.3733
12442WAT    EPW51575   5.812   5.670   1.799  0.3290  0.0052 -0.2726
12443WAT      O51576   5.570   4.143   2.676  0.2597 -0.0642 -0.0743
12443WAT     H151577   5.539   4.056   2.650  0.3187 -0.5801  1.4840
12443WAT     H251578   5.650   4.156   2.625 -0.5866 -0.2339 -1.4889
12443WAT    EPW51579   5.576   4.133   2.666  0.1559 -0.1547 -0.0554
12444WAT      O51580   5.927   1.868   1.846 -0.6070 -0.2945  0.0441
12444WAT     H151581   5.844   1.906   1.817  0.1122  0.7161 -0.7983
12444WAT     H251582   5.984   1.874   1.770 -0.1487 -2.2531  0.1816
12444WAT    EPW51583   5.923   1.874   1.832 -0.4516 -0.4196 -0.0489
12445WAT      O51584   0.221   5.130   3.382  0.1616 -0.3220 -0.0868
12445WAT     H151585   0.308   5.170   3.376  1.8219 -3.4391  0.8445
12445WAT     H251586   0.207   5.116   3.475 -1.1603 -0.2983 -0.2614
12445WAT    EPW51587   0.231   5.133   3.393  0.2062 -0.7300  0.0130
12446WAT      O51588   0.409   2.082   4.916 -0.1751 -0.0124  0.2117
12446WAT     H151589   0.333   2.043   4.872  1.0078  0.7643 -2.7956
12446WAT     H251590   0.477   2.015   4.908 -0.1394 -0.1791  1.6901
12446WAT    EPW51591   0.408   2.068   4.909 -0.0144  0.0681  0.0103
12447WAT      O51592  -0.696   9.358   7.090  0.0820  0.3317 -0.1185
12447WAT     H151593  -0.610   9.365   7.133 -0.0494  1.4407 -0.0009
12447WAT     H251594  -0.748   9.428   7.131 -0.4753  0.5011 -1.1021
12447WAT    EPW51595  -0.692   9.368   7.101 -0.0088  0.5002 -0.2327
12448WAT      O51596   0.081   5.076   4.229 -0.4009 -0.7362 -0.0426
12448WAT     H151597   0.072   5.055   4.136 -1.9897  1.6167 -0.5048
12448WAT     H251598   0.175   5.076   4.245 -0.1432 -2.8727 -1.1593
12448WAT    EPW51599   0.092   5.073   4.219 -0.5765 -0.7076 -0.2508
12449WAT      O51600  -3.851   6.845   3.805 -0.2447  0.1777 -0.1767
12449WAT     H151601  -3.935   6.812   3.772 -1.6995  4.0143 -0.8359
12449WAT     H251602  -3.864   6.853   3.899  0.8489 -2.6896  0.3229
12449WAT    EPW51603  -3.864   6.842   3.813 -0.2923  0.3054 -0.1978
12450WAT      O51604   6.297   1.843   2.173  0.2186 -0.1150  0.5402
12450WAT     H151605   6.293   1.918   2.114 -1.6074 -0.2683  0.4405
12450WAT     H251606   6.350   1.778   2.126 -0.6898  0.0026 -0.6585
12450WAT    EPW51607   6.304   1.844   2.159 -0.1421 -0.1197  0.3690
12451WAT      O51608  -2.015   7.446   8.866 -0.1430  0.2279 -0.5042
12451WAT     H151609  -1.963   7.493   8.932 -2.1878  3.1683 -0.7961
12451WAT     H251610  -1.963   7.368   8.845  4.9215  3.5034 -1.8615
12451WAT    EPW51611  -2.001   7.442   8.872  0.2553  1.0478 -0.7219
12452WAT      O51612  -1.095   4.932   7.973 -0.2938 -0.3774  0.2448
12452WAT     H151613  -1.129   4.909   7.887  1.3685  0.0233 -0.5618
12452WAT     H251614  -1.009   4.890   7.978  1.2378  2.4716  0.1986
12452WAT    EPW51615  -1.088   4.924   7.963  0.1274  0.0513  0.1323
12453WAT      O51616  -0.191   7.378   3.377 -0.2805  0.0722  0.7981
12453WAT     H151617  -0.142   7.325   3.314 -2.7316 -1.3849 -0.0174
12453WAT     H251618  -0.192   7.325   3.457  2.1449  1.5685  1.9389
12453WAT    EPW51619  -0.184   7.364   3.379 -0.2839  0.0775  0.8410
12454WAT      O51620  -4.938   2.835   6.493 -0.6139 -0.0406  0.5947
12454WAT     H151621  -5.019   2.883   6.483 -2.4788 -2.8218  1.0484
12454WAT     H251622  -4.879   2.895   6.538 -3.6040  1.0326  3.5276
12454WAT    EPW51623  -4.941   2.849   6.498 -1.2543 -0.2658  1.0417
12455WAT      O51624   1.958   5.013   3.767 -0.7177  0.9996  0.0956
12455WAT     H151625   1.967   4.935   3.822  0.5127  1.2651  0.2951
12455WAT     H251626   1.962   5.086   3.829  0.4123  1.2918 -0.3104
12455WAT    EPW51627   1.959   5.012   3.783 -0.4064  1.0729  0.0683
12456WAT      O51628  -1.795   4.172   7.792 -0.3660  0.1199 -0.3870
12456WAT     H151629  -1.792   4.166   7.697 -2.7715  1.1647 -0.6005
12456WAT     H251630  -1.792   4.081   7.822 -1.3277 -0.3313 -1.5706
12456WAT    EPW51631  -1.794   4.159   7.783 -0.8101  0.1981 -0.5715
12457WAT      O51632  -1.327   6.839   8.429 -0.9364  0.5845  0.2137
12457WAT     H151633  -1.321   6.895   8.351  0.3613 -1.7436 -1.4975
12457WAT     H251634  -1.235   6.824   8.454 -1.0745 -2.3854 -0.7077
12457WAT    EPW51635  -1.314   6.844   8.422 -0.7834 -0.1144 -0.1340
12458WAT      O51636   0.850   9.936   3.441 -0.0967 -0.5921  0.3084
12458WAT     H151637   0.767   9.941   3.490 -0.3261 -1.7970  0.0615
12458WAT     H251638   0.918   9.944   3.508 -0.4105 -1.6666  0.7743
12458WAT    EPW51639   0.848   9.938   3.456 -0.1684 -0.8926  0.3374
12459WAT      O51640   2.324   7.702   6.126  0.1681 -0.0639 -0.4478
12459WAT     H151641   2.396   7.650   6.090 -0.6533 -2.4464  1.1401
12459WAT     H251642   2.341   7.791   6.095  1.7215 -1.1985 -3.2002
12459WAT    EPW51643   2.336   7.707   6.117  0.2646 -0.5276 -0.6015
12460WAT      O51644  -1.083   5.959   2.829 -0.4735 -0.3893  0.5472
12460WAT     H151645  -1.081   6.053   2.846 -0.5568 -0.0227 -1.2780
12460WAT     H251646  -1.167   5.931   2.864  0.2577 -0.1299  2.6117
12460WAT    EPW51647  -1.094   5.968   2.836 -0.3881 -0.3066  0.5789
12461WAT      O51648   3.570   7.214   1.824 -0.3277  0.1250 -0.4190
12461WAT     H151649   3.566   7.290   1.767  0.9980 -0.9641 -2.0401
12461WAT     H251650   3.663   7.192   1.830 -0.4807 -0.2232  1.6443
12461WAT    EPW51651   3.582   7.221   1.818 -0.1731 -0.0646 -0.3607
12462WAT      O51652  -4.773   6.985   7.203 -0.5895  0.1952  0.1701
12462WAT     H151653  -4.775   7.016   7.113  1.2970  2.3624  0.7847
12462WAT     H251654  -4.775   6.889   7.195 -1.8519  0.3289 -2.0613
12462WAT    EPW51655  -4.774   6.976   7.190 -0.5069  0.4988 -0.0434
12463WAT      O51656  -4.566   7.679   7.608  0.5078 -0.9824 -0.2045
12463WAT     H151657  -4.600   7.759   7.649  1.6302 -1.5668  2.0798
12463WAT     H251658  -4.529   7.708   7.525  0.1921  0.7435  0.2156
12463WAT    EPW51659  -4.566   7.694   7.603  0.6142 -0.8318  0.1521
12464WAT      O51660  -1.464   8.168   6.325 -0.3110 -0.3073 -1.4242
12464WAT     H151661  -1.466   8.074   6.344 -1.3884 -0.3142 -1.4950
12464WAT     H251662  -1.549   8.200   6.358 -0.2058  0.5243 -1.9577
12464WAT    EPW51663  -1.476   8.160   6.332 -0.4392 -0.1984 -1.5037
12465WAT      O51664  -4.207   8.008   5.775 -0.5889  0.1821 -0.2902
12465WAT     H151665  -4.234   7.948   5.705  1.5956  0.3636 -1.3735
12465WAT     H251666  -4.142   7.959   5.825 -1.6551  0.2903  1.2773
12465WAT    EPW51667  -4.202   7.993   5.772 -0.4413  0.2203 -0.2263
12466WAT      O51668  -2.367   1.868   6.406  0.5823 -0.3475 -0.2719
12466WAT     H151669  -2.456   1.857   6.441  1.0514  0.8354  1.4001
12466WAT     H251670  -2.329   1.780   6.411 -0.2445 -0.7188 -0.3008
12466WAT    EPW51671  -2.374   1.855   6.411  0.5351 -0.2404 -0.0551
12467WAT      O51672   0.968   2.271   7.475  0.1634 -0.4064  0.7355
12467WAT     H151673   0.930   2.186   7.497 -1.1171 -0.5162 -1.5701
12467WAT     H251674   0.911   2.335   7.518 -1.0377 -0.6691 -0.3773
12467WAT    EPW51675   0.955   2.268   7.483 -0.1639 -0.4555  0.2847
12468WAT      O51676   0.093   4.935   6.795  0.1658  1.1321 -0.5891
12468WAT     H151677   0.164   4.908   6.736  1.0859  0.0420  0.9247
12468WAT     H251678   0.121   4.904   6.881 -2.6031 -0.1768 -0.0597
12468WAT    EPW51679   0.106   4.927   6.799 -0.0780  0.8156 -0.3197
12469WAT      O51680  -3.211   3.310   5.918  0.0118 -0.4910  0.0619
12469WAT     H151681  -3.133   3.365   5.929  1.4063 -2.2573 -0.6083
12469WAT     H251682  -3.264   3.358   5.854 -0.2718  1.5295  1.7071
12469WAT    EPW51683  -3.207   3.324   5.911  0.1584 -0.4575  0.1905
12470WAT      O51684  -5.363   9.111   5.542  0.0237 -0.4668 -0.4105
12470WAT     H151685  -5.419   9.036   5.522 -1.3396 -0.1073  1.6290
12470WAT     H251686  -5.387   9.177   5.477 -0.0629 -1.1872 -1.1195
12470WAT    EPW51687  -5.374   9.110   5.531 -0.1678 -0.5145 -0.2351
12471WAT      O51688   1.674   9.669   2.018  0.5646 -0.7148 -0.8909
12471WAT     H151689   1.636   9.757   2.016 -1.5121 -1.5152 -0.0323
12471WAT     H251690   1.712   9.662   2.106 -1.5595 -1.4873  0.0372
12471WAT    EPW51691   1.674   9.680   2.029  0.0106 -0.9222 -0.6552
12472WAT      O51692   2.455   7.520   2.226  0.3430  0.3212  0.0268
12472WAT     H151693   2.485   7.434   2.196  0.5642  0.8921 -1.4707
12472WAT     H251694   2.396   7.500   2.299 -0.4725 -1.1969 -0.9732
12472WAT    EPW51695   2.451   7.506   2.232  0.2646  0.1962 -0.3026
12473WAT      O51696   1.942   5.409   7.763 -0.0528 -0.0791 -0.5776
12473WAT     H151697   1.938   5.503   7.778  0.8391 -0.0953 -0.1305
12473WAT     H251698   1.855   5.377   7.785 -1.3660  1.0070 -3.6799
12473WAT    EPW51699   1.930   5.417   7.768 -0.1084  0.0620 -0.9279
12474WAT      O51700  -0.494   5.659   1.605  0.2021 -0.7398 -0.3567
12474WAT     H151701  -0.519   5.568   1.589 -1.4987 -0.7715  2.0437
12474WAT     H251702  -0.517   5.675   1.696 -0.7124  2.4849 -1.0214
12474WAT    EPW51703  -0.500   5.649   1.615 -0.1428 -0.3188 -0.1277
12475WAT      O51704  -3.535   2.439   6.939 -0.9303 -0.4938  0.3221
12475WAT     H151705  -3.527   2.523   6.893 -0.2396 -0.7876 -0.1140
12475WAT     H251706  -3.628   2.419   6.935 -0.9876 -0.1450 -0.3069
12475WAT    EPW51707  -3.546   2.448   6.932 -0.8469 -0.4866  0.1817
12476WAT      O51708   0.331   9.575   6.229  0.1989  0.8104 -0.1931
12476WAT     H151709   0.238   9.591   6.209 -0.4609 -0.8366  1.2160
12476WAT     H251710   0.345   9.484   6.203  1.5574  1.1707 -0.7624
12476WAT    EPW51711   0.320   9.565   6.223  0.2911  0.6404 -0.0825
12477WAT      O51712  -1.721   9.296   3.817  0.3528  0.1152 -0.3605
12477WAT     H151713  -1.735   9.208   3.783  1.2443  0.5791 -2.0644
12477WAT     H251714  -1.626   9.304   3.826  0.1596 -0.0443  2.5889
12477WAT    EPW51715  -1.710   9.286   3.814  0.4449  0.1559 -0.1962
12478WAT      O51716   1.035   2.903   5.807  0.5559 -0.0098  0.4631
12478WAT     H151717   1.037   2.885   5.901 -0.8527  0.1943  0.5466
12478WAT     H251718   1.096   2.840   5.770 -0.1473 -1.2489  1.3371
12478WAT    EPW51719   1.044   2.893   5.815  0.2773 -0.1464  0.5894
12479WAT      O51720  -0.439   7.241   7.738  0.1449  0.3611 -0.4462
12479WAT     H151721  -0.423   7.185   7.662  1.5567 -0.2338  0.2485
12479WAT     H251722  -0.516   7.292   7.714  1.3541  1.2142 -2.8403
12479WAT    EPW51723  -0.447   7.240   7.725  0.4906  0.3953 -0.6702
12480WAT      O51724   5.174   5.224   3.536  0.3868 -0.6912 -0.4620
12480WAT     H151725   5.184   5.139   3.493 -2.0271  0.0475 -2.7098
12480WAT     H251726   5.090   5.218   3.582  1.0547 -0.0778  0.9175
12480WAT    EPW51727   5.164   5.212   3.537  0.1566 -0.5131 -0.5765
12481WAT      O51728  -4.366   0.576   8.725  0.0986 -0.0553  0.5547
12481WAT     H151729  -4.344   0.661   8.685 -3.3318  0.2708 -1.0525
12481WAT     H251730  -4.308   0.569   8.800  2.8551  2.1184 -1.1612
12481WAT    EPW51731  -4.355   0.586   8.729  0.0095  0.2744  0.1163
12482WAT      O51732  -4.178   6.495   3.867  0.4772 -0.5439  0.6803
12482WAT     H151733  -4.177   6.565   3.933  3.0155  2.3531 -2.1073
12482WAT     H251734  -4.263   6.453   3.879 -1.6354  3.5342  2.1157
12482WAT    EPW51735  -4.189   6.499   3.877  0.5331  0.3760  0.5020
12483WAT      O51736  -0.150   0.910   2.818  0.5247 -0.4068 -0.2059
12483WAT     H151737  -0.242   0.924   2.796  1.2832 -0.4348 -4.1157
12483WAT     H251738  -0.146   0.820   2.850 -0.6878 -0.7117 -0.8521
12483WAT    EPW51739  -0.161   0.900   2.819  0.4649 -0.4507 -0.8068
12484WAT      O51740   2.702   5.323   1.458 -0.2349 -0.2308  0.2459
12484WAT     H151741   2.664   5.304   1.373  2.1406  2.2001 -1.5343
12484WAT     H251742   2.632   5.304   1.520 -1.9386 -2.4682 -2.1609
12484WAT    EPW51743   2.688   5.318   1.455 -0.1464 -0.2053 -0.3064
12485WAT      O51744   3.021   7.651   0.768  0.1659  0.4878 -0.0914
12485WAT     H151745   3.107   7.612   0.782  0.1172  0.1933 -0.6022
12485WAT     H251746   3.020   7.675   0.676  0.0658  1.3958  0.1328
12485WAT    EPW51747   3.032   7.649   0.758  0.1463  0.5689 -0.1292
12486WAT      O51748   5.160   5.719   5.493  0.4489  0.2129 -0.6615
12486WAT     H151749   5.065   5.730   5.487  0.2980 -0.5268  0.1488
12486WAT     H251750   5.190   5.803   5.527  0.0166  0.2664 -0.3935
12486WAT    EPW51751   5.151   5.732   5.497  0.3719  0.1223 -0.5195
12487WAT      O51752   0.756   7.442   2.853 -0.3058 -0.0652  0.4951
12487WAT     H151753   0.787   7.525   2.819 -0.5873 -0.2143 -0.1396
12487WAT     H251754   0.679   7.421   2.800 -1.9161  0.6134  2.4204
12487WAT    EPW51755   0.750   7.450   2.842 -0.5553  0.0045  0.6653
12488WAT      O51756   4.478   5.433   3.429  0.7205  0.1252 -0.2144
12488WAT     H151757   4.390   5.470   3.428  1.9865  3.4650 -2.1334
12488WAT     H251758   4.489   5.395   3.342  0.7302 -1.7486  0.5448
12488WAT    EPW51759   4.468   5.433   3.417  0.8888  0.3185 -0.3674
12489WAT      O51760   2.934   4.447   7.603  0.7330 -0.3385  0.2756
12489WAT     H151761   2.976   4.361   7.605  2.6893  0.5039 -0.6015
12489WAT     H251762   2.973   4.489   7.526  0.1924  1.4912  0.9651
12489WAT    EPW51763   2.945   4.441   7.593  0.9198  0.0138  0.2508
12490WAT      O51764   1.516   1.525   5.145 -0.3070  0.0691 -0.5679
12490WAT     H151765   1.493   1.502   5.236 -0.9368  1.7130 -0.2773
12490WAT     H251766   1.432   1.526   5.099 -0.1874  0.8348 -0.7793
12490WAT    EPW51767   1.502   1.522   5.151 -0.3743  0.3870 -0.5574
12491WAT      O51768   5.200   5.597   1.139 -0.1805  0.3496 -0.1273
12491WAT     H151769   5.270   5.615   1.075 -0.2644  0.1481 -0.2774
12491WAT     H251770   5.245   5.586   1.222  0.0934 -0.9789 -0.4283
12491WAT    EPW51771   5.215   5.598   1.141 -0.1554  0.1478 -0.1867
12492WAT      O51772   3.073   1.822   6.637 -0.6086 -0.1199 -0.4381
12492WAT     H151773   3.136   1.764   6.593  0.1296  0.5053 -0.2245
12492WAT     H251774   3.050   1.887   6.571  1.6784  1.7485  0.4575
12492WAT    EPW51775   3.078   1.823   6.623 -0.2096  0.2090 -0.2916
12493WAT      O51776   2.655   3.547   1.538  0.7445 -0.4016 -0.1290
12493WAT     H151777   2.575   3.500   1.512  0.3999 -0.1669  0.4966
12493WAT     H251778   2.726   3.491   1.507  0.3609 -2.1304  1.9281
12493WAT    EPW51779   2.654   3.533   1.530  0.6485 -0.5987  0.2248
12494WAT      O51780   2.875   4.692   3.462  0.7500  0.0832 -0.0628
12494WAT     H151781   2.799   4.707   3.406  0.2690  1.2255  0.8630
12494WAT     H251782   2.838   4.679   3.550  1.6371  1.1504  0.4856
12494WAT    EPW51783   2.860   4.692   3.466  0.8035  0.3746  0.1316
12495WAT      O51784   0.892   3.477   7.039  0.0007 -0.5028  0.7972
12495WAT     H151785   0.837   3.551   7.014  1.7685  0.8525  0.7233
12495WAT     H251786   0.883   3.472   7.134  0.9072  0.6993  0.9644
12495WAT    EPW51787   0.883   3.486   7.048  0.3534 -0.1655  0.8094
12496WAT      O51788   0.414   0.703   6.992  0.8094 -0.8393 -0.2035
12496WAT     H151789   0.355   0.764   6.949 -0.5221 -2.1015 -0.2657
12496WAT     H251790   0.481   0.684   6.927  0.8648  0.0311 -0.4108
12496WAT    EPW51791   0.415   0.708   6.978  0.6411 -0.8910 -0.2389
12497WAT      O51792   3.945   0.605   7.098  0.2851  0.5422  0.0599
12497WAT     H151793   3.903   0.654   7.169 -0.9572  0.0353 -0.2870
12497WAT     H251794   3.945   0.665   7.024 -1.2429  0.0770 -0.3677
12497WAT    EPW51795   3.939   0.619   7.098 -0.0802  0.4140 -0.0422
12498WAT      O51796   4.588   7.625   4.276  0.1012 -0.0158 -0.3490
12498WAT     H151797   4.625   7.573   4.348  0.1896 -0.5021 -0.7436
12498WAT     H251798   4.649   7.698   4.266 -0.2856  0.4530  0.5404
12498WAT    EPW51799   4.601   7.628   4.284  0.0620 -0.0181 -0.2837
12499WAT      O51800   2.622   9.605   3.121 -0.0173 -0.4064 -0.1077
12499WAT     H151801   2.657   9.588   3.209  1.0890  1.6501 -0.0692
12499WAT     H251802   2.592   9.520   3.090  1.5189 -1.5967  1.4284
12499WAT    EPW51803   2.623   9.592   3.129  0.3312 -0.2923  0.0999
12500WAT      O51804   1.994   3.734   1.158  0.3339  0.1782  0.6330
12500WAT     H151805   1.977   3.688   1.239 -0.1180  0.5036  0.7247
12500WAT     H251806   2.079   3.702   1.129 -0.4452 -1.5326  0.1287
12500WAT    EPW51807   2.003   3.724   1.165  0.1715 -0.0045  0.5786
12501WAT      O51808   3.615   0.489   6.327 -0.0712 -0.1350 -0.1258
12501WAT     H151809   3.668   0.523   6.255 -0.1293 -1.7739 -0.9885
12501WAT     H251810   3.532   0.537   6.321  0.0459 -0.0269 -0.9494
12501WAT    EPW51811   3.611   0.500   6.317 -0.0633 -0.3369 -0.3481
12502WAT      O51812  -2.084   5.318   7.376  0.2545 -0.2659  0.9430
12502WAT     H151813  -2.124   5.235   7.353 -0.7812 -0.0804  2.0258
12502WAT     H251814  -2.155   5.382   7.371  0.4614  0.1222  2.5786
12502WAT    EPW51815  -2.098   5.316   7.372  0.1452 -0.1903  1.3015
12503WAT      O51816  -3.746   1.568   8.745  0.2496  0.4186 -0.2968
12503WAT     H151817  -3.796   1.487   8.736 -0.0167  0.7620 -2.5832
12503WAT     H251818  -3.736   1.600   8.655  1.1100  2.4683  0.4637
12503WAT    EPW51819  -3.751   1.561   8.732  0.3279  0.7342 -0.4983
12504WAT      O51820   2.296   3.421   0.652  0.6768  0.0713 -0.6570
12504WAT     H151821   2.227   3.462   0.704  1.1303 -1.8748  1.6849
12504WAT     H251822   2.250   3.361   0.594  0.2330  1.4033 -1.7300
12504WAT    EPW51823   2.281   3.418   0.651  0.6781 -0.0097 -0.4896
12505WAT      O51824   4.079   1.572   1.106  0.0153  0.0994 -0.0406
12505WAT     H151825   4.027   1.515   1.162 -1.6635  0.0685 -1.5342
12505WAT     H251826   4.120   1.634   1.166 -2.8408  0.9829  1.1913
12505WAT    EPW51827   4.077   1.573   1.121 -0.5829  0.2118 -0.0751
12506WAT      O51828   3.942   7.956   3.370  0.0590 -1.3732 -0.6706
12506WAT     H151829   3.910   8.027   3.314  0.3514 -0.6902  0.0079
12506WAT     H251830   3.991   8.001   3.439  2.4522 -2.3495 -1.6298
12506WAT    EPW51831   3.945   7.972   3.372  0.4132 -1.4119 -0.7076
12507WAT      O51832   6.967   5.799   2.024  0.4176  0.2383  1.0344
12507WAT     H151833   7.027   5.873   2.034  1.1266 -0.1746 -0.0024
12507WAT     H251834   6.889   5.837   1.983  0.4948  0.5401  1.1645
12507WAT    EPW51835   6.965   5.814   2.020  0.5214  0.2236  0.9148
12508WAT      O51836   4.848   1.785   8.666 -0.9372 -0.1955 -0.5721
12508WAT     H151837   4.912   1.747   8.606 -0.1814  0.6404 -0.3042
12508WAT     H251838   4.783   1.715   8.679  1.0375 -1.8663  0.8920
12508WAT    EPW51839   4.848   1.771   8.659 -0.5772 -0.3057 -0.3438
12509WAT      O51840  -5.683   5.242   7.828  0.6320  0.8264 -0.1280
12509WAT     H151841  -5.641   5.228   7.913  1.9342  1.5008 -0.6271
12509WAT     H251842  -5.766   5.195   7.834  1.1161  0.0911  1.1787
12509WAT    EPW51843  -5.688   5.234   7.840  0.8676  0.8183 -0.0215
12510WAT      O51844  -3.820   4.095   6.349  0.5304  0.0289 -0.2360
12510WAT     H151845  -3.804   4.182   6.387  1.4818  0.2195 -1.0310
12510WAT     H251846  -3.747   4.042   6.380  0.3154 -0.3121 -0.3083
12510WAT    EPW51847  -3.808   4.100   6.358  0.6275  0.0088 -0.3505
12511WAT      O51848   7.573   5.858   0.831  0.1108 -0.1677  0.5793
12511WAT     H151849   7.479   5.847   0.819 -0.1091  1.4701  0.5769
12511WAT     H251850   7.595   5.934   0.777  1.0353  0.7900  2.2324
12511WAT    EPW51851   7.563   5.867   0.822  0.2036  0.1745  0.7971
12512WAT      O51852   4.180   8.721   4.384 -0.1933 -0.1740 -0.1564
12512WAT     H151853   4.212   8.783   4.449 -3.0477  0.5563  0.7365
12512WAT     H251854   4.239   8.646   4.391  0.7782  0.7035  1.8809
12512WAT    EPW51855   4.192   8.719   4.393 -0.4418  0.0381  0.2301
12513WAT      O51856   6.313   7.669   0.629  0.2703 -0.2690  0.8548
12513WAT     H151857   6.347   7.755   0.655  1.2661 -0.7903  1.3664
12513WAT     H251858   6.218   7.682   0.622  0.5141  1.1793 -0.3473
12513WAT    EPW51859   6.305   7.682   0.632  0.4337 -0.1469  0.7637
12514WAT      O51860  -1.595  10.019   8.436  0.0035 -0.1658  0.2262
12514WAT     H151861  -1.583  10.113   8.446  1.9759  0.0357 -2.7280
12514WAT     H251862  -1.528   9.980   8.493 -0.3589  0.2049  0.9192
12514WAT    EPW51863  -1.584  10.026   8.445  0.2159 -0.0906 -0.0720
12515WAT      O51864  -0.206   9.067   7.851  0.3826  0.0107 -0.9930
12515WAT     H151865  -0.281   9.119   7.824 -0.5078  0.1266  1.4797
12515WAT     H251866  -0.236   9.019   7.928  2.9821  0.5519  0.4794
12515WAT    EPW51867  -0.220   9.067   7.858  0.6080  0.0978 -0.4728
12516WAT      O51868  -2.035   9.376   4.266  0.0419  0.4208 -0.2290
12516WAT     H151869  -2.052   9.284   4.283  1.2263  0.1464 -0.4956
12516WAT     H251870  -2.121   9.418   4.276 -0.7045 -0.8468 -1.0642
12516WAT    EPW51871  -2.049   9.370   4.270  0.0998  0.2170 -0.3743
12517WAT      O51872   2.171   8.345   8.313 -0.0882  0.0679  0.0364
12517WAT     H151873   2.227   8.387   8.378 -1.5234  0.6387  0.9491
12517WAT     H251874   2.106   8.412   8.292 -0.9780 -0.8885 -0.2956
12517WAT    EPW51875   2.170   8.359   8.319 -0.3948  0.0167  0.1130
12518WAT      O51876   6.136   1.654   6.284 -0.2430  0.0819  0.0864
12518WAT     H151877   6.151   1.597   6.359 -1.3398 -0.3546 -0.0100
12518WAT     H251878   6.201   1.724   6.294 -0.4212  0.0742  1.4860
12518WAT    EPW51879   6.146   1.656   6.295 -0.4113  0.0234  0.2584
12519WAT      O51880   1.217   0.359   8.811  0.0295 -0.0446  0.9454
12519WAT     H151881   1.280   0.295   8.777  0.1121  0.1369  0.7600
12519WAT     H251882   1.157   0.306   8.865  0.9082 -0.0893  1.9163
12519WAT    EPW51883   1.217   0.343   8.814  0.1563 -0.0266  1.0490
12520WAT      O51884   6.902   1.047   2.341 -0.1709 -0.4036  0.2843
12520WAT     H151885   6.865   1.132   2.365  1.4866  0.7374 -0.9088
12520WAT     H251886   6.941   1.014   2.422  0.5158  0.7521  0.4556
12520WAT    EPW51887   6.902   1.054   2.354  0.1383 -0.1007  0.1496
12521WAT      O51888   0.731   2.378   3.804  0.2713  0.2779 -0.2182
12521WAT     H151889   0.744   2.284   3.814  0.4715  0.5351  2.8498
12521WAT     H251890   0.815   2.411   3.773  0.6682 -0.4058  0.1058
12521WAT    EPW51891   0.744   2.370   3.801  0.3501  0.2216  0.2291
12522WAT      O51892   0.876   0.904   0.612 -0.7528 -0.8076  0.2201
12522WAT     H151893   0.915   0.897   0.699  0.0751  1.7920  0.1418
12522WAT     H251894   0.936   0.959   0.563 -1.4962 -1.7605 -1.8519
12522WAT    EPW51895   0.889   0.910   0.617 -0.7417 -0.5904 -0.0635
12523WAT      O51896   0.888   5.265   4.555  0.3200  0.6695 -0.9115
12523WAT     H151897   0.835   5.207   4.501  0.2191 -0.3894  0.2638
12523WAT     H251898   0.973   5.223   4.561 -0.0068  0.1346  0.6535
12523WAT    EPW51899   0.892   5.252   4.549  0.2636  0.4594 -0.5500
12524WAT      O51900  -0.599   1.044   3.697  0.0892  0.0983 -0.0271
12524WAT     H151901  -0.567   0.957   3.674  0.1403  0.1630 -0.2022
12524WAT     H251902  -0.644   1.074   3.618  1.3421  0.8310 -0.4894
12524WAT    EPW51903  -0.600   1.036   3.684  0.2612  0.2034 -0.1112
12525WAT      O51904   2.098   5.801   5.982 -0.8069 -0.6311  0.1243
12525WAT     H151905   2.013   5.844   5.987 -0.4600  0.1905 -0.8699
12525WAT     H251906   2.099   5.744   6.059 -2.8240 -1.7338 -0.5729
12525WAT    EPW51907   2.087   5.799   5.993 -1.0271 -0.6680 -0.0987
12526WAT      O51908   2.853   0.892   5.977 -0.5352 -0.6960 -0.2561
12526WAT     H151909   2.891   0.916   5.893 -1.9020  3.3241  0.0485
12526WAT     H251910   2.766   0.858   5.955 -0.0179 -1.8696 -0.5364
12526WAT    EPW51911   2.846   0.891   5.963 -0.6473 -0.3206 -0.2527
12527WAT      O51912  -2.127   8.284   2.212  0.3750 -0.5280 -0.2614
12527WAT     H151913  -2.086   8.366   2.186  0.1328  0.1777  1.4534
12527WAT     H251914  -2.203   8.276   2.154  2.1778 -1.2845 -2.7089
12527WAT    EPW51915  -2.131   8.294   2.201  0.5809 -0.5350 -0.3581
12528WAT      O51916  -5.150   3.870   8.320  0.8228  0.2960  0.6794
12528WAT     H151917  -5.139   3.944   8.260 -0.2448  1.0890  1.4221
12528WAT     H251918  -5.226   3.894   8.373 -0.2111 -1.8281  0.2478
12528WAT    EPW51919  -5.159   3.883   8.319  0.5457  0.1205  0.7205
12529WAT      O51920   2.501   2.847   1.917  0.3347  0.8020  0.3920
12529WAT     H151921   2.533   2.787   1.983 -2.6140  0.2604  1.4669
12529WAT     H251922   2.508   2.934   1.958 -0.7552  0.5471  1.1621
12529WAT    EPW51923   2.506   2.851   1.931 -0.1979  0.6970  0.6354
12530WAT      O51924  -1.585   1.076   3.329  0.1617  0.3459 -0.1332
12530WAT     H151925  -1.625   0.996   3.362 -0.2322  0.7579  0.4179
12530WAT     H251926  -1.572   1.060   3.235 -0.3637 -0.1752 -0.1227
12530WAT    EPW51927  -1.588   1.064   3.321  0.0405  0.3315 -0.0591
12531WAT      O51928   2.732   9.010   6.091  0.6219 -0.4958  0.7107
12531WAT     H151929   2.720   8.931   6.038 -1.9645 -0.7446  1.5492
12531WAT     H251930   2.735   9.081   6.028 -1.2040 -0.9043  0.1206
12531WAT    EPW51931   2.731   9.009   6.076  0.0399 -0.5827  0.7434
12532WAT      O51932   4.569   3.576   1.631  0.0157  0.0553  0.4596
12532WAT     H151933   4.484   3.619   1.636  0.3080  1.0243 -1.7868
12532WAT     H251934   4.629   3.635   1.675  0.0171  0.8568 -0.5912
12532WAT    EPW51935   4.565   3.589   1.637  0.0546  0.2888  0.0247
12533WAT      O51936   6.668   2.917   1.796  0.3366  0.4118 -0.4030
12533WAT     H151937   6.761   2.914   1.817 -0.0118 -0.5251  1.2505
12533WAT     H251938   6.650   2.833   1.754 -0.1610 -0.4872  1.4641
12533WAT    EPW51939   6.678   2.905   1.793  0.2248  0.1696  0.0613
12534WAT      O51940  -6.625  10.015   6.998 -0.9428  0.1912  0.5301
12534WAT     H151941  -6.581   9.937   7.033 -1.6901 -0.1143  0.8189
12534WAT     H251942  -6.709   9.983   6.966 -0.4114  0.5288 -1.2990
12534WAT    EPW51943  -6.630  10.000   6.999 -0.9713  0.1955  0.3269
12535WAT      O51944   2.435   0.328   7.395 -0.0624  0.3569 -0.0733
12535WAT     H151945   2.347   0.295   7.414  0.2055 -0.6483 -0.5044
12535WAT     H251946   2.494   0.261   7.429  0.5432  0.9191  0.0171
12535WAT    EPW51947   2.431   0.315   7.402  0.0528  0.2985 -0.1183
12536WAT      O51948   1.731   8.081   5.886  0.4233 -0.0380 -0.2234
12536WAT     H151949   1.713   8.090   5.792 -2.3997  1.0704  0.3258
12536WAT     H251950   1.692   7.997   5.910  0.8869 -0.1835  0.0431
12536WAT    EPW51951   1.724   8.071   5.877  0.1121  0.0892 -0.1156
12537WAT      O51952  -2.813   9.921   2.486  0.1387  0.3091 -0.3802
12537WAT     H151953  -2.720   9.939   2.494  0.6508 -1.5749 -1.5547
12537WAT     H251954  -2.831   9.924   2.392 -0.3250 -2.0672 -0.4469
12537WAT    EPW51955  -2.803   9.924   2.474  0.1451 -0.2527 -0.5440
12538WAT      O51956   3.223   0.897   5.339 -0.2664 -0.1762  0.1428
12538WAT     H151957   3.165   0.931   5.271  1.1118 -1.9593 -2.0715
12538WAT     H251958   3.303   0.873   5.293  0.4710 -2.1806  2.2566
12538WAT    EPW51959   3.226   0.898   5.324  0.0126 -0.6757  0.1297
12539WAT      O51960  -1.336   6.184   7.778  0.3833 -0.1305 -0.3010
12539WAT     H151961  -1.396   6.117   7.810  0.6340  0.1752  0.8375
12539WAT     H251962  -1.376   6.267   7.802  0.3158  0.1330 -1.2719
12539WAT    EPW51963  -1.349   6.186   7.785  0.4075 -0.0556 -0.2787
12540WAT      O51964   2.985   4.515   0.832 -0.3886  0.2895 -0.5054
12540WAT     H151965   2.894   4.497   0.806 -0.4573 -0.0589 -0.0467
12540WAT     H251966   3.030   4.536   0.750 -0.7536 -0.1107 -0.8162
12540WAT    EPW51967   2.979   4.515   0.817 -0.4458  0.1907 -0.4859
12541WAT      O51968   0.649   7.231   8.048  0.4274  0.0222 -0.0067
12541WAT     H151969   0.703   7.152   8.048 -2.4356 -2.1176 -0.1509
12541WAT     H251970   0.620   7.240   7.957 -1.9142 -0.8242  0.5892
12541WAT    EPW51971   0.652   7.222   8.036 -0.2591 -0.3717  0.0529
12542WAT      O51972  -1.370   9.846   7.791  0.4787  0.7046 -0.3895
12542WAT     H151973  -1.356   9.917   7.853 -1.9547  1.2244 -0.3140
12542WAT     H251974  -1.461   9.857   7.763  1.0934 -0.2926 -3.0727
12542WAT    EPW51975  -1.380   9.856   7.796  0.2388  0.6413 -0.7336
12543WAT      O51976   0.337   5.381   6.151  0.6432  0.4778 -0.1848
12543WAT     H151977   0.302   5.300   6.116  0.7805  0.7014 -0.8589
12543WAT     H251978   0.260   5.434   6.171  0.4952 -0.3419  1.6026
12543WAT    EPW51979   0.322   5.378   6.149  0.6418  0.3989 -0.0379
12544WAT      O51980  -3.643   7.393   6.834  0.8596  0.3092  0.3850
12544WAT     H151981  -3.666   7.309   6.794  1.3008  0.2917  0.1622
12544WAT     H251982  -3.554   7.410   6.804  0.3286  1.4811 -0.6490
12544WAT    EPW51983  -3.634   7.384   6.825  0.8478  0.4616  0.2193
12545WAT      O51984   4.622   1.257   2.396  0.2313  0.0667  0.1931
12545WAT     H151985   4.702   1.216   2.362  0.3583  0.7682 -0.3561
12545WAT     H251986   4.560   1.184   2.406  1.3564 -0.7171  1.9232
12545WAT    EPW51987   4.624   1.242   2.393  0.3963  0.0558  0.3489
12546WAT      O51988  -4.606   8.153   7.868  0.7284  0.9175 -0.3766
12546WAT     H151989  -4.548   8.217   7.910  0.5341  2.8164 -2.7402
12546WAT     H251990  -4.693   8.193   7.874  0.6597  1.1509 -2.2320
12546WAT    EPW51991  -4.610   8.167   7.875  0.6936  1.1983 -0.9332
12547WAT      O51992  -2.599   2.191   6.847  0.2814 -0.6126  0.1055
12547WAT     H151993  -2.503   2.194   6.856  0.2596  0.2373  0.1433
12547WAT     H251994  -2.627   2.280   6.870 -0.6161 -1.1471  1.1506
12547WAT    EPW51995  -2.590   2.203   6.851  0.1602 -0.5709  0.2482
12548WAT      O51996   5.223   4.663   0.594 -0.1930  0.4775  0.6355
12548WAT     H151997   5.309   4.622   0.584  0.1943  1.2526  0.7449
12548WAT     H251998   5.166   4.611   0.538  0.1342 -0.6525  1.3275
12548WAT    EPW51999   5.227   4.651   0.585 -0.0987  0.4306  0.7412
12549WAT      O52000   4.991   4.367   5.302  0.2885 -0.3393 -0.1822
12549WAT     H152001   4.978   4.446   5.251  1.1725  0.6311  1.0466
12549WAT     H252002   5.024   4.303   5.239  0.0859  0.4218 -1.0768
12549WAT    EPW52003   4.994   4.369   5.287  0.3784 -0.1111 -0.1380
12550WAT      O52004  -2.942   9.256   5.442 -0.2894 -0.6399  0.2598
12550WAT     H152005  -2.896   9.179   5.409 -0.6439 -0.1529 -1.4611
12550WAT     H252006  -3.031   9.247   5.409 -0.5988 -0.0124  0.9082
12550WAT    EPW52007  -2.947   9.245   5.433 -0.3769 -0.4930  0.1185
12551WAT      O52008   5.637   8.037   1.727  0.3927  0.3334 -0.3576
12551WAT     H152009   5.725   8.028   1.763 -0.2301 -1.0612  0.8883
12551WAT     H252010   5.580   8.048   1.803 -0.6700 -0.1314 -1.0549
12551WAT    EPW52011   5.641   8.037   1.742  0.1705  0.0877 -0.2852
12552WAT      O52012  -1.306   3.168   6.277  0.2384  0.4169 -0.3449
12552WAT     H152013  -1.341   3.152   6.365 -0.5478 -2.5525 -1.0992
12552WAT     H252014  -1.379   3.209   6.230 -0.3813 -0.6814 -0.3750
12552WAT    EPW52015  -1.321   3.172   6.282  0.0530 -0.1196 -0.4485
12553WAT      O52016  -0.496   3.503   8.329 -0.4665  0.7584  0.0775
12553WAT     H152017  -0.582   3.491   8.288 -0.8204  1.0589  0.7183
12553WAT     H252018  -0.505   3.584   8.380  0.1216  0.6583  0.3439
12553WAT    EPW52019  -0.508   3.512   8.330 -0.4356  0.7849  0.1974
12554WAT      O52020   1.612   5.246   0.038 -0.2003  0.2083 -0.3087
12554WAT     H152021   1.637   5.160   0.004 -0.3440  0.7010 -1.7439
12554WAT     H252022   1.667   5.259   0.115 -0.0100 -1.0543 -0.2125
12554WAT    EPW52023   1.622   5.236   0.044 -0.1941  0.1068 -0.4853
12555WAT      O52024   2.619   8.221   5.248 -0.4504  0.4418  0.4830
12555WAT     H152025   2.707   8.228   5.211 -0.3736  0.0361  0.5921
12555WAT     H252026   2.630   8.173   5.330 -1.0816 -1.8761 -0.7006
12555WAT    EPW52027   2.632   8.216   5.254 -0.5236  0.0825  0.3412
12556WAT      O52028  -0.864   4.178   8.349  0.1537  0.3172 -0.4632
12556WAT     H152029  -0.812   4.159   8.271  1.9807  2.3052  0.1888
12556WAT     H252030  -0.843   4.107   8.409  1.8552  0.8445 -0.3746
12556WAT    EPW52031  -0.854   4.166   8.347  0.6191  0.6487 -0.3653
12557WAT      O52032  -0.862   4.861   8.357  0.3271 -0.3006  0.1587
12557WAT     H152033  -0.864   4.799   8.429  1.9595 -1.6563 -0.8971
12557WAT     H252034  -0.934   4.834   8.300 -0.2206  0.0456  0.6751
12557WAT    EPW52035  -0.872   4.849   8.359  0.4702 -0.4337  0.0877
12558WAT      O52036   3.873   8.690   6.434  0.5648 -0.2455 -0.0195
12558WAT     H152037   3.942   8.694   6.500 -0.2773  0.7905  0.8264
12558WAT     H252038   3.919   8.701   6.351  1.7911 -2.7470  0.2410
12558WAT    EPW52039   3.888   8.692   6.432  0.6155 -0.4392  0.1266
12559WAT      O52040  -3.916   3.237   6.422  0.3615 -0.6160  0.1644
12559WAT     H152041  -4.000   3.222   6.466 -0.4907 -1.3875 -1.5904
12559WAT     H252042  -3.871   3.152   6.427 -0.2113 -1.0391 -1.3037
12559WAT    EPW52043  -3.922   3.224   6.428  0.1736 -0.7735 -0.2606
12560WAT      O52044   4.795   5.908   6.672  0.3537 -0.6346 -0.4487
12560WAT     H152045   4.707   5.927   6.641 -0.5797 -2.1561  1.1040
12560WAT     H252046   4.832   5.993   6.694 -1.9493 -0.1220  1.9311
12560WAT    EPW52047   4.788   5.921   6.671 -0.0730 -0.7675  0.0699
12561WAT      O52048   4.906   7.465   4.221  0.0320  0.5257 -0.1608
12561WAT     H152049   4.863   7.460   4.306 -1.0330  0.8744 -0.6626
12561WAT     H252050   4.942   7.377   4.207  1.0464  0.7202  1.0539
12561WAT    EPW52051   4.905   7.453   4.230  0.0253  0.5972 -0.0670
12562WAT      O52052   2.063   6.860   7.187 -0.3638  0.6750  0.1382
12562WAT     H152053   2.021   6.882   7.104  1.0043  0.2855 -0.6739
12562WAT     H252054   1.991   6.860   7.250 -1.5170  0.4784 -1.1294
12562WAT    EPW52055   2.048   6.863   7.184 -0.3355  0.5977 -0.1364
12563WAT      O52056   4.266   0.928   8.079  0.9661 -0.2909  0.5096
12563WAT     H152057   4.177   0.897   8.092  0.9071  0.2868  1.5823
12563WAT     H252058   4.259   0.996   8.012  0.5404  0.0210  0.8682
12563WAT    EPW52059   4.254   0.933   8.072  0.9022 -0.1736  0.6981
12564WAT      O52060   4.796   5.892   2.144 -0.0933  0.1806  0.9498
12564WAT     H152061   4.792   5.987   2.132  0.1845  0.0311 -0.6045
12564WAT     H252062   4.888   5.874   2.166  0.9102 -0.0297 -2.7347
12564WAT    EPW52063   4.808   5.902   2.145  0.0758  0.1333  0.2589
12565WAT      O52064   3.797   8.853   2.518 -0.2671  0.1420 -0.2060
12565WAT     H152065   3.802   8.763   2.552  0.4439  0.1951 -0.1653
12565WAT     H252066   3.758   8.843   2.431 -0.2490 -0.2011 -0.1766
12565WAT    EPW52067   3.793   8.840   2.511 -0.1709  0.1035 -0.1967
12566WAT      O52068   5.653   1.076   6.962  0.2667  0.1708  0.3857
12566WAT     H152069   5.602   1.030   7.029  2.5712 -1.8161  0.9092
12566WAT     H252070   5.714   1.130   7.012 -1.1140  2.4473 -0.2364
12566WAT    EPW52071   5.654   1.077   6.978  0.3886  0.2090  0.3726
12567WAT      O52072   5.381   3.395   5.558  0.4139 -0.1126 -0.0863
12567WAT     H152073   5.339   3.355   5.633  0.1072  1.2128  0.4686
12567WAT     H252074   5.450   3.333   5.533  1.6084  0.1580  2.2948
12567WAT    EPW52075   5.385   3.382   5.564  0.5310  0.0978  0.3011
12568WAT      O52076   3.659   0.423   1.895 -0.3956 -0.4833  0.0675
12568WAT     H152077   3.625   0.482   1.962  0.2838  1.6398 -1.3433
12568WAT     H252078   3.704   0.480   1.833 -0.6547 -2.3609 -2.0103
12568WAT    EPW52079   3.660   0.438   1.896 -0.3401 -0.4509 -0.3927
12569WAT      O52080   3.488   6.733   0.516  0.0975 -0.5709 -0.1685
12569WAT     H152081   3.558   6.758   0.456  0.8066 -0.3901  0.7126
12569WAT     H252082   3.480   6.807   0.576 -1.4449 -0.2240 -0.7665
12569WAT    EPW52083   3.496   6.746   0.516 -0.0125 -0.5014 -0.1312
12570WAT      O52084  -4.221   3.285   8.602 -0.8757 -0.2532  0.1324
12570WAT     H152085  -4.270   3.213   8.640 -2.6812 -0.3689 -2.1685
12570WAT     H252086  -4.133   3.250   8.590  0.3202  0.2471  5.1726
12570WAT    EPW52087  -4.216   3.271   8.605 -0.9563 -0.2025  0.4935
12571WAT      O52088  -0.957   7.937   8.162  0.5198 -0.2636  0.2018
12571WAT     H152089  -0.874   7.909   8.200  2.9792  1.3198 -3.3844
12571WAT     H252090  -1.013   7.957   8.237  2.4858 -3.5546  2.8066
12571WAT    EPW52091  -0.953   7.936   8.177  1.1035 -0.4885  0.0730
12572WAT      O52092  -3.861   7.990   4.645 -0.3086  1.0572 -0.1195
12572WAT     H152093  -3.892   7.911   4.690  0.5806 -0.4559 -2.0041
12572WAT     H252094  -3.939   8.046   4.640 -1.5592 -0.6102 -0.5802
12572WAT    EPW52095  -3.876   7.987   4.650 -0.3563  0.6378 -0.4287
12573WAT      O52096  -0.722   8.698   8.580  0.2597  0.2105  0.2148
12573WAT     H152097  -0.735   8.788   8.609 -1.8556 -0.3059  1.0894
12573WAT     H252098  -0.722   8.646   8.660 -1.4823 -0.8131 -0.3651
12573WAT    EPW52099  -0.724   8.703   8.594 -0.2490  0.0076  0.2537
12574WAT      O52100  -3.555   3.952   6.711  0.7454 -0.2296  0.3884
12574WAT     H152101  -3.528   4.034   6.669 -0.5101 -0.3005 -0.6260
12574WAT     H252102  -3.590   3.979   6.796  0.6376  0.2585  0.1924
12574WAT    EPW52103  -3.556   3.966   6.717  0.5655 -0.1745  0.2289
12575WAT      O52104  -2.990   8.988   0.512 -0.5600 -0.5113 -1.0735
12575WAT     H152105  -2.924   9.018   0.575 -1.1865 -0.3917 -0.4709
12575WAT     H252106  -3.073   8.991   0.560 -0.8611 -1.6896 -1.4900
12575WAT    EPW52107  -2.992   8.993   0.527 -0.6824 -0.6514 -1.0489
12576WAT      O52108   3.125   9.157   5.555  0.5792  0.3371  0.3097
12576WAT     H152109   3.108   9.177   5.647 -1.4679 -2.6950  0.7315
12576WAT     H252110   3.039   9.161   5.513  1.4093  1.1805 -1.4142
12576WAT    EPW52111   3.112   9.160   5.562  0.4187  0.0486  0.1378
12577WAT      O52112   5.243   3.417   0.965  0.4883  0.3355  0.0359
12577WAT     H152113   5.277   3.328   0.967  0.1472  0.1928 -0.3497
12577WAT     H252114   5.173   3.417   1.030 -0.2945 -0.0091 -0.7894
12577WAT    EPW52115   5.238   3.405   0.974  0.3402  0.2713 -0.1238
12578WAT      O52116  -2.225   6.084   7.761 -0.2258  0.2441 -0.1998
12578WAT     H152117  -2.275   6.008   7.731 -0.7221  0.4173  0.1631
12578WAT     H252118  -2.226   6.078   7.856 -0.4597  0.8178 -0.1592
12578WAT    EPW52119  -2.232   6.073   7.769 -0.3220  0.3426 -0.1466
12579WAT      O52120  -2.434   9.939   1.006  0.1305  0.6201  0.7368
12579WAT     H152121  -2.523   9.943   0.970  0.2139 -3.5682 -0.3870
12579WAT     H252122  -2.377   9.948   0.930  0.4438 -1.8805  0.5959
12579WAT    EPW52123  -2.438   9.941   0.991  0.1829 -0.2618  0.5700
12580WAT      O52124  -1.856   9.850   6.561 -0.1864 -0.7582 -0.2060
12580WAT     H152125  -1.778   9.870   6.613 -0.0551 -0.2336 -0.5986
12580WAT     H252126  -1.848   9.756   6.542 -1.1061 -1.4096  2.1566
12580WAT    EPW52127  -1.844   9.840   6.566 -0.2904 -0.7749  0.0536
12581WAT      O52128   0.610   5.548   6.490 -0.4967  0.2900 -0.5327
12581WAT     H152129   0.586   5.640   6.486 -0.9107  0.4396  2.8947
12581WAT     H252130   0.623   5.530   6.583 -0.1836 -3.0684 -1.1009
12581WAT    EPW52131   0.609   5.557   6.502 -0.5100 -0.1330 -0.1559
12582WAT      O52132  -4.842   9.862   5.395 -0.3856  0.0235  0.6318
12582WAT     H152133  -4.765   9.870   5.340  1.2000  0.7271  2.8378
12582WAT     H252134  -4.883   9.780   5.368 -1.6838  1.8299 -3.8573
12582WAT    EPW52135  -4.837   9.852   5.384 -0.3476  0.3548  0.3307
12583WAT      O52136   4.077   5.370   7.229 -0.2045  0.7945 -0.4747
12583WAT     H152137   4.042   5.456   7.249  0.7497  1.5105 -1.7516
12583WAT     H252138   4.040   5.348   7.143  2.9478  1.9710 -2.3093
12583WAT    EPW52139   4.068   5.378   7.220  0.3371  1.0443 -0.8850
12584WAT      O52140   5.417   5.891   3.630 -0.3996  0.3050 -0.4775
12584WAT     H152141   5.453   5.829   3.694  1.5061  0.6019 -1.1827
12584WAT     H252142   5.369   5.838   3.568 -0.0143 -0.2960 -0.2667
12584WAT    EPW52143   5.416   5.876   3.630 -0.0975  0.2649 -0.5428
12585WAT      O52144   0.834   8.563   1.466 -0.3051 -0.2249 -0.0411
12585WAT     H152145   0.879   8.494   1.417  0.0067  0.9711 -1.5468
12585WAT     H252146   0.852   8.544   1.558  2.9672 -0.0909 -0.5190
12585WAT    EPW52147   0.842   8.552   1.471  0.1676 -0.0491 -0.3027
12586WAT      O52148   0.518   7.451   0.039 -0.6349  0.4772  0.2091
12586WAT     H152149   0.533   7.528  -0.017  0.1609  1.1389  1.2871
12586WAT     H252150   0.485   7.487   0.121 -1.8539 -0.4859  0.1681
12586WAT    EPW52151   0.516   7.466   0.042 -0.6907  0.4373  0.3459
12587WAT      O52152   3.033   9.018   4.902 -0.0260 -0.4398  0.2439
12587WAT     H152153   3.091   8.942   4.911  0.1571 -0.0972  2.5079
12587WAT     H252154   3.092   9.091   4.882 -0.0042 -0.5453 -0.0967
12587WAT    EPW52155   3.048   9.018   4.900  0.0010 -0.4086  0.4976
12588WAT      O52156   9.148   0.183   0.739  0.4035  0.6342  0.0607
12588WAT     H152157   9.106   0.104   0.773  0.3494  0.2834 -0.8071
12588WAT     H252158   9.077   0.247   0.732  0.4392  0.7520  0.7174
12588WAT    EPW52159   9.133   0.181   0.742  0.4010  0.6035  0.0329
12589WAT      O52160   1.360   5.755   7.526  0.4299  0.0964  0.3895
12589WAT     H152161   1.271   5.731   7.549 -0.4172  2.7910  0.1680
12589WAT     H252162   1.397   5.674   7.488 -2.7455 -0.4425 -1.9936
12589WAT    EPW52163   1.353   5.741   7.524 -0.1007  0.3808  0.0463
12590WAT      O52164  -1.213   6.314   6.152 -0.1344 -0.6222  0.0977
12590WAT     H152165  -1.136   6.361   6.183 -0.3856  0.6713 -1.1235
12590WAT     H252166  -1.265   6.297   6.231  2.3780 -3.5808  1.3275
12590WAT    EPW52167  -1.210   6.318   6.166  0.1638 -0.8416  0.0987
12591WAT      O52168   2.087   3.017   0.271  0.2803  0.5694  0.1231
12591WAT     H152169   2.152   2.984   0.209 -0.3342  0.4481 -0.4590
12591WAT     H252170   2.071   3.107   0.243  0.6465  0.8085  0.6472
12591WAT    EPW52171   2.094   3.025   0.259  0.2475  0.5850  0.1155
12592WAT      O52172  -0.509   0.444   6.493 -0.7343  0.3355  0.0878
12592WAT     H152173  -0.453   0.463   6.568 -0.0019 -0.4859 -0.2266
12592WAT     H252174  -0.585   0.501   6.503 -2.0212 -1.6349  2.9666
12592WAT    EPW52175  -0.512   0.454   6.504 -0.8074 -0.0327  0.4261
12593WAT      O52176   1.352   0.733   1.588  0.1309 -0.1585  0.8379
12593WAT     H152177   1.394   0.789   1.523  0.4576  1.8647  2.6377
12593WAT     H252178   1.289   0.681   1.539  2.6186 -1.2085 -1.5419
12593WAT    EPW52179   1.350   0.734   1.573  0.5021 -0.0301  0.7613
12594WAT      O52180  -2.749   2.000   3.554  0.2000  0.4215  0.3523
12594WAT     H152181  -2.716   2.046   3.631 -0.3602  2.6521 -0.6587
12594WAT     H252182  -2.671   1.969   3.508  0.6196  0.6416  0.9119
12594WAT    EPW52183  -2.735   2.002   3.558  0.1814  0.7447  0.2928
12595WAT      O52184   5.694   3.013   2.682  0.4953  0.3237  0.3483
12595WAT     H152185   5.623   3.078   2.680  0.1672 -0.0347  0.2746
12595WAT     H252186   5.649   2.929   2.683  0.7532  0.0099  4.6260
12595WAT    EPW52187   5.679   3.011   2.682  0.4861  0.2351  0.9028
12596WAT      O52188  -0.368   6.639   4.234 -0.4526  0.5999  0.0966
12596WAT     H152189  -0.276   6.646   4.207 -0.4133  1.9388  0.4590
12596WAT     H252190  -0.392   6.729   4.259 -1.6940  0.1675  0.5501
12596WAT    EPW52191  -0.359   6.652   4.234 -0.6112  0.7195  0.2041
12597WAT      O52192   5.406   2.086   3.516  0.4144  0.1355  0.3859
12597WAT     H152193   5.467   2.039   3.459  1.0845  0.2333  1.0061
12597WAT     H252194   5.402   2.174   3.479 -2.0067 -0.7366 -1.6824
12597WAT    EPW52195   5.414   2.091   3.503  0.1833  0.0334  0.1949
12598WAT      O52196   0.912   7.213   2.940 -0.3237  0.2525  0.4343
12598WAT     H152197   0.895   7.253   3.025  0.4027  2.6690 -0.4477
12598WAT     H252198   0.866   7.271   2.878  0.8469 -0.2499 -0.9473
12598WAT    EPW52199   0.904   7.226   2.943 -0.0736  0.5050  0.1357
12599WAT      O52200   1.090   2.398   3.554 -0.7533  0.0696  0.3978
12599WAT     H152201   1.124   2.487   3.559 -2.4925  0.7715  0.7170
12599WAT     H252202   1.077   2.372   3.645  2.4729 -1.7231  0.4901
12599WAT    EPW52203   1.093   2.406   3.566 -0.5572 -0.0743  0.4520
12600WAT      O52204   6.524   0.802   3.725 -0.6589 -0.5043  0.1933
12600WAT     H152205   6.509   0.749   3.646  0.5325 -1.7694  0.7665
12600WAT     H252206   6.549   0.738   3.792 -1.3907  0.5764  1.5430
12600WAT    EPW52207   6.525   0.787   3.723 -0.5980 -0.5287  0.4469
12601WAT      O52208   6.678   7.882   0.376 -0.1311  0.3579 -0.0422
12601WAT     H152209   6.620   7.869   0.451 -0.2272  0.6288 -0.0710
12601WAT     H252210   6.661   7.971   0.347  0.6546  0.6082  0.2490
12601WAT    EPW52211   6.668   7.892   0.382 -0.0401  0.4265 -0.0076
12602WAT      O52212   9.543   1.348  -0.017  1.0528 -0.1344 -0.1660
12602WAT     H152213   9.516   1.424   0.034 -0.4183 -1.3626  0.9889
12602WAT     H252214   9.630   1.327   0.014  0.4226 -0.4832  1.4415
12602WAT    EPW52215   9.551   1.356  -0.006  0.7753 -0.3424  0.1983
12603WAT      O52216   5.085   1.878   2.955 -0.8415 -0.3065 -0.1035
12603WAT     H152217   5.000   1.912   2.982 -1.0632  0.9045 -2.1231
12603WAT     H252218   5.064   1.804   2.898 -0.4265 -1.7267  1.4992
12603WAT    EPW52219   5.071   1.872   2.951 -0.8159 -0.3341 -0.1585
12604WAT      O52220   3.592   5.152   1.665 -0.0242  0.5942  0.4374
12604WAT     H152221   3.541   5.232   1.677 -3.2579 -1.5586  2.7011
12604WAT     H252222   3.678   5.173   1.703  0.3449  3.7628 -1.7269
12604WAT    EPW52223   3.597   5.166   1.672 -0.4020  0.7281  0.4504
12605WAT      O52224   1.848   9.823   8.314  0.4374  0.2736 -0.1782
12605WAT     H152225   1.886   9.818   8.403  1.0229 -0.6039 -0.4617
12605WAT     H252226   1.845   9.732   8.285 -0.7092  0.4600 -0.6805
12605WAT    EPW52227   1.853   9.810   8.322  0.3633  0.1822 -0.2818
12606WAT      O52228   7.636   2.374   2.767  0.6753  0.1615  0.5143
12606WAT     H152229   7.554   2.419   2.786  0.9750  0.6325  0.7133
12606WAT     H252230   7.617   2.281   2.782  0.2543  0.2966  0.8182
12606WAT    EPW52231   7.623   2.367   2.772  0.6592  0.2414  0.5805
12607WAT      O52232   2.555   3.336   5.602  0.1693  0.5659 -0.5684
12607WAT     H152233   2.578   3.276   5.672 -1.2154 -0.2346 -0.7720
12607WAT     H252234   2.523   3.414   5.647 -0.2888  0.2275 -0.3033
12607WAT    EPW52235   2.554   3.339   5.617 -0.0738  0.4157 -0.5603
12608WAT      O52236   8.283   2.437   1.374  0.1492  0.5534 -0.5042
12608WAT     H152237   8.254   2.515   1.422  0.4155 -0.1300  0.8012
12608WAT     H252238   8.344   2.471   1.308 -0.0748  1.4994 -0.2363
12608WAT    EPW52239   8.287   2.452   1.372  0.1550  0.5881 -0.2967
12609WAT      O52240   2.611   7.620   0.198 -0.4942  0.3067  0.6530
12609WAT     H152241   2.648   7.535   0.223  2.3252  1.4924  0.8601
12609WAT     H252242   2.595   7.613   0.104  0.5305 -0.2213  0.4976
12609WAT    EPW52243   2.614   7.607   0.189  0.0129  0.3934  0.6598
12610WAT      O52244   6.417   1.182   4.840 -0.2783  0.4742  0.1103
12610WAT     H152245   6.424   1.217   4.929 -1.7396 -0.0416  0.4512
12610WAT     H252246   6.492   1.221   4.793  1.0016  0.1090  1.7525
12610WAT    EPW52247   6.428   1.192   4.846 -0.3021  0.3580  0.3717
12611WAT      O52248  -1.057   3.452   6.950  0.0367  0.1785  0.3384
12611WAT     H152249  -1.150   3.449   6.974  0.2742 -2.8036  1.2068
12611WAT     H252250  -1.031   3.543   6.968 -2.0733  0.4524  2.5979
12611WAT    EPW52251  -1.066   3.464   6.955 -0.2102 -0.1786  0.7508
12612WAT      O52252   6.213   5.420   4.539  0.0612 -0.3000  0.1931
12612WAT     H152253   6.187   5.484   4.604  1.0165  0.6636 -0.3229
12612WAT     H252254   6.291   5.378   4.576  1.2335  0.9692 -0.6849
12612WAT    EPW52255   6.220   5.423   4.552  0.3419 -0.0055  0.0093
12613WAT      O52256  -0.116   9.773   1.701 -0.0944  0.4604 -0.1734
12613WAT     H152257  -0.154   9.692   1.668  1.5687 -0.9383  1.1527
12613WAT     H252258  -0.171   9.796   1.776  1.2937 -1.3493  1.5116
12613WAT    EPW52259  -0.128   9.765   1.707  0.3080  0.0377  0.2238
12614WAT      O52260  -0.509   6.754   0.782  0.6102  0.3081 -0.0293
12614WAT     H152261  -0.495   6.844   0.812  1.6994  0.7425 -1.6587
12614WAT     H252262  -0.540   6.707   0.859 -1.6685  2.4339  0.4676
12614WAT    EPW52263  -0.511   6.760   0.796  0.4533  0.6459 -0.1787
12615WAT      O52264  -6.485   7.730   7.085  0.0661 -0.8076  0.0698
12615WAT     H152265  -6.565   7.777   7.060  0.0057 -0.5818  0.6592
12615WAT     H252266  -6.506   7.638   7.069  0.3654 -0.6087 -1.5760
12615WAT    EPW52267  -6.499   7.724   7.080  0.0978 -0.7515 -0.0694
12616WAT      O52268  -0.336   4.097   0.602  0.7670  0.5910  0.2666
12616WAT     H152269  -0.328   4.005   0.577  1.4604  0.4864  0.8336
12616WAT     H252270  -0.430   4.115   0.598  0.7169  0.1408 -0.8150
12616WAT    EPW52271  -0.348   4.087   0.598  0.8518  0.5178  0.1987
12617WAT      O52272  -2.364   4.976   1.710  0.6223 -0.4848 -0.0918
12617WAT     H152273  -2.304   5.006   1.778  0.7211  0.0924 -0.4258
12617WAT     H252274  -2.358   4.881   1.713 -0.2423 -0.5153  1.4886
12617WAT    EPW52275  -2.355   4.968   1.720  0.5213 -0.4127  0.0726
12618WAT      O52276  -0.291   8.232   7.060 -0.1607  0.2669  0.0541
12618WAT     H152277  -0.368   8.287   7.042 -0.6852 -0.4093  0.2098
12618WAT     H252278  -0.313   8.147   7.022  0.1026 -0.2128  0.9429
12618WAT    EPW52279  -0.304   8.228   7.053 -0.1952  0.1144  0.1919
12619WAT      O52280   0.021   1.559   5.689 -0.0929 -0.0869  0.8249
12619WAT     H152281  -0.047   1.622   5.665  0.6871  1.0056  1.3929
12619WAT     H252282  -0.017   1.474   5.666 -0.7984  0.6298 -0.8704
12619WAT    EPW52283   0.007   1.556   5.683 -0.0831  0.1517  0.6762
12620WAT      O52284  -0.992  10.099   3.496  0.0756 -0.3782  0.3790
12620WAT     H152285  -0.899  10.082   3.481  0.3602  0.8700  0.6216
12620WAT     H252286  -1.037  10.058   3.422  0.9323  0.1451 -0.4467
12620WAT    EPW52287  -0.986  10.092   3.484  0.2261 -0.1445  0.3022
12621WAT      O52288  -0.197   6.934   0.393 -0.1292  0.5239 -0.0852
12621WAT     H152289  -0.111   6.903   0.420  0.3643  1.8924 -0.0170
12621WAT     H252290  -0.255   6.859   0.408  0.8232 -0.0192  1.0311
12621WAT    EPW52291  -0.193   6.920   0.398  0.0615  0.6328  0.0710
12622WAT      O52292   9.863   0.193   1.618 -0.2824  0.0918  0.1361
12622WAT     H152293   9.899   0.107   1.592 -0.2577  0.1910 -0.1656
12622WAT     H252294   9.863   0.191   1.713 -1.8763 -0.9105  0.1557
12622WAT    EPW52295   9.868   0.181   1.627 -0.4892 -0.0274  0.0989
12623WAT      O52296   2.209   8.486   4.658 -0.3711 -0.3576 -0.5716
12623WAT     H152297   2.218   8.425   4.731 -0.9243  1.3597  1.0044
12623WAT     H252298   2.126   8.531   4.674 -1.1306 -0.7739 -2.9600
12623WAT    EPW52299   2.199   8.484   4.670 -0.5442 -0.1860 -0.6788
12624WAT      O52300  -2.301   5.743   2.397 -0.0252 -1.0307 -0.0480
12624WAT     H152301  -2.322   5.719   2.487 -0.6195  0.0620  0.1273
12624WAT     H252302  -2.375   5.796   2.368  0.5598 -0.6227 -0.8715
12624WAT    EPW52303  -2.313   5.747   2.405 -0.0263 -0.8328 -0.1334
12625WAT      O52304   0.248   5.835   0.728 -0.4607 -0.1597  0.2562
12625WAT     H152305   0.279   5.762   0.781 -0.8654 -0.1817  0.4700
12625WAT     H252306   0.323   5.861   0.675  0.1799  0.3458  1.3846
12625WAT    EPW52307   0.262   5.829   0.728 -0.4296 -0.0961  0.4332
12626WAT      O52308  -5.677   8.488   4.917  0.5837  0.7145  0.3809
12626WAT     H152309  -5.589   8.465   4.887  0.0559 -2.1527  0.8405
12626WAT     H252310  -5.729   8.492   4.836  0.5619 -0.3945  0.3305
12626WAT    EPW52311  -5.672   8.486   4.902  0.5112  0.1898  0.4349
12627WAT      O52312  -1.495   7.495   5.448 -0.1484  0.1688 -0.7631
12627WAT     H152313  -1.536   7.517   5.532  2.9453  0.5389  0.7842
12627WAT     H252314  -1.506   7.573   5.394  2.5835  2.1779  1.3585
12627WAT    EPW52315  -1.502   7.508   5.452  0.6199  0.4826 -0.2792
12628WAT      O52316   9.440   1.848   0.278 -0.1654  0.3471  0.2259
12628WAT     H152317   9.423   1.754   0.273 -1.2806  0.5342  0.2535
12628WAT     H252318   9.382   1.886   0.211 -0.9611  1.1510  1.3443
12628WAT    EPW52319   9.430   1.840   0.268 -0.4177  0.4778  0.3771
12629WAT      O52320  -2.935   6.360   3.096  0.5268  0.2204 -0.4157
12629WAT     H152321  -2.924   6.453   3.077  0.9954  0.9973  3.0050
12629WAT     H252322  -2.853   6.335   3.140 -1.1207 -0.6056  2.4866
12629WAT    EPW52323  -2.923   6.369   3.100  0.3713  0.2139  0.4183
12630WAT      O52324  -0.451   4.726   1.872 -0.4607  0.2263  0.4628
12630WAT     H152325  -0.448   4.638   1.833  1.5807  0.4193  0.0675
12630WAT     H252326  -0.468   4.710   1.964  1.4709 -0.7586  0.7070
12630WAT    EPW52327  -0.453   4.712   1.879  0.0633  0.1221  0.4429
12631WAT      O52328   1.442   4.917   1.689 -0.1439 -0.2510  0.3251
12631WAT     H152329   1.503   4.985   1.717 -0.0912  0.0579 -0.5138
12631WAT     H252330   1.379   4.909   1.761  1.6842 -1.6037  1.8934
12631WAT    EPW52331   1.442   4.925   1.702  0.1041 -0.3886  0.4213
12632WAT      O52332   1.594   0.605   0.683  0.3301  0.4029 -0.1664
12632WAT     H152333   1.672   0.585   0.632 -0.7951 -0.8893 -1.4863
12632WAT     H252334   1.525   0.551   0.643 -1.4679  2.2377  0.2641
12632WAT    EPW52335   1.595   0.596   0.671 -0.0554  0.4745 -0.2837
12633WAT      O52336   4.002   3.714   2.457 -0.5223  0.0842  0.1716
12633WAT     H152337   4.094   3.699   2.433 -0.2808  0.8512  0.5733
12633WAT     H252338   3.957   3.633   2.432  0.6940 -1.3293  2.2043
12633WAT    EPW52339   4.008   3.701   2.451 -0.3297 -0.0012  0.4927
12634WAT      O52340  -0.192   2.688   6.715  0.5606  0.0634  0.1833
12634WAT     H152341  -0.194   2.598   6.684  0.4282  0.7655 -2.0578
12634WAT     H252342  -0.100   2.713   6.709  0.4686  0.3459 -0.0608
12634WAT    EPW52343  -0.180   2.680   6.710  0.5310  0.1932 -0.1445
12635WAT      O52344   2.882   7.027   5.532 -0.3395  0.1790 -0.2888
12635WAT     H152345   2.949   7.028   5.463 -3.1106  0.4202 -3.2330
12635WAT     H252346   2.925   7.064   5.609  3.2338 -0.9511 -1.5692
12635WAT    EPW52347   2.896   7.032   5.533 -0.2337  0.0618 -0.8461
12636WAT      O52348   1.479   1.459   1.336 -0.4099  0.2371  0.5526
12636WAT     H152349   1.410   1.401   1.370  0.0301  0.2717  1.5553
12636WAT     H252350   1.557   1.403   1.335 -0.8171 -0.4847 -2.6642
12636WAT    EPW52351   1.480   1.444   1.341 -0.4056  0.1465  0.2605
12637WAT      O52352  -4.485   3.150   7.440 -0.2615 -0.3861  0.1325
12637WAT     H152353  -4.524   3.205   7.372 -0.7738 -0.4265  0.3841
12637WAT     H252354  -4.393   3.143   7.416 -0.8301 -2.3351 -1.9225
12637WAT    EPW52355  -4.478   3.156   7.428 -0.4041 -0.6485 -0.1051
12638WAT      O52356  -4.606  10.003   2.073  0.1518  0.0124  0.2410
12638WAT     H152357  -4.587  10.073   2.136 -1.6063  0.3898  0.4114
12638WAT     H252358  -4.697   9.978   2.092  0.6015 -2.0528 -0.0896
12638WAT    EPW52359  -4.616  10.009   2.084 -0.0207 -0.2103  0.2198
12639WAT      O52360   5.219   3.060   6.912 -0.6250 -0.1129  0.3974
12639WAT     H152361   5.312   3.062   6.938 -0.7793  1.6523  0.9648
12639WAT     H252362   5.175   3.014   6.983 -0.0326 -2.3361 -0.5911
12639WAT    EPW52363   5.226   3.054   6.925 -0.5672 -0.1733  0.3419
12640WAT      O52364   2.222   6.575   1.434  0.1294 -0.1317 -0.2228
12640WAT     H152365   2.131   6.584   1.464  0.8232  0.9442  1.7965
12640WAT     H252366   2.272   6.633   1.492  1.9032  0.6727 -2.4201
12640WAT    EPW52367   2.217   6.583   1.446  0.4549  0.1163 -0.2463
12641WAT      O52368  -1.588   8.397   5.439 -0.1053  0.8705 -0.8472
12641WAT     H152369  -1.662   8.363   5.489  0.0732  0.6155 -0.7513
12641WAT     H252370  -1.627   8.449   5.369 -0.3624  3.6827  1.1953
12641WAT    EPW52371  -1.603   8.400   5.436 -0.1157  1.2078 -0.5653
12642WAT      O52372   7.682   1.223   3.545  0.1344  0.1090 -1.3106
12642WAT     H152373   7.629   1.152   3.508  2.7797 -1.9633 -1.4789
12642WAT     H252374   7.636   1.248   3.624 -1.7866 -0.5844 -2.1420
12642WAT    EPW52375   7.669   1.217   3.550  0.2298 -0.2558 -1.4424
12643WAT      O52376   5.510   5.293   5.871 -0.7203 -0.3516 -0.4326
12643WAT     H152377   5.452   5.367   5.886  0.3826  0.3535  0.5237
12643WAT     H252378   5.461   5.217   5.904 -0.9389  0.2883  0.7927
12643WAT    EPW52379   5.496   5.293   5.878 -0.6037 -0.1743 -0.1450
12644WAT      O52380   1.851   8.869   7.840 -0.2407  0.1851  0.3276
12644WAT     H152381   1.783   8.820   7.884 -0.9994  0.4762 -0.4860
12644WAT     H252382   1.805   8.942   7.798  0.3065 -0.4624 -1.5248
12644WAT    EPW52383   1.836   8.873   7.840 -0.2686  0.1383 -0.0241
12645WAT      O52384   2.675   3.752   2.352  0.2596 -0.3745  0.0806
12645WAT     H152385   2.619   3.735   2.277 -0.2212  1.7034 -0.1014
12645WAT     H252386   2.621   3.807   2.410  1.5911  0.4726  0.5700
12645WAT    EPW52387   2.661   3.757   2.350  0.3718  0.0113  0.1212
12646WAT      O52388  -4.892   2.736   8.203  0.2543  0.9502 -0.2753
12646WAT     H152389  -4.939   2.675   8.146 -0.6445  1.5998 -0.2384
12646WAT     H252390  -4.908   2.705   8.291  1.5615  0.0052 -0.3329
12646WAT    EPW52391  -4.900   2.724   8.207  0.3083  0.9112 -0.2780
12647WAT      O52392  -1.977   2.183   7.925  0.3569  0.7101  0.0566
12647WAT     H152393  -1.918   2.142   7.862 -0.8032 -0.1679 -0.4931
12647WAT     H252394  -2.048   2.120   7.936 -1.6227  2.6375 -0.9734
12647WAT    EPW52395  -1.979   2.169   7.918 -0.0572  0.8484 -0.1519
12648WAT      O52396  -4.918   9.669   7.102  0.6222 -0.4114  0.6212
12648WAT     H152397  -4.904   9.671   7.197 -2.1229  1.1085  1.0924
12648WAT     H252398  -5.010   9.692   7.091  1.1609  0.6991 -2.5094
12648WAT    EPW52399  -4.928   9.672   7.113  0.3314 -0.0644  0.2704
12649WAT      O52400  -0.587   7.069   6.264 -0.2139 -0.1056 -0.3337
12649WAT     H152401  -0.637   7.007   6.210  0.5794  0.6597 -2.0290
12649WAT     H252402  -0.558   7.136   6.202 -1.3652  2.2182  1.4704
12649WAT    EPW52403  -0.590   7.070   6.249 -0.2611  0.3018 -0.3192
12650WAT      O52404   2.905   6.360   2.851  0.1159  0.9452  0.1076
12650WAT     H152405   2.875   6.316   2.772 -1.8856  2.1889  0.1193
12650WAT     H252406   2.862   6.445   2.849  1.9848  1.9957  1.3005
12650WAT    EPW52407   2.896   6.366   2.840  0.0985  1.2479  0.2666
12651WAT      O52408  -2.063   6.403   2.131 -0.7539 -0.1093 -0.6318
12651WAT     H152409  -2.052   6.317   2.090  0.3065 -0.1364 -0.3185
12651WAT     H252410  -1.988   6.454   2.101  0.8919 -0.5605  2.2774
12651WAT    EPW52411  -2.052   6.398   2.122 -0.3970 -0.1724 -0.2067
12652WAT      O52412  -4.207   9.158   5.544 -0.4081  0.0382  0.2687
12652WAT     H152413  -4.120   9.120   5.556 -1.1099 -1.4142  1.0391
12652WAT     H252414  -4.223   9.206   5.626 -0.2860  0.3806  0.0900
12652WAT    EPW52415  -4.198   9.159   5.557 -0.4845 -0.1082  0.3467
12653WAT      O52416   0.577   5.751   8.036  0.0204  0.4482 -0.1580
12653WAT     H152417   0.585   5.681   7.970  0.1327  1.0945 -0.8442
12653WAT     H252418   0.561   5.830   7.984 -2.8531  0.5284  0.6974
12653WAT    EPW52419   0.576   5.752   8.020 -0.3438  0.5441 -0.1359
12654WAT      O52420   7.077   1.303   1.416  0.4768  0.0238 -0.1029
12654WAT     H152421   7.033   1.317   1.500  0.1854 -0.6041 -0.1497
12654WAT     H252422   7.166   1.275   1.440  0.2508 -0.6189  0.0064
12654WAT    EPW52423   7.083   1.301   1.430  0.4086 -0.1438 -0.0947
12655WAT      O52424  -4.372   4.695   7.850  0.8864 -0.2683 -0.5453
12655WAT     H152425  -4.454   4.647   7.866  1.8548 -1.7711  0.0392
12655WAT     H252426  -4.307   4.627   7.834  2.4690  0.8097  0.9860
12655WAT    EPW52427  -4.375   4.680   7.850  1.2228 -0.3242 -0.2663
12656WAT      O52428   0.444   8.496   7.944 -0.4215 -0.7745 -0.4848
12656WAT     H152429   0.391   8.568   7.978  2.3373  1.2979 -0.2388
12656WAT     H252430   0.450   8.434   8.017 -0.5860  0.0712  0.2577
12656WAT    EPW52431   0.438   8.497   7.958 -0.0793 -0.3896 -0.3545
12657WAT      O52432  -2.110   5.393   5.820  0.4728  0.3675  0.5430
12657WAT     H152433  -2.077   5.303   5.817  0.6330  0.4265  0.4983
12657WAT     H252434  -2.042   5.442   5.866  1.5422  0.9346 -1.4854
12657WAT    EPW52435  -2.096   5.387   5.825  0.6349  0.4501  0.2697
12658WAT      O52436   0.656   0.911   3.964  1.0499  0.2766 -0.0932
12658WAT     H152437   0.570   0.899   3.924 -0.2264  2.6319  1.6929
12658WAT     H252438   0.669   0.832   4.016 -0.1542 -0.0288 -0.2228
12658WAT    EPW52439   0.646   0.899   3.965  0.7227  0.5470  0.1253
12659WAT      O52440   2.009   9.533   4.037  0.1715 -0.4988 -0.0557
12659WAT     H152441   1.987   9.462   3.977  0.1233  0.2693 -0.9667
12659WAT     H252442   1.960   9.608   4.004 -1.2558 -0.4471  1.9706
12659WAT    EPW52443   2.000   9.534   4.025 -0.0231 -0.3905  0.0913
12660WAT      O52444   2.038   6.369   8.820 -0.0198 -1.0960  0.2093
12660WAT     H152445   2.075   6.388   8.906 -1.9244 -2.4707  1.4146
12660WAT     H252446   2.112   6.376   8.759  1.2518  0.4476  1.8521
12660WAT    EPW52447   2.052   6.373   8.823 -0.1032 -1.0738  0.5851
12661WAT      O52448   4.408   8.276   1.127  0.1443  0.3016 -0.3536
12661WAT     H152449   4.483   8.220   1.146  0.2752  0.2321 -1.0580
12661WAT     H252450   4.336   8.237   1.177  1.1809  2.0837  2.7936
12661WAT    EPW52451   4.409   8.264   1.136  0.2985  0.5279 -0.0314
12662WAT      O52452   8.080   2.918   0.796  0.5435  0.1950  0.0570
12662WAT     H152453   8.088   2.847   0.859 -2.3383  0.7567  1.2174
12662WAT     H252454   8.114   2.995   0.841  1.3847  0.0320 -0.2826
12662WAT    EPW52455   8.086   2.919   0.810  0.2742  0.2475  0.1653
12663WAT      O52456  -2.157   2.167   4.292  0.1940  0.3877 -0.1548
12663WAT     H152457  -2.104   2.114   4.352  0.0672  2.2183  1.6785
12663WAT     H252458  -2.144   2.257   4.321  0.3848  1.4272 -3.1481
12663WAT    EPW52459  -2.148   2.172   4.303  0.2024  0.7662 -0.3078
12664WAT      O52460  -0.897   5.454   2.932 -0.2647  0.3024 -0.0146
12664WAT     H152461  -0.919   5.430   2.842 -3.0608 -0.6501  0.8181
12664WAT     H252462  -0.905   5.549   2.934 -0.4240  0.3090 -0.7053
12664WAT    EPW52463  -0.901   5.463   2.920 -0.6545  0.1779  0.0041
12665WAT      O52464   1.488   4.520   3.653 -0.4993 -0.1995 -0.1670
12665WAT     H152465   1.507   4.449   3.714 -0.5407 -0.0948 -0.0302
12665WAT     H252466   1.437   4.583   3.704  1.9640  1.3219  0.6431
12665WAT    EPW52467   1.484   4.519   3.668 -0.1799  0.0148 -0.0422
12666WAT      O52468   0.944   2.957   8.891 -0.4779  1.2249  0.3282
12666WAT     H152469   0.898   3.027   8.845 -0.1794  2.3611  1.6715
12666WAT     H252470   1.028   2.950   8.847 -1.1451  0.5246 -0.8732
12666WAT    EPW52471   0.949   2.965   8.879 -0.5265  1.2823  0.3467
12667WAT      O52472   3.319   7.471   2.188 -0.8354 -0.3835  0.3451
12667WAT     H152473   3.401   7.435   2.153 -1.1916 -0.9255  0.0455
12667WAT     H252474   3.336   7.564   2.197  0.1811 -0.6319  1.3021
12667WAT    EPW52475   3.332   7.478   2.185 -0.7483 -0.4876  0.4318
12668WAT      O52476  -0.834   3.548   1.494 -0.3783 -0.6334 -0.1501
12668WAT     H152477  -0.739   3.556   1.490 -0.4562 -0.0219 -3.1984
12668WAT     H252478  -0.865   3.635   1.517 -0.2266 -0.1671 -1.6066
12668WAT    EPW52479  -0.825   3.561   1.496 -0.3685 -0.4913 -0.7443
12669WAT      O52480   5.235   9.476   3.036 -0.0841  0.6433  0.8948
12669WAT     H152481   5.278   9.555   3.004 -0.7311  0.5561 -0.2568
12669WAT     H252482   5.195   9.502   3.118 -0.0814  1.4477  0.6526
12669WAT    EPW52483   5.236   9.490   3.042 -0.1690  0.7381  0.7111
12670WAT      O52484  -1.483   5.827   0.854 -0.1289 -0.1412 -0.4464
12670WAT     H152485  -1.473   5.820   0.949 -0.5443 -0.7532 -0.4410
12670WAT     H252486  -1.394   5.817   0.821 -0.1738 -1.7231 -0.2007
12670WAT    EPW52487  -1.470   5.825   0.863 -0.1896 -0.4306 -0.4133
12671WAT      O52488   4.482   4.213   7.799 -0.5107 -0.8921  0.4365
12671WAT     H152489   4.538   4.282   7.764 -1.7343 -0.3627 -0.5720
12671WAT     H252490   4.406   4.260   7.834 -0.8111 -1.6582  0.8353
12671WAT    EPW52491   4.479   4.228   7.799 -0.7117 -0.9234  0.3562
12672WAT      O52492  -6.693   7.208   7.631  0.4729 -0.8842 -0.2229
12672WAT     H152493  -6.617   7.151   7.637 -0.3296 -2.2253 -1.8744
12672WAT     H252494  -6.691   7.240   7.540 -0.6148 -0.5089 -0.1276
12672WAT    EPW52495  -6.683   7.205   7.620  0.2236 -1.0116 -0.4282
12673WAT      O52496   2.545   1.542   4.877  0.4420 -0.0047  0.7604
12673WAT     H152497   2.585   1.471   4.828 -0.1413 -1.3818  2.1902
12673WAT     H252498   2.528   1.610   4.812  0.2777 -1.4849 -0.8005
12673WAT    EPW52499   2.548   1.542   4.862  0.3433 -0.3815  0.7429
12674WAT      O52500  -1.635   6.096   0.298 -0.4219 -0.8911 -0.3887
12674WAT     H152501  -1.559   6.154   0.303 -1.8237  1.1699 -1.1545
12674WAT     H252502  -1.670   6.111   0.210 -2.3295 -0.8665  0.3157
12674WAT    EPW52503  -1.630   6.106   0.287 -0.8584 -0.6161 -0.3968
12675WAT      O52504   2.612   8.161   4.907 -0.2291 -0.2022 -0.2351
12675WAT     H152505   2.613   8.247   4.867  2.1211  0.4002  0.9233
12675WAT     H252506   2.538   8.163   4.968  0.2194  1.2721  0.2970
12675WAT    EPW52507   2.603   8.172   4.910  0.1401  0.0720 -0.0122
12676WAT      O52508   0.708   5.645   3.005  0.0878 -0.0725  0.2191
12676WAT     H152509   0.751   5.639   2.920 -0.8594  1.2078 -0.3787
12676WAT     H252510   0.615   5.645   2.986 -0.1366  1.2690  1.1526
12676WAT    EPW52511   0.702   5.644   2.991 -0.0667  0.2730  0.2633
12677WAT      O52512  -6.236   7.405   8.040  0.2979 -0.3897  0.3040
12677WAT     H152513  -6.194   7.320   8.051 -1.7224 -1.2870  1.6754
12677WAT     H252514  -6.178   7.467   8.085 -0.5691 -1.8539  3.7609
12677WAT    EPW52515  -6.223   7.402   8.048 -0.0830 -0.7012  0.9408
12678WAT      O52516   6.953   2.686   0.536 -0.5180 -0.5940 -0.0818
12678WAT     H152517   7.028   2.706   0.480 -0.8248  0.6620 -0.0723
12678WAT     H252518   6.923   2.600   0.506  1.6480 -1.7085  0.7161
12678WAT    EPW52519   6.959   2.677   0.525 -0.2728 -0.5754  0.0247
12679WAT      O52520   7.023   2.614   2.182 -0.0670  0.3723  0.4166
12679WAT     H152521   7.065   2.528   2.188  0.3166  0.3627 -1.6027
12679WAT     H252522   7.095   2.676   2.190 -0.2558  0.5123  1.1569
12679WAT    EPW52523   7.038   2.611   2.184 -0.0412  0.3895  0.2481
12680WAT      O52524   2.401   1.173   8.694 -0.3615  0.1897 -0.1877
12680WAT     H152525   2.312   1.140   8.680 -0.7107  1.5183 -1.3630
12680WAT     H252526   2.447   1.154   8.612  0.7811 -1.3667  0.7480
12680WAT    EPW52527   2.395   1.166   8.681 -0.2568  0.1596 -0.2193
12681WAT      O52528   0.275   1.357   4.066  0.5181 -0.7684  0.5045
12681WAT     H152529   0.316   1.424   4.122 -0.7872 -0.4965  1.1712
12681WAT     H252530   0.182   1.377   4.069  0.3377 -1.0976 -1.3371
12681WAT    EPW52531   0.268   1.369   4.073  0.3222 -0.7759  0.3495
12682WAT      O52532   0.245   2.080   3.242  0.3749 -0.3953  0.0896
12682WAT     H152533   0.253   2.153   3.180 -1.6586 -1.7126 -1.8498
12682WAT     H252534   0.232   2.123   3.327  2.7494  1.4593 -0.3798
12682WAT    EPW52535   0.244   2.096   3.245  0.4199 -0.3245 -0.2280
12683WAT      O52536   7.847   2.195   2.181 -0.2353 -0.2701  0.5280
12683WAT     H152537   7.935   2.227   2.161  0.4425  0.4431  3.9500
12683WAT     H252538   7.806   2.267   2.229 -3.0790 -0.2610 -1.6625
12683WAT    EPW52539   7.853   2.209   2.185 -0.5209 -0.1748  0.6905
12684WAT      O52540  -0.567   4.958   2.988  0.1273  0.8070 -0.2581
12684WAT     H152541  -0.603   4.872   2.970  2.1392 -0.2046  0.2547
12684WAT     H252542  -0.584   5.009   2.909 -1.3753  0.0769 -0.4416
12684WAT    EPW52543  -0.574   4.954   2.975  0.1945  0.5772 -0.2147
12685WAT      O52544  -3.872  10.299   8.778  0.2702 -0.1928 -0.0371
12685WAT     H152545  -3.822  10.250   8.713 -1.5769 -1.4500 -0.5916
12685WAT     H252546  -3.884  10.385   8.738  1.0632 -0.2239 -0.3585
12685WAT    EPW52547  -3.867  10.304   8.764  0.1311 -0.3624 -0.1526
12686WAT      O52548  -6.688   5.489   7.778  0.0710 -0.3567 -0.2434
12686WAT     H152549  -6.611   5.543   7.795  1.4056 -1.2503 -2.8069
12686WAT     H252550  -6.754   5.522   7.838  1.7490  2.0130  0.4631
12686WAT    EPW52551  -6.686   5.500   7.788  0.4683 -0.1619 -0.4880
12687WAT      O52552   7.064   0.312   1.546 -0.4513  0.1598 -0.3308
12687WAT     H152553   6.980   0.359   1.546 -0.0078  1.0185 -2.0521
12687WAT     H252554   7.114   0.352   1.475  1.6051 -0.0255  0.9233
12687WAT    EPW52555   7.059   0.324   1.537 -0.1216  0.2486 -0.3924
12688WAT      O52556   1.944   5.347   1.949  0.2055  0.0413 -0.5107
12688WAT     H152557   1.990   5.283   1.895  0.8169  0.5011 -0.5433
12688WAT     H252558   1.970   5.432   1.913 -0.9226  0.3101 -0.7334
12688WAT    EPW52559   1.954   5.350   1.937  0.1374  0.1373 -0.5444
12689WAT      O52560  -3.086   6.076   1.627  0.4235  0.3260 -0.1643
12689WAT     H152561  -3.064   6.019   1.701 -1.3565 -1.6307 -1.0485
12689WAT     H252562  -3.092   6.016   1.552 -2.2877  1.4995 -1.0077
12689WAT    EPW52563  -3.084   6.060   1.627 -0.1688  0.2227 -0.3922
12690WAT      O52564  -5.471   9.753   7.466  0.4122 -0.2644 -0.6016
12690WAT     H152565  -5.446   9.842   7.442  0.9293  0.2754  1.7353
12690WAT     H252566  -5.566   9.751   7.452  0.5176  0.3514 -1.5100
12690WAT    EPW52567  -5.480   9.765   7.461  0.4942 -0.1121 -0.4129
12691WAT      O52568  -0.523   0.281   4.388  0.2552 -1.1171  0.1776
12691WAT     H152569  -0.430   0.269   4.369  0.7096  1.2232  0.5720
12691WAT     H252570  -0.529   0.274   4.484  1.0269  3.3756  0.7947
12691WAT    EPW52571  -0.511   0.278   4.398  0.4170 -0.2159  0.3111
12692WAT      O52572   8.287   3.363   0.411  0.3549 -0.1109  0.4018
12692WAT     H152573   8.275   3.366   0.506 -0.1511  2.3710  0.3158
12692WAT     H252574   8.199   3.346   0.376  0.2907  0.2976  0.3549
12692WAT    EPW52575   8.274   3.361   0.419  0.2794  0.2704  0.3843
12693WAT      O52576  -3.989   1.678   8.671  0.1161 -0.0139  0.2423
12693WAT     H152577  -4.006   1.735   8.746  0.2178  0.7074 -0.2722
12693WAT     H252578  -3.957   1.596   8.710 -2.1389 -0.5571  1.1257
12693WAT    EPW52579  -3.987   1.675   8.686 -0.1680  0.0096  0.2909
12694WAT      O52580   7.543   2.182   3.401  0.7750 -0.2133 -0.0864
12694WAT     H152581   7.582   2.208   3.317 -0.2507 -1.5173 -1.0200
12694WAT     H252582   7.467   2.239   3.410  0.3819 -0.6621 -0.5016
12694WAT    EPW52583   7.538   2.193   3.391  0.5877 -0.4444 -0.2643
12695WAT      O52584  -5.044   9.646   3.654  0.7218 -0.6147  0.4181
12695WAT     H152585  -5.063   9.680   3.742  0.2765  1.1435 -0.3042
12695WAT     H252586  -4.950   9.629   3.655  0.8521  0.0566  1.0482
12695WAT    EPW52587  -5.034   9.648   3.666  0.6804 -0.2942  0.4058
12696WAT      O52588   2.886   4.679   2.097 -0.2701  0.3543  0.4384
12696WAT     H152589   2.917   4.681   2.187 -0.6705 -1.6018  0.6718
12696WAT     H252590   2.832   4.599   2.092  0.4467 -0.0597 -1.7289
12696WAT    EPW52591   2.883   4.669   2.108 -0.2284  0.0417  0.1833
12697WAT      O52592   7.309   6.392   0.900 -0.5253  0.4760 -0.7942
12697WAT     H152593   7.288   6.442   0.822 -0.7254  0.4722 -0.7425
12697WAT     H252594   7.236   6.331   0.911  0.0507 -0.3238 -1.2622
12697WAT    EPW52595   7.297   6.390   0.891 -0.4756  0.3700 -0.8491
12698WAT      O52596  -6.185   9.202   7.342 -0.1353  0.2005 -0.3847
12698WAT     H152597  -6.241   9.237   7.272 -1.4210  0.0203  0.5234
12698WAT     H252598  -6.174   9.109   7.319 -1.6199 -0.1700  0.2932
12698WAT    EPW52599  -6.191   9.194   7.329 -0.5009  0.1278 -0.1755
12699WAT      O52600   4.268   1.495   5.892 -0.0318  0.3787 -0.5891
12699WAT     H152601   4.211   1.561   5.852 -3.2778 -0.1143  2.6839
12699WAT     H252602   4.273   1.426   5.827 -0.4766  1.8186 -2.2488
12699WAT    EPW52603   4.261   1.495   5.878 -0.5186  0.5036 -0.3765
12700WAT      O52604  -2.830   5.418   8.650  0.0362  0.1233 -0.1264
12700WAT     H152605  -2.736   5.404   8.640 -0.0813 -0.3564 -0.6397
12700WAT     H252606  -2.840   5.448   8.740  0.7079  0.4566 -0.1538
12700WAT    EPW52607  -2.819   5.420   8.661  0.1093  0.1042 -0.1984
12701WAT      O52608   0.487   8.543   7.558 -0.2140  0.4400  0.4207
12701WAT     H152609   0.399   8.572   7.532  0.7199  1.3940 -1.9701
12701WAT     H252610   0.504   8.467   7.502 -0.6307 -1.7803  3.0662
12701WAT    EPW52611   0.477   8.537   7.547 -0.1458  0.2732  0.4542
12702WAT      O52612  -3.852   1.224   7.921  0.0728 -0.0235 -0.3310
12702WAT     H152613  -3.839   1.133   7.895  0.9810 -0.1443  0.4996
12702WAT     H252614  -3.786   1.240   7.988  0.3995  1.4659 -0.9655
12702WAT    EPW52615  -3.842   1.214   7.926  0.2357  0.1570 -0.3049
12703WAT      O52616   0.639   1.019   7.363 -0.4636  0.2783  0.4818
12703WAT     H152617   0.629   0.966   7.284  2.3935  1.6703 -0.9624
12703WAT     H252618   0.713   0.978   7.409 -0.7816  0.6938  1.3768
12703WAT    EPW52619   0.648   1.006   7.359 -0.1287  0.5167  0.4096
12704WAT      O52620  -2.040   8.284   5.414  0.2045  0.1897  0.3536
12704WAT     H152621  -2.022   8.301   5.506  1.0752 -2.0786  0.6743
12704WAT     H252622  -2.123   8.235   5.415  1.6010 -2.3407  0.2793
12704WAT    EPW52623  -2.049   8.280   5.427  0.5035 -0.4435  0.3862
12705WAT      O52624   6.578   5.549   1.557 -0.0478  0.0318 -0.1293
12705WAT     H152625   6.546   5.490   1.489  0.8030 -0.8893  0.2406
12705WAT     H252626   6.606   5.627   1.510 -1.9782  0.5314 -0.5406
12705WAT    EPW52627   6.577   5.551   1.542 -0.1903 -0.0238 -0.1348
12706WAT      O52628  -4.545   4.794   8.299  0.7093 -0.6459 -0.3427
12706WAT     H152629  -4.581   4.809   8.387  0.9675  0.5727 -0.4352
12706WAT     H252630  -4.539   4.698   8.293  1.8898 -0.7350  1.4478
12706WAT    EPW52631  -4.549   4.783   8.310  0.8991 -0.4971 -0.1187
12707WAT      O52632   6.631   1.581   3.757 -0.4689 -0.3411 -0.0183
12707WAT     H152633   6.549   1.628   3.741  0.8054  1.3335 -2.0961
12707WAT     H252634   6.617   1.495   3.717 -2.3753 -1.4139  2.7073
12707WAT    EPW52635   6.618   1.576   3.749 -0.5524 -0.2617  0.0671
12708WAT      O52636   5.645   1.147   2.487 -0.7824  0.6006 -0.6996
12708WAT     H152637   5.575   1.211   2.493  1.3193  2.9781  0.0551
12708WAT     H252638   5.670   1.146   2.394 -0.0281  1.8601 -0.5328
12708WAT    EPW52639   5.639   1.155   2.475 -0.4058  1.0803 -0.5780
12709WAT      O52640  -0.363   0.573   8.718  0.1866  0.4102  0.2903
12709WAT     H152641  -0.358   0.648   8.658  0.7046  0.5552  0.5056
12709WAT     H252642  -0.352   0.497   8.661  0.9792  0.5606  0.2271
12709WAT    EPW52643  -0.361   0.573   8.702  0.3595  0.4492  0.3104
12710WAT      O52644   1.447   2.680   8.872  0.3708  0.1933 -0.1223
12710WAT     H152645   1.458   2.585   8.883  2.5216  0.2714 -1.2210
12710WAT     H252646   1.511   2.719   8.931  0.7043  0.9220 -0.9484
12710WAT    EPW52647   1.457   2.672   8.881  0.6984  0.2997 -0.3762
12711WAT      O52648   5.757   6.137   0.304  0.5302 -0.2044 -0.0361
12711WAT     H152649   5.692   6.206   0.287  1.1355  0.5802  0.7618
12711WAT     H252650   5.838   6.171   0.267  1.3096  0.4654  2.1702
12711WAT    EPW52651   5.759   6.151   0.297  0.7129 -0.0129  0.3602
12712WAT      O52652  -1.303   5.880   2.594  0.5149  0.4683 -0.5081
12712WAT     H152653  -1.376   5.830   2.557  1.6344 -0.9485 -0.8950
12712WAT     H252654  -1.236   5.814   2.613  1.0437  1.4984  1.4906
12712WAT    EPW52655  -1.304   5.865   2.592  0.7323  0.4172 -0.2955
12713WAT      O52656   6.842   9.251   0.372 -0.2217  0.2749  0.4389
12713WAT     H152657   6.769   9.310   0.391 -0.0599  0.2716  1.0856
12713WAT     H252658   6.819   9.211   0.288 -0.9495  0.2960  0.6227
12713WAT    EPW52659   6.829   9.254   0.363 -0.2964  0.2770  0.5484
12714WAT      O52660  -0.993   0.978   3.356 -0.2526 -0.5523  0.0080
12714WAT     H152661  -0.991   0.890   3.320  2.5622 -1.2407  1.6334
12714WAT     H252662  -1.045   1.028   3.292 -1.4763 -3.2006 -1.2192
12714WAT    EPW52663  -1.000   0.973   3.343 -0.0427 -0.9924  0.0606
12715WAT      O52664   3.835   0.308   1.418 -0.8481 -0.2455  0.0530
12715WAT     H152665   3.888   0.280   1.343 -2.4972 -2.2052 -0.4577
12715WAT     H252666   3.836   0.404   1.413  0.7696 -0.2844 -1.2307
12715WAT    EPW52667   3.842   0.317   1.408 -0.8521 -0.5091 -0.1836
12716WAT      O52668   1.694   4.006   5.845 -0.1524  0.5560  0.4624
12716WAT     H152669   1.749   3.945   5.796  1.6963  0.4534  2.5292
12716WAT     H252670   1.694   3.973   5.934  0.1471  3.0190  1.4638
12716WAT    EPW52671   1.701   3.994   5.850  0.1309  0.8671  0.8671
12717WAT      O52672   4.641   7.316   3.473  0.1383 -0.6511  0.1172
12717WAT     H152673   4.683   7.285   3.393  1.1724  1.9598 -0.4349
12717WAT     H252674   4.714   7.332   3.534 -0.0637  2.4289 -0.3127
12717WAT    EPW52675   4.656   7.314   3.471  0.2480  0.0997 -0.0123
12718WAT      O52676   2.709   7.723   0.761  0.6936  0.2681  0.3793
12718WAT     H152677   2.643   7.669   0.805  0.1337 -0.7672 -1.6059
12718WAT     H252678   2.792   7.682   0.784  0.2847 -1.4923 -1.0054
12718WAT    EPW52679   2.711   7.710   0.770  0.5659 -0.1009 -0.0652
12719WAT      O52680  -5.512   5.213   8.260 -0.6636  0.3008  0.8491
12719WAT     H152681  -5.459   5.224   8.339  2.0329  1.6831 -1.0246
12719WAT     H252682  -5.515   5.300   8.221 -1.3934 -0.4771 -0.9159
12719WAT    EPW52683  -5.505   5.226   8.265 -0.4044  0.3805  0.3691
12720WAT      O52684   0.018   3.159   6.305  0.3292  0.3505  0.6991
12720WAT     H152685   0.062   3.077   6.285  1.4516  0.2428  3.1915
12720WAT     H252686   0.040   3.217   6.232 -0.5046 -1.5083 -1.1216
12720WAT    EPW52687   0.027   3.156   6.293  0.3673  0.0911  0.7877
12721WAT      O52688   2.426   8.860   3.023 -0.4273  0.3110 -0.6290
12721WAT     H152689   2.520   8.848   3.031 -0.1445 -0.7993 -4.0979
12721WAT     H252690   2.391   8.772   3.012 -1.3611  0.8911 -2.9305
12721WAT    EPW52691   2.434   8.847   3.023 -0.5131  0.2408 -1.3901
12722WAT      O52692   2.701   8.732   3.479 -0.6893 -0.5926 -0.2541
12722WAT     H152693   2.628   8.758   3.536  0.3579  1.4662  0.2555
12722WAT     H252694   2.760   8.683   3.536  0.0815  0.9780  0.3726
12722WAT    EPW52695   2.699   8.729   3.494 -0.4497 -0.1140 -0.1043
12723WAT      O52696  -1.614   8.847   1.847 -0.0664 -0.4917 -0.0692
12723WAT     H152697  -1.632   8.788   1.774 -1.3401 -0.3688  0.1221
12723WAT     H252698  -1.700   8.864   1.885  0.7419 -2.5038  3.0090
12723WAT    EPW52699  -1.628   8.841   1.842 -0.1278 -0.7410  0.3620
12724WAT      O52700   5.263   2.005   3.163 -0.5189  0.4060 -0.5613
12724WAT     H152701   5.213   1.948   3.222 -0.7751  0.9434 -0.2515
12724WAT     H252702   5.217   2.000   3.079  1.3592 -2.5205 -1.5889
12724WAT    EPW52703   5.250   1.997   3.160 -0.3052  0.0909 -0.6559
12725WAT      O52704   0.058   9.343   1.471 -0.2901 -0.4626 -0.0136
12725WAT     H152705   0.033   9.287   1.398  1.0067 -1.9950  0.6437
12725WAT     H252706   0.095   9.282   1.536 -1.5562  0.8040  2.0084
12725WAT    EPW52707   0.059   9.327   1.470 -0.2861 -0.4973  0.3398
12726WAT      O52708   1.934   0.908   2.915  0.6861  0.0655  0.0887
12726WAT     H152709   1.999   0.977   2.928  1.1382 -0.4041  0.3839
12726WAT     H252710   1.859   0.952   2.876  0.8261  0.7874  0.6161
12726WAT    EPW52711   1.933   0.923   2.912  0.7642  0.0988  0.1972
12727WAT      O52712   0.428  10.188   1.051 -0.5232  0.2509 -0.2465
12727WAT     H152713   0.372  10.114   1.030 -0.1804 -0.3137  0.7336
12727WAT     H252714   0.427  10.243   0.973 -0.4189 -1.0170 -1.1651
12727WAT    EPW52715   0.420  10.186   1.038 -0.4642  0.0095 -0.2384
12728WAT      O52716   2.301   9.724   3.066  0.2434  1.4979  0.4710
12728WAT     H152717   2.243   9.725   3.142  0.9956 -1.3174  1.1875
12728WAT     H252718   2.389   9.716   3.103  0.5811 -0.4496 -0.6498
12728WAT    EPW52719   2.305   9.723   3.081  0.3872  0.8698  0.4176
12729WAT      O52720   0.912   7.498   6.997 -0.1243  0.1577 -1.0312
12729WAT     H152721   0.987   7.536   7.043 -0.4322  1.2209 -1.3736
12729WAT     H252722   0.851   7.571   6.988 -0.8802 -0.5131 -1.4288
12729WAT    EPW52723   0.914   7.513   7.002 -0.2646  0.2096 -1.1289
12730WAT      O52724   1.408   1.348   2.595 -0.3150  0.0906 -0.1004
12730WAT     H152725   1.340   1.370   2.658 -0.0811  0.1557  0.1263
12730WAT     H252726   1.420   1.427   2.543 -1.2455 -0.2705 -0.9169
12730WAT    EPW52727   1.400   1.361   2.596 -0.4068  0.0516 -0.1782
12731WAT      O52728  -4.295   1.793   6.916  0.0177 -0.4782 -0.1565
12731WAT     H152729  -4.286   1.887   6.901  0.9349 -0.7487 -1.4351
12731WAT     H252730  -4.262   1.779   7.005  1.8606  0.1216 -0.7233
12731WAT    EPW52731  -4.290   1.804   6.926  0.3817 -0.4348 -0.3998
12732WAT      O52732   6.623   0.199   6.980  0.1086  0.0121 -0.5789
12732WAT     H152733   6.712   0.228   6.961  0.2327 -0.0411 -0.0831
12732WAT     H252734   6.587   0.175   6.895  0.1654  1.1673 -0.9539
12732WAT    EPW52735   6.630   0.200   6.966  0.1323  0.1575 -0.5629
12733WAT      O52736  -3.322   9.846   4.979 -0.0193  0.0279 -0.1216
12733WAT     H152737  -3.396   9.816   5.031  0.4589  0.9907  1.1633
12733WAT     H252738  -3.302   9.933   5.014  2.0540 -0.4309 -0.0662
12733WAT    EPW52739  -3.329   9.854   4.990  0.3173  0.0949  0.0551
12734WAT      O52740  -0.406   2.975   1.479  0.0193  0.3313  0.1346
12734WAT     H152741  -0.461   3.053   1.472  0.7170  1.1685  2.5860
12734WAT     H252742  -0.321   3.002   1.444  0.2049  0.6708  0.8077
12734WAT    EPW52743  -0.402   2.989   1.474  0.1358  0.4865  0.5467
12735WAT      O52744   0.325   7.038   1.929  0.1324 -0.2548 -0.0002
12735WAT     H152745   0.327   7.000   2.016  2.2102  1.6280  0.8695
12735WAT     H252746   0.292   7.127   1.943  2.5278  0.8174 -0.7405
12735WAT    EPW52747   0.321   7.045   1.942  0.7224  0.1349  0.0168
12736WAT      O52748  -3.042   3.484   6.906  0.1903 -0.2100  0.2062
12736WAT     H152749  -2.995   3.488   6.822 -0.8457  0.1824 -0.3701
12736WAT     H252750  -2.998   3.414   6.954  1.6300  0.4052 -0.1435
12736WAT    EPW52751  -3.030   3.475   6.901  0.2435 -0.0771  0.0839
12737WAT      O52752  -1.705   6.573   8.598  0.2867 -0.3060  0.2487
12737WAT     H152753  -1.669   6.514   8.664 -2.3355  0.1912  2.2751
12737WAT     H252754  -1.654   6.653   8.607 -1.2610  0.4679  3.2009
12737WAT    EPW52755  -1.693   6.576   8.608 -0.2633 -0.1383  0.9055
12738WAT      O52756  -1.275   6.954   3.780 -0.4278 -0.2016  0.7532
12738WAT     H152757  -1.213   6.968   3.709  0.9902  0.6412  2.0944
12738WAT     H252758  -1.353   7.002   3.754  0.3095  0.6357  0.0497
12738WAT    EPW52759  -1.277   6.962   3.768 -0.1436  0.0200  0.8373
12739WAT      O52760   5.181  10.131   1.716  0.3419 -0.2917  0.3234
12739WAT     H152761   5.245  10.201   1.727  2.3343 -2.0998  0.8118
12739WAT     H252762   5.097  10.177   1.704  1.6243  2.1460  0.0997
12739WAT    EPW52763   5.178  10.147   1.716  0.7739 -0.2089  0.3583
12740WAT      O52764   0.369   5.768   6.655  0.1996 -0.2575 -0.4833
12740WAT     H152765   0.314   5.823   6.711  1.1781  0.6858 -0.4233
12740WAT     H252766   0.338   5.787   6.566  1.4222  1.4886 -0.5881
12740WAT    EPW52767   0.357   5.778   6.651  0.4900  0.0973 -0.4890
12741WAT      O52768  -1.698   2.777   2.951 -0.1472  0.2322  0.2069
12741WAT     H152769  -1.746   2.803   3.030 -0.6800 -0.1936  0.0293
12741WAT     H252770  -1.764   2.778   2.881  0.0883 -0.3945 -0.0353
12741WAT    EPW52771  -1.713   2.780   2.952 -0.1864  0.0935  0.1515
12742WAT      O52772   0.577   4.797   8.707  0.4295  0.0445 -0.2981
12742WAT     H152773   0.579   4.871   8.646 -0.5212 -1.4932 -2.2904
12742WAT     H252774   0.602   4.835   8.791 -0.3960  2.7107 -1.1618
12742WAT    EPW52775   0.580   4.812   8.710  0.1953  0.1934 -0.6747
12743WAT      O52776  -0.203   0.788   5.483  0.1823 -0.3215 -0.1458
12743WAT     H152777  -0.139   0.770   5.415  0.5133 -0.3124  0.1611
12743WAT     H252778  -0.275   0.832   5.437  1.4509  1.9674 -0.1268
12743WAT    EPW52779  -0.204   0.792   5.468  0.3933 -0.0184 -0.1030
12744WAT      O52780   6.016   2.564   4.223 -0.2053  0.1947 -0.2820
12744WAT     H152781   6.023   2.659   4.214  0.3711  0.4241  2.0853
12744WAT     H252782   6.104   2.532   4.205  0.4640  0.4802  2.1231
12744WAT    EPW52783   6.029   2.573   4.219 -0.0412  0.2626  0.3474
12745WAT      O52784  -6.558   6.894   7.864 -0.2011 -0.5393 -0.0114
12745WAT     H152785  -6.638   6.857   7.827  0.2164 -3.1616  1.4104
12745WAT     H252786  -6.536   6.968   7.807 -2.4412 -1.0604 -1.6842
12745WAT    EPW52787  -6.565   6.899   7.852 -0.4416 -0.9539 -0.0446
12746WAT      O52788   5.327   1.494   1.390  0.1363 -0.4495  0.2943
12746WAT     H152789   5.236   1.495   1.421  0.6411  1.0223  1.9138
12746WAT     H252790   5.333   1.417   1.333 -1.4154 -2.1804  2.3338
12746WAT    EPW52791   5.316   1.484   1.387 -0.0019 -0.4837  0.7769
12747WAT      O52792   1.871   2.231   1.121 -0.1570 -0.0710  0.0048
12747WAT     H152793   1.950   2.223   1.174  0.1359 -0.2019 -0.4441
12747WAT     H252794   1.904   2.243   1.032 -0.6383  0.8619 -0.0485
12747WAT    EPW52795   1.886   2.231   1.116 -0.1819  0.0347 -0.0614
12748WAT      O52796  -0.602   1.662   8.889 -0.0843  0.0643  0.4064
12748WAT     H152797  -0.517   1.674   8.847  0.1260 -0.5593  0.6340
12748WAT     H252798  -0.614   1.567   8.890 -0.6063  0.1299  0.7328
12748WAT    EPW52799  -0.593   1.651   8.883 -0.1254 -0.0093  0.4797
12749WAT      O52800   4.247   4.100   1.538  0.3547  0.0349  0.3162
12749WAT     H152801   4.198   4.025   1.573 -0.5954  0.7056  0.4690
12749WAT     H252802   4.183   4.171   1.537  1.0724  0.6792 -0.4268
12749WAT    EPW52803   4.232   4.099   1.543  0.3240  0.2081  0.2384
12750WAT      O52804  -1.073   3.682   2.666 -0.4476  0.4877 -0.2779
12750WAT     H152805  -1.010   3.621   2.704  0.1440  1.0338 -0.3485
12750WAT     H252806  -1.108   3.730   2.741 -0.2276  0.6832 -0.2954
12750WAT    EPW52807  -1.069   3.681   2.681 -0.3406  0.5856 -0.2894
12751WAT      O52808  -2.646   7.099   0.897 -0.1752 -0.0870 -0.5134
12751WAT     H152809  -2.671   7.149   0.819 -0.6569 -0.1517 -0.4063
12751WAT     H252810  -2.711   7.029   0.902  0.6755 -0.9215 -0.8329
12751WAT    EPW52811  -2.658   7.096   0.887 -0.1265 -0.2058 -0.5414
12752WAT      O52812   2.708   4.108   2.602 -0.4952  0.3149  0.9376
12752WAT     H152813   2.769   4.144   2.666 -1.0928  3.2662  0.0197
12752WAT     H252814   2.705   4.175   2.533 -3.2437 -0.6649 -0.0018
12752WAT    EPW52815   2.716   4.121   2.601 -0.9365  0.5751  0.6926
12753WAT      O52816  -1.534   6.256   4.532  0.5596 -0.3324 -0.2723
12753WAT     H152817  -1.549   6.313   4.607 -0.2989 -1.4634  0.4555
12753WAT     H252818  -1.440   6.240   4.533  0.7979  0.9437 -0.4210
12753WAT    EPW52819  -1.524   6.261   4.542  0.4778 -0.3133 -0.1957
12754WAT      O52820  -4.324   7.451   6.140  0.5830 -0.3272 -0.1578
12754WAT     H152821  -4.236   7.429   6.170  0.0318 -0.3364  1.5879
12754WAT     H252822  -4.336   7.398   6.061  1.0119 -2.8498  1.3383
12754WAT    EPW52823  -4.314   7.441   6.134  0.5667 -0.6611  0.2699
12755WAT      O52824  -1.621   5.766   2.815 -0.8229 -0.2006  0.0763
12755WAT     H152825  -1.600   5.673   2.803 -0.8174 -0.1519 -0.3009
12755WAT     H252826  -1.677   5.788   2.740  0.7694  0.5907 -0.9470
12755WAT    EPW52827  -1.626   5.757   2.803 -0.6121 -0.0899 -0.1084
12756WAT      O52828   4.842   4.929   5.007  0.2350 -0.1763 -1.2268
12756WAT     H152829   4.932   4.962   5.001 -0.3465  2.2572  1.4959
12756WAT     H252830   4.828   4.913   5.100 -1.8503 -1.5831 -1.7014
12756WAT    EPW52831   4.852   4.931   5.018 -0.1171 -0.0410 -0.9303
12757WAT      O52832  -2.041   4.659   8.137 -0.2999  0.0936  0.8621
12757WAT     H152833  -2.051   4.600   8.063  0.7592 -0.5335  1.1973
12757WAT     H252834  -2.116   4.718   8.132  0.3976  0.8815 -1.4473
12757WAT    EPW52835  -2.052   4.659   8.127 -0.0682  0.1147  0.6018
12758WAT      O52836   2.388  10.387   2.906 -0.4420  0.2149  0.0378
12758WAT     H152837   2.402  10.313   2.847 -3.7570  0.0331 -0.7345
12758WAT     H252838   2.394  10.349   2.994 -1.5528 -0.9123 -0.3432
12758WAT    EPW52839   2.390  10.372   2.910 -1.0257  0.0423 -0.1143
12759WAT      O52840  -1.022   2.451   2.421 -0.9551 -0.7147 -0.4982
12759WAT     H152841  -0.996   2.471   2.331 -3.2772  0.6854 -0.9577
12759WAT     H252842  -0.993   2.361   2.435  1.8034 -0.1044 -1.6656
12759WAT    EPW52843  -1.015   2.442   2.411 -0.8976 -0.4495 -0.7128
12760WAT      O52844   1.475   5.382   4.601  0.4829 -0.2902  0.7309
12760WAT     H152845   1.513   5.320   4.664  2.0746 -0.5900 -0.4458
12760WAT     H252846   1.514   5.466   4.625  1.2387 -0.4375  0.0755
12760WAT    EPW52847   1.485   5.385   4.612  0.7926 -0.3490  0.4892
12761WAT      O52848  -3.754   8.800   4.943 -0.7866  0.1535 -0.1139
12761WAT     H152849  -3.677   8.854   4.954 -1.4922  1.2316 -0.3119
12761WAT     H252850  -3.802   8.809   5.025  0.1678 -2.0140  0.7693
12761WAT    EPW52851  -3.750   8.808   4.955 -0.7538  0.0100 -0.0236
12762WAT      O52852   1.639   1.196   1.865  0.4705 -0.3611 -0.4162
12762WAT     H152853   1.659   1.141   1.941  1.7182 -0.3302 -0.6983
12762WAT     H252854   1.713   1.183   1.806  0.2352  0.7564 -0.9823
12762WAT    EPW52855   1.651   1.187   1.867  0.6041 -0.2096 -0.5281
12763WAT      O52856   6.795   0.468   5.579  0.1473 -0.1460 -0.3542
12763WAT     H152857   6.713   0.518   5.580 -1.2180 -2.2461  1.3772
12763WAT     H252858   6.774   0.388   5.532  0.3810 -1.8488  2.2469
12763WAT    EPW52859   6.782   0.464   5.573 -0.0021 -0.6476  0.2170
12764WAT      O52860   3.052   7.475   7.473  0.0179  0.6778 -0.0063
12764WAT     H152861   3.138   7.438   7.491  0.8759  3.0142  1.1701
12764WAT     H252862   2.994   7.435   7.539  0.9171  1.3598  1.2552
12764WAT    EPW52863   3.056   7.465   7.484  0.2496  1.0757  0.3152
12765WAT      O52864   1.846   2.763   1.372  0.5225 -0.6515 -0.1688
12765WAT     H152865   1.856   2.711   1.293  0.4877 -2.2931  0.8504
12765WAT     H252866   1.772   2.722   1.418  0.8912 -0.0779  0.9737
12765WAT    EPW52867   1.837   2.751   1.368  0.5665 -0.7923  0.1163
12766WAT      O52868   2.099   1.783   1.091 -0.2647  0.1966 -0.0039
12766WAT     H152869   2.103   1.687   1.086  0.2529  0.0643  2.1781
12766WAT     H252870   2.186   1.812   1.065  0.5734 -0.1384  2.2275
12766WAT    EPW52871   2.111   1.774   1.087 -0.0859  0.1349  0.5782
12767WAT      O52872  -2.133   4.901   7.613 -0.4073  0.4742 -1.0987
12767WAT     H152873  -2.187   4.851   7.552  0.0749 -0.3890 -0.8225
12767WAT     H252874  -2.062   4.842   7.637 -0.3794  0.9391  0.0059
12767WAT    EPW52875  -2.131   4.887   7.608 -0.3401  0.4215 -0.9170
12768WAT      O52876   1.620   9.564   4.533 -0.1130 -0.3121 -0.2171
12768WAT     H152877   1.582   9.517   4.607 -0.4891  1.0314  0.4609
12768WAT     H252878   1.590   9.654   4.543  0.3372  0.0314 -1.6669
12768WAT    EPW52879   1.611   9.570   4.544 -0.1032 -0.0901 -0.3188
12769WAT      O52880  -0.673   5.199   1.910  0.1609  0.8271  0.4740
12769WAT     H152881  -0.752   5.146   1.921  0.4694  0.5009  1.1698
12769WAT     H252882  -0.653   5.192   1.816  0.3259 -0.4898  0.5871
12769WAT    EPW52883  -0.681   5.191   1.899  0.2233  0.6104  0.5807
12770WAT      O52884  -4.045   9.048   2.206  0.0187 -0.0701  0.3266
12770WAT     H152885  -4.062   8.953   2.206 -2.0158  0.2392  0.2864
12770WAT     H252886  -4.099   9.081   2.278  1.0221  1.0289  0.6008
12770WAT    EPW52887  -4.054   9.040   2.216 -0.1171  0.1154  0.3575
12771WAT      O52888   2.195   9.216   0.204  0.3552  0.4785  0.4737
12771WAT     H152889   2.270   9.214   0.265 -0.0495 -0.2379  0.9639
12771WAT     H252890   2.120   9.195   0.259  0.0530 -0.7347 -0.3856
12771WAT    EPW52891   2.195   9.213   0.220  0.2620  0.2241  0.4250
12772WAT      O52892   3.010   2.626   0.328 -0.9989 -0.8940  0.2174
12772WAT     H152893   2.941   2.580   0.377 -0.4481 -1.5085  0.4378
12772WAT     H252894   2.963   2.673   0.259 -1.6986 -0.7892  0.7533
12772WAT    EPW52895   2.995   2.626   0.326 -1.0185 -0.9612  0.3172
12773WAT      O52896   3.888   7.240   0.299 -0.3576  0.0177 -0.0945
12773WAT     H152897   3.969   7.278   0.264  0.0908 -0.4454  0.4320
12773WAT     H252898   3.882   7.276   0.388  1.4218 -3.0254  1.3993
12773WAT    EPW52899   3.898   7.250   0.306 -0.0638 -0.4447  0.1720
12774WAT      O52900   3.055   3.895   3.863 -0.0020 -0.1197  0.0327
12774WAT     H152901   3.141   3.882   3.902  0.3004 -1.5421 -1.0301
12774WAT     H252902   3.057   3.985   3.830  1.1097 -0.1698 -0.0639
12774WAT    EPW52903   3.066   3.905   3.864  0.1844 -0.3139 -0.1202
12775WAT      O52904   3.354   1.384   8.811 -0.5098  0.0297  0.7945
12775WAT     H152905   3.422   1.322   8.837 -0.9456 -1.3304 -1.0951
12775WAT     H252906   3.350   1.447   8.883  2.1081 -0.3486  1.3677
12775WAT    EPW52907   3.362   1.384   8.824 -0.2220 -0.1996  0.6208
12776WAT      O52908   1.456   9.289   8.080 -0.8389  0.6351  0.1896
12776WAT     H152909   1.509   9.276   8.001 -0.6785 -1.1900  0.5419
12776WAT     H252910   1.369   9.258   8.055 -1.0533  1.0454  0.4217
12776WAT    EPW52911   1.452   9.283   8.066 -0.8461  0.4487  0.2670
12777WAT      O52912   2.464   3.235   6.920  0.1433 -0.3048 -0.3139
12777WAT     H152913   2.548   3.267   6.953 -0.6646  1.4685  0.1895
12777WAT     H252914   2.470   3.242   6.825 -0.1781  2.0393 -0.2247
12777WAT    EPW52915   2.476   3.240   6.912 -0.0056  0.2383 -0.2358
12778WAT      O52916   4.118   9.754   2.673 -0.0285 -0.4305  0.3646
12778WAT     H152917   4.186   9.690   2.654 -0.4214 -1.6145  2.6098
12778WAT     H252918   4.080   9.775   2.588  2.9577  0.1547 -0.9517
12778WAT    EPW52919   4.122   9.749   2.660  0.3135 -0.5093  0.4872
12779WAT      O52920  -3.303   5.594   4.099  0.3584  0.3973 -0.1528
12779WAT     H152921  -3.366   5.587   4.028 -0.5027  2.1949  0.3790
12779WAT     H252922  -3.256   5.675   4.082 -0.9022  1.7135  2.0658
12779WAT    EPW52923  -3.305   5.604   4.088  0.0786  0.8080  0.2100
12780WAT      O52924  -2.180   2.791   7.849 -0.6905  0.1295  0.2330
12780WAT     H152925  -2.101   2.748   7.880 -0.8851 -0.6075 -0.2851
12780WAT     H252926  -2.195   2.862   7.912  0.3754  0.2757  0.3267
12780WAT    EPW52927  -2.172   2.795   7.862 -0.5755  0.0516  0.1769
12781WAT      O52928   4.611   4.983   0.103 -0.8283  0.0673 -0.2129
12781WAT     H152929   4.651   4.974   0.016 -1.7769  1.1646 -0.7832
12781WAT     H252930   4.657   5.057   0.143  0.6632 -1.3584  0.8714
12781WAT    EPW52931   4.623   4.991   0.097 -0.7567  0.0238 -0.1451
12782WAT      O52932   1.474   1.506   8.774  0.7560 -0.2723 -0.2998
12782WAT     H152933   1.461   1.562   8.698  3.3883  0.2064 -0.4957
12782WAT     H252934   1.458   1.564   8.849 -0.0518 -0.2558 -0.4757
12782WAT    EPW52935   1.470   1.521   8.774  0.9966 -0.2069 -0.3490
12783WAT      O52936  -1.819   4.005   8.984  0.5576  0.5905 -0.1716
12783WAT     H152937  -1.875   3.995   8.907 -0.8969 -0.2134  0.9298
12783WAT     H252938  -1.760   4.077   8.962  0.6144 -0.0342 -2.2655
12783WAT    EPW52939  -1.818   4.013   8.971  0.3732  0.4020 -0.3023
12784WAT      O52940  -4.820   7.558   4.909 -0.4534  1.0555  0.2101
12784WAT     H152941  -4.908   7.541   4.943  0.3200  1.6694  2.8142
12784WAT     H252942  -4.799   7.481   4.856 -0.6268 -1.8087  3.8518
12784WAT    EPW52943  -4.828   7.545   4.907 -0.3743  0.7586  1.0338
12785WAT      O52944   2.570   9.389   4.315  0.0650 -0.3162 -0.4282
12785WAT     H152945   2.653   9.424   4.349 -0.4821 -0.3714  0.9835
12785WAT     H252946   2.580   9.294   4.321  0.7010 -0.4289 -2.2725
12785WAT    EPW52947   2.583   9.381   4.320  0.0768 -0.3386 -0.4852
12786WAT      O52948   3.006   6.614   8.471  0.5759  0.8700  0.4718
12786WAT     H152949   3.019   6.674   8.398  0.4077 -0.8655 -1.0642
12786WAT     H252950   2.979   6.670   8.543 -0.6043  2.5366 -1.1645
12786WAT    EPW52951   3.004   6.629   8.471  0.3982  0.8609  0.0534
12787WAT      O52952  -1.272   2.611   7.555 -1.1427 -0.5661 -0.1032
12787WAT     H152953  -1.193   2.574   7.595 -0.8290  2.0176  1.9093
12787WAT     H252954  -1.283   2.696   7.597 -3.9656 -0.0129 -1.7007
12787WAT    EPW52955  -1.263   2.617   7.566 -1.4736 -0.1525 -0.0486
12788WAT      O52956  -5.650   8.636   6.725 -0.7432  0.2277 -0.3562
12788WAT     H152957  -5.583   8.571   6.746 -2.5366 -0.8885  2.3039
12788WAT     H252958  -5.624   8.714   6.773 -0.0935  0.6295 -1.3171
12788WAT    EPW52959  -5.638   8.638   6.734 -0.8941  0.1340 -0.1321
12789WAT      O52960   5.220   3.627   3.048 -0.0954  0.1140 -0.1486
12789WAT     H152961   5.172   3.655   2.970 -0.8617  0.9437  0.6054
12789WAT     H252962   5.306   3.669   3.040 -0.2570  0.3933 -0.4204
12789WAT    EPW52963   5.225   3.636   3.037 -0.2177  0.2604 -0.0850
12790WAT      O52964  -4.344   7.602   8.900  0.1114 -0.4126 -0.3130
12790WAT     H152965  -4.277   7.657   8.940 -1.1813  0.5096  0.6609
12790WAT     H252966  -4.412   7.593   8.967 -0.5355 -1.7262 -1.0948
12790WAT    EPW52967  -4.344   7.608   8.914 -0.1442 -0.4642 -0.2875
12791WAT      O52968   5.366   4.674   5.418  0.6196 -0.1391  0.0593
12791WAT     H152969   5.415   4.640   5.343  0.9607  0.4807 -0.0118
12791WAT     H252970   5.433   4.714   5.474  0.3857 -0.7375  0.7761
12791WAT    EPW52971   5.381   4.675   5.416  0.6335 -0.1361  0.1442
12792WAT      O52972  -0.195   4.712   5.679 -0.0775  0.5081 -0.2133
12792WAT     H152973  -0.274   4.660   5.692  1.8710 -2.7599 -0.3123
12792WAT     H252974  -0.214   4.765   5.601 -1.7182 -1.1555 -1.0289
12792WAT    EPW52975  -0.208   4.712   5.670 -0.0369 -0.1423 -0.3340
12793WAT      O52976   2.876   2.734   3.220  0.0780 -0.5428  0.7046
12793WAT     H152977   2.903   2.696   3.303 -1.0691 -1.4600  0.6797
12793WAT     H252978   2.791   2.694   3.201 -0.2355  0.5400 -0.3264
12793WAT    EPW52979   2.868   2.724   3.228 -0.1147 -0.5209  0.5653
12794WAT      O52980   2.906   3.118   4.987 -0.3762 -0.0066 -0.1114
12794WAT     H152981   2.994   3.099   4.956  0.7777  1.1481  2.2202
12794WAT     H252982   2.853   3.121   4.908  2.1013  1.4711 -1.8581
12794WAT    EPW52983   2.911   3.116   4.973  0.1026  0.3406 -0.0343
12795WAT      O52984  -0.458   6.812   7.878 -0.6210  0.3500  1.0017
12795WAT     H152985  -0.388   6.792   7.816 -2.6603  1.3050 -1.8352
12795WAT     H252986  -0.465   6.733   7.932 -1.0462 -2.1948 -2.3997
12795WAT    EPW52987  -0.450   6.799   7.877 -0.9461  0.1404  0.1791
12796WAT      O52988   7.387   3.682   1.238  0.4094 -0.6669  0.3028
12796WAT     H152989   7.355   3.602   1.195  0.4212 -1.8723  2.4097
12796WAT     H252990   7.323   3.699   1.307  1.7300 -0.3200  1.4837
12796WAT    EPW52991   7.375   3.673   1.241  0.5851 -0.7801  0.7364
12797WAT      O52992  -0.946   3.160   8.955  1.0367  0.4464  0.0718
12797WAT     H152993  -0.989   3.220   9.016 -0.4576 -0.8659  0.3661
12797WAT     H252994  -0.981   3.184   8.869  0.0626 -0.3067  0.2511
12797WAT    EPW52995  -0.956   3.171   8.951  0.7111  0.1740  0.1345
12798WAT      O52996  -4.770   0.404   8.262 -0.2102 -0.3309 -0.5220
12798WAT     H152997  -4.821   0.424   8.183 -1.6266  0.0287  0.4617
12798WAT     H252998  -4.814   0.328   8.301  1.4994 -1.6038 -0.9504
12798WAT    EPW52999  -4.783   0.396   8.256 -0.1714 -0.4513 -0.4482
12799WAT      O53000  -4.802   1.119   8.563  0.1380 -0.0701 -0.3237
12799WAT     H153001  -4.769   1.178   8.631 -3.2567  1.1335  0.4577
12799WAT     H253002  -4.786   1.031   8.598 -1.7704  0.5045  2.2888
12799WAT    EPW53003  -4.796   1.115   8.577 -0.5615  0.1644  0.1240
12800WAT      O53004   4.628   3.083   3.133 -0.1315  0.2652 -0.6642
12800WAT     H153005   4.687   3.157   3.118 -1.9475  1.6961 -1.2148
12800WAT     H253006   4.684   3.014   3.168  1.4793  2.2950  1.0774
12800WAT    EPW53007   4.643   3.084   3.136 -0.1585  0.7217 -0.5070
12801WAT      O53008   1.111   2.007   7.337 -0.4904 -0.4817  0.1496
12801WAT     H153009   1.147   2.078   7.284  0.4625 -0.9356  0.1638
12801WAT     H253010   1.166   1.931   7.316  1.0738 -0.2983  3.0465
12801WAT    EPW53011   1.123   2.006   7.327 -0.1584 -0.5174  0.5336
12802WAT      O53012   1.917   0.285   2.211  0.0368  0.2296 -0.6777
12802WAT     H153013   2.001   0.309   2.171  0.9202  3.5842  2.6648
12802WAT     H253014   1.855   0.347   2.174 -0.0793  0.4143 -0.1786
12802WAT    EPW53015   1.920   0.296   2.201  0.1380  0.6964 -0.1709
12803WAT      O53016   2.763   6.746   3.376  0.2480 -0.3727  0.3325
12803WAT     H153017   2.814   6.697   3.441 -0.3428  1.5236  2.3813
12803WAT     H253018   2.674   6.748   3.412 -0.0221  1.0099 -0.3458
12803WAT    EPW53019   2.758   6.740   3.389  0.1346  0.0598  0.5132
12804WAT      O53020   6.896   1.977   5.297 -0.6107  0.7079 -0.2011
12804WAT     H153021   6.922   1.963   5.206  1.0908  0.2610  0.3181
12804WAT     H253022   6.979   1.978   5.346 -1.5695 -1.1047  1.6110
12804WAT    EPW53023   6.911   1.975   5.292 -0.5128  0.4098  0.1063
12805WAT      O53024  -3.220   7.413   5.339 -0.0482  0.0157  0.5505
12805WAT     H153025  -3.233   7.318   5.336  0.1230 -0.0304  1.1152
12805WAT     H253026  -3.287   7.444   5.399 -0.5952  0.3488 -0.2209
12805WAT    EPW53027  -3.230   7.405   5.347 -0.0979  0.0536  0.5231
12806WAT      O53028   8.166   2.766   1.069  0.5579  0.8884  0.0474
12806WAT     H153029   8.182   2.711   0.993  1.7501  0.5531  0.5116
12806WAT     H253030   8.071   2.777   1.072  0.0694 -2.5117  0.8490
12806WAT    EPW53031   8.156   2.760   1.060  0.6509  0.3958  0.2144
12807WAT      O53032   0.674   6.223   8.629 -0.4265  0.3132  0.1209
12807WAT     H153033   0.693   6.278   8.553  1.4948 -0.3160  0.0684
12807WAT     H253034   0.684   6.281   8.704  2.4166 -0.0067  0.1233
12807WAT    EPW53035   0.678   6.238   8.629  0.2019  0.1881  0.1144
12808WAT      O53036   1.199   6.436   0.870 -0.3753  0.4841 -0.3760
12808WAT     H153037   1.212   6.531   0.871 -1.0646  0.6117 -1.7016
12808WAT     H253038   1.106   6.425   0.853 -0.2275 -0.4338 -0.6413
12808WAT    EPW53039   1.189   6.447   0.868 -0.4467  0.3798 -0.5859
12809WAT      O53040  -0.214  10.183   7.534 -0.0229 -0.3276 -0.6939
12809WAT     H153041  -0.182  10.097   7.508 -1.1302 -0.7604 -0.6347
12809WAT     H253042  -0.305  10.169   7.559  0.0918  0.6577  0.3645
12809WAT    EPW53043  -0.222  10.170   7.534 -0.1538 -0.2551 -0.5465
12810WAT      O53044  -0.508   6.579   1.834 -0.0453 -0.1172  0.4000
12810WAT     H153045  -0.592   6.534   1.850 -0.1816 -0.1626 -0.4187
12810WAT     H253046  -0.518   6.618   1.747  1.1040 -0.8688 -0.0914
12810WAT    EPW53047  -0.521   6.578   1.825  0.0883 -0.2224  0.2272
12811WAT      O53048   2.400   3.884   3.018 -0.3125 -0.6299 -0.2012
12811WAT     H153049   2.378   3.821   3.087  0.7943  1.9377  2.7664
12811WAT     H253050   2.381   3.970   3.057  3.1104  1.1360 -1.9161
12811WAT    EPW53051   2.395   3.887   3.032  0.2849 -0.0583 -0.0359
12812WAT      O53052   4.789   6.487   2.713  0.3056  0.6938  0.5193
12812WAT     H153053   4.715   6.544   2.694  1.2073  1.9168  0.5054
12812WAT     H253054   4.750   6.407   2.748 -1.0999  0.5629 -1.2053
12812WAT    EPW53055   4.774   6.484   2.715  0.2391  0.8378  0.2900
12813WAT      O53056   2.766   9.820   6.669 -0.6881  0.0892  0.2898
12813WAT     H153057   2.779   9.847   6.578 -2.3982  0.0518 -0.0000
12813WAT     H253058   2.823   9.744   6.679  0.1812  0.6131 -0.4768
12813WAT    EPW53059   2.775   9.814   6.658 -0.7991  0.1531  0.1507
12814WAT      O53060  -1.986   8.713   2.866 -0.4028 -0.0187  0.0263
12814WAT     H153061  -1.904   8.684   2.827 -0.1081 -0.6452  1.0583
12814WAT     H253062  -1.971   8.804   2.891  0.4884 -0.5189  1.4504
12814WAT    EPW53063  -1.973   8.721   2.864 -0.2464 -0.1669  0.3502
12815WAT      O53064  -2.097   8.658   1.147 -0.2458 -0.6719  0.4425
12815WAT     H153065  -2.028   8.718   1.177 -0.7598  0.7667 -1.0957
12815WAT     H253066  -2.170   8.675   1.206  0.8046 -2.6437  2.4792
12815WAT    EPW53067  -2.097   8.668   1.159 -0.1751 -0.7424  0.5083
12816WAT      O53068  -6.138   7.597   6.390  0.0775  0.7839 -0.1405
12816WAT     H153069  -6.124   7.521   6.335  2.5108  1.2231 -0.2303
12816WAT     H253070  -6.165   7.562   6.474  2.5887 -0.3363  0.2679
12816WAT    EPW53071  -6.140   7.583   6.394  0.7298  0.6940 -0.0987
12817WAT      O53072   0.708   3.054   0.524 -0.0150 -0.2562 -0.3189
12817WAT     H153073   0.768   2.981   0.538 -0.3294 -0.4224  0.2241
12817WAT     H253074   0.663   3.033   0.442 -0.0490 -0.6391 -0.2063
12817WAT    EPW53075   0.710   3.041   0.515 -0.0609 -0.3287 -0.2324
12818WAT      O53076   5.996   6.457   2.808 -0.3912  0.0474 -0.3364
12818WAT     H153077   6.044   6.530   2.847 -1.9196  1.1665 -0.4698
12818WAT     H253078   6.032   6.449   2.720 -0.9448  1.3938 -0.7171
12818WAT    EPW53079   6.007   6.466   2.802 -0.6657  0.3726 -0.4042
12819WAT      O53080   2.084   6.266   3.128 -0.3609  0.3042  0.4168
12819WAT     H153081   2.083   6.361   3.140 -0.3259  0.1964  1.3336
12819WAT     H253082   2.166   6.238   3.168 -0.4697 -0.1406  0.3304
12819WAT    EPW53083   2.095   6.275   3.135 -0.3706  0.2313  0.5262
12820WAT      O53084   2.779   9.963   1.422 -0.4536  0.0207  0.3167
12820WAT     H153085   2.792  10.038   1.480  0.2637  1.2108 -1.3137
12820WAT     H253086   2.701   9.986   1.372  0.7215  0.4885 -1.3607
12820WAT    EPW53087   2.770   9.976   1.423 -0.2040  0.2394 -0.1196
12821WAT      O53088  -3.603   8.051   6.604 -0.3188 -0.0152 -0.3779
12821WAT     H153089  -3.673   8.037   6.668  1.3148  0.3509  1.5983
12821WAT     H253090  -3.528   8.004   6.640  1.0027  1.2054 -1.4381
12821WAT    EPW53091  -3.603   8.043   6.617  0.0710  0.1941 -0.2570
12822WAT      O53092   5.350   4.649   5.699  0.3239 -0.5323  0.0870
12822WAT     H153093   5.300   4.594   5.760 -0.1376  0.0646  0.2507
12822WAT     H253094   5.437   4.608   5.697 -0.2371 -1.7294 -0.4098
12822WAT    EPW53095   5.355   4.636   5.707  0.1891 -0.6115  0.0432
12823WAT      O53096  -3.219   5.512   3.459 -0.1261  0.4069 -0.2781
12823WAT     H153097  -3.281   5.448   3.423 -0.9263 -0.5395  2.5392
12823WAT     H253098  -3.164   5.460   3.518  0.9920  1.8978  0.0351
12823WAT    EPW53099  -3.220   5.497   3.462 -0.0843  0.4785  0.1348
12824WAT      O53100   0.592   4.902   1.286  0.5574  0.7716  0.3079
12824WAT     H153101   0.619   4.972   1.346  0.2926  0.3326  0.9550
12824WAT     H253102   0.501   4.884   1.310  1.2281 -1.2321  1.6206
12824WAT    EPW53103   0.583   4.908   1.297  0.6110  0.4494  0.5664
12825WAT      O53104   3.322   7.047   1.080  0.6258 -0.3008  0.2549
12825WAT     H153105   3.349   7.027   1.169  1.8112 -1.7268 -0.3865
12825WAT     H253106   3.232   7.078   1.089  1.8644  3.2458  2.3374
12825WAT    EPW53107   3.314   7.048   1.093  0.9454 -0.0212  0.4449
12826WAT      O53108  -0.961   6.684   2.750 -0.1045 -0.7331 -0.5806
12826WAT     H153109  -1.001   6.753   2.802 -2.9501 -0.8747 -2.3816
12826WAT     H253110  -0.988   6.602   2.793 -1.8723 -0.8259 -1.7561
12826WAT    EPW53111  -0.970   6.682   2.763 -0.7130 -0.7641 -0.9731
12827WAT      O53112   2.247   3.288   7.749 -0.0756 -0.5912  0.0132
12827WAT     H153113   2.167   3.255   7.790 -0.1800  0.2072  0.4901
12827WAT     H253114   2.303   3.313   7.823 -0.0220  0.3240 -0.3196
12827WAT    EPW53115   2.244   3.287   7.764 -0.0824 -0.3651  0.0324
12828WAT      O53116  -1.406   5.990   1.258  0.5045  0.1153  0.0963
12828WAT     H153117  -1.459   6.030   1.326  0.6896 -2.6758  2.0653
12828WAT     H253118  -1.338   5.942   1.305  0.6009 -2.0356 -1.9989
12828WAT    EPW53119  -1.404   5.989   1.273  0.5416 -0.5364  0.0796
12829WAT      O53120   3.534   0.773   6.083  0.0439 -0.5629  0.5829
12829WAT     H153121   3.498   0.768   6.172 -0.6538 -0.7029  0.2984
12829WAT     H253122   3.494   0.850   6.045  1.4319  0.3263  0.8454
12829WAT    EPW53123   3.524   0.782   6.090  0.1349 -0.4641  0.5801
12830WAT      O53124  -1.076   0.890   1.654  0.0277 -0.2152 -0.5272
12830WAT     H153125  -1.130   0.941   1.594  0.9451  0.1984 -1.0194
12830WAT     H253126  -1.103   0.799   1.638 -1.1813  0.0379 -0.0799
12830WAT    EPW53127  -1.087   0.885   1.644 -0.0108 -0.1273 -0.5330
12831WAT      O53128  -0.400   9.467   6.335 -0.4667 -0.4572 -0.5438
12831WAT     H153129  -0.312   9.437   6.355 -2.0080 -4.1992  1.8141
12831WAT     H253130  -0.442   9.391   6.294 -3.9161 -0.8668  3.1381
12831WAT    EPW53131  -0.394   9.453   6.332 -1.1249 -1.0042  0.2527
12832WAT      O53132   1.456   2.456   3.347  0.6144  0.3908 -0.2940
12832WAT     H153133   1.402   2.439   3.270 -2.0924  1.4797  1.2404
12832WAT     H253134   1.470   2.551   3.346 -0.1037  0.5326  0.8945
12832WAT    EPW53135   1.451   2.467   3.336  0.1627  0.5531  0.0651
12833WAT      O53136   5.526   8.226   0.733  0.1496  0.4834  0.1685
12833WAT     H153137   5.468   8.184   0.670 -0.3286  2.1767 -0.5701
12833WAT     H253138   5.607   8.242   0.683  0.3659  0.3302  0.4722
12833WAT    EPW53139   5.529   8.222   0.718  0.1149  0.6862  0.1112
12834WAT      O53140   1.627   6.819   4.115  0.0527 -0.2493  0.0861
12834WAT     H153141   1.630   6.893   4.054 -1.6273 -0.2265 -0.0245
12834WAT     H253142   1.555   6.840   4.174 -0.4513 -1.7938  0.0661
12834WAT    EPW53143   1.618   6.832   4.115 -0.2354 -0.4499  0.0689
12835WAT      O53144   4.075   3.027   7.959 -0.4472 -0.3513 -0.0668
12835WAT     H153145   4.159   3.041   8.002 -0.0620  0.5202 -1.0468
12835WAT     H253146   4.023   3.103   7.983 -0.2900  0.0506 -0.9696
12835WAT    EPW53147   4.080   3.038   7.968 -0.3755 -0.1833 -0.3150
12836WAT      O53148   0.694   8.724   8.780  0.0502 -0.2180 -0.3924
12836WAT     H153149   0.640   8.739   8.858  2.0433 -0.2188  1.0874
12836WAT     H253150   0.659   8.783   8.714 -1.7269 -0.2296  0.4753
12836WAT    EPW53151   0.683   8.734   8.782  0.0787 -0.2198 -0.0825
12837WAT      O53152   2.254   9.708   2.129  0.1445 -0.0731  0.6667
12837WAT     H153153   2.328   9.649   2.148  0.5905  0.4683  0.6329
12837WAT     H253154   2.200   9.703   2.208 -0.9987 -2.2295 -0.1686
12837WAT    EPW53155   2.257   9.699   2.142  0.0526 -0.2861  0.5521
12838WAT      O53156   7.813   1.239   0.276 -0.2038  0.3866  0.6519
12838WAT     H153157   7.722   1.258   0.300 -0.0842  0.8758  0.7334
12838WAT     H253158   7.832   1.157   0.320 -0.4099  0.6005  1.1518
12838WAT    EPW53159   7.803   1.231   0.285 -0.2151  0.4793  0.7286
12839WAT      O53160   3.565   7.935   1.353 -0.1659 -0.5071 -0.3074
12839WAT     H153161   3.615   7.874   1.407  0.5844 -0.9549 -1.4930
12839WAT     H253162   3.585   8.021   1.391 -0.4570 -0.8936  0.7560
12839WAT    EPW53163   3.575   7.939   1.365 -0.1053 -0.6170 -0.3235
12840WAT      O53164   1.194   2.708   2.665 -0.4101 -0.2378  0.2206
12840WAT     H153165   1.228   2.792   2.634  0.6057 -0.8586 -0.3799
12840WAT     H253166   1.124   2.686   2.603 -0.1943 -0.1816 -0.0429
12840WAT    EPW53167   1.189   2.716   2.653 -0.2477 -0.3123  0.1066
12841WAT      O53168  -2.695   4.493   4.135 -0.4806 -0.6810  0.4202
12841WAT     H153169  -2.703   4.530   4.047 -3.1131 -0.5204  0.6486
12841WAT     H253170  -2.769   4.433   4.143  0.7105 -2.0287  1.9312
12841WAT    EPW53171  -2.706   4.490   4.125 -0.6708 -0.8378  0.6497
12842WAT      O53172   3.354   0.382   4.147  0.3370 -0.1772  0.0460
12842WAT     H153173   3.346   0.378   4.051 -1.0636  2.6028 -0.0737
12842WAT     H253174   3.265   0.401   4.177  1.0270  0.5320  1.7695
12842WAT    EPW53175   3.341   0.384   4.138  0.2433  0.2830  0.2575
12843WAT      O53176  -0.262   5.935   2.751  0.0991 -0.0444  0.2035
12843WAT     H153177  -0.171   5.946   2.778  0.1966  0.5214 -0.3427
12843WAT     H253178  -0.263   5.852   2.702  0.3727  0.0744 -0.0051
12843WAT    EPW53179  -0.250   5.925   2.748  0.1481  0.0460  0.1038
12844WAT      O53180   0.506   8.711   4.148  0.1195 -0.3888 -0.4698
12844WAT     H153181   0.463   8.633   4.113  1.0118 -0.8321 -0.6202
12844WAT     H253182   0.591   8.679   4.179 -0.5236  0.0319  1.9139
12844WAT    EPW53183   0.511   8.696   4.147  0.1523 -0.3920 -0.1750
12845WAT      O53184   6.790   5.010   1.152 -0.0847  0.0014  0.2902
12845WAT     H153185   6.758   5.040   1.067  1.4095 -0.9055 -0.6347
12845WAT     H253186   6.878   5.046   1.159  0.3853 -1.1676  0.7485
12845WAT    EPW53187   6.798   5.019   1.141  0.1743 -0.2723  0.2286
12846WAT      O53188   7.382   4.803   1.219 -0.2576  0.0906  0.5266
12846WAT     H153189   7.441   4.739   1.261 -0.2817  0.4842  1.1766
12846WAT     H253190   7.420   4.888   1.240  0.5064  0.2878 -1.4401
12846WAT    EPW53191   7.395   4.806   1.228 -0.1600  0.1688  0.3529
12847WAT      O53192   1.651   5.471   8.091 -0.1447 -0.9153 -0.3465
12847WAT     H153193   1.559   5.451   8.075 -0.5866  1.8519 -1.8762
12847WAT     H253194   1.652   5.511   8.178 -0.2122 -1.7384  0.0446
12847WAT    EPW53195   1.639   5.474   8.100 -0.2119 -0.6588 -0.4964
12848WAT      O53196  -1.943   9.513   3.390 -0.0010 -0.0162  0.6415
12848WAT     H153197  -1.879   9.442   3.384 -1.5152 -1.4488  0.6013
12848WAT     H253198  -1.892   9.593   3.372  1.5362 -1.1829 -0.5627
12848WAT    EPW53199  -1.928   9.514   3.386  0.0020 -0.3591  0.4773
12849WAT      O53200  -2.508  10.294   4.672 -0.3228 -0.2351 -0.1116
12849WAT     H153201  -2.443  10.329   4.732 -0.1883 -0.1092 -0.3289
12849WAT     H253202  -2.457  10.256   4.600 -0.4965  0.4022 -0.5848
12849WAT    EPW53203  -2.493  10.293   4.670 -0.3279 -0.1345 -0.2027
12850WAT      O53204  -0.797   1.712   6.164 -0.2561  0.8216 -0.3980
12850WAT     H153205  -0.864   1.781   6.160  0.4361  1.4627 -2.8923
12850WAT     H253206  -0.749   1.730   6.244 -1.4172  1.9743  0.0778
12850WAT    EPW53207  -0.800   1.724   6.174 -0.3180  1.0582 -0.6642
12851WAT      O53208  -1.633   4.705   1.934 -0.1193 -0.1989  0.5358
12851WAT     H153209  -1.690   4.740   2.003  0.2490 -0.7841  1.1427
12851WAT     H253210  -1.689   4.645   1.885 -0.2197 -0.2239  0.6809
12851WAT    EPW53211  -1.648   4.702   1.936 -0.0840 -0.2797  0.6350
12852WAT      O53212   3.318   9.814   3.839  0.2382 -0.8265 -0.2891
12852WAT     H153213   3.309   9.727   3.801  0.6386 -0.9920 -0.0111
12852WAT     H253214   3.332   9.871   3.764  0.7500 -1.1129 -0.4158
12852WAT    EPW53215   3.319   9.810   3.824  0.3586 -0.8860 -0.2692
12853WAT      O53216   3.331   1.819   4.809 -0.4623  0.0661  0.0448
12853WAT     H153217   3.389   1.889   4.779 -1.1548  0.5026 -0.3008
12853WAT     H253218   3.280   1.859   4.880 -0.5170 -0.2394  0.1798
12853WAT    EPW53219   3.332   1.834   4.815 -0.5609  0.0833  0.0169
12854WAT      O53220   0.451   3.130   8.651 -0.4837 -0.3748  0.2236
12854WAT     H153221   0.496   3.125   8.736  0.6190 -0.2309 -0.3387
12854WAT     H253222   0.431   3.223   8.640 -1.9179 -0.5553  0.9494
12854WAT    EPW53223   0.454   3.142   8.661 -0.5274 -0.3797  0.2456
12855WAT      O53224   0.791   0.088   6.039 -0.6633 -0.1131  0.2572
12855WAT     H153225   0.827   0.081   6.127  0.6019  2.4271  0.0435
12855WAT     H253226   0.697   0.075   6.050 -0.5510  0.3537  2.0417
12855WAT    EPW53227   0.783   0.086   6.052 -0.4816  0.2835  0.4642
12856WAT      O53228   1.671   3.289   0.206 -0.1221  0.3227  0.5849
12856WAT     H153229   1.577   3.295   0.191  0.1955  1.0225 -1.4006
12856WAT     H253230   1.708   3.265   0.121  1.6306  1.6651  0.8966
12856WAT    EPW53231   1.663   3.287   0.193  0.1509  0.5921  0.3641
12857WAT      O53232   3.459   6.573   3.718  0.6493 -0.0533  0.7255
12857WAT     H153233   3.383   6.516   3.733  2.0896 -1.8915  1.4261
12857WAT     H253234   3.458   6.633   3.792 -0.5273  0.4611  0.3251
12857WAT    EPW53235   3.449   6.573   3.729  0.6841 -0.2279  0.7652
12858WAT      O53236   3.310   3.219   1.368  0.2021 -0.7346 -0.3302
12858WAT     H153237   3.292   3.152   1.433  0.2040 -1.0952 -0.7020
12858WAT     H253238   3.351   3.172   1.295  0.2707 -0.3211 -0.5609
12858WAT    EPW53239   3.313   3.204   1.367  0.2114 -0.7277 -0.4097
12859WAT      O53240  -2.142   1.894   2.553 -0.0653 -0.1024 -0.1224
12859WAT     H153241  -2.120   1.801   2.546 -0.5533 -0.1397 -1.4467
12859WAT     H253242  -2.237   1.897   2.544  0.0362  0.5945 -1.1594
12859WAT    EPW53243  -2.151   1.882   2.551 -0.1163 -0.0154 -0.4339
12860WAT      O53244   3.771   1.722   3.433  0.5390 -0.2124  0.3090
12860WAT     H153245   3.775   1.811   3.398 -1.8161 -0.0964  0.1331
12860WAT     H253246   3.804   1.666   3.363  0.4590  0.4074 -0.2296
12860WAT    EPW53247   3.776   1.726   3.419  0.2177 -0.1153  0.2147
12861WAT      O53248   6.996   6.259   0.966 -0.1072  0.3976  0.3751
12861WAT     H153249   7.030   6.178   0.928  0.0937  1.1807 -1.1903
12861WAT     H253250   6.908   6.236   0.996 -0.3938 -0.1894 -0.8500
12861WAT    EPW53251   6.989   6.245   0.965 -0.1187  0.4234  0.0071
12862WAT      O53252  -3.496   8.163   3.008 -0.3940  0.2591  0.0344
12862WAT     H153253  -3.572   8.107   2.992 -1.1715  1.5753 -1.0101
12862WAT     H253254  -3.468   8.192   2.922  0.3244  1.0656  0.5217
12862WAT    EPW53255  -3.502   8.159   2.995 -0.4017  0.5388 -0.0391
12863WAT      O53256   3.860   4.877   7.657  0.3217  1.0882 -0.1612
12863WAT     H153257   3.876   4.866   7.563 -0.5552 -2.6344 -0.0486
12863WAT     H253258   3.778   4.927   7.662 -1.1259 -0.9769 -1.5736
12863WAT    EPW53259   3.851   4.882   7.645  0.0150  0.3247 -0.3326
12864WAT      O53260   8.806   2.001   0.558  0.6724  0.2738  0.4214
12864WAT     H153261   8.851   1.945   0.495  0.5812 -0.4861  1.0182
12864WAT     H253262   8.762   1.940   0.617 -0.3978  0.9865  0.3864
12864WAT    EPW53263   8.806   1.986   0.557  0.5193  0.2676  0.4955
12865WAT      O53264  -0.399   3.497   1.809  0.3926 -0.0086 -0.2700
12865WAT     H153265  -0.452   3.548   1.870  0.1755 -1.4799  0.8433
12865WAT     H253266  -0.345   3.442   1.866  2.2112  0.5409 -1.3871
12865WAT    EPW53267  -0.399   3.496   1.825  0.6038 -0.1303 -0.2705
12866WAT      O53268   1.829   4.166   2.728 -0.0853 -0.4014 -0.5795
12866WAT     H153269   1.807   4.096   2.789 -2.6197 -0.0477 -1.0106
12866WAT     H253270   1.746   4.207   2.706  1.0371  1.1183 -2.3318
12866WAT    EPW53271   1.815   4.162   2.733 -0.2716 -0.1545 -0.8675
12867WAT      O53272   0.031   7.235   3.974 -0.1891 -0.4045 -0.8094
12867WAT     H153273   0.082   7.196   4.045 -0.1054 -2.0272 -1.7136
12867WAT     H253274  -0.058   7.239   4.007 -0.2829 -1.8226 -0.8348
12867WAT    EPW53275   0.026   7.230   3.988 -0.1904 -0.8056 -0.9320
12868WAT      O53276   3.263   7.427   1.926 -0.1035  0.2653 -0.3148
12868WAT     H153277   3.243   7.444   2.018 -0.7390  1.7160 -0.6991
12868WAT     H253278   3.220   7.498   1.878  0.2537 -0.4386 -1.7357
12868WAT    EPW53279   3.255   7.438   1.932 -0.1402  0.3638 -0.5529
12869WAT      O53280   2.543   3.467   7.877 -0.0339  0.1531  0.4882
12869WAT     H153281   2.545   3.474   7.781  0.3351 -0.7738  0.4208
12869WAT     H253282   2.622   3.515   7.905  0.2431 -0.1770  0.2830
12869WAT    EPW53283   2.554   3.474   7.868  0.0514 -0.0126  0.4520
12870WAT      O53284  -3.913   8.783   7.984  0.5120 -0.4615  0.3679
12870WAT     H153285  -3.974   8.830   8.041  0.7670  1.4003 -0.7874
12870WAT     H253286  -3.962   8.766   7.904  0.0782 -3.2848  1.1439
12870WAT    EPW53287  -3.927   8.787   7.981  0.4884 -0.5884  0.3178
12871WAT      O53288   0.950   0.299   3.622  0.1881  0.1277  1.0566
12871WAT     H153289   0.880   0.341   3.572  0.6952 -3.3779 -3.2650
12871WAT     H253290   1.011   0.369   3.643 -0.8844  2.2050 -2.0800
12871WAT    EPW53291   0.949   0.313   3.619  0.1135 -0.0607  0.0730
12872WAT      O53292   3.407   2.972   5.716  0.0719  0.1251 -0.0296
12872WAT     H153293   3.421   3.064   5.693  0.7225 -0.1038 -0.6141
12872WAT     H253294   3.362   2.975   5.800  0.1852  0.9806  0.0152
12872WAT    EPW53295   3.403   2.985   5.724  0.1727  0.2078 -0.1006
12873WAT      O53296   4.672   7.575   0.674  0.6427  0.0181 -0.0302
12873WAT     H153297   4.735   7.589   0.604 -1.8577 -0.8415 -2.6423
12873WAT     H253298   4.700   7.494   0.716  0.7794 -0.8754 -1.7783
12873WAT    EPW53299   4.684   7.566   0.670  0.3312 -0.2131 -0.6053
12874WAT      O53300   0.662   5.336   6.045  0.2884 -0.5966  0.1806
12874WAT     H153301   0.631   5.366   5.959  0.9871  2.1448  0.8115
12874WAT     H253302   0.604   5.378   6.108 -0.1899 -2.5437  1.1226
12874WAT    EPW53303   0.650   5.346   6.042  0.3175 -0.4916  0.3879
12875WAT      O53304   2.347   6.809   6.825 -0.0552  0.0021 -0.3224
12875WAT     H153305   2.375   6.834   6.913  1.0481 -0.3203 -0.5656
12875WAT     H253306   2.334   6.892   6.779  1.3658  0.1663 -0.4550
12875WAT    EPW53307   2.349   6.823   6.830  0.2778 -0.0188 -0.3719
12876WAT      O53308  -0.106   9.660   2.493 -0.0249  0.2091  0.4847
12876WAT     H153309  -0.105   9.575   2.538 -2.6068 -0.3994 -0.4714
12876WAT     H253310  -0.051   9.646   2.416  2.7656  0.6618  2.2429
12876WAT    EPW53311  -0.098   9.647   2.489  0.0026  0.1888  0.5904
12877WAT      O53312   2.297   5.688   7.678  0.1568  0.7920 -0.0879
12877WAT     H153313   2.211   5.732   7.678  0.2561  1.1128  2.5040
12877WAT     H253314   2.351   5.739   7.737  0.7312 -1.9373  1.9610
12877WAT    EPW53315   2.292   5.700   7.686  0.2457  0.4742  0.5240
12878WAT      O53316  -2.127  10.125   4.637 -0.4016  0.4419  0.2381
12878WAT     H153317  -2.098  10.165   4.720 -3.1658  1.1568  0.9610
12878WAT     H253318  -2.082  10.041   4.634  0.5995  0.8634  1.9370
12878WAT    EPW53319  -2.117  10.119   4.648 -0.6342  0.5913  0.5577
12879WAT      O53320  -1.705   0.451   4.901 -0.2296  0.5118 -0.1259
12879WAT     H153321  -1.622   0.411   4.926 -0.8298  0.6187  2.4083
12879WAT     H253322  -1.770   0.403   4.952 -1.1859  3.3419  1.5526
12879WAT    EPW53323  -1.703   0.440   4.911 -0.4349  0.8991  0.4294
12880WAT      O53324   1.977   6.363   6.713 -0.0422  0.1322 -0.0104
12880WAT     H153325   2.029   6.285   6.697 -0.2686 -0.0268  0.0168
12880WAT     H253326   1.926   6.343   6.792  0.5238  0.6294  0.4917
12880WAT    EPW53327   1.977   6.350   6.722  0.0026  0.1769  0.0594
12881WAT      O53328   6.442   2.749   5.822  0.2728 -0.0733  0.3167
12881WAT     H153329   6.379   2.684   5.852  0.2097  0.3782  1.1809
12881WAT     H253330   6.501   2.700   5.765  0.8507 -1.1368  1.7574
12881WAT    EPW53331   6.441   2.734   5.818  0.3407 -0.1539  0.6208
12882WAT      O53332  -3.161   6.992   5.893 -0.6053  0.2543 -0.1759
12882WAT     H153333  -3.071   6.962   5.885 -0.7115 -0.4180  0.9513
12882WAT     H253334  -3.160   7.081   5.857  0.5182  0.2705 -0.1303
12882WAT    EPW53335  -3.149   7.000   5.887 -0.4711  0.1678 -0.0212
12883WAT      O53336  -6.193   9.331   5.202 -0.3282 -0.4292  0.4281
12883WAT     H153337  -6.203   9.236   5.203 -3.3824 -0.2330  1.2887
12883WAT     H253338  -6.204   9.357   5.294 -4.1982  0.9318 -0.2371
12883WAT    EPW53339  -6.196   9.322   5.214 -1.2412 -0.2241  0.4537
12884WAT      O53340   1.572   4.315   2.693  0.5563  0.2767  0.3544
12884WAT     H153341   1.567   4.225   2.727 -1.7454  1.0725  2.4778
12884WAT     H253342   1.561   4.306   2.599 -0.2488 -1.6651  0.5781
12884WAT    EPW53343   1.570   4.302   2.685  0.1466  0.1256  0.6640
12885WAT      O53344  -2.124   1.826   7.411 -0.6089 -0.0036 -0.2022
12885WAT     H153345  -2.173   1.882   7.351 -1.6456 -0.1983  0.4331
12885WAT     H253346  -2.140   1.737   7.379 -1.7334 -0.1628  0.7261
12885WAT    EPW53347  -2.132   1.821   7.399 -0.8940 -0.0502  0.0041
12886WAT      O53348   1.885   5.968   0.695  0.0342 -0.4906 -0.7791
12886WAT     H153349   1.942   5.985   0.770  0.5692  0.4150 -1.3685
12886WAT     H253350   1.893   6.046   0.640 -1.0488 -0.7462 -1.3456
12886WAT    EPW53351   1.893   5.981   0.698 -0.0381 -0.4048 -0.9315
12887WAT      O53352  -0.191   2.514   3.357 -0.4758  0.5037 -0.3344
12887WAT     H153353  -0.270   2.508   3.410 -0.3943 -2.6364 -0.3562
12887WAT     H253354  -0.120   2.518   3.421 -0.5153 -0.7100 -0.1756
12887WAT    EPW53355  -0.192   2.514   3.373 -0.4702 -0.0705 -0.3164
12888WAT      O53356   6.405   6.094   0.509  0.3631 -0.6663  0.0921
12888WAT     H153357   6.331   6.034   0.513  1.0848 -1.6277 -0.4089
12888WAT     H253358   6.461   6.059   0.439  1.8132 -0.6035  1.1735
12888WAT    EPW53359   6.403   6.082   0.500  0.6497 -0.7851  0.1687
12889WAT      O53360  -0.244   9.968   7.087  0.4609  0.8604 -0.1158
12889WAT     H153361  -0.235   9.950   6.994  0.4919 -0.4986  0.1414
12889WAT     H253362  -0.334   9.944   7.108  0.4003  1.3298  0.1753
12889WAT    EPW53363  -0.255   9.963   7.077  0.4570  0.7429 -0.0436
12890WAT      O53364   8.994   3.630   0.702 -0.0533  0.7470  0.6584
12890WAT     H153365   8.994   3.630   0.606 -2.6912 -0.3897  0.5762
12890WAT     H253366   9.086   3.619   0.726  0.9519  3.1104 -1.6602
12890WAT    EPW53367   9.006   3.628   0.693 -0.2689  0.9087  0.3418
12891WAT      O53368   4.084   7.227   3.177  0.1348 -0.5053 -0.1658
12891WAT     H153369   4.036   7.273   3.108 -0.1040 -1.0724 -0.3834
12891WAT     H253370   4.034   7.244   3.257  1.3920  1.6711  0.2395
12891WAT    EPW53371   4.071   7.235   3.178  0.2692 -0.2930 -0.1409
12892WAT      O53372   4.945   1.386   4.897  0.5670  0.5823  0.1020
12892WAT     H153373   5.018   1.374   4.957  1.9845  3.6172 -0.8159
12892WAT     H253374   4.871   1.343   4.941  1.8908  1.1581  3.1858
12892WAT    EPW53375   4.944   1.379   4.911  0.9284  1.0585  0.3877
12893WAT      O53376   0.314   1.095   3.266 -0.7448 -0.0127  0.6683
12893WAT     H153377   0.325   1.175   3.215 -2.3663 -0.5390 -0.6091
12893WAT     H253378   0.316   1.124   3.357  2.2070  0.9604  0.3946
12893WAT    EPW53379   0.316   1.110   3.272 -0.5693  0.0463  0.4637
12894WAT      O53380   3.125   1.849   1.312 -0.1250  0.2175 -0.0220
12894WAT     H153381   3.107   1.755   1.308  1.8932 -0.6030  4.1424
12894WAT     H253382   3.205   1.860   1.261 -0.7081 -0.1227 -1.0534
12894WAT    EPW53383   3.133   1.838   1.305  0.0643  0.0644  0.3912
12895WAT      O53384  -0.739   0.412   1.702  0.1792 -0.1163 -0.3509
12895WAT     H153385  -0.803   0.385   1.636  0.2310 -2.4014  0.4282
12895WAT     H253386  -0.723   0.504   1.684 -0.9101 -0.2965 -2.5882
12895WAT    EPW53387  -0.746   0.420   1.691  0.0423 -0.4414 -0.5432
12896WAT      O53388  -0.141   5.896   5.645 -0.2639 -0.2034 -0.4011
12896WAT     H153389  -0.047   5.896   5.626 -0.5549  1.1894 -2.1294
12896WAT     H253390  -0.158   5.982   5.684 -1.1167  0.4052 -2.0282
12896WAT    EPW53391  -0.131   5.907   5.647 -0.4148  0.0608 -0.8438
12897WAT      O53392   2.778   7.913   6.845  0.7008 -0.4811  0.5936
12897WAT     H153393   2.700   7.858   6.850  0.7062 -0.5455  0.0643
12897WAT     H253394   2.815   7.911   6.933 -2.6591  3.6861  2.4301
12897WAT    EPW53395   2.773   7.905   6.857  0.2583  0.0598  0.7660
12898WAT      O53396   3.740   0.658   0.136 -0.0431 -0.4128 -0.0969
12898WAT     H153397   3.793   0.632   0.212 -1.4192 -1.2910  0.6065
12898WAT     H253398   3.768   0.748   0.117  0.7073 -0.3614  1.1299
12898WAT    EPW53399   3.750   0.667   0.144 -0.1256 -0.5218  0.1577
12899WAT      O53400   6.331   4.551   2.443 -0.7620 -0.5411 -0.0487
12899WAT     H153401   6.307   4.477   2.499 -0.7533 -0.7834 -0.3594
12899WAT     H253402   6.414   4.525   2.404  0.2946  0.5114  1.4149
12899WAT    EPW53403   6.339   4.538   2.445 -0.6216 -0.4344  0.1034
12900WAT      O53404  -4.516   7.800   5.153 -0.1335  0.3927  0.1302
12900WAT     H153405  -4.557   7.862   5.092  0.6269 -0.7465 -1.6525
12900WAT     H253406  -4.424   7.799   5.128  0.3599  0.4348  1.8469
12900WAT    EPW53407  -4.510   7.808   5.141  0.0319  0.2480  0.1214
12901WAT      O53408   2.295   1.216   0.056 -0.3300  0.2878  0.1782
12901WAT     H153409   2.387   1.192   0.052 -0.6259 -0.7701 -0.8236
12901WAT     H253410   2.257   1.180  -0.024 -1.8569 -0.3560  1.1335
12901WAT    EPW53411   2.302   1.208   0.045 -0.5704  0.0634  0.1721
12902WAT      O53412  -2.048   7.718   5.585  0.1328 -0.1334  0.1732
12902WAT     H153413  -2.000   7.649   5.632  1.5322  1.1744  0.7522
12902WAT     H253414  -2.079   7.676   5.505 -0.4546 -1.8470  1.2432
12902WAT    EPW53415  -2.046   7.703   5.581  0.2398 -0.1872  0.3905
12903WAT      O53416   4.915   5.252   4.421  0.1027  0.3532 -0.7521
12903WAT     H153417   4.986   5.207   4.467  0.9526 -0.9765 -3.2315
12903WAT     H253418   4.836   5.205   4.446  0.3982  0.2488  0.0308
12903WAT    EPW53419   4.914   5.240   4.431  0.2537  0.1643 -0.9758
12904WAT      O53420  -0.782   5.157   7.086 -0.1172 -0.2511  0.6499
12904WAT     H153421  -0.707   5.199   7.128 -0.9892  2.2037 -0.0661
12904WAT     H253422  -0.858   5.199   7.125 -1.1801 -2.6836  1.3621
12904WAT    EPW53423  -0.782   5.168   7.096 -0.3724 -0.2482  0.6495
12905WAT      O53424   5.804   6.386   1.069  0.1617 -0.6326 -0.4931
12905WAT     H153425   5.841   6.308   1.109  2.7659  2.3111  3.6200
12905WAT     H253426   5.728   6.407   1.124  0.1036  0.2480 -0.8898
12905WAT    EPW53427   5.799   6.378   1.082  0.4973 -0.1283 -0.0030
12906WAT      O53428   1.387   1.471   2.006 -0.3672  0.3120  0.1683
12906WAT     H153429   1.294   1.458   2.024 -0.4304 -0.0414 -0.4143
12906WAT     H253430   1.428   1.388   2.031  0.0650  1.0802  2.2093
12906WAT    EPW53431   1.381   1.458   2.012 -0.3185  0.3667  0.3606
12907WAT      O53432  -4.063  10.347   7.769 -0.3749 -0.3888  0.8398
12907WAT     H153433  -4.057  10.252   7.782  0.9647 -0.5819 -0.8384
12907WAT     H253434  -3.998  10.366   7.702 -0.6431  1.7367  1.1147
12907WAT    EPW53435  -4.053  10.337   7.762 -0.2337 -0.1340  0.6549
12908WAT      O53436   1.621   5.643   7.394  0.6028  0.0194 -0.1475
12908WAT     H153437   1.627   5.585   7.317  1.1975 -0.6982  0.4276
12908WAT     H253438   1.662   5.593   7.465 -0.5171  0.3959  0.8024
12908WAT    EPW53439   1.627   5.629   7.393  0.5336 -0.0257  0.0534
12909WAT      O53440  -0.290   4.651   2.499  0.0833  0.0019  0.5925
12909WAT     H153441  -0.199   4.672   2.520  0.7963  0.4112 -2.4386
12909WAT     H253442  -0.333   4.736   2.490  0.3592 -0.0317 -1.4861
12909WAT    EPW53443  -0.284   4.665   2.501  0.2137  0.0515 -0.0813
12910WAT      O53444  -4.185   4.814   8.005 -0.5113 -0.6739 -0.2135
12910WAT     H153445  -4.251   4.775   7.947 -0.3049 -0.7742 -0.3845
12910WAT     H253446  -4.234   4.872   8.062 -0.3936  2.2027 -2.7632
12910WAT    EPW53447  -4.200   4.817   8.005 -0.4685 -0.3080 -0.5722
12911WAT      O53448   1.986   2.805   6.711 -0.2025 -0.4954  0.0564
12911WAT     H153449   1.982   2.814   6.615 -0.6854  1.9080  0.2490
12911WAT     H253450   2.073   2.769   6.728  1.2216  2.0992 -1.1523
12911WAT    EPW53451   1.997   2.801   6.700 -0.0784  0.1638 -0.0777
12912WAT      O53452   1.249   9.289   6.211  0.3463  0.4235  0.0267
12912WAT     H153453   1.226   9.289   6.304 -1.9205  4.1257 -0.3311
12912WAT     H253454   1.345   9.279   6.211  0.2468 -1.6952  2.5461
12912WAT    EPW53455   1.259   9.288   6.223  0.0342  0.6323  0.3119
12913WAT      O53456   1.961   7.208   2.106  0.1216 -0.5210  0.0609
12913WAT     H153457   1.913   7.218   2.023  0.0485 -0.0440  0.1552
12913WAT     H253458   1.892   7.209   2.172 -0.0859 -3.4720  0.0107
12913WAT    EPW53459   1.945   7.210   2.103  0.0846 -0.8473  0.0668
12914WAT      O53460   0.148   3.889   6.333 -0.0571 -0.5626  0.2690
12914WAT     H153461   0.078   3.835   6.370 -2.7861 -0.6434 -4.2700
12914WAT     H253462   0.108   3.975   6.322  2.0033  0.5717  1.2260
12914WAT    EPW53463   0.133   3.893   6.336 -0.1453 -0.4236 -0.2031
12915WAT      O53464   3.937   5.821   7.933 -0.6292 -0.2399 -0.2808
12915WAT     H153465   3.907   5.855   7.849 -1.2383  0.8331  0.3530
12915WAT     H253466   3.869   5.758   7.958 -0.7665 -0.0992 -0.2989
12915WAT    EPW53467   3.924   5.817   7.925 -0.7275 -0.0796 -0.1996
12916WAT      O53468  -2.114   9.482   1.856 -0.0174  0.2072 -0.0740
12916WAT     H153469  -2.181   9.550   1.845  1.1715  1.4506  0.1271
12916WAT     H253470  -2.031   9.530   1.858  0.7755 -1.1434  1.2432
12916WAT    EPW53471  -2.112   9.498   1.855  0.2439  0.1931  0.1262
12917WAT      O53472  -5.942   9.323   6.452 -1.0244  0.3214 -0.0675
12917WAT     H153473  -6.033   9.346   6.433 -0.8092  2.5360  1.1632
12917WAT     H253474  -5.946   9.266   6.528 -1.4563 -1.7216 -1.5510
12917WAT    EPW53475  -5.955   9.319   6.459 -1.0529  0.3443 -0.1009
12918WAT      O53476   9.048   0.518   1.034  0.1529 -0.4775  0.3039
12918WAT     H153477   8.978   0.453   1.038  1.9244 -2.6292 -0.7893
12918WAT     H253478   9.073   0.521   0.941  1.5797  0.1106  0.6698
12918WAT    EPW53479   9.042   0.510   1.022  0.5746 -0.6838  0.2080
12919WAT      O53480   1.131   4.674   5.150 -0.4113  0.1938  0.4013
12919WAT     H153481   1.165   4.598   5.198  4.1983  1.5801 -0.2034
12919WAT     H253482   1.147   4.653   5.058 -1.3016  1.0069  0.0418
12919WAT    EPW53483   1.137   4.661   5.144  0.0793  0.4838  0.2739
12920WAT      O53484  -0.043   4.531   8.357  0.4122  0.1791  0.2540
12920WAT     H153485  -0.060   4.464   8.290  0.5139 -0.2864  0.6818
12920WAT     H253486  -0.042   4.613   8.309  1.2706 -0.2198 -0.4454
12920WAT    EPW53487  -0.045   4.533   8.342  0.5389  0.0651  0.2184
12921WAT      O53488   6.142   7.467   2.534  0.4207  0.9092  0.1969
12921WAT     H153489   6.112   7.419   2.612 -1.3053  0.4552 -0.6874
12921WAT     H253490   6.204   7.407   2.492  0.8362  0.8695  0.8488
12921WAT    EPW53491   6.146   7.453   2.539  0.2480  0.8440  0.1663
12922WAT      O53492  -7.301   8.423   8.100 -0.4625  0.1696 -0.0425
12922WAT     H153493  -7.382   8.416   8.051 -0.3337  0.4107 -0.2900
12922WAT     H253494  -7.250   8.490   8.054 -0.8702  1.3524  1.1459
12922WAT    EPW53495  -7.305   8.431   8.088 -0.4992  0.3572  0.0815
12923WAT      O53496  -5.610   8.841   4.414  0.4034  0.3467  1.0042
12923WAT     H153497  -5.667   8.785   4.363 -0.0491  1.7607 -0.1200
12923WAT     H253498  -5.535   8.786   4.437 -0.2756 -0.8430  0.4266
12923WAT    EPW53499  -5.608   8.827   4.411  0.2542  0.3762  0.7796
12924WAT      O53500  -2.702   5.862   2.071  0.0131  0.4292 -0.4185
12924WAT     H153501  -2.772   5.829   2.015  0.6974  0.3688 -1.2647
12924WAT     H253502  -2.707   5.809   2.150 -1.3167  0.8772 -0.1821
12924WAT    EPW53503  -2.712   5.851   2.074 -0.0720  0.4804 -0.4989
12925WAT      O53504  -1.442   6.080   8.221  0.1370 -1.0373  0.1156
12925WAT     H153505  -1.446   6.031   8.139  0.4722 -0.1624 -0.4408
12925WAT     H253506  -1.487   6.162   8.202  1.2882 -0.3145  0.4434
12925WAT    EPW53507  -1.449   6.084   8.208  0.3331 -0.8266  0.0849
12926WAT      O53508  -3.065   9.041   8.347 -0.1266 -0.2953  0.2482
12926WAT     H153509  -3.124   8.969   8.369 -0.4553  0.3128  1.4310
12926WAT     H253510  -2.990   8.999   8.304  0.8413 -1.6645  3.0532
12926WAT    EPW53511  -3.063   9.026   8.344 -0.0422 -0.3958  0.7739
12927WAT      O53512  -0.495   3.827   6.753 -0.7669 -0.1724 -0.1427
12927WAT     H153513  -0.535   3.913   6.761 -0.1598 -0.0128  1.4749
12927WAT     H253514  -0.565   3.765   6.774 -1.1178 -0.0892 -1.0017
12927WAT    EPW53515  -0.509   3.830   6.757 -0.7331 -0.1404 -0.0427
12928WAT      O53516   2.426   4.594   7.830  0.4422 -0.3838  0.0709
12928WAT     H153517   2.439   4.544   7.911  1.1677 -0.2687  0.0346
12928WAT     H253518   2.498   4.568   7.774  0.9567  0.8265  0.1240
12928WAT    EPW53519   2.437   4.584   7.834  0.6057 -0.2089  0.0730
12929WAT      O53520   2.266   6.461   0.293  0.1256 -0.3563  0.3546
12929WAT     H153521   2.327   6.533   0.277  0.8668 -0.0531  3.8460
12929WAT     H253522   2.228   6.444   0.207  0.9155  3.2610 -0.9249
12929WAT    EPW53523   2.269   6.469   0.280  0.3276  0.1609  0.6463
12930WAT      O53524  -0.973   8.663   2.166 -0.6713  0.6574 -0.0992
12930WAT     H153525  -0.942   8.698   2.250  0.1359 -0.4996  0.0978
12930WAT     H253526  -0.962   8.736   2.105  0.5654  0.9027  0.3954
12930WAT    EPW53527  -0.968   8.677   2.169 -0.4017  0.5374 -0.0080
12931WAT      O53528  -0.335   6.569   5.088 -0.3256  0.9418 -0.5728
12931WAT     H153529  -0.295   6.490   5.125  1.4653  2.4525  0.9447
12931WAT     H253530  -0.289   6.583   5.006  0.0449  0.9389 -0.3679
12931WAT    EPW53531  -0.324   6.560   5.082 -0.0405  1.1406 -0.3455
12932WAT      O53532  -2.663   8.113   6.399  0.3060  0.1648  0.0560
12932WAT     H153533  -2.721   8.111   6.323  1.5948 -0.7672 -0.9483
12932WAT     H253534  -2.584   8.068   6.370  1.1132  0.4216  1.7351
12932WAT    EPW53535  -2.661   8.107   6.385  0.5825  0.0758  0.1452
12933WAT      O53536  -1.972  10.177   1.363 -0.0072 -0.1371  0.5331
12933WAT     H153537  -1.965  10.272   1.368 -3.2302  0.3553 -1.5673
12933WAT     H253538  -2.037  10.154   1.430  2.0200 -1.2207  2.2857
12933WAT    EPW53539  -1.980  10.186   1.373 -0.1649 -0.2151  0.4872
12934WAT      O53540   5.568   4.984   4.682 -0.8647  0.3005 -0.3268
12934WAT     H153541   5.658   4.970   4.654 -1.2430  1.1202 -2.0521
12934WAT     H253542   5.572   5.063   4.737 -0.3879 -0.3345  0.5930
12934WAT    EPW53543   5.581   4.993   4.686 -0.8519  0.3250 -0.4330
12935WAT      O53544  -0.899   8.394   6.124  0.4546  0.1364 -0.5381
12935WAT     H153545  -0.861   8.320   6.077  1.3682  1.2743 -1.6611
12935WAT     H253546  -0.844   8.404   6.202 -1.0213 -1.7124  0.8203
12935WAT    EPW53547  -0.887   8.386   6.128  0.3805  0.0424 -0.5071
12936WAT      O53548   1.484   8.438   4.475  0.5143  0.2048  0.1523
12936WAT     H153549   1.429   8.401   4.405  0.4778 -0.1873  0.3860
12936WAT     H253550   1.429   8.434   4.553  1.3857 -1.6537  0.7377
12936WAT    EPW53551   1.469   8.433   4.476  0.6245 -0.0920  0.2604
12937WAT      O53552   6.368   3.236   1.814 -0.3530 -0.0576  1.0683
12937WAT     H153553   6.430   3.180   1.862 -1.1143 -1.4884  0.4627
12937WAT     H253554   6.421   3.277   1.746 -0.1180 -1.6389  0.2501
12937WAT    EPW53555   6.383   3.234   1.812 -0.4222 -0.4549  0.8805
12938WAT      O53556  -0.821   5.132   2.487 -0.6151  0.0022  0.0398
12938WAT     H153557  -0.757   5.076   2.531 -0.7325 -1.0371 -1.0734
12938WAT     H253558  -0.899   5.077   2.479 -2.1978  1.6493  2.5634
12938WAT    EPW53559  -0.823   5.118   2.492 -0.8393  0.0823  0.2258
12939WAT      O53560   8.229   1.638   0.780  1.0112  0.4659  0.0218
12939WAT     H153561   8.299   1.603   0.725 -0.4689  0.5968 -2.0365
12939WAT     H253562   8.152   1.586   0.758 -0.4578  2.7839 -0.6492
12939WAT    EPW53563   8.228   1.627   0.770  0.6223  0.7889 -0.3382
12940WAT      O53564   6.989   0.699   1.755  0.7272 -0.3334 -0.8260
12940WAT     H153565   6.967   0.777   1.703 -0.2104 -0.2295 -0.3108
12940WAT     H253566   7.070   0.666   1.716 -0.4294 -0.8242 -2.9701
12940WAT    EPW53567   6.997   0.705   1.743  0.4508 -0.3844 -1.0409
12941WAT      O53568  -1.510   6.336   2.410 -0.3264  0.9347 -0.0229
12941WAT     H153569  -1.523   6.364   2.320 -0.0528  1.0917 -0.0168
12941WAT     H253570  -1.472   6.248   2.402  4.4354  2.6797 -0.2803
12941WAT    EPW53571  -1.506   6.328   2.397  0.3378  1.1857 -0.0560
12942WAT      O53572  -0.157   1.806   3.803 -0.3956 -0.1391 -0.0109
12942WAT     H153573  -0.238   1.829   3.849 -0.1041  0.5064  0.1957
12942WAT     H253574  -0.095   1.875   3.829  0.8707 -1.7849  1.5361
12942WAT    EPW53575  -0.159   1.818   3.813 -0.1901 -0.2710  0.2203
12943WAT      O53576   5.088   4.648   6.073 -0.6937  0.3474 -0.0703
12943WAT     H153577   5.029   4.675   6.002 -0.2320 -0.7896 -0.9177
12943WAT     H253578   5.151   4.719   6.081 -0.3427  0.1923 -1.2903
12943WAT    EPW53579   5.088   4.661   6.064 -0.5865  0.1769 -0.3431
12944WAT      O53580  -1.834   6.425   1.182 -0.4741 -0.7376 -0.2661
12944WAT     H153581  -1.913   6.398   1.135 -0.6169 -0.4854 -0.1731
12944WAT     H253582  -1.769   6.360   1.158 -0.2779 -0.1134 -1.5515
12944WAT    EPW53583  -1.836   6.413   1.173 -0.4670 -0.6218 -0.4233
12945WAT      O53584   6.728   4.412   2.959 -0.3523 -0.2642 -0.2538
12945WAT     H153585   6.685   4.456   2.886  0.6870  0.0134 -0.7114
12945WAT     H253586   6.725   4.475   3.030  0.1994  0.1542 -0.5934
12945WAT    EPW53587   6.721   4.426   2.959 -0.1423 -0.1724 -0.3589
12946WAT      O53588   4.215   5.017   0.108  0.2298 -0.5337 -0.1397
12946WAT     H153589   4.255   5.014   0.022 -0.7475  1.6513 -0.7352
12946WAT     H253590   4.256   5.091   0.152 -2.4287  1.3371 -0.5168
12946WAT    EPW53591   4.225   5.026   0.103 -0.2496  0.0014 -0.2680
12947WAT      O53592  -7.378   8.966   8.965 -0.2883 -0.0594 -0.2748
12947WAT     H153593  -7.464   9.008   8.976 -0.8087 -1.7027  2.9181
12947WAT     H253594  -7.397   8.872   8.967  1.5846 -0.4534  0.6135
12947WAT    EPW53595  -7.392   8.959   8.966 -0.1099 -0.3281  0.2632
12948WAT      O53596  -0.863   7.134   0.365 -0.2209  0.1788 -0.3879
12948WAT     H153597  -0.856   7.088   0.282 -1.1039  0.0914 -0.4191
12948WAT     H253598  -0.838   7.224   0.345  0.1225  0.0334 -0.6245
12948WAT    EPW53599  -0.859   7.140   0.352 -0.2920  0.1481 -0.4232
12949WAT      O53600  -2.190   1.173   3.652 -0.3193 -0.2586  0.2063
12949WAT     H153601  -2.207   1.266   3.668  1.4929  0.3515 -1.1487
12949WAT     H253602  -2.274   1.130   3.670 -1.1813  1.6173  0.8939
12949WAT    EPW53603  -2.204   1.179   3.657 -0.1941  0.0693  0.1183
12950WAT      O53604  -1.942   7.450   5.553 -0.6244  0.0529 -0.7790
12950WAT     H153605  -1.909   7.415   5.471  0.9429  0.8510 -0.5335
12950WAT     H253606  -1.864   7.466   5.606 -1.6334 -1.6093  1.3796
12950WAT    EPW53607  -1.928   7.448   5.549 -0.5507 -0.0610 -0.4618
12951WAT      O53608   0.545   8.165   4.168 -0.1141  0.2541  0.5164
12951WAT     H153609   0.638   8.156   4.147 -0.3729 -0.7098 -0.3019
12951WAT     H253610   0.502   8.098   4.114 -1.3066  0.8532  0.6939
12951WAT    EPW53611   0.552   8.155   4.158 -0.3055  0.2060  0.4315
12952WAT      O53612   2.687   4.909   4.692 -0.3401  0.3670 -0.4397
12952WAT     H153613   2.739   4.830   4.677  2.3389  2.0692 -0.8051
12952WAT     H253614   2.652   4.931   4.606 -1.0010 -0.3159 -0.3593
12952WAT    EPW53615   2.690   4.901   4.678 -0.0740  0.5014 -0.4773
12953WAT      O53616   4.756  10.387   3.933  0.0587 -0.1578  0.1361
12953WAT     H153617   4.772  10.362   4.024  2.3833 -0.3854 -0.2528
12953WAT     H253618   4.797  10.317   3.881  3.1540  2.2165 -0.9930
12953WAT    EPW53619   4.764  10.375   3.938  0.7734  0.1254 -0.0640
12954WAT      O53620   2.597   1.640   0.901 -0.4920  0.3901  0.0250
12954WAT     H153621   2.528   1.578   0.924  0.4539 -0.1309  1.6460
12954WAT     H253622   2.658   1.590   0.847 -1.6454  1.0263 -1.9555
12954WAT    EPW53623   2.596   1.626   0.897 -0.5194  0.4053 -0.0224
12955WAT      O53624   3.366   9.355   0.965  0.1262 -0.0592  0.5417
12955WAT     H153625   3.334   9.444   0.947  2.2351  0.2579 -2.5190
12955WAT     H253626   3.299   9.298   0.927 -1.6523  0.0502  3.2476
12955WAT    EPW53627   3.353   9.359   0.957  0.1698 -0.0033  0.4949
12956WAT      O53628  -1.867   8.375   5.632  0.0149  0.7029  0.1254
12956WAT     H153629  -1.792   8.434   5.646 -0.3893  1.0102  1.1117
12956WAT     H253630  -1.852   8.303   5.693 -0.6391  0.9236  0.5649
12956WAT    EPW53631  -1.855   8.374   5.642 -0.1247  0.7725  0.3135
12957WAT      O53632  -0.107   0.216   3.381 -0.5209 -0.2515  0.1081
12957WAT     H153633  -0.015   0.215   3.407 -0.5208 -1.3143  0.0767
12957WAT     H253634  -0.138   0.302   3.410  0.8971  0.8244 -1.3996
12957WAT    EPW53635  -0.099   0.227   3.388 -0.3339 -0.2498 -0.0949
12958WAT      O53636   0.404   6.429   5.358  0.3153  0.4247  0.1017
12958WAT     H153637   0.343   6.376   5.305  1.1411 -2.3715  1.7563
12958WAT     H253638   0.483   6.375   5.364  1.0412  1.6395  2.3298
12958WAT    EPW53639   0.406   6.415   5.352  0.5199  0.2160  0.6137
12959WAT      O53640   4.327   9.114   3.723  0.1485 -0.1617 -0.3352
12959WAT     H153641   4.362   9.111   3.812 -3.1634  1.2901  1.2254
12959WAT     H253642   4.370   9.189   3.682  1.1040 -0.3358  0.3256
12959WAT    EPW53643   4.337   9.123   3.729 -0.1624  0.0067 -0.0423
12960WAT      O53644  -1.256   9.159   3.729  0.3759  1.1577  0.7310
12960WAT     H153645  -1.329   9.151   3.790 -1.4421  2.3671 -1.1790
12960WAT     H253646  -1.295   9.194   3.649  1.9007 -3.5271 -2.4636
12960WAT    EPW53647  -1.271   9.163   3.727  0.3372  0.6990  0.0578
12961WAT      O53648   4.244   7.301   2.360  0.7745  0.3301  0.1913
12961WAT     H153649   4.155   7.269   2.372  1.6042 -2.5984 -0.7796
12961WAT     H253650   4.236   7.372   2.296 -0.7452 -0.6662 -0.7610
12961WAT    EPW53651   4.231   7.306   2.353  0.6835 -0.1876 -0.0625
12962WAT      O53652   4.373   9.306   4.152 -0.2103  0.4626 -0.2196
12962WAT     H153653   4.303   9.345   4.099 -1.0235  0.1797  0.6284
12962WAT     H253654   4.408   9.236   4.097  0.8555  1.9363 -1.5082
12962WAT    EPW53655   4.368   9.301   4.138 -0.1771  0.6194 -0.2778
12963WAT      O53656  -0.593   2.290   7.222  0.3276 -0.4713  0.3301
12963WAT     H153657  -0.682   2.323   7.222  0.2753 -0.5950  1.2828
12963WAT     H253658  -0.602   2.194   7.218  0.4756 -0.4521 -2.2436
12963WAT    EPW53659  -0.606   2.281   7.222  0.3402 -0.4852  0.1166
12964WAT      O53660   4.146   4.288   8.142 -0.6735 -0.5692 -0.2890
12964WAT     H153661   4.093   4.353   8.095  0.1577 -0.2387 -0.7774
12964WAT     H253662   4.232   4.328   8.150 -0.4458 -1.1689  0.3772
12964WAT    EPW53663   4.150   4.302   8.137 -0.5338 -0.6046 -0.2656
12965WAT      O53664   3.921   4.186   2.207  0.0987  0.0611 -0.2290
12965WAT     H153665   3.973   4.113   2.173 -0.0436  0.5404 -1.5177
12965WAT     H253666   3.863   4.209   2.135 -0.9137  0.4721  0.6907
12965WAT    EPW53667   3.920   4.179   2.193 -0.0536  0.1783 -0.2776
12966WAT      O53668   8.007   2.113   3.443  0.4527  0.0082  0.0383
12966WAT     H153669   8.061   2.049   3.490  2.1024  1.3533  0.0977
12966WAT     H253670   7.933   2.129   3.501  0.9950 -0.4744  0.8867
12966WAT    EPW53671   8.004   2.107   3.457  0.7415  0.1221  0.1581
12967WAT      O53672   2.096   0.038   1.374  0.2855  0.7582 -0.3809
12967WAT     H153673   2.030  -0.032   1.367 -0.4746  1.3388  0.7302
12967WAT     H253674   2.168  -0.002   1.423  1.2865 -0.2091 -2.4935
12967WAT    EPW53675   2.097   0.023   1.380  0.3173  0.7071 -0.5130
12968WAT      O53676   3.398   7.843   5.185  0.0668 -0.1407 -0.8113
12968WAT     H153677   3.449   7.904   5.133 -2.4365  0.9182 -2.2056
12968WAT     H253678   3.352   7.897   5.248  2.8573 -1.3729  2.6326
12968WAT    EPW53679   3.399   7.858   5.186  0.1047 -0.1636 -0.5410
12969WAT      O53680   1.243   0.369   4.579  0.1342  0.0604  0.2937
12969WAT     H153681   1.190   0.290   4.570  0.4256  0.0901 -2.6224
12969WAT     H253682   1.315   0.357   4.517  1.3095  1.7712  1.2419
12969WAT    EPW53683   1.245   0.357   4.570  0.3276  0.2900  0.0341
12970WAT      O53684   2.294   3.069   5.066 -0.5712  0.1802  0.1535
12970WAT     H153685   2.202   3.064   5.039 -1.0282  1.3188  1.4259
12970WAT     H253686   2.338   3.115   4.994 -1.1392  0.3449 -0.0904
12970WAT    EPW53687   2.288   3.074   5.053 -0.7064  0.3521  0.2890
12971WAT      O53688   0.772   1.859   4.158 -0.1981 -0.4689 -0.3955
12971WAT     H153689   0.831   1.838   4.230 -1.2749 -1.9417  0.0987
12971WAT     H253690   0.772   1.955   4.155 -0.9811 -0.2768  2.3533
12971WAT    EPW53691   0.780   1.869   4.167 -0.4434 -0.6378  0.0322
12972WAT      O53692   8.557   1.217   0.363  0.2551 -0.4179  0.0421
12972WAT     H153693   8.634   1.209   0.308  0.0062  1.2216 -0.6122
12972WAT     H253694   8.589   1.257   0.444  0.6682 -3.0715  1.2951
12972WAT    EPW53695   8.571   1.221   0.367  0.2766 -0.5516  0.1210
12973WAT      O53696  -1.050   1.636   8.537 -0.5299  0.0775 -0.4344
12973WAT     H153697  -1.026   1.692   8.462 -1.9405  0.5412 -0.5770
12973WAT     H253698  -0.969   1.590   8.559  0.4577  1.5130 -0.8886
12973WAT    EPW53699  -1.036   1.638   8.530 -0.5857  0.3281 -0.5136
12974WAT      O53700  -3.761   8.615   4.257 -0.1193  0.3863 -0.1922
12974WAT     H153701  -3.830   8.681   4.269 -0.9441  0.0059 -2.4044
12974WAT     H253702  -3.807   8.532   4.256  0.7764 -0.1607  1.2976
12974WAT    EPW53703  -3.776   8.613   4.259 -0.1099  0.2642 -0.2873
12975WAT      O53704  -2.882   9.646   5.506 -0.1728 -0.1699 -0.7381
12975WAT     H153705  -2.820   9.618   5.573 -0.4196  0.1147 -0.3858
12975WAT     H253706  -2.966   9.609   5.535 -0.1931 -0.4528 -1.1476
12975WAT    EPW53707  -2.885   9.637   5.518 -0.2080 -0.1693 -0.7458
12976WAT      O53708   6.252   6.616   0.031  0.0358  0.2788  0.2637
12976WAT     H153709   6.221   6.642  -0.055 -0.4505 -0.5871  0.1713
12976WAT     H253710   6.263   6.521   0.025  1.6609  0.4131  0.6203
12976WAT    EPW53711   6.250   6.607   0.019  0.1861  0.1823  0.2985
12977WAT      O53712   3.969   4.876   4.182 -0.7455  0.0366  0.0928
12977WAT     H153713   3.890   4.914   4.221 -0.6766 -1.4083  1.7752
12977WAT     H253714   3.946   4.783   4.169  0.5071 -0.2949  0.1556
12977WAT    EPW53715   3.955   4.868   4.185 -0.5713 -0.1979  0.3231
12978WAT      O53716   5.892   2.812   4.819 -0.1480  0.6673 -0.2564
12978WAT     H153717   5.930   2.789   4.904 -0.5589 -0.9052 -0.4588
12978WAT     H253718   5.963   2.799   4.757 -0.3255  0.1020 -0.3475
12978WAT    EPW53719   5.906   2.807   4.822 -0.2255  0.3854 -0.2952
12979WAT      O53720  -1.217   1.780   7.478  0.7583  0.7678  0.3437
12979WAT     H153721  -1.273   1.812   7.548 -2.2658  0.6956 -1.8378
12979WAT     H253722  -1.218   1.849   7.412  5.1271  1.7074  0.9734
12979WAT    EPW53723  -1.224   1.793   7.479  0.9356  0.8822  0.1390
12980WAT      O53724  -2.363   9.890   4.416 -0.0314 -0.4691  0.3577
12980WAT     H153725  -2.344   9.818   4.476 -0.6549 -1.8546 -1.0489
12980WAT     H253726  -2.446   9.925   4.447  1.0598  0.7752  2.0389
12980WAT    EPW53727  -2.372   9.885   4.428  0.0303 -0.4878  0.3936
12981WAT      O53728   6.998   2.255   4.466 -0.1112  0.5457  1.0234
12981WAT     H153729   6.925   2.264   4.528  1.0963  1.5718  2.3810
12981WAT     H253730   6.995   2.334   4.413  0.2038  0.7651  1.3239
12981WAT    EPW53731   6.988   2.266   4.467  0.0894  0.7099  1.2422
12982WAT      O53732   3.561   3.651   5.453  0.3443  0.4410  0.8290
12982WAT     H153733   3.618   3.705   5.398 -0.2072  1.4708  1.2269
12982WAT     H253734   3.618   3.618   5.522  0.6818  0.5842  0.6217
12982WAT    EPW53735   3.576   3.654   5.455  0.3160  0.5957  0.8543
12983WAT      O53736   3.255   6.951   2.886 -0.1750  0.7739  0.5190
12983WAT     H153737   3.229   6.896   2.812  1.3345 -1.8451  1.7835
12983WAT     H253738   3.344   6.978   2.866  0.5030 -0.5297  1.6168
12983WAT    EPW53739   3.263   6.947   2.874  0.1136  0.2568  0.8305
12984WAT      O53740  -0.903   5.169   8.326 -0.1541 -0.0917  0.4934
12984WAT     H153741  -0.998   5.178   8.325 -0.1561 -0.0799 -0.3107
12984WAT     H253742  -0.888   5.075   8.321 -0.1227 -0.1307  1.2894
12984WAT    EPW53743  -0.914   5.158   8.325 -0.1502 -0.0954  0.4926
12985WAT      O53744   6.582   5.402   3.460 -1.0821 -0.2321 -0.3122
12985WAT     H153745   6.515   5.466   3.435 -0.1800  0.9655  0.2682
12985WAT     H253746   6.652   5.454   3.500 -0.8975 -1.7073  1.4006
12985WAT    EPW53747   6.582   5.417   3.462 -0.9387 -0.2685 -0.0098
12986WAT      O53748  -0.440   0.228   6.986  0.0224 -0.5221 -0.2422
12986WAT     H153749  -0.420   0.207   6.895 -1.5947 -1.1916 -0.4776
12986WAT     H253750  -0.485   0.312   6.982  0.5325 -0.2320  0.0165
12986WAT    EPW53751  -0.443   0.236   6.974 -0.1236 -0.5721 -0.2391
12987WAT      O53752  -3.490   8.065   6.062  0.1949  0.3576  0.5912
12987WAT     H153753  -3.480   7.971   6.050  0.4766  0.1023  2.5639
12987WAT     H253754  -3.552   8.074   6.135 -0.9899  1.7394 -0.5179
12987WAT    EPW53755  -3.497   8.054   6.070  0.0757  0.5064  0.7052
12988WAT      O53756   7.877   1.201   2.155 -0.2936 -0.3544  0.1540
12988WAT     H153757   7.841   1.208   2.244  2.4362 -0.4181  1.3615
12988WAT     H253758   7.839   1.120   2.121 -0.0954 -1.2836  1.9734
12988WAT    EPW53759   7.867   1.191   2.162  0.0925 -0.4854  0.5533
12989WAT      O53760   9.357   1.555   0.964  0.8670  0.6007  0.3059
12989WAT     H153761   9.339   1.484   0.902  1.9433  1.0969 -0.6122
12989WAT     H253762   9.437   1.528   1.008  1.1686  1.1465  0.0967
12989WAT    EPW53763   9.365   1.542   0.962  1.0490  0.7381  0.1573
12990WAT      O53764   6.267   1.383   6.829 -0.1316  0.7861  0.0715
12990WAT     H153765   6.295   1.347   6.745  2.9910 -0.9781  1.6976
12990WAT     H253766   6.341   1.368   6.888 -2.0872  2.1059  3.1328
12990WAT    EPW53767   6.281   1.376   6.826  0.0224  0.7274  0.6897
12991WAT      O53768   0.551   0.930   0.245 -0.2871  0.2094  0.3342
12991WAT     H153769   0.620   0.877   0.284  0.9288  2.5015  1.5194
12991WAT     H253770   0.482   0.932   0.313 -1.6423 -2.0663 -0.8411
12991WAT    EPW53771   0.551   0.923   0.259 -0.3055  0.2116  0.3355
12992WAT      O53772  -2.879   7.311   6.446 -0.4006 -0.2566  0.0948
12992WAT     H153773  -2.957   7.355   6.413 -1.0718 -1.1354  0.4599
12992WAT     H253774  -2.838   7.272   6.369 -2.4075 -3.0101  0.2706
12992WAT    EPW53775  -2.884   7.311   6.431 -0.7540 -0.7358  0.1662
12993WAT      O53776   0.096   5.310   0.212  0.3030 -0.4643  0.0854
12993WAT     H153777   0.120   5.217   0.213  2.8000  0.1087 -0.0392
12993WAT     H253778   0.125   5.344   0.296 -0.1667  0.2987 -0.0480
12993WAT    EPW53779   0.103   5.302   0.223  0.5704 -0.2880  0.0513
12994WAT      O53780  -3.725   9.347   1.719 -0.0324  0.0737  0.8796
12994WAT     H153781  -3.755   9.431   1.685  0.4280  1.0421  2.7390
12994WAT     H253782  -3.804   9.292   1.717  0.0552 -0.0959 -2.0140
12994WAT    EPW53783  -3.740   9.351   1.714  0.0398  0.1793  0.7433
12995WAT      O53784  -4.879   3.512   7.065  0.9070 -0.6232 -0.4532
12995WAT     H153785  -4.812   3.480   7.004 -0.4968 -0.6197 -2.0721
12995WAT     H253786  -4.910   3.593   7.024  1.4799  0.6040  1.4402
12995WAT    EPW53787  -4.874   3.519   7.051  0.7975 -0.4609 -0.4172
12996WAT      O53788   3.476   0.696   3.719 -0.3998  0.2386 -0.2654
12996WAT     H153789   3.420   0.772   3.700  0.0603  0.3962 -1.0309
12996WAT     H253790   3.541   0.696   3.648  0.4773 -0.0314  0.5171
12996WAT    EPW53791   3.477   0.706   3.707 -0.2234  0.2238 -0.2631
12997WAT      O53792   7.778   1.083   1.263  0.1521 -0.2850  0.4993
12997WAT     H153793   7.781   1.050   1.352 -2.8340  1.4493  1.3932
12997WAT     H253794   7.838   1.158   1.263  1.1721 -1.0865  0.6251
12997WAT    EPW53795   7.786   1.089   1.275 -0.1073 -0.1619  0.6338
12998WAT      O53796  -0.310   5.487   1.052  0.1037  0.3494  0.0359
12998WAT     H153797  -0.265   5.407   1.078  1.0398  0.9848  0.4417
12998WAT     H253798  -0.265   5.516   0.973  0.8332  1.3025  0.7709
12998WAT    EPW53799  -0.298   5.481   1.045  0.3234  0.5591  0.1863
12999WAT      O53800   5.171   1.293   0.294  0.0951  0.3045 -0.4001
12999WAT     H153801   5.166   1.326   0.204 -2.2689 -1.0935 -0.8525
12999WAT     H253802   5.083   1.304   0.328  0.1353 -2.0843  0.6561
12999WAT    EPW53803   5.159   1.299   0.287 -0.2112 -0.1949 -0.3205
13000WAT      O53804  -1.741   0.982   5.792  0.2886 -0.0590  0.1145
13000WAT     H153805  -1.729   0.907   5.850 -3.0723  0.8426  2.2248
13000WAT     H253806  -1.818   0.961   5.740  1.8122  0.2093 -2.4073
13000WAT    EPW53807  -1.750   0.970   5.793  0.0463  0.0953  0.0603
13001WAT      O53808   4.959   5.870   4.057 -0.4687 -0.4291 -0.8328
13001WAT     H153809   4.903   5.807   4.100 -1.1826 -1.1215 -2.6607
13001WAT     H253810   5.029   5.817   4.018 -0.7021 -0.0389 -1.8128
13001WAT    EPW53811   4.961   5.855   4.057 -0.5937 -0.4690 -1.2031
13002WAT      O53812   1.464   1.593   4.624 -0.0787 -0.2960  0.4654
13002WAT     H153813   1.440   1.510   4.665  1.4161 -1.1916 -0.3712
13002WAT     H253814   1.495   1.648   4.696  0.4962 -1.0817  0.8316
13002WAT    EPW53815   1.465   1.589   4.639  0.1943 -0.5178  0.4034
13003WAT      O53816   3.634   1.689   1.985  0.5513 -0.4574  0.2462
13003WAT     H153817   3.616   1.670   1.893 -0.0316  1.6251 -0.1315
13003WAT     H253818   3.565   1.644   2.033  0.9908 -1.7492 -0.2901
13003WAT    EPW53819   3.623   1.681   1.979  0.5324 -0.3531  0.1256
13004WAT      O53820  -3.062   9.812   3.339 -0.2543 -0.0263  0.2821
13004WAT     H153821  -2.977   9.829   3.379  0.4711 -1.6514 -0.4898
13004WAT     H253822  -3.099   9.740   3.389 -0.7208 -0.0210 -0.0402
13004WAT    EPW53823  -3.056   9.805   3.351 -0.2201 -0.2398  0.1378
13005WAT      O53824   2.499   9.733   7.540 -0.3761  0.3566  0.0185
13005WAT     H153825   2.518   9.651   7.585  0.5520  1.9260  2.7141
13005WAT     H253826   2.498   9.710   7.447  3.2673 -2.1334  0.3797
13005WAT    EPW53827   2.502   9.719   7.534  0.2269  0.2351  0.4218
13006WAT      O53828   0.106   0.390   3.962 -0.3177  0.6945 -0.4302
13006WAT     H153829   0.057   0.363   3.884 -0.7630  0.6568 -0.1358
13006WAT     H253830   0.132   0.308   4.004 -1.6861  0.6913  0.4740
13006WAT    EPW53831   0.103   0.376   3.957 -0.5569  0.6891 -0.2722
13007WAT      O53832  -3.663   4.831   3.523  0.6034 -0.4235  0.6632
13007WAT     H153833  -3.620   4.916   3.531 -3.0589  2.0957 -2.6191
13007WAT     H253834  -3.691   4.810   3.612  2.1862  1.4091  1.6624
13007WAT    EPW53835  -3.661   4.839   3.536  0.3291  0.1504  0.3620
13008WAT      O53836   3.402   5.306   1.979  0.0670 -0.4748  0.0956
13008WAT     H153837   3.407   5.210   1.980 -0.4335 -0.5016  1.3114
13008WAT     H253838   3.343   5.326   1.906 -0.2705 -1.1189  0.1839
13008WAT    EPW53839   3.395   5.296   1.970 -0.0435 -0.5634  0.2676
13009WAT      O53840   1.894   6.763   6.785 -0.5995 -0.2546 -0.9502
13009WAT     H153841   1.973   6.713   6.802  1.1267  2.2371 -1.1720
13009WAT     H253842   1.914   6.816   6.708 -2.5226  0.3885 -1.0786
13009WAT    EPW53843   1.907   6.764   6.777 -0.6254  0.1590 -0.9964
13010WAT      O53844  -0.825   5.262   6.049 -0.4185 -0.0304 -0.2805
13010WAT     H153845  -0.920   5.258   6.062 -0.2857 -1.1787  0.5804
13010WAT     H253846  -0.801   5.174   6.019  0.2101  0.6518 -1.8518
13010WAT    EPW53847  -0.834   5.250   6.047 -0.3181 -0.0918 -0.3743
13011WAT      O53848  -6.112   8.043   5.524 -0.1615  0.6100 -0.6072
13011WAT     H153849  -6.057   8.007   5.594  1.3233 -0.0582 -2.0421
13011WAT     H253850  -6.091   8.136   5.523 -0.9371  0.8161  0.4484
13011WAT    EPW53851  -6.102   8.050   5.533 -0.0679  0.5488 -0.6573
13012WAT      O53852   4.327   0.824   5.810  0.6860  0.3551 -0.2081
13012WAT     H153853   4.270   0.824   5.887 -0.2556 -0.2260 -0.8862
13012WAT     H253854   4.278   0.871   5.743  0.6368 -0.8089 -1.0382
13012WAT    EPW53855   4.313   0.830   5.811  0.5553  0.1249 -0.4070
13013WAT      O53856  -3.862   7.007   5.372 -0.3510 -0.4573  0.7482
13013WAT     H153857  -3.819   6.952   5.438 -0.8133  2.0705  3.3089
13013WAT     H253858  -3.794   7.069   5.345 -0.0987 -1.5891 -1.4490
13013WAT    EPW53859  -3.847   7.008   5.377 -0.3786 -0.2730  0.7963
13014WAT      O53860  -1.515   7.571   0.419  0.6977  0.3515 -0.9313
13014WAT     H153861  -1.514   7.646   0.359  0.9819  0.3082 -0.9796
13014WAT     H253862  -1.461   7.599   0.493  0.0835  0.5315 -0.5411
13014WAT    EPW53863  -1.508   7.585   0.421  0.6541  0.3695 -0.8862
13015WAT      O53864   1.949  10.004   4.126  0.2215 -0.1794  0.2387
13015WAT     H153865   1.869  10.042   4.163  1.0201  1.0172  0.7979
13015WAT     H253866   2.017  10.025   4.190  1.0534 -0.8536 -0.4038
13015WAT    EPW53867   1.947  10.012   4.139  0.4365 -0.1101  0.2277
13016WAT      O53868   0.253   4.072   1.225 -0.0174 -0.1231  0.9762
13016WAT     H153869   0.329   4.114   1.265  1.8367 -1.2797 -1.1430
13016WAT     H253870   0.289   4.014   1.159 -2.7837 -0.6324 -0.2306
13016WAT    EPW53871   0.268   4.069   1.222 -0.1377 -0.3431  0.5376
13017WAT      O53872   0.067   5.432   0.991 -0.3357 -0.9372  0.1523
13017WAT     H153873   0.049   5.443   1.084  0.5933 -1.4719  0.4064
13017WAT     H253874   0.042   5.342   0.972 -0.8752 -0.7150 -0.2058
13017WAT    EPW53875   0.061   5.422   1.001 -0.2843 -0.9785  0.1386
13018WAT      O53876   3.590   1.494   8.668 -0.9284  0.4246 -0.0090
13018WAT     H153877   3.519   1.438   8.638 -0.6099 -0.7409  1.2828
13018WAT     H253878   3.562   1.524   8.754 -2.1059  4.1949 -1.5005
13018WAT    EPW53879   3.577   1.490   8.675 -1.0417  0.7682 -0.0353
13019WAT      O53880  -5.450   9.166   6.647  0.3386  0.8199 -0.2094
13019WAT     H153881  -5.524   9.201   6.597 -2.3323 -3.5816  0.0817
13019WAT     H253882  -5.474   9.180   6.738  0.3644  0.2530 -0.1146
13019WAT    EPW53883  -5.463   9.172   6.652 -0.0103  0.1645 -0.1583
13020WAT      O53884   0.532   4.855   5.383 -0.4929 -0.2648 -0.3455
13020WAT     H153885   0.514   4.818   5.296  0.9984  0.2061 -0.8758
13020WAT     H253886   0.575   4.938   5.365  1.9855 -1.2130  0.8277
13020WAT    EPW53887   0.535   4.861   5.369  0.0306 -0.3278 -0.2606
13021WAT      O53888  -1.385   0.098   7.871 -0.2236  0.1222  0.3142
13021WAT     H153889  -1.309   0.090   7.812 -0.1553  0.0044  0.4188
13021WAT     H253890  -1.347   0.128   7.954 -0.4647  1.5826 -0.0642
13021WAT    EPW53891  -1.370   0.101   7.874 -0.2464  0.2993  0.2782
13022WAT      O53892  -2.920   7.153   4.411  0.0848 -0.3045  0.3660
13022WAT     H153893  -3.007   7.135   4.377  0.4780  2.2022 -2.4336
13022WAT     H253894  -2.861   7.106   4.351  0.6981  0.4287  0.3796
13022WAT    EPW53895  -2.923   7.145   4.398  0.2176  0.1228 -0.0014
13023WAT      O53896  -0.304   9.908   7.521 -0.0231  0.9684  0.3857
13023WAT     H153897  -0.260   9.852   7.457 -2.0739 -1.8377  1.2801
13023WAT     H253898  -0.358   9.967   7.468 -0.9125 -0.6336 -0.5604
13023WAT    EPW53899  -0.305   9.909   7.505 -0.4109  0.3867  0.3791
13024WAT      O53900   2.083   3.161   3.521 -0.3194 -0.9795 -0.4420
13024WAT     H153901   2.174   3.187   3.514 -0.0385 -1.5177  0.9447
13024WAT     H253902   2.054   3.151   3.430  0.0737  2.1744 -1.0357
13024WAT    EPW53903   2.091   3.163   3.508 -0.2304 -0.6346 -0.3374
13025WAT      O53904  -6.217   8.550   8.629  0.5743  0.4445  0.3566
13025WAT     H153905  -6.208   8.548   8.724  0.3123 -0.5107  0.3681
13025WAT     H253906  -6.310   8.534   8.613  0.9147 -1.2571 -0.0936
13025WAT    EPW53907  -6.228   8.548   8.639  0.5848  0.0944  0.2990
13026WAT      O53908  -1.450   0.881   5.170  0.3817  0.6348 -0.2857
13026WAT     H153909  -1.411   0.851   5.252 -0.4489  1.6316  0.5245
13026WAT     H253910  -1.513   0.948   5.198 -0.5739  0.3485 -1.6769
13026WAT    EPW53911  -1.453   0.886   5.184  0.1462  0.7285 -0.3626
13027WAT      O53912   4.082   0.468   6.125 -0.3865 -0.2268 -0.3887
13027WAT     H153913   3.995   0.464   6.164  0.1318  1.2567  1.0537
13027WAT     H253914   4.137   0.416   6.184  0.2953  1.5558  0.6167
13027WAT    EPW53915   4.078   0.461   6.138 -0.2282  0.2040 -0.0658
13028WAT      O53916   5.738   9.901   0.892  0.4827  0.3425 -0.2047
13028WAT     H153917   5.643   9.901   0.894  0.4522  1.9898 -0.2907
13028WAT     H253918   5.761   9.842   0.820 -0.5444  1.6952 -1.6962
13028WAT    EPW53919   5.729   9.893   0.883  0.3431  0.7386 -0.4128
13029WAT      O53920   1.157   5.605   7.710 -0.6818 -0.2414  0.1874
13029WAT     H153921   1.130   5.521   7.747 -0.1184  0.3107  1.9596
13029WAT     H253922   1.205   5.648   7.782 -0.3380  1.2872 -0.9166
13029WAT    EPW53923   1.160   5.600   7.725 -0.5621  0.0331  0.2754
13030WAT      O53924  -2.755   9.758   1.145  0.6600  0.0334  0.0101
13030WAT     H153925  -2.732   9.845   1.176  1.9787 -0.1113 -0.4836
13030WAT     H253926  -2.674   9.708   1.153  0.2315 -0.8242 -0.8083
13030WAT    EPW53927  -2.741   9.763   1.150  0.7775 -0.0987 -0.1630
13031WAT      O53928   0.621   4.317   7.162 -0.5840  0.3407 -0.4550
13031WAT     H153929   0.712   4.347   7.172 -0.8369  1.1215 -0.4355
13031WAT     H253930   0.570   4.397   7.158 -1.3451 -0.1083  0.1267
13031WAT    EPW53931   0.626   4.331   7.163 -0.7178  0.3846 -0.3757
13032WAT      O53932   2.817   5.820   1.493  0.1892  0.2002 -0.3421
13032WAT     H153933   2.731   5.857   1.472 -1.5420 -1.4468  3.0634
13032WAT     H253934   2.803   5.725   1.492  1.7461 -0.0764  0.9756
13032WAT    EPW53935   2.804   5.812   1.490  0.1662 -0.0534  0.2809
13033WAT      O53936   0.530   2.009   7.181  0.5553  0.3640  0.6001
13033WAT     H153937   0.580   2.002   7.262  0.2995  0.7077  0.7890
13033WAT     H253938   0.573   1.948   7.121 -1.8742 -3.4653  2.3408
13033WAT    EPW53939   0.542   2.000   7.183  0.2012 -0.0957  0.8545
13034WAT      O53940  -5.825   3.751   8.404  0.2854  0.1248 -0.2094
13034WAT     H153941  -5.829   3.705   8.320 -1.9493  0.5761 -0.4199
13034WAT     H253942  -5.745   3.802   8.400  1.0482 -1.1083 -1.3887
13034WAT    EPW53943  -5.815   3.752   8.392  0.0913  0.0217 -0.3929
13035WAT      O53944   1.221   9.729   7.611 -0.1852  0.2622  0.6516
13035WAT     H153945   1.257   9.669   7.547 -0.2511  1.5152 -0.6222
13035WAT     H253946   1.197   9.674   7.686  1.1242 -1.0537  0.1469
13035WAT    EPW53947   1.222   9.714   7.612 -0.0212  0.2537  0.4170
13036WAT      O53948  -6.282   7.676   8.953 -0.2956  0.3975  0.6278
13036WAT     H153949  -6.328   7.697   9.034 -0.8067  1.5177  0.0656
13036WAT     H253950  -6.345   7.697   8.884  0.7820  1.1973 -0.1341
13036WAT    EPW53951  -6.296   7.681   8.955 -0.2208  0.6509  0.4535
13037WAT      O53952   3.665   6.680   4.604  0.0481 -0.1982  0.0843
13037WAT     H153953   3.614   6.599   4.611  0.7714 -0.6268  0.5155
13037WAT     H253954   3.600   6.750   4.611 -0.7023 -0.7250 -1.1451
13037WAT    EPW53955   3.650   6.679   4.606  0.0445 -0.3240 -0.0207
13038WAT      O53956  -0.715   7.634   4.625 -0.0278  0.4624 -0.8025
13038WAT     H153957  -0.664   7.692   4.568 -2.7525  1.7573 -2.1699
13038WAT     H253958  -0.799   7.679   4.634 -1.0095 -1.5954  1.1455
13038WAT    EPW53959  -0.719   7.648   4.618 -0.5167  0.3617 -0.7260
13039WAT      O53960   2.160   5.580   0.284  0.0553 -0.9222  0.0666
13039WAT     H153961   2.138   5.499   0.238 -0.3065 -1.5518  1.3016
13039WAT     H253962   2.089   5.641   0.261 -0.4068 -1.3991  0.1978
13039WAT    EPW53963   2.148   5.577   0.275 -0.0534 -1.0681  0.2468
13040WAT      O53964  -0.746   7.688   7.248 -0.6559  0.0533  0.0759
13040WAT     H153965  -0.651   7.682   7.241 -0.6055  0.2146  0.6006
13040WAT     H253966  -0.774   7.602   7.279 -0.2610  1.1958  4.1313
13040WAT    EPW53967  -0.737   7.676   7.251 -0.5971  0.2253  0.6797
13041WAT      O53968  -1.875   5.542   3.816 -0.0461  0.4218  0.1085
13041WAT     H153969  -1.826   5.469   3.779  0.9772  0.6027  1.0782
13041WAT     H253970  -1.965   5.528   3.785  0.6354  0.2424 -1.9297
13041WAT    EPW53971  -1.881   5.531   3.807  0.1788  0.4220 -0.0324
13042WAT      O53972  -1.056   7.509   7.130 -0.6037 -0.2130  0.8030
13042WAT     H153973  -1.145   7.517   7.095 -0.4415 -1.0926  0.1513
13042WAT     H253974  -1.011   7.587   7.098 -0.8875 -0.2291  0.3478
13042WAT    EPW53975  -1.062   7.520   7.121 -0.6198 -0.3314  0.6571
13043WAT      O53976  -5.019   8.958   7.412 -0.6182  0.4244 -0.1464
13043WAT     H153977  -5.035   8.916   7.327  2.2099  3.3890 -2.4054
13043WAT     H253978  -5.025   9.052   7.393  1.6389  1.2485  2.5495
13043WAT    EPW53979  -5.022   8.965   7.398  0.0527  0.9241 -0.0887
13044WAT      O53980  -6.510   5.042   8.631 -0.0062  0.4832 -0.2738
13044WAT     H153981  -6.426   5.001   8.613  0.3870  0.7713  0.8008
13044WAT     H253982  -6.501   5.077   8.720 -0.1829  3.1847 -1.2079
13044WAT    EPW53983  -6.498   5.041   8.641  0.0222  0.8776 -0.2556
13045WAT      O53984   6.004   0.389   5.030 -0.0665  0.4606 -0.3864
13045WAT     H153985   6.078   0.328   5.035 -1.1881 -0.8740  0.8786
13045WAT     H253986   6.030   0.452   4.963  0.5667 -2.2838 -2.9578
13045WAT    EPW53987   6.017   0.389   5.022 -0.1309 -0.0774 -0.5586
13046WAT      O53988  -2.989   4.578   5.998 -0.0324  0.3514 -0.1142
13046WAT     H153989  -2.968   4.609   6.086  0.4129  0.7658 -0.3595
13046WAT     H253990  -3.036   4.651   5.957 -0.9494 -0.1403  0.0449
13046WAT    EPW53991  -2.992   4.592   6.004 -0.0947  0.3409 -0.1256
13047WAT      O53992   1.237   2.663   4.340  0.1156 -0.6063 -0.0661
13047WAT     H153993   1.272   2.730   4.281 -1.0626 -0.5223 -0.7062
13047WAT     H253994   1.311   2.638   4.395  0.6153  1.1385  0.1194
13047WAT    EPW53995   1.251   2.668   4.339  0.0261 -0.3651 -0.1259
13048WAT      O53996  -5.077   1.978   8.692 -0.4648  0.4355 -0.7231
13048WAT     H153997  -5.150   2.024   8.734 -0.7888  2.0947 -2.9330
13048WAT     H253998  -5.027   2.047   8.648  3.1449 -0.4726  1.5259
13048WAT    EPW53999  -5.080   1.993   8.692 -0.0315  0.5346 -0.7176
13049WAT      O54000  -5.190   4.130   7.284  0.2203 -0.6240  0.4811
13049WAT     H154001  -5.253   4.123   7.212  1.7736 -1.3231 -0.8880
13049WAT     H254002  -5.218   4.063   7.346  0.2338 -1.7138 -0.6410
13049WAT    EPW54003  -5.202   4.120   7.283  0.4270 -0.8597  0.1526
13050WAT      O54004  -2.777   8.746   4.766  0.7472  0.1354 -0.5380
13050WAT     H154005  -2.765   8.836   4.798 -1.4940 -0.0649  1.0868
13050WAT     H254006  -2.825   8.757   4.684  2.5848  0.4658 -1.6230
13050WAT    EPW54007  -2.782   8.759   4.759  0.6939  0.1526 -0.4668
13051WAT      O54008   5.783   1.410   6.672  0.3387  0.1716  0.5627
13051WAT     H154009   5.852   1.392   6.737  1.0799 -1.5054 -0.6351
13051WAT     H254010   5.771   1.327   6.627  1.0333  1.6497 -2.5827
13051WAT    EPW54011   5.791   1.397   6.675  0.5281  0.1453 -0.0100
13052WAT      O54012   3.094   7.703   7.759  0.6490  0.3127 -0.1385
13052WAT     H154013   3.051   7.733   7.679  1.2250 -0.2414 -0.6672
13052WAT     H254014   3.138   7.780   7.793  1.5393  0.2417 -1.1044
13052WAT    EPW54015   3.094   7.717   7.753  0.8423  0.2303 -0.3359
13053WAT      O54016   0.437   3.698   4.706 -0.0789 -0.6575 -1.1812
13053WAT     H154017   0.437   3.609   4.673 -0.3316 -1.6468  1.2579
13053WAT     H254018   0.353   3.706   4.751 -0.2422  0.9836 -1.7037
13053WAT    EPW54019   0.426   3.688   4.708 -0.1338 -0.5715 -0.9286
13054WAT      O54020   4.238   9.732   4.763  0.0087  0.1247  0.5267
13054WAT     H154021   4.160   9.693   4.802 -0.0577 -0.2550  0.0284
13054WAT     H254022   4.290   9.657   4.732  1.4397  0.2519  2.4317
13054WAT    EPW54023   4.235   9.717   4.764  0.1886  0.0916  0.7122
13055WAT      O54024  -3.453   5.640   3.616  0.8229  0.3827 -0.2119
13055WAT     H154025  -3.392   5.713   3.617  1.8042 -0.4209 -0.1661
13055WAT     H254026  -3.402   5.566   3.584 -0.7533  0.2314 -2.6380
13055WAT    EPW54027  -3.438   5.640   3.612  0.7443  0.2565 -0.5260
13056WAT      O54028   3.808   0.581   3.012 -0.3206 -0.7596  0.9787
13056WAT     H154029   3.827   0.655   3.069 -1.9279 -0.1134  0.7275
13056WAT     H254030   3.792   0.508   3.072 -3.3541  0.2283  1.5197
13056WAT    EPW54031   3.809   0.581   3.027 -0.9327 -0.5441  1.0169
13057WAT      O54032  -0.657   1.357   3.533 -0.3916  0.3655 -0.1778
13057WAT     H154033  -0.674   1.451   3.529 -1.2473  0.1947 -1.5484
13057WAT     H254034  -0.721   1.320   3.472  1.3565 -0.8965 -1.3273
13057WAT    EPW54035  -0.668   1.365   3.524 -0.2739  0.1766 -0.5101
13058WAT      O54036  -1.835   1.889   4.130  0.2256  0.7724 -0.7149
13058WAT     H154037  -1.875   1.943   4.061 -0.9095 -0.9561 -1.4841
13058WAT     H254038  -1.895   1.897   4.204 -0.7465 -0.5172 -1.3189
13058WAT    EPW54039  -1.848   1.898   4.130 -0.0524  0.3743 -0.8960
13059WAT      O54040  -1.200   3.342   4.142 -0.0737 -1.0371 -0.8133
13059WAT     H154041  -1.280   3.382   4.175  1.3647  0.2867  1.3349
13059WAT     H254042  -1.169   3.288   4.214  1.6538 -0.4223 -1.0531
13059WAT    EPW54043  -1.206   3.340   4.156  0.3438 -0.7814 -0.5615
13060WAT      O54044   7.382   5.727   1.160 -0.8623 -0.1707 -0.1479
13060WAT     H154045   7.440   5.803   1.153 -0.8077  0.0476  1.9069
13060WAT     H254046   7.336   5.740   1.243  0.1227 -3.0022  0.9709
13060WAT    EPW54047   7.384   5.739   1.170 -0.7250 -0.5155  0.2707
13061WAT      O54048   3.339   9.751   2.031 -0.1497  0.0486 -0.8236
13061WAT     H154049   3.377   9.736   2.118 -3.4223 -2.3844  0.4104
13061WAT     H254050   3.257   9.798   2.050 -0.6109  0.0584 -2.6819
13061WAT    EPW54051   3.333   9.755   2.045 -0.6422 -0.2713 -0.9059
13062WAT      O54052  -2.146   9.326   8.452 -0.4749 -0.0341  0.6325
13062WAT     H154053  -2.150   9.422   8.451  0.9649  0.1102 -2.3807
13062WAT     H254054  -2.067   9.307   8.502 -0.0110  0.4722  0.1255
13062WAT    EPW54055  -2.136   9.336   8.458 -0.2236  0.0515  0.1683
13063WAT      O54056  -4.577   2.367   6.239  0.2230 -0.1009  0.0707
13063WAT     H154057  -4.642   2.370   6.310  0.5936  2.5085  0.4260
13063WAT     H254058  -4.625   2.397   6.162  0.5212 -0.0238 -0.0854
13063WAT    EPW54059  -4.592   2.372   6.238  0.3114  0.2534  0.0968
13064WAT      O54060  -5.573   3.619   7.225  0.8307  0.2477  0.1383
13064WAT     H154061  -5.483   3.650   7.224  0.6265  0.8264 -0.7030
13064WAT     H254062  -5.588   3.586   7.137 -0.3889  1.9445 -0.3169
13064WAT    EPW54063  -5.563   3.618   7.214  0.6430  0.5478 -0.0327
13065WAT      O54064  -3.885   9.754   2.653  0.1420 -0.4329 -0.3280
13065WAT     H154065  -3.809   9.776   2.707  2.0179  0.1155 -2.9278
13065WAT     H254066  -3.956   9.740   2.715  2.1209 -0.0246  2.2186
13065WAT    EPW54067  -3.884   9.755   2.668  0.6504 -0.3066 -0.3350
13066WAT      O54068  -0.413   1.265   2.601 -0.4654 -0.5957  0.0760
13066WAT     H154069  -0.371   1.194   2.650 -0.7621 -1.1766 -0.5011
13066WAT     H254070  -0.506   1.243   2.603 -0.6959  0.3621  0.8278
13066WAT    EPW54071  -0.420   1.253   2.608 -0.5350 -0.5460  0.0992
13067WAT      O54072  -2.226   6.083   1.681  0.1668  0.0186 -0.2687
13067WAT     H154073  -2.208   6.010   1.740  0.6908  0.4391  0.1053
13067WAT     H254074  -2.179   6.062   1.601 -0.1599 -0.3286 -0.3706
13067WAT    EPW54075  -2.218   6.071   1.678  0.1929  0.0284 -0.2328
13068WAT      O54076   8.880   2.707   1.359  0.2186  0.4711  0.8575
13068WAT     H154077   8.791   2.676   1.377  0.6704 -0.4747  1.5448
13068WAT     H254078   8.868   2.797   1.327 -0.9121  0.7186  1.9216
13068WAT    EPW54079   8.867   2.715   1.357  0.1287  0.3790  1.0885
13069WAT      O54080   3.160   6.339   3.503 -0.2025 -0.1871  0.1751
13069WAT     H154081   3.186   6.363   3.592 -0.8545  1.2416  0.0169
13069WAT     H254082   3.225   6.275   3.475 -1.4703 -2.7008  2.5959
13069WAT    EPW54083   3.172   6.334   3.511 -0.4557 -0.3302  0.4735
13070WAT      O54084  -1.174   9.234   4.072 -0.1631 -0.6328 -0.1364
13070WAT     H154085  -1.256   9.278   4.048  0.0042  0.2128  0.8269
13070WAT     H254086  -1.176   9.153   4.021  0.7866  1.5724 -4.0899
13070WAT    EPW54087  -1.185   9.229   4.062 -0.0158 -0.2303 -0.5307
13071WAT      O54088  -1.588   9.428   0.057 -0.3026  0.1098  0.1587
13071WAT     H154089  -1.619   9.457   0.143 -1.8972 -0.9639  0.0080
13071WAT     H254090  -1.601   9.503  -0.000 -1.0153  0.2484  0.4903
13071WAT    EPW54091  -1.594   9.441   0.061 -0.6070 -0.0138  0.1826
13072WAT      O54092  -1.705   3.040   4.017  0.9022  0.4807 -0.0863
13072WAT     H154093  -1.738   3.103   4.081  1.3298  0.6713 -0.0484
13072WAT     H254094  -1.782   3.012   3.968  0.3242 -0.7938  1.4752
13072WAT    EPW54095  -1.719   3.044   4.019  0.8824  0.3377  0.1247
13073WAT      O54096   5.957   3.240   3.210  0.2552 -0.1623 -0.0835
13073WAT     H154097   5.949   3.230   3.305 -0.4916 -1.0752 -0.2255
13073WAT     H254098   5.890   3.303   3.187 -1.0808 -1.6019 -0.2577
13073WAT    EPW54099   5.947   3.247   3.220 -0.0196 -0.4725 -0.1252
13074WAT      O54100   0.348   1.313   7.597 -0.2118  0.5643  0.3539
13074WAT     H154101   0.429   1.304   7.546 -1.4046  2.3258 -2.0933
13074WAT     H254102   0.338   1.407   7.609 -2.8504  0.5958 -1.2468
13074WAT    EPW54103   0.358   1.324   7.592 -0.7171  0.8008 -0.1802
13075WAT      O54104  -3.963   9.904   4.871  0.1790  0.2593 -0.0093
13075WAT     H154105  -3.993   9.851   4.796  0.3178 -0.6109  0.5370
13075WAT     H254106  -3.869   9.890   4.875  0.2251  0.5910  0.1145
13075WAT    EPW54107  -3.955   9.895   4.861  0.2033  0.1884  0.0794
13076WAT      O54108  -3.740   5.559   8.835 -0.1005 -0.1272  0.2017
13076WAT     H154109  -3.825   5.543   8.794  0.3806  0.4059 -1.0502
13076WAT     H254110  -3.690   5.479   8.818 -0.2640 -0.3377  0.7095
13076WAT    EPW54111  -3.744   5.546   8.827 -0.0585 -0.0846  0.1035
13077WAT      O54112  -1.365   9.527   2.103 -0.5567 -0.0115  0.3863
13077WAT     H154113  -1.428   9.492   2.166 -0.5754  0.9114  0.8979
13077WAT     H254114  -1.411   9.523   2.019 -2.9607  4.1562  1.1900
13077WAT    EPW54115  -1.380   9.522   2.100 -0.8763  0.6595  0.5598
13078WAT      O54116  -5.446   3.380   8.250 -0.3508 -0.0035  0.0236
13078WAT     H154117  -5.440   3.292   8.211  0.2711 -0.3765  0.9324
13078WAT     H254118  -5.534   3.410   8.226 -0.0999 -0.3256 -1.4119
13078WAT    EPW54119  -5.457   3.372   8.242 -0.2358 -0.0951 -0.0458
13079WAT      O54120  -5.149   7.324   7.754 -0.2771 -0.1126  0.8818
13079WAT     H154121  -5.158   7.414   7.785  0.9274 -0.0599  1.1451
13079WAT     H254122  -5.144   7.332   7.659 -3.4944 -0.2317  0.5942
13079WAT    EPW54123  -5.149   7.337   7.745 -0.5426 -0.1214  0.8783
13080WAT      O54124  -0.264   8.247   5.244 -0.1760 -0.1603 -0.0775
13080WAT     H154125  -0.278   8.341   5.233 -0.6358 -0.0393  1.3284
13080WAT     H254126  -0.299   8.208   5.163  0.0035  0.8614 -0.6671
13080WAT    EPW54127  -0.270   8.255   5.232 -0.2130 -0.0095  0.0300
13081WAT      O54128   2.396   1.465   4.565  0.7048 -0.4493 -0.3093
13081WAT     H154129   2.364   1.380   4.534  0.1480  0.3058 -1.8881
13081WAT     H254130   2.370   1.468   4.657 -1.3647 -1.0427 -0.8161
13081WAT    EPW54131   2.388   1.454   4.573  0.3583 -0.4280 -0.5844
13082WAT      O54132  -6.078   4.482   8.699  0.2717  0.8037  0.4729
13082WAT     H154133  -6.164   4.449   8.673  0.5087  0.7189 -0.2204
13082WAT     H254134  -6.043   4.414   8.756  1.1817 -0.7162 -1.7494
13082WAT    EPW54135  -6.085   4.469   8.703  0.4230  0.5922  0.0887
13083WAT      O54136  -0.456   4.324   3.686 -0.0895  0.0994  0.1876
13083WAT     H154137  -0.413   4.406   3.708 -0.2903  0.2214  0.1229
13083WAT     H254138  -0.439   4.266   3.761  1.8962 -0.5175 -0.6822
13083WAT    EPW54139  -0.448   4.327   3.699  0.1459  0.0341  0.0644
13084WAT      O54140  -3.027   7.776   4.041 -0.3389 -0.1125  0.2246
13084WAT     H154141  -2.947   7.729   4.064 -1.1871 -1.3108  0.8343
13084WAT     H254142  -3.054   7.819   4.122  1.1341  2.6714 -0.6003
13084WAT    EPW54143  -3.020   7.776   4.054 -0.2564  0.0966  0.1960
13085WAT      O54144   6.556   6.663   1.191  0.4292 -0.4766 -0.8141
13085WAT     H154145   6.617   6.609   1.141  0.8626  0.2789 -1.1167
13085WAT     H254146   6.505   6.708   1.124  0.8692  0.3818 -0.5828
13085WAT    EPW54147   6.557   6.662   1.176  0.5443 -0.2637 -0.8235
13086WAT      O54148  -2.408   5.257   8.330 -0.5228 -0.2448  0.2160
13086WAT     H154149  -2.333   5.275   8.274  1.0389  1.9769  2.7371
13086WAT     H254150  -2.373   5.204   8.401 -1.5517 -0.0185  0.9208
13086WAT    EPW54151  -2.394   5.253   8.332 -0.4525  0.0782  0.6418
13087WAT      O54152   0.995   5.864   7.303 -0.2292 -0.2767 -0.2321
13087WAT     H154153   0.926   5.831   7.246 -0.4153 -1.0157  0.4048
13087WAT     H254154   1.020   5.789   7.356  2.0646 -0.4139 -1.4138
13087WAT    EPW54155   0.989   5.850   7.302  0.0488 -0.3920 -0.3037
13088WAT      O54156   2.428   2.307   0.174 -0.3039 -0.0767  0.0664
13088WAT     H154157   2.370   2.231   0.176 -0.5141  0.0658 -0.5384
13088WAT     H254158   2.444   2.323   0.081  0.4609  0.0729  0.2140
13088WAT    EPW54159   2.423   2.299   0.162 -0.2307 -0.0381  0.0061
13089WAT      O54160   6.167   9.136   1.619  0.8155  0.4150  0.5553
13089WAT     H154161   6.158   9.060   1.561 -0.5149  1.6057 -0.8648
13089WAT     H254162   6.096   9.194   1.594  0.5266  1.2456  3.0452
13089WAT    EPW54163   6.156   9.134   1.608  0.6020  0.6814  0.6964
13090WAT      O54164   4.605   0.259   0.776  0.1759 -0.0958 -0.5707
13090WAT     H154165   4.565   0.270   0.690  1.5382 -3.5642 -1.8299
13090WAT     H254166   4.697   0.280   0.763  0.0940  1.1574  0.5842
13090WAT    EPW54167   4.612   0.263   0.763  0.3448 -0.3880 -0.5845
13091WAT      O54168   0.396   7.049   4.591 -0.2997 -0.5734 -0.0135
13091WAT     H154169   0.370   7.138   4.568  1.5488 -0.4272 -1.8690
13091WAT     H254170   0.331   6.993   4.550 -2.8510 -0.1505  3.1071
13091WAT    EPW54171   0.384   7.053   4.583 -0.3924 -0.4983  0.1533
13092WAT      O54172   2.787   1.850   6.673  0.5472  1.3153  0.6539
13092WAT     H154173   2.767   1.790   6.745 -0.1421  0.5645 -0.1408
13092WAT     H254174   2.882   1.845   6.663  0.3999 -0.6242 -0.1958
13092WAT    EPW54175   2.797   1.841   6.681  0.4368  0.9605  0.4370
13093WAT      O54176   0.769   2.245   2.465 -0.8109 -0.0496  0.5849
13093WAT     H154177   0.704   2.310   2.491 -1.1551 -0.3548  0.4988
13093WAT     H254178   0.765   2.178   2.533 -1.0706 -0.4003  0.2291
13093WAT    EPW54179   0.760   2.245   2.477 -0.8906 -0.1360  0.5265
13094WAT      O54180  -2.884   1.098   5.084 -0.1262  0.0945 -0.6024
13094WAT     H154181  -2.925   1.184   5.077  0.8221  0.5333 -1.0106
13094WAT     H254182  -2.843   1.098   5.170  2.6552  1.3879 -1.7847
13094WAT    EPW54183  -2.884   1.109   5.094  0.3657  0.3231 -0.8123
13095WAT      O54184   2.030   2.799   1.929  0.3619  0.9196 -0.5876
13095WAT     H154185   1.938   2.824   1.932  0.3122  0.6548  0.2495
13095WAT     H254186   2.073   2.858   1.991  1.2963  3.1081 -3.1338
13095WAT    EPW54187   2.024   2.810   1.937  0.4785  1.1734 -0.8129
13096WAT      O54188   3.229   8.753   1.989 -0.3966 -0.2335  0.4969
13096WAT     H154189   3.243   8.696   1.913  0.5570  0.6777 -0.0406
13096WAT     H254190   3.139   8.733   2.017 -1.2636  0.2787 -1.6465
13096WAT    EPW54191   3.219   8.743   1.982 -0.3852 -0.0458  0.1433
13097WAT      O54192   0.440   4.055   3.302 -0.4345  0.1323  0.2826
13097WAT     H154193   0.500   4.020   3.236 -1.0628 -1.3909  0.4796
13097WAT     H254194   0.391   4.123   3.256 -0.4319 -0.4816 -0.6471
13097WAT    EPW54195   0.441   4.059   3.287 -0.5170 -0.1495  0.1860
13098WAT      O54196  -1.080   8.521   4.203  1.1843  0.3665  0.4906
13098WAT     H154197  -1.128   8.448   4.164  0.1240  1.8208 -1.0337
13098WAT     H254198  -1.026   8.480   4.271 -2.1523 -1.3930  2.3250
13098WAT    EPW54199  -1.079   8.506   4.207  0.6045  0.3262  0.5317
13099WAT      O54200   2.220   0.640   3.455  0.1215 -0.0845  0.0442
13099WAT     H154201   2.301   0.676   3.492  0.5325 -0.6684 -0.2821
13099WAT     H254202   2.155   0.710   3.468  0.9818  0.9052 -0.8508
13099WAT    EPW54203   2.222   0.654   3.462  0.2892 -0.0310 -0.1169
13100WAT      O54204  -0.556   5.026   3.255 -0.6188  0.3069  0.6732
13100WAT     H154205  -0.651   5.030   3.265 -0.5250  2.6302  0.9933
13100WAT     H254206  -0.543   5.000   3.163 -1.5307 -0.4634  0.7452
13100WAT    EPW54207  -0.566   5.023   3.244 -0.7267  0.5119  0.7249
13101WAT      O54208  -2.591   3.759   8.726 -0.8756 -0.2588  0.1833
13101WAT     H154209  -2.673   3.809   8.728  1.0407  3.5798 -3.1369
13101WAT     H254210  -2.566   3.758   8.634  2.1171 -2.6923  0.8618
13101WAT    EPW54211  -2.599   3.765   8.714 -0.2280 -0.0734 -0.1650
13102WAT      O54212  -3.614   7.929   4.287 -0.1445  0.6592 -0.1174
13102WAT     H154213  -3.639   7.837   4.293 -1.9036  0.9606 -1.8664
13102WAT     H254214  -3.696   7.977   4.295  0.7205  2.0969  0.5880
13102WAT    EPW54215  -3.628   7.923   4.289 -0.2625  0.8886 -0.2551
13103WAT      O54216   4.519   1.774   0.735  0.2267  0.2339 -0.4485
13103WAT     H154217   4.550   1.760   0.824 -1.2024 -1.8935 -0.2099
13103WAT     H254218   4.516   1.686   0.697 -0.1958  0.9912 -2.2577
13103WAT    EPW54219   4.523   1.761   0.742 -0.0174  0.0532 -0.6557
13104WAT      O54220   4.435   9.464   4.843 -0.5302  0.7481  0.5253
13104WAT     H154221   4.348   9.434   4.868 -1.4181  2.6543 -0.0412
13104WAT     H254222   4.475   9.491   4.925 -0.7202  0.4623  0.7143
13104WAT    EPW54223   4.429   9.464   4.857 -0.6723  0.9618  0.4754
13105WAT      O54224  -1.907   2.319   8.389  0.3214 -0.2753 -0.3331
13105WAT     H154225  -1.902   2.324   8.294  0.8635 -1.2664 -0.3695
13105WAT     H254226  -1.989   2.364   8.411  1.6763  2.6989 -0.9885
13105WAT    EPW54227  -1.917   2.325   8.379  0.5715 -0.0137 -0.4244
13106WAT      O54228  -1.962   0.295   8.118  0.5442 -0.0854  0.6344
13106WAT     H154229  -1.933   0.268   8.205 -1.0107 -1.6200  0.7393
13106WAT     H254230  -1.910   0.242   8.058 -1.7219 -2.7420  0.8186
13106WAT    EPW54231  -1.952   0.285   8.121  0.0402 -0.6382  0.6728
13107WAT      O54232  -1.045   9.137   7.666  0.4220  0.4909 -0.1155
13107WAT     H154233  -1.038   9.214   7.722 -0.7642  0.7177 -0.2506
13107WAT     H254234  -1.127   9.096   7.692  0.1394  0.2787 -1.2821
13107WAT    EPW54235  -1.055   9.142   7.677  0.2282  0.4930 -0.2871
13108WAT      O54236   5.161  10.134   2.443  0.2874  0.2897 -0.1131
13108WAT     H154237   5.186  10.215   2.398  0.0427 -0.9340 -2.6413
13108WAT     H254238   5.231  10.120   2.507  0.5492  2.2563  0.0864
13108WAT    EPW54239   5.174  10.143   2.446  0.2897  0.3877 -0.4202
13109WAT      O54240  -3.435   3.392   6.322 -0.3586  0.3347  1.0239
13109WAT     H154241  -3.382   3.315   6.338 -1.3576 -1.0228 -1.6258
13109WAT     H254242  -3.519   3.372   6.363 -0.4460  0.2537  0.8048
13109WAT    EPW54243  -3.439   3.379   6.329 -0.5019  0.1450  0.6456
13110WAT      O54244   3.568   0.804   0.966 -0.6188 -0.0062  0.0615
13110WAT     H154245   3.553   0.881   0.912  0.9806 -0.3291 -0.9025
13110WAT     H254246   3.573   0.838   1.056  1.8111  1.3265 -0.5025
13110WAT    EPW54247   3.567   0.819   0.971 -0.0874  0.1270 -0.1400
13111WAT      O54248  -2.178   1.572   4.166 -0.2583  0.3636 -0.5645
13111WAT     H154249  -2.174   1.655   4.118  1.0345 -1.4388 -3.9200
13111WAT     H254250  -2.182   1.598   4.258 -2.1103  4.1312 -1.4820
13111WAT    EPW54251  -2.178   1.586   4.172 -0.3320  0.6228 -1.1282
13112WAT      O54252   6.874   4.122   0.432 -0.1346 -0.1632  0.4247
13112WAT     H154253   6.824   4.086   0.504  1.2811 -0.0988  1.4833
13112WAT     H254254   6.843   4.212   0.424 -1.5747 -0.7010 -0.2688
13112WAT    EPW54255   6.864   4.129   0.440 -0.1378 -0.2255  0.4728
13113WAT      O54256   4.598   6.068   4.249  0.3372  0.5030  0.2218
13113WAT     H154257   4.508   6.101   4.247  0.3857  0.9649  2.4628
13113WAT     H254258   4.632   6.086   4.162 -1.2240  1.8618 -0.1630
13113WAT    EPW54259   4.591   6.075   4.237  0.1380  0.7432  0.4666
13114WAT      O54260   1.863   2.901   4.801 -0.2019  0.3011 -0.4212
13114WAT     H154261   1.903   2.838   4.741 -1.2471  1.3324 -2.2615
13114WAT     H254262   1.933   2.962   4.822  0.0438  0.2217 -0.9985
13114WAT    EPW54263   1.878   2.901   4.796 -0.3073  0.4267 -0.7401
13115WAT      O54264   5.526   0.353   6.129 -0.5765  0.9858  1.0223
13115WAT     H154265   5.524   0.261   6.154 -2.1021  0.2596 -1.3799
13115WAT     H254266   5.613   0.365   6.090 -0.0441  0.8156  2.1383
13115WAT    EPW54267   5.537   0.343   6.127 -0.7074  0.8676  0.8528
13116WAT      O54268   4.653   1.161   3.539 -0.6308  0.6586  0.5069
13116WAT     H154269   4.725   1.114   3.580 -0.8068  1.3801  1.6794
13116WAT     H254270   4.658   1.249   3.575 -2.6771  0.4661  1.3807
13116WAT    EPW54271   4.663   1.166   3.549 -0.9241  0.7284  0.7769
13117WAT      O54272  -3.611   9.014   1.768 -0.1523 -0.4550 -1.2645
13117WAT     H154273  -3.670   9.021   1.843  0.2435 -1.6827 -0.8045
13117WAT     H254274  -3.640   9.082   1.707 -0.4119  0.6436  0.0440
13117WAT    EPW54275  -3.622   9.024   1.770 -0.1343 -0.4725 -1.0312
13118WAT      O54276   2.629   6.817   8.066  0.9894 -0.8078  0.3225
13118WAT     H154277   2.584   6.768   7.997 -4.1396  1.3485  1.6881
13118WAT     H254278   2.660   6.897   8.023  0.3809 -0.7638 -0.0386
13118WAT    EPW54279   2.627   6.821   8.051  0.2327 -0.5176  0.4554
13119WAT      O54280   0.388   0.312   7.628 -0.4285 -0.0454 -0.0755
13119WAT     H154281   0.345   0.243   7.678  1.2128 -0.0590  1.3972
13119WAT     H254282   0.368   0.291   7.537 -3.4493 -0.0653  0.4709
13119WAT    EPW54283   0.379   0.300   7.623 -0.6104 -0.0498  0.1910
13120WAT      O54284   2.656   1.540   8.467  0.1475  0.1992  0.5617
13120WAT     H154285   2.724   1.564   8.530 -0.8638 -1.3523  2.3711
13120WAT     H254286   2.667   1.600   8.395  3.5446 -0.1007  0.6970
13120WAT    EPW54287   2.666   1.551   8.466  0.4622 -0.0450  0.8183
13121WAT      O54288   1.536   8.066   3.381  0.0392  0.6330 -0.3042
13121WAT     H154289   1.579   8.139   3.337 -1.1774  1.6700  0.1867
13121WAT     H254290   1.483   8.024   3.313  0.3874  0.4617 -0.4760
13121WAT    EPW54291   1.535   8.070   3.366 -0.0753  0.7472 -0.2620
13122WAT      O54292   0.683   8.486   4.272  0.5445 -0.7131  0.2521
13122WAT     H154293   0.599   8.497   4.317  0.8400 -0.2557  0.6914
13122WAT     H254294   0.659   8.445   4.188 -0.0961 -0.7583  0.4490
13122WAT    EPW54295   0.669   8.482   4.267  0.4990 -0.6590  0.3362
13123WAT      O54296   4.700   2.013   9.004 -0.6370  0.2038  0.5032
13123WAT     H154297   4.781   2.045   8.966 -0.2978 -0.0892  0.9736
13123WAT     H254298   4.642   2.000   8.929 -0.2992  0.5512  0.1794
13123WAT    EPW54299   4.703   2.016   8.989 -0.5476  0.2110  0.5221
13124WAT      O54300  -2.533  10.326   1.052 -0.1008 -0.7862  0.6104
13124WAT     H154301  -2.556  10.302   0.963  1.3273  0.1147 -0.0523
13124WAT     H254302  -2.590  10.401   1.073  1.4001  0.7775 -0.6221
13124WAT    EPW54303  -2.543  10.333   1.043  0.2855 -0.4611  0.3604
13125WAT      O54304  -4.170   7.298   8.449  0.1159  0.0326  0.0673
13125WAT     H154305  -4.215   7.217   8.425 -1.0434  0.7744 -0.3433
13125WAT     H254306  -4.238   7.351   8.490  0.2240  1.7361 -1.7990
13125WAT    EPW54307  -4.185   7.294   8.451 -0.0229  0.3550 -0.2332
13126WAT      O54308  -0.927   4.271   7.211 -0.1403  0.8247  0.4091
13126WAT     H154309  -0.863   4.334   7.180  1.6054 -1.2816 -0.5936
13126WAT     H254310  -0.886   4.230   7.287 -1.7260  1.6065  1.7474
13126WAT    EPW54311  -0.914   4.274   7.217 -0.1192  0.6499  0.4535
13127WAT      O54312  -0.098   4.260   4.431 -1.0798 -0.0142  0.8751
13127WAT     H154313  -0.071   4.311   4.354 -2.0834 -0.5469  0.1556
13127WAT     H254314  -0.074   4.316   4.506 -0.4000  0.6586  0.1765
13127WAT    EPW54315  -0.091   4.274   4.431 -1.1225  0.0045  0.6878
13128WAT      O54316  -3.231  10.335   5.091 -0.8095 -0.8319 -0.7059
13128WAT     H154317  -3.165  10.291   5.144 -1.2433 -3.5309 -2.2132
13128WAT     H254318  -3.310  10.333   5.145 -0.8742 -2.1845 -0.8113
13128WAT    EPW54319  -3.232  10.329   5.105 -0.8752 -1.3666 -0.9186
13129WAT      O54320  -2.370   3.975   6.035  0.8996  0.0915 -0.7846
13129WAT     H154321  -2.303   3.974   6.104  0.6419 -2.3834 -0.5048
13129WAT     H254322  -2.452   3.988   6.082  0.9527  1.1395 -0.9430
13129WAT    EPW54323  -2.372   3.977   6.050  0.8726 -0.0968 -0.7687
13130WAT      O54324  -2.126   7.050   7.909 -0.0307  0.3043 -0.2902
13130WAT     H154325  -2.141   7.122   7.970 -2.7926  1.4953 -2.1682
13130WAT     H254326  -2.187   7.067   7.837  2.6491 -1.2813 -3.1694
13130WAT    EPW54327  -2.136   7.062   7.908 -0.0416  0.2525 -0.9177
13131WAT      O54328   1.681   1.045   3.572  0.5464  0.4436 -0.2745
13131WAT     H154329   1.622   0.993   3.519  0.8552 -0.4970  0.2812
13131WAT     H254330   1.743   0.982   3.608  0.2082  1.0018  1.3821
13131WAT    EPW54331   1.682   1.030   3.570  0.5426  0.3932  0.0173
13132WAT      O54332  -3.968   2.990   7.371  0.3695 -0.4247  0.0928
13132WAT     H154333  -3.933   2.989   7.282  0.2278  1.5076 -0.0119
13132WAT     H254334  -3.892   3.003   7.426  0.2617  0.0004  0.1399
13132WAT    EPW54335  -3.954   2.991   7.366  0.3368 -0.1138  0.0851
13133WAT      O54336   2.613   0.980   0.528 -0.4245  0.5975 -0.5558
13133WAT     H154337   2.529   0.960   0.488  0.3833 -0.6673 -1.7153
13133WAT     H254338   2.614   1.075   0.536 -1.9403  0.6310 -0.5254
13133WAT    EPW54339   2.602   0.990   0.524 -0.5180  0.4351 -0.7047
13134WAT      O54340   1.547   2.365   5.285 -0.0593  0.1276 -0.0834
13134WAT     H154341   1.516   2.450   5.254  2.4379  1.3938  0.6352
13134WAT     H254342   1.607   2.335   5.217 -1.1937 -1.3115 -0.5100
13134WAT    EPW54343   1.551   2.373   5.272  0.1205  0.1049 -0.0448
13135WAT      O54344   5.413   4.765   1.511 -0.0656  0.3337  0.6936
13135WAT     H154345   5.477   4.827   1.476  0.2811 -0.1293  0.5028
13135WAT     H254346   5.374   4.810   1.586  0.5144  0.5955  0.8390
13135WAT    EPW54347   5.416   4.779   1.516  0.0567  0.3073  0.6876
13136WAT      O54348   4.481   5.359   2.225  0.6535  0.2281  1.0034
13136WAT     H154349   4.522   5.386   2.307  0.4359  0.6659  0.9667
13136WAT     H254350   4.463   5.440   2.179  5.3890  0.0219 -1.8292
13136WAT    EPW54351   4.484   5.373   2.230  1.2496  0.2587  0.6250
13137WAT      O54352   4.374   1.267   3.515 -0.2242 -0.1700 -0.2668
13137WAT     H154353   4.449   1.276   3.456 -0.9591 -0.9463 -1.3529
13137WAT     H254354   4.403   1.208   3.584 -0.2824 -1.6851 -1.4986
13137WAT    EPW54355   4.387   1.261   3.516 -0.3290 -0.4722 -0.5724
13138WAT      O54356   4.767   0.615   2.007 -0.9147  0.1336 -0.3670
13138WAT     H154357   4.730   0.582   1.926 -2.1526  0.1480  0.1758
13138WAT     H254358   4.774   0.709   1.995 -6.2621  1.0789  1.3721
13138WAT    EPW54359   4.763   0.623   1.995 -1.7831  0.2602 -0.0661
13139WAT      O54360  -1.506   7.069   4.732 -0.0022 -0.8432 -0.1904
13139WAT     H154361  -1.590   7.082   4.777  1.6935  1.9494  2.5640
13139WAT     H254362  -1.472   6.987   4.767  0.7911  0.7398  3.1136
13139WAT    EPW54363  -1.513   7.060   4.742  0.3261 -0.2661  0.6087
13140WAT      O54364   3.427   0.410   1.534  0.4604  0.4093 -0.6861
13140WAT     H154365   3.337   0.422   1.505  0.3044  0.3815 -0.2172
13140WAT     H254366   3.420   0.353   1.611  0.8800  0.3749 -0.6721
13140WAT    EPW54367   3.414   0.404   1.541  0.4953  0.4011 -0.6225
13141WAT      O54368   7.026   6.682   0.568  0.8257 -0.5265 -0.8480
13141WAT     H154369   7.021   6.758   0.626 -1.6675 -0.0934 -1.4898
13141WAT     H254370   7.084   6.709   0.497  1.5490  0.0234 -0.0643
13141WAT    EPW54371   7.033   6.695   0.566  0.5925 -0.3967 -0.8293
13142WAT      O54372   1.888   5.745   8.419 -0.5021 -0.4372 -0.8812
13142WAT     H154373   1.811   5.772   8.468 -0.2477 -1.0993 -0.0946
13142WAT     H254374   1.897   5.652   8.436  1.9342  0.0502  1.1952
13142WAT    EPW54375   1.879   5.736   8.427 -0.1472 -0.4601 -0.5035
13143WAT      O54376   4.721   5.073   5.531 -0.3065  0.6447 -0.3964
13143WAT     H154377   4.789   5.137   5.552  0.2593  0.2976 -1.1126
13143WAT     H254378   4.757   5.022   5.459 -1.8733  1.3223 -1.7207
13143WAT    EPW54379   4.735   5.074   5.524 -0.4387  0.6881 -0.6654
13144WAT      O54380   4.012  10.067   1.231 -0.2221  0.5877 -0.3829
13144WAT     H154381   4.035  10.047   1.322 -1.8646  0.5140  0.0582
13144WAT     H254382   4.059  10.147   1.212 -2.6371  2.7602  1.8676
13144WAT    EPW54383   4.021  10.075   1.240 -0.7575  0.8645 -0.0280
13145WAT      O54384   6.813   8.060   0.574  0.5754  0.8757 -0.2068
13145WAT     H154385   6.764   7.994   0.526  0.5188  1.5728 -1.1402
13145WAT     H254386   6.817   8.135   0.515  2.1714  1.0862  0.1111
13145WAT    EPW54387   6.807   8.061   0.560  0.7787  0.9956 -0.2880
13146WAT      O54388   5.224   2.195   8.044  0.7949 -0.3612 -0.3663
13146WAT     H154389   5.226   2.100   8.057  1.1077 -0.3400 -0.2453
13146WAT     H254390   5.133   2.219   8.057  0.6480 -0.6965 -0.7721
13146WAT    EPW54391   5.213   2.186   8.047  0.8166 -0.4026 -0.4039
13147WAT      O54392   5.510   7.322   2.458 -0.0456  0.0161 -0.1815
13147WAT     H154393   5.512   7.412   2.489  0.2367 -0.4174  1.1197
13147WAT     H254394   5.421   7.293   2.474  0.1788 -0.3026  0.5361
13147WAT    EPW54395   5.499   7.330   2.464  0.0212 -0.0832  0.0849
13148WAT      O54396   5.078   8.165   2.981  0.3839  0.1514  0.4869
13148WAT     H154397   5.149   8.111   2.949  1.1518  0.7478  1.1479
13148WAT     H254398   5.088   8.163   3.077  0.4266  1.4443  0.5232
13148WAT    EPW54399   5.088   8.158   2.990  0.4907  0.4010  0.5789
13149WAT      O54400  -1.480   7.406   1.511  0.4327 -0.0970  0.4983
13149WAT     H154401  -1.401   7.461   1.512  0.7897 -0.6042  1.5296
13149WAT     H254402  -1.447   7.319   1.489 -0.1894  0.1349 -1.6170
13149WAT    EPW54403  -1.465   7.402   1.508  0.3978 -0.1335  0.3553
13150WAT      O54404   4.403   5.066   6.957 -0.3946  0.6988 -0.4634
13150WAT     H154405   4.401   5.119   6.878  1.6622  0.2141 -0.8934
13150WAT     H254406   4.474   5.104   7.010  0.0963 -0.6462 -0.1024
13150WAT    EPW54407   4.412   5.078   6.954 -0.0589  0.4573 -0.4725
13151WAT      O54408   8.344   5.759   0.332 -0.4361 -0.1617  0.0389
13151WAT     H154409   8.389   5.720   0.257 -0.1484  0.5599 -0.1753
13151WAT     H254410   8.283   5.823   0.292 -0.4715  0.0370  0.4060
13151WAT    EPW54411   8.342   5.763   0.317 -0.4029 -0.0403  0.0591
13152WAT      O54412  -4.126   7.941   4.341 -0.3183 -0.9932 -0.3196
13152WAT     H154413  -4.180   7.904   4.271  0.0761 -0.8647 -0.6980
13152WAT     H254414  -4.081   7.865   4.379  0.5728 -0.9099 -1.1663
13152WAT    EPW54415  -4.127   7.926   4.337 -0.1488 -0.9654 -0.4814
13153WAT      O54416   5.882   8.402   2.800 -0.4440  0.3786 -0.7439
13153WAT     H154417   5.840   8.488   2.808 -0.2358  0.4748 -0.6901
13153WAT     H254418   5.946   8.400   2.871  0.1973  0.5513 -1.3033
13153WAT    EPW54419   5.885   8.413   2.810 -0.3321  0.4144 -0.8105
13154WAT      O54420   4.096   0.147   2.719  0.5964 -0.2528 -0.1728
13154WAT     H154421   4.071   0.202   2.793 -0.8123 -0.7985 -0.2070
13154WAT     H254422   4.169   0.193   2.678  1.4737  0.0102  1.5992
13154WAT    EPW54423   4.102   0.160   2.724  0.5262 -0.2901  0.0564
13155WAT      O54424  -1.406   0.448   5.857  0.1009  0.0342 -0.5251
13155WAT     H154425  -1.420   0.359   5.823  0.2218 -0.0960 -0.2440
13155WAT     H254426  -1.472   0.501   5.814  0.4679 -0.0598 -1.2248
13155WAT    EPW54427  -1.416   0.443   5.847  0.1653  0.0046 -0.5801
13156WAT      O54428   4.951   4.765   1.984  0.5344 -0.2353 -0.0206
13156WAT     H154429   4.912   4.820   2.052  2.7930  2.8012 -0.9747
13156WAT     H254430   5.032   4.733   2.023  0.7197 -0.3720 -0.5157
13156WAT    EPW54431   4.956   4.768   1.998  0.8566  0.1471 -0.2117
13157WAT      O54432  -3.366   8.833   3.084  0.0869 -0.0565 -0.1931
13157WAT     H154433  -3.338   8.922   3.062 -0.9333  0.1486 -0.7387
13157WAT     H254434  -3.286   8.781   3.081  1.0808  1.1751  2.0706
13157WAT    EPW54435  -3.352   8.838   3.081  0.0834  0.1330  0.0335
13158WAT      O54436  -0.088   1.437   1.642 -0.0185 -0.8001  0.0760
13158WAT     H154437  -0.055   1.367   1.586 -0.3744  0.3276 -1.6239
13158WAT     H254438  -0.175   1.457   1.607  0.0648  0.4786  0.5348
13158WAT    EPW54439  -0.095   1.430   1.630 -0.0545 -0.4827 -0.0876
13159WAT      O54440   0.941  10.142   8.718  0.0861 -1.1652  0.1724
13159WAT     H154441   1.019  10.139   8.663 -0.5628 -1.6321 -0.7607
13159WAT     H254442   0.969  10.105   8.801  0.7107 -1.9172 -0.3550
13159WAT    EPW54443   0.955  10.137   8.722  0.0829 -1.3261 -0.0205
13160WAT      O54444   8.805   0.985   0.139 -0.6898  0.0994  0.0908
13160WAT     H154445   8.772   0.904   0.101 -1.2281 -0.3080  1.3728
13160WAT     H254446   8.899   0.985   0.119 -0.7113 -0.7700 -0.0296
13160WAT    EPW54447   8.813   0.974   0.132 -0.7639 -0.0690  0.2440
13161WAT      O54448  -2.818   7.696   7.896  0.2852 -0.1438  0.1756
13161WAT     H154449  -2.725   7.707   7.917 -0.0113  0.2315  1.3338
13161WAT     H254450  -2.820   7.622   7.835  1.1695 -1.4373  1.6478
13161WAT    EPW54451  -2.806   7.688   7.891  0.3628 -0.2649  0.5224
13162WAT      O54452   5.405   0.517   3.816  0.2497 -0.7113  0.2949
13162WAT     H154453   5.397   0.540   3.908  2.5148  0.8659  0.1851
13162WAT     H254454   5.443   0.595   3.775 -0.9820 -1.2309 -2.0621
13162WAT    EPW54455   5.409   0.530   3.822  0.3860 -0.5718 -0.0304
13163WAT      O54456   3.908   4.220   8.483 -0.2132 -0.2572 -0.3486
13163WAT     H154457   3.874   4.257   8.401 -0.0398 -2.6631 -1.6019
13163WAT     H254458   3.998   4.252   8.488 -1.1343  2.4903  0.6516
13163WAT    EPW54459   3.915   4.229   8.473 -0.3117 -0.2122 -0.3819
13164WAT      O54460   3.360   0.052   4.122 -0.2599 -0.6130  0.2386
13164WAT     H154461   3.327   0.108   4.192  0.1514 -0.7006  0.5127
13164WAT     H254462   3.391  -0.027   4.168  0.6192 -0.3929  0.0351
13164WAT    EPW54463   3.360   0.049   4.138 -0.0898 -0.5955  0.2477
13165WAT      O54464  -3.870   8.406   4.500  0.5752 -0.6690  0.1337
13165WAT     H154465  -3.863   8.362   4.416  2.2279 -1.8883  0.8600
13165WAT     H254466  -3.809   8.480   4.494 -1.4155  1.0071 -0.7030
13165WAT    EPW54467  -3.861   8.410   4.488  0.5307 -0.6089  0.1190
13166WAT      O54468   7.532   0.033   3.346 -0.3711  0.0912 -0.2192
13166WAT     H154469   7.555   0.085   3.423  2.1423 -1.2437  0.0573
13166WAT     H254470   7.437   0.027   3.347 -0.5762  2.6009  1.0705
13166WAT    EPW54471   7.523   0.039   3.356 -0.0665  0.2461 -0.0126
13167WAT      O54472  -3.201   9.150   0.578  0.4593 -0.2821 -0.7873
13167WAT     H154473  -3.223   9.102   0.657  0.2551  0.4170 -0.4089
13167WAT     H254474  -3.128   9.207   0.604 -0.6318  1.1135 -0.6416
13167WAT    EPW54475  -3.194   9.151   0.592  0.2885 -0.0057 -0.7182
13168WAT      O54476  -6.645   7.107   8.821 -0.0466 -0.2146  0.5342
13168WAT     H154477  -6.594   7.027   8.811  0.8617  0.3906  0.2144
13168WAT     H254478  -6.734   7.082   8.798  0.3279 -1.0046 -0.0861
13168WAT    EPW54479  -6.650   7.093   8.817  0.1223 -0.2391  0.4101
13169WAT      O54480   2.889   7.016   1.641  0.1896  0.0780  0.2462
13169WAT     H154481   2.950   6.948   1.613  1.3142 -0.0373  2.7052
13169WAT     H254482   2.834   6.973   1.707 -0.2947  1.0617  0.5027
13169WAT    EPW54483   2.890   7.001   1.646  0.2739  0.1924  0.6043
13170WAT      O54484   1.014   8.655   8.818  0.0436  0.4987 -0.2727
13170WAT     H154485   0.927   8.670   8.780 -1.0596  0.3677  1.9953
13170WAT     H254486   1.021   8.560   8.826  1.1072  0.4031 -1.8498
13170WAT    EPW54487   1.003   8.645   8.814  0.0384  0.4687 -0.1817
13171WAT      O54488  -1.667  10.317   8.156 -0.4727  0.2935  0.1799
13171WAT     H154489  -1.582  10.293   8.118  0.8977  1.9209  2.0243
13171WAT     H254490  -1.714  10.357   8.083  0.4177 -0.4240 -0.8278
13171WAT    EPW54491  -1.662  10.319   8.141 -0.1746  0.4134  0.2909
13172WAT      O54492  -0.614   7.478   1.937  0.2446  0.2389  0.5334
13172WAT     H154493  -0.623   7.570   1.914  0.1935 -0.0969 -0.9133
13172WAT     H254494  -0.587   7.478   2.029 -0.2539  1.6680  0.6958
13172WAT    EPW54495  -0.612   7.490   1.946  0.1721  0.3831  0.3641
13173WAT      O54496   4.690   3.277   1.861 -0.0610  0.6269  0.0582
13173WAT     H154497   4.623   3.320   1.914 -1.3418  0.8512 -1.6431
13173WAT     H254498   4.704   3.193   1.905 -0.5601  1.0809  1.1273
13173WAT    EPW54499   4.683   3.271   1.874 -0.2956  0.7163 -0.0252
13174WAT      O54500   0.134   7.111   8.110  0.0357  0.0294 -0.2565
13174WAT     H154501   0.116   7.201   8.136  2.4729  0.0404  1.8095
13174WAT     H254502   0.225   7.113   8.080 -0.2200 -1.5706 -1.2740
13174WAT    EPW54503   0.144   7.123   8.109  0.3234 -0.1802 -0.1183
13175WAT      O54504  -2.600   4.988   3.985 -0.3993 -0.4870 -0.7303
13175WAT     H154505  -2.676   4.941   3.951 -2.0437  0.3256  1.5266
13175WAT     H254506  -2.569   4.935   4.059 -1.2132  0.9769  0.7565
13175WAT    EPW54507  -2.606   4.975   3.991 -0.7235 -0.1867 -0.2365
13176WAT      O54508  -2.132   8.112   6.302 -0.6659 -0.6496  0.0097
13176WAT     H154509  -2.101   8.025   6.327 -1.6072 -1.2789 -0.9397
13176WAT     H254510  -2.080   8.134   6.224  0.8029  0.4238  1.2172
13176WAT    EPW54511  -2.121   8.104   6.295 -0.5964 -0.5908  0.0439
13177WAT      O54512   2.467   4.473   7.150  0.7028 -0.3674  0.5143
13177WAT     H154513   2.500   4.385   7.128 -2.1432 -1.0261 -1.8358
13177WAT     H254514   2.451   4.514   7.065  0.6807  1.9548  1.5659
13177WAT    EPW54515   2.469   4.467   7.136  0.3245 -0.1478  0.3431
13178WAT      O54516   1.146   5.252   1.890 -0.0123 -0.0462  0.3124
13178WAT     H154517   1.076   5.316   1.882 -0.9108 -0.8480  1.4614
13178WAT     H254518   1.200   5.285   1.962 -1.5648 -1.4795  2.2545
13178WAT    EPW54519   1.144   5.264   1.898 -0.3356 -0.3409  0.7201
13179WAT      O54520   2.271   7.329   0.901  0.2242 -0.1355 -0.0048
13179WAT     H154521   2.192   7.319   0.955  1.4215  2.2840  2.4374
13179WAT     H254522   2.267   7.420   0.872  2.3904  0.2470  0.7404
13179WAT    EPW54523   2.260   7.340   0.904  0.6678  0.2339  0.4156
13180WAT      O54524  -2.499   7.916   8.877  0.6688 -0.1360  0.7325
13180WAT     H154525  -2.561   7.883   8.942  2.2785 -0.7008  2.0639
13180WAT     H254526  -2.467   7.837   8.832  1.6304 -0.0330  1.2136
13180WAT    EPW54527  -2.503   7.901   8.879  1.0079 -0.1967  0.9713
13181WAT      O54528   4.329   0.271   7.564  0.3325  0.1085 -0.6316
13181WAT     H154529   4.250   0.301   7.518  0.4406 -1.8075 -2.1810
13181WAT     H254530   4.296   0.225   7.641 -0.0377 -0.0810 -0.9009
13181WAT    EPW54531   4.314   0.269   7.568  0.2978 -0.1692 -0.8714
13182WAT      O54532   3.894   6.558   5.124  0.0835 -0.9954 -0.0010
13182WAT     H154533   3.909   6.465   5.109 -0.9930 -1.2615  0.5026
13182WAT     H254534   3.982   6.596   5.130  0.5621 -1.5356 -2.6870
13182WAT    EPW54535   3.908   6.551   5.123  0.0046 -1.1017 -0.2887
13183WAT      O54536   3.631   3.453   8.901  0.2279  0.1060  0.1767
13183WAT     H154537   3.678   3.391   8.845  1.2616 -1.5132  2.6560
13183WAT     H254538   3.569   3.398   8.949 -1.3710  1.6056 -0.0909
13183WAT    EPW54539   3.629   3.438   8.900  0.1533  0.0902  0.4687
13184WAT      O54540  -5.182   6.752   7.943  0.3028 -0.0372  0.2962
13184WAT     H154541  -5.162   6.677   7.998  0.9417  1.9790  2.9874
13184WAT     H254542  -5.269   6.780   7.971 -0.1479 -0.0342 -1.0366
13184WAT    EPW54543  -5.191   6.746   7.954  0.3276  0.2294  0.4754
13185WAT      O54544   3.538   3.366   3.240  0.1082 -0.1905 -0.0394
13185WAT     H154545   3.493   3.282   3.244  1.2719 -0.8318  0.0712
13185WAT     H254546   3.469   3.430   3.223 -0.4977 -1.4768 -3.0719
13185WAT    EPW54547   3.523   3.364   3.238  0.1818 -0.4448 -0.4247
13186WAT      O54548  -0.854   0.740   8.360 -0.6232 -0.4402  0.5274
13186WAT     H154549  -0.829   0.648   8.353 -2.2198 -0.8560  0.0832
13186WAT     H254550  -0.903   0.746   8.441 -0.4958  0.0392  0.5759
13186WAT    EPW54551  -0.857   0.729   8.370 -0.8169 -0.4318  0.4754
13187WAT      O54552  -5.405  10.255   8.976 -0.7425 -0.3361  0.2676
13187WAT     H154553  -5.313  10.254   9.000  0.8142 -1.1092 -4.5954
13187WAT     H254554  -5.419  10.171   8.931 -3.6759  0.0350  0.2884
13187WAT    EPW54555  -5.395  10.243   8.973 -0.9241 -0.3891 -0.3710
13188WAT      O54556   1.801   6.136   0.451  0.5692 -0.7608  0.3159
13188WAT     H154557   1.720   6.132   0.502  0.1554  1.0135 -0.1682
13188WAT     H254558   1.858   6.193   0.502  1.5744 -2.0247  0.6710
13188WAT    EPW54559   1.798   6.143   0.464  0.6472 -0.6933  0.2989
13189WAT      O54560   2.957   5.502   8.290  0.1651  0.1839  0.3454
13189WAT     H154561   2.894   5.502   8.218  1.8050 -0.9410 -1.1691
13189WAT     H254562   3.013   5.578   8.273  1.7008 -1.1065 -0.7163
13189WAT    EPW54563   2.956   5.512   8.278  0.5840 -0.1347  0.0057
13190WAT      O54564   0.514   2.332   2.782 -0.1494  0.3280 -0.0446
13190WAT     H154565   0.498   2.249   2.825  0.1407 -0.0199 -0.5952
13190WAT     H254566   0.609   2.344   2.785 -0.1318  0.3336 -0.5133
13190WAT    EPW54567   0.524   2.323   2.788 -0.1088  0.2830 -0.1792
13191WAT      O54568   0.224   5.332   3.829  0.3118 -0.0762 -0.3974
13191WAT     H154569   0.282   5.279   3.884 -0.5305 -2.8808 -2.0034
13191WAT     H254570   0.284   5.385   3.776  1.1563  1.6438  2.0712
13191WAT    EPW54571   0.240   5.332   3.829  0.3121 -0.2191 -0.2836
13192WAT      O54572  -2.353   6.801   8.138  0.7191 -0.4644 -0.8714
13192WAT     H154573  -2.435   6.752   8.140 -2.0827  3.6059 -2.4410
13192WAT     H254574  -2.347   6.843   8.224  0.8919 -0.4029 -0.9130
13192WAT    EPW54575  -2.363   6.800   8.149  0.3724  0.0803 -1.0839
13193WAT      O54576  -0.346   1.805   0.892 -0.4146 -0.1497 -0.2105
13193WAT     H154577  -0.404   1.809   0.816  1.5344  1.8704 -1.7191
13193WAT     H254578  -0.315   1.895   0.904  2.0321 -1.0352  0.7974
13193WAT    EPW54579  -0.349   1.817   0.884  0.1652 -0.0001 -0.2766
13194WAT      O54580  -1.326   0.284   7.572  0.1823 -0.2901  0.0446
13194WAT     H154581  -1.371   0.213   7.526  0.9613 -0.3480 -0.6483
13194WAT     H254582  -1.297   0.343   7.503  0.0354  0.4167  0.5822
13194WAT    EPW54583  -1.328   0.282   7.557  0.2657 -0.2045  0.0241
13195WAT      O54584   0.880   1.209   8.712  0.1292 -0.3159 -0.1060
13195WAT     H154585   0.956   1.160   8.680  0.1983 -0.7681  0.7106
13195WAT     H254586   0.884   1.293   8.667  2.2018  0.4264  1.2984
13195WAT    EPW54587   0.891   1.213   8.702  0.4117 -0.2776  0.1869
13196WAT      O54588  -4.440   9.011   8.127  0.6799 -0.3265  0.6675
13196WAT     H154589  -4.373   9.019   8.194  2.6654 -0.3346 -1.2123
13196WAT     H254590  -4.399   8.958   8.058 -0.6175  1.0906 -1.3060
13196WAT    EPW54591  -4.426   9.005   8.127  0.7706 -0.1402  0.1593
13197WAT      O54592   1.099   7.938   3.425  1.0138  0.8057 -0.0952
13197WAT     H154593   1.071   7.891   3.346  0.7673  0.8542 -0.0394
13197WAT     H254594   1.020   7.943   3.478  1.3692  0.0523  0.5256
13197WAT    EPW54595   1.085   7.933   3.422  1.0281  0.7126 -0.0060
13198WAT      O54596  -5.112   7.960   6.326  0.4934  0.2721 -0.6411
13198WAT     H154597  -5.195   7.921   6.300 -0.3737 -0.4912  2.7066
13198WAT     H254598  -5.046   7.895   6.300 -0.2895 -0.5488 -0.6237
13198WAT    EPW54599  -5.114   7.946   6.319  0.2759  0.0629 -0.1974
13199WAT      O54600  -4.974   4.784   7.918  0.5637 -0.3284 -0.0457
13199WAT     H154601  -4.880   4.768   7.914  0.1038 -3.5815 -0.9279
13199WAT     H254602  -5.005   4.728   7.989 -0.8573 -0.4700 -0.7331
13199WAT    EPW54603  -4.966   4.775   7.926  0.3157 -0.7763 -0.2527
13200WAT      O54604  -1.538   3.892   7.363  0.1068 -0.0858  0.2759
13200WAT     H154605  -1.514   3.978   7.328 -1.2069  0.7589  1.3604
13200WAT     H254606  -1.502   3.830   7.300  1.1141  1.2472 -0.5199
13200WAT    EPW54607  -1.530   3.895   7.350  0.0664  0.2015  0.3140
13201WAT      O54608   2.446   3.620   0.103 -0.6572  0.7265  0.0195
13201WAT     H154609   2.461   3.714   0.106  1.0335  0.5665  4.0684
13201WAT     H254610   2.404   3.600   0.187 -1.8601 -2.0713 -1.1173
13201WAT    EPW54611   2.442   3.630   0.115 -0.5929  0.3363  0.4036
13202WAT      O54612   0.001   3.574   7.134 -0.0569 -0.0067 -0.4295
13202WAT     H154613   0.028   3.604   7.221 -0.5584  2.5339 -1.0458
13202WAT     H254614   0.011   3.652   7.078 -3.6235 -0.3242 -1.7715
13202WAT    EPW54615   0.006   3.588   7.138 -0.5935  0.2866 -0.6878
13203WAT      O54616   0.417   7.531   6.685 -0.1036 -0.1632 -0.7617
13203WAT     H154617   0.409   7.554   6.592  0.7430 -0.5754 -0.9445
13203WAT     H254618   0.446   7.440   6.685 -1.5284 -0.6445 -0.0680
13203WAT    EPW54619   0.420   7.522   6.673 -0.1798 -0.2811 -0.6943
13204WAT      O54620  -2.444   9.817   5.903  0.5051  0.3258  0.5382
13204WAT     H154621  -2.536   9.843   5.907  0.1314 -0.7631 -0.4309
13204WAT     H254622  -2.421   9.797   5.994 -0.5597 -0.4483  0.6547
13204WAT    EPW54623  -2.453   9.818   5.916  0.3154  0.0796  0.4256
13205WAT      O54624   0.357   5.092   4.846 -0.4632 -0.0762 -0.6854
13205WAT     H154625   0.429   5.085   4.782 -0.4523 -1.6264 -0.5419
13205WAT     H254626   0.340   5.001   4.872  0.3536  0.5700  2.4530
13205WAT    EPW54627   0.364   5.079   4.841 -0.3541 -0.1955 -0.2525
13206WAT      O54628   0.909   8.992   7.285 -0.0108  0.5615 -0.7071
13206WAT     H154629   0.913   8.961   7.375  0.9743  0.1605 -0.8673
13206WAT     H254630   0.982   8.947   7.242 -1.4632 -0.5635 -2.1190
13206WAT    EPW54631   0.919   8.982   7.291 -0.0725  0.3600 -0.9146
13207WAT      O54632   2.585   3.523   6.326 -0.5927  0.2765  0.5235
13207WAT     H154633   2.551   3.594   6.381 -1.9430 -1.2991  1.8318
13207WAT     H254634   2.513   3.503   6.265  0.8910  2.0323 -2.0256
13207WAT    EPW54635   2.571   3.530   6.325 -0.5751  0.3003  0.3598
13208WAT      O54636  -5.712   7.799   8.674  0.6543 -0.0530  0.6069
13208WAT     H154637  -5.751   7.885   8.687 -1.7678 -1.1764  1.4346
13208WAT     H254638  -5.773   7.753   8.615  2.5409 -0.8357 -0.8756
13208WAT    EPW54639  -5.725   7.804   8.668  0.5839 -0.3042  0.5202
13209WAT      O54640   0.705   0.723   1.395 -0.5468  0.1999 -0.0812
13209WAT     H154641   0.665   0.783   1.332 -0.6192  0.2206 -0.0155
13209WAT     H254642   0.687   0.761   1.480  0.7149  0.8765 -0.0965
13209WAT    EPW54643   0.697   0.736   1.398 -0.3899  0.2919 -0.0746
13210WAT      O54644   1.015   1.732   5.058  0.1663  0.7973  0.0133
13210WAT     H154645   1.050   1.660   5.111  1.1422  1.4166  0.2452
13210WAT     H254646   0.925   1.742   5.087 -0.5193 -1.3792 -1.1529
13210WAT    EPW54647   1.008   1.724   5.069  0.2045  0.5919 -0.1099
13211WAT      O54648   5.191   3.054   6.307  0.7404 -0.2544 -0.3374
13211WAT     H154649   5.097   3.066   6.320  0.9572  2.9158 -0.9308
13211WAT     H254650   5.227   3.052   6.395  0.2522  0.0107 -0.1262
13211WAT    EPW54651   5.183   3.055   6.320  0.7045  0.1987 -0.3879
13212WAT      O54652   2.605   6.672   5.470 -0.2830  0.1407  0.5737
13212WAT     H154653   2.521   6.707   5.442  0.5688  0.3240 -2.0799
13212WAT     H254654   2.620   6.596   5.413  2.6449  1.9024 -1.3017
13212WAT    EPW54655   2.596   6.666   5.459  0.2155  0.3972 -0.0236
13213WAT      O54656   3.171   4.573   2.534  0.1840 -0.4027 -0.4835
13213WAT     H154657   3.153   4.482   2.556 -1.5350  0.6204  2.9668
13213WAT     H254658   3.249   4.596   2.584 -0.1740  0.3691 -0.2603
13213WAT    EPW54659   3.179   4.564   2.543 -0.0900 -0.1659  0.0010
13214WAT      O54660   1.985   8.009   2.517 -0.1500 -0.6966 -0.5115
13214WAT     H154661   1.962   8.097   2.486 -0.6002 -1.0266 -1.1224
13214WAT     H254662   2.076   7.998   2.490  0.8438  0.5964  1.8823
13214WAT    EPW54663   1.994   8.019   2.510 -0.0783 -0.5693 -0.2764
13215WAT      O54664   4.129   0.478   2.527  0.5259  0.4763 -0.2135
13215WAT     H154665   4.207   0.423   2.520  0.3996  0.4340 -1.6073
13215WAT     H254666   4.126   0.526   2.444  0.9248  3.0385  1.1554
13215WAT    EPW54667   4.139   0.477   2.515  0.5617  0.8087 -0.2168
13216WAT      O54668  -1.751   4.445   4.230 -0.0588 -0.0170  0.3756
13216WAT     H154669  -1.685   4.398   4.178 -0.3882  0.8377 -0.8439
13216WAT     H254670  -1.709   4.528   4.252 -0.1629 -0.1120  0.9388
13216WAT    EPW54671  -1.737   4.450   4.226 -0.1159  0.0832  0.2892
13217WAT      O54672  -2.603   2.413   3.525 -0.2902 -0.0874 -0.8074
13217WAT     H154673  -2.565   2.443   3.442  2.5231 -2.3354 -0.4864
13217WAT     H254674  -2.544   2.449   3.592 -1.5294  0.2751  0.1121
13217WAT    EPW54675  -2.590   2.422   3.523 -0.0825 -0.3361 -0.6440
13218WAT      O54676  -3.326   9.312   4.749 -0.1966  0.3289  0.3291
13218WAT     H154677  -3.249   9.351   4.791 -0.0006  1.6179 -1.1322
13218WAT     H254678  -3.400   9.359   4.786 -0.1676  0.0962  0.6789
13218WAT    EPW54679  -3.325   9.324   4.759 -0.1669  0.4683  0.1824
13219WAT      O54680  -2.359   2.960   8.758 -0.3992 -0.6361 -0.3469
13219WAT     H154681  -2.440   3.009   8.748 -0.5531 -0.9522 -0.6484
13219WAT     H254682  -2.330   2.942   8.669  0.7587  0.7115 -0.2695
13219WAT    EPW54683  -2.366   2.964   8.745 -0.2668 -0.5000 -0.3762
13220WAT      O54684  -1.213   8.317   2.369 -0.0481 -0.5262  0.4136
13220WAT     H154685  -1.216   8.386   2.303 -0.8083 -0.6789  0.2782
13220WAT     H254686  -1.305   8.301   2.391 -0.0223 -2.6007 -0.7335
13220WAT    EPW54687  -1.225   8.324   2.363 -0.1450 -0.8202  0.2444
13221WAT      O54688   0.795   9.948   4.300 -0.5001  0.1754 -0.0307
13221WAT     H154689   0.808  10.041   4.316 -0.8095 -0.0043  1.3878
13221WAT     H254690   0.859   9.926   4.232 -0.1130  1.3185 -0.0565
13221WAT    EPW54691   0.805   9.958   4.293 -0.4898  0.3023  0.1531
13222WAT      O54692   4.503   0.599   6.392 -0.4343  0.2585 -0.3384
13222WAT     H154693   4.418   0.570   6.427 -0.3079 -0.3812 -0.5574
13222WAT     H254694   4.568   0.562   6.452 -0.3308  1.3680  0.2599
13222WAT    EPW54695   4.500   0.591   6.404 -0.4041  0.3204 -0.2885
13223WAT      O54696   3.878   7.634   2.168  0.7394 -0.4025 -0.0756
13223WAT     H154697   3.859   7.676   2.252  1.9025 -1.5952  0.8234
13223WAT     H254698   3.973   7.643   2.158  1.3513 -4.1359  0.9819
13223WAT    EPW54699   3.888   7.641   2.178  0.9735 -1.0521  0.1824
13224WAT      O54700  -3.664   7.655   7.696 -0.2164  0.3843 -1.0182
13224WAT     H154701  -3.621   7.613   7.771 -3.2648  0.3800  0.8985
13224WAT     H254702  -3.736   7.597   7.674 -2.0089  2.4667 -1.0280
13224WAT    EPW54703  -3.668   7.642   7.703 -0.8548  0.6585 -0.7668
13225WAT      O54704  -0.017   6.061   3.388  0.0936  0.7228  0.5536
13225WAT     H154705   0.066   6.085   3.428  0.6868 -1.2225  0.6114
13225WAT     H254706  -0.029   5.968   3.411 -2.1417  0.9588  0.6241
13225WAT    EPW54707  -0.008   6.052   3.396 -0.1230  0.4971  0.5705
13226WAT      O54708  -3.985   0.904   6.395  0.3190 -0.5338  0.2263
13226WAT     H154709  -3.904   0.954   6.384 -0.7095  0.8564 -1.6935
13226WAT     H254710  -3.994   0.855   6.312 -1.3063  0.1597 -0.0423
13226WAT    EPW54711  -3.975   0.904   6.382 -0.0310 -0.2590 -0.0622
13227WAT      O54712   6.237   4.033   4.736 -0.2539  0.2132  0.0372
13227WAT     H154713   6.290   4.106   4.767  1.8147 -1.3674  0.4746
13227WAT     H254714   6.231   3.975   4.812 -2.4804  0.2283 -0.0800
13227WAT    EPW54715   6.243   4.035   4.750 -0.2747  0.0067  0.0794
13228WAT      O54716  -2.251   2.080   7.976 -0.1542 -0.0292 -0.3609
13228WAT     H154717  -2.339   2.100   7.945 -0.4744  0.1438  0.6052
13228WAT     H254718  -2.211   2.029   7.906 -0.5675  0.9788 -1.3534
13228WAT    EPW54719  -2.257   2.076   7.963 -0.2508  0.1267 -0.3643
13229WAT      O54720  -1.286  10.040   8.622 -0.0084 -0.0906  0.1026
13229WAT     H154721  -1.292  10.075   8.534 -0.0850  1.6010  0.7368
13229WAT     H254722  -1.356  10.085   8.670  1.9812  1.3802  1.7584
13229WAT    EPW54723  -1.296  10.050   8.617  0.2439  0.3271  0.4044
13230WAT      O54724   2.617   1.400   7.535 -0.0291  0.6223  0.9730
13230WAT     H154725   2.678   1.419   7.606  3.3177  0.0814 -1.5181
13230WAT     H254726   2.634   1.468   7.470 -2.3249  0.5591  0.2074
13230WAT    EPW54727   2.627   1.412   7.536  0.1094  0.5426  0.5434
13231WAT      O54728   4.327   1.492   3.913  0.3702 -0.2108 -0.6017
13231WAT     H154729   4.420   1.490   3.937 -0.1363  0.1326  1.6270
13231WAT     H254730   4.303   1.399   3.907  1.4104 -0.3703 -3.8979
13231WAT    EPW54731   4.336   1.479   3.916  0.4404 -0.1865 -0.7424
13232WAT      O54732  -3.331  10.172   3.129 -0.7635  0.7306  0.0948
13232WAT     H154733  -3.293  10.252   3.093  1.8930  0.3076  1.6907
13232WAT     H254734  -3.309  10.105   3.066  1.5503  0.4543  1.0878
13232WAT    EPW54735  -3.323  10.174   3.116 -0.1080  0.6385  0.4362
13233WAT      O54736  -1.225   3.304   7.962 -0.3092  0.1918 -0.2243
13233WAT     H154737  -1.133   3.280   7.950  0.4454  2.9078 -0.6429
13233WAT     H254738  -1.230   3.332   8.054 -1.3291 -2.0422  0.4694
13233WAT    EPW54739  -1.213   3.305   7.973 -0.3443  0.2553 -0.1881
13234WAT      O54740  -6.482   9.237   6.073 -0.0654  0.0426 -0.1162
13234WAT     H154741  -6.577   9.242   6.078 -0.3948 -3.6750  0.1026
13234WAT     H254742  -6.464   9.210   5.984  0.7348 -0.1573  0.0981
13234WAT    EPW54743  -6.492   9.234   6.062 -0.0031 -0.4740 -0.0589
13235WAT      O54744   5.966   0.570   1.214 -0.0065 -0.6441 -0.2213
13235WAT     H154745   6.045   0.601   1.259 -0.7212  0.8221  0.0969
13235WAT     H254746   5.977   0.475   1.210  2.5902 -0.3739 -1.7750
13235WAT    EPW54747   5.978   0.562   1.220  0.2418 -0.4151 -0.3843
13236WAT      O54748   4.446   0.831   1.217 -0.6319  0.5237  0.3722
13236WAT     H154749   4.491   0.896   1.164 -0.1727 -2.0313 -2.6613
13236WAT     H254750   4.477   0.847   1.306 -0.4868  4.2663 -0.1949
13236WAT    EPW54751   4.456   0.841   1.222 -0.5524  0.6804 -0.1027
13237WAT      O54752   4.855   4.458   1.457 -0.2821 -0.8662  1.2082
13237WAT     H154753   4.867   4.397   1.530 -2.1085 -2.8913 -0.0678
13237WAT     H254754   4.830   4.403   1.383 -0.3425  1.2998 -0.4915
13237WAT    EPW54755   4.853   4.443   1.457 -0.5310 -0.8476  0.8157
13238WAT      O54756   0.864  10.027   6.661 -0.5477 -0.6360  0.4150
13238WAT     H154757   0.791  10.083   6.687  0.9353  1.8941 -0.4246
13238WAT     H254758   0.897  10.068   6.581  2.2818 -1.1438  1.2206
13238WAT    EPW54759   0.859  10.040   6.654  0.0211 -0.3691  0.4106
13239WAT      O54760  -4.320   9.121   6.232 -0.1612 -0.1954  1.0522
13239WAT     H154761  -4.354   9.210   6.246  0.0334 -0.2919  2.3043
13239WAT     H254762  -4.228   9.128   6.258  0.0687 -0.5721  0.3409
13239WAT    EPW54763  -4.312   9.134   6.237 -0.1051 -0.2580  1.1234
13240WAT      O54764   3.013   1.931   8.517 -0.6555  0.0116  0.6250
13240WAT     H154765   3.099   1.967   8.538 -0.7983 -0.5074  2.2111
13240WAT     H254766   3.016   1.842   8.550 -2.1275  0.2966  1.6272
13240WAT    EPW54767   3.025   1.924   8.524 -0.8683 -0.0193  0.9665
13241WAT      O54768   4.627   5.764   0.082  0.2510 -0.3946  0.5985
13241WAT     H154769   4.541   5.779   0.043  1.0820  1.2532 -0.7316
13241WAT     H254770   4.637   5.835   0.145  1.8782  1.4618 -1.5752
13241WAT    EPW54771   4.617   5.775   0.085  0.5753  0.0675  0.1363
13242WAT      O54772   3.881   1.680   7.241 -0.1517  0.2730  0.4442
13242WAT     H154773   3.847   1.591   7.254 -1.2867  0.8241  1.5137
13242WAT     H254774   3.971   1.667   7.210 -0.9654 -1.2530 -1.5144
13242WAT    EPW54775   3.888   1.666   7.239 -0.4086  0.1444  0.3269
13243WAT      O54776   4.145   6.113   7.340 -0.5899 -0.0905 -0.0178
13243WAT     H154777   4.188   6.140   7.421 -1.4519  2.5528 -0.3526
13243WAT     H254778   4.054   6.096   7.366 -0.2756 -1.9289  0.0066
13243WAT    EPW54779   4.139   6.114   7.354 -0.6621  0.0157 -0.0587
13244WAT      O54780   6.946   0.838   1.061 -0.0359 -0.2793  0.0270
13244WAT     H154781   6.981   0.921   1.029 -0.1748 -0.3992 -0.4459
13244WAT     H254782   6.892   0.805   0.989 -1.3542  0.0376  0.8163
13244WAT    EPW54783   6.943   0.845   1.047 -0.2279 -0.2533  0.0687
13245WAT      O54784   5.009   8.677   1.004 -0.5710 -0.2676 -0.8069
13245WAT     H154785   5.084   8.656   1.060 -0.5418  0.1926 -0.6727
13245WAT     H254786   5.002   8.602   0.945  0.7246  0.2092 -1.6067
13245WAT    EPW54787   5.018   8.664   1.004 -0.3963 -0.1440 -0.8947
13246WAT      O54788   1.553   7.570   2.046  0.4058 -0.2167  0.0081
13246WAT     H154789   1.496   7.590   2.121  1.4926 -1.4449  1.2124
13246WAT     H254790   1.642   7.571   2.083  0.9055 -1.6260 -1.0785
13246WAT    EPW54791   1.557   7.573   2.061  0.6151 -0.5646  0.0237
13247WAT      O54792  -4.784   8.603   7.882 -0.8969  0.0610  0.2040
13247WAT     H154793  -4.854   8.660   7.916 -0.2572  1.3078 -0.4784
13247WAT     H254794  -4.728   8.662   7.833  0.7343 -0.8799  0.8549
13247WAT    EPW54795  -4.786   8.619   7.880 -0.5972  0.1016  0.1996
13248WAT      O54796   7.175   1.852   3.939 -0.3483  0.7952  0.3824
13248WAT     H154797   7.146   1.771   3.898 -0.8487  2.4016 -2.7342
13248WAT     H254798   7.099   1.884   3.987 -0.1237 -0.5206  1.7010
13248WAT    EPW54799   7.161   1.846   3.940 -0.3848  0.8336  0.1453
13249WAT      O54800   5.702   1.768   6.779  0.4255  0.5677  0.1978
13249WAT     H154801   5.774   1.732   6.727 -0.4613  1.6595 -1.9141
13249WAT     H254802   5.714   1.863   6.774 -0.8121  0.7476  0.3161
13249WAT    EPW54803   5.713   1.775   6.771  0.1454  0.7355 -0.0653
13250WAT      O54804  -2.781  10.193   2.125 -0.3057 -0.4832  0.0979
13250WAT     H154805  -2.700  10.181   2.075 -0.6546  0.5923 -0.7776
13250WAT     H254806  -2.826  10.109   2.119 -1.1128  0.0106 -2.9058
13250WAT    EPW54807  -2.776  10.181   2.117 -0.4582 -0.2761 -0.4138
13251WAT      O54808  -4.035   7.091   3.072  0.4845  0.2743 -0.2844
13251WAT     H154809  -3.944   7.102   3.099  0.4406  1.5582 -0.6151
13251WAT     H254810  -4.073   7.179   3.078 -0.5821 -0.1437 -0.6831
13251WAT    EPW54811  -4.028   7.104   3.076  0.3381  0.3886 -0.3805
13252WAT      O54812   3.013   3.701   7.901 -0.7435  0.7924 -0.5696
13252WAT     H154813   3.051   3.782   7.936  1.2004 -0.4639  0.4785
13252WAT     H254814   3.036   3.701   7.808  0.3798  0.8730 -0.3043
13252WAT    EPW54815   3.021   3.712   7.894 -0.3390  0.6373 -0.3965
13253WAT      O54816  -0.753   8.205   7.064 -0.1215 -0.4766  0.0547
13253WAT     H154817  -0.707   8.278   7.021 -2.8283  0.9069 -0.7255
13253WAT     H254818  -0.805   8.165   6.994 -0.4813 -1.6874  0.9799
13253WAT    EPW54819  -0.754   8.209   7.049 -0.5260 -0.4539  0.0739
13254WAT      O54820   3.174   1.993   4.948 -0.4753  0.2567 -0.1463
13254WAT     H154821   3.187   2.069   5.004 -1.3553  1.2477 -1.2289
13254WAT     H254822   3.111   2.022   4.882 -1.1971 -1.5600 -0.3231
13254WAT    EPW54823   3.168   2.007   4.947 -0.6865  0.1478 -0.3126
13255WAT      O54824  -3.244   7.737   3.339 -0.6079  0.0786 -0.3525
13255WAT     H154825  -3.268   7.687   3.416 -1.9808 -0.9283 -1.3872
13255WAT     H254826  -3.313   7.804   3.331 -0.4745  0.1783 -0.7021
13255WAT    EPW54827  -3.256   7.740   3.348 -0.7715 -0.0412 -0.5350
13256WAT      O54828  -3.159   4.160   8.825 -0.0019 -0.2277  0.1459
13256WAT     H154829  -3.222   4.205   8.769  0.5931  0.9277  0.3576
13256WAT     H254830  -3.120   4.230   8.877 -0.6024 -1.2768  2.0928
13256WAT    EPW54831  -3.162   4.175   8.824 -0.0025 -0.2136  0.4301
13257WAT      O54832   4.218  10.143   3.460  0.0322 -0.0671 -0.4347
13257WAT     H154833   4.125  10.139   3.440 -0.3094  1.0943  0.7475
13257WAT     H254834   4.260  10.156   3.375 -0.9539  0.1349 -0.9075
13257WAT    EPW54835   4.211  10.144   3.446 -0.1431  0.1125 -0.3412
13258WAT      O54836  -0.856   4.833   3.016  0.1323  0.1333  0.8271
13258WAT     H154837  -0.944   4.833   3.054 -0.3192  4.1284  0.1776
13258WAT     H254838  -0.799   4.808   3.088 -1.3545 -0.9256  1.7065
13258WAT    EPW54839  -0.860   4.830   3.030 -0.1233  0.5205  0.8575
13259WAT      O54840  -3.649   8.334   2.387  0.1664  0.0837  0.7269
13259WAT     H154841  -3.568   8.363   2.428  0.8909 -1.8987  0.8301
13259WAT     H254842  -3.706   8.411   2.386  2.2846  1.7255  0.0104
13259WAT    EPW54843  -3.646   8.348   2.392  0.5413  0.0391  0.6460
13260WAT      O54844  -2.570   9.256   5.685  0.5196  0.1656  0.5979
13260WAT     H154845  -2.638   9.188   5.689  1.9992 -1.4033  0.4765
13260WAT     H254846  -2.524   9.250   5.769  3.0965 -1.7523 -0.7861
13260WAT    EPW54847  -2.573   9.246   5.696  1.0546 -0.2947  0.3994
13261WAT      O54848  -1.439   3.491   4.115  0.4027 -1.0457  0.7487
13261WAT     H154849  -1.368   3.529   4.063 -0.2895 -0.5349  0.1615
13261WAT     H254850  -1.459   3.557   4.181 -1.4955  0.1338 -0.9020
13261WAT    EPW54851  -1.432   3.505   4.117  0.0610 -0.8228  0.4535
13262WAT      O54852   7.186   6.648   1.150  0.9217  0.3627 -0.3321
13262WAT     H154853   7.266   6.701   1.147 -0.0586  2.1109  1.8650
13262WAT     H254854   7.135   6.686   1.221 -1.5161 -1.2543 -1.1169
13262WAT    EPW54855   7.190   6.660   1.159  0.4709  0.3798 -0.1459
13263WAT      O54856   1.620   2.759   0.273  0.6167 -0.0594 -0.2075
13263WAT     H154857   1.609   2.703   0.349 -1.5949  1.5304  0.7600
13263WAT     H254858   1.707   2.797   0.283  0.2641  0.3335  1.7299
13263WAT    EPW54859   1.630   2.757   0.284  0.2785  0.2021  0.1756
13264WAT      O54860  -1.996   3.932   1.011 -0.4895 -0.3783  0.5530
13264WAT     H154861  -2.046   4.007   0.981  0.6572 -0.8409 -2.8949
13264WAT     H254862  -1.963   3.958   1.097 -0.5327  2.8914 -0.2998
13264WAT    EPW54863  -1.998   3.945   1.019 -0.3440 -0.0080 -0.0142
13265WAT      O54864   0.528   7.055   5.935 -0.0153 -0.2599  0.1944
13265WAT     H154865   0.468   6.981   5.949 -1.9250  1.0603 -0.6033
13265WAT     H254866   0.505   7.118   6.003 -5.0362  3.5044 -4.1594
13265WAT    EPW54867   0.517   7.053   5.946 -0.9294  0.4108 -0.4852
13266WAT      O54868  -4.315   8.476   3.243  0.9846  0.2845 -0.3385
13266WAT     H154869  -4.377   8.420   3.289 -0.5088  0.8979 -1.5024
13266WAT     H254870  -4.306   8.553   3.299  1.2433 -0.1074  0.1670
13266WAT    EPW54871  -4.322   8.478   3.256  0.8216  0.3138 -0.4253
13267WAT      O54872   2.114   7.092   8.720 -0.0685  0.1909 -0.0281
13267WAT     H154873   2.196   7.113   8.765  1.1152  0.8592 -2.3105
13267WAT     H254874   2.095   7.170   8.667 -1.1211 -0.6968 -1.0126
13267WAT    EPW54875   2.122   7.105   8.719 -0.0511  0.1619 -0.4592
13268WAT      O54876   1.076   3.654   2.662 -0.0767  0.6088  0.1211
13268WAT     H154877   1.095   3.732   2.714  0.2992  0.6806 -0.1236
13268WAT     H254878   1.089   3.581   2.723  2.9351  0.4933 -0.4887
13268WAT    EPW54879   1.080   3.655   2.677  0.3701  0.6031  0.0085
13269WAT      O54880  -5.362   7.072   7.811  0.2743  0.3450  0.4359
13269WAT     H154881  -5.268   7.051   7.815  0.5751 -0.3407 -4.1408
13269WAT     H254882  -5.404   6.987   7.794 -1.3591  0.5715  2.8475
13269WAT    EPW54883  -5.355   7.058   7.809  0.0982  0.2844  0.1504
13270WAT      O54884   5.380   1.522   5.657 -0.4227 -0.0147  0.0301
13270WAT     H154885   5.351   1.490   5.572  0.6656 -0.3034 -0.2552
13270WAT     H254886   5.301   1.552   5.700 -0.9902  0.1463 -1.0927
13270WAT    EPW54887   5.366   1.522   5.652 -0.3541 -0.0315 -0.1554
13271WAT      O54888   0.812   0.260   2.553  0.0172  0.3275  0.2646
13271WAT     H154889   0.839   0.170   2.569  1.4184  1.1223  2.8606
13271WAT     H254890   0.881   0.297   2.498  0.3920  0.3238  0.7337
13271WAT    EPW54891   0.825   0.253   2.548  0.2514  0.4318  0.6689
13272WAT      O54892   2.950   5.854   0.508 -0.0825  0.5530 -0.7535
13272WAT     H154893   2.956   5.950   0.517 -1.3137  0.4440  2.5907
13272WAT     H254894   2.860   5.839   0.479 -0.0426  0.3758 -0.7814
13272WAT    EPW54895   2.939   5.865   0.505 -0.2396  0.5152 -0.3161
13273WAT      O54896   3.650   2.631   1.182 -0.5627  0.1422  0.0062
13273WAT     H154897   3.667   2.725   1.192 -1.0670  0.3802 -1.2936
13273WAT     H254898   3.604   2.623   1.099 -0.1190 -1.3122 -0.1304
13273WAT    EPW54899   3.646   2.642   1.173 -0.5708 -0.0182 -0.1832
13274WAT      O54900  -3.237   8.114   5.665 -0.2277 -0.7007 -0.1209
13274WAT     H154901  -3.280   8.197   5.647 -3.0682 -1.7659  1.0991
13274WAT     H254902  -3.242   8.066   5.582  2.0227  0.4498 -1.0308
13274WAT    EPW54903  -3.243   8.118   5.652 -0.3054 -0.6900 -0.0801
13275WAT      O54904   1.475   5.456   5.669  0.3214  0.1031 -0.0315
13275WAT     H154905   1.445   5.385   5.727  0.7068  0.7042  0.9251
13275WAT     H254906   1.515   5.520   5.728 -1.7795  2.0836 -0.6158
13275WAT    EPW54907   1.476   5.455   5.685  0.0951  0.4437  0.0176
13276WAT      O54908   3.809   1.679   0.705 -0.1870 -1.0474 -0.2185
13276WAT     H154909   3.746   1.626   0.656 -1.1118 -0.1324 -0.0590
13276WAT     H254910   3.790   1.769   0.678  0.9688 -0.7401 -0.0552
13276WAT    EPW54911   3.798   1.684   0.695 -0.1565 -0.8861 -0.1759
13277WAT      O54912   4.675   1.741   6.696 -0.3095 -0.0561 -0.5082
13277WAT     H154913   4.747   1.680   6.682  1.5037  1.6787  0.7682
13277WAT     H254914   4.607   1.711   6.636  2.2725 -0.4193 -3.5335
13277WAT    EPW54915   4.675   1.729   6.686  0.2701  0.1248 -0.7389
13278WAT      O54916   5.018   0.070   8.189 -0.4938  0.7880 -0.2244
13278WAT     H154917   5.056   0.155   8.169 -1.0076  0.9303 -0.6011
13278WAT     H254918   5.080   0.030   8.250  0.2239  1.0403 -0.7838
13278WAT    EPW54919   5.031   0.076   8.194 -0.4671  0.8400 -0.3481
13279WAT      O54920   1.827   2.984   0.308 -0.3319  0.4401  0.1522
13279WAT     H154921   1.805   3.021   0.393  1.4059  2.8609 -0.3585
13279WAT     H254922   1.916   2.948   0.320 -0.8394 -1.0159 -0.1680
13279WAT    EPW54923   1.836   2.984   0.321 -0.1696  0.5674  0.0426
13280WAT      O54924  -0.552   1.590   4.141  0.5620 -0.2258  0.3889
13280WAT     H154925  -0.471   1.641   4.141  3.1151 -3.7325 -1.8998
13280WAT     H254926  -0.536   1.520   4.205 -1.7255  0.2517  1.5912
13280WAT    EPW54927  -0.539   1.587   4.150  0.5971 -0.6254  0.2456
13281WAT      O54928   2.816   9.445   2.397  0.7284  0.6181  0.4318
13281WAT     H154929   2.844   9.453   2.488  0.3035  0.1210  0.6084
13281WAT     H254930   2.898   9.449   2.346  1.1075 -0.5933  0.9269
13281WAT    EPW54931   2.831   9.447   2.402  0.7223  0.3929  0.5203
13282WAT      O54932   8.705   3.175   1.681 -0.5021 -0.3038 -0.3525
13282WAT     H154933   8.735   3.254   1.637  0.2431 -0.7314 -0.6418
13282WAT     H254934   8.760   3.169   1.759  1.2058 -1.8324 -1.5883
13282WAT    EPW54935   8.716   3.184   1.686 -0.1783 -0.5618 -0.5537
13283WAT      O54936   1.042  10.367   0.592 -0.5540 -0.2116 -0.6250
13283WAT     H154937   1.091  10.289   0.565  0.6463  0.8487 -1.6465
13283WAT     H254938   1.056  10.430   0.522  1.6643  2.2452  1.7758
13283WAT    EPW54939   1.051  10.365   0.579 -0.1032  0.2523 -0.4430
13284WAT      O54940  -4.719   7.164   7.569  0.3075  0.2340  0.3193
13284WAT     H154941  -4.672   7.245   7.551  1.9976 -0.4504  1.4386
13284WAT     H254942  -4.707   7.148   7.662 -0.9213 -0.7515  0.3451
13284WAT    EPW54943  -4.711   7.172   7.579  0.3684  0.0138  0.4702
13285WAT      O54944   2.380   5.625   1.663  0.4474  0.7960 -0.3817
13285WAT     H154945   2.408   5.699   1.718  0.0698  0.9041 -0.3289
13285WAT     H254946   2.337   5.565   1.725  0.8654  0.4737 -0.4041
13285WAT    EPW54947   2.378   5.627   1.679  0.4528  0.7677 -0.3777
13286WAT      O54948  -2.893   4.733   2.401  0.6009 -0.5644  0.1355
13286WAT     H154949  -2.897   4.738   2.496 -0.2834  1.4814  0.0561
13286WAT     H254950  -2.980   4.701   2.375 -0.6618  2.5965 -0.0351
13286WAT    EPW54951  -2.905   4.729   2.410  0.3177  0.1225  0.1026
13287WAT      O54952   6.679   3.459   3.530  0.5565  0.1170  0.6276
13287WAT     H154953   6.770   3.443   3.506  1.2393  0.7105  2.6572
13287WAT     H254954   6.667   3.553   3.520  0.6693  0.2812  1.9097
13287WAT    EPW54955   6.689   3.469   3.525  0.6614  0.2170  1.0644
13288WAT      O54956  -2.023   3.686   6.649 -0.5569 -0.3502  0.7302
13288WAT     H154957  -2.071   3.723   6.723 -1.5595  1.3140 -0.6888
13288WAT     H254958  -1.939   3.733   6.649 -1.1263  0.6910 -0.0161
13288WAT    EPW54959  -2.018   3.697   6.659 -0.7641  0.0067  0.4447
13289WAT      O54960  -0.847   3.898   2.023  0.0181  0.2334 -0.4881
13289WAT     H154961  -0.928   3.868   2.063 -0.4002 -0.8313 -2.0460
13289WAT     H254962  -0.873   3.934   1.939  0.8806  2.3854  0.0931
13289WAT    EPW54963  -0.861   3.899   2.018  0.0767  0.3768 -0.6169
13290WAT      O54964  -5.205   7.957   7.338 -0.1501  0.0824 -0.2699
13290WAT     H154965  -5.134   7.961   7.273 -1.1157 -0.1483 -1.3731
13290WAT     H254966  -5.285   7.954   7.286 -0.9961  0.5521  0.9590
13290WAT    EPW54967  -5.206   7.957   7.322 -0.3889  0.1140 -0.2532
13291WAT      O54968   2.941   1.307   1.419  0.2697 -0.6321 -0.0581
13291WAT     H154969   2.915   1.217   1.402  2.1193 -1.3401  0.6101
13291WAT     H254970   2.948   1.314   1.514  2.6495 -0.6199 -0.1591
13291WAT    EPW54971   2.938   1.296   1.429  0.8274 -0.7239  0.0167
13292WAT      O54972  -3.954   9.193   7.574 -0.7500 -0.3783  0.3144
13292WAT     H154973  -3.948   9.271   7.518 -1.4096 -2.3266 -2.6852
13292WAT     H254974  -3.912   9.124   7.523 -0.6273 -2.1540  2.6641
13292WAT    EPW54975  -3.948   9.194   7.560 -0.8208 -0.8693  0.2286
13293WAT      O54976   0.550   7.138   2.217  0.3616 -0.0432  0.2558
13293WAT     H154977   0.565   7.198   2.144  0.4452  2.1066  1.9388
13293WAT     H254978   0.584   7.054   2.187  0.6057  0.8273 -2.0609
13293WAT    EPW54979   0.557   7.134   2.204  0.4048  0.3552  0.1723
13294WAT      O54980   1.983   3.600   4.946  0.8033  0.7452 -0.5279
13294WAT     H154981   2.037   3.679   4.938  0.8025  0.8855  0.6368
13294WAT     H254982   1.897   3.633   4.972  0.9191  0.3554  0.4058
13294WAT    EPW54983   1.979   3.615   4.949  0.8185  0.7124 -0.2513
13295WAT      O54984  -1.920   9.556   7.839 -0.1640  0.3962 -0.1884
13295WAT     H154985  -1.872   9.485   7.796 -1.7427 -0.1204 -1.1693
13295WAT     H254986  -1.997   9.569   7.785 -1.6702  0.5044  1.8786
13295WAT    EPW54987  -1.924   9.548   7.826 -0.5708  0.3428 -0.0451
13296WAT      O54988  -3.952   2.592   7.474 -0.0002 -0.1948 -0.1435
13296WAT     H154989  -3.936   2.664   7.535  3.1408 -0.8596  0.0072
13296WAT     H254990  -3.867   2.579   7.430 -0.2505 -4.1088  0.1931
13296WAT    EPW54991  -3.939   2.600   7.476  0.3810 -0.7987 -0.0792
13297WAT      O54992   2.038   2.278   4.542 -0.0666 -0.7145  0.5733
13297WAT     H154993   2.111   2.257   4.600  0.0496  1.2171  1.2128
13297WAT     H254994   2.062   2.240   4.458  1.1351 -1.0717  1.0579
13297WAT    EPW54995   2.051   2.270   4.539  0.1073 -0.5070  0.7215
13298WAT      O54996  -0.390   3.507   5.388 -0.5971 -0.1112 -0.1068
13298WAT     H154997  -0.296   3.498   5.376 -0.6317  0.1124 -0.5967
13298WAT     H254998  -0.401   3.538   5.477 -0.3196 -2.0292  0.6483
13298WAT    EPW54999  -0.379   3.510   5.398 -0.5651 -0.3346 -0.0718
13299WAT      O55000  -2.992   2.081   3.826  0.3090 -0.0619 -0.5611
13299WAT     H155001  -2.984   2.018   3.755  0.9117 -0.3496 -0.2440
13299WAT     H255002  -3.070   2.053   3.874  1.3904 -1.4889  0.4595
13299WAT    EPW55003  -3.001   2.069   3.823  0.5311 -0.2879 -0.3847
13300WAT      O55004  -1.371   9.093   3.164  0.5847 -0.1515 -0.0790
13300WAT     H155005  -1.340   9.150   3.234  1.7464 -1.0527  0.1673
13300WAT     H255006  -1.292   9.051   3.130 -0.1149 -0.7667 -0.9973
13300WAT    EPW55007  -1.357   9.095   3.169  0.6457 -0.3519 -0.1676
13301WAT      O55008   4.051   6.998   2.186  0.0209 -0.1597  0.2598
13301WAT     H155009   3.986   6.935   2.154 -1.0139 -0.6281  2.9747
13301WAT     H255010   4.092   7.032   2.107 -1.7385 -1.7525 -1.4678
13301WAT    EPW55011   4.048   6.994   2.171 -0.3476 -0.4315  0.3899
13302WAT      O55012  -6.308   7.415   8.521 -0.4425  0.6864  0.0658
13302WAT     H155013  -6.229   7.406   8.574  0.1485  0.2356 -0.8490
13302WAT     H255014  -6.377   7.375   8.574 -0.3742  2.3667  1.4900
13302WAT    EPW55015  -6.307   7.408   8.535 -0.3557  0.8485  0.1330
13303WAT      O55016  -2.529   6.206   2.411  1.1273 -0.1886 -0.2750
13303WAT     H155017  -2.603   6.219   2.470  1.5649  0.8584  0.0764
13303WAT     H255018  -2.553   6.255   2.332  1.2014 -0.3155 -0.3763
13303WAT    EPW55019  -2.542   6.214   2.408  1.1948 -0.0672 -0.2420
13304WAT      O55020   7.423   2.437   3.727  0.5701 -0.1146  0.0562
13304WAT     H155021   7.408   2.532   3.723 -0.5999 -0.3214 -2.0823
13304WAT     H255022   7.357   2.405   3.789 -0.6277  0.2610 -0.9685
13304WAT    EPW55023   7.412   2.445   3.734  0.2577 -0.0923 -0.3611
13305WAT      O55024   0.853   2.434   5.072 -0.7831 -0.0794 -0.5787
13305WAT     H155025   0.882   2.423   5.162 -2.7660 -3.5982 -0.1846
13305WAT     H255026   0.928   2.410   5.019 -0.1647  0.2148  0.1455
13305WAT    EPW55027   0.866   2.430   5.077 -0.9631 -0.5046 -0.4311
13306WAT      O55028   1.272   9.576   8.508 -0.1466 -0.9627 -0.6809
13306WAT     H155029   1.203   9.522   8.546 -0.8440 -0.0148 -0.5713
13306WAT     H255030   1.255   9.664   8.542  1.2419 -0.7448 -0.4788
13306WAT    EPW55031   1.261   9.581   8.517 -0.0554 -0.8092 -0.6399
13307WAT      O55032   0.999   8.230   7.789  0.2542  0.9466  0.1387
13307WAT     H155033   0.933   8.248   7.856  1.7392  1.1881  1.5864
13307WAT     H255034   1.083   8.233   7.835  1.2447 -0.3424 -1.4434
13307WAT    EPW55035   1.001   8.233   7.804  0.5807  0.8087  0.1206
13308WAT      O55036   4.240   3.709   4.265  0.2059 -0.3575  0.6252
13308WAT     H155037   4.243   3.801   4.289 -1.0257 -0.6317  2.0224
13308WAT     H255038   4.329   3.688   4.235 -0.3898  2.2373 -3.8121
13308WAT    EPW55039   4.252   3.718   4.264 -0.0350 -0.0514  0.2241
13309WAT      O55040   5.469   4.220   0.464  0.2211  1.6807  0.0082
13309WAT     H155041   5.532   4.288   0.488 -1.0172  2.5862  0.7929
13309WAT     H255042   5.456   4.170   0.544  1.3649  0.2835 -0.6464
13309WAT    EPW55043   5.476   4.223   0.477  0.2086  1.6158  0.0253
13310WAT      O55044   3.189   5.892   6.797  0.1128 -0.1826  0.3776
13310WAT     H155045   3.125   5.851   6.738  0.1626  0.4261 -0.1159
13310WAT     H255046   3.274   5.867   6.761  0.1500 -0.6149  0.7663
13310WAT    EPW55047   3.191   5.883   6.785  0.1243 -0.1593  0.3638
13311WAT      O55048  -0.605   5.486   3.725 -0.0434 -0.2982 -0.0775
13311WAT     H155049  -0.688   5.440   3.713  0.0746 -0.3442 -0.7498
13311WAT     H255050  -0.577   5.462   3.814 -0.1993 -1.1817 -0.2563
13311WAT    EPW55051  -0.612   5.477   3.735 -0.0484 -0.4208 -0.1897
13312WAT      O55052  -3.424   9.182   6.969  0.5125 -0.4265  0.1394
13312WAT     H155053  -3.339   9.194   6.926 -0.0664  2.3152 -0.4842
13312WAT     H255054  -3.444   9.268   7.007 -1.7504 -1.1034  0.6610
13312WAT    EPW55055  -3.416   9.195   6.968  0.1377 -0.1545  0.1261
13313WAT      O55056   2.264   9.925   2.424 -0.0897  0.7663 -0.3525
13313WAT     H155057   2.255   9.925   2.519 -0.2473  2.4884 -0.3239
13313WAT     H255058   2.358   9.912   2.409 -0.3487 -1.8335 -0.0868
13313WAT    EPW55059   2.275   9.924   2.434 -0.1447  0.6509 -0.3138
13314WAT      O55060  -4.953   9.196   4.011 -0.0998  0.2730  0.3636
13314WAT     H155061  -4.919   9.229   3.928  0.4852  0.0072  0.4939
13314WAT     H255062  -5.026   9.139   3.986 -1.4786  2.0374  0.1565
13314WAT    EPW55063  -4.958   9.193   3.997 -0.2046  0.4702  0.3536
13315WAT      O55064  -2.759   7.626   4.646  0.0388 -0.2985 -0.9239
13315WAT     H155065  -2.697   7.681   4.694  1.4645 -0.3575 -2.6174
13315WAT     H255066  -2.794   7.566   4.712  2.1705 -0.6103 -0.0105
13315WAT    EPW55067  -2.756   7.626   4.661  0.5080 -0.3474 -1.0269
13316WAT      O55068  -1.044   0.585   2.349  0.5535 -0.5628  0.8089
13316WAT     H155069  -1.039   0.584   2.254  0.6490  0.9842  0.7720
13316WAT     H255070  -0.953   0.588   2.378  0.5666 -2.1290  1.0027
13316WAT    EPW55071  -1.032   0.586   2.341  0.5677 -0.5653  0.8296
13317WAT      O55072  -3.155   8.796   5.881  0.1976 -0.3680 -0.3702
13317WAT     H155073  -3.079   8.850   5.902  0.4302 -0.8283 -0.0349
13317WAT     H255074  -3.121   8.728   5.823 -0.2732  0.3863 -1.5679
13317WAT    EPW55075  -3.141   8.794   5.876  0.1662 -0.3290 -0.4840
13318WAT      O55076   2.932   0.991   6.228 -0.1885 -0.5255  0.2226
13318WAT     H155077   2.902   0.959   6.143 -0.0877  0.6593 -0.2793
13318WAT     H255078   2.897   1.080   6.234  1.6925  0.2552  0.4165
13318WAT    EPW55079   2.923   0.998   6.218  0.0728 -0.2663  0.1822
13319WAT      O55080  -3.500   4.609   8.811 -0.7811  0.4835  0.2009
13319WAT     H155081  -3.497   4.542   8.879  1.2461 -1.6981 -1.8527
13319WAT     H255082  -3.423   4.663   8.827 -1.2950  1.0996  0.6502
13319WAT    EPW55083  -3.489   4.607   8.822 -0.5815  0.2770 -0.0105
13320WAT      O55084   9.893   0.507   0.885  0.6745 -0.5132  0.1542
13320WAT     H155085   9.841   0.450   0.941 -0.2900 -1.0709 -1.2437
13320WAT     H255086   9.981   0.504   0.922  0.0684 -0.8588  1.6128
13320WAT    EPW55087   9.897   0.499   0.897  0.4678 -0.6323  0.1622
13321WAT      O55088  -2.615   9.196   0.383 -0.2933  0.0262  0.8146
13321WAT     H155089  -2.670   9.274   0.376 -2.2905 -1.2651  1.2506
13321WAT     H255090  -2.586   9.180   0.293 -0.3190  0.9379  0.6295
13321WAT    EPW55091  -2.618   9.204   0.370 -0.5602 -0.0238  0.8477
13322WAT      O55092   3.168   5.765   4.512  0.0466 -0.3115  0.1468
13322WAT     H155093   3.212   5.759   4.597  0.6873 -0.6339 -0.2033
13322WAT     H255094   3.134   5.677   4.496 -0.2663 -0.1961  0.1678
13322WAT    EPW55095   3.169   5.753   4.521  0.0898 -0.3388  0.1035
13323WAT      O55096   1.423   7.131   5.781 -0.1579  0.1899 -0.3877
13323WAT     H155097   1.453   7.122   5.871 -0.3939 -0.6410 -0.3850
13323WAT     H255098   1.376   7.049   5.762 -0.7710  0.6688 -1.0150
13323WAT    EPW55099   1.421   7.119   5.790 -0.2699  0.1435 -0.4702
13324WAT      O55100   2.644   7.496   3.347  0.0090 -0.5251 -0.6250
13324WAT     H155101   2.608   7.580   3.318  0.6151 -1.2073 -3.6346
13324WAT     H255102   2.608   7.484   3.435 -0.0283  2.8967 -0.0294
13324WAT    EPW55103   2.634   7.506   3.355  0.0840 -0.1638 -0.9434
13325WAT      O55104  -4.659   7.733   4.480  0.3047 -0.1274 -0.1484
13325WAT     H155105  -4.724   7.724   4.550  0.5010  1.3392  0.2584
13325WAT     H255106  -4.587   7.782   4.521 -0.1290  1.9382 -1.7115
13325WAT    EPW55107  -4.658   7.738   4.495  0.2732  0.3388 -0.3009
13326WAT      O55108  -0.014   6.043   2.213 -0.6815 -0.0595 -0.4568
13326WAT     H155109  -0.104   6.036   2.244 -0.5511  0.7543  0.1587
13326WAT     H255110  -0.022   6.084   2.127 -0.8933  0.2714 -0.2850
13326WAT    EPW55111  -0.027   6.048   2.206 -0.6923  0.0913 -0.3530
13327WAT      O55112  -0.689   5.409   6.248 -0.4599 -0.1646 -0.3175
13327WAT     H155113  -0.724   5.338   6.193 -2.9529  0.5491  0.2356
13327WAT     H255114  -0.703   5.378   6.338  1.9214 -0.5365 -0.0161
13327WAT    EPW55115  -0.696   5.395   6.253 -0.4747 -0.1194 -0.2050
13328WAT      O55116   5.155   4.017   6.964  0.5078 -0.0163 -0.6985
13328WAT     H155117   5.206   4.073   6.906  0.4028  1.1958  0.3301
13328WAT     H255118   5.064   4.033   6.938  0.4070  1.1195  0.2548
13328WAT    EPW55119   5.149   4.027   6.953  0.4807  0.2935 -0.4373
13329WAT      O55120  -3.132   5.354   4.896 -0.4952  0.4278  0.2994
13329WAT     H155121  -3.103   5.309   4.817 -0.2498 -1.6037  1.4778
13329WAT     H255122  -3.051   5.389   4.934 -0.2986 -0.4674  0.7369
13329WAT    EPW55123  -3.117   5.353   4.890 -0.4369  0.0420  0.5126
13330WAT      O55124   3.503   2.135   3.568  0.5279 -0.5401  0.7772
13330WAT     H155125   3.569   2.096   3.511  0.4125  0.4881 -0.1005
13330WAT     H255126   3.447   2.185   3.509 -1.3745 -1.8068  1.4439
13330WAT    EPW55127   3.505   2.137   3.553  0.2617 -0.5716  0.7495
13331WAT      O55128   5.937   6.993   3.996  0.4607  0.1088 -0.3571
13331WAT     H155129   5.944   6.898   4.002 -0.3445  0.1139  1.2990
13331WAT     H255130   5.862   7.008   3.939  2.2059 -0.1478 -2.9135
13331WAT    EPW55131   5.928   6.982   3.989  0.5846  0.0758 -0.4759
13332WAT      O55132  -1.993   5.123   4.222 -0.1306 -0.5021  0.6876
13332WAT     H155133  -2.086   5.103   4.215 -0.1141 -0.6338  0.8364
13332WAT     H255134  -1.972   5.166   4.140 -0.3112 -0.5212  0.6303
13332WAT    EPW55135  -2.003   5.126   4.210 -0.1523 -0.5219  0.6993
13333WAT      O55136   5.219   1.720   6.385  0.5130 -0.1914  0.0637
13333WAT     H155137   5.239   1.691   6.474  0.6853 -1.2927 -0.3290
13333WAT     H255138   5.146   1.782   6.396 -0.7810 -1.7716  0.8105
13333WAT    EPW55139   5.212   1.725   6.398  0.3650 -0.5450  0.1106
13334WAT      O55140  -0.685   1.165   8.480 -0.3717  0.4630 -0.0173
13334WAT     H155141  -0.647   1.079   8.493 -2.6148 -0.4129  1.4157
13334WAT     H255142  -0.725   1.161   8.393 -0.3419  0.0957 -0.0148
13334WAT    EPW55143  -0.685   1.153   8.470 -0.6637  0.2990  0.1721
13335WAT      O55144   1.440   8.106   8.126  0.5859  1.3356  0.1466
13335WAT     H155145   1.492   8.026   8.136 -1.9904 -0.4407  0.4588
13335WAT     H255146   1.374   8.100   8.195 -1.1802  2.4907 -1.3425
13335WAT    EPW55147   1.438   8.095   8.137  0.0132  1.2536 -0.0086
13336WAT      O55148  -0.752   1.078   3.457  1.0625 -0.4369 -0.4316
13336WAT     H155149  -0.837   1.034   3.452  1.4498 -1.2289 -0.1551
13336WAT     H255150  -0.696   1.030   3.395  2.3619 -2.3782  2.0366
13336WAT    EPW55151  -0.756   1.066   3.448  1.2850 -0.7974 -0.0695
13337WAT      O55152  -2.518   6.626   1.380  0.2374  0.4930  0.2821
13337WAT     H155153  -2.439   6.680   1.382  1.3532 -1.0651 -0.0292
13337WAT     H255154  -2.508   6.572   1.302 -0.9801  0.0343  0.4330
13337WAT    EPW55155  -2.506   6.626   1.370  0.2240  0.2270  0.2610
13338WAT      O55156  -2.354   5.242   3.088 -0.8239  0.0654 -0.1050
13338WAT     H155157  -2.403   5.297   3.026  0.8602  0.3399 -1.2589
13338WAT     H255158  -2.421   5.185   3.127 -2.5128  2.3628  0.5720
13338WAT    EPW55159  -2.369   5.241   3.085 -0.8245  0.4046 -0.1680
13339WAT      O55160  -4.107   4.313   8.325 -0.0273  0.6277  0.0829
13339WAT     H155161  -4.103   4.408   8.319  1.5280  0.5275 -1.4113
13339WAT     H255162  -4.156   4.286   8.247  1.4335  0.1608 -0.7257
13339WAT    EPW55163  -4.113   4.322   8.314  0.3705  0.5529 -0.2208
13340WAT      O55164   0.660   8.673   0.468  0.4377 -0.7435  0.0751
13340WAT     H155165   0.696   8.624   0.394 -0.0965 -0.2783 -0.5025
13340WAT     H255166   0.710   8.755   0.469  1.4642 -1.3368  1.1592
13340WAT    EPW55167   0.672   8.677   0.458  0.5026 -0.7601  0.1419
13341WAT      O55168   6.224   4.254   3.674 -0.2977  0.3439  0.3563
13341WAT     H155169   6.261   4.188   3.732  0.0011  0.3602  0.1877
13341WAT     H255170   6.129   4.243   3.682 -0.2518  0.0024  0.4509
13341WAT    EPW55171   6.216   4.244   3.682 -0.2522  0.3009  0.3465
13342WAT      O55172   2.610   5.799   7.867  0.4546 -0.0472 -0.4602
13342WAT     H155173   2.621   5.704   7.869  0.1629 -0.0728  1.4663
13342WAT     H255174   2.667   5.832   7.936 -0.2741  1.0681 -0.3613
13342WAT    EPW55175   2.619   5.790   7.876  0.3201  0.0963 -0.1929
13343WAT      O55176   5.748  -0.010   7.554 -0.1371 -0.1497  0.4345
13343WAT     H155177   5.800  -0.009   7.635 -0.1408 -2.3463  0.5240
13343WAT     H255178   5.802   0.038   7.491  0.2550  0.8585  1.5040
13343WAT    EPW55179   5.762  -0.004   7.557 -0.0858 -0.3065  0.5875
13344WAT      O55180   0.431   0.860   5.864 -0.2416  0.4245  0.4793
13344WAT     H155181   0.451   0.954   5.859 -0.4128  0.5068  1.2076
13344WAT     H255182   0.346   0.852   5.820  0.0714  0.5119 -0.1403
13344WAT    EPW55183   0.422   0.872   5.858 -0.2229  0.4469  0.4938
13345WAT      O55184   7.337   0.469   3.786 -0.7995 -0.0008  0.3571
13345WAT     H155185   7.246   0.440   3.795  0.1403 -3.1009  0.9311
13345WAT     H255186   7.367   0.427   3.705 -0.1993  2.0961 -0.5787
13345WAT    EPW55187   7.329   0.460   3.776 -0.5963 -0.1331  0.3093
13346WAT      O55188   1.130   0.863   7.267 -0.0866 -0.4311 -0.1737
13346WAT     H155189   1.172   0.779   7.285  1.5390  0.1708 -0.9348
13346WAT     H255190   1.195   0.928   7.292  0.1228  0.5219 -2.8824
13346WAT    EPW55191   1.144   0.861   7.273  0.1555 -0.2260 -0.6313
13347WAT      O55192   4.773   3.146   4.685  0.3776  0.9398 -0.0742
13347WAT     H155193   4.679   3.163   4.694  0.0977 -0.5040 -0.0430
13347WAT     H255194   4.792   3.164   4.592 -0.2970 -0.3844 -0.4858
13347WAT    EPW55195   4.763   3.151   4.674  0.2515  0.5746 -0.1242
13348WAT      O55196   1.834   0.203   2.521  0.2366  0.2691 -0.5508
13348WAT     H155197   1.852   0.182   2.429  0.7641 -0.0654 -0.3734
13348WAT     H255198   1.817   0.297   2.521  0.9196  0.4023 -0.8999
13348WAT    EPW55199   1.834   0.213   2.509  0.3962  0.2425 -0.5734
13349WAT      O55200  -1.898   6.600   3.016  0.6704 -0.2868 -0.1044
13349WAT     H155201  -1.857   6.520   3.051 -1.2584 -0.5028  1.9034
13349WAT     H255202  -1.951   6.569   2.943  2.0832 -0.3601 -1.1500
13349WAT    EPW55203  -1.899   6.585   3.011  0.6023 -0.3250  0.0225
13350WAT      O55204  -3.023   4.518   6.828 -0.4072  0.3512 -0.2335
13350WAT     H155205  -3.063   4.434   6.805  0.8669  0.1370 -1.8661
13350WAT     H255206  -3.004   4.510   6.922 -1.4130 -0.6912 -0.0919
13350WAT    EPW55207  -3.026   4.506   6.838 -0.3718  0.1855 -0.4303
13351WAT      O55208  -1.272   3.203   4.855 -0.7614 -0.0776 -0.6848
13351WAT     H155209  -1.278   3.258   4.934 -3.0443 -0.4541 -0.5160
13351WAT     H255210  -1.364   3.184   4.833 -0.1672 -0.2654 -3.2496
13351WAT    EPW55211  -1.285   3.208   4.863 -0.9842 -0.1520 -1.0009
13352WAT      O55212  -2.278   0.642   4.848  0.0442  0.8777 -0.5885
13352WAT     H155213  -2.278   0.639   4.944  2.2593 -0.6938 -0.5530
13352WAT     H255214  -2.186   0.660   4.825  0.0278 -0.9906 -2.4119
13352WAT    EPW55215  -2.266   0.644   4.858  0.3341  0.4240 -0.8242
13353WAT      O55216   0.346   2.546   2.366 -0.4576  0.0704 -0.3728
13353WAT     H155217   0.424   2.599   2.350 -0.3657 -0.3678 -1.5225
13353WAT     H255218   0.272   2.605   2.351 -0.3532  0.5370  0.9087
13353WAT    EPW55219   0.347   2.560   2.362 -0.4317  0.0743 -0.3555
13354WAT      O55220   4.793   1.854   7.064  0.1804  0.4323 -0.0350
13354WAT     H155221   4.706   1.865   7.025 -0.8472  0.8489  2.2104
13354WAT     H255222   4.848   1.919   7.021 -0.7078  0.3991 -1.2446
13354WAT    EPW55223   4.789   1.864   7.053 -0.0722  0.4829  0.1016
13355WAT      O55224  -2.562   4.793   4.174 -0.2984  0.1790 -0.2690
13355WAT     H155225  -2.481   4.757   4.211 -1.1506 -1.1883  0.3457
13355WAT     H255226  -2.615   4.716   4.153 -0.6207  0.9530 -2.6443
13355WAT    EPW55227  -2.558   4.778   4.176 -0.4532  0.1006 -0.5012
13356WAT      O55228   2.546   9.691   5.672 -0.2267  0.0466 -0.3020
13356WAT     H155229   2.492   9.768   5.693 -0.7311 -0.7349  1.4729
13356WAT     H255230   2.632   9.712   5.707 -0.1236  0.1836 -0.6427
13356WAT    EPW55231   2.550   9.704   5.680 -0.2797 -0.0381 -0.1128
13357WAT      O55232  -1.111   7.186   1.699 -0.4501 -0.2043  0.4736
13357WAT     H155233  -1.179   7.122   1.717  0.5248 -2.1710 -2.2816
13357WAT     H255234  -1.151   7.249   1.640 -0.3524 -0.3677  0.2350
13357WAT    EPW55235  -1.125   7.186   1.694 -0.3086 -0.4852  0.0787
13358WAT      O55236   8.927   0.497   1.504  0.1316  0.5471  0.1228
13358WAT     H155237   8.936   0.402   1.516 -0.8212  0.3469 -0.5997
13358WAT     H255238   8.851   0.507   1.447  0.9748  1.6831 -0.8797
13358WAT    EPW55239   8.918   0.486   1.498  0.1173  0.6705 -0.1047
13359WAT      O55240   1.567   3.994   1.944  0.1672  0.0236 -0.2787
13359WAT     H155241   1.565   3.989   1.848  1.8470  1.5533 -0.4363
13359WAT     H255242   1.505   4.064   1.965 -2.6306 -2.3368  0.0684
13359WAT    EPW55243   1.558   4.003   1.934  0.0197 -0.0861 -0.2537
13360WAT      O55244   0.665  10.117   8.100 -0.3291 -0.2604 -0.1317
13360WAT     H155245   0.594  10.181   8.106 -1.1863 -0.8706 -2.5827
13360WAT     H255246   0.744  10.169   8.097 -0.7875  0.5218  0.6560
13360WAT    EPW55247   0.666  10.132   8.101 -0.5027 -0.2379 -0.3510
13361WAT      O55248  -0.620   1.022   5.346 -0.4330 -0.3828 -0.0577
13361WAT     H155249  -0.712   0.996   5.350 -0.6198  0.4262  1.8599
13361WAT     H255250  -0.614   1.098   5.404  1.2723  0.1701 -0.8909
13361WAT    EPW55251  -0.631   1.028   5.354 -0.2327 -0.2031  0.0854
13362WAT      O55252  -3.186   9.993   6.926 -0.2621  0.1943  0.0780
13362WAT     H155253  -3.175   9.898   6.918  0.0008  0.1674  0.6750
13362WAT     H255254  -3.258  10.004   6.987 -0.3591  0.3809 -0.0673
13362WAT    EPW55255  -3.194   9.982   6.933 -0.2402  0.2155  0.1376
13363WAT      O55256   0.957   7.446   4.651  0.9544  0.9666 -0.4568
13363WAT     H155257   1.004   7.368   4.681 -0.3349  0.5549  0.5874
13363WAT     H255258   1.014   7.519   4.675  1.4869  0.4366 -0.0710
13363WAT    EPW55259   0.971   7.445   4.658  0.8546  0.8423 -0.2682
13364WAT      O55260   3.226   2.457   6.511 -0.6654 -0.2980  0.3980
13364WAT     H155261   3.169   2.405   6.454 -1.1541 -0.6219  1.1633
13364WAT     H255262   3.202   2.430   6.600 -0.2455  0.5383  0.7783
13364WAT    EPW55263   3.215   2.446   6.515 -0.6745 -0.2304  0.5491
13365WAT      O55264   1.228   8.356   5.396 -0.3389 -0.4056 -0.1946
13365WAT     H155265   1.136   8.367   5.419 -0.3167 -2.9639  1.4658
13365WAT     H255266   1.233   8.385   5.305 -2.3350  1.6087  0.2522
13365WAT    EPW55267   1.217   8.362   5.387 -0.5992 -0.4768  0.0834
13366WAT      O55268   2.862   5.594   5.222 -0.0090 -0.4380  0.9611
13366WAT     H155269   2.840   5.619   5.133  1.4752  1.5766  1.1068
13366WAT     H255270   2.895   5.504   5.214  1.9272  0.3753 -0.8412
13366WAT    EPW55271   2.863   5.585   5.209  0.4421 -0.0648  0.7424
13367WAT      O55272  -4.842   6.412   5.907  0.2627 -0.5701 -0.1309
13367WAT     H155273  -4.792   6.433   5.986 -0.6961 -1.7498  0.8206
13367WAT     H255274  -4.928   6.387   5.940 -1.9859  3.8491 -1.7911
13367WAT    EPW55275  -4.846   6.412   5.922 -0.1602 -0.1428 -0.2244
13368WAT      O55276  -0.625   7.578   3.468 -0.3944 -0.5676 -0.7067
13368WAT     H155277  -0.561   7.605   3.401  0.2937 -0.1808  0.0946
13368WAT     H255278  -0.710   7.587   3.424  0.1223 -1.8189 -2.0413
13368WAT    EPW55279  -0.628   7.583   3.453 -0.2355 -0.6816 -0.7770
13369WAT      O55280   5.650   8.736   2.763 -0.6560 -0.2467 -0.5661
13369WAT     H155281   5.576   8.759   2.706  0.0243 -0.2340 -1.4648
13369WAT     H255282   5.609   8.714   2.847 -1.5367  1.6338 -0.4550
13369WAT    EPW55283   5.635   8.736   2.766 -0.6824  0.0029 -0.6700
13370WAT      O55284  -3.854   7.507   2.350 -0.0376  0.3779 -0.3480
13370WAT     H155285  -3.908   7.448   2.296 -0.6563  0.0949  0.5427
13370WAT     H255286  -3.800   7.448   2.402  1.1797  0.6667 -1.2590
13370WAT    EPW55287  -3.854   7.491   2.350  0.0415  0.3786 -0.3507
13371WAT      O55288  -4.022   7.786   6.723 -0.4059 -0.6019 -0.0862
13371WAT     H155289  -4.106   7.823   6.750 -1.8453 -1.8629 -2.4377
13371WAT     H255290  -4.001   7.723   6.792 -0.0099  1.5092  1.8303
13371WAT    EPW55291  -4.030   7.782   6.735 -0.5438 -0.4897 -0.1435
13372WAT      O55292   5.527   2.701   2.584  0.1250  0.2636 -0.3597
13372WAT     H155293   5.563   2.708   2.672  0.1189 -2.6334 -0.0450
13372WAT     H255294   5.432   2.706   2.596  0.0892 -0.8778 -0.0787
13372WAT    EPW55295   5.519   2.703   2.597  0.1194 -0.2691 -0.2810
13373WAT      O55296  -0.010   0.131   8.351  0.4747 -0.4887  0.2385
13373WAT     H155297   0.069   0.146   8.301  1.7270 -1.7946  1.7009
13373WAT     H255298   0.018   0.135   8.443 -1.1308 -1.0465  0.8034
13373WAT    EPW55299   0.004   0.134   8.357  0.4281 -0.7345  0.5054
13374WAT      O55300  -1.356   1.705   8.639 -0.6718  0.0589 -0.1395
13374WAT     H155301  -1.289   1.646   8.675  0.1262  1.5857  0.9786
13374WAT     H255302  -1.423   1.646   8.605  0.8647 -1.5240 -0.6009
13374WAT    EPW55303  -1.356   1.689   8.639 -0.3639  0.0515 -0.0529
13375WAT      O55304  -7.141   9.812   7.031  0.4024 -0.0832 -0.5905
13375WAT     H155305  -7.101   9.845   7.111 -1.1157 -2.5696  1.3420
13375WAT     H255306  -7.229   9.847   7.032  0.5986  0.4818 -1.6252
13375WAT    EPW55307  -7.147   9.821   7.042  0.2282 -0.3366 -0.4723
13376WAT      O55308  -1.982   6.538   8.628 -0.1349  0.2000  0.2020
13376WAT     H155309  -1.889   6.559   8.628 -0.8916  4.4892  0.3206
13376WAT     H255310  -1.987   6.451   8.590  3.8196  0.2888 -0.9426
13376WAT    EPW55311  -1.971   6.529   8.623  0.2869  0.7775  0.0668
13377WAT      O55312   0.689   9.340   0.475 -0.1434  0.7789 -0.0401
13377WAT     H155313   0.678   9.401   0.548 -1.0583  0.9969 -0.3426
13377WAT     H255314   0.615   9.360   0.416 -1.4235 -1.6643  0.5969
13377WAT    EPW55315   0.677   9.351   0.477 -0.4329  0.4854  0.0040
13378WAT      O55316  -2.703   4.308   5.954  0.8693  0.2782 -0.1434
13378WAT     H155317  -2.623   4.275   5.996 -0.6111 -1.9916  1.1734
13378WAT     H255318  -2.747   4.229   5.923 -0.9709  1.4396 -0.6403
13378WAT    EPW55319  -2.698   4.293   5.956  0.4314  0.1321 -0.0353
13379WAT      O55320   7.675   0.133   5.269 -0.2477 -0.3024 -0.5546
13379WAT     H155321   7.714   0.120   5.356  1.0267 -0.4602 -1.1317
13379WAT     H255322   7.665   0.044   5.234 -1.2190 -0.2653 -0.3793
13379WAT    EPW55323   7.679   0.119   5.276 -0.2078 -0.3183 -0.6075
13380WAT      O55324   5.369   0.559   4.088  0.3591 -0.3943  0.0470
13380WAT     H155325   5.393   0.467   4.085  0.6329 -0.3243 -0.0480
13380WAT     H255326   5.287   0.562   4.137 -0.8700 -0.9251 -1.8855
13380WAT    EPW55327   5.362   0.548   4.094  0.2332 -0.4551 -0.2205
13381WAT      O55328  -1.833   2.869   1.421  0.0094 -0.2431  0.7541
13381WAT     H155329  -1.908   2.907   1.466  0.8225 -0.4245  2.3712
13381WAT     H255330  -1.855   2.776   1.411 -0.2446 -0.1726  0.6641
13381WAT    EPW55331  -1.846   2.862   1.426  0.0831 -0.2577  0.9555
13382WAT      O55332   3.359   2.324   3.415 -0.5953  0.2309  0.4176
13382WAT     H155333   3.434   2.314   3.357 -0.7005 -1.2672  0.4913
13382WAT     H255334   3.283   2.307   3.359 -0.7050 -1.0685  0.9342
13382WAT    EPW55335   3.359   2.320   3.400 -0.6236 -0.1380  0.4954
13383WAT      O55336   0.582   6.765   8.393 -1.1070 -0.3356  0.0344
13383WAT     H155337   0.540   6.783   8.309 -1.2291  0.7383  0.3099
13383WAT     H255338   0.564   6.843   8.446 -1.8243 -1.3862  1.3768
13383WAT    EPW55339   0.574   6.778   8.389 -1.2177 -0.3326  0.2475
13384WAT      O55340   1.791   3.093   2.898  0.4753  0.8888 -0.1063
13384WAT     H155341   1.716   3.082   2.840  1.3241 -0.9103 -0.9520
13384WAT     H255342   1.804   3.006   2.937  0.3885  1.8687  2.2412
13384WAT    EPW55343   1.783   3.080   2.895  0.5758  0.7808  0.0918
13385WAT      O55344   3.335   9.228   0.418  0.1144  0.6685  0.1432
13385WAT     H155345   3.388   9.169   0.472  2.0652  1.6825 -0.5582
13385WAT     H255346   3.334   9.311   0.467  1.6337  1.5043 -1.1255
13385WAT    EPW55347   3.342   9.231   0.432  0.5721  0.9122 -0.1166
13386WAT      O55348   1.193   8.392   0.026  0.0333  0.2843 -0.0063
13386WAT     H155349   1.187   8.487   0.015 -2.2603  0.2690  0.6189
13386WAT     H255350   1.154   8.356  -0.054 -0.6548 -0.0704  0.4734
13386WAT    EPW55351   1.187   8.400   0.014 -0.3600  0.2356  0.1392
13387WAT      O55352   8.745   2.852   0.645 -0.7437 -0.5299 -0.1036
13387WAT     H155353   8.789   2.767   0.644  1.9736  0.7363  1.2972
13387WAT     H255354   8.790   2.903   0.578  0.0326  0.8309  1.3963
13387WAT    EPW55355   8.757   2.847   0.636 -0.2832 -0.1835  0.2790
13388WAT      O55356  -3.602   8.571   3.275  0.5138  0.0271  0.2731
13388WAT     H155357  -3.637   8.567   3.364  1.7031 -0.2405  0.7508
13388WAT     H255358  -3.638   8.493   3.231 -0.9814  0.7588  0.1493
13388WAT    EPW55359  -3.611   8.560   3.281  0.4735  0.0887  0.3197
13389WAT      O55360   3.575   1.302   7.368  0.2899 -0.4451 -0.4614
13389WAT     H155361   3.549   1.240   7.300 -0.2949  1.2375 -1.8621
13389WAT     H255362   3.667   1.321   7.348  1.0678 -2.1951  1.1150
13389WAT    EPW55363   3.584   1.297   7.356  0.3154 -0.4539 -0.4382
13390WAT      O55364   1.043   0.304   6.257  0.3758 -0.6520 -0.6096
13390WAT     H155365   1.125   0.283   6.212  0.3966 -2.9667  0.3146
13390WAT     H255366   1.011   0.219   6.288 -2.5290  0.1241 -1.1409
13390WAT    EPW55367   1.049   0.290   6.255 -0.0046 -0.8550 -0.5579
13391WAT      O55368  -0.298   6.408   7.856 -0.3867 -0.2962  0.7228
13391WAT     H155369  -0.310   6.378   7.766 -0.5595 -0.3570  0.7650
13391WAT     H255370  -0.229   6.473   7.850 -1.9844  1.4480  0.1613
13391WAT    EPW55371  -0.291   6.413   7.843 -0.6202 -0.0739  0.6540
13392WAT      O55372  -2.820   6.733   1.267 -0.5279  0.4927  0.9504
13392WAT     H155373  -2.899   6.718   1.215 -0.3527  1.2816  0.4464
13392WAT     H255374  -2.759   6.773   1.206 -0.4291  1.7454  1.8401
13392WAT    EPW55375  -2.823   6.736   1.252 -0.4917  0.7617  1.0012
13393WAT      O55376  -3.634   4.884   7.512 -0.9943  0.8565 -0.3297
13393WAT     H155377  -3.574   4.938   7.564  1.2722 -2.7071  1.1802
13393WAT     H255378  -3.641   4.929   7.429  3.4269  1.9270 -0.4015
13393WAT    EPW55379  -3.627   4.897   7.508 -0.1123  0.5279 -0.1400
13394WAT      O55380   1.227   9.098   8.167 -0.6173 -0.0921 -0.7132
13394WAT     H155381   1.174   9.120   8.244  1.6030  0.5631  0.7048
13394WAT     H255382   1.268   9.015   8.189  2.0411  1.2901  0.0388
13394WAT    EPW55383   1.225   9.090   8.180  0.0262  0.1769 -0.4268
13395WAT      O55384   1.255  10.081   6.149 -0.8044 -0.0348 -0.7829
13395WAT     H155385   1.186  10.028   6.109 -1.1552 -0.6634  0.6063
13395WAT     H255386   1.211  10.162   6.175 -0.4934  0.5382 -1.9544
13395WAT    EPW55387   1.240  10.085   6.147 -0.8097 -0.0420 -0.7541
13396WAT      O55388  -5.659   2.584   8.098 -0.0777 -0.4309  0.5728
13396WAT     H155389  -5.603   2.629   8.160  0.0102 -1.7859  1.5253
13396WAT     H255390  -5.725   2.649   8.073 -0.1063  0.1560  2.0890
13396WAT    EPW55391  -5.661   2.599   8.103 -0.0699 -0.5323  0.8988
13397WAT      O55392   7.646   5.350   2.227  0.3220 -0.2162 -0.8727
13397WAT     H155393   7.735   5.364   2.260  0.4052  0.2820 -1.2942
13397WAT     H255394   7.626   5.430   2.178 -1.3717  0.8891  1.4217
13397WAT    EPW55395   7.655   5.362   2.225  0.1097 -0.0048 -0.6257
13398WAT      O55396   8.178   5.071   0.842  0.1082  0.2637  0.4126
13398WAT     H155397   8.107   5.019   0.879  0.8844 -1.9529 -1.0696
13398WAT     H255398   8.135   5.147   0.804 -1.1012  0.5456  2.2193
13398WAT    EPW55399   8.163   5.075   0.842  0.0510  0.0086  0.4553
13399WAT      O55400   2.943   0.864   8.135 -0.1677  0.0960  0.5447
13399WAT     H155401   3.016   0.919   8.165  0.4565  0.7920 -2.0406
13399WAT     H255402   2.865   0.917   8.152 -0.2422 -0.7861  3.6400
13399WAT    EPW55403   2.942   0.878   8.141 -0.0952  0.0714  0.6118
13400WAT      O55404  -4.164   4.157   7.810 -0.3537 -0.2707 -0.7755
13400WAT     H155405  -4.106   4.170   7.736 -0.6663 -0.0384 -0.9827
13400WAT     H255406  -4.244   4.119   7.772 -1.3008  1.6970 -0.8672
13400WAT    EPW55407  -4.167   4.154   7.796 -0.5200  0.0196 -0.8149
13401WAT      O55408   2.038   9.690   2.329 -0.6429 -0.6600 -0.0191
13401WAT     H155409   2.079   9.654   2.407 -0.4547 -2.1956 -0.7890
13401WAT     H255410   1.996   9.615   2.287 -2.0800  0.4181 -0.5861
13401WAT    EPW55411   2.038   9.676   2.334 -0.8076 -0.7205 -0.1954
13402WAT      O55412   5.281   7.989   2.887  0.3105 -0.5066  0.6344
13402WAT     H155413   5.288   7.896   2.865  0.2951 -0.8110  1.8438
13402WAT     H255414   5.371   8.021   2.885  0.3549 -0.6332  0.5745
13402WAT    EPW55415   5.294   7.981   2.884  0.3142 -0.5634  0.7861
13403WAT      O55416  -2.557   7.110   8.252 -0.3174  0.2508 -0.3411
13403WAT     H155417  -2.467   7.124   8.222 -0.0809  0.0351  0.2694
13403WAT     H255418  -2.550   7.043   8.319 -1.1265 -0.9861 -1.4373
13403WAT    EPW55419  -2.545   7.103   8.257 -0.3929  0.0591 -0.4053
13404WAT      O55420  -6.495   8.511   7.391  0.5510  0.5342 -0.5074
13404WAT     H155421  -6.574   8.524   7.339  0.4638  0.7220 -0.3246
13404WAT     H255422  -6.441   8.452   7.337  0.1112  0.0667 -0.4401
13404WAT    EPW55423  -6.498   8.505   7.377  0.4816  0.4969 -0.4747
13405WAT      O55424   5.812   5.014   4.557 -0.1720 -0.0980 -0.0058
13405WAT     H155425   5.896   4.968   4.565 -0.3193 -0.2503  0.8185
13405WAT     H255426   5.836   5.107   4.560  0.2035 -0.0605 -2.5233
13405WAT    EPW55427   5.827   5.020   4.559 -0.1419 -0.1132 -0.2291
13406WAT      O55428   1.284   6.281   4.547 -0.7789 -0.1702  0.1828
13406WAT     H155429   1.251   6.286   4.458  1.2602  3.1493 -0.5511
13406WAT     H255430   1.368   6.235   4.540 -0.1300  0.9895  0.1811
13406WAT    EPW55431   1.291   6.276   4.535 -0.4243  0.4206  0.0856
13407WAT      O55432   3.930   6.242   7.523  0.2992  0.1091  0.4082
13407WAT     H155433   3.880   6.269   7.600 -1.3449  1.2573 -0.9773
13407WAT     H255434   4.016   6.282   7.536  1.5923 -3.1791  3.5873
13407WAT    EPW55435   3.935   6.251   7.535  0.2530 -0.1731  0.6447
13408WAT      O55436   1.342   1.628   8.448 -0.1562 -0.3507  0.2509
13408WAT     H155437   1.398   1.619   8.371  0.0190  0.3539  0.2861
13408WAT     H255438   1.262   1.668   8.414 -0.5498 -1.1302  0.2419
13408WAT    EPW55439   1.339   1.632   8.433 -0.1850 -0.3605  0.2542
13409WAT      O55440  -7.114   7.297   8.173 -0.1736 -0.6028  0.3349
13409WAT     H155441  -7.032   7.250   8.162 -0.5660 -0.9672 -1.2691
13409WAT     H255442  -7.107   7.372   8.115 -1.0353 -0.7498  0.0223
13409WAT    EPW55443  -7.103   7.300   8.164 -0.3390 -0.6704  0.0825
13410WAT      O55444  -0.857   7.191   2.165 -0.0606 -0.6454 -0.8625
13410WAT     H155445  -0.888   7.102   2.151 -0.9646 -0.7680  1.4335
13410WAT     H255446  -0.892   7.216   2.251  1.4085  1.3733 -0.7572
13410WAT    EPW55447  -0.865   7.183   2.175  0.0139 -0.3955 -0.5459
13411WAT      O55448   4.649   2.042   4.336 -0.1156  0.1575  0.1557
13411WAT     H155449   4.727   1.997   4.367  0.7769  0.3333 -1.6659
13411WAT     H255450   4.592   1.973   4.304 -0.1424  0.1076  0.3138
13411WAT    EPW55451   4.652   2.027   4.336 -0.0014  0.1742 -0.0637
13412WAT      O55452   2.604   7.113   5.581 -0.2355  0.2741  0.6457
13412WAT     H155453   2.582   7.187   5.637 -1.0030  4.1199 -4.1654
13412WAT     H255454   2.699   7.101   5.594 -0.4452  0.6338  2.9455
13412WAT    EPW55455   2.614   7.121   5.590 -0.3644  0.8287  0.3145
13413WAT      O55456  -1.990   0.443   4.433  0.3570 -0.5654  0.2330
13413WAT     H155457  -1.933   0.431   4.509 -2.0928 -1.9883  2.0061
13413WAT     H255458  -2.022   0.532   4.441  2.7800  0.5437 -1.2375
13413WAT    EPW55459  -1.987   0.453   4.444  0.3535 -0.6068  0.2730
13414WAT      O55460   6.917   1.390   3.102  0.3179 -0.2049 -0.0140
13414WAT     H155461   6.973   1.463   3.128  1.7344 -1.2872  0.1133
13414WAT     H255462   6.858   1.378   3.176 -0.9483  1.7268 -0.6477
13414WAT    EPW55463   6.917   1.398   3.115  0.3378 -0.0929 -0.0808
13415WAT      O55464   3.330   4.022   5.687 -0.6313  0.3727  0.9726
13415WAT     H155465   3.305   3.938   5.648  0.1200 -0.1568  1.5992
13415WAT     H255466   3.422   4.012   5.709  0.0463  2.0841 -0.7799
13415WAT    EPW55467   3.339   4.010   5.685 -0.4427  0.5286  0.8240
13416WAT      O55468   1.509   6.410   2.215 -0.2916  0.2876 -0.6414
13416WAT     H155469   1.462   6.494   2.217 -1.0354 -0.1062 -1.0853
13416WAT     H255470   1.539   6.401   2.125 -1.4528 -0.5762 -0.9639
13416WAT    EPW55471   1.507   6.420   2.204 -0.5428  0.1216 -0.7426
13417WAT      O55472  -5.115   9.776   4.862  0.2551 -0.0661  0.8823
13417WAT     H155473  -5.166   9.823   4.797  2.5101 -2.4713 -3.0824
13417WAT     H255474  -5.167   9.698   4.881  0.6597 -0.6216 -0.1688
13417WAT    EPW55475  -5.128   9.772   4.856  0.6058 -0.4563  0.2205
13418WAT      O55476   1.031   6.604   0.029 -0.7329  0.3399  0.2969
13418WAT     H155477   1.102   6.552  -0.008 -2.9676 -1.4591 -1.8702
13418WAT     H255478   1.031   6.685  -0.023  0.1970  0.7344  0.8840
13418WAT    EPW55479   1.040   6.608   0.017 -0.9049  0.1547  0.0885
13419WAT      O55480   0.638   9.571   2.317 -0.2807 -0.2296 -0.0505
13419WAT     H155481   0.678   9.499   2.366 -3.5423 -2.8217 -0.8321
13419WAT     H255482   0.643   9.646   2.375  2.4265 -1.2474  1.2047
13419WAT    EPW55483   0.644   9.572   2.331 -0.3538 -0.7057  0.0119
13420WAT      O55484   4.433   2.919   7.432  0.3117 -1.2976 -0.3260
13420WAT     H155485   4.491   2.843   7.438 -0.0537 -1.6010 -0.6182
13420WAT     H255486   4.491   2.994   7.446  0.9094 -1.5572 -1.2747
13420WAT    EPW55487   4.448   2.919   7.434  0.3424 -1.3719 -0.4897
13421WAT      O55488   1.947   0.510   2.673 -0.0472  0.2721 -0.5128
13421WAT     H155489   1.976   0.555   2.752 -2.8540 -1.7169  1.8655
13421WAT     H255490   2.018   0.450   2.652 -0.3330 -1.2079  2.3217
13421WAT    EPW55491   1.960   0.508   2.680 -0.4552 -0.1854  0.1748
13422WAT      O55492  -5.291  10.006   6.266 -0.0995 -1.0631  0.0419
13422WAT     H155493  -5.301  10.043   6.354  1.4448 -2.5104  0.8912
13422WAT     H255494  -5.259  10.078   6.212 -1.8235  0.0572  0.4276
13422WAT    EPW55495  -5.288  10.020   6.271 -0.1233 -1.1067  0.2048
13423WAT      O55496   2.322   6.724   7.326  0.8899 -0.3769  0.0261
13423WAT     H155497   2.269   6.698   7.402  0.0739  1.0865 -0.0018
13423WAT     H255498   2.261   6.771   7.270  2.3192  1.9016  0.2762
13423WAT    EPW55499   2.307   6.727   7.329  0.9708  0.1166  0.0556
13424WAT      O55500  -2.428   5.916   5.036  0.0685  0.2743  0.4635
13424WAT     H155501  -2.455   5.974   4.964 -0.3932 -1.1659 -0.5531
13424WAT     H255502  -2.486   5.940   5.108 -0.6387  0.5655 -0.1842
13424WAT    EPW55503  -2.439   5.927   5.036 -0.0857  0.1230  0.2441
13425WAT      O55504   6.260   8.205   0.063 -0.4196 -0.4991 -0.2446
13425WAT     H155505   6.180   8.249   0.090 -0.4673 -0.7821  0.0782
13425WAT     H255506   6.315   8.203   0.142  1.2745  2.5543 -1.1552
13425WAT    EPW55507   6.257   8.211   0.077 -0.2027 -0.1340 -0.3221
13426WAT      O55508   2.455   8.042   1.400  0.2623  0.9043 -0.5959
13426WAT     H155509   2.454   7.950   1.429  2.3273  1.7506  2.7610
13426WAT     H255510   2.363   8.061   1.380 -0.1668 -1.9626 -1.8961
13426WAT    EPW55511   2.442   8.032   1.401  0.4781  0.6375 -0.3246
13427WAT      O55512   7.047   8.105   1.160  0.4738  0.4983 -0.2573
13427WAT     H155513   7.036   8.011   1.169 -0.5835  0.6664  0.4365
13427WAT     H255514   7.126   8.125   1.211 -0.1803  0.1848  0.9077
13427WAT    EPW55515   7.056   8.096   1.168  0.2480  0.4792 -0.0122
13428WAT      O55516  -2.664   6.119   8.637 -0.1360 -0.1994  0.5309
13428WAT     H155517  -2.593   6.112   8.701  0.1680 -1.3914  0.0848
13428WAT     H255518  -2.734   6.065   8.674  0.6091 -2.2194 -0.8583
13428WAT    EPW55519  -2.664   6.111   8.651  0.0024 -0.6227  0.2894
13429WAT      O55520  -5.678   5.502   7.940  0.1238  0.4914  0.0790
13429WAT     H155521  -5.643   5.443   7.873  0.8861  0.4023  0.5485
13429WAT     H255522  -5.769   5.473   7.951  0.4857 -0.6115  0.3081
13429WAT    EPW55523  -5.685   5.490   7.933  0.2718  0.3343  0.1712
13430WAT      O55524   4.662   3.780   2.649 -0.2558 -0.3530  0.2632
13430WAT     H155525   4.728   3.848   2.637 -0.5081 -0.1894 -0.2538
13430WAT     H255526   4.591   3.823   2.696 -0.9474  0.1056 -1.1379
13430WAT    EPW55527   4.661   3.795   2.653 -0.3803 -0.2708  0.0103
13431WAT      O55528   7.606   6.109   1.687 -0.0377  0.5658 -0.1856
13431WAT     H155529   7.697   6.087   1.669  0.0578  0.9911 -0.2433
13431WAT     H255530   7.559   6.026   1.679  0.5690  0.0457  1.3730
13431WAT    EPW55531   7.612   6.095   1.683  0.0548  0.5534  0.0124
13432WAT      O55532  -4.216   3.728   8.896  0.0741  0.0724 -0.4432
13432WAT     H155533  -4.228   3.669   8.971 -1.6364 -0.4112 -1.0380
13432WAT     H255534  -4.164   3.677   8.834  0.6156  0.0812  0.0027
13432WAT    EPW55535  -4.211   3.713   8.898 -0.0801  0.0098 -0.4625
13433WAT      O55536   4.283   5.743   5.378  0.1858 -0.7132 -0.2588
13433WAT     H155537   4.230   5.667   5.355 -0.0353 -1.1743  1.6209
13433WAT     H255538   4.290   5.739   5.473  0.1736  1.6132 -0.1119
13433WAT    EPW55539   4.277   5.733   5.388  0.1550 -0.4673  0.0083
13434WAT      O55540  -1.115   8.975   0.752  0.7235  0.1419 -0.1956
13434WAT     H155541  -1.033   9.017   0.729  0.5442  0.4452 -0.2860
13434WAT     H255542  -1.179   9.047   0.757  0.3916 -0.1254 -0.4664
13434WAT    EPW55543  -1.113   8.990   0.749  0.6561  0.1464 -0.2433
13435WAT      O55544   4.806   1.622   3.909 -0.2541  0.0102  0.3105
13435WAT     H155545   4.896   1.652   3.925 -0.3395  1.2337 -1.2463
13435WAT     H255546   4.816   1.531   3.881  0.4435 -0.0565  0.7468
13435WAT    EPW55547   4.820   1.614   3.908 -0.1733  0.1627  0.1628
13436WAT      O55548   1.607   3.464   4.798  0.5867 -0.8470 -0.1681
13436WAT     H155549   1.572   3.448   4.886 -1.1502 -2.3015 -1.0723
13436WAT     H255550   1.553   3.411   4.740  1.0713  0.8150 -2.2717
13436WAT    EPW55551   1.596   3.455   4.802  0.4215 -0.8196 -0.5646
13437WAT      O55552  -1.193   5.582   4.143  0.2119  0.1417 -0.7856
13437WAT     H155553  -1.160   5.672   4.151 -0.8785  0.4466  0.6316
13437WAT     H255554  -1.160   5.538   4.221  0.7892 -0.7301 -1.5045
13437WAT    EPW55555  -1.184   5.588   4.154  0.1442  0.0670 -0.6936
13438WAT      O55556  -7.520   7.876   8.305  0.0650  0.3924 -0.7143
13438WAT     H155557  -7.484   7.807   8.362  0.5133  1.9217  0.9540
13438WAT     H255558  -7.445   7.906   8.254  0.6592  1.7849  0.8809
13438WAT    EPW55559  -7.505   7.871   8.306  0.2024  0.7777 -0.2837
13439WAT      O55560   4.663   8.915   3.035 -0.1235  0.5932 -0.4663
13439WAT     H155561   4.738   8.923   2.976 -1.3309 -0.1897 -2.1505
13439WAT     H255562   4.686   8.842   3.092  1.6198  2.1602  0.9928
13439WAT    EPW55563   4.676   8.907   3.035 -0.0529  0.6967 -0.4960
13440WAT      O55564   2.706   8.490   6.936 -0.2058 -0.8103 -0.2675
13440WAT     H155565   2.779   8.433   6.960  0.1576  0.0474  0.6812
13440WAT     H255566   2.641   8.477   7.005 -0.0284  0.0960  0.0723
13440WAT    EPW55567   2.707   8.480   6.948 -0.1345 -0.5774 -0.0975
13441WAT      O55568   7.256   3.514   1.044 -0.2837 -0.2907  0.3943
13441WAT     H155569   7.212   3.483   0.965  0.8029 -0.7463 -0.0595
13441WAT     H255570   7.217   3.465   1.116  0.2825 -1.5417 -0.1336
13441WAT    EPW55571   7.245   3.504   1.043 -0.0658 -0.5157  0.2648
13442WAT      O55572   7.467   6.093   0.994 -0.6108  0.0248 -0.2250
13442WAT     H155573   7.429   6.154   1.057  2.9233 -0.2492  2.5307
13442WAT     H255574   7.540   6.142   0.955 -0.6356 -0.9555 -1.5740
13442WAT    EPW55575   7.472   6.107   0.997 -0.1478 -0.1407 -0.0394
13443WAT      O55576   7.217   4.610   3.299  0.5646 -0.0848 -0.4471
13443WAT     H155577   7.182   4.671   3.234 -3.6138 -2.8503 -1.1884
13443WAT     H255578   7.140   4.579   3.346  2.9013 -2.0246  2.4121
13443WAT    EPW55579   7.202   4.614   3.296  0.3216 -0.7055 -0.1677
13444WAT      O55580  -3.455   6.753   7.367 -0.3320  0.3368 -0.1114
13444WAT     H155581  -3.364   6.728   7.379 -1.1111 -1.1819  4.2041
13444WAT     H255582  -3.478   6.717   7.281  2.1765 -2.4824  0.2411
13444WAT    EPW55583  -3.446   6.745   7.357 -0.1040 -0.2353  0.5043
13445WAT      O55584   6.467   3.875   1.947  0.0439 -0.4455  0.0501
13445WAT     H155585   6.382   3.853   1.909  0.4615 -0.9999 -0.6012
13445WAT     H255586   6.519   3.904   1.872  0.0550  1.0933  0.6303
13445WAT    EPW55587   6.463   3.876   1.932  0.1006 -0.3157  0.0408
13446WAT      O55588   3.181   5.963   1.931  0.3108  0.4893 -0.3394
13446WAT     H155589   3.179   6.024   1.857  2.6064  0.3772 -0.5503
13446WAT     H255590   3.135   6.009   2.001  1.8377  2.4509 -0.5433
13446WAT    EPW55591   3.175   5.977   1.930  0.8149  0.7331 -0.3940
13447WAT      O55592   4.777   8.035   3.239 -0.8117 -0.3768 -0.0891
13447WAT     H155593   4.767   8.128   3.259 -0.0025 -0.1633 -0.6643
13447WAT     H255594   4.782   7.993   3.325  0.4369  0.2921  0.1825
13447WAT    EPW55595   4.776   8.042   3.253 -0.5405 -0.2604 -0.1292
13448WAT      O55596  -3.039   0.859   7.543  0.7719  0.4188  0.2836
13448WAT     H155597  -3.120   0.808   7.550 -0.3164  2.0327  0.0926
13448WAT     H255598  -2.976   0.813   7.598 -0.4514 -0.5793  0.8833
13448WAT    EPW55599  -3.041   0.847   7.551  0.4669  0.5000  0.3376
13449WAT      O55600   3.110   6.305   4.229 -0.3866 -0.1443  0.4149
13449WAT     H155601   3.164   6.316   4.308 -2.2894 -1.3084  1.9796
13449WAT     H255602   3.144   6.227   4.187 -0.8935 -0.9887  1.5036
13449WAT    EPW55603   3.121   6.297   4.234 -0.7044 -0.4091  0.7648
13450WAT      O55604  -0.131   0.093   4.542 -0.0799 -0.7424  0.2610
13450WAT     H155605  -0.111   0.177   4.501  1.2276 -1.6712 -1.1148
13450WAT     H255606  -0.128   0.030   4.470  0.6887 -2.2203  1.5224
13450WAT    EPW55607  -0.128   0.096   4.527  0.1939 -1.0598  0.2458
13451WAT      O55608   0.384   2.314   7.718  0.0935 -0.3820  0.5107
13451WAT     H155609   0.406   2.401   7.684  2.5028  0.0189  2.8132
13451WAT     H255610   0.342   2.332   7.802 -0.1223 -1.4495  0.6353
13451WAT    EPW55611   0.381   2.328   7.724  0.3828 -0.4699  0.8309
13452WAT      O55612   2.390   6.254   4.708  0.0289 -0.3464 -0.0721
13452WAT     H155613   2.350   6.190   4.650 -2.5229  0.8650  0.1779
13452WAT     H255614   2.398   6.334   4.655  0.6223 -0.1068  0.3598
13452WAT    EPW55615   2.386   6.256   4.694 -0.2294 -0.1550  0.0179
13453WAT      O55616   2.752   1.834   3.783 -0.3598  0.1849 -0.1004
13453WAT     H155617   2.810   1.762   3.805  0.0627  0.8192  0.9347
13453WAT     H255618   2.804   1.889   3.723  0.3012  0.9621  1.1355
13453WAT    EPW55619   2.767   1.832   3.778 -0.2168  0.3711  0.1991
13454WAT      O55620  -0.978   1.177   6.425 -0.2915  0.3188 -0.0409
13454WAT     H155621  -0.892   1.138   6.442 -0.6553 -0.6688 -0.3881
13454WAT     H255622  -1.036   1.133   6.488 -0.8738 -0.3577 -1.0196
13454WAT    EPW55623  -0.975   1.166   6.436 -0.4163  0.0993 -0.2155
13455WAT      O55624  -1.238   1.269   5.811 -0.0810  0.0236  0.1204
13455WAT     H155625  -1.287   1.274   5.729  0.1052  2.0290  0.0886
13455WAT     H255626  -1.300   1.299   5.878 -0.1350 -1.2928  0.6892
13455WAT    EPW55627  -1.253   1.274   5.809 -0.0635  0.1144  0.1912
13456WAT      O55628   6.608   4.813   3.543  0.3362  0.0273  0.1237
13456WAT     H155629   6.575   4.816   3.633  1.0251 -0.8004  0.4209
13456WAT     H255630   6.580   4.896   3.505 -1.9766 -0.5439  0.3882
13456WAT    EPW55631   6.600   4.824   3.550  0.1221 -0.1571  0.1978
13457WAT      O55632   4.492   4.277   3.853 -0.0872  0.3069 -0.1245
13457WAT     H155633   4.502   4.371   3.841  1.6705  0.3306  1.0388
13457WAT     H255634   4.403   4.265   3.884 -0.1000  1.6830  0.4080
13457WAT    EPW55635   4.482   4.288   3.856  0.1431  0.4916  0.0992
13458WAT      O55636   4.061   8.744   4.058 -0.1281  0.1610 -0.0378
13458WAT     H155637   4.155   8.758   4.043 -0.2764  1.9161  0.3458
13458WAT     H255638   4.057   8.691   4.138  0.6317  3.5652  2.5333
13458WAT    EPW55639   4.073   8.739   4.067 -0.0474  0.8416  0.3519
13459WAT      O55640   0.593   2.151   4.140 -0.4218  0.4356  0.3268
13459WAT     H155641   0.636   2.236   4.128 -0.9932  0.5172 -1.4574
13459WAT     H255642   0.601   2.108   4.054 -2.9647  0.0321  0.2101
13459WAT    EPW55643   0.600   2.156   4.127 -0.8326  0.3932  0.0761
13460WAT      O55644   5.582   0.983   3.469 -0.4460  0.3782 -0.0490
13460WAT     H155645   5.516   1.051   3.483 -0.7803 -0.0463  0.4431
13460WAT     H255646   5.572   0.958   3.377 -1.4078 -0.1427  0.1923
13460WAT    EPW55647   5.572   0.989   3.459 -0.6170  0.2535  0.0478
13461WAT      O55648  -1.166   1.488   7.686 -0.9733 -0.6811 -0.1081
13461WAT     H155649  -1.176   1.412   7.744  1.5047 -1.7282 -0.9434
13461WAT     H255650  -1.204   1.460   7.603 -0.4531 -0.8707 -0.2871
13461WAT    EPW55651  -1.172   1.475   7.683 -0.5778 -0.8442 -0.2420
13462WAT      O55652  -2.784   0.316   5.448 -0.8327 -0.0261 -0.3653
13462WAT     H155653  -2.843   0.291   5.377  1.2606 -0.8305 -1.9471
13462WAT     H255654  -2.706   0.348   5.403  0.3700 -0.0516  1.6062
13462WAT    EPW55655  -2.781   0.317   5.432 -0.3979 -0.1355 -0.3140
13463WAT      O55656   1.439  10.338   3.066  0.4100 -0.6654  0.2177
13463WAT     H155657   1.414  10.278   3.137 -1.1580  0.1597  0.4095
13463WAT     H255658   1.382  10.413   3.078  0.1727 -0.4678 -1.8729
13463WAT    EPW55659   1.428  10.340   3.077  0.1719 -0.5306 -0.0327
13464WAT      O55660   5.275   6.342   1.818 -0.1062  0.0443  0.3361
13464WAT     H155661   5.329   6.399   1.873 -0.9116  0.3420  0.8308
13464WAT     H255662   5.228   6.286   1.880 -1.8910  1.1523  0.0538
13464WAT    EPW55663   5.276   6.342   1.833 -0.4478  0.2296  0.3642
13465WAT      O55664  -2.694   9.915   1.871  0.2346 -0.5085  0.5795
13465WAT     H155665  -2.772   9.901   1.924 -0.6517  2.3080  0.1893
13465WAT     H255666  -2.645   9.983   1.917 -0.2499  1.5936 -1.7704
13465WAT    EPW55667  -2.698   9.922   1.884  0.0538  0.1402  0.2180
13466WAT      O55668   3.118   6.836   2.653  0.4981 -0.3314 -0.0424
13466WAT     H155669   3.046   6.781   2.684  0.2430  0.2145  0.3665
13466WAT     H255670   3.075   6.918   2.627  1.1203  0.5533  1.5972
13466WAT    EPW55671   3.103   6.840   2.653  0.5465 -0.1428  0.2278
13467WAT      O55672  -5.329   4.716   8.817  0.1600  0.2561 -0.4055
13467WAT     H155673  -5.327   4.661   8.739  0.6021 -1.1335  0.5361
13467WAT     H255674  -5.241   4.753   8.823  0.2645  0.0010 -0.3332
13467WAT    EPW55675  -5.317   4.714   8.807  0.2322  0.0391 -0.2718
13468WAT      O55676  -4.375   0.316   7.451  0.2461 -0.4284  0.1102
13468WAT     H155677  -4.297   0.308   7.396 -1.2619 -1.2898 -2.0078
13468WAT     H255678  -4.448   0.297   7.393 -1.7157  1.7656  1.6465
13468WAT    EPW55679  -4.374   0.313   7.436 -0.2115 -0.2527  0.0334
13469WAT      O55680  -1.959   5.931   7.245  0.3526  0.0272  0.7672
13469WAT     H155681  -1.892   5.864   7.251 -0.1522 -0.4879  0.7232
13469WAT     H255682  -1.912   6.010   7.219  0.6958 -0.7264 -1.0443
13469WAT    EPW55683  -1.944   5.933   7.243  0.3313 -0.1402  0.5224
13470WAT      O55684   0.610   3.515   6.736  0.1521  0.3028 -0.3963
13470WAT     H155685   0.694   3.534   6.694 -0.8209 -0.7442 -3.0974
13470WAT     H255686   0.546   3.565   6.685 -1.0852 -0.7242  0.0913
13470WAT    EPW55687   0.612   3.524   6.724 -0.1394  0.0292 -0.6883
13471WAT      O55688  10.075   0.119   1.309 -0.1360  0.3344 -0.1389
13471WAT     H155689  10.041   0.053   1.370 -1.6670  0.5714 -0.6872
13471WAT     H255690  10.151   0.077   1.268  0.3828 -0.1561  1.2531
13471WAT    EPW55691  10.081   0.105   1.312 -0.2699  0.3010 -0.0276
13472WAT      O55692  -0.156   7.206   2.461  0.0216 -0.3544 -0.3760
13472WAT     H155693  -0.080   7.160   2.428 -0.4392 -1.2443 -0.2328
13472WAT     H255694  -0.188   7.257   2.387 -0.8116 -2.0692 -1.2508
13472WAT    EPW55695  -0.151   7.207   2.447 -0.1490 -0.6979 -0.4725
13473WAT      O55696   1.115   9.302   5.039 -0.1044  0.7225  0.3181
13473WAT     H155697   1.141   9.391   5.065 -1.2666  1.3414 -0.5584
13473WAT     H255698   1.054   9.315   4.967 -0.4136 -0.7950  0.2778
13473WAT    EPW55699   1.110   9.316   5.033 -0.2985  0.6042  0.1969
13474WAT      O55700   5.202   5.800   1.854  1.0994  0.1673 -0.2541
13474WAT     H155701   5.167   5.887   1.836  0.7572 -0.1294 -1.0958
13474WAT     H255702   5.132   5.756   1.902  1.3665  0.4284  0.3836
13474WAT    EPW55703   5.188   5.806   1.858  1.0893  0.1628 -0.2810
13475WAT      O55704   1.983   7.710   4.044 -0.0856 -0.2424  0.9031
13475WAT     H155705   1.901   7.691   4.089 -0.0265  1.5366  1.8457
13475WAT     H255706   2.051   7.692   4.108  0.1033  0.5816  0.9480
13475WAT    EPW55707   1.981   7.705   4.058 -0.0529  0.1006  1.0333
13476WAT      O55708  -0.350   6.059   6.569  0.1322  0.3242 -0.7326
13476WAT     H155709  -0.392   5.974   6.554 -0.4452  0.4366  0.1709
13476WAT     H255710  -0.400   6.120   6.515 -2.0013  0.7451  1.5481
13476WAT    EPW55711  -0.362   6.055   6.560 -0.2254  0.3943 -0.3123
13477WAT      O55712   3.765   8.417   1.834  0.0807 -0.2933 -0.0581
13477WAT     H155713   3.802   8.480   1.895 -2.4406 -1.8815  3.5371
13477WAT     H255714   3.788   8.331   1.871  1.0259 -1.5345 -3.1791
13477WAT    EPW55715   3.773   8.414   1.847 -0.1271 -0.6666  0.0045
13478WAT      O55716   1.546   3.823   5.237  0.3756  0.3444  0.3548
13478WAT     H155717   1.534   3.780   5.321  1.4749  0.5539  0.6393
13478WAT     H255718   1.462   3.813   5.192  0.6202 -2.2461  0.3178
13478WAT    EPW55719   1.534   3.816   5.242  0.5529  0.0303  0.3874
13479WAT      O55720   8.763   1.353   0.958  0.3652  0.0016 -0.7295
13479WAT     H155721   8.717   1.343   1.041  1.3455  0.7420 -0.0821
13479WAT     H255722   8.749   1.445   0.934  0.6716 -0.0287 -1.0244
13479WAT    EPW55723   8.755   1.364   0.966  0.5355  0.0952 -0.6830
13480WAT      O55724   3.268   0.478   5.598  0.2631  0.1528 -0.0008
13480WAT     H155725   3.261   0.417   5.671 -2.9143  2.1009  1.5397
13480WAT     H255726   3.178   0.500   5.576  1.1264  0.9480 -3.4999
13480WAT    EPW55727   3.255   0.472   5.605 -0.0420  0.5147 -0.2589
13481WAT      O55728  -4.934   7.745   7.374  0.0549  0.1662  0.6663
13481WAT     H155729  -4.921   7.659   7.334 -0.5356 -0.8348  2.5024
13481WAT     H255730  -5.016   7.777   7.336  2.5605  2.2459 -3.7466
13481WAT    EPW55731  -4.943   7.737   7.364  0.3076  0.3085  0.3264
13482WAT      O55732   3.990   5.085   3.334 -0.5290 -0.2379 -0.1257
13482WAT     H155733   3.962   5.141   3.406  4.7214  2.0868  0.5443
13482WAT     H255734   3.970   5.135   3.255  0.2484  0.6486  0.2214
13482WAT    EPW55735   3.984   5.099   3.333  0.2661  0.1855  0.0085
13483WAT      O55736  -0.223   2.626   8.278  0.4083  0.1272 -0.0551
13483WAT     H155737  -0.303   2.588   8.314  0.3224  1.4448  1.2516
13483WAT     H255738  -0.154   2.566   8.305 -0.1842 -1.6264 -2.1355
13483WAT    EPW55739  -0.225   2.613   8.286  0.3188  0.0697 -0.1569
13484WAT      O55740  -1.046  10.217   0.057  0.2572  0.2980  0.2281
13484WAT     H155741  -1.068  10.173   0.139 -1.1702  1.9352  0.7753
13484WAT     H255742  -1.066  10.152  -0.011  2.0098 -1.2920  1.1182
13484WAT    EPW55743  -1.051  10.203   0.059  0.3001  0.3042  0.4176
13485WAT      O55744   6.119   2.771   5.132 -0.4271  0.1317  0.7074
13485WAT     H155745   6.094   2.744   5.221 -1.7044 -2.0551 -0.2300
13485WAT     H255746   6.210   2.743   5.123  0.0142  1.2077  1.5995
13485WAT    EPW55747   6.127   2.764   5.143 -0.5374 -0.0148  0.7014
13486WAT      O55748   5.447   9.126   2.510 -0.0368  0.0998 -0.2094
13486WAT     H155749   5.440   9.217   2.539  0.3590  0.6679 -1.8261
13486WAT     H255750   5.376   9.116   2.446  0.4936 -0.4529 -0.7189
13486WAT    EPW55751   5.436   9.137   2.506  0.0854  0.1020 -0.4898
13487WAT      O55752   2.250   9.410   5.252 -1.3087 -0.1039  0.5878
13487WAT     H155753   2.301   9.346   5.303 -2.6899  0.2417  2.4777
13487WAT     H255754   2.302   9.422   5.172  0.2596 -1.6840  1.2826
13487WAT    EPW55755   2.264   9.403   5.248 -1.2840 -0.2670  0.9286
13488WAT      O55756  -1.113   9.140   1.160 -0.5270  0.5987 -0.1404
13488WAT     H155757  -1.167   9.189   1.098  0.3729  0.5000 -1.0360
13488WAT     H255758  -1.149   9.052   1.158 -0.6231  0.6412 -0.3978
13488WAT    EPW55759  -1.124   9.135   1.152 -0.4210  0.5908 -0.2924
13489WAT      O55760   5.197   1.092   8.595  0.1494 -0.1464 -0.1712
13489WAT     H155761   5.143   1.048   8.529 -0.1410 -1.6393  0.9949
13489WAT     H255762   5.146   1.087   8.676  1.0241  0.5078  0.4499
13489WAT    EPW55763   5.183   1.085   8.597  0.2265 -0.2571  0.0644
13490WAT      O55764  -2.606   6.258   6.446  0.6365 -0.0246 -0.4842
13490WAT     H155765  -2.563   6.342   6.464  0.7265 -0.0858 -0.4168
13490WAT     H255766  -2.699   6.280   6.441  0.6203  0.0063 -0.0435
13490WAT    EPW55767  -2.612   6.272   6.447  0.6462 -0.0284 -0.4172
13491WAT      O55768  -4.915   8.261   4.806  0.0378 -0.2190  0.5446
13491WAT     H155769  -4.990   8.294   4.856 -0.0342  1.2872 -0.5031
13491WAT     H255770  -4.916   8.166   4.822 -0.6146  0.0591  2.5139
13491WAT    EPW55771  -4.925   8.253   4.815 -0.0579  0.0162  0.6659
13492WAT      O55772   9.000   0.156   1.519  0.3595 -0.2085  0.3504
13492WAT     H155773   8.908   0.173   1.496  0.1846 -0.0214  1.1736
13492WAT     H255774   8.997   0.112   1.604  1.0340 -0.1673  0.4049
13492WAT    EPW55775   8.988   0.153   1.527  0.4253 -0.1784  0.4662
13493WAT      O55776   4.078   3.323   1.190  0.4574 -0.7301  0.0426
13493WAT     H155777   4.168   3.355   1.191 -0.2618  1.4912 -0.5514
13493WAT     H255778   4.082   3.237   1.232  2.6880 -0.2894  0.8410
13493WAT    EPW55779   4.090   3.316   1.195  0.6566 -0.3790  0.0696
13494WAT      O55780  -0.560   4.589   8.494 -0.7738  0.4651  0.2300
13494WAT     H155781  -0.510   4.637   8.429 -1.1875  1.3186  0.5301
13494WAT     H255782  -0.592   4.511   8.448 -1.0181  1.0309 -0.5723
13494WAT    EPW55783  -0.558   4.585   8.480 -0.8606  0.6523  0.1640
13495WAT      O55784  -0.155   4.896   1.670 -0.1535  0.2872 -0.5449
13495WAT     H155785  -0.231   4.839   1.676 -0.0454  0.2978  2.1174
13495WAT     H255786  -0.085   4.839   1.639 -0.9697  0.0168 -1.9477
13495WAT    EPW55787  -0.156   4.881   1.667 -0.2469  0.2530 -0.3788
13496WAT      O55788   5.065   4.102   4.381 -0.2356 -0.0464 -0.3798
13496WAT     H155789   5.103   4.158   4.449 -0.3560  0.0592 -0.3990
13496WAT     H255790   5.141   4.063   4.337  0.0942  3.1024 -2.9526
13496WAT    EPW55791   5.080   4.104   4.384 -0.2079  0.3829 -0.7217
13497WAT      O55792   4.009   7.143   4.602  0.2117 -0.4467 -0.0989
13497WAT     H155793   4.056   7.060   4.609  0.3865 -0.4835 -1.5458
13497WAT     H255794   4.043   7.184   4.523  3.6317  3.2779  2.8598
13497WAT    EPW55795   4.020   7.137   4.592  0.6859  0.0398  0.1004
13498WAT      O55796   4.192   0.693   0.047  0.1558 -0.0428  0.2526
13498WAT     H155797   4.208   0.653   0.132 -0.4488 -0.5121  0.1530
13498WAT     H255798   4.211   0.624  -0.016 -2.3058 -0.7018  0.1301
13498WAT    EPW55799   4.197   0.679   0.050 -0.2487 -0.1916  0.2233
13499WAT      O55800  -2.156   3.128   8.905 -0.0843 -0.4249 -0.0935
13499WAT     H155801  -2.199   3.068   8.845 -1.0686  0.7854 -0.6293
13499WAT     H255802  -2.227   3.167   8.956  0.6671 -0.8229  1.3101
13499WAT    EPW55803  -2.171   3.126   8.904 -0.1150 -0.3177  0.0210
13500WAT      O55804  -3.483   7.982   2.314 -0.7111 -0.1102  0.1060
13500WAT     H155805  -3.510   7.890   2.306  1.2396 -1.0640  2.9433
13500WAT     H255806  -3.395   7.985   2.278 -0.8504  0.7260 -0.1917
13500WAT    EPW55807  -3.475   7.970   2.308 -0.4722 -0.1256  0.4408
13501WAT      O55808  -0.581   0.104   8.143  0.0097  0.1839 -0.9674
13501WAT     H155809  -0.532   0.184   8.127  2.1760 -0.9029 -0.1036
13501WAT     H255810  -0.547   0.042   8.078 -0.0263 -0.6769 -0.1768
13501WAT    EPW55811  -0.570   0.106   8.132  0.2907 -0.0730 -0.7491
13502WAT      O55812  -0.650  10.074   3.676 -0.3650  0.1602 -0.3908
13502WAT     H155813  -0.713  10.019   3.724 -0.8987  0.7669 -0.3761
13502WAT     H255814  -0.627  10.143   3.739  1.7944 -1.0911  0.2886
13502WAT    EPW55815  -0.655  10.076   3.691 -0.1506  0.0749 -0.2992
13503WAT      O55816   8.160   0.867   1.707 -0.8238  0.1889 -0.7498
13503WAT     H155817   8.154   0.863   1.612 -0.8067 -1.8905 -0.7143
13503WAT     H255818   8.232   0.808   1.729 -0.5510  0.9645  0.5426
13503WAT    EPW55819   8.169   0.858   1.698 -0.7854  0.0169 -0.5746
13504WAT      O55820   0.081   1.870   7.153 -0.3390  0.5824 -0.1900
13504WAT     H155821   0.031   1.789   7.158  1.4283 -0.5751 -0.0548
13504WAT     H255822   0.077   1.907   7.241 -0.1853 -0.0019  0.0697
13504WAT    EPW55823   0.074   1.864   7.165 -0.0857  0.3526 -0.1380
13505WAT      O55824   0.560   6.468   3.706  0.0251 -0.2100 -1.0345
13505WAT     H155825   0.475   6.510   3.717  0.1706  0.1753 -1.3699
13505WAT     H255826   0.565   6.404   3.778 -1.0865 -1.1537 -1.7724
13505WAT    EPW55827   0.550   6.465   3.717 -0.1023 -0.2835 -1.1761
13506WAT      O55828  -2.045   3.422   6.787  0.2882 -0.4741 -0.8983
13506WAT     H155829  -1.957   3.398   6.757  0.6974  0.2835 -0.3403
13506WAT     H255830  -2.086   3.464   6.711  0.6428 -0.2569 -0.9715
13506WAT    EPW55831  -2.039   3.425   6.773  0.3889 -0.3455 -0.8342
13507WAT      O55832  -0.019   3.202   2.446 -0.0410 -0.0901 -0.2685
13507WAT     H155833  -0.080   3.275   2.441  0.4647  0.2833 -1.2175
13507WAT     H255834   0.031   3.206   2.364  1.2567 -0.3729  0.4775
13507WAT    EPW55835  -0.020   3.212   2.435  0.1968 -0.0782 -0.2953
13508WAT      O55836   2.716   1.249   6.147 -0.3432  0.4545  0.1273
13508WAT     H155837   2.663   1.179   6.109  1.0936 -0.8133  0.3005
13508WAT     H255838   2.728   1.312   6.076  0.6070 -0.8669 -0.9577
13508WAT    EPW55839   2.711   1.248   6.133 -0.0283  0.1130  0.0072
13509WAT      O55840  -0.430   4.190   8.283  0.1017 -0.5211  0.3294
13509WAT     H155841  -0.478   4.252   8.338  0.3506 -0.2535  0.2494
13509WAT     H255842  -0.468   4.104   8.304 -1.6523 -0.1407 -1.0307
13509WAT    EPW55843  -0.441   4.187   8.293 -0.0968 -0.4354  0.1397
13510WAT      O55844   3.193   6.707   7.434 -0.7983 -0.2361  0.0522
13510WAT     H155845   3.200   6.648   7.359  0.2924  0.3744 -0.3509
13510WAT     H255846   3.284   6.727   7.457 -1.1377  1.3289  0.1300
13510WAT    EPW55847   3.206   6.702   7.427 -0.6993  0.0508  0.0091
13511WAT      O55848   4.241   3.125   2.784  0.3500 -0.4543  0.0325
13511WAT     H155849   4.259   3.171   2.866  0.4154  0.4912 -0.4945
13511WAT     H255850   4.152   3.153   2.760 -1.0292 -3.2894  1.4436
13511WAT    EPW55851   4.232   3.135   2.791  0.1767 -0.7036  0.1491
13512WAT      O55852   5.249   6.913   4.620  0.0544 -0.0002 -0.5474
13512WAT     H155853   5.324   6.950   4.574  0.7170 -0.1789  0.3538
13512WAT     H255854   5.273   6.919   4.713 -0.9723 -0.2214 -0.2593
13512WAT    EPW55855   5.262   6.918   4.626  0.0064 -0.0529 -0.3908
13513WAT      O55856  -4.704   6.602   7.726 -0.5706  0.3054 -0.3844
13513WAT     H155857  -4.695   6.695   7.708  1.8939  0.4411  1.1039
13513WAT     H255858  -4.691   6.559   7.642  1.9677  1.2015 -0.5158
13513WAT    EPW55859  -4.701   6.608   7.713  0.0892  0.4418 -0.2053
13514WAT      O55860  -3.483   8.302   7.723  0.1160 -0.6090  0.5810
13514WAT     H155861  -3.507   8.310   7.816  1.0288  0.6356  0.7309
13514WAT     H255862  -3.428   8.378   7.706 -1.0095 -0.1593 -1.3065
13514WAT    EPW55863  -3.479   8.313   7.733  0.0879 -0.3853  0.3519
13515WAT      O55864  -0.453   6.944   4.872 -0.0678  0.3134 -0.5055
13515WAT     H155865  -0.362   6.922   4.889 -0.4738  0.2235  1.8222
13515WAT     H255866  -0.471   7.019   4.928 -1.5170  0.1391 -0.6916
13515WAT    EPW55867  -0.444   6.951   4.881 -0.3124  0.2785 -0.2229
13516WAT      O55868   9.336   1.917   0.724  0.2752  0.0918  0.0922
13516WAT     H155869   9.268   1.863   0.763  1.6664 -0.0054  2.5926
13516WAT     H255870   9.408   1.856   0.705  0.4242  0.4925 -0.6980
13516WAT    EPW55871   9.337   1.902   0.726  0.4783  0.1319  0.3177
13517WAT      O55872   4.324   5.685   0.613 -0.4508  0.4366 -0.6512
13517WAT     H155873   4.402   5.681   0.669 -1.3692  0.9221  0.7036
13517WAT     H255874   4.331   5.770   0.569  0.1474  0.1642 -1.0940
13517WAT    EPW55875   4.335   5.696   0.614 -0.4930  0.4647 -0.5309
13518WAT      O55876  -3.928   4.495   7.504  0.1589  0.4898 -0.7571
13518WAT     H155877  -3.919   4.428   7.571  0.2841 -1.7976 -2.9131
13518WAT     H255878  -3.840   4.532   7.495  1.0707 -1.7294 -2.0185
13518WAT    EPW55879  -3.915   4.491   7.511  0.2958 -0.1044 -1.2081
13519WAT      O55880   7.797   1.719   0.673  0.7428  0.2591 -0.6671
13519WAT     H155881   7.864   1.658   0.703 -0.3622 -0.6152  0.1030
13519WAT     H255882   7.829   1.805   0.701  1.1556 -0.2312  0.4365
13519WAT    EPW55883   7.810   1.723   0.681  0.6514  0.0791 -0.4200
13520WAT      O55884   4.220   2.141   4.031  0.1102 -0.2957  0.7131
13520WAT     H155885   4.174   2.057   4.039 -2.2268  0.9690  1.2561
13520WAT     H255886   4.298   2.120   3.980  0.4822 -3.1168  2.2255
13520WAT    EPW55887   4.225   2.127   4.026 -0.1490 -0.5009  0.9842
13521WAT      O55888  -2.744   1.221   7.630 -0.6393  0.5971  0.3080
13521WAT     H155889  -2.705   1.137   7.605  0.2423  1.0714  0.0387
13521WAT     H255890  -2.832   1.199   7.661  0.3538 -0.7525  2.4654
13521WAT    EPW55891  -2.750   1.207   7.631 -0.3921  0.4817  0.5569
13522WAT      O55892   4.252   3.661   7.409  0.0822 -0.6728  0.3713
13522WAT     H155893   4.226   3.751   7.392 -1.3489 -1.2872 -0.9378
13522WAT     H255894   4.275   3.660   7.502  2.0261  1.4402 -0.0041
13522WAT    EPW55895   4.251   3.672   7.419  0.1500 -0.4752  0.1490
13523WAT      O55896   4.713   3.465   4.103 -0.4374  0.3182 -0.2391
13523WAT     H155897   4.772   3.490   4.174 -1.6727  0.5515  0.7497
13523WAT     H255898   4.626   3.471   4.142 -1.2191  1.3841 -2.0700
13523WAT    EPW55899   4.709   3.469   4.118 -0.7036  0.4896 -0.3502
13524WAT      O55900   8.294   2.658   2.127 -1.5086  0.5072  0.2589
13524WAT     H155901   8.339   2.585   2.086 -0.6090  2.1065 -1.7781
13524WAT     H255902   8.354   2.690   2.193 -2.7336 -1.7400  2.6184
13524WAT    EPW55903   8.308   2.652   2.130 -1.5516  0.4218  0.3014
13525WAT      O55904  -0.447   0.176   6.425  0.6670  0.6384  0.0906
13525WAT     H155905  -0.437   0.178   6.330  5.4673 -0.8841  0.2907
13525WAT     H255906  -0.453   0.268   6.451  1.1608  1.1875 -1.6106
13525WAT    EPW55907  -0.446   0.188   6.416  1.3653  0.5100 -0.1073
13526WAT      O55908   2.613   7.119   1.148 -0.2345  0.2725 -0.1568
13526WAT     H155909   2.560   7.104   1.069 -1.1988  0.6450  0.4145
13526WAT     H255910   2.550   7.130   1.218  0.5938  1.1548  0.4741
13526WAT    EPW55911   2.598   7.118   1.147 -0.2525  0.4380  0.0018
13527WAT      O55912  -1.603   3.313   3.732  0.1770 -0.2613  0.0301
13527WAT     H155913  -1.540   3.271   3.672 -1.5639 -0.8493 -1.4870
13527WAT     H255914  -1.688   3.278   3.706 -0.8109  0.4730  2.0474
13527WAT    EPW55915  -1.606   3.303   3.720 -0.1829 -0.2420  0.0961
13528WAT      O55916   3.937   2.243   2.798 -0.3078 -0.6396 -0.5410
13528WAT     H155917   4.026   2.255   2.831  0.2198 -1.0329 -1.7702
13528WAT     H255918   3.931   2.150   2.776 -1.8326 -1.1479  1.7311
13528WAT    EPW55919   3.948   2.233   2.799 -0.4393 -0.7585 -0.4035
13529WAT      O55920   5.125   1.579   4.021  0.1962  0.3661  0.3797
13529WAT     H155921   5.079   1.495   4.020  0.9765 -0.0732  0.0254
13529WAT     H255922   5.212   1.558   4.057  0.9087  0.7376 -1.0410
13529WAT    EPW55923   5.131   1.565   4.026  0.3932  0.3572  0.1457
13530WAT      O55924   4.593   2.496   2.034 -0.3569 -0.0924 -0.3116
13530WAT     H155925   4.521   2.445   2.071 -0.0333  0.5170  1.2293
13530WAT     H255926   4.666   2.434   2.027 -1.0145 -0.7320 -1.9605
13530WAT    EPW55927   4.593   2.481   2.038 -0.4008 -0.0966 -0.3259
13531WAT      O55928   6.230   4.812   1.805 -0.7723 -0.0263  0.3194
13531WAT     H155929   6.195   4.825   1.893  2.7794  0.2067  1.8647
13531WAT     H255930   6.243   4.901   1.772 -1.4474 -0.1081 -0.1813
13531WAT    EPW55931   6.227   4.826   1.812 -0.3927 -0.0062  0.4572
13532WAT      O55932  -1.106   3.005   1.202 -0.0817  0.1498  0.1218
13532WAT     H155933  -1.080   2.926   1.155 -0.6454  0.9808 -1.6770
13532WAT     H255934  -1.032   3.064   1.192  1.0804 -0.6815  2.9572
13532WAT    EPW55935  -1.093   3.002   1.194 -0.0028  0.1498  0.2585
13533WAT      O55936   4.456   9.546   5.153 -0.0860 -0.2999 -0.5217
13533WAT     H155937   4.378   9.597   5.175 -0.6614 -0.8347 -1.2340
13533WAT     H255938   4.484   9.508   5.236 -2.1987 -2.2963 -0.6128
13533WAT    EPW55939   4.449   9.548   5.167 -0.4406 -0.6337 -0.6275
13534WAT      O55940   5.960   3.429   4.843 -0.0994  0.0199  0.3905
13534WAT     H155941   6.006   3.369   4.902  3.0370  0.3991 -1.4406
13534WAT     H255942   5.974   3.392   4.755 -3.2742  0.3009 -0.3602
13534WAT    EPW55943   5.968   3.416   4.839 -0.1044  0.1070  0.0501
13535WAT      O55944   2.605  10.219   6.126 -0.4845  0.2009  0.1645
13535WAT     H155945   2.627  10.157   6.195 -1.9776  1.3133  1.7173
13535WAT     H255946   2.677  10.283   6.127  0.6465 -0.9891 -0.9032
13535WAT    EPW55947   2.617  10.220   6.135 -0.5322  0.1907  0.2286
13536WAT      O55948   6.926   7.445   0.274 -0.1982  0.0995  0.5066
13536WAT     H155949   6.907   7.356   0.304 -0.6448 -0.7865 -2.1572
13536WAT     H255950   6.840   7.487   0.268 -0.0593  0.4623  0.9940
13536WAT    EPW55951   6.912   7.439   0.277 -0.2389  0.0305  0.2196
13537WAT      O55952   6.703   4.933   1.854  0.4383  0.6962  0.3556
13537WAT     H155953   6.638   4.863   1.849  0.0198  1.0646  0.5071
13537WAT     H255954   6.787   4.890   1.840  0.4025 -0.1814  2.4999
13537WAT    EPW55955   6.705   4.918   1.852  0.3784  0.6289  0.6585
13538WAT      O55956  -3.009   6.076   3.140  0.0659  0.2022  0.2108
13538WAT     H155957  -3.030   6.099   3.050  0.6802 -2.0553 -0.5867
13538WAT     H255958  -2.986   6.159   3.182  1.8425  1.0736 -2.2751
13538WAT    EPW55959  -3.009   6.090   3.134  0.3812  0.0193 -0.2222
13539WAT      O55960  -1.742   6.068   5.865 -0.8574 -0.6775  0.4924
13539WAT     H155961  -1.678   6.090   5.798 -1.9092  0.7177 -0.0986
13539WAT     H255962  -1.826   6.098   5.830 -1.2412  1.6793  3.0511
13539WAT    EPW55963  -1.745   6.075   5.852 -1.0468 -0.1826  0.7520
13540WAT      O55964   4.763   3.931   5.984  0.0044  0.1911 -0.1740
13540WAT     H155965   4.835   3.936   6.046  0.1912  0.8092 -0.4306
13540WAT     H255966   4.706   3.862   6.018  1.2413 -1.0477 -0.5319
13540WAT    EPW55967   4.765   3.922   5.997  0.1922  0.1092 -0.2551
13541WAT      O55968  -4.610   2.123   7.791  0.0181  0.2710  0.2315
13541WAT     H155969  -4.631   2.129   7.884  0.4530 -2.2812  0.5482
13541WAT     H255970  -4.662   2.050   7.759  1.1377  0.0457 -1.1475
13541WAT    EPW55971  -4.619   2.114   7.799  0.2232 -0.0954  0.0913
13542WAT      O55972   1.575   3.774   6.923 -0.7604 -0.7164  0.4427
13542WAT     H155973   1.527   3.726   6.989 -1.6918 -1.6118 -0.8477
13542WAT     H255974   1.531   3.859   6.918 -2.5968 -1.6799 -1.0450
13542WAT    EPW55975   1.563   3.779   6.931 -1.1255 -0.9615  0.0761
13543WAT      O55976   7.025   1.460   2.540 -0.3337 -0.3485  0.9135
13543WAT     H155977   7.025   1.492   2.631 -1.9313 -0.8904  1.1444
13543WAT     H255978   6.932   1.445   2.521 -0.0624  0.1797 -0.9751
13543WAT    EPW55979   7.013   1.462   2.550 -0.5088 -0.3503  0.6949
13544WAT      O55980  -4.334   8.868   6.841 -0.7166 -0.7836 -0.2936
13544WAT     H155981  -4.308   8.940   6.898  0.9619  0.0741 -2.0296
13544WAT     H255982  -4.427   8.883   6.824 -0.8498 -0.1481  0.8765
13544WAT    EPW55983  -4.343   8.879   6.846 -0.5128 -0.5865 -0.3681
13545WAT      O55984  -3.246   5.901   7.948  0.2741 -0.0757 -0.0720
13545WAT     H155985  -3.297   5.851   8.012  1.5011 -1.2289  0.0638
13545WAT     H255986  -3.189   5.956   8.002  1.4691 -1.2141 -0.1272
13545WAT    EPW55987  -3.245   5.902   7.964  0.5935 -0.3779 -0.0613
13546WAT      O55988  -0.746   3.243   7.241  0.0734 -0.5232  0.3048
13546WAT     H155989  -0.766   3.299   7.316 -1.0317  0.3674 -0.6277
13546WAT     H255990  -0.819   3.181   7.238  0.3333 -0.8256  0.2173
13546WAT    EPW55991  -0.758   3.242   7.251 -0.0380 -0.4456  0.1705
13547WAT      O55992  -0.388   3.019   8.246 -0.0564 -0.2097  0.1327
13547WAT     H155993  -0.315   3.014   8.308  0.0773 -1.5573 -0.1021
13547WAT     H255994  -0.464   2.990   8.296  0.1738 -2.0090 -0.4556
13547WAT    EPW55995  -0.388   3.014   8.260 -0.0084 -0.6247  0.0238
13548WAT      O55996  -0.620   9.032   0.794 -0.6999  0.7087  0.0209
13548WAT     H155997  -0.578   8.975   0.859 -2.0368  0.7412  0.9473
13548WAT     H255998  -0.556   9.037   0.723  0.1581 -0.5840  0.6498
13548WAT    EPW55999  -0.606   9.025   0.794 -0.7631  0.5426  0.2260
13549WAT      O56000  -6.359   8.803   6.780 -0.1551  0.5414 -0.0378
13549WAT     H156001  -6.410   8.750   6.719 -0.6284  0.7937  0.1324
13549WAT     H256002  -6.367   8.758   6.864  0.6377  0.1007 -0.1859
13549WAT    EPW56003  -6.367   8.790   6.783 -0.1130  0.5159 -0.0350
13550WAT      O56004  -0.961   7.014   5.837 -0.0952 -0.7921  0.3398
13550WAT     H156005  -0.969   6.925   5.803 -1.8570  0.2536 -2.2880
13550WAT     H256006  -1.011   7.068   5.775 -1.6472  1.6466  3.4266
13550WAT    EPW56007  -0.969   7.009   5.824 -0.5323 -0.3324  0.4005
13551WAT      O56008  -1.341   2.188   4.056 -0.2464  0.0093  0.2719
13551WAT     H156009  -1.389   2.112   4.088  0.8603 -1.1151 -0.6174
13551WAT     H256010  -1.409   2.251   4.033 -1.2194 -0.8598  0.6802
13551WAT    EPW56011  -1.356   2.186   4.057 -0.2287 -0.2538  0.2084
13552WAT      O56012   0.941  10.224   4.669 -0.4387 -0.5531 -0.7311
13552WAT     H156013   0.984  10.272   4.741  0.2611  0.4258 -1.7697
13552WAT     H256014   0.947  10.132   4.694 -0.4180 -0.2158  0.5741
13552WAT    EPW56015   0.947  10.218   4.682 -0.3437 -0.3796 -0.6959
13553WAT      O56016   0.704   3.318   7.345 -0.0762  0.0998  0.9759
13553WAT     H156017   0.758   3.258   7.293 -0.3006  1.0018 -0.3495
13553WAT     H256018   0.665   3.263   7.413  1.3546 -0.8442  1.0714
13553WAT    EPW56019   0.706   3.303   7.347  0.0829  0.0942  0.8137
13554WAT      O56020  -0.744   3.379   2.125  0.6758  0.1394  1.0394
13554WAT     H156021  -0.794   3.445   2.172 -1.0097 -1.0813  1.0466
13554WAT     H256022  -0.708   3.323   2.194  1.9454  0.9161  1.0264
13554WAT    EPW56023  -0.746   3.380   2.141  0.6209  0.0808  1.0386
13555WAT      O56024   4.420   2.409   4.668 -0.0954  0.8596  0.2991
13555WAT     H156025   4.432   2.316   4.646 -0.1979 -0.2737  4.3114
13555WAT     H256026   4.502   2.450   4.642 -0.1149 -0.2294 -1.7529
13555WAT    EPW56027   4.432   2.402   4.662 -0.1113  0.5665  0.5577
13556WAT      O56028   1.277   0.299   5.462  0.0353 -0.4188 -0.2071
13556WAT     H156029   1.206   0.295   5.526  0.3823  1.1396  0.3216
13556WAT     H256030   1.235   0.279   5.378 -0.8534 -0.3180  0.2025
13556WAT    EPW56031   1.262   0.295   5.460 -0.0362 -0.2000 -0.0834
13557WAT      O56032  -0.677   9.592   8.396 -0.5505  0.0040 -0.0336
13557WAT     H156033  -0.609   9.559   8.455 -0.2007  1.2400  0.2821
13557WAT     H256034  -0.759   9.571   8.440 -0.3509 -0.7225  0.0032
13557WAT    EPW56035  -0.678   9.585   8.409 -0.4780  0.0710  0.0129
13558WAT      O56036   2.937   8.259   1.578 -0.5088  0.4197 -0.2223
13558WAT     H156037   2.852   8.278   1.539 -0.7516 -1.2273 -0.5604
13558WAT     H256038   2.927   8.285   1.670 -0.3271  3.1526 -0.8902
13558WAT    EPW56039   2.924   8.265   1.585 -0.5169  0.5627 -0.3549
13559WAT      O56040  -1.690   2.179   2.174  0.7779  0.3381  0.1115
13559WAT     H156041  -1.606   2.225   2.183  1.6349 -1.2496  0.5817
13559WAT     H256042  -1.714   2.154   2.263  1.3333 -1.7705 -0.2723
13559WAT    EPW56043  -1.682   2.182   2.187  0.9642 -0.1494  0.1229
13560WAT      O56044   1.817   4.021   3.177 -0.5146  0.2306 -0.0200
13560WAT     H156045   1.823   4.115   3.193  1.1463 -0.1119  1.8345
13560WAT     H256046   1.802   3.983   3.263  0.4762 -1.2914 -0.4738
13560WAT    EPW56047   1.816   4.028   3.190 -0.1649 -0.0153  0.1647
13561WAT      O56048  -0.685   9.002   6.763  0.3633 -0.1351 -0.0147
13561WAT     H156049  -0.654   9.084   6.801  3.0308 -2.2662  2.9705
13561WAT     H256050  -0.744   8.966   6.829  0.7018 -1.4104 -0.3685
13561WAT    EPW56051  -0.688   9.008   6.777  0.7598 -0.5846  0.3324
13562WAT      O56052   4.022   4.903   3.712 -0.1774 -0.6623  0.3567
13562WAT     H156053   4.073   4.984   3.712 -0.3921 -0.4910 -1.5982
13562WAT     H256054   3.965   4.912   3.789 -0.9606  1.5710 -0.3981
13562WAT    EPW56055   4.021   4.915   3.722 -0.3090 -0.3452 -0.0007
13563WAT      O56056   3.579   0.240   5.144 -0.2724  0.7241  0.2378
13563WAT     H156057   3.618   0.256   5.058  0.4098 -1.0943  0.1697
13563WAT     H256058   3.515   0.310   5.155 -2.0920 -0.2831 -2.7745
13563WAT    EPW56059   3.576   0.251   5.135 -0.4224  0.3514 -0.1686
13564WAT      O56060   4.392   0.037   5.073 -0.5391  0.3961 -0.1610
13564WAT     H156061   4.364   0.058   4.984  2.5739 -1.1044 -1.6480
13564WAT     H256062   4.441   0.113   5.102  0.2589  0.0692 -0.6223
13564WAT    EPW56063   4.395   0.049   5.065 -0.0231  0.1551 -0.4182
13565WAT      O56064  -0.857   0.823   3.588 -0.3683 -0.9570  0.1042
13565WAT     H156065  -0.927   0.863   3.640  0.9052 -2.5971  3.3902
13565WAT     H256066  -0.777   0.866   3.618  0.3769 -1.4391 -1.1089
13565WAT    EPW56067  -0.856   0.834   3.599 -0.1020 -1.2369  0.3777
13566WAT      O56068   1.248   7.440   0.040  0.3678  0.6878  0.2647
13566WAT     H156069   1.235   7.346   0.037 -0.2815  0.7837  0.0664
13566WAT     H256070   1.339   7.451   0.070  0.8691 -0.0108 -0.9685
13566WAT    EPW56071   1.259   7.429   0.044  0.3483  0.6084  0.0759
13567WAT      O56072   8.441   1.841   1.902 -0.0146  0.0741  0.6297
13567WAT     H156073   8.457   1.933   1.883  0.6941 -0.1217  0.2370
13567WAT     H256074   8.355   1.840   1.943 -0.2845  0.8485  0.1176
13567WAT    EPW56075   8.432   1.853   1.905  0.0434  0.1504  0.5103
13568WAT      O56076  -4.733  10.247   5.369 -0.4095  0.5172  0.0872
13568WAT     H156077  -4.754  10.201   5.288  0.1274  1.6735 -0.7451
13568WAT     H256078  -4.681  10.185   5.420  0.6369  0.3109 -1.1753
13568WAT    EPW56079  -4.729  10.233   5.365 -0.2005  0.6423 -0.1891
13569WAT      O56080   5.663   2.129   0.353  0.6070 -0.9968 -0.0073
13569WAT     H156081   5.593   2.161   0.411  0.8447 -2.0897  0.9159
13569WAT     H256082   5.739   2.183   0.375  0.2386 -0.2308 -0.5643
13569WAT    EPW56083   5.663   2.140   0.364  0.5896 -1.0399  0.0410
13570WAT      O56084  -2.010   9.342   6.321 -0.7960 -0.1894  0.0410
13570WAT     H156085  -1.963   9.313   6.399 -0.4305 -1.4793 -0.6414
13570WAT     H256086  -1.956   9.313   6.248 -3.3367 -3.2601 -0.8584
13570WAT    EPW56087  -1.997   9.334   6.322 -1.0829 -0.7648 -0.1676
13571WAT      O56088   2.314   4.443   4.324 -0.1421  0.4150 -0.4963
13571WAT     H156089   2.305   4.532   4.358 -1.4028 -0.2786  1.1622
13571WAT     H256090   2.371   4.399   4.387 -2.5447 -0.9176  0.9067
13571WAT    EPW56091   2.320   4.449   4.337 -0.6253  0.1476 -0.0925
13572WAT      O56092   7.972   3.265   2.646 -0.2738 -0.4471 -0.2513
13572WAT     H156093   8.025   3.193   2.611 -1.2922 -0.8210 -1.1087
13572WAT     H256094   7.882   3.234   2.637 -0.8063  1.2815 -1.5210
13572WAT    EPW56095   7.967   3.251   2.640 -0.4785 -0.2685 -0.5319
13573WAT      O56096   5.971   0.579   5.824  0.0872  0.9196  0.6303
13573WAT     H156097   6.036   0.600   5.757  0.2622  1.7824  1.0659
13573WAT     H256098   5.980   0.485   5.838  1.1899  1.0223  0.6415
13573WAT    EPW56099   5.981   0.570   5.817  0.2558  1.0469  0.6893
13574WAT      O56100   2.991   4.050   0.291  0.1868  0.0699 -0.4749
13574WAT     H156101   2.965   3.999   0.214  1.9241 -1.4856 -0.1211
13574WAT     H256102   3.080   4.080   0.271  1.1474 -1.3379  1.2913
13574WAT    EPW56103   3.000   4.047   0.278  0.5426 -0.3209 -0.1953
13575WAT      O56104  -0.879   7.104   1.856  0.1667 -1.0121  0.4271
13575WAT     H156105  -0.961   7.141   1.821  0.3134 -0.3451  0.7734
13575WAT     H256106  -0.904   7.067   1.940  0.5287  0.7387  1.3616
13575WAT    EPW56107  -0.893   7.104   1.862  0.2338 -0.6933  0.5960
13576WAT      O56108   4.853   1.633   4.846 -0.1484  0.3573 -0.0140
13576WAT     H156109   4.800   1.647   4.768 -0.9405 -0.7918  0.2882
13576WAT     H256110   4.885   1.543   4.838 -2.2178 -0.6667  2.0812
13576WAT    EPW56111   4.851   1.623   4.835 -0.5260  0.0706  0.3023
13577WAT      O56112   0.514   5.986   1.145  0.1250  0.3262  0.3528
13577WAT     H156113   0.522   6.074   1.181 -0.5669  1.3239 -1.7669
13577WAT     H256114   0.421   5.966   1.152  0.3447 -0.4590  1.2344
13577WAT    EPW56115   0.503   5.995   1.151  0.0627  0.3543  0.1895
13578WAT      O56116  -2.644   5.967   8.317  0.7705 -0.0598  0.6230
13578WAT     H156117  -2.700   5.930   8.385 -0.0401  0.0766  0.0341
13578WAT     H256118  -2.627   5.894   8.258  0.0201  0.2409  0.0220
13578WAT    EPW56119  -2.649   5.953   8.318  0.5646 -0.0021  0.4663
13579WAT      O56120   0.747   6.126   2.927 -0.2745 -0.4977 -0.2197
13579WAT     H156121   0.807   6.162   2.991 -0.7871 -2.1033  1.2251
13579WAT     H256122   0.776   6.162   2.843  0.0970  2.0734  0.9246
13579WAT    EPW56123   0.758   6.136   2.924 -0.2931 -0.3703  0.1218
13580WAT      O56124   7.154   4.053   0.094 -0.0016 -0.3730 -0.7510
13580WAT     H156125   7.129   3.961   0.106  0.5085 -0.3194  1.0400
13580WAT     H256126   7.249   4.051   0.090  0.4292  0.3615  3.7961
13580WAT    EPW56127   7.163   4.040   0.095  0.1225 -0.2692  0.0850
13581WAT      O56128   2.854   7.114   4.843  0.8289 -0.7153  0.3120
13581WAT     H156129   2.914   7.118   4.918  1.3979 -1.5050 -0.0825
13581WAT     H256130   2.845   7.205   4.814  4.4164 -0.7809 -1.5925
13581WAT    EPW56131   2.861   7.126   4.849  1.3771 -0.8280  0.0088
13582WAT      O56132  -1.156   3.933   1.307  0.1766  0.3150  0.4629
13582WAT     H156133  -1.183   4.021   1.281 -2.9419 -0.9085 -0.9567
13582WAT     H256134  -1.132   3.889   1.225 -1.2552 -1.0067  0.7055
13582WAT    EPW56135  -1.156   3.939   1.293 -0.4236 -0.0206  0.3077
13583WAT      O56136   7.228   1.392   0.317 -0.1479 -0.1146 -0.1271
13583WAT     H156137   7.289   1.453   0.275 -1.4676 -0.3724 -2.6045
13583WAT     H256138   7.142   1.429   0.300 -0.7914  0.1046  3.0698
13583WAT    EPW56139   7.225   1.405   0.309 -0.4067 -0.1196 -0.0322
13584WAT      O56140   5.390   7.689   2.294  0.3204  0.3009  0.1135
13584WAT     H156141   5.340   7.610   2.314 -1.6937  0.4455 -3.4453
13584WAT     H256142   5.337   7.761   2.328  0.8180  0.2532  1.0088
13584WAT    EPW56143   5.377   7.688   2.301  0.1202  0.3135 -0.2378
13585WAT      O56144   1.339   4.720   2.075  0.9636 -0.1394  0.0649
13585WAT     H156145   1.430   4.723   2.104  0.3283 -0.6291  2.2630
13585WAT     H256146   1.336   4.780   2.000  2.9048  0.5170  0.4601
13585WAT    EPW56147   1.351   4.728   2.069  1.1359 -0.1175  0.4070
13586WAT      O56148   0.271   6.349   2.931 -0.2358  0.5423  0.6490
13586WAT     H156149   0.285   6.392   2.846 -3.2532 -1.2918 -0.9502
13586WAT     H256150   0.206   6.403   2.975  0.7888  1.0887  1.5448
13586WAT    EPW56151   0.264   6.362   2.925 -0.4987  0.3722  0.5562
13587WAT      O56152  -1.869   2.446   2.134 -0.4383  0.2643 -0.1265
13587WAT     H156153  -1.878   2.539   2.117  1.9647  0.9698  1.7503
13587WAT     H256154  -1.795   2.419   2.079 -0.5790 -0.3313 -0.0291
13587WAT    EPW56155  -1.860   2.455   2.125 -0.1400  0.2788  0.1340
13588WAT      O56156   6.993   5.153   3.535 -0.0537  0.1709  0.5644
13588WAT     H156157   6.901   5.145   3.511 -0.5584 -0.9825  2.6575
13588WAT     H256158   6.998   5.117   3.624  2.7685 -1.7916 -0.2545
13588WAT    EPW56159   6.982   5.147   3.544  0.2518 -0.2401  0.7325
13589WAT      O56160   3.699   8.693   0.471  0.0761 -0.3606  0.0023
13589WAT     H156161   3.626   8.751   0.448 -0.8406 -0.7626  1.7187
13589WAT     H256162   3.755   8.693   0.393 -1.9628 -0.3951 -1.5370
13589WAT    EPW56163   3.697   8.701   0.458 -0.3138 -0.4182  0.0257
13590WAT      O56164   4.185   6.265   3.330 -0.3950 -0.8654  0.2089
13590WAT     H156165   4.247   6.198   3.359 -0.0093 -0.1279  1.1019
13590WAT     H256166   4.219   6.292   3.244  1.7083  0.9304  1.4991
13590WAT    EPW56167   4.198   6.260   3.322 -0.0668 -0.5310  0.4969
13591WAT      O56168   1.377   8.468   8.140  0.5765 -1.3416 -0.8857
13591WAT     H156169   1.459   8.420   8.148  0.4573 -1.5720 -1.0576
13591WAT     H256170   1.330   8.425   8.069  0.6847 -0.6667 -1.3830
13591WAT    EPW56171   1.382   8.456   8.132  0.5751 -1.2832 -0.9747
13592WAT      O56172   2.192   0.205   0.795  0.1133  0.2754  0.2707
13592WAT     H156173   2.183   0.207   0.891 -1.5149  3.5567  0.1945
13592WAT     H256174   2.217   0.294   0.772  1.4608 -0.6948 -2.3590
13592WAT    EPW56175   2.194   0.217   0.805  0.0763  0.5802 -0.0862
13593WAT      O56176   3.303   6.576   2.549  0.4738  0.2368 -0.6458
13593WAT     H156177   3.288   6.642   2.481 -0.7251 -0.4316 -1.0623
13593WAT     H256178   3.237   6.595   2.616  1.5115  0.7576  0.2540
13593WAT    EPW56179   3.292   6.587   2.549  0.4524  0.2174 -0.5821
13594WAT      O56180  -0.073   8.912   0.267 -0.3264  0.5684 -0.4543
13594WAT     H156181   0.004   8.960   0.297 -0.0433 -0.1684  0.0207
13594WAT     H256182  -0.043   8.862   0.191 -0.3619  0.3728 -0.3418
13594WAT    EPW56183  -0.059   8.911   0.261 -0.2937  0.4454 -0.3768
13595WAT      O56184   4.680   1.967   5.245  0.3621  0.4911  0.1892
13595WAT     H156185   4.640   2.050   5.222  2.1873  1.9523  1.8820
13595WAT     H256186   4.607   1.911   5.271 -0.8096  1.9879  0.2187
13595WAT    EPW56187   4.665   1.970   5.246  0.4485  0.8812  0.4165
13596WAT      O56188   2.121   8.322   5.194 -0.1365  0.1400  0.1434
13596WAT     H156189   2.054   8.355   5.254  0.1351  0.0678  0.4885
13596WAT     H256190   2.188   8.391   5.194  1.2184 -1.0699  2.1321
13596WAT    EPW56191   2.121   8.336   5.202  0.0780 -0.0291  0.4513
13597WAT      O56192   0.754   6.816   4.509 -0.2517  1.1849 -0.0476
13597WAT     H156193   0.839   6.860   4.509  1.1189 -1.2742  0.5110
13597WAT     H256194   0.705   6.857   4.581  1.1188  1.5143  0.7236
13597WAT    EPW56195   0.758   6.827   4.519  0.1099  0.9041  0.1276
13598WAT      O56196   5.336   5.607   0.646  0.4950  0.2791 -0.2231
13598WAT     H156197   5.355   5.600   0.552  0.3150  1.8080 -0.3960
13598WAT     H256198   5.420   5.624   0.687  0.5530 -0.2563 -0.1101
13598WAT    EPW56199   5.349   5.608   0.639  0.4790  0.4103 -0.2310
13599WAT      O56200  -3.103   8.348   3.003  0.1789 -0.4610  0.1562
13599WAT     H156201  -3.140   8.361   3.091  1.9375 -0.8386  1.0070
13599WAT     H256202  -3.139   8.265   2.974 -1.2693  0.1824  0.0387
13599WAT    EPW56203  -3.113   8.339   3.011  0.2198 -0.4263  0.2530
13600WAT      O56204  -3.825  10.352   4.268  0.2699 -0.1321 -0.0337
13600WAT     H156205  -3.733  10.371   4.249  0.2272 -0.5787 -0.7119
13600WAT     H256206  -3.836  10.260   4.245 -0.5028  0.0865 -0.5830
13600WAT    EPW56207  -3.814  10.342   4.262  0.1622 -0.1621 -0.1955
13601WAT      O56208   4.894   9.526   3.658  0.1314  0.0275 -0.0630
13601WAT     H156209   4.905   9.511   3.752  2.6196  1.5422 -0.0161
13601WAT     H256210   4.946   9.457   3.617  1.6363  1.1631 -0.1707
13601WAT    EPW56211   4.902   9.515   3.665  0.6580  0.3772 -0.0710
13602WAT      O56212   0.977   7.513   2.563  0.2448  0.6783 -0.5781
13602WAT     H156213   0.907   7.448   2.559  0.7057  0.1549 -0.2744
13602WAT     H256214   0.991   7.539   2.472  0.9250 -0.5863 -0.8530
13602WAT    EPW56215   0.970   7.508   2.551  0.3953  0.4425 -0.5742
13603WAT      O56216  -2.104   9.870   1.601 -0.3344  0.8890  0.1196
13603WAT     H156217  -2.151   9.789   1.623  1.5733 -0.9707 -2.1456
13603WAT     H256218  -2.096   9.916   1.685 -2.1451 -0.8712  1.3555
13603WAT    EPW56219  -2.109   9.865   1.615 -0.3215  0.4120 -0.0161
13604WAT      O56220  -3.328   8.006   7.445 -0.3954 -0.5166  0.8292
13604WAT     H156221  -3.355   7.936   7.505 -0.9388 -4.4621 -3.3948
13604WAT     H256222  -3.239   8.028   7.472  0.6158 -4.4715  1.3245
13604WAT    EPW56223  -3.319   7.999   7.457 -0.3337 -1.5588  0.3374
13605WAT      O56224   2.436   7.162   1.358 -0.5745 -0.0327  0.6232
13605WAT     H156225   2.418   7.256   1.361 -2.7132 -0.3396 -0.5299
13605WAT     H256226   2.504   7.148   1.425  1.0309  2.5417 -0.3379
13605WAT    EPW56227   2.443   7.172   1.367 -0.6449  0.2663  0.3443
13606WAT      O56228   2.856   5.018   6.294 -0.6499  0.3071 -0.0467
13606WAT     H156229   2.895   5.009   6.381 -0.3060  1.1886 -0.0914
13606WAT     H256230   2.813   5.104   6.296 -0.7941  0.2566 -0.6905
13606WAT    EPW56231   2.855   5.029   6.305 -0.6235  0.4165 -0.1376
13607WAT      O56232   0.534   8.693   0.123  0.2804 -0.1255  0.1475
13607WAT     H156233   0.511   8.669   0.033  1.2575  2.1342 -0.7742
13607WAT     H256234   0.558   8.610   0.164  0.4167 -1.1340 -1.8501
13607WAT    EPW56235   0.534   8.679   0.116  0.4272  0.0396 -0.2376
13608WAT      O56236  -2.674   9.872   3.635 -0.0428  0.7956 -0.1758
13608WAT     H156237  -2.655   9.963   3.612  2.2526  0.0902 -1.3566
13608WAT     H256238  -2.616   9.854   3.709  2.5601 -0.7590 -2.4107
13608WAT    EPW56239  -2.664   9.882   3.642  0.6033  0.4973 -0.6263
13609WAT      O56240  -0.057   3.501   2.653 -0.2755  0.8566  0.9083
13609WAT     H156241  -0.136   3.474   2.607  0.7801 -0.7630 -0.1066
13609WAT     H256242  -0.042   3.591   2.627 -1.1247  0.7768  0.1268
13609WAT    EPW56243  -0.065   3.509   2.644 -0.2483  0.6326  0.6713
13610WAT      O56244  -2.563   1.271   4.079 -0.2715 -0.0064 -0.3344
13610WAT     H156245  -2.501   1.328   4.033 -0.9891  0.5198 -0.6690
13610WAT     H256246  -2.607   1.223   4.009 -0.6428  0.0411 -0.1330
13610WAT    EPW56247  -2.561   1.273   4.064 -0.4151  0.0693 -0.3521
13611WAT      O56248   2.186   8.960   1.917 -0.0352  1.1947 -0.1380
13611WAT     H156249   2.177   9.013   1.838 -1.4151  2.4480  0.8020
13611WAT     H256250   2.275   8.925   1.912  0.1091  1.7018 -1.9444
13611WAT    EPW56251   2.197   8.962   1.906 -0.1981  1.4267 -0.2522
13612WAT      O56252  -0.866   8.251   6.365 -0.2444 -0.1069  0.2432
13612WAT     H156253  -0.904   8.212   6.444  1.7687  2.8719  2.9771
13612WAT     H256254  -0.778   8.213   6.360 -0.3184 -0.1870 -0.4948
13612WAT    EPW56255  -0.859   8.241   6.375  0.0114  0.2756  0.5064
13613WAT      O56256  -1.674   4.641   3.711  0.2640  0.5252  0.6118
13613WAT     H156257  -1.727   4.701   3.763 -0.7547 -1.0808  1.5284
13613WAT     H256258  -1.737   4.598   3.653  0.7723 -0.4432  0.7597
13613WAT    EPW56259  -1.689   4.643   3.710  0.1967  0.1855  0.7523
13614WAT      O56260  -3.393   7.459   2.328 -0.0954 -0.2907 -0.5645
13614WAT     H156261  -3.427   7.404   2.398 -1.8376 -0.8459 -1.7801
13614WAT     H256262  -3.445   7.539   2.333 -0.5329 -0.5080 -1.4596
13614WAT    EPW56263  -3.404   7.462   2.338 -0.3829 -0.3927 -0.8429
13615WAT      O56264   3.041   2.952   1.616 -0.4115 -0.0085  0.2033
13615WAT     H156265   3.026   3.047   1.610 -0.1937 -0.0436 -1.5971
13615WAT     H256266   3.005   2.918   1.534  1.1419 -1.2445 -0.0078
13615WAT    EPW56267   3.034   2.960   1.604 -0.1777 -0.1761 -0.0619
13616WAT      O56268   5.911   2.810   2.235 -0.0447 -0.1183  0.3999
13616WAT     H156269   5.992   2.854   2.211  1.0531 -2.7768 -1.2741
13616WAT     H256270   5.931   2.717   2.225 -3.2132 -0.8944  0.2337
13616WAT    EPW56271   5.924   2.803   2.231 -0.3178 -0.5713  0.1572
13617WAT      O56272   4.583   5.190   7.132  0.2473 -0.2361 -1.0634
13617WAT     H156273   4.647   5.170   7.201 -0.6644  0.2488 -0.0543
13617WAT     H256274   4.535   5.266   7.165 -0.4282 -0.2046 -2.0929
13617WAT    EPW56275   4.585   5.197   7.146  0.0379 -0.1683 -1.0660
13618WAT      O56276  -2.513   1.499   4.486  0.0376  0.0630  0.1188
13618WAT     H156277  -2.561   1.509   4.404 -2.2509  0.5021  1.4280
13618WAT     H256278  -2.496   1.405   4.493 -0.2067 -0.0382 -0.6079
13618WAT    EPW56279  -2.517   1.488   4.476 -0.2966  0.1075  0.1955
13619WAT      O56280   2.799   3.157   4.266  0.3016  0.1383 -0.6395
13619WAT     H156281   2.752   3.117   4.192 -1.0549  0.2302  0.1419
13619WAT     H256282   2.880   3.192   4.227  0.5824 -1.5727 -1.7108
13619WAT    EPW56283   2.804   3.156   4.251  0.1597 -0.0752 -0.6778
13620WAT      O56284   0.005   1.342   8.248  0.1677  0.4994 -0.8092
13620WAT     H156285   0.081   1.347   8.305 -0.9405  1.6608  0.6400
13620WAT     H256286   0.026   1.271   8.187  2.4806  0.9305 -0.6149
13620WAT    EPW56287   0.018   1.334   8.247  0.3266  0.7095 -0.5922
13621WAT      O56288  -0.071   9.725   3.795  0.1283  0.1042 -0.5092
13621WAT     H156289  -0.146   9.666   3.782 -0.2522  0.5805 -0.4998
13621WAT     H256290  -0.040   9.744   3.706 -2.1498  2.9381 -0.8599
13621WAT    EPW56291  -0.077   9.720   3.781 -0.2223  0.5412 -0.5542
13622WAT      O56292   6.054   1.977   4.543 -0.2971  0.6377 -0.4797
13622WAT     H156293   5.961   1.960   4.551 -0.7008  3.1611  1.9356
13622WAT     H256294   6.096   1.896   4.571 -1.6705 -0.7079 -2.0820
13622WAT    EPW56295   6.048   1.964   4.548 -0.5314  0.7931 -0.3724
13623WAT      O56296   2.462   3.272   2.242  0.3172 -0.2480 -0.2049
13623WAT     H156297   2.415   3.356   2.239 -1.4862 -1.2424 -2.3668
13623WAT     H256298   2.448   3.240   2.331  0.3215  1.3140  0.4016
13623WAT    EPW56299   2.454   3.279   2.254  0.0800 -0.1732 -0.4100
13624WAT      O56300   5.029   1.614   7.380  0.5726  0.7038 -1.0138
13624WAT     H156301   5.076   1.637   7.300  0.3966 -0.2600 -1.3938
13624WAT     H256302   5.061   1.527   7.403 -0.7544  0.1843 -1.0720
13624WAT    EPW56303   5.040   1.606   7.373  0.3743  0.5082 -1.0717
13625WAT      O56304  -5.268   5.920   6.453  0.2118 -0.4437 -1.3913
13625WAT     H156305  -5.239   5.913   6.544 -1.7690  5.0891  0.0374
13625WAT     H256306  -5.353   5.876   6.451  0.6509 -1.3383 -0.8369
13625WAT    EPW56307  -5.275   5.913   6.465  0.0086  0.1681 -1.1296
13626WAT      O56308   4.136   8.770   2.292  0.4027 -0.3262 -0.1824
13626WAT     H156309   4.080   8.762   2.214 -2.4616  0.9801  1.5642
13626WAT     H256310   4.148   8.680   2.322 -1.2870 -0.6476 -0.3491
13626WAT    EPW56311   4.130   8.757   2.286 -0.1979 -0.1965  0.0260
13627WAT      O56312  -4.787   9.216   2.770 -0.6810  0.0512 -0.1777
13627WAT     H156313  -4.733   9.217   2.691 -1.1486  0.3744 -0.5025
13627WAT     H256314  -4.877   9.217   2.737 -0.8935  1.7704  0.3582
13627WAT    EPW56315  -4.792   9.216   2.755 -0.7708  0.3204 -0.1498
13628WAT      O56316   2.073   5.712   4.647  0.0726 -0.3700 -0.5084
13628WAT     H156317   2.032   5.626   4.632  1.1632 -1.0679  0.3185
13628WAT     H256318   2.098   5.709   4.740  2.1273 -0.0415 -1.0269
13628WAT    EPW56319   2.071   5.700   4.658  0.4873 -0.4189 -0.4678
13629WAT      O56320  -1.791   7.606   2.316 -0.0314 -0.2913  0.4560
13629WAT     H156321  -1.746   7.548   2.255  0.4040  0.7060 -0.1797
13629WAT     H256322  -1.750   7.691   2.304 -0.3591  0.0698  1.7032
13629WAT    EPW56323  -1.780   7.610   2.307 -0.0172 -0.1123  0.5367
13630WAT      O56324  -3.737   7.509   2.621 -0.5877 -0.1911  0.1256
13630WAT     H156325  -3.821   7.466   2.632 -1.0450  0.0772 -1.8091
13630WAT     H256326  -3.760   7.602   2.610  0.0020 -0.0461  0.1037
13630WAT    EPW56327  -3.751   7.516   2.621 -0.5702 -0.1364 -0.1324
13631WAT      O56328   0.072   4.913   4.985  0.0087  0.3571 -0.8251
13631WAT     H156329   0.021   4.855   4.927 -0.0482 -0.8875  0.4065
13631WAT     H256330   0.018   4.921   5.064  0.6853  0.8986 -0.4066
13631WAT    EPW56331   0.058   4.906   4.988  0.0904  0.2644 -0.6073
13632WAT      O56332   3.838  10.299   4.704  0.9964 -0.5429 -0.9118
13632WAT     H156333   3.813  10.363   4.770  0.7474  1.0341 -2.4748
13632WAT     H256334   3.896  10.238   4.750  0.5398  0.2710  0.8234
13632WAT    EPW56335   3.842  10.299   4.718  0.9034 -0.2275 -0.8891
13633WAT      O56336   5.244   5.447   4.801 -0.1039 -0.4651 -0.6430
13633WAT     H156337   5.230   5.362   4.761 -0.8670 -0.9558  0.5983
13633WAT     H256338   5.224   5.434   4.893  0.0986  0.9791 -0.3626
13633WAT    EPW56339   5.239   5.434   4.808 -0.1779 -0.3395 -0.4423
13634WAT      O56340   4.632   5.635   0.480  0.1873  0.1579  0.3177
13634WAT     H156341   4.539   5.625   0.460  0.3450 -0.9720  0.0520
13634WAT     H256342   4.672   5.554   0.447  1.1815  0.3821  0.9326
13634WAT    EPW56343   4.625   5.623   0.473  0.3393  0.0384  0.3638
13635WAT      O56344   0.496   7.430   2.041 -0.0198  0.4852 -0.8138
13635WAT     H156345   0.410   7.395   2.018  0.3837 -0.7350 -0.5138
13635WAT     H256346   0.496   7.432   2.137 -0.3248  2.0905 -0.8145
13635WAT    EPW56347   0.484   7.426   2.051 -0.0068  0.5360 -0.7744
13636WAT      O56348   2.714   1.020   2.108 -0.5201 -0.3792  0.0746
13636WAT     H156349   2.763   0.969   2.173  0.1271  0.4777  0.2652
13636WAT     H256350   2.628   1.034   2.149  0.6823  2.3542  1.9220
13636WAT    EPW56351   2.709   1.015   2.122 -0.2762  0.0943  0.3433
13637WAT      O56352   7.445   1.808   2.795  0.7888  0.4608  0.7109
13637WAT     H156353   7.526   1.777   2.754  3.3891  4.7740  1.8412
13637WAT     H256354   7.414   1.733   2.846  1.5966 -2.6842 -2.9730
13637WAT    EPW56355   7.452   1.794   2.797  1.2383  0.6149  0.3742
13638WAT      O56356   2.517   2.033   5.014 -0.4460  0.0296  0.6579
13638WAT     H156357   2.596   2.069   4.974  0.0490  1.0402  2.4286
13638WAT     H256358   2.547   1.954   5.059 -0.8865 -0.7882 -0.4601
13638WAT    EPW56359   2.531   2.028   5.015 -0.4388  0.0551  0.7439
13639WAT      O56360   1.214   5.330   8.874 -0.0711  0.2710 -0.0758
13639WAT     H156361   1.179   5.269   8.809 -0.9232  0.6611  0.0086
13639WAT     H256362   1.294   5.287   8.906 -1.4409 -1.5570  1.1157
13639WAT    EPW56363   1.220   5.316   8.869 -0.3642  0.0813  0.0925
13640WAT      O56364   3.030   7.112   1.103 -0.4136 -0.4265 -0.0339
13640WAT     H156365   3.024   7.045   1.035 -2.5265 -0.2364 -0.1063
13640WAT     H256366   2.994   7.191   1.062 -1.0028 -0.1175  1.0524
13640WAT    EPW56367   3.024   7.114   1.089 -0.7700 -0.3607  0.0998
13641WAT      O56368  -5.031   3.867   8.942 -0.0475  0.2816 -0.2647
13641WAT     H156369  -5.096   3.865   9.013  1.8624 -0.7236  1.5744
13641WAT     H256370  -5.032   3.958   8.912 -1.8899  0.4163  0.0743
13641WAT    EPW56371  -5.040   3.879   8.948 -0.0386  0.1667  0.0229
13642WAT      O56372  -0.150   7.750   1.889  0.4625  0.5306  0.2439
13642WAT     H156373  -0.228   7.804   1.895  0.9490  1.4915 -1.4696
13642WAT     H256374  -0.177   7.665   1.923 -0.3097  1.8051  3.0422
13642WAT    EPW56375  -0.164   7.746   1.894  0.4248  0.8252  0.3870
13643WAT      O56376   0.448   9.206   8.655 -0.3417 -0.6154 -0.4075
13643WAT     H156377   0.425   9.258   8.732 -1.4764  2.2283 -2.5173
13643WAT     H256378   0.539   9.181   8.670 -0.4480  0.0326  1.7221
13643WAT    EPW56379   0.457   9.209   8.667 -0.5053 -0.1545 -0.4053
13644WAT      O56380  -1.753   6.902   3.320 -0.6971  0.1328 -0.8774
13644WAT     H156381  -1.836   6.855   3.309 -0.6241 -0.3833  0.5491
13644WAT     H256382  -1.768   6.958   3.396  0.5560 -0.7027  0.0249
13644WAT    EPW56383  -1.766   6.903   3.328 -0.5221 -0.0455 -0.5702
13645WAT      O56384  -1.395   0.256   2.108 -0.2656 -0.1214  0.5003
13645WAT     H156385  -1.418   0.213   2.190 -0.5707  1.1717  1.1140
13645WAT     H256386  -1.302   0.275   2.116 -0.1338 -0.6310  0.2342
13645WAT    EPW56387  -1.386   0.253   2.120 -0.2884 -0.0180  0.5461
13646WAT      O56388   5.466   1.249   4.902  0.4358  0.2024 -0.1643
13646WAT     H156389   5.543   1.269   4.955  0.9502  1.5982 -1.3590
13646WAT     H256390   5.473   1.309   4.827 -1.2541 -0.3889 -0.8332
13646WAT    EPW56391   5.477   1.260   4.899  0.2806  0.3085 -0.4101
13647WAT      O56392   5.271   1.298   5.500 -0.0625  0.7156  0.4757
13647WAT     H156393   5.366   1.300   5.487 -0.3327  0.5271 -1.7824
13647WAT     H256394   5.261   1.291   5.595  2.1581  2.4084  0.9424
13647WAT    EPW56395   5.283   1.297   5.511  0.1950  0.9140  0.2394
13648WAT      O56396   0.676   6.689   7.625  0.4965  0.4943 -0.1096
13648WAT     H156397   0.678   6.620   7.559 -0.4359 -0.9619  1.3234
13648WAT     H256398   0.767   6.699   7.652  0.5478 -0.7100  0.2009
13648WAT    EPW56399   0.688   6.681   7.620  0.3803  0.1435  0.1204
13649WAT      O56400  -2.653   3.424   8.203 -0.4160 -0.7325 -0.6686
13649WAT     H156401  -2.681   3.364   8.134 -0.7296 -2.4572  0.8923
13649WAT     H256402  -2.703   3.504   8.186 -2.5416 -2.0166 -0.9193
13649WAT    EPW56403  -2.664   3.427   8.191 -0.7377 -1.1294 -0.4954
13650WAT      O56404   1.531   0.667   7.894  0.0603 -0.0574  0.0428
13650WAT     H156405   1.611   0.646   7.845  0.2273 -0.9734  0.6931
13650WAT     H256406   1.467   0.689   7.826  0.6883  0.1131 -0.5159
13650WAT    EPW56407   1.533   0.667   7.878  0.1651 -0.1557  0.0548
13651WAT      O56408   4.948   1.169   8.182 -0.2063 -0.2425  0.0253
13651WAT     H156409   4.911   1.230   8.246  0.2823 -0.5846  0.6422
13651WAT     H256410   4.877   1.153   8.120 -1.3141 -1.3763  1.5275
13651WAT    EPW56411   4.934   1.175   8.182 -0.2880 -0.4371  0.3047
13652WAT      O56412   6.050   1.937   3.835  0.1138  0.0613 -0.3433
13652WAT     H156413   6.017   2.005   3.776  1.7856  2.8189  1.6785
13652WAT     H256414   6.142   1.958   3.847  0.2327 -1.3834  1.8823
13652WAT    EPW56415   6.057   1.949   3.829  0.3500  0.2345  0.2170
13653WAT      O56416   0.800   7.369   4.874  0.1266 -0.1147 -0.1174
13653WAT     H156417   0.770   7.432   4.939  2.6742  0.4689  0.5932
13653WAT     H256418   0.854   7.419   4.814 -1.4579 -0.8209 -2.2732
13653WAT    EPW56419   0.803   7.384   4.875  0.2536 -0.1309 -0.3080
13654WAT      O56420   2.459   2.341   0.963  0.0837 -0.3048 -0.3745
13654WAT     H156421   2.434   2.387   0.883  0.8564 -3.5645 -2.7209
13654WAT     H256422   2.451   2.248   0.940  1.5241 -1.4138  2.9847
13654WAT    EPW56423   2.455   2.334   0.949  0.3755 -0.8810 -0.2409
13655WAT      O56424   1.357   5.772   7.230 -0.4425  0.0943 -0.3842
13655WAT     H156425   1.317   5.852   7.196  0.3453  0.6726  0.0356
13655WAT     H256426   1.364   5.786   7.324 -1.9378 -1.2131 -0.0312
13655WAT    EPW56427   1.352   5.784   7.238 -0.5358 -0.0019 -0.2823
13656WAT      O56428  -0.902   8.956   3.371  0.1590  0.7176 -0.1146
13656WAT     H156429  -0.936   9.014   3.303 -1.7537 -1.0701 -0.7974
13656WAT     H256430  -0.924   9.001   3.453  0.1513  1.6902 -0.6274
13656WAT    EPW56431  -0.909   8.970   3.373 -0.0943  0.6104 -0.2723
13657WAT      O56432  -4.290   1.430   7.912  0.0133 -0.5079  0.2739
13657WAT     H156433  -4.303   1.375   7.834  1.4108 -0.0689 -0.2833
13657WAT     H256434  -4.335   1.382   7.982  1.4542 -2.5552 -0.1246
13657WAT    EPW56435  -4.298   1.416   7.911  0.3879 -0.7201  0.1478
13658WAT      O56436  -4.275   4.309   8.053 -0.2841 -0.3164  0.6458
13658WAT     H156437  -4.228   4.385   8.016  0.8278 -0.8585  0.9007
13658WAT     H256438  -4.235   4.234   8.009 -0.7177 -0.8094  1.0922
13658WAT    EPW56439  -4.263   4.309   8.042 -0.1945 -0.4530  0.7386
13659WAT      O56440   3.136   3.681   8.287 -0.1799 -0.2400  0.0849
13659WAT     H156441   3.070   3.630   8.334  0.2013  0.9764  2.0077
13659WAT     H256442   3.187   3.615   8.239 -1.8424 -1.3272 -0.2780
13659WAT    EPW56443   3.134   3.665   8.287 -0.3489 -0.2229  0.2909
13660WAT      O56444   3.640   5.874   7.384  0.5974  0.4724 -0.2365
13660WAT     H156445   3.642   5.823   7.304  1.9285 -2.5854  1.5790
13660WAT     H256446   3.710   5.939   7.373  0.1782  0.6687 -1.8572
13660WAT    EPW56447   3.650   5.876   7.372  0.7178  0.0951 -0.2110
13661WAT      O56448  -2.476   3.397   2.554 -0.0254 -0.2527  0.8393
13661WAT     H156449  -2.524   3.316   2.538 -0.0695  0.2278 -1.7905
13661WAT     H256450  -2.518   3.435   2.631 -2.4370 -0.9331 -0.0690
13661WAT    EPW56451  -2.488   3.392   2.562 -0.3492 -0.2791  0.3726
13662WAT      O56452  -3.486   7.540   5.858 -0.3955 -0.5700 -0.2339
13662WAT     H156453  -3.429   7.593   5.803 -0.8761 -0.6752 -0.8382
13662WAT     H256454  -3.551   7.601   5.892 -1.5983 -0.9379 -1.7903
13662WAT    EPW56455  -3.487   7.555   5.855 -0.6175 -0.6323 -0.5188
13663WAT      O56456   0.053   3.242   1.641 -0.1255 -0.4727 -0.9702
13663WAT     H156457   0.061   3.246   1.546  1.5384  1.4324 -0.8112
13663WAT     H256458   0.143   3.243   1.673 -0.6220  2.4162  0.6639
13663WAT    EPW56459   0.066   3.243   1.633  0.0284  0.1595 -0.7337
13664WAT      O56460   0.188   1.864   1.853 -0.4714  0.0511 -0.1186
13664WAT     H156461   0.156   1.809   1.782 -0.3597 -0.0612 -0.0818
13664WAT     H256462   0.209   1.947   1.811  0.3229 -0.2599 -0.3559
13664WAT    EPW56463   0.186   1.868   1.838 -0.3519 -0.0047 -0.1451
13665WAT      O56464   6.744   1.499   0.800  0.5654  0.5830  0.6032
13665WAT     H156465   6.819   1.557   0.817  0.2958  1.2189 -0.3186
13665WAT     H256466   6.724   1.512   0.707 -0.9590  0.7410  0.9256
13665WAT    EPW56467   6.751   1.508   0.790  0.3288  0.6877  0.5241
13666WAT      O56468  -4.516   9.665   2.582 -0.1280 -0.3633  0.0302
13666WAT     H156469  -4.574   9.740   2.569 -0.2150  0.1070  2.5835
13666WAT     H256470  -4.576   9.591   2.594 -0.0445 -0.8864 -2.3033
13666WAT    EPW56471  -4.532   9.665   2.582 -0.1285 -0.3700  0.0592
13667WAT      O56472  -1.125   1.931   8.183 -0.8577 -0.1240  0.0979
13667WAT     H156473  -1.197   1.937   8.245 -0.8378 -1.4354  0.2833
13667WAT     H256474  -1.082   1.848   8.204  1.0954  0.8973  0.3851
13667WAT    EPW56475  -1.129   1.921   8.194 -0.5974 -0.1624  0.1602
13668WAT      O56476   3.834   5.341   4.312 -0.0938  0.2470  0.3395
13668WAT     H156477   3.918   5.305   4.286 -0.1757  0.3497 -0.0800
13668WAT     H256478   3.829   5.326   4.406 -0.6210 -1.8638  0.0143
13668WAT    EPW56479   3.844   5.335   4.321 -0.1742 -0.0179  0.2413
13669WAT      O56480  -1.805   9.840   7.125  0.3193 -0.6807  0.2278
13669WAT     H156481  -1.864   9.914   7.140 -0.1696 -0.9246 -0.4199
13669WAT     H256482  -1.772   9.818   7.211 -0.2302 -0.2757  0.5515
13669WAT    EPW56483  -1.809   9.847   7.138  0.1824 -0.6595  0.1850
13670WAT      O56484   5.061   1.916   4.527  0.5615  0.0824 -0.2466
13670WAT     H156485   5.141   1.896   4.477  0.6849  0.8563 -0.3795
13670WAT     H256486   5.073   2.007   4.553 -0.3957  0.2813 -0.4825
13670WAT    EPW56487   5.073   1.926   4.524  0.4518  0.2108 -0.2952
13671WAT      O56488  -3.364   0.166   8.293  0.2916  0.0999 -0.8578
13671WAT     H156489  -3.396   0.116   8.218  0.1157 -0.4105 -0.4421
13671WAT     H256490  -3.272   0.184   8.272  0.5363 -0.9304 -0.7354
13671WAT    EPW56491  -3.356   0.162   8.280  0.3008 -0.1033 -0.7868
13672WAT      O56492  -1.314   9.356   4.840 -0.1595 -0.3449 -0.5779
13672WAT     H156493  -1.317   9.301   4.918  0.3441  0.8595  0.3081
13672WAT     H256494  -1.252   9.426   4.861 -1.9290  1.4646 -1.0594
13672WAT    EPW56495  -1.306   9.358   4.853 -0.3265  0.0529 -0.5248
13673WAT      O56496  -4.482   3.085   8.604 -0.4802 -0.6720 -0.4133
13673WAT     H156497  -4.482   3.046   8.517  0.0922  1.4392 -1.4132
13673WAT     H256498  -4.486   3.010   8.664 -2.0988 -2.1429 -2.2282
13673WAT    EPW56499  -4.483   3.070   8.601 -0.6182 -0.5876 -0.7844
13674WAT      O56500   5.274   2.079   3.940  0.3117  0.2071  0.2597
13674WAT     H156501   5.346   2.091   3.878 -0.4803  1.0213 -0.5286
13674WAT     H256502   5.276   1.986   3.961  2.2217  0.3785  1.0442
13674WAT    EPW56503   5.283   2.069   3.935  0.4592  0.3370  0.2593
13675WAT      O56504   6.064   0.358   7.555 -0.8493  0.4418  0.7548
13675WAT     H156505   5.988   0.366   7.612 -0.6535  1.6052  0.8666
13675WAT     H256506   6.110   0.441   7.564  0.1951 -0.0767  0.3392
13675WAT    EPW56507   6.060   0.370   7.564 -0.6857  0.5269  0.7148
13676WAT      O56508   6.736   0.374   6.230  0.3294  0.1796  0.9172
13676WAT     H156509   6.799   0.436   6.192 -0.0899  0.1305  0.1093
13676WAT     H256510   6.669   0.365   6.162  0.2964 -1.0294  1.0930
13676WAT    EPW56511   6.736   0.381   6.216  0.2699  0.0136  0.8340
13677WAT      O56512   0.908   0.844   0.188 -0.3319  0.5069 -0.6094
13677WAT     H156513   0.970   0.917   0.197  0.7316 -0.5387  1.3577
13677WAT     H256514   0.953   0.782   0.130 -0.0994  0.3094 -0.2200
13677WAT    EPW56515   0.922   0.846   0.182 -0.1610  0.3429 -0.2986
13678WAT      O56516   1.465   2.258   5.521  0.5532  0.2374 -0.7425
13678WAT     H156517   1.402   2.205   5.472 -3.4891  2.4569  1.5272
13678WAT     H256518   1.511   2.308   5.454 -1.0515 -0.5035 -2.5026
13678WAT    EPW56519   1.463   2.257   5.506 -0.1916  0.4324 -0.6750
13679WAT      O56520  -1.410   6.021   1.742  0.0569 -0.1154 -0.6559
13679WAT     H156521  -1.328   6.049   1.784  1.3130 -0.4106 -2.7240
13679WAT     H256522  -1.428   5.935   1.780 -1.7794  1.6683  2.9994
13679WAT    EPW56523  -1.401   6.013   1.753 -0.0196  0.0811 -0.4465
13680WAT      O56524  -4.590   8.000   3.617  0.4504 -0.3180 -0.9503
13680WAT     H156525  -4.627   8.047   3.542  0.8966 -0.1721 -1.0800
13680WAT     H256526  -4.540   8.066   3.665 -0.2790 -0.2788 -0.2148
13680WAT    EPW56527  -4.588   8.015   3.614  0.4129 -0.2937 -0.8703
13681WAT      O56528   4.727   1.293   7.384 -0.1192  0.0693 -0.3295
13681WAT     H156529   4.823   1.297   7.384 -0.1192  2.0803 -2.6291
13681WAT     H256530   4.699   1.384   7.373 -2.1982 -0.7205 -2.3246
13681WAT    EPW56531   4.736   1.306   7.383 -0.3936  0.2304 -0.8960
13682WAT      O56532   2.242   7.282   5.007 -0.6218  0.8165 -0.1338
13682WAT     H156533   2.303   7.313   5.074 -1.4163  0.5370  0.7403
13682WAT     H256534   2.238   7.187   5.020 -0.9937  0.7947 -0.3934
13682WAT    EPW56535   2.250   7.273   5.017 -0.7757  0.7765 -0.0527
13683WAT      O56536   3.090   3.406   6.454 -0.3196  0.1040 -0.0643
13683WAT     H156537   3.072   3.459   6.532 -3.7806 -0.5038 -0.2624
13683WAT     H256538   3.003   3.389   6.417  1.0716 -1.2076 -3.0237
13683WAT    EPW56539   3.076   3.411   6.460 -0.5926 -0.1491 -0.4807
13684WAT      O56540   4.744   1.821   5.759 -0.1736 -0.5371  0.5830
13684WAT     H156541   4.765   1.759   5.689  0.7911  0.6576 -0.2261
13684WAT     H256542   4.677   1.878   5.721 -0.0379 -0.2208  0.8159
13684WAT    EPW56543   4.738   1.820   5.744 -0.0284 -0.3378  0.5069
13685WAT      O56544   6.517   1.032   0.820  0.3205 -0.1107 -0.3982
13685WAT     H156545   6.543   1.037   0.912  1.4126 -0.0736 -0.7009
13685WAT     H256546   6.436   0.981   0.822  0.2184  0.0543  0.6003
13685WAT    EPW56547   6.510   1.026   0.833  0.4513 -0.0840 -0.3064
13686WAT      O56548   5.114   8.409   4.440 -0.9574  0.1843 -0.3342
13686WAT     H156549   5.043   8.376   4.386 -0.5194  0.3081 -0.9951
13686WAT     H256550   5.125   8.342   4.508 -1.7335  0.1952 -0.1939
13686WAT    EPW56551   5.106   8.395   4.442 -1.0018  0.2022 -0.4027
13687WAT      O56552   8.264   1.104   3.167  0.1507 -0.5149  0.3765
13687WAT     H156553   8.232   1.165   3.232 -1.0264 -0.6316 -0.0644
13687WAT     H256554   8.343   1.145   3.131 -1.3780  1.4699 -0.9223
13687WAT    EPW56555   8.270   1.117   3.171 -0.2065 -0.2685  0.1470
13688WAT      O56556   5.573  10.289   0.045 -0.8972  0.0838 -0.0900
13688WAT     H156557   5.568  10.270  -0.049 -1.6523  0.9072 -0.2306
13688WAT     H256558   5.507  10.232   0.084 -0.8001 -0.0330 -0.0956
13688WAT    EPW56559   5.564  10.279   0.038 -0.9840  0.1769 -0.1093
13689WAT      O56560   4.047   7.092   4.059  0.0491 -0.3331 -0.2565
13689WAT     H156561   4.105   7.159   4.022  0.1797 -1.1708 -1.6318
13689WAT     H256562   4.060   7.016   4.003 -0.7966 -1.2205  0.7224
13689WAT    EPW56563   4.057   7.091   4.047 -0.0453 -0.5605 -0.3088
13690WAT      O56564   4.886   0.920   0.901 -0.4285  0.4520  0.1569
13690WAT     H156565   4.867   0.989   0.838 -2.3625  1.2670  1.5596
13690WAT     H256566   4.802   0.877   0.917  0.8051 -2.8450 -1.2560
13690WAT    EPW56567   4.873   0.924   0.895 -0.5209  0.1246  0.1555
13691WAT      O56568   1.710   2.798   4.016 -0.3556  0.4087 -0.2502
13691WAT     H156569   1.753   2.876   4.051  0.3706  0.5970 -1.5247
13691WAT     H256570   1.699   2.741   4.092 -0.3272  1.4752  0.5843
13691WAT    EPW56571   1.714   2.801   4.031 -0.2561  0.5742 -0.3083
13692WAT      O56572   3.668   4.372   8.115 -1.0205  0.5856  1.0774
13692WAT     H156573   3.594   4.347   8.059 -0.4521 -2.0006  1.3699
13692WAT     H256574   3.635   4.364   8.204 -0.8392  0.9671  1.1798
13692WAT    EPW56575   3.654   4.367   8.119 -0.9216  0.2949  1.1301
13693WAT      O56576  -0.011   2.954   7.212  0.3189 -0.3482  0.1191
13693WAT     H156577  -0.071   3.018   7.173  0.7318 -0.2785 -0.4172
13693WAT     H256578  -0.047   2.937   7.299 -1.1141 -1.1750 -0.6015
13693WAT    EPW56579  -0.024   2.960   7.218  0.1843 -0.4481 -0.0465
13694WAT      O56580  -3.038   3.624   6.472 -0.1350  0.4439 -0.8087
13694WAT     H156581  -2.955   3.609   6.517 -0.8256 -0.0337  0.3558
13694WAT     H256582  -3.065   3.537   6.442  0.7014  0.8656 -2.8910
13694WAT    EPW56583  -3.031   3.611   6.474 -0.1158  0.4365 -0.9298
13695WAT      O56584  -1.049   7.574   7.386  0.5101  0.0394  0.4079
13695WAT     H156585  -1.044   7.545   7.295  2.0640  2.9558 -0.5811
13695WAT     H256586  -1.133   7.620   7.392 -0.2287 -1.3315  0.8913
13695WAT    EPW56587  -1.060   7.577   7.375  0.6176  0.2434  0.3414
13696WAT      O56588   5.013   9.380   0.217  0.0050  0.1338  1.3300
13696WAT     H156589   4.961   9.450   0.179  0.3928 -0.3680 -0.2126
13696WAT     H256590   4.955   9.338   0.280 -0.7504  0.8451  1.1300
13696WAT    EPW56591   4.999   9.384   0.220 -0.0436  0.1616  1.1001
13697WAT      O56592   3.521   5.702   7.058  0.2893  0.3119  0.0813
13697WAT     H156593   3.598   5.751   7.084  1.3326 -1.0223 -0.3547
13697WAT     H256594   3.549   5.650   6.983 -1.2525  0.3608 -0.5680
13697WAT    EPW56595   3.535   5.701   7.052  0.2235  0.1423 -0.0618
13698WAT      O56596  -0.317   3.600   5.625 -0.2267 -0.0593  0.7403
13698WAT     H156597  -0.320   3.591   5.720 -4.5799  1.0361  0.9163
13698WAT     H256598  -0.354   3.686   5.608  0.5787 -0.1589 -1.9788
13698WAT    EPW56599  -0.322   3.610   5.636 -0.6946  0.0720  0.4048
13699WAT      O56600   5.329   9.114   1.434  0.0474  0.7118 -0.7109
13699WAT     H156601   5.271   9.042   1.408 -1.3213  1.1351  1.0186
13699WAT     H256602   5.397   9.115   1.366 -0.3746 -1.6300 -1.2609
13699WAT    EPW56603   5.330   9.105   1.421 -0.1886  0.4587 -0.5553
13700WAT      O56604   2.452   0.220   1.273 -0.4546  0.5884 -0.4603
13700WAT     H156605   2.535   0.228   1.226 -0.7344 -0.6586 -1.2196
13700WAT     H256606   2.405   0.300   1.253  0.2998  1.0270 -0.5356
13700WAT    EPW56607   2.457   0.232   1.264 -0.3921  0.4818 -0.5704
13701WAT      O56608   3.259   0.531   0.689  0.3020  0.5629  0.7582
13701WAT     H156609   3.237   0.560   0.601  2.5696  3.6550  1.0372
13701WAT     H256610   3.333   0.470   0.676  0.1676  0.4550  0.4958
13701WAT    EPW56611   3.266   0.526   0.675  0.5833  0.9565  0.7604
13702WAT      O56612   4.478   1.860   1.127  1.2165  0.3438 -0.2705
13702WAT     H156613   4.520   1.777   1.102  3.9615  1.1377  1.2306
13702WAT     H256614   4.394   1.834   1.164  1.1388 -1.5634 -1.6178
13702WAT    EPW56615   4.473   1.845   1.128  1.5683  0.1969 -0.2502
13703WAT      O56616  -4.122   6.688   4.041 -0.5324 -0.2159 -0.7928
13703WAT     H156617  -4.131   6.760   3.979  0.9127 -0.3737 -1.2282
13703WAT     H256618  -4.151   6.725   4.125 -0.2620  0.7325 -1.1051
13703WAT    EPW56619  -4.127   6.703   4.044 -0.3061 -0.1116 -0.8912
13704WAT      O56620   1.050   0.110   7.337 -0.2168 -0.2781 -0.4851
13704WAT     H156621   1.112   0.050   7.378  1.4907  2.1750  0.7953
13704WAT     H256622   1.102   0.158   7.272 -1.2281  0.5952 -0.6837
13704WAT    EPW56623   1.065   0.109   7.334 -0.1249  0.1606 -0.3424
13705WAT      O56624   5.529   0.936   3.847  0.0073 -0.3943 -0.4104
13705WAT     H156625   5.599   1.001   3.842 -2.1635  2.0291 -1.6356
13705WAT     H256626   5.565   0.859   3.803  1.4048  1.3109 -2.4528
13705WAT    EPW56627   5.543   0.935   3.841 -0.0947  0.1502 -0.8414
13706WAT      O56628  -6.295   8.210   8.172  0.5543  0.1205 -0.0158
13706WAT     H156629  -6.338   8.237   8.091 -1.9451  0.6514  1.3874
13706WAT     H256630  -6.342   8.131   8.199  0.7287  0.4651  1.3736
13706WAT    EPW56631  -6.307   8.203   8.165  0.2475  0.2356  0.3529
13707WAT      O56632   3.889   7.624   1.420 -0.2671 -0.8708 -0.5538
13707WAT     H156633   3.860   7.645   1.331  1.1448 -0.5577 -0.9714
13707WAT     H256634   3.930   7.705   1.450 -1.9849 -0.4931  0.9609
13707WAT    EPW56635   3.891   7.638   1.412 -0.3076 -0.7794 -0.4091
13708WAT      O56636   7.114   0.293   2.267 -0.1830  0.8850 -0.8169
13708WAT     H156637   7.167   0.304   2.346 -1.2458  0.3038  0.0093
13708WAT     H256638   7.154   0.351   2.202  2.2455 -0.4515 -0.6412
13708WAT    EPW56639   7.126   0.302   2.269 -0.0029  0.6321 -0.6849
13709WAT      O56640   5.777   2.523   3.207  0.0726 -0.0554 -0.6342
13709WAT     H156641   5.823   2.572   3.275  0.1345 -1.7041  0.5637
13709WAT     H256642   5.689   2.560   3.205  1.6226  4.4323 -4.2116
13709WAT    EPW56643   5.772   2.534   3.216  0.2851  0.3190 -0.9481
13710WAT      O56644   4.973   0.719   0.023 -0.3393 -0.4267  0.2838
13710WAT     H156645   5.006   0.803   0.055 -1.8867  1.0386 -1.7133
13710WAT     H256646   4.880   0.719   0.045 -0.8019 -0.6676 -1.4862
13710WAT    EPW56647   4.965   0.730   0.030 -0.6046 -0.2652 -0.2131
13711WAT      O56648   2.380   8.556   8.907 -0.2291 -0.4598  0.7405
13711WAT     H156649   2.313   8.595   8.851 -1.1884 -0.5091  1.8220
13711WAT     H256650   2.415   8.630   8.957  1.6329 -0.1746 -0.8793
13711WAT    EPW56651   2.376   8.571   8.907 -0.1100 -0.4292  0.6700
13712WAT      O56652   0.083   3.778   5.475  0.0412  0.3610  0.5177
13712WAT     H156653   0.121   3.802   5.560  0.4879  4.4020 -0.6209
13712WAT     H256654   0.155   3.737   5.427  0.5736  0.5678  1.1326
13712WAT    EPW56655   0.098   3.776   5.480  0.1703  0.9212  0.4487
13713WAT      O56656   4.429   9.553   0.654  0.5486 -0.1992 -0.0708
13713WAT     H156657   4.515   9.555   0.696  0.2640  0.1129  0.5053
13713WAT     H256658   4.430   9.473   0.601  1.2283 -0.1386 -0.1497
13713WAT    EPW56659   4.440   9.543   0.653  0.6008 -0.1497 -0.0052
13714WAT      O56660  -1.548   5.560   3.466 -1.0454 -0.5692  0.0026
13714WAT     H156661  -1.493   5.547   3.388  2.6361 -0.6548  2.3608
13714WAT     H256662  -1.561   5.472   3.500  3.1647 -0.3985  2.8612
13714WAT    EPW56663  -1.542   5.547   3.460 -0.0046 -0.5581  0.6907
13715WAT      O56664   0.534   3.648   6.312 -0.4897  0.6490 -0.3439
13715WAT     H156665   0.493   3.728   6.279 -1.6649  0.2620  0.1171
13715WAT     H256666   0.562   3.601   6.234 -0.3666  1.2103 -0.6417
13715WAT    EPW56667   0.532   3.653   6.297 -0.6285  0.6720 -0.3223
13716WAT      O56668  -0.708   7.417   4.418 -0.6394 -0.7958 -0.0131
13716WAT     H156669  -0.781   7.356   4.428 -0.4895 -0.9607  0.0830
13716WAT     H256670  -0.707   7.468   4.499  0.0415 -1.5508  0.4801
13716WAT    EPW56671  -0.717   7.416   4.430 -0.5298 -0.9172  0.0646
13717WAT      O56672  -0.460   6.071   5.539  0.1329  0.1545 -0.1298
13717WAT     H156673  -0.471   5.992   5.592 -1.3218  1.6970  2.0500
13717WAT     H256674  -0.509   6.054   5.459  2.7695 -2.4347 -1.3706
13717WAT    EPW56675  -0.468   6.058   5.536  0.2888  0.0165 -0.0060
13718WAT      O56676   1.955   1.901   8.919  0.0848 -0.1773 -0.0130
13718WAT     H156677   1.966   1.927   8.827 -2.5592 -0.4751 -0.5014
13718WAT     H256678   2.014   1.826   8.930  0.4933 -0.0937 -1.4471
13718WAT    EPW56679   1.964   1.894   8.908 -0.2100 -0.2055 -0.2666
13719WAT      O56680   5.569   0.382   0.750  0.4165  0.2388  0.1171
13719WAT     H156681   5.575   0.286   0.746  1.1180  0.3272 -1.1247
13719WAT     H256682   5.580   0.411   0.660  1.0889  1.5526  0.6005
13719WAT    EPW56683   5.571   0.373   0.738  0.5975  0.4237  0.0171
13720WAT      O56684   1.294   6.570   1.246 -0.2327 -0.2012  0.7695
13720WAT     H156685   1.384   6.570   1.214  0.9395 -3.4706  3.4489
13720WAT     H256686   1.255   6.491   1.207 -2.2444  1.4824 -0.8370
13720WAT    EPW56687   1.301   6.559   1.237 -0.3434 -0.4103  0.9111
13721WAT      O56688   0.715   1.895   6.984  0.6250  0.0454  0.1472
13721WAT     H156689   0.706   1.975   6.932  1.3837  0.0175 -0.0353
13721WAT     H256690   0.679   1.826   6.927 -0.1588  0.2716  0.3616
13721WAT    EPW56691   0.709   1.896   6.969  0.6216  0.0715  0.1514
13722WAT      O56692   3.486   2.176   1.000 -0.4492 -0.2692  0.7675
13722WAT     H156693   3.535   2.151   0.921 -0.6792  0.9048  0.2406
13722WAT     H256694   3.553   2.211   1.060 -0.4501  0.0151  0.6018
13722WAT    EPW56695   3.501   2.177   0.998 -0.4797 -0.0768  0.6762
13723WAT      O56696   6.227   5.423   0.607 -0.9376 -0.4472 -0.1619
13723WAT     H156697   6.186   5.344   0.570  0.3874 -1.2012 -0.0753
13723WAT     H256698   6.232   5.484   0.533 -2.7889 -0.0654 -0.0223
13723WAT    EPW56699   6.222   5.421   0.592 -1.0073 -0.4964 -0.1320
13724WAT      O56700   2.130   0.208   1.053 -0.4049  0.6021 -0.3816
13724WAT     H156701   2.171   0.277   1.106  1.0716 -0.1217 -0.5370
13724WAT     H256702   2.178   0.129   1.077 -0.0070  0.1717 -2.4426
13724WAT    EPW56703   2.142   0.207   1.064 -0.1577  0.4499 -0.6739
13725WAT      O56704   0.317   3.271   1.740 -0.4871  0.1167  0.3712
13725WAT     H156705   0.346   3.320   1.663 -2.4494  0.3137 -0.2811
13725WAT     H256706   0.385   3.204   1.752 -0.2841 -0.1235 -1.7256
13725WAT    EPW56707   0.330   3.269   1.731 -0.7191  0.1110  0.0086
13726WAT      O56708   3.654  10.339   0.591 -0.6081 -0.0190 -0.1632
13726WAT     H156709   3.626  10.431   0.585 -0.8705 -0.0961 -0.1302
13726WAT     H256710   3.671  10.326   0.684  2.5208  0.8999 -0.4945
13726WAT    EPW56711   3.652  10.349   0.602 -0.2301  0.0920 -0.2025
13727WAT      O56712   8.207   0.934   3.561  0.0774  0.0986  0.1801
13727WAT     H156713   8.193   0.864   3.624  0.5959 -0.6701 -0.5443
13727WAT     H256714   8.226   0.890   3.478  0.1196  1.0861 -0.3589
13727WAT    EPW56715   8.208   0.919   3.558  0.1512  0.1274  0.0135
13728WAT      O56716   3.990   3.501   3.942  0.4693  0.1676  0.2675
13728WAT     H156717   3.975   3.502   4.036 -2.7308  0.9293 -0.1256
13728WAT     H256718   3.977   3.592   3.915 -0.3455 -0.3091 -1.0581
13728WAT    EPW56719   3.986   3.513   3.951 -0.0602  0.2052  0.0409
13729WAT      O56720   2.015   3.571   5.431 -0.1716  0.2854 -0.1685
13729WAT     H156721   2.049   3.629   5.363 -0.2850  2.6668  1.6581
13729WAT     H256722   1.940   3.527   5.391 -0.0799  1.4154 -1.6513
13729WAT    EPW56723   2.010   3.573   5.417 -0.1745  0.7486 -0.1230
13730WAT      O56724  -1.014   8.288   4.707 -0.3426  0.8172  0.1945
13730WAT     H156725  -0.976   8.205   4.678 -0.9283  0.8527 -0.7233
13730WAT     H256726  -0.964   8.311   4.785 -0.0661 -0.3122  0.3689
13730WAT    EPW56727  -1.002   8.280   4.714 -0.3834  0.6728  0.0966
13731WAT      O56728   5.650   7.071   2.486 -0.1520 -0.0646 -0.2152
13731WAT     H156729   5.587   7.142   2.499  1.5933  1.4450  0.4444
13731WAT     H256730   5.628   7.035   2.400 -1.9807  0.2796  0.0663
13731WAT    EPW56731   5.638   7.076   2.476 -0.1631  0.1800 -0.0911
13732WAT      O56732  -0.216   6.194   4.407  0.3239 -0.4813  0.1480
13732WAT     H156733  -0.291   6.207   4.349  0.4275 -2.2178 -0.4583
13732WAT     H256734  -0.210   6.275   4.458  0.1946  1.1373 -2.2266
13732WAT    EPW56735  -0.225   6.206   4.406  0.3205 -0.4969 -0.2451
13733WAT      O56736   7.238   1.085   4.365 -0.4862 -0.4213 -1.3156
13733WAT     H156737   7.161   1.036   4.335  1.0008 -1.7557 -3.2009
13733WAT     H256738   7.254   1.052   4.453 -2.5018  0.4944 -0.5381
13733WAT    EPW56739   7.230   1.074   4.373 -0.5560 -0.4765 -1.4620
13734WAT      O56740  -2.148   3.428   5.553  0.2465 -0.7310  0.7229
13734WAT     H156741  -2.139   3.359   5.488 -1.2752 -1.9119  1.6827
13734WAT     H256742  -2.186   3.502   5.505 -0.5887 -1.4868  0.2072
13734WAT    EPW56743  -2.152   3.429   5.538 -0.0645 -0.9865  0.7815
13735WAT      O56744   5.113   0.974   1.058 -0.0119  0.4192 -0.4663
13735WAT     H156745   5.030   0.938   1.027  2.6377 -5.0734 -2.5168
13735WAT     H256746   5.157   1.006   0.979  0.9894  0.3419  0.0393
13735WAT    EPW56747   5.108   0.973   1.043  0.4697 -0.3154 -0.6701
13736WAT      O56748  -6.432   8.898   8.028 -0.2428  0.3404 -0.2307
13736WAT     H156749  -6.338   8.895   8.046 -0.2269 -1.4632 -0.4120
13736WAT     H256750  -6.451   8.813   7.988 -1.2849  2.0269 -3.7021
13736WAT    EPW56751  -6.422   8.886   8.025 -0.3784  0.3242 -0.7124
13737WAT      O56752  -2.071   8.971   6.967  0.2195 -1.1011  0.0727
13737WAT     H156753  -1.992   9.010   6.931  1.8500 -3.2407  1.0960
13737WAT     H256754  -2.062   8.981   7.062 -1.8304  0.5015  0.1671
13737WAT    EPW56755  -2.060   8.977   6.975  0.1642 -1.1721  0.2203
13738WAT      O56756  -0.410   7.677   4.984 -0.2945  0.0559  0.2174
13738WAT     H156757  -0.335   7.708   4.935 -0.9025  0.5786 -0.4083
13738WAT     H256758  -0.393   7.705   5.074 -1.4606  3.7051 -0.5049
13738WAT    EPW56759  -0.398   7.685   4.990 -0.5285  0.6063  0.0398
13739WAT      O56760   2.533   9.195   2.399 -0.1211 -0.3296  0.2234
13739WAT     H156761   2.600   9.187   2.467  2.0541  1.4107 -1.5540
13739WAT     H256762   2.517   9.105   2.371  0.6319 -0.8869  1.4725
13739WAT    EPW56763   2.540   9.182   2.404  0.2650 -0.1731  0.1538
13740WAT      O56764  -3.379   3.437   5.344 -1.0154  0.1496  0.1053
13740WAT     H156765  -3.440   3.502   5.378 -0.0212 -0.3253  3.0671
13740WAT     H256766  -3.433   3.379   5.290 -2.2207  2.3755 -1.2622
13740WAT    EPW56767  -3.394   3.438   5.341 -1.0433  0.3805  0.3157
13741WAT      O56768   1.407  10.102   8.264  0.5152  0.0112 -0.8737
13741WAT     H156769   1.343  10.170   8.242  1.4186  0.9469 -0.6660
13741WAT     H256770   1.398  10.090   8.358 -0.5752 -1.1456 -1.0960
13741WAT    EPW56771   1.397  10.109   8.274  0.4905 -0.0181 -0.8755
13742WAT      O56772  -2.145   6.735   7.300 -0.6588  0.0357  0.4507
13742WAT     H156773  -2.240   6.723   7.298 -0.8172  0.9900  1.4132
13742WAT     H256774  -2.130   6.816   7.252 -0.3588  0.0341  0.5385
13742WAT    EPW56775  -2.155   6.744   7.294 -0.6402  0.1614  0.5891
13743WAT      O56776  -3.482   9.466   7.060 -0.4333 -1.1316 -0.4998
13743WAT     H156777  -3.398   9.509   7.048 -0.9341 -0.6530 -2.8280
13743WAT     H256778  -3.494   9.462   7.155  0.8914  1.4067 -0.1371
13743WAT    EPW56779  -3.473   9.471   7.071 -0.3247 -0.7334 -0.7591
13744WAT      O56780   2.031   9.437   2.062  0.3637 -0.2345 -0.7169
13744WAT     H156781   1.985   9.518   2.042  0.6981 -0.3935 -2.2852
13744WAT     H256782   1.994   9.372   2.002 -0.7413 -1.5778  1.3157
13744WAT    EPW56783   2.020   9.439   2.051  0.2621 -0.4325 -0.6555
13745WAT      O56784  -1.428   6.681   2.361  0.0123 -0.3782 -0.4953
13745WAT     H156785  -1.360   6.639   2.309  2.3187 -1.6403  3.0998
13745WAT     H256786  -1.474   6.608   2.404 -1.3677  0.5837 -0.2555
13745WAT    EPW56787  -1.425   6.666   2.360  0.1345 -0.4177  0.0106
13746WAT      O56788  -2.188   2.759   5.281  0.2878  0.1076 -0.8743
13746WAT     H156789  -2.274   2.802   5.289  0.8386  1.0488  0.3969
13746WAT     H256790  -2.155   2.755   5.371  0.2980 -3.0155 -0.9161
13746WAT    EPW56791  -2.195   2.764   5.294  0.3617 -0.1802 -0.7122
13747WAT      O56792   3.495   3.646   3.408  0.3943  0.5471 -0.0340
13747WAT     H156793   3.438   3.591   3.354  1.5661  0.0051 -0.7577
13747WAT     H256794   3.583   3.623   3.380  0.9409  2.4874 -0.0351
13747WAT    EPW56795   3.499   3.636   3.397  0.6210  0.7315 -0.1296
13748WAT      O56796   5.707   2.516   1.809  0.2469 -0.3471  0.0232
13748WAT     H156797   5.686   2.576   1.880  1.2495 -0.2113  0.2075
13748WAT     H256798   5.655   2.548   1.735 -1.5204 -1.0334  0.9056
13748WAT    EPW56799   5.697   2.528   1.808  0.1459 -0.4196  0.1639
13749WAT      O56800   1.561   2.785   1.202 -0.1719  0.0190 -0.1205
13749WAT     H156801   1.579   2.861   1.147  2.0106 -0.6498 -0.4552
13749WAT     H256802   1.554   2.820   1.290 -2.9359  1.0124 -0.6312
13749WAT    EPW56803   1.563   2.799   1.206 -0.2486  0.0618 -0.2320
13750WAT      O56804   4.030   8.915   0.457  0.2263 -0.2654  0.1800
13750WAT     H156805   4.103   8.976   0.461 -0.3099  0.6904 -2.3129
13750WAT     H256806   4.056   8.851   0.390 -0.9095 -0.3081 -0.2447
13750WAT    EPW56807   4.043   8.914   0.449  0.0057 -0.1454 -0.2048
13751WAT      O56808  -4.914   7.171   6.039 -0.3727  0.3979  0.1878
13751WAT     H156809  -4.848   7.235   6.065  0.6612  0.0637 -1.4532
13751WAT     H256810  -4.995   7.222   6.032 -0.2852  0.8475  2.0478
13751WAT    EPW56811  -4.916   7.186   6.041 -0.2248  0.4129  0.2167
13752WAT      O56812  -1.950   3.342   1.853 -0.2410 -0.3171  0.0514
13752WAT     H156813  -1.953   3.352   1.758  0.2049 -0.2805  0.0423
13752WAT     H256814  -1.972   3.428   1.887  0.0476 -0.2156 -0.0192
13752WAT    EPW56815  -1.954   3.354   1.845 -0.1442 -0.2989  0.0409
13753WAT      O56816   4.580   5.348   3.175  0.6152 -0.5242  0.4600
13753WAT     H156817   4.564   5.412   3.106  0.7114  0.2101  1.0982
13753WAT     H256818   4.676   5.344   3.182  0.6025 -0.1515  0.9375
13753WAT    EPW56819   4.591   5.356   3.167  0.6263 -0.3784  0.6070
13754WAT      O56820   5.923   4.080   2.866  0.1694  0.4775 -0.4377
13754WAT     H156821   5.940   4.069   2.772 -0.2996 -0.3761 -0.4306
13754WAT     H256822   5.876   4.001   2.891  0.5117  0.5821  0.5777
13754WAT    EPW56823   5.919   4.068   2.857  0.1528  0.3788 -0.3027
13755WAT      O56824  -1.412   3.768   7.138 -0.5229  0.5356 -0.2561
13755WAT     H156825  -1.375   3.856   7.142 -1.4918  0.9898 -0.7030
13755WAT     H256826  -1.496   3.780   7.094 -0.5841 -0.6488 -0.4983
13755WAT    EPW56827  -1.419   3.781   7.133 -0.6588  0.4394 -0.3469
13756WAT      O56828   2.198   2.759   1.405  0.3147 -0.2477 -0.4084
13756WAT     H156829   2.230   2.843   1.436 -0.4403  0.1103 -0.5653
13756WAT     H256830   2.159   2.778   1.319  0.0615 -0.7342 -0.4080
13756WAT    EPW56831   2.197   2.772   1.397  0.1817 -0.2646 -0.4291
13757WAT      O56832   3.101   5.890   3.420 -0.6815  0.1626  0.3102
13757WAT     H156833   3.052   5.865   3.342 -0.3992  1.4472 -0.3047
13757WAT     H256834   3.063   5.974   3.446  1.7059  1.6430 -0.6972
13757WAT    EPW56835   3.090   5.898   3.413 -0.3295  0.5274  0.0963
13758WAT      O56836   1.275   9.379   1.279  0.2737 -0.6285 -0.2228
13758WAT     H156837   1.220   9.382   1.200  0.4552  0.1946 -0.3278
13758WAT     H256838   1.213   9.393   1.351  0.3982  0.8104 -0.3751
13758WAT    EPW56839   1.260   9.381   1.278  0.3141 -0.3300 -0.2567
13759WAT      O56840   0.688   0.505   4.339  0.4765  0.3257  0.5738
13759WAT     H156841   0.601   0.467   4.349  1.1704 -0.9529  2.1903
13759WAT     H256842   0.703   0.554   4.420  2.1947 -1.5681  1.4782
13759WAT    EPW56843   0.678   0.506   4.351  0.7946 -0.0927  0.9062
13760WAT      O56844   2.057   2.582   5.666  0.0127  0.4613 -0.7346
13760WAT     H156845   2.039   2.635   5.745  1.7315  0.3023 -0.2033
13760WAT     H256846   2.065   2.493   5.699 -2.5855 -0.1742 -1.5942
13760WAT    EPW56847   2.056   2.577   5.681 -0.1034  0.3566 -0.7780
13761WAT      O56848  -4.071   1.055   6.921  0.6301  0.3639  0.3544
13761WAT     H156849  -4.019   0.992   6.971 -0.4292  1.3341  2.8725
13761WAT     H256850  -4.128   1.002   6.866  1.2280 -0.8266  0.8644
13761WAT    EPW56851  -4.072   1.040   6.920  0.5693  0.3349  0.7539
13762WAT      O56852  -3.910   7.633   8.831 -0.2918  0.6284  0.4109
13762WAT     H156853  -3.872   7.650   8.744 -1.1452  0.0185 -0.1023
13762WAT     H256854  -3.837   7.640   8.891  0.9277 -1.7208 -0.6668
13762WAT    EPW56855  -3.896   7.636   8.827 -0.2435  0.2379  0.2007
13763WAT      O56856   4.107   1.738   4.630 -0.2729 -0.8503  0.5876
13763WAT     H156857   4.050   1.711   4.558  0.0638 -0.5564  0.2053
13763WAT     H256858   4.083   1.830   4.646  0.4518 -0.5589  0.0644
13763WAT    EPW56859   4.096   1.747   4.623 -0.1328 -0.7731  0.4683
13764WAT      O56860   5.373   9.590   1.301 -0.7120 -0.5434 -0.3656
13764WAT     H156861   5.278   9.596   1.290 -0.4861 -0.4007 -2.8163
13764WAT     H256862   5.407   9.577   1.213  1.6500  0.7008  0.2523
13764WAT    EPW56863   5.365   9.589   1.288 -0.3707 -0.3605 -0.6074
13765WAT      O56864  -0.096   7.186   6.552  0.2289  0.2144 -0.5389
13765WAT     H156865  -0.138   7.211   6.634  0.6293 -0.7347 -0.0311
13765WAT     H256866  -0.121   7.255   6.490 -0.9607  0.3818  0.0960
13765WAT    EPW56867  -0.105   7.198   6.555  0.1248  0.1113 -0.3881
13766WAT      O56868   5.496   0.736   1.119  0.7962  0.3742  0.2114
13766WAT     H156869   5.426   0.713   1.179  0.4456 -1.9643 -0.9820
13766WAT     H256870   5.576   0.732   1.172  0.3699 -0.4587  0.8131
13766WAT    EPW56871   5.497   0.732   1.134  0.6936 -0.0441  0.1333
13767WAT      O56872   5.863   0.641   0.148 -0.1802  0.0198  0.2909
13767WAT     H156873   5.940   0.596   0.183  0.5944 -1.2509 -2.7650
13767WAT     H256874   5.899   0.705   0.087 -1.4779 -1.0527 -1.7045
13767WAT    EPW56875   5.878   0.644   0.145 -0.2491 -0.2893 -0.3753
13768WAT      O56876   0.236   2.853   7.266  0.4561 -0.4327 -0.2358
13768WAT     H156877   0.153   2.899   7.278  0.4458 -0.2143 -1.1014
13768WAT     H256878   0.302   2.919   7.287  0.4395 -0.0115 -1.4276
13768WAT    EPW56879   0.234   2.868   7.270  0.4526 -0.3483 -0.5071
13769WAT      O56880   4.054   5.083   4.902  0.1188  0.4959  0.7301
13769WAT     H156881   4.064   5.072   4.997  0.9640 -0.0775  0.5966
13769WAT     H256882   4.074   4.996   4.867  0.0659  0.7697  0.0172
13769WAT    EPW56883   4.058   5.070   4.910  0.2232  0.4563  0.6185
13770WAT      O56884   4.672   8.518   1.664 -0.7214 -0.0225  0.6541
13770WAT     H156885   4.607   8.574   1.623 -1.0121 -0.0675  1.0486
13770WAT     H256886   4.689   8.559   1.749 -1.3866 -0.8494  1.2087
13770WAT    EPW56887   4.666   8.531   1.670 -0.8476 -0.1373  0.7793
13771WAT      O56888  -6.314   8.003   7.820  0.1628 -0.9297  0.2165
13771WAT     H156889  -6.239   8.057   7.847  0.3213 -0.8783 -0.3121
13771WAT     H256890  -6.290   7.914   7.845 -1.1749 -0.4898  3.4412
13771WAT    EPW56891  -6.301   7.998   7.827  0.0074 -0.8647  0.5720
13772WAT      O56892   0.604   9.111   7.252 -0.4054  0.3529  0.2089
13772WAT     H156893   0.676   9.106   7.315 -0.9723 -0.2090  0.8219
13772WAT     H256894   0.646   9.096   7.167  0.2535  0.3933  0.5204
13772WAT    EPW56895   0.619   9.108   7.249 -0.3933  0.2837  0.3312
13773WAT      O56896  -1.903   8.722   8.477  0.7793 -0.6063 -0.2679
13773WAT     H156897  -1.997   8.706   8.486  0.8148 -0.3167  0.6531
13773WAT     H256898  -1.883   8.693   8.388 -0.6803  1.6824 -1.4660
13773WAT    EPW56899  -1.913   8.716   8.466  0.5915 -0.2661 -0.3047
13774WAT      O56900  -5.368   4.398   7.038  0.1325  0.2391 -0.3989
13774WAT     H156901  -5.353   4.457   7.112  0.3874  0.1221 -0.3546
13774WAT     H256902  -5.282   4.391   6.995 -0.0154  0.3091 -0.7065
13774WAT    EPW56903  -5.355   4.405   7.042  0.1466  0.2327 -0.4337
13775WAT      O56904  -0.137   7.067   0.120 -0.0733  0.5091  0.7106
13775WAT     H156905  -0.082   7.029   0.051 -2.5016  0.5489 -1.4173
13775WAT     H256906  -0.100   7.034   0.202  2.4897 -0.1876 -0.6360
13775WAT    EPW56907  -0.125   7.057   0.122 -0.0555  0.4225  0.2523
13776WAT      O56908   0.430   9.309   4.467  0.8842  0.4597  0.1194
13776WAT     H156909   0.494   9.246   4.498 -0.4785  0.2140  2.7790
13776WAT     H256910   0.345   9.266   4.479 -0.1836  2.9501  2.9085
13776WAT    EPW56911   0.427   9.295   4.473  0.5637  0.7553  0.8380
13777WAT      O56912   1.858   2.517   2.381  0.1593 -0.8921  0.4326
13777WAT     H156913   1.892   2.604   2.363  1.4944 -0.9545  2.3262
13777WAT     H256914   1.896   2.494   2.466 -3.5874 -1.5526  2.1319
13777WAT    EPW56915   1.868   2.525   2.390 -0.1588 -0.9874  0.9065
13778WAT      O56916  -0.399   0.197   3.546 -0.5536 -0.1680 -0.1713
13778WAT     H156917  -0.352   0.258   3.603  0.0758 -1.4618  0.7395
13778WAT     H256918  -0.486   0.191   3.585 -1.0618  1.1283 -1.0329
13778WAT    EPW56919  -0.404   0.204   3.559 -0.5376 -0.1677 -0.1647
13779WAT      O56920   2.666   0.326   0.210 -0.2677  0.4647 -0.4144
13779WAT     H156921   2.690   0.304   0.120 -0.9609  0.1603 -0.5300
13779WAT     H256922   2.743   0.303   0.262 -0.3753 -0.7056 -0.7479
13779WAT    EPW56923   2.679   0.320   0.205 -0.3734  0.2702 -0.4737
13780WAT      O56924  -1.389   3.799   1.188 -0.3088  0.2574 -0.5432
13780WAT     H156925  -1.314   3.779   1.244 -0.8220 -0.7818 -0.2198
13780WAT     H256926  -1.351   3.805   1.100 -0.1724 -2.8009 -0.7901
13780WAT    EPW56927  -1.374   3.797   1.183 -0.3585 -0.2830 -0.5331
13781WAT      O56928   5.008   5.222   0.973  0.3775  0.2625 -0.6745
13781WAT     H156929   5.000   5.131   0.947 -1.9903 -0.0848  0.9895
13781WAT     H256930   5.077   5.222   1.040 -0.1089 -0.4184 -0.1717
13781WAT    EPW56931   5.016   5.210   0.978  0.0010  0.1268 -0.3887
13782WAT      O56932  -5.599   8.648   6.058  0.0397 -0.6713 -0.1175
13782WAT     H156933  -5.685   8.632   6.019 -0.4462  1.8416 -0.2169
13782WAT     H256934  -5.537   8.614   5.994 -0.8302  0.6366 -1.7078
13782WAT    EPW56935  -5.602   8.641   6.045 -0.1392 -0.1674 -0.3405
13783WAT      O56936   4.167   6.404   2.219 -0.3468 -0.4443 -0.5608
13783WAT     H156937   4.135   6.382   2.307 -1.9368 -0.2539 -1.0702
13783WAT     H256938   4.161   6.321   2.171 -1.8777 -0.0026 -1.1729
13783WAT    EPW56939   4.162   6.390   2.224 -0.7586 -0.3610 -0.7086
13784WAT      O56940   4.821   1.322   2.830 -0.2093  0.3933  0.4873
13784WAT     H156941   4.816   1.384   2.757  0.0749  0.5542  0.6050
13784WAT     H256942   4.834   1.376   2.907  0.6016  0.1556  0.5245
13784WAT    EPW56943   4.822   1.337   2.830 -0.0648  0.3831  0.5077
13785WAT      O56944   4.125   4.792   2.307 -0.4565  0.6999 -0.2246
13785WAT     H156945   4.177   4.829   2.378 -0.3788 -0.0748  0.1334
13785WAT     H256946   4.171   4.818   2.228 -0.8421  2.0466 -0.0397
13785WAT    EPW56947   4.138   4.801   2.306 -0.4969  0.7756 -0.1531
13786WAT      O56948   4.667   7.209   5.697  0.4216 -0.0171 -0.4739
13786WAT     H156949   4.686   7.267   5.623 -1.0028  1.1120 -0.0098
13786WAT     H256950   4.572   7.217   5.709  0.2470 -2.1421 -0.1144
13786WAT    EPW56951   4.657   7.218   5.689  0.2108 -0.1483 -0.3653
13787WAT      O56952  -0.520   0.777   3.644  0.6027  0.2685 -0.4204
13787WAT     H156953  -0.444   0.800   3.590  1.2152  0.4091  0.4695
13787WAT     H256954  -0.508   0.685   3.665 -1.0023 -0.5166 -2.6362
13787WAT    EPW56955  -0.508   0.768   3.640  0.4718  0.1835 -0.5953
13788WAT      O56956  -2.982   9.142   1.441 -0.2353 -0.1806 -0.2610
13788WAT     H156957  -2.902   9.105   1.403 -0.6997 -0.3590 -1.0947
13788WAT     H256958  -3.037   9.162   1.365 -0.7272  0.5344  0.2735
13788WAT    EPW56959  -2.979   9.140   1.426 -0.3613 -0.1092 -0.3005
13789WAT      O56960   3.333   2.377   7.146  0.0852 -0.0318  0.5808
13789WAT     H156961   3.248   2.409   7.116 -1.2911 -0.6695  3.4498
13789WAT     H256962   3.366   2.447   7.202  1.3353  0.0703 -0.2577
13789WAT    EPW56963   3.326   2.390   7.149  0.0684 -0.1025  0.8485
13790WAT      O56964  -0.380   4.289   7.244  0.0936 -0.3647 -0.2403
13790WAT     H156965  -0.437   4.326   7.176 -1.5709 -1.1377  0.6455
13790WAT     H256966  -0.357   4.202   7.211  3.6267  1.0883 -2.1127
13790WAT    EPW56967  -0.385   4.282   7.231  0.3401 -0.2749 -0.3705
13791WAT      O56968   1.287   1.303   8.110 -0.4651  0.7634 -0.0208
13791WAT     H156969   1.220   1.340   8.167  0.9127 -0.3093  2.4421
13791WAT     H256970   1.367   1.350   8.133  0.6075 -1.2971  0.7001
13791WAT    EPW56971   1.289   1.314   8.121 -0.1420  0.3502  0.3991
13792WAT      O56972  -2.419   7.982   3.177  0.3703 -0.0850  0.4946
13792WAT     H156973  -2.346   7.953   3.232  3.5531  0.0438 -3.2556
13792WAT     H256974  -2.456   8.057   3.224  0.0068 -2.3824  4.3592
13792WAT    EPW56975  -2.414   7.988   3.191  0.7422 -0.3710  0.5097
13793WAT      O56976   6.956   6.435   2.827 -0.3568 -0.1372 -0.4754
13793WAT     H156977   6.990   6.430   2.738 -0.6029 -0.3914 -0.5554
13793WAT     H256978   6.907   6.518   2.829 -0.0694  0.0350 -0.4746
13793WAT    EPW56979   6.954   6.446   2.816 -0.3514 -0.1481 -0.4859
13794WAT      O56980  -2.523   0.347   5.657  0.1207  0.3814 -0.4993
13794WAT     H156981  -2.608   0.374   5.622 -0.2748  0.4614  0.4611
13794WAT     H256982  -2.511   0.404   5.734 -0.4010 -1.6126  1.1580
13794WAT    EPW56983  -2.533   0.358   5.663 -0.0004  0.1290 -0.1540
13795WAT      O56984  -2.386  10.130   5.970 -0.1216  0.1747 -0.7410
13795WAT     H156985  -2.342  10.170   5.894  2.4449 -0.1418  0.4648
13795WAT     H256986  -2.409  10.042   5.940  2.4324 -0.5854 -0.7516
13795WAT    EPW56987  -2.383  10.124   5.956  0.5538  0.0324 -0.5834
13796WAT      O56988   2.824   0.993   4.318  0.0165 -0.7926 -0.5646
13796WAT     H156989   2.848   0.917   4.264 -1.3629  0.3957 -3.0125
13796WAT     H256990   2.748   1.030   4.274  0.4049  1.7888  0.7843
13796WAT    EPW56991   2.817   0.988   4.305 -0.1143 -0.2954 -0.7095
13797WAT      O56992   4.697  10.305   0.074  0.5311  0.9504 -0.2110
13797WAT     H156993   4.696  10.318  -0.021 -1.9245 -1.3167 -0.6142
13797WAT     H256994   4.610  10.331   0.103  0.1335 -1.3600  0.8817
13797WAT    EPW56995   4.686  10.310   0.065  0.1547  0.3467 -0.1200
13798WAT      O56996   2.458   2.970   3.372  0.5486 -0.4056  0.2099
13798WAT     H156997   2.458   2.906   3.443 -1.6891  0.1631  0.8128
13798WAT     H256998   2.548   3.003   3.369  1.4118 -2.5815  0.7673
13798WAT    EPW56999   2.469   2.966   3.381  0.3673 -0.6176  0.3629
13799WAT      O57000   7.272   5.926   2.262  0.0880  0.0332 -0.0450
13799WAT     H157001   7.352   5.969   2.293  0.9890 -2.3970  1.3647
13799WAT     H257002   7.300   5.879   2.183  1.2968 -3.8245  2.3633
13799WAT    EPW57003   7.287   5.925   2.256  0.3662 -0.7961  0.4585
13800WAT      O57004   4.147   4.074   2.392  0.0904 -0.4920 -0.4657
13800WAT     H157005   4.190   4.159   2.390  2.4635 -1.5798  0.6049
13800WAT     H257006   4.081   4.081   2.461  0.2339  0.4652 -0.4160
13800WAT    EPW57007   4.144   4.086   2.401  0.4222 -0.5090 -0.3179
13801WAT      O57008   6.770   7.998   0.047  0.0949  0.2887  0.4878
13801WAT     H157009   6.802   7.914   0.080  1.1315  0.3385 -0.3220
13801WAT     H257010   6.789   7.995  -0.047 -1.3099  0.7933  0.1663
13801WAT    EPW57011   6.777   7.987   0.039  0.0465  0.3617  0.3386
13802WAT      O57012  -2.509   2.944   8.346 -0.1967 -0.7982  0.2161
13802WAT     H157013  -2.431   2.995   8.369  0.2402 -1.1368 -0.4843
13802WAT     H257014  -2.505   2.868   8.405 -0.9082  0.0068  1.3351
13802WAT    EPW57015  -2.498   2.940   8.357 -0.2329 -0.7367  0.2713
13803WAT      O57016  -2.629   5.975   6.540 -0.3707  0.3168  0.1394
13803WAT     H157017  -2.541   5.970   6.576 -1.0810 -0.3126  1.9300
13803WAT     H257018  -2.651   6.069   6.543  0.3213  0.5049 -0.5710
13803WAT    EPW57019  -2.621   5.987   6.545 -0.3730  0.2587  0.2818
13804WAT      O57020   7.536   1.143   3.808  0.7263  0.0634  0.0558
13804WAT     H157021   7.484   1.191   3.873 -2.1883 -2.3425 -0.3030
13804WAT     H257022   7.565   1.064   3.855 -2.0639 -2.0962 -1.5423
13804WAT    EPW57023   7.533   1.139   3.823 -0.0260 -0.5388 -0.2023
13805WAT      O57024  -0.130   3.076   0.907  0.3836  0.8428 -0.3336
13805WAT     H157025  -0.060   3.013   0.886  0.2439  0.4321  0.3695
13805WAT     H257026  -0.118   3.094   1.001 -0.8334  0.2734 -0.0494
13805WAT    EPW57027  -0.119   3.070   0.917  0.2046  0.7136 -0.2034
13806WAT      O57028  -0.297   0.116   3.898 -0.5301 -0.1257  0.1767
13806WAT     H157029  -0.304   0.164   3.980  1.2375 -0.9886  0.8899
13806WAT     H257030  -0.382   0.072   3.889 -0.6950 -0.1766  1.6697
13806WAT    EPW57031  -0.309   0.116   3.908 -0.3187 -0.2462  0.4677
13807WAT      O57032   2.968   4.443   7.911  0.1521 -0.5155 -0.3711
13807WAT     H157033   3.041   4.381   7.905 -0.2134 -0.9571 -0.2740
13807WAT     H257034   2.892   4.388   7.929 -0.2676 -0.0867 -0.8352
13807WAT    EPW57035   2.968   4.427   7.913  0.0485 -0.5171 -0.4191
13808WAT      O57036  -1.731   9.500   2.633 -0.0179 -0.6263  0.1137
13808WAT     H157037  -1.681   9.476   2.556 -0.1356  0.2240 -0.2453
13808WAT     H257038  -1.718   9.595   2.641 -1.2892 -0.4344  0.2005
13808WAT    EPW57039  -1.723   9.510   2.624 -0.2010 -0.4892  0.0778
13809WAT      O57040  -0.410   3.131   6.075  0.5278 -0.5936 -0.0648
13809WAT     H157041  -0.498   3.126   6.111  0.4473  2.3101  0.3557
13809WAT     H257042  -0.355   3.088   6.141 -0.3851 -1.1562  0.3440
13809WAT    EPW57043  -0.414   3.124   6.089  0.3968 -0.2848  0.0446
13810WAT      O57044  -2.712   7.194   5.356  0.1095  0.2693 -0.5022
13810WAT     H157045  -2.725   7.167   5.446  1.2658  1.1717 -0.0383
13810WAT     H257046  -2.678   7.117   5.312  0.6702  0.1589  0.1203
13810WAT    EPW57047  -2.709   7.181   5.362  0.3361  0.3738 -0.3591
13811WAT      O57048  -1.198   2.967   3.090 -0.1964 -0.0200  0.5530
13811WAT     H157049  -1.211   2.956   2.996 -0.1080 -0.0413  0.5425
13811WAT     H257050  -1.118   3.019   3.097 -1.0560  1.3306  0.5903
13811WAT    EPW57051  -1.189   2.972   3.078 -0.2981  0.1553  0.5566
13812WAT      O57052  -6.061   9.501   8.030 -0.2114  0.1341  0.4680
13812WAT     H157053  -6.145   9.514   8.075  0.5541  0.4832  1.8508
13812WAT     H257054  -6.000   9.476   8.100  0.8846  0.0460 -0.4910
13812WAT    EPW57055  -6.064   9.499   8.045  0.0341  0.1683  0.5240
13813WAT      O57056   1.221   5.192   2.365 -0.5480 -0.7145  0.0417
13813WAT     H157057   1.208   5.153   2.452 -0.7931 -0.6388  0.0407
13813WAT     H257058   1.138   5.236   2.346  0.8122  2.7909  1.5006
13813WAT    EPW57059   1.208   5.192   2.374 -0.4010 -0.2422  0.2339
13814WAT      O57060  -3.727   7.190   5.891 -0.1615  0.3088 -0.0104
13814WAT     H157061  -3.657   7.255   5.902 -0.5818  0.5968  1.1615
13814WAT     H257062  -3.683   7.106   5.898 -0.0904  0.4769  2.2218
13814WAT    EPW57063  -3.712   7.188   5.894 -0.2075  0.3691  0.4387
13815WAT      O57064   1.414   1.146   8.738  0.4495  0.1634 -0.1389
13815WAT     H157065   1.351   1.118   8.672 -1.1149  0.5035  1.1450
13815WAT     H257066   1.481   1.078   8.737 -1.1960 -1.5510  0.1390
13815WAT    EPW57067   1.415   1.134   8.729  0.0261 -0.0179  0.0668
13816WAT      O57068   6.718   8.223   1.190 -0.1460 -0.2730 -0.1330
13816WAT     H157069   6.671   8.306   1.196  1.7040  0.8627 -0.5795
13816WAT     H257070   6.799   8.244   1.144  0.8856 -2.1044  0.7110
13816WAT    EPW57071   6.723   8.237   1.185  0.2341 -0.3643 -0.0806
13817WAT      O57072   1.741   5.038   8.563 -0.7126 -0.0676 -0.0982
13817WAT     H157073   1.777   5.094   8.494 -2.4272  1.3525  0.0909
13817WAT     H257074   1.808   5.039   8.632 -0.4075  1.1827 -0.3971
13817WAT    EPW57075   1.755   5.045   8.563 -0.8985  0.2844 -0.1125
13818WAT      O57076   5.356   2.792   1.652  0.6824 -0.9498 -0.3309
13818WAT     H157077   5.338   2.698   1.641 -0.0271 -1.0432  1.3093
13818WAT     H257078   5.280   2.836   1.613  1.1498 -1.0272 -1.3599
13818WAT    EPW57079   5.344   2.785   1.645  0.6504 -0.9724 -0.2503
13819WAT      O57080   5.366   9.417   0.058 -0.1708  0.4783 -0.5034
13819WAT     H157081   5.454   9.414   0.097  0.3209  0.1456 -1.6077
13819WAT     H257082   5.312   9.457   0.126  0.2599 -1.7281  1.2533
13819WAT    EPW57083   5.371   9.422   0.072 -0.0491  0.1435 -0.4174
13820WAT      O57084  -4.785   5.141   8.143  0.6214  0.4030 -0.5880
13820WAT     H157085  -4.851   5.077   8.118  0.9138 -0.6026  1.0860
13820WAT     H257086  -4.768   5.190   8.063 -1.9821  0.5750 -1.1201
13820WAT    EPW57087  -4.791   5.139   8.129  0.3169  0.2928 -0.4377
13821WAT      O57088   3.324   0.821   0.236  0.7871 -0.2042 -0.2869
13821WAT     H157089   3.366   0.901   0.269  3.1132 -0.9330 -1.2499
13821WAT     H257090   3.370   0.750   0.281 -0.2760 -1.0490 -0.4945
13821WAT    EPW57091   3.336   0.822   0.247  0.9538 -0.4118 -0.4413
13822WAT      O57092   0.284   2.199   5.987 -0.0109 -0.3218  0.3471
13822WAT     H157093   0.273   2.252   5.908 -0.3549 -1.7654 -0.6226
13822WAT     H257094   0.194   2.179   6.015  0.1062  0.3496  1.2370
13822WAT    EPW57095   0.271   2.203   5.981 -0.0408 -0.4237  0.3366
13823WAT      O57096   2.969   7.268   0.873  0.0727  0.0623 -0.0266
13823WAT     H157097   2.943   7.232   0.788 -1.4393  3.0835 -0.9684
13823WAT     H257098   3.064   7.280   0.865 -0.2206  1.7522 -1.9966
13823WAT    EPW57099   2.978   7.265   0.861 -0.1653  0.6835 -0.4106
13824WAT      O57100  -4.804   1.817   8.716  0.1162 -0.0579  0.0581
13824WAT     H157101  -4.716   1.828   8.753  0.0801 -0.5007  0.2885
13824WAT     H257102  -4.862   1.865   8.775  0.0544 -0.7914  0.6082
13824WAT    EPW57103  -4.800   1.825   8.728  0.1032 -0.2130  0.1612
13825WAT      O57104   6.150   6.983   0.040 -0.5986  0.1197  0.0344
13825WAT     H157105   6.191   7.041   0.105  1.2001 -2.1526  1.0688
13825WAT     H257106   6.105   6.916   0.092 -0.0448 -1.1267 -1.0416
13825WAT    EPW57107   6.150   6.982   0.056 -0.2882 -0.3445  0.0289
13826WAT      O57108   5.976   5.127   4.026  0.1603  0.0005 -0.0671
13826WAT     H157109   5.969   5.066   4.100 -0.5382 -1.3875 -1.2184
13826WAT     H257110   5.898   5.108   3.973  0.9016  0.6049 -1.4081
13826WAT    EPW57111   5.965   5.116   4.029  0.1659 -0.1028 -0.3958
13827WAT      O57112   5.437   2.140   0.558 -0.2824 -0.8147  0.7392
13827WAT     H157113   5.406   2.210   0.616 -3.1400  1.0487 -2.6554
13827WAT     H257114   5.368   2.074   0.561 -0.2748 -0.8763 -0.2052
13827WAT    EPW57115   5.424   2.140   0.566 -0.6583 -0.5771  0.1670
13828WAT      O57116  -0.018   2.388   1.486 -0.6622  0.4477  0.4044
13828WAT     H157117  -0.020   2.478   1.517  1.0642  0.7328 -0.2148
13828WAT     H257118   0.074   2.371   1.466 -0.6609 -1.9531  1.9566
13828WAT    EPW57119  -0.006   2.397   1.488 -0.4343  0.1687  0.5274
13829WAT      O57120   3.007   8.438   0.466  0.7439  0.0661  0.4673
13829WAT     H157121   2.931   8.442   0.524  0.4056  0.5589  0.0012
13829WAT     H257122   3.004   8.351   0.428 -1.6563  1.1436 -2.2285
13829WAT    EPW57123   2.997   8.427   0.469  0.3827  0.2737  0.0503
13830WAT      O57124  -2.087   4.517   4.446  0.0143  0.1707 -0.0847
13830WAT     H157125  -2.109   4.607   4.422  0.9056  0.4522  0.1216
13830WAT     H257126  -2.138   4.500   4.526 -1.2284 -0.0032 -0.8891
13830WAT    EPW57127  -2.097   4.526   4.454 -0.0319  0.1848 -0.1636
13831WAT      O57128   6.214   2.824   2.844 -0.1723  0.3518 -0.6882
13831WAT     H157129   6.206   2.865   2.758 -1.5949 -1.6169 -1.5809
13831WAT     H257130   6.301   2.786   2.844  0.2650  1.3201 -0.7855
13831WAT    EPW57131   6.224   2.825   2.833 -0.3021  0.2198 -0.8187
13832WAT      O57132  -3.653   1.929   5.106  0.2744  0.4700  0.3663
13832WAT     H157133  -3.600   1.862   5.061 -0.2058  0.5270 -0.3127
13832WAT     H257134  -3.595   1.966   5.172  0.6105 -0.4925  0.6267
13832WAT    EPW57135  -3.639   1.925   5.108  0.2555  0.3505  0.3109
13833WAT      O57136  -5.319   7.470   8.877  0.7419 -0.0538  0.5089
13833WAT     H157137  -5.341   7.563   8.889 -0.8220 -0.5172  1.4956
13833WAT     H257138  -5.403   7.427   8.865  0.8468 -1.9819  4.8404
13833WAT    EPW57139  -5.333   7.477   8.877  0.5496 -0.3691  1.2102
13834WAT      O57140   6.164   1.281   2.659 -0.0075 -0.4270 -0.2784
13834WAT     H157141   6.147   1.215   2.592 -1.2775 -0.1203 -0.2934
13834WAT     H257142   6.154   1.233   2.742  1.9392 -0.8966 -0.2586
13834WAT    EPW57143   6.160   1.266   2.661  0.0815 -0.4485 -0.2778
13835WAT      O57144   0.725   7.032   5.665  0.4626 -0.3072  0.6016
13835WAT     H157145   0.727   6.950   5.715 -1.4773  0.3439  1.8592
13835WAT     H257146   0.715   7.100   5.732  0.6648  0.8513 -0.5194
13835WAT    EPW57147   0.724   7.030   5.681  0.2334 -0.0684  0.6196
13836WAT      O57148  -1.563   6.016   4.405 -0.4770 -0.0154 -0.1890
13836WAT     H157149  -1.562   6.101   4.449  1.0890 -0.4472  0.7247
13836WAT     H257150  -1.655   5.992   4.400 -1.0232  2.0916 -1.2355
13836WAT    EPW57151  -1.575   6.024   4.410 -0.3425  0.2058 -0.2062
13837WAT      O57152   4.012   2.784   7.126  0.6353  0.5233 -0.0063
13837WAT     H157153   4.095   2.814   7.088 -0.6716  0.7176 -3.0020
13837WAT     H257154   3.996   2.844   7.199  2.6274  1.0947  0.0195
13837WAT    EPW57155   4.021   2.796   7.130  0.7257  0.6243 -0.3979
13838WAT      O57156  -4.499   8.690   3.056  0.1221  0.3853  0.2333
13838WAT     H157157  -4.404   8.683   3.049  0.2012  0.8242  0.8610
13838WAT     H257158  -4.527   8.602   3.082  0.2836  0.0730 -0.6142
13838WAT    EPW57159  -4.490   8.677   3.058  0.1538  0.4020  0.2043
13839WAT      O57160  -2.950   0.828   5.437 -0.6242 -0.0586 -0.0692
13839WAT     H157161  -3.021   0.838   5.374 -2.4600 -2.9046  1.3128
13839WAT     H257162  -2.901   0.751   5.407  0.0338  0.0963  0.5681
13839WAT    EPW57163  -2.953   0.819   5.425 -0.7796 -0.4136  0.1972
13840WAT      O57164  -2.069   2.582   8.431  0.0341  0.2122 -0.8600
13840WAT     H157165  -2.028   2.639   8.366  0.8144  1.1767  0.4227
13840WAT     H257166  -2.052   2.625   8.515 -1.5187 -0.6376 -0.0524
13840WAT    EPW57167  -2.062   2.595   8.433 -0.0678  0.2273 -0.5841
13841WAT      O57168  -3.401   8.761   7.091 -0.2212  0.5137  0.2742
13841WAT     H157169  -3.483   8.722   7.121 -0.7411  1.6708  0.3947
13841WAT     H257170  -3.369   8.810   7.166  2.5495 -2.8152  1.5707
13841WAT    EPW57171  -3.407   8.762   7.104  0.0758  0.2275  0.4611
13842WAT      O57172   0.177   2.935   4.426  0.0690  0.2048 -0.2706
13842WAT     H157173   0.186   2.961   4.517 -0.1051  1.5128 -0.6183
13842WAT     H257174   0.257   2.886   4.407 -0.3789 -1.0622  0.8737
13842WAT    EPW57175   0.189   2.932   4.436 -0.0131  0.2102 -0.1655
13843WAT      O57176  -2.123   0.691   4.488  0.0820 -0.3658  0.7014
13843WAT     H157177  -2.164   0.777   4.496 -0.2348 -0.4077 -0.3165
13843WAT     H257178  -2.040   0.700   4.535  1.6367  1.5756 -2.0946
13843WAT    EPW57179  -2.117   0.703   4.495  0.2452 -0.1152  0.1981
13844WAT      O57180  -3.609   8.299   2.091 -0.9308 -0.1307 -0.2089
13844WAT     H157181  -3.680   8.362   2.095  0.7016  1.7144  1.6217
13844WAT     H257182  -3.571   8.299   2.179  1.4088 -0.9323 -1.1276
13844WAT    EPW57183  -3.613   8.307   2.103 -0.4069  0.0072 -0.0887
13845WAT      O57184   6.553   7.119   0.253 -0.5238  0.2271 -0.1147
13845WAT     H157185   6.601   7.136   0.172 -0.5466  1.3015  0.0744
13845WAT     H257186   6.497   7.044   0.234 -0.0403  0.0608 -0.8822
13845WAT    EPW57187   6.552   7.111   0.240 -0.4632  0.3471 -0.1910
13846WAT      O57188   0.793   1.633   0.137 -0.0085 -0.3939  0.3589
13846WAT     H157189   0.850   1.703   0.169  0.2589 -1.3798  2.1237
13846WAT     H257190   0.853   1.570   0.096 -0.0340 -0.5251  0.5228
13846WAT    EPW57191   0.808   1.634   0.136  0.0234 -0.5413  0.6133
13847WAT      O57192  -0.992   6.519   1.997  0.2916  0.1228  0.0334
13847WAT     H157193  -1.025   6.598   1.956 -2.4350 -1.8430 -1.9351
13847WAT     H257194  -0.907   6.504   1.955  0.3819  1.4138 -0.2855
13847WAT    EPW57195  -0.985   6.527   1.986 -0.0561  0.0339 -0.2683
13848WAT      O57196   5.049   1.938   6.544 -0.0618 -0.1307  0.5164
13848WAT     H157197   4.976   1.966   6.489 -0.2049 -1.8240 -0.2070
13848WAT     H257198   5.055   2.006   6.611 -2.1962  0.1563  0.4962
13848WAT    EPW57199   5.040   1.951   6.546 -0.3622 -0.3161  0.4182
13849WAT      O57200  -1.793   3.078   5.645 -1.1726 -0.3625 -0.0154
13849WAT     H157201  -1.839   3.114   5.721 -0.7723 -0.3530  0.2288
13849WAT     H257202  -1.725   3.143   5.627  0.1843 -1.4202  1.0229
13849WAT    EPW57203  -1.790   3.092   5.653 -0.9408 -0.5008  0.1535
13850WAT      O57204   6.787   6.356   2.132 -0.9655  0.2057 -0.1631
13850WAT     H157205   6.831   6.401   2.204  2.0181 -1.4096 -0.8174
13850WAT     H257206   6.788   6.264   2.157 -0.9456 -0.2484 -1.7195
13850WAT    EPW57207   6.793   6.350   2.145 -0.5693 -0.0672 -0.4547
13851WAT      O57208   1.915   0.017   1.095 -0.3522 -0.3328 -0.2401
13851WAT     H157209   1.838   0.052   1.050  0.5837  4.0769  1.1134
13851WAT     H257210   1.985   0.079   1.075  1.1345 -0.4148  3.7067
13851WAT    EPW57211   1.914   0.030   1.087 -0.0327  0.2380  0.4590
13852WAT      O57212   0.939   6.640   1.125  0.2674 -0.2249 -0.1132
13852WAT     H157213   0.986   6.685   1.195 -1.5033  0.1278  0.9184
13852WAT     H257214   0.855   6.616   1.164 -0.2154 -1.2869 -1.7095
13852WAT    EPW57215   0.934   6.643   1.140 -0.0298 -0.3183 -0.1877
13853WAT      O57216  -1.204   7.046   4.149  0.5047  0.0310  0.2379
13853WAT     H157217  -1.196   6.974   4.212  0.6136 -0.6326 -0.5239
13853WAT     H257218  -1.118   7.087   4.150  0.1446  0.8140  1.4362
13853WAT    EPW57219  -1.192   7.042   4.157  0.4716  0.0467  0.2956
13854WAT      O57220   3.099   9.508   0.769 -0.6582 -0.0617 -0.0862
13854WAT     H157221   3.177   9.526   0.820  0.4479  0.1395 -1.7689
13854WAT     H257222   3.057   9.435   0.815  1.7761 -1.7857 -0.3556
13854WAT    EPW57223   3.104   9.501   0.782 -0.1913 -0.2623 -0.3436
13855WAT      O57224   0.037   4.038   3.228 -0.0006  0.4753  0.1045
13855WAT     H157225   0.080   3.985   3.162  1.3854  0.7357  0.7540
13855WAT     H257226   0.109   4.080   3.276 -0.9848  1.0550  1.1395
13855WAT    EPW57227   0.052   4.036   3.226  0.0524  0.5860  0.3268
13856WAT      O57228   1.332   1.910   3.701  0.1873 -0.2629  0.6231
13856WAT     H157229   1.307   1.818   3.700 -0.1368 -0.2059  1.8038
13856WAT     H257230   1.344   1.931   3.794 -1.2118  1.2567  0.5160
13856WAT    EPW57231   1.330   1.901   3.713 -0.0400 -0.0550  0.7647
13857WAT      O57232  -5.875   7.737   7.192 -0.5028  0.4989  0.2528
13857WAT     H157233  -5.859   7.804   7.126  0.3453 -1.7547 -1.9971
13857WAT     H257234  -5.802   7.744   7.253  0.2617  0.7784 -0.6832
13857WAT    EPW57235  -5.863   7.747   7.191 -0.2902  0.2387 -0.1674
13858WAT      O57236   1.214   1.030   2.754  0.1743  0.1874  0.5354
13858WAT     H157237   1.276   1.073   2.813 -0.3834 -1.5378  2.4751
13858WAT     H257238   1.267   0.966   2.707  0.7486  1.9882 -1.4282
13858WAT    EPW57239   1.229   1.028   2.755  0.1765  0.1974  0.5322
13859WAT      O57240   2.772  10.177   7.026 -0.9715 -0.1342  0.2687
13859WAT     H157241   2.767  10.106   7.091 -1.0335 -0.3832 -0.0031
13859WAT     H257242   2.861  10.173   6.992 -0.8896  0.1007  0.4541
13859WAT    EPW57243   2.783  10.167   7.030 -0.9689 -0.1364  0.2575
13860WAT      O57244  -0.630   1.241   4.656  0.7204  0.6221  0.4978
13860WAT     H157245  -0.587   1.165   4.617 -0.8076  0.4050 -0.8922
13860WAT     H257246  -0.708   1.206   4.699  0.1186  1.3474  0.0341
13860WAT    EPW57247  -0.635   1.226   4.656  0.4395  0.6891  0.2534
13861WAT      O57248   4.006   1.974   3.743  0.6097 -0.4804  0.4637
13861WAT     H157249   4.092   1.942   3.718  0.5026  0.2968 -0.9932
13861WAT     H257250   3.944   1.915   3.700  0.3629  2.4165 -3.8241
13861WAT    EPW57251   4.009   1.962   3.734  0.5629  0.0042 -0.2940
13862WAT      O57252  -5.900   9.787   8.048  0.1332 -0.2382  0.3324
13862WAT     H157253  -5.943   9.854   7.994 -0.9801  0.6784  2.2265
13862WAT     H257254  -5.941   9.705   8.022 -0.2605  0.1573 -0.3226
13862WAT    EPW57255  -5.911   9.785   8.037 -0.0656 -0.0653  0.4954
13863WAT      O57256   7.205   3.776   1.797 -0.4656 -0.7558 -0.2553
13863WAT     H157257   7.193   3.771   1.892 -1.6447  0.4323 -0.3016
13863WAT     H257258   7.147   3.848   1.770 -1.8499 -2.4722 -2.1443
13863WAT    EPW57259   7.196   3.785   1.806 -0.8037 -0.8255 -0.5106
13864WAT      O57260   1.005   1.263   7.008 -0.6573  0.7478  0.0386
13864WAT     H157261   1.007   1.261   6.913  1.1649  0.1589  0.0558
13864WAT     H257262   0.981   1.174   7.033  1.3014  0.1858  0.1057
13864WAT    EPW57263   1.002   1.251   6.999 -0.1586  0.5960  0.0498
13865WAT      O57264   3.189   0.443   1.736 -0.6517 -0.5347  0.4452
13865WAT     H157265   3.232   0.474   1.815  5.1032 -2.0750 -1.5664
13865WAT     H257266   3.158   0.355   1.758 -0.1729 -0.4932  1.3024
13865WAT    EPW57267   3.191   0.435   1.749  0.1705 -0.7324  0.2930
13866WAT      O57268   8.938   2.151   1.916 -0.4173 -0.4522  0.9114
13866WAT     H157269   9.013   2.097   1.939 -0.5095 -0.1710  1.9125
13866WAT     H257270   8.892   2.100   1.849  0.6681 -0.6062  0.2500
13866WAT    EPW57271   8.942   2.137   1.910 -0.2861 -0.4354  0.9562
13867WAT      O57272  -0.259   1.900   0.307  0.0153 -0.0631 -0.1780
13867WAT     H157273  -0.322   1.913   0.236 -0.6150 -1.4643  0.0912
13867WAT     H257274  -0.196   1.837   0.272  1.9569  2.1448 -0.8418
13867WAT    EPW57275  -0.259   1.893   0.293  0.1882  0.0433 -0.2301
13868WAT      O57276   6.666   3.864   2.212  0.0020 -0.0598 -0.4875
13868WAT     H157277   6.721   3.801   2.258  0.0730  0.5137  0.2274
13868WAT     H257278   6.687   3.850   2.119  0.2261 -0.8824 -0.3202
13868WAT    EPW57279   6.676   3.854   2.206  0.0410 -0.0926 -0.3712
13869WAT      O57280  -0.016   7.337   0.991 -0.4934  0.6117  0.8493
13869WAT     H157281   0.009   7.253   0.953 -1.0397  1.6361 -2.0607
13869WAT     H257282  -0.091   7.316   1.048 -1.2705 -0.7825 -0.5922
13869WAT    EPW57283  -0.023   7.323   0.994 -0.6679  0.5629  0.2753
13870WAT      O57284   3.511   5.681   3.426  0.1006 -0.1636 -0.4142
13870WAT     H157285   3.520   5.732   3.507  1.4226 -2.3975  0.9395
13870WAT     H257286   3.596   5.638   3.415 -0.5814 -1.1720 -2.1332
13870WAT    EPW57287   3.524   5.682   3.435  0.1850 -0.5913 -0.4624
13871WAT      O57288   4.949   5.030   0.281 -0.0579 -0.2721 -0.3847
13871WAT     H157289   4.858   5.015   0.304 -0.0760 -0.5598 -0.6434
13871WAT     H257290   4.947   5.056   0.189  0.1904 -1.0686 -0.6221
13871WAT    EPW57291   4.937   5.032   0.272 -0.0277 -0.4148 -0.4501
13872WAT      O57292  -1.545   6.785   6.053  0.0666  0.2066 -0.0464
13872WAT     H157293  -1.574   6.876   6.043  0.7559  0.7353  2.1983
13872WAT     H257294  -1.625   6.736   6.069 -0.2642  0.4842 -0.8051
13872WAT    EPW57295  -1.559   6.791   6.054  0.1139  0.3128  0.1497
13873WAT      O57296  -2.297   9.454   4.332 -0.2420  0.1533 -0.0844
13873WAT     H157297  -2.273   9.426   4.420 -0.3027  1.0410  0.2178
13873WAT     H257298  -2.375   9.402   4.311  0.2817 -0.7057  0.0236
13873WAT    EPW57299  -2.304   9.443   4.341 -0.1808  0.1569 -0.0303
13874WAT      O57300   1.318   0.324   1.638  0.1458 -0.0449  0.2032
13874WAT     H157301   1.268   0.283   1.708  0.1069 -1.4659 -0.6228
13874WAT     H257302   1.252   0.368   1.584  0.2354  1.6656  1.3778
13874WAT    EPW57303   1.303   0.325   1.640  0.1525 -0.0067  0.2491
13875WAT      O57304   0.957   1.409   3.941 -0.2934  0.4966  0.0423
13875WAT     H157305   0.864   1.420   3.925  0.0481  1.9213 -1.2034
13875WAT     H257306   0.994   1.497   3.932  1.1423  0.0051  0.7555
13875WAT    EPW57307   0.950   1.422   3.937 -0.0590  0.6196 -0.0279
13876WAT      O57308   2.993   0.817   4.152  0.6243  0.4873 -0.2331
13876WAT     H157309   2.905   0.824   4.113  0.4551  0.8932  0.2151
13876WAT     H257310   3.049   0.868   4.093 -0.0789  3.3660  1.4015
13876WAT    EPW57311   2.989   0.825   4.139  0.5093  0.9205  0.0417
13877WAT      O57312  -6.962   9.623   6.116 -0.5397 -0.5805  0.4278
13877WAT     H157313  -6.880   9.655   6.153 -0.8491 -0.3214  0.9012
13877WAT     H257314  -6.956   9.641   6.023  0.0682 -0.8355  0.4144
13877WAT    EPW57315  -6.951   9.629   6.109 -0.5002 -0.5798  0.4883
13878WAT      O57316   8.265   1.396   2.228 -0.4236  0.6993 -0.3639
13878WAT     H157317   8.329   1.410   2.298 -1.4815 -0.4895  0.9349
13878WAT     H257318   8.222   1.313   2.253 -1.7745  0.9616 -1.6999
13878WAT    EPW57319   8.268   1.387   2.241 -0.7410  0.5772 -0.3688
13879WAT      O57320  -0.853   9.771   1.642  0.2012 -0.3898  0.2842
13879WAT     H157321  -0.895   9.734   1.565 -2.5154  0.7805  1.0734
13879WAT     H257322  -0.823   9.858   1.614 -1.5968  0.4152  0.6593
13879WAT    EPW57323  -0.855   9.778   1.628 -0.3943 -0.1292  0.4377
13880WAT      O57324  -0.739  -0.000   1.780 -0.3508 -0.1484 -0.3321
13880WAT     H157325  -0.726   0.080   1.831  1.1596 -1.7130  1.9221
13880WAT     H257326  -0.652  -0.022   1.747 -1.1051  0.1860 -2.7143
13880WAT    EPW57327  -0.726   0.007   1.782 -0.2511 -0.3104 -0.3490
13881WAT      O57328  -1.083  10.290   5.755 -0.5286 -0.2023  0.2087
13881WAT     H157329  -1.100  10.302   5.849 -3.4010  0.7891 -0.3571
13881WAT     H257330  -1.077  10.195   5.744  0.3577 -0.3198  1.4292
13881WAT    EPW57331  -1.084  10.279   5.766 -0.7906 -0.0868  0.2949
13882WAT      O57332   3.657   2.624   8.058  0.8698 -0.1311  0.4136
13882WAT     H157333   3.623   2.627   8.147 -0.6107 -1.2129 -0.0766
13882WAT     H257334   3.632   2.537   8.026  0.5747  0.5585 -1.3585
13882WAT    EPW57335   3.649   2.613   8.065  0.6356 -0.1829  0.1154
13883WAT      O57336  -0.118   0.352   6.607  0.0862 -0.3619  0.0491
13883WAT     H157337  -0.064   0.289   6.561 -1.4353 -0.3941 -1.8471
13883WAT     H257338  -0.058   0.422   6.633  1.5600 -1.9086  1.0333
13883WAT    EPW57339  -0.103   0.353   6.605  0.0799 -0.5701 -0.0713
13884WAT      O57340   2.724   1.758   6.048 -0.0001 -0.4363 -0.0189
13884WAT     H157341   2.770   1.841   6.060 -0.4113 -0.4028  1.5618
13884WAT     H257342   2.638   1.773   6.087  0.7291 -2.2967  2.5572
13884WAT    EPW57343   2.719   1.771   6.055  0.0418 -0.6773  0.5295
13885WAT      O57344   1.821   9.902   2.860  0.1973  0.3617  0.3932
13885WAT     H157345   1.895   9.871   2.808  1.4904  0.8734  1.8482
13885WAT     H257346   1.830   9.858   2.945 -2.8956 -1.8768 -0.2635
13885WAT    EPW57347   1.832   9.892   2.865 -0.0401  0.1345  0.4984
13886WAT      O57348  -2.193   1.902   4.065 -0.1688  0.2574  0.7863
13886WAT     H157349  -2.281   1.878   4.094 -0.4033  1.5499  1.2217
13886WAT     H257350  -2.179   1.990   4.101 -0.1197  1.6247 -2.2843
13886WAT    EPW57351  -2.203   1.910   4.074 -0.1932  0.6082  0.4389
13887WAT      O57352  -1.293   2.335   6.443  0.1262  0.3154  0.3348
13887WAT     H157353  -1.385   2.352   6.425  0.2780  0.3850 -0.4150
13887WAT     H257354  -1.246   2.393   6.383  0.6499 -0.8850 -0.4591
13887WAT    EPW57355  -1.299   2.345   6.433  0.2152  0.1662  0.1314
13888WAT      O57356  -0.121   8.660   3.263 -0.7440 -0.0036 -0.0346
13888WAT     H157357  -0.182   8.640   3.192 -0.2722 -0.6057 -0.2804
13888WAT     H257358  -0.034   8.658   3.221 -0.5694  1.2841  0.2095
13888WAT    EPW57359  -0.117   8.657   3.248 -0.6588  0.0868 -0.0348
13889WAT      O57360  -0.049   9.022   0.935 -0.5473 -0.2507  0.1162
13889WAT     H157361  -0.065   9.056   0.847  2.9921 -0.0199 -0.6089
13889WAT     H257362   0.020   9.079   0.970  1.4355 -3.0801  1.1433
13889WAT    EPW57363  -0.042   9.034   0.928  0.1810 -0.5932  0.1560
13890WAT      O57364   6.964   3.377   0.592 -0.1169 -0.0513 -0.5152
13890WAT     H157365   6.923   3.385   0.506 -1.4051 -0.7756  0.0018
13890WAT     H257366   7.037   3.317   0.579 -1.0857 -1.1942 -0.8680
13890WAT    EPW57367   6.968   3.370   0.579 -0.4148 -0.2975 -0.4936
13891WAT      O57368   6.704   5.376   0.926 -0.2432  0.3191 -0.1621
13891WAT     H157369   6.671   5.418   0.847 -2.9768  0.6729  1.0453
13891WAT     H257370   6.789   5.341   0.901 -0.6481  1.1139 -3.0036
13891WAT    EPW57371   6.711   5.377   0.913 -0.6571  0.4706 -0.3776
13892WAT      O57372   4.507   3.604   0.435  0.3139  0.3599 -0.4190
13892WAT     H157373   4.415   3.621   0.413 -0.0073  0.5939  0.9761
13892WAT     H257374   4.546   3.573   0.354 -0.8625  0.8217 -1.1857
13892WAT    EPW57375   4.500   3.602   0.422  0.1166  0.4516 -0.3361
13893WAT      O57376   0.332   2.698   5.264 -0.3686 -0.5427  0.0495
13893WAT     H157377   0.299   2.609   5.280 -2.1660  0.3236  1.5349
13893WAT     H257378   0.413   2.685   5.216  0.6994 -3.1293  2.3038
13893WAT    EPW57379   0.338   2.684   5.260 -0.4648 -0.7696  0.5426
13894WAT      O57380  -0.204   9.706   4.999  0.2964 -0.0262 -0.0427
13894WAT     H157381  -0.219   9.791   4.959  0.2525 -0.8890 -1.9778
13894WAT     H257382  -0.291   9.677   5.026  0.3454  0.6278  0.8648
13894WAT    EPW57383  -0.217   9.713   4.997  0.2970 -0.0534 -0.1783
13895WAT      O57384   1.000   9.933   6.384 -0.8862  0.2820  0.4944
13895WAT     H157385   1.079   9.987   6.388 -1.1224  0.5842  1.3547
13895WAT     H257386   1.023   9.861   6.325 -0.6841  1.4956 -0.9622
13895WAT    EPW57387   1.014   9.930   6.377 -0.8907  0.4821  0.4158
13896WAT      O57388  -6.254   4.990   7.771 -0.1204 -0.2637  0.7910
13896WAT     H157389  -6.300   5.049   7.830 -1.7778 -0.3812 -0.3163
13896WAT     H257390  -6.206   5.048   7.711 -1.3522 -0.0124  0.0132
13896WAT    EPW57391  -6.254   5.006   7.771 -0.5016 -0.2460  0.5426
13897WAT      O57392   5.304   1.462   2.644 -0.0294 -0.2823  0.1127
13897WAT     H157393   5.222   1.510   2.643  0.6934  1.0948 -1.9817
13897WAT     H257394   5.371   1.530   2.634  1.1009 -1.5727 -1.9355
13897WAT    EPW57395   5.302   1.477   2.643  0.2148 -0.2709 -0.4337
13898WAT      O57396  -3.455   0.668   8.167  1.0995 -0.1785 -0.1089
13898WAT     H157397  -3.549   0.648   8.162  1.0057 -0.6774  2.3948
13898WAT     H257398  -3.442   0.735   8.100 -0.8715 -0.6485 -1.0557
13898WAT    EPW57399  -3.466   0.674   8.157  0.8271 -0.3063  0.0968
13899WAT      O57400   1.473   8.720   8.189 -0.6028 -0.2050 -0.7417
13899WAT     H157401   1.396   8.762   8.228 -1.3004 -0.6338 -1.5954
13899WAT     H257402   1.444   8.630   8.172 -0.1830 -0.1596 -1.7905
13899WAT    EPW57403   1.459   8.714   8.192 -0.6394 -0.2551 -0.9923
13900WAT      O57404   3.102   9.866   3.607 -0.2573 -0.2947  0.2420
13900WAT     H157405   3.103   9.773   3.589  2.8285 -0.0924 -1.2053
13900WAT     H257406   3.068   9.873   3.697  0.3669 -2.8894  0.7462
13900WAT    EPW57407   3.098   9.855   3.617  0.2321 -0.6104  0.1175
13901WAT      O57408  -0.854   0.819   7.939 -0.3268  0.1847  0.5964
13901WAT     H157409  -0.820   0.907   7.926 -0.8542 -0.0389 -3.8825
13901WAT     H257410  -0.779   0.762   7.922 -0.5833 -0.2552  0.9208
13901WAT    EPW57411  -0.839   0.823   7.935 -0.4302  0.0972  0.0484
13902WAT      O57412  -0.016   0.641   0.527  0.1134 -0.2468 -0.0861
13902WAT     H157413   0.031   0.707   0.577 -1.0394  0.5790 -0.0380
13902WAT     H257414  -0.041   0.575   0.591  0.0097  0.0109  0.1406
13902WAT    EPW57415  -0.013   0.641   0.542 -0.0523 -0.1039 -0.0499
13903WAT      O57416   2.577   8.847   1.401  0.0891  0.4265 -0.5461
13903WAT     H157417   2.497   8.894   1.378  0.0159 -0.2191 -1.7003
13903WAT     H257418   2.648   8.910   1.385 -0.0074  0.1808 -2.0699
13903WAT    EPW57419   2.576   8.861   1.396  0.0666  0.3090 -0.8993
13904WAT      O57420   3.416   3.444   0.442 -0.5504  0.0890 -0.2351
13904WAT     H157421   3.430   3.438   0.348 -1.5245  0.6772 -0.4366
13904WAT     H257422   3.425   3.354   0.474 -3.5994 -0.7896 -1.4401
13904WAT    EPW57423   3.419   3.432   0.434 -1.0809  0.0508 -0.4206
13905WAT      O57424   4.600   2.621   8.848 -0.0601  0.4486 -0.0321
13905WAT     H157425   4.651   2.542   8.868  0.1947  0.7655  0.6030
13905WAT     H257426   4.521   2.612   8.900  0.0998  0.7452  0.2660
13905WAT    EPW57427   4.597   2.609   8.857 -0.0055  0.5295  0.0906
13906WAT      O57428   4.582   0.407   3.781  0.5865 -0.4654 -0.3044
13906WAT     H157429   4.557   0.479   3.840  1.1611  0.1580 -0.7995
13906WAT     H257430   4.577   0.445   3.693  0.3296 -1.2108 -0.6180
13906WAT    EPW57431   4.578   0.422   3.777  0.6285 -0.4815 -0.4110
13907WAT      O57432  -4.368   9.522   5.659 -0.4477 -0.2631  0.0429
13907WAT     H157433  -4.325   9.474   5.589 -1.0211  0.4530 -0.8287
13907WAT     H257434  -4.350   9.614   5.640  1.7855 -0.0928  2.4333
13907WAT    EPW57435  -4.360   9.528   5.648 -0.2286 -0.1464  0.2432
13908WAT      O57436   1.001   8.348   0.203 -0.0167  0.1159 -0.0071
13908WAT     H157437   1.036   8.409   0.268  2.3842 -2.0663  0.9401
13908WAT     H257438   1.052   8.364   0.124  0.4249 -0.4357  0.1587
13908WAT    EPW57439   1.012   8.358   0.201  0.3582 -0.2451  0.1397
13909WAT      O57440  -2.461   5.265   5.458  0.5927  0.3903 -0.1833
13909WAT     H157441  -2.374   5.289   5.491  0.1256 -1.0846  2.4182
13909WAT     H257442  -2.507   5.231   5.535 -2.1668  0.7047 -1.5681
13909WAT    EPW57443  -2.456   5.264   5.473  0.1671  0.2370 -0.0229
13910WAT      O57444  -1.646   4.004   1.831  0.4328  0.4488 -0.0665
13910WAT     H157445  -1.654   3.962   1.746  1.1032  0.3280 -0.0785
13910WAT     H257446  -1.579   3.952   1.877  0.0142  0.4560  0.5652
13910WAT    EPW57447  -1.638   3.992   1.826  0.4660  0.4339  0.0152
13911WAT      O57448  -2.638   4.721   7.459 -0.3915 -0.1536 -0.1052
13911WAT     H157449  -2.688   4.797   7.491  0.4739  0.1567  0.5660
13911WAT     H257450  -2.704   4.661   7.426 -1.0993  0.8785 -0.6054
13911WAT    EPW57451  -2.653   4.723   7.459 -0.3709  0.0236 -0.0825
13912WAT      O57452  -3.127   6.067   7.644  0.2424  0.6091  0.3299
13912WAT     H157453  -3.216   6.049   7.674  0.6450  1.1301  1.9135
13912WAT     H257454  -3.088   5.980   7.634 -1.2335  0.1917 -3.1534
13912WAT    EPW57455  -3.134   6.053   7.647  0.1010  0.6227  0.0792
13913WAT      O57456   5.180   6.770   3.047  0.2383 -0.5639 -0.0913
13913WAT     H157457   5.100   6.820   3.035  0.0838 -0.8730 -0.3975
13913WAT     H257458   5.167   6.722   3.129  0.5122  0.1229  0.3551
13913WAT    EPW57459   5.168   6.770   3.056  0.2539 -0.5140 -0.0727
13914WAT      O57460   0.097   5.461   6.703  0.4348  0.3129 -0.4481
13914WAT     H157461   0.061   5.380   6.739 -1.6371 -0.4193 -3.6497
13914WAT     H257462   0.191   5.453   6.714  0.0967 -0.6384  2.8070
13914WAT    EPW57463   0.104   5.449   6.709  0.1170  0.0908 -0.4408
13915WAT      O57464  -2.084   8.952   8.314  0.5029  0.4865  0.7505
13915WAT     H157465  -2.064   8.866   8.277 -2.3032 -0.9097  2.1358
13915WAT     H257466  -2.158   8.983   8.263  3.6581  4.0034 -2.2225
13915WAT    EPW57467  -2.091   8.944   8.303  0.5490  0.7668  0.5412
13916WAT      O57468  -1.759   3.679   6.256  0.2358 -0.3209  0.7863
13916WAT     H157469  -1.735   3.616   6.324  1.5111 -1.3712 -0.5724
13916WAT     H257470  -1.676   3.720   6.231 -0.2817  0.3862  0.1780
13916WAT    EPW57471  -1.745   3.676   6.262  0.3358 -0.3662  0.5267
13917WAT      O57472   5.919   3.431   6.115  0.2514  0.2910  0.2345
13917WAT     H157473   5.852   3.381   6.068  2.7902 -1.3488 -1.9764
13917WAT     H257474   5.985   3.366   6.139  1.9576  2.0546  0.5888
13917WAT    EPW57475   5.919   3.416   6.112  0.8113  0.3073 -0.0105
13918WAT      O57476  -2.715   9.037   4.857  0.0155 -0.3599 -0.4389
13918WAT     H157477  -2.641   8.986   4.825  0.8788  0.4538  0.2393
13918WAT     H257478  -2.735   8.999   4.943 -0.4117 -0.6259 -0.6508
13918WAT    EPW57479  -2.708   9.025   4.864  0.0730 -0.2871 -0.3777
13919WAT      O57480   2.222   1.618   3.860 -0.1709  0.4649 -0.0418
13919WAT     H157481   2.246   1.530   3.888  1.7551  1.1881  0.7900
13919WAT     H257482   2.306   1.660   3.839 -1.0662  2.0098 -0.6589
13919WAT    EPW57483   2.236   1.612   3.861 -0.0349  0.7640 -0.0134
13920WAT      O57484   3.889   2.901   3.375 -0.6568 -0.0675  0.6157
13920WAT     H157485   3.929   2.981   3.410 -2.1529  0.0559  2.1959
13920WAT     H257486   3.954   2.832   3.393  0.9199  0.8113 -1.3133
13920WAT    EPW57487   3.903   2.902   3.382 -0.6461  0.0647  0.5696
13921WAT      O57488   0.772   6.922   2.942  0.3858 -0.4833 -0.2334
13921WAT     H157489   0.725   6.846   2.909  0.0603 -0.2631 -0.2860
13921WAT     H257490   0.831   6.947   2.871  1.1249 -1.2068  0.1103
13921WAT    EPW57491   0.774   6.916   2.928  0.4403 -0.5498 -0.1951
13922WAT      O57492  -5.202  10.048   5.171  0.5802  0.9635 -0.1653
13922WAT     H157493  -5.253  10.022   5.094 -1.2266  0.3685  1.1661
13922WAT     H257494  -5.162   9.967   5.201  1.0330  1.1371 -0.3009
13922WAT    EPW57495  -5.204  10.034   5.165  0.4017  0.9074 -0.0074
13923WAT      O57496   4.673   6.516   1.514  0.3711 -0.2859  0.3044
13923WAT     H157497   4.758   6.539   1.476  0.9847 -1.8537  0.6549
13923WAT     H257498   4.694   6.466   1.593 -0.8936  0.7780  1.3776
13923WAT    EPW57499   4.687   6.512   1.519  0.2851 -0.3524  0.4922
13924WAT      O57500  -1.263   0.999   8.103 -1.0231  0.3091 -0.1492
13924WAT     H157501  -1.238   0.916   8.061 -1.6548 -0.5248  1.0646
13924WAT     H257502  -1.278   0.976   8.194 -1.1673  1.7901  0.2253
13924WAT    EPW57503  -1.262   0.985   8.109 -1.1255  0.3945  0.0601
13925WAT      O57504   1.468   1.151   5.293 -0.3911 -0.1127  0.0847
13925WAT     H157505   1.466   1.134   5.199 -0.6070  2.3255 -0.4015
13925WAT     H257506   1.380   1.184   5.313  0.3873  1.7005  0.6435
13925WAT    EPW57507   1.456   1.153   5.283 -0.3169  0.4480  0.0942
13926WAT      O57508   3.331   3.441   0.856 -0.6418  0.0276  0.5008
13926WAT     H157509   3.383   3.507   0.811 -1.3452  0.8442  0.8426
13926WAT     H257510   3.322   3.370   0.793 -0.6683  0.6718 -0.2315
13926WAT    EPW57511   3.336   3.440   0.842 -0.7380  0.2203  0.4493
13927WAT      O57512   5.199   2.460   1.888  0.1568 -0.7816 -0.3469
13927WAT     H157513   5.122   2.509   1.859  0.9378 -0.4328 -1.9666
13927WAT     H257514   5.227   2.504   1.968 -0.6369 -0.1799 -0.3868
13927WAT    EPW57515   5.192   2.472   1.895  0.1552 -0.6562 -0.5657
13928WAT      O57516   2.855   7.311   7.582 -1.9197 -0.6238  0.3524
13928WAT     H157517   2.808   7.321   7.665 -3.0966 -0.5653 -0.3050
13928WAT     H257518   2.798   7.351   7.517 -0.2663  0.8156 -0.2785
13928WAT    EPW57519   2.841   7.318   7.585 -1.8568 -0.4263  0.1824
13929WAT      O57520   3.395   4.583   8.589  0.6341  0.1450  0.8858
13929WAT     H157521   3.364   4.522   8.656  2.2776 -0.9533  0.7217
13929WAT     H257522   3.392   4.669   8.631  0.4688 -0.3574  1.9439
13929WAT    EPW57523   3.391   4.586   8.603  0.8290 -0.0663  1.0037
13930WAT      O57524   1.312   9.380   0.036  0.9372 -0.5095  0.0714
13930WAT     H157525   1.311   9.434  -0.044 -1.1673  1.6100  1.3929
13930WAT     H257526   1.397   9.336   0.034  1.7006  0.8723 -2.4110
13930WAT    EPW57527   1.323   9.382   0.025  0.7604 -0.0477 -0.0817
13931WAT      O57528   1.958   3.344   1.811 -0.9547  0.0306  0.2162
13931WAT     H157529   1.940   3.337   1.717  0.9797 -1.1964 -0.1116
13931WAT     H257530   2.040   3.297   1.824 -0.4628  1.3197  2.3217
13931WAT    EPW57531   1.966   3.337   1.800 -0.6347  0.0389  0.4507
13932WAT      O57532   1.414   2.527   2.710  0.2038 -0.0899 -0.2494
13932WAT     H157533   1.328   2.566   2.726  0.0629 -0.6049  0.2591
13932WAT     H257534   1.436   2.553   2.620  0.2466  1.4279  0.1648
13932WAT    EPW57535   1.406   2.536   2.700  0.1909  0.0423 -0.1277
13933WAT      O57536   1.449   9.174   0.856  0.4110  0.3610  0.4308
13933WAT     H157537   1.365   9.175   0.810  0.4204  2.4226  0.3856
13933WAT     H257538   1.461   9.082   0.881 -1.0084 -0.2868 -1.0728
13933WAT    EPW57539   1.440   9.162   0.853  0.2251  0.5479  0.2265
13934WAT      O57540   2.768   6.612   0.711  0.1307 -0.0586 -0.4510
13934WAT     H157541   2.798   6.641   0.797  0.8127  0.1952 -0.7627
13934WAT     H257542   2.828   6.541   0.687  1.2073  1.1694 -1.5470
13934WAT    EPW57543   2.780   6.607   0.719  0.3628  0.1371 -0.6367
13935WAT      O57544  -0.935   8.228   2.770 -0.3103  0.1015 -0.2515
13935WAT     H157545  -0.975   8.209   2.685 -0.4162 -1.6598  0.1441
13935WAT     H257546  -0.998   8.284   2.815  0.4861  2.4515 -1.9174
13935WAT    EPW57547  -0.948   8.233   2.765 -0.2192  0.1793 -0.4189
13936WAT      O57548   2.698   0.830   2.773  0.3850 -0.8799  0.3622
13936WAT     H157549   2.656   0.746   2.790 -0.8385 -0.1601  0.9865
13936WAT     H257550   2.727   0.860   2.859  2.2719 -1.3722 -0.0514
13936WAT    EPW57551   2.696   0.823   2.786  0.4725 -0.8499  0.3901
13937WAT      O57552   0.786   7.850   7.829  0.1795 -0.2891 -0.2289
13937WAT     H157553   0.778   7.826   7.736  0.4373 -0.4769 -0.2055
13937WAT     H257554   0.706   7.898   7.848 -0.5180 -1.4150 -0.2043
13937WAT    EPW57555   0.775   7.853   7.819  0.1215 -0.4625 -0.2224
13938WAT      O57556   6.320   0.678   0.480 -0.8860  0.1136  0.4817
13938WAT     H157557   6.280   0.625   0.411  0.8471  0.4911 -0.9124
13938WAT     H257558   6.409   0.694   0.448 -0.0330  0.3912  2.7882
13938WAT    EPW57559   6.327   0.673   0.467 -0.5450  0.2000  0.6020
13939WAT      O57560  -4.422   4.859   8.756 -0.3306  0.6826 -0.0021
13939WAT     H157561  -4.417   4.899   8.843  0.4996 -0.6488  0.6004
13939WAT     H257562  -4.341   4.809   8.748 -0.4446  0.6720 -1.5129
13939WAT    EPW57563  -4.410   4.858   8.766 -0.2363  0.5054 -0.1221
13940WAT      O57564   0.388   2.612   0.432  0.3013  0.4812 -0.1799
13940WAT     H157565   0.450   2.605   0.505 -0.6979  0.9700  0.7428
13940WAT     H257566   0.438   2.583   0.356  1.3389 -0.1730  0.7089
13940WAT    EPW57567   0.403   2.607   0.432  0.3064  0.4593  0.0590
13941WAT      O57568   0.914   6.515   5.167 -0.2113 -0.3253  0.0360
13941WAT     H157569   0.974   6.482   5.100  0.4317 -1.1241  0.9808
13941WAT     H257570   0.903   6.608   5.145  2.5877  0.2350  0.6768
13941WAT    EPW57571   0.920   6.523   5.155  0.2427 -0.3567  0.2451
13942WAT      O57572  -2.360   1.982   8.953  0.2385  0.7347 -0.2355
13942WAT     H157573  -2.453   1.960   8.950  0.5816 -0.8712 -3.6876
13942WAT     H257574  -2.334   1.990   8.861  4.0942 -1.6698  0.4088
13942WAT    EPW57575  -2.369   1.980   8.940  0.7923  0.2057 -0.6061
13943WAT      O57576   2.358   7.414   6.406 -0.4507  0.0937 -0.0560
13943WAT     H157577   2.281   7.362   6.427 -1.3460  0.9564 -1.0799
13943WAT     H257578   2.413   7.409   6.485 -1.9790  0.2307  1.0627
13943WAT    EPW57579   2.355   7.407   6.419 -0.7703  0.2255 -0.0434
13944WAT      O57580   4.610   4.003   7.566  0.5244 -0.3208  1.0724
13944WAT     H157581   4.592   3.919   7.523 -1.6021  0.5989  0.0039
13944WAT     H257582   4.626   4.063   7.493 -0.4911  0.7118  1.6753
13944WAT    EPW57583   4.610   4.000   7.551  0.1099 -0.0634  1.0109
13945WAT      O57584   2.288   3.080   4.125  0.2724 -0.8074  0.2491
13945WAT     H157585   2.250   3.164   4.100 -0.8156 -1.0006  1.2040
13945WAT     H257586   2.288   3.080   4.220  2.8732 -0.7560  0.3040
13945WAT    EPW57587   2.283   3.091   4.134  0.4719 -0.8261  0.3822
13946WAT      O57588   3.058   2.480   7.049 -0.3691 -0.2357 -0.7461
13946WAT     H157589   2.985   2.435   7.092  0.4354 -0.7444  0.1237
13946WAT     H257590   3.059   2.567   7.088 -0.0081 -0.5031 -0.1461
13946WAT    EPW57591   3.049   2.485   7.060 -0.2153 -0.3381 -0.5522
13947WAT      O57592  -1.892   9.570   0.235 -0.2377 -1.0637 -0.7985
13947WAT     H157593  -1.860   9.483   0.257  0.4844 -0.7734 -0.6605
13947WAT     H257594  -1.826   9.605   0.176 -1.0236 -0.9785 -1.6533
13947WAT    EPW57595  -1.879   9.563   0.230 -0.2462 -1.0138 -0.8931
13948WAT      O57596  -0.099   4.328   1.657  0.4412  0.0329  0.1788
13948WAT     H157597  -0.093   4.356   1.566 -0.3776 -1.2305 -0.2772
13948WAT     H257598  -0.060   4.401   1.706  1.1567  0.6089 -1.1792
13948WAT    EPW57599  -0.093   4.341   1.652  0.4276 -0.0579 -0.0604
13949WAT      O57600  -1.324   3.761   8.744 -0.0407 -0.4879  0.3204
13949WAT     H157601  -1.359   3.794   8.662  1.1179 -1.4068 -0.5742
13949WAT     H257602  -1.355   3.823   8.810 -1.1323  0.1631 -0.7749
13949WAT    EPW57603  -1.333   3.774   8.742 -0.0319 -0.5232  0.0582
13950WAT      O57604   2.173   8.247   1.410 -0.6700 -0.4630 -0.9185
13950WAT     H157605   2.156   8.332   1.449 -0.3022 -0.9412  0.3422
13950WAT     H257606   2.117   8.244   1.332 -0.0086  1.2677 -1.5127
13950WAT    EPW57607   2.163   8.258   1.405 -0.5343 -0.2980 -0.8306
13951WAT      O57608   1.780   5.468   3.088  0.1410 -0.0999  0.0405
13951WAT     H157609   1.786   5.554   3.128  0.4794  0.1911 -0.6186
13951WAT     H257610   1.736   5.414   3.154  0.2176  0.4899  0.5856
13951WAT    EPW57611   1.775   5.472   3.102  0.1957  0.0162  0.0255
13952WAT      O57612  -0.974   7.488   1.814  0.3082 -0.1552 -0.0516
13952WAT     H157613  -0.913   7.418   1.788 -0.0639 -0.3047 -0.5375
13952WAT     H257614  -0.967   7.552   1.743  0.0314 -0.0883 -0.0163
13952WAT    EPW57615  -0.965   7.487   1.801  0.2227 -0.1662 -0.1110
13953WAT      O57616  -5.811   7.617   6.079 -0.6323  1.0533  0.6219
13953WAT     H157617  -5.876   7.685   6.097  0.7334  2.7397 -0.4784
13953WAT     H257618  -5.829   7.591   5.988 -0.4150  0.8066  0.6475
13953WAT    EPW57619  -5.822   7.622   6.069 -0.4234  1.2431  0.4799
13954WAT      O57620   0.706   6.932   2.152 -0.4835 -0.3587  0.5424
13954WAT     H157621   0.683   6.908   2.062 -2.4719 -1.7325  1.3356
13954WAT     H257622   0.745   6.853   2.189  0.5659  0.2775  0.8578
13954WAT    EPW57623   0.708   6.919   2.145 -0.6073 -0.4559  0.6887
13955WAT      O57624  -0.601   5.564   5.621 -0.0618 -0.2645  0.1496
13955WAT     H157625  -0.608   5.485   5.567  1.0036  0.5184 -1.1838
13955WAT     H257626  -0.653   5.544   5.699  1.8015 -3.0895  0.8258
13955WAT    EPW57627  -0.609   5.551   5.624  0.3245 -0.5336  0.0629
13956WAT      O57628   6.791   0.802   5.981 -0.2121  0.4474 -0.0461
13956WAT     H157629   6.810   0.720   5.936 -0.1395 -0.0269  0.8162
13956WAT     H257630   6.825   0.870   5.923 -0.1283 -0.1365 -0.6960
13956WAT    EPW57631   6.798   0.801   5.968 -0.1912  0.3078 -0.0179
13957WAT      O57632   1.124   3.802   7.537  0.2467 -0.5193 -0.1536
13957WAT     H157633   1.053   3.866   7.528 -0.2457 -0.9408  0.6685
13957WAT     H257634   1.190   3.848   7.589  0.4797 -0.2225 -0.6931
13957WAT    EPW57635   1.123   3.817   7.543  0.2125 -0.5357 -0.1163
13958WAT      O57636   1.495   0.140   7.561  0.2031  0.7421  0.4695
13958WAT     H157637   1.458   0.090   7.634  1.1055 -1.2532 -0.3757
13958WAT     H257638   1.517   0.074   7.495  2.1056  2.1759 -0.4330
13958WAT    EPW57639   1.493   0.124   7.562  0.5730  0.6680  0.2389
13959WAT      O57640   3.645   9.533   2.173 -0.2324  0.6042 -0.5793
13959WAT     H157641   3.727   9.494   2.144 -0.8647  1.1402 -3.3631
13959WAT     H257642   3.669   9.623   2.198  0.1849  0.4313 -0.3422
13959WAT    EPW57643   3.659   9.540   2.173 -0.2607  0.6523 -0.9152
13960WAT      O57644   4.412   2.360   0.988 -0.0395 -0.2479  0.0109
13960WAT     H157645   4.348   2.357   1.060  0.9407  1.4952  1.0134
13960WAT     H257646   4.422   2.268   0.962 -1.4412 -0.7798  1.1600
13960WAT    EPW57647   4.405   2.347   0.994 -0.0951 -0.0881  0.2947
13961WAT      O57648   5.318   0.304   5.424 -0.3468 -0.0502 -0.2294
13961WAT     H157649   5.326   0.239   5.494 -0.4705  0.0953 -0.0786
13961WAT     H257650   5.226   0.298   5.397 -0.9983  1.6453  1.3531
13961WAT    EPW57651   5.307   0.295   5.430 -0.4492  0.1926 -0.0007
13962WAT      O57652  -2.064   3.780   3.825 -0.6330 -0.3225  0.6325
13962WAT     H157653  -2.012   3.764   3.904 -0.3318  2.4897  1.1026
13962WAT     H257654  -2.024   3.725   3.758  0.8807 -0.6671  1.7725
13962WAT    EPW57655  -2.052   3.771   3.827 -0.3936  0.0030  0.8448
13963WAT      O57656   0.863   2.288   1.537 -0.4644 -0.1589  0.6159
13963WAT     H157657   0.775   2.281   1.573 -0.0520 -1.8931  1.4126
13963WAT     H257658   0.862   2.232   1.459 -0.2803  0.4391  0.1805
13963WAT    EPW57659   0.851   2.279   1.532 -0.3858 -0.3088  0.6636
13964WAT      O57660  -1.881   3.717   5.894  0.1376  0.2578 -0.2905
13964WAT     H157661  -1.912   3.629   5.875  3.7772 -1.3857  0.6770
13964WAT     H257662  -1.873   3.758   5.807 -2.7410  0.2123 -0.6830
13964WAT    EPW57663  -1.884   3.711   5.880  0.2380  0.0349 -0.2146
13965WAT      O57664  -1.112   7.261   8.735 -0.0976 -0.1388  0.0404
13965WAT     H157665  -1.143   7.231   8.820  0.5404  1.1336  0.7453
13965WAT     H257666  -1.169   7.334   8.713  0.5149  0.3180 -0.0455
13965WAT    EPW57667  -1.123   7.266   8.743  0.0673  0.0894  0.1225
13966WAT      O57668   3.029   1.626   3.484 -0.4390  0.1008  0.2005
13966WAT     H157669   3.043   1.593   3.395 -0.9486  0.4970 -0.0275
13966WAT     H257670   3.067   1.558   3.541  2.3353  1.0235 -0.3637
13966WAT    EPW57671   3.036   1.613   3.480 -0.1402  0.2748  0.0960
13967WAT      O57672   4.040   2.671   5.355 -0.2562  0.0532 -0.8148
13967WAT     H157673   4.082   2.673   5.270  1.7357 -2.0406  0.0122
13967WAT     H257674   4.033   2.577   5.377  1.1137  0.5179  2.1190
13967WAT    EPW57675   4.044   2.659   5.347  0.1872 -0.1616 -0.3185
13968WAT      O57676   4.491   0.040   8.198 -0.6423 -0.0328 -0.0834
13968WAT     H157677   4.413   0.087   8.169 -0.2757 -0.0761 -1.1997
13968WAT     H257678   4.497   0.058   8.292 -0.5768  2.0735 -0.4426
13968WAT    EPW57679   4.482   0.049   8.206 -0.5853  0.2393 -0.2780
13969WAT      O57680   0.647   9.703   7.262 -0.9267 -0.3065  0.7206
13969WAT     H157681   0.679   9.613   7.267 -1.3928 -0.4772  0.6137
13969WAT     H257682   0.706   9.752   7.319 -0.8642 -0.7306  1.0256
13969WAT    EPW57683   0.659   9.698   7.270 -0.9799 -0.3848  0.7467
13970WAT      O57684   7.960   2.121   2.688 -0.0929  0.0833  0.8738
13970WAT     H157685   7.969   2.039   2.735  0.1183 -0.7910 -0.6366
13970WAT     H257686   7.874   2.116   2.647  0.4088  0.0569 -0.2120
13970WAT    EPW57687   7.950   2.110   2.689  0.0014 -0.0355  0.5313
13971WAT      O57688   2.394   7.433   1.345  0.1531 -0.4144 -0.1196
13971WAT     H157689   2.464   7.464   1.404  0.6456  0.4817 -1.1336
13971WAT     H257690   2.414   7.475   1.261 -1.7649  0.0759 -0.3670
13971WAT    EPW57691   2.406   7.443   1.342 -0.0349 -0.2315 -0.2859
13972WAT      O57692   6.218   0.031   5.387  0.6957 -0.2146 -0.0500
13972WAT     H157693   6.182   0.004   5.302  2.7324 -1.3301 -0.6108
13972WAT     H257694   6.142   0.064   5.435 -0.6354 -0.2006 -2.0399
13972WAT    EPW57695   6.203   0.032   5.382  0.7889 -0.3598 -0.3865
13973WAT      O57696   1.514   8.435   0.470 -0.2467  0.0478 -0.3285
13973WAT     H157697   1.483   8.521   0.441 -0.9438 -0.4129 -0.9887
13973WAT     H257698   1.469   8.421   0.553  0.3083  0.5568  0.0703
13973WAT    EPW57699   1.504   8.445   0.477 -0.2654  0.0544 -0.3629
13974WAT      O57700   7.012   0.848   0.601 -0.3530 -0.5298 -0.0960
13974WAT     H157701   7.044   0.758   0.600  1.6686  0.1328 -0.8717
13974WAT     H257702   7.077   0.896   0.653  0.6692  1.0948 -2.6838
13974WAT    EPW57703   7.025   0.843   0.608  0.0484 -0.2281 -0.5396
13975WAT      O57704  -3.688   9.151   3.107  0.2708 -0.0848 -0.0275
13975WAT     H157705  -3.641   9.094   3.046  0.4197 -0.4203  0.3948
13975WAT     H257706  -3.673   9.239   3.074  2.7494 -0.0018  1.1048
13975WAT    EPW57707  -3.680   9.155   3.094  0.6174 -0.1183  0.1775
13976WAT      O57708  -2.918   7.324   2.077 -0.2817  0.2873  0.2763
13976WAT     H157709  -2.971   7.313   2.155 -0.0405  1.5556  0.6319
13976WAT     H257710  -2.840   7.371   2.107  0.2513 -0.0363 -0.5518
13976WAT    EPW57711  -2.914   7.329   2.091 -0.1795  0.4117  0.2141
13977WAT      O57712   1.019   7.975   2.433 -0.1787  0.1613  0.3558
13977WAT     H157713   1.073   8.054   2.436  1.1006 -0.6264 -0.8548
13977WAT     H257714   0.991   7.962   2.524  2.3711  0.1371  1.2316
13977WAT    EPW57715   1.022   7.984   2.445  0.3263  0.0541  0.3115
13978WAT      O57716   3.174   6.264   6.706  1.3694 -0.3690 -0.4270
13978WAT     H157717   3.256   6.229   6.669  1.1057 -0.0911 -1.3055
13978WAT     H257718   3.105   6.219   6.657  0.9741 -0.8448  0.5349
13978WAT    EPW57719   3.176   6.253   6.695  1.2825 -0.3953 -0.4163
13979WAT      O57720  -0.684  10.078   8.337 -0.1251 -0.2525  0.8400
13979WAT     H157721  -0.679  10.025   8.258  0.4017  1.0188 -0.0308
13979WAT     H257722  -0.623  10.036   8.399  0.7727 -0.3028 -0.0566
13979WAT    EPW57723  -0.675  10.066   8.335  0.0628 -0.0916  0.6070
13980WAT      O57724   3.248   0.608   2.240  0.6759 -0.7870  0.1277
13980WAT     H157725   3.157   0.601   2.269  0.9106 -1.3998  0.7568
13980WAT     H257726   3.246   0.584   2.147 -0.0624  1.0154 -0.3627
13980WAT    EPW57727   3.236   0.604   2.232  0.6096 -0.6301  0.1460
13981WAT      O57728   0.244   5.532   7.681  0.0505 -0.3735  0.0061
13981WAT     H157729   0.233   5.513   7.588  0.7037  0.3452 -0.2271
13981WAT     H257730   0.323   5.484   7.706  2.0577  2.3529 -0.7269
13981WAT    EPW57731   0.253   5.523   7.672  0.4014  0.0808 -0.1214
13982WAT      O57732   1.692   3.020   8.986 -0.5346  0.4408 -0.0281
13982WAT     H157733   1.734   2.963   8.921 -1.1860 -0.6918  0.5226
13982WAT     H257734   1.717   3.108   8.959  1.8280 -0.1335 -0.0028
13982WAT    EPW57735   1.701   3.024   8.974 -0.3089  0.2156  0.0477
13983WAT      O57736   1.537   0.455   1.359 -0.6536  0.2646 -0.3701
13983WAT     H157737   1.450   0.425   1.386 -0.5770 -0.3729 -0.8179
13983WAT     H257738   1.596   0.384   1.385 -0.4787 -0.0161 -1.4674
13983WAT    EPW57739   1.533   0.442   1.366 -0.6204  0.1435 -0.5739
13984WAT      O57740   2.856  10.249   4.045  0.6763  0.3834  0.2550
13984WAT     H157741   2.918  10.263   3.973 -0.7458  1.1084 -0.8984
13984WAT     H257742   2.898  10.289   4.121  1.1307  1.9098 -0.7537
13984WAT    EPW57743   2.869  10.256   4.045  0.5486  0.6804 -0.0300
13985WAT      O57744   0.094   5.237   7.865 -0.0835 -0.5066 -0.6722
13985WAT     H157745   0.002   5.263   7.866 -0.0597 -0.4128 -0.9019
13985WAT     H257746   0.096   5.157   7.919 -0.4917 -1.1358 -1.5600
13985WAT    EPW57747   0.082   5.230   7.872 -0.1342 -0.5772 -0.8197
13986WAT      O57748  -2.228   6.690   5.435 -0.0240 -0.4057 -0.4161
13986WAT     H157749  -2.228   6.594   5.438 -0.1207 -0.4908 -2.1061
13986WAT     H257750  -2.150   6.712   5.383 -1.1978  0.2978 -1.9703
13986WAT    EPW57751  -2.218   6.680   5.428 -0.1916 -0.3240 -0.8440
13987WAT      O57752   1.832   3.093   0.016  0.7620 -0.3697  0.0478
13987WAT     H157753   1.853   3.104   0.109  0.0738  2.6018 -0.0504
13987WAT     H257754   1.788   3.008   0.012 -0.7811  0.1774  2.7691
13987WAT    EPW57755   1.829   3.083   0.028  0.4678  0.0944  0.3938
13988WAT      O57756  -1.247   3.404   4.657  0.8477  0.6123  0.4942
13988WAT     H157757  -1.299   3.460   4.714  1.7537  0.7610  1.1910
13988WAT     H257758  -1.222   3.329   4.711 -0.7645 -0.7775 -0.5620
13988WAT    EPW57759  -1.251   3.401   4.671  0.7545  0.4485  0.4468
13989WAT      O57760   7.218   0.598   0.829  0.3211  0.6840 -0.4138
13989WAT     H157761   7.280   0.668   0.850  0.7724  0.3937 -0.7786
13989WAT     H257762   7.267   0.517   0.842 -0.0738  0.4418 -0.4113
13989WAT    EPW57763   7.233   0.597   0.833  0.3285  0.6138 -0.4616
13990WAT      O57764   2.263   3.329   5.255 -0.7521 -0.1885 -0.3912
13990WAT     H157765   2.195   3.266   5.278  0.2989 -0.4822  2.3216
13990WAT     H257766   2.338   3.276   5.229 -0.4023 -0.0412  0.2743
13990WAT    EPW57767   2.264   3.314   5.255 -0.5672 -0.2078  0.0544
13991WAT      O57768  -1.530   0.190   2.707 -0.2779 -0.1884  0.2984
13991WAT     H157769  -1.548   0.096   2.705 -0.3516 -0.1897 -2.5035
13991WAT     H257770  -1.469   0.201   2.780  0.7547 -2.6021 -0.1024
13991WAT    EPW57771  -1.525   0.179   2.716 -0.1515 -0.5069 -0.1240
13992WAT      O57772   0.520   7.688   1.939  0.4913 -0.2002  0.3938
13992WAT     H157773   0.503   7.597   1.964  1.7497 -1.0999 -1.6757
13992WAT     H257774   0.561   7.727   2.016 -0.7873 -1.1244  1.5910
13992WAT    EPW57775   0.523   7.681   1.952  0.4887 -0.4408  0.2788
13993WAT      O57776  -5.751   9.062   5.519 -0.3591 -0.6065 -0.1492
13993WAT     H157777  -5.823   9.013   5.480 -0.4096 -1.0271  0.4594
13993WAT     H257778  -5.743   9.027   5.608 -0.5725  0.6856  0.3914
13993WAT    EPW57779  -5.759   9.051   5.525 -0.3939 -0.4911  0.0026
13994WAT      O57780   0.702   7.214   1.939  0.6965 -0.8271  0.2574
13994WAT     H157781   0.636   7.281   1.927  0.5292 -0.8582  0.9420
13994WAT     H257782   0.773   7.238   1.880  1.2964  0.8126  1.5726
13994WAT    EPW57783   0.703   7.226   1.930  0.7536 -0.6151  0.5212
13995WAT      O57784  -2.255   8.362   7.949 -0.1256  0.4398 -0.4456
13995WAT     H157785  -2.220   8.429   8.008 -0.6436  1.2977 -1.0901
13995WAT     H257786  -2.350   8.372   7.954 -0.1830  0.7690 -1.6519
13995WAT    EPW57787  -2.263   8.372   7.957 -0.2013  0.5970 -0.6895
13996WAT      O57788   5.601   1.328   5.852 -0.9600  0.2069  0.1403
13996WAT     H157789   5.681   1.288   5.888 -2.5797 -4.1244 -0.4662
13996WAT     H257790   5.594   1.293   5.764 -3.1437  1.1071 -0.1155
13996WAT    EPW57791   5.611   1.318   5.845 -1.4617 -0.2456  0.0265
13997WAT      O57792   4.705   6.684   3.964 -0.1539  0.2795 -0.1151
13997WAT     H157793   4.786   6.699   4.012 -0.5589  0.9972  0.3715
13997WAT     H257794   4.679   6.595   3.986  0.1390  0.2926  0.2858
13997WAT    EPW57795   4.712   6.674   3.973 -0.1686  0.3757  0.0019
13998WAT      O57796   1.294   1.563   6.739  0.0714  0.0418  0.3431
13998WAT     H157797   1.357   1.491   6.742 -2.0478 -1.9290  0.9227
13998WAT     H257798   1.222   1.530   6.686 -0.3425  2.3745 -0.6744
13998WAT    EPW57799   1.293   1.549   6.733 -0.2627  0.0895  0.2854
13999WAT      O57800   2.514   0.003   0.507  0.5383 -0.3106  0.2372
13999WAT     H157801   2.477   0.082   0.468  0.0539 -0.3466  0.5994
13999WAT     H257802   2.583   0.035   0.565  0.4286 -0.1611  0.2864
13999WAT    EPW57803   2.518   0.018   0.510  0.4599 -0.2956  0.2915
14000WAT      O57804   5.271   0.583   6.284 -0.1028 -0.0085  0.4306
14000WAT     H157805   5.217   0.657   6.313 -0.4931 -0.7304  1.5999
14000WAT     H257806   5.253   0.514   6.348 -1.7589 -2.0408 -2.0246
14000WAT    EPW57807   5.261   0.584   6.296 -0.3729 -0.3718  0.2611
14001WAT      O57808  -1.960   1.212   5.708  0.4192 -0.4769 -0.1155
14001WAT     H157809  -1.950   1.155   5.784  1.6403 -2.9774 -2.0422
14001WAT     H257810  -1.870   1.230   5.680 -0.0029 -1.6630 -2.3828
14001WAT    EPW57811  -1.947   1.207   5.715  0.5246 -0.9631 -0.6685
14002WAT      O57812   5.550   2.056   0.113 -0.7899 -0.5548 -0.2709
14002WAT     H157813   5.459   2.028   0.129  0.1754 -2.6645  2.4679
14002WAT     H257814   5.583   2.078   0.200  1.1697  0.8621 -1.3076
14002WAT    EPW57815   5.542   2.055   0.127 -0.4041 -0.6462 -0.0464
14003WAT      O57816   3.397   5.898   4.432  0.1059 -1.1590  0.7397
14003WAT     H157817   3.318   5.845   4.444  0.0657 -1.0036  1.1794
14003WAT     H257818   3.419   5.887   4.340 -3.3539  2.8153 -0.8356
14003WAT    EPW57819   3.389   5.889   4.422 -0.3557 -0.6142  0.5901
14004WAT      O57820  -0.926   1.237   8.618 -0.1323 -0.2728  0.4087
14004WAT     H157821  -0.853   1.217   8.559 -0.5456  0.4339 -0.3625
14004WAT     H257822  -0.989   1.167   8.602 -0.2141 -0.1209  0.0553
14004WAT    EPW57823  -0.925   1.225   8.608 -0.1976 -0.1596  0.2604
14005WAT      O57824  -7.577   8.508   8.068 -0.3531 -0.1274  0.4236
14005WAT     H157825  -7.609   8.583   8.119 -0.2800  0.1691  0.0468
14005WAT     H257826  -7.644   8.441   8.077 -0.9285  0.3679 -0.0873
14005WAT    EPW57827  -7.590   8.509   8.076 -0.4191 -0.0234  0.3071
14006WAT      O57828   2.675   3.422   2.153 -0.1807  0.0098  0.0829
14006WAT     H157829   2.622   3.501   2.138 -0.4104 -0.0257  0.6566
14006WAT     H257830   2.614   3.360   2.193  0.1322 -0.2722  0.1286
14006WAT    EPW57831   2.660   3.424   2.156 -0.1696 -0.0321  0.1647
14007WAT      O57832   0.311   4.991   8.188 -0.8190  0.2679  0.4098
14007WAT     H157833   0.284   5.082   8.205 -0.3714  0.1280  2.0635
14007WAT     H257834   0.402   4.998   8.159 -0.2672  0.2895  2.0360
14007WAT    EPW57835   0.320   5.004   8.187 -0.6872  0.2522  0.8426
14008WAT      O57836   2.214   6.391   5.777  0.2225 -0.0545  1.0649
14008WAT     H157837   2.245   6.480   5.790  1.5634 -0.3488  0.0612
14008WAT     H257838   2.292   6.340   5.756 -0.8834 -0.7502 -1.9079
14008WAT    EPW57839   2.228   6.396   5.776  0.2536 -0.1853  0.5403
14009WAT      O57840  -2.429   0.510   5.868 -0.4406 -0.7358  0.2257
14009WAT     H157841  -2.454   0.548   5.952  0.5982 -2.6435  1.4828
14009WAT     H257842  -2.341   0.544   5.852 -1.6981  1.9812 -1.6777
14009WAT    EPW57843  -2.421   0.519   5.877 -0.4694 -0.6291  0.1407
14010WAT      O57844   0.188   0.824   0.592 -0.0569  0.7858  0.2182
14010WAT     H157845   0.211   0.787   0.507  0.8818 -0.4850  1.0005
14010WAT     H257846   0.229   0.911   0.592  0.1224  0.7055 -0.5342
14010WAT    EPW57847   0.196   0.831   0.581  0.0905  0.6076  0.2221
14011WAT      O57848   0.063   5.763   4.421  0.3110 -0.1539  0.0230
14011WAT     H157849   0.124   5.690   4.437  0.1882  0.1161  2.0174
14011WAT     H257850  -0.023   5.726   4.438  0.3072  0.6170  1.9535
14011WAT    EPW57851   0.060   5.749   4.425  0.2943 -0.0167  0.5405
14012WAT      O57852   6.173   3.546   5.813 -0.0509 -0.2828 -0.4933
14012WAT     H157853   6.081   3.560   5.792  0.1264  1.4900 -0.2093
14012WAT     H257854   6.214   3.529   5.728 -0.6699 -1.4528 -0.5835
14012WAT    EPW57855   6.166   3.545   5.799 -0.1092 -0.2033 -0.4678
14013WAT      O57856   3.607   7.150   3.422  0.2814  0.3145 -0.2054
14013WAT     H157857   3.677   7.099   3.382 -1.2059 -1.5672 -0.6159
14013WAT     H257858   3.651   7.209   3.483  2.2467 -0.1720 -1.0754
14013WAT    EPW57859   3.622   7.151   3.425  0.3445  0.0021 -0.3743
14014WAT      O57860  -2.035   9.095   4.228 -0.3212 -1.4517  0.1015
14014WAT     H157861  -2.055   9.057   4.143 -0.8592 -4.5807  1.4920
14014WAT     H257862  -1.942   9.118   4.223 -0.4687 -1.0676 -1.4397
14014WAT    EPW57863  -2.026   9.093   4.216 -0.4117 -1.8134  0.0815
14015WAT      O57864   1.014   1.168   6.701  0.2349  0.3380 -0.2316
14015WAT     H157865   1.086   1.105   6.710  0.4388  0.6305  0.2272
14015WAT     H257866   0.942   1.117   6.663  0.8740  0.1815 -1.2828
14015WAT    EPW57867   1.014   1.153   6.697  0.3461  0.3560 -0.3097
14016WAT      O57868  -1.361   8.998   6.104 -0.2171  0.3486 -0.3611
14016WAT     H157869  -1.274   9.005   6.065 -0.1086  1.3607  0.0272
14016WAT     H257870  -1.421   9.004   6.029  0.0331  0.1486 -0.5785
14016WAT    EPW57871  -1.358   9.000   6.089 -0.1698  0.4563 -0.3386
14017WAT      O57872   2.750   2.948   5.562 -0.1355 -0.0923  0.0979
14017WAT     H157873   2.810   2.949   5.487  0.9727  0.3949  0.9677
14017WAT     H257874   2.758   3.036   5.600 -1.8927  0.1966 -0.1341
14017WAT    EPW57875   2.759   2.960   5.557 -0.2211  0.0100  0.1822
14018WAT      O57876   3.339  10.196   2.017 -0.0596 -0.2612  0.3548
14018WAT     H157877   3.394  10.205   2.095 -0.2982  1.0124  0.4019
14018WAT     H257878   3.383  10.250   1.951 -0.9955  0.3998  0.2578
14018WAT    EPW57879   3.352  10.204   2.018 -0.2145 -0.0062  0.3483
14019WAT      O57880  -1.313   4.195   6.971 -0.2204  0.2505 -0.5006
14019WAT     H157881  -1.291   4.278   7.013 -0.7590  0.4370 -0.5832
14019WAT     H257882  -1.398   4.211   6.930 -0.0591 -0.1641 -1.0067
14019WAT    EPW57883  -1.321   4.208   6.971 -0.2702  0.2205 -0.5782
14020WAT      O57884   1.850   3.115   1.554  0.0825  0.2899  0.6737
14020WAT     H157885   1.773   3.104   1.610 -1.4635 -1.8839 -1.6587
14020WAT     H257886   1.917   3.061   1.596 -0.2257  0.7150  1.7514
14020WAT    EPW57887   1.849   3.106   1.567 -0.1621  0.0592  0.5082
14021WAT      O57888  -1.311   7.689   7.360  0.4553 -0.0050 -0.7847
14021WAT     H157889  -1.314   7.749   7.435  0.0648  0.3571 -1.0849
14021WAT     H257890  -1.403   7.667   7.344  0.5898 -0.6614 -0.7034
14021WAT    EPW57891  -1.324   7.694   7.368  0.4216 -0.0439 -0.8137
14022WAT      O57892   7.735   2.952   1.236  0.6218  0.1220 -0.2378
14022WAT     H157893   7.695   3.013   1.174  0.0468  0.1150  0.1189
14022WAT     H257894   7.722   2.993   1.321  1.1119 -0.0258 -0.0919
14022WAT    EPW57895   7.728   2.965   1.239  0.6106  0.1014 -0.1715
14023WAT      O57896   3.220   3.456   2.711 -0.2633  0.8674 -1.2152
14023WAT     H157897   3.183   3.520   2.771  0.9600  1.9703 -1.5790
14023WAT     H257898   3.306   3.436   2.748 -0.2654  0.1278 -1.5985
14023WAT    EPW57899   3.227   3.462   2.724 -0.1022  0.9153 -1.3137
14024WAT      O57900  -2.190   7.069   3.507  0.1231 -0.1433  0.4735
14024WAT     H157901  -2.140   7.010   3.565 -1.6812 -0.8506  1.3751
14024WAT     H257902  -2.162   7.045   3.419 -0.0822 -1.9400  0.8499
14024WAT    EPW57903  -2.179   7.058   3.503 -0.1419 -0.4737  0.6421
14025WAT      O57904   2.822   3.258   1.169 -0.0203 -0.6263  0.8100
14025WAT     H157905   2.792   3.170   1.147 -4.1726  0.2651  2.1053
14025WAT     H257906   2.811   3.265   1.264  0.1024  1.3120  0.7250
14025WAT    EPW57907   2.816   3.247   1.178 -0.5518 -0.2531  0.9696
14026WAT      O57908  -2.060   0.109   8.540 -0.3949 -0.1456 -0.6331
14026WAT     H157909  -2.065   0.195   8.499 -0.9259  0.8516  1.4149
14026WAT     H257910  -1.995   0.119   8.610 -1.5610 -0.9523  0.6064
14026WAT    EPW57911  -2.052   0.121   8.544 -0.6187 -0.1205 -0.1993
14027WAT      O57912  -1.549   7.812   4.961 -0.0850  0.4081 -0.2245
14027WAT     H157913  -1.576   7.768   4.881  2.3548  0.9280 -1.4250
14027WAT     H257914  -1.513   7.742   5.016  1.8125  0.5174 -1.2480
14027WAT    EPW57915  -1.548   7.797   4.958  0.4870  0.4911 -0.5178
14028WAT      O57916   4.390   7.874   4.649  0.2892  0.6624 -0.0257
14028WAT     H157917   4.446   7.831   4.714 -1.7006 -1.3886  0.4827
14028WAT     H257918   4.375   7.807   4.583 -0.1285  1.7451 -1.0560
14028WAT    EPW57919   4.395   7.859   4.649 -0.0284  0.5345 -0.0947
14029WAT      O57920  -2.326   0.169   5.283 -0.0940 -0.0745  0.1848
14029WAT     H157921  -2.250   0.157   5.340 -0.7455 -1.0209  0.8662
14029WAT     H257922  -2.401   0.151   5.339 -0.8007  0.1920 -0.6623
14029WAT    EPW57923  -2.326   0.165   5.298 -0.2731 -0.1642  0.1631
14030WAT      O57924   0.252   3.264   0.259 -0.0721 -0.9625 -0.5838
14030WAT     H157925   0.172   3.316   0.247  1.2550  1.0241 -1.2950
14030WAT     H257926   0.294   3.264   0.173  0.6649 -2.0574 -0.2418
14030WAT    EPW57927   0.247   3.271   0.246  0.2002 -0.8448 -0.6325
14031WAT      O57928  -1.526   6.410   5.925  0.0266  0.2817  0.4824
14031WAT     H157929  -1.521   6.317   5.944  1.6848  0.3740  0.6595
14031WAT     H257930  -1.610   6.421   5.880 -0.0324 -1.3493  0.1311
14031WAT    EPW57931  -1.536   6.399   5.921  0.2376  0.0784  0.4594
14032WAT      O57932   4.688   4.210   7.395 -0.8946  0.1720 -0.1101
14032WAT     H157933   4.731   4.225   7.479  0.2445 -0.3984 -0.5697
14032WAT     H257934   4.599   4.243   7.407  0.1079  2.9609  0.3497
14032WAT    EPW57935   4.682   4.217   7.408 -0.6120  0.4644 -0.1101
14033WAT      O57936  -2.569   6.388   2.040 -0.0999  0.2257  0.3591
14033WAT     H157937  -2.483   6.421   2.066 -0.2197  0.4860  0.4263
14033WAT     H257938  -2.594   6.444   1.966  0.4294 -0.7802 -0.5993
14033WAT    EPW57939  -2.561   6.400   2.034 -0.0458  0.1276  0.2416
14034WAT      O57940  -1.876   7.622   3.950 -0.1227  0.1743 -0.6056
14034WAT     H157941  -1.818   7.578   3.888  1.7048  2.3400 -0.5909
14034WAT     H257942  -1.873   7.714   3.924 -1.5879  0.7265  0.9720
14034WAT    EPW57943  -1.868   7.629   3.938 -0.0750  0.5326 -0.3957
14035WAT      O57944   3.155   9.882   1.773 -0.2793  0.0159  0.6777
14035WAT     H157945   3.119   9.830   1.700 -0.9254 -3.7979  3.4164
14035WAT     H257946   3.250   9.879   1.760 -0.4168  0.1416 -0.4443
14035WAT    EPW57947   3.163   9.874   1.761 -0.3827 -0.4706  0.8909
14036WAT      O57948  -2.681   2.621   6.420 -0.4248  0.9181 -0.2104
14036WAT     H157949  -2.727   2.561   6.478 -1.1983  2.9042  1.3209
14036WAT     H257950  -2.592   2.585   6.415 -0.2512  0.8017  2.4396
14036WAT    EPW57951  -2.675   2.608   6.427 -0.5040  1.1647  0.3412
14037WAT      O57952  -2.919   8.685   8.278  0.7215  0.8024 -0.4279
14037WAT     H157953  -2.907   8.741   8.201  0.7763 -1.2913 -2.0286
14037WAT     H257954  -2.949   8.602   8.242 -0.3207  0.0791  1.9375
14037WAT    EPW57955  -2.922   8.682   8.263  0.5914  0.4311 -0.3271
14038WAT      O57956  -1.266   0.726   3.086  0.3847  0.0803  0.3744
14038WAT     H157957  -1.302   0.771   3.162 -0.1315 -0.4853  0.4747
14038WAT     H257958  -1.186   0.684   3.118  2.6802  3.4538 -0.4395
14038WAT    EPW57959  -1.260   0.726   3.100  0.6194  0.4506  0.2804
14039WAT      O57960   1.202   1.841   5.891  0.0880 -0.1824 -0.0860
14039WAT     H157961   1.200   1.879   5.979  0.3061  0.1212 -0.2118
14039WAT     H257962   1.136   1.889   5.843  0.0778 -0.2427 -0.1318
14039WAT    EPW57963   1.193   1.852   5.897  0.1154 -0.1503 -0.1087
14040WAT      O57964  -1.948   1.676   3.947  0.9245 -0.2865 -0.5555
14040WAT     H157965  -1.998   1.729   3.885  1.3842 -1.0810 -1.6423
14040WAT     H257966  -1.880   1.735   3.980  0.4377  0.2554 -0.5129
14040WAT    EPW57967  -1.945   1.691   3.943  0.9209 -0.3198 -0.6933
14041WAT      O57968   2.001   4.348   5.372  0.5598 -0.2632 -0.5179
14041WAT     H157969   1.922   4.402   5.376  1.0559  0.8148 -3.0023
14041WAT     H257970   2.015   4.319   5.462 -1.7703  0.7818  0.2702
14041WAT    EPW57971   1.992   4.352   5.384  0.3179  0.0169 -0.7415
14042WAT      O57972   5.382   3.897   0.004  0.2382 -0.0738 -0.5862
14042WAT     H157973   5.368   3.984   0.042 -3.1950 -1.1773  1.1117
14042WAT     H257974   5.363   3.836   0.076 -1.8932 -2.2500 -2.7885
14042WAT    EPW57975   5.378   3.900   0.018 -0.4957 -0.5059 -0.6528
14043WAT      O57976  -2.152   9.254   5.469  0.4952  0.2350  0.0208
14043WAT     H157977  -2.240   9.292   5.466  0.4471  0.3166  1.7197
14043WAT     H257978  -2.162   9.166   5.434 -0.2428  0.2942  0.0824
14043WAT    EPW57979  -2.165   9.248   5.464  0.3915  0.2537  0.2530
14044WAT      O57980   0.489   0.951   6.569 -0.5255  0.1412  0.2175
14044WAT     H157981   0.505   0.862   6.538 -2.0285 -0.1884  0.2933
14044WAT     H257982   0.504   1.006   6.492  3.8842  0.3229  0.9519
14044WAT    EPW57983   0.493   0.946   6.555 -0.1421  0.1217  0.3242
14045WAT      O57984   0.316   3.926   6.560  0.2792  0.3019  0.0570
14045WAT     H157985   0.258   3.932   6.636 -0.6544  3.5842 -0.7386
14045WAT     H257986   0.257   3.901   6.488  0.1992  1.6682 -0.3781
14045WAT    EPW57987   0.300   3.924   6.561  0.1455  0.9149 -0.1054
14046WAT      O57988   4.867   4.007   5.012 -0.0447 -0.1885  0.5315
14046WAT     H157989   4.901   4.055   4.936 -0.7936  0.1823  0.4145
14046WAT     H257990   4.877   3.915   4.989  0.4596 -0.0844  0.3185
14046WAT    EPW57991   4.873   4.001   4.999 -0.0768 -0.1256  0.4883
14047WAT      O57992  -4.148   9.616   3.589 -0.0066  0.1441 -0.2525
14047WAT     H157993  -4.122   9.699   3.549 -0.0121 -0.1281 -0.8260
14047WAT     H257994  -4.101   9.549   3.538  0.8462 -0.1524  0.8867
14047WAT    EPW57995  -4.138   9.618   3.577  0.1051  0.0691 -0.1779
14048WAT      O57996  -5.005   8.476   5.152 -0.7617  0.1924 -0.0885
14048WAT     H157997  -5.039   8.506   5.236  0.5265  1.4814  0.0007
14048WAT     H257998  -5.081   8.437   5.109 -1.8991  1.2631  0.8605
14048WAT    EPW57999  -5.019   8.474   5.158 -0.7417  0.5040  0.0484
14049WAT      O58000  -2.390   9.230   8.374  0.4363 -0.0548  1.1817
14049WAT     H158001  -2.302   9.261   8.397  0.1177  2.3078 -0.3866
14049WAT     H258002  -2.425   9.299   8.318 -1.6659 -1.9063  0.0827
14049WAT    EPW58003  -2.383   9.243   8.370  0.1171  0.0124  0.8302
14050WAT      O58004   8.749   3.378   1.512  0.5994 -0.7391 -0.4333
14050WAT     H158005   8.832   3.368   1.466  0.1041 -0.9635 -1.2960
14050WAT     H258006   8.716   3.464   1.486  1.2150 -0.0358  1.0136
14050WAT    EPW58007   8.755   3.388   1.503  0.6151 -0.6759 -0.3563
14051WAT      O58008   3.815   1.506   3.984  0.2634  0.2771  0.2795
14051WAT     H158009   3.884   1.495   4.049 -0.0872 -1.0982  0.4526
14051WAT     H258010   3.836   1.442   3.916 -0.5250  0.2281  0.0711
14051WAT    EPW58011   3.827   1.496   3.984  0.1131  0.0893  0.2748
14052WAT      O58012   1.729   4.246   0.327 -0.2982 -0.6434 -0.2125
14052WAT     H158013   1.684   4.165   0.354 -0.5360  0.5429  3.5232
14052WAT     H258014   1.811   4.245   0.377 -0.6546  1.6927  0.5244
14052WAT    EPW58015   1.734   4.235   0.337 -0.3766 -0.1788  0.3774
14053WAT      O58016  -5.185   4.966   7.019  0.1136 -0.2789 -0.3342
14053WAT     H158017  -5.238   4.983   6.941 -1.7527  1.5635  1.2334
14053WAT     H258018  -5.246   4.925   7.080  0.5629  1.4596  1.3505
14053WAT    EPW58019  -5.200   4.963   7.017 -0.0732  0.1936  0.0947
14054WAT      O58020  -6.728   9.815   6.149 -0.2937  0.6353  0.4363
14054WAT     H158021  -6.716   9.781   6.060  0.0779 -0.6702  0.9645
14054WAT     H258022  -6.756   9.906   6.136 -2.0535 -0.0597 -1.0507
14054WAT    EPW58023  -6.730   9.823   6.135 -0.4768  0.3710  0.3097
14055WAT      O58024   0.708   4.214   6.605 -0.6384 -0.1033  0.0506
14055WAT     H158025   0.802   4.228   6.592 -1.0825  1.3653 -2.1092
14055WAT     H258026   0.693   4.237   6.697  0.6497  2.7231 -0.3450
14055WAT    EPW58027   0.719   4.219   6.615 -0.5271  0.4632 -0.2863
14056WAT      O58028  -3.811  10.310   3.313 -0.0219 -0.4995  1.0997
14056WAT     H158029  -3.810  10.404   3.332  0.7384 -0.2965  0.1171
14056WAT     H258030  -3.866  10.272   3.382 -1.2702  0.8064  0.8790
14056WAT    EPW58031  -3.818  10.317   3.325 -0.0863 -0.3005  0.9410
14057WAT      O58032   5.158   4.699   2.306  0.5542  0.2647 -0.2437
14057WAT     H158033   5.074   4.744   2.299 -0.7132 -1.4594  2.2702
14057WAT     H258034   5.174   4.694   2.400  2.1549 -1.7344 -0.5547
14057WAT    EPW58035   5.149   4.704   2.318  0.5980 -0.2265  0.0468
14058WAT      O58036  -5.845   9.086   6.085 -0.2426  0.0485 -0.6103
14058WAT     H158037  -5.928   9.063   6.126 -0.0849  1.6382  0.6788
14058WAT     H258038  -5.870   9.113   5.996 -0.9384 -0.7161 -0.6612
14058WAT    EPW58039  -5.860   9.086   6.078 -0.3138  0.1569 -0.4470
14059WAT      O58040  -3.177   7.460   8.222 -0.2871 -0.2979  0.6486
14059WAT     H158041  -3.252   7.477   8.278 -1.0410 -0.3935 -0.3041
14059WAT     H258042  -3.108   7.517   8.256 -1.4617  1.4766  0.1871
14059WAT    EPW58043  -3.178   7.469   8.234 -0.5413 -0.0765  0.4621
14060WAT      O58044   5.829   2.704   2.995 -0.4943 -0.5168 -0.2128
14060WAT     H158045   5.891   2.767   3.032 -1.3411  0.3515 -0.2341
14060WAT     H258046   5.804   2.648   3.068  1.0091 -1.4849 -0.3992
14060WAT    EPW58047   5.834   2.705   3.009 -0.4075 -0.5300 -0.2402
14061WAT      O58048   3.890   6.661   2.359 -0.5207  0.0794  1.3709
14061WAT     H158049   3.894   6.570   2.389  1.1324 -0.6896 -0.8679
14061WAT     H258050   3.982   6.689   2.357 -0.7540  0.8307 -0.6046
14061WAT    EPW58051   3.903   6.652   2.363 -0.3335  0.0770  0.8152
14062WAT      O58052   6.189   2.666   1.609  1.1314  0.5525  0.3334
14062WAT     H158053   6.227   2.614   1.538  2.4941  1.7641  0.1219
14062WAT     H258054   6.147   2.601   1.666 -0.5736 -0.4024 -1.8587
14062WAT    EPW58055   6.189   2.650   1.608  1.0862  0.5864  0.0163
14063WAT      O58056   3.520   9.132   5.025 -0.2866  0.7872 -0.1233
14063WAT     H158057   3.546   9.046   4.993 -1.2244 -0.6805  2.6976
14063WAT     H258058   3.446   9.115   5.083 -0.2471  3.4415  0.8715
14063WAT    EPW58059   3.514   9.119   5.028 -0.4051  0.9437  0.3798
14064WAT      O58060  -0.869   1.349   2.496 -0.0351  0.3716 -0.1546
14064WAT     H158061  -0.901   1.436   2.475 -3.9692 -0.0546  2.9417
14064WAT     H258062  -0.804   1.363   2.565 -1.5098  0.9201  1.1835
14064WAT    EPW58063  -0.865   1.362   2.502 -0.7485  0.3877  0.4303
14065WAT      O58064   6.361   8.623   0.035 -0.7732 -0.6992 -0.4308
14065WAT     H158065   6.350   8.682  -0.040 -1.8020  0.2386  0.4246
14065WAT     H258066   6.278   8.628   0.081 -0.1498 -1.2485  0.7906
14065WAT    EPW58067   6.349   8.632   0.031 -0.8266 -0.6475 -0.1569
14066WAT      O58068   9.066   2.005   0.982 -0.8997  0.4198 -0.2141
14066WAT     H158069   9.036   1.977   0.895  0.3678  0.4244 -0.6820
14066WAT     H258070   9.071   2.100   0.976  0.6818  0.3295 -0.6746
14066WAT    EPW58071   9.063   2.013   0.969 -0.5240  0.4085 -0.3366
14067WAT      O58072  -4.433   8.213   4.041 -0.1441 -0.0658  0.2425
14067WAT     H158073  -4.467   8.225   3.952 -0.0820 -0.6541  0.1330
14067WAT     H258074  -4.395   8.125   4.040  3.4237  1.2820 -0.3331
14067WAT    EPW58075  -4.432   8.203   4.029  0.3347  0.0343  0.1521
14068WAT      O58076   1.783   9.457   8.751 -0.2673  0.3178 -0.0082
14068WAT     H158077   1.801   9.411   8.669 -0.4311  0.2968 -0.0320
14068WAT     H258078   1.718   9.402   8.795  0.8100 -0.3896  0.7575
14068WAT    EPW58079   1.777   9.443   8.746 -0.1468  0.2217  0.0896
14069WAT      O58080  -0.990   0.511   2.810 -0.3065 -0.2382 -0.5122
14069WAT     H158081  -1.058   0.522   2.744 -0.5031 -1.0325 -0.4462
14069WAT     H258082  -0.991   0.418   2.831  1.4517 -0.4523 -1.1957
14069WAT    EPW58083  -0.999   0.500   2.804 -0.1006 -0.3712 -0.5937
14070WAT      O58084   7.595   3.371   0.005  0.2011  0.0364 -0.5589
14070WAT     H158085   7.565   3.305   0.067  0.2839  1.0343  0.5929
14070WAT     H258086   7.535   3.364  -0.069  0.3993 -1.5153 -0.6070
14070WAT    EPW58087   7.583   3.362   0.003  0.2382 -0.0366 -0.4133
14071WAT      O58088  -2.810   1.824   6.069 -0.1604 -0.0438  0.6738
14071WAT     H158089  -2.726   1.869   6.070 -0.1768 -0.0149  1.0938
14071WAT     H258090  -2.866   1.876   6.127 -0.3291 -0.3202  0.7627
14071WAT    EPW58091  -2.807   1.837   6.077 -0.1848 -0.0764  0.7410
14072WAT      O58092   1.106   2.197   8.007  0.1737 -0.5160  0.0248
14072WAT     H158093   1.076   2.107   8.001 -3.2514  0.5692 -1.2367
14072WAT     H258094   1.047   2.238   8.070  0.6190  1.2194 -0.6284
14072WAT    EPW58095   1.094   2.191   8.015 -0.2193 -0.1440 -0.2279
14073WAT      O58096   4.651   8.074   2.521 -0.5591  0.4366 -0.2830
14073WAT     H158097   4.745   8.066   2.535 -0.1674  1.4318 -2.0608
14073WAT     H258098   4.641   8.159   2.478 -2.0655 -0.3999 -1.6903
14073WAT    EPW58099   4.662   8.084   2.517 -0.7060  0.4573 -0.7031
14074WAT      O58100  -1.003   2.204   5.549  0.2946  0.5994 -0.3801
14074WAT     H158101  -0.914   2.187   5.519  0.4510 -1.7297  1.1319
14074WAT     H258102  -0.992   2.246   5.634  0.2274 -3.5140  1.9262
14074WAT    EPW58103  -0.990   2.208   5.556  0.3064 -0.2503  0.1235
14075WAT      O58104   5.281   0.825   7.499 -0.0413 -0.7993 -0.5839
14075WAT     H158105   5.296   0.823   7.404 -1.6450 -0.2930 -0.8776
14075WAT     H258106   5.266   0.733   7.522 -2.1332 -0.6965 -1.3001
14075WAT    EPW58107   5.281   0.813   7.489 -0.5286 -0.7190 -0.7169
14076WAT      O58108  -0.555   3.960   8.388 -0.1208 -0.6004 -0.4379
14076WAT     H158109  -0.512   3.901   8.449 -0.1116  0.3388  0.4927
14076WAT     H258110  -0.625   4.002   8.439 -0.4311 -0.1597 -1.1977
14076WAT    EPW58111  -0.559   3.958   8.403 -0.1605 -0.4184 -0.4153
14077WAT      O58112  -3.337   3.604   7.638  0.9570  0.1430  0.4695
14077WAT     H158113  -3.397   3.673   7.609  1.9498  0.8174 -0.0325
14077WAT     H258114  -3.388   3.523   7.629  0.1253  0.6996  0.0571
14077WAT    EPW58115  -3.352   3.602   7.633  0.9782  0.3053  0.3488
14078WAT      O58116   2.205   9.113   5.929  0.6075  0.2404  0.7534
14078WAT     H158117   2.159   9.179   5.876  1.0863 -1.0307 -1.3680
14078WAT     H258118   2.138   9.078   5.987  0.0639  1.7349  1.0631
14078WAT    EPW58119   2.190   9.117   5.930  0.5989  0.2699  0.5145
14079WAT      O58120   5.713   2.063   6.840 -0.0867  0.2608 -0.0691
14079WAT     H158121   5.793   2.073   6.893 -1.1175 -1.1664  1.8796
14079WAT     H258122   5.642   2.084   6.900 -1.2658 -0.2412 -1.2513
14079WAT    EPW58123   5.714   2.067   6.855 -0.3781  0.0063  0.0319
14080WAT      O58124   1.422   6.605   1.957  0.0091 -0.0868  0.0670
14080WAT     H158125   1.395   6.588   1.867  1.8308  1.4729 -0.8543
14080WAT     H258126   1.352   6.660   1.992 -1.4839 -1.9384  0.1892
14080WAT    EPW58127   1.409   6.610   1.950  0.0525 -0.1252 -0.0384
14081WAT      O58128   8.120   3.053   2.533  0.1385 -0.3903  0.7185
14081WAT     H158129   8.168   2.982   2.575  0.5132 -1.1911 -0.9892
14081WAT     H258130   8.033   3.017   2.518  0.5431 -0.8067 -0.8265
14081WAT    EPW58131   8.115   3.039   2.537  0.2413 -0.5509  0.2896
14082WAT      O58132   3.826   3.275   0.486  0.3313  0.4878 -0.0001
14082WAT     H158133   3.919   3.276   0.463  0.0998  1.5558 -0.9749
14082WAT     H258134   3.780   3.279   0.402 -0.6213 -0.9793  0.4214
14082WAT    EPW58135   3.832   3.276   0.472  0.1752  0.4351 -0.0731
14083WAT      O58136   9.449   1.314   0.374 -0.2010  0.2770 -0.3775
14083WAT     H158137   9.534   1.353   0.396  0.1996 -0.3047 -0.8906
14083WAT     H258138   9.404   1.383   0.325  0.9657 -0.2846 -2.3107
14083WAT    EPW58139   9.454   1.328   0.371  0.0057  0.1262 -0.7002
14084WAT      O58140  -1.718   6.688   1.123 -1.1287 -0.4876 -0.0243
14084WAT     H158141  -1.712   6.592   1.125 -1.9036 -0.5284  0.3959
14084WAT     H258142  -1.657   6.717   1.191  0.9875 -0.5656 -1.7517
14084WAT    EPW58143  -1.709   6.679   1.132 -0.9518 -0.5035 -0.1968
14085WAT      O58144  -2.607   9.843   6.700  1.2257 -0.0026  0.3006
14085WAT     H158145  -2.661   9.912   6.662  2.1525  0.6557  0.1578
14085WAT     H258146  -2.594   9.869   6.791  1.3216 -0.1514  0.3309
14085WAT    EPW58147  -2.612   9.855   6.707  1.3605  0.0648  0.2859
14086WAT      O58148  -1.649   3.001   3.722  0.1936  0.1514 -0.5349
14086WAT     H158149  -1.556   3.019   3.713  0.4724 -1.2953 -0.8302
14086WAT     H258150  -1.671   3.030   3.810  1.3819 -1.2071  0.2493
14086WAT    EPW58151  -1.640   3.007   3.732  0.3871 -0.2186 -0.4704
14087WAT      O58152  -0.655   8.249   2.245 -0.0605  0.4422  0.3913
14087WAT     H158153  -0.616   8.325   2.288 -1.6835  0.5871  1.6809
14087WAT     H258154  -0.718   8.286   2.183 -1.5760  0.1908  1.7225
14087WAT    EPW58155  -0.658   8.263   2.242 -0.4744  0.4282  0.7370
14088WAT      O58156   5.525   2.134   7.102 -0.2782  0.2580  0.4129
14088WAT     H158157   5.457   2.200   7.089  0.4821  1.5367  2.4226
14088WAT     H258158   5.484   2.066   7.154 -0.7150 -0.2781 -0.6055
14088WAT    EPW58159   5.511   2.134   7.107 -0.2356  0.3560  0.5436
14089WAT      O58160   1.449   0.744   2.278 -0.3614  0.0233 -0.2752
14089WAT     H158161   1.525   0.786   2.316  0.1534 -0.5919 -0.6017
14089WAT     H258162   1.459   0.651   2.301 -1.1559 -0.0203 -0.0826
14089WAT    EPW58163   1.460   0.737   2.286 -0.3983 -0.0635 -0.2928
14090WAT      O58164   4.344   1.591   6.272 -0.1827 -0.0996 -0.1645
14090WAT     H158165   4.324   1.620   6.361 -1.9865  1.2045 -0.9221
14090WAT     H258166   4.329   1.669   6.218  2.4659 -0.3887 -1.4630
14090WAT    EPW58167   4.339   1.605   6.277 -0.0710  0.0343 -0.4358
14091WAT      O58168   1.290   5.815   4.196 -0.5832  0.1432 -0.4524
14091WAT     H158169   1.195   5.827   4.194 -0.5669  0.3543 -0.1488
14091WAT     H258170   1.312   5.818   4.289 -0.2529  0.3324 -0.5339
14091WAT    EPW58171   1.280   5.817   4.208 -0.5375  0.1960 -0.4232
14092WAT      O58172   4.587   7.912   1.841  0.2417 -0.0835  0.7994
14092WAT     H158173   4.681   7.928   1.851  0.2478  1.8192 -1.3728
14092WAT     H258174   4.580   7.856   1.764 -0.3919 -1.0488  1.5353
14092WAT    EPW58175   4.598   7.907   1.832  0.1588  0.0401  0.6100
14093WAT      O58176   0.724   8.461   6.584  0.0180 -0.3273 -0.7718
14093WAT     H158177   0.793   8.486   6.645  0.8520  0.9436 -2.1489
14093WAT     H258178   0.750   8.501   6.501 -2.3921  0.2264 -1.3465
14093WAT    EPW58179   0.736   8.469   6.581 -0.1899 -0.0863 -1.0290
14094WAT      O58180  -0.007   7.373   5.672  0.7758 -0.1871 -0.0049
14094WAT     H158181   0.048   7.312   5.720 -2.0245 -3.0951 -0.1233
14094WAT     H258182  -0.049   7.320   5.604 -1.0194  2.1325 -0.8892
14094WAT    EPW58183  -0.005   7.358   5.669  0.1696 -0.2649 -0.1371
14095WAT      O58184  -3.120   6.319   6.301 -0.1017  0.4876 -0.3868
14095WAT     H158185  -3.216   6.320   6.310 -0.2917 -0.3016 -1.9318
14095WAT     H258186  -3.088   6.299   6.389 -1.2794  1.9058  0.4281
14095WAT    EPW58187  -3.129   6.317   6.314 -0.2822  0.5705 -0.4833
14096WAT      O58188   2.902   3.489   0.242 -0.2750 -0.0993 -0.0648
14096WAT     H158189   2.844   3.424   0.202 -1.0161  0.4641  0.0725
14096WAT     H258190   2.864   3.574   0.217  0.7440  0.2969 -0.3516
14096WAT    EPW58191   2.890   3.492   0.233 -0.2383  0.0274 -0.0845
14097WAT      O58192   5.577   7.546   4.498 -0.0023  0.5755  0.4118
14097WAT     H158193   5.514   7.492   4.450  2.8099 -1.3612 -1.3902
14097WAT     H258194   5.587   7.502   4.583  2.0317 -1.8339 -0.9224
14097WAT    EPW58195   5.570   7.533   4.503  0.6371  0.0024 -0.0019
14098WAT      O58196   3.263   3.290   1.711  0.2215  0.1021 -0.4267
14098WAT     H158197   3.262   3.366   1.769  1.8385  0.1948 -0.4807
14098WAT     H258198   3.312   3.223   1.760  0.6661 -0.1817 -1.2526
14098WAT    EPW58199   3.269   3.291   1.725  0.4935  0.0769 -0.5427
14099WAT      O58200   3.331   4.657   2.738  0.5938 -0.0507 -0.5528
14099WAT     H158201   3.364   4.574   2.774  1.0363 -0.1606 -1.1879
14099WAT     H258202   3.266   4.686   2.801  1.5571 -0.0883  0.4975
14099WAT    EPW58203   3.327   4.650   2.751  0.7793 -0.0699 -0.4981
14100WAT      O58204  -3.733   2.591   5.248 -0.4737  0.6066  0.9514
14100WAT     H158205  -3.773   2.672   5.216  1.9298  1.7630  0.6674
14100WAT     H258206  -3.721   2.607   5.342  1.0818  1.1132  0.6904
14100WAT    EPW58207  -3.737   2.604   5.256  0.0484  0.8259  0.8795
14101WAT      O58208   2.610   9.638   0.287  0.3284 -1.0913 -0.3394
14101WAT     H158209   2.680   9.650   0.223 -0.3403 -3.0238 -1.4959
14101WAT     H258210   2.552   9.713   0.274 -0.0006 -1.6281 -2.3084
14101WAT    EPW58211   2.612   9.649   0.277  0.1968 -1.4172 -0.7517
14102WAT      O58212   3.108   1.934   2.600  0.0484  0.0426  0.5082
14102WAT     H158213   3.106   1.957   2.693 -0.2585  0.3533  0.4298
14102WAT     H258214   3.162   1.856   2.596 -0.6269 -0.4734  1.0638
14102WAT    EPW58215   3.115   1.927   2.612 -0.0812  0.0156  0.5711
14103WAT      O58216  -3.577   0.446   7.942  0.3546 -0.0072 -0.0746
14103WAT     H158217  -3.530   0.484   8.016 -1.5324 -0.0639  1.2356
14103WAT     H258218  -3.586   0.353   7.964 -0.5965  0.0574 -0.1452
14103WAT    EPW58219  -3.572   0.439   7.955 -0.0198 -0.0061  0.0889
14104WAT      O58220  -3.704   9.285   6.235  0.1373 -0.0510 -0.7792
14104WAT     H158221  -3.786   9.330   6.217  0.5829  1.0527 -0.1604
14104WAT     H258222  -3.677   9.317   6.321  0.9222 -0.8408 -0.7132
14104WAT    EPW58223  -3.711   9.295   6.244  0.2996 -0.0095 -0.6890
14105WAT      O58224  -3.053   8.059   0.357  0.4720 -0.3616 -0.5891
14105WAT     H158225  -3.041   8.054   0.262 -1.5900  0.9532 -0.9824
14105WAT     H258226  -3.030   8.149   0.379  1.1994 -0.7360  0.2222
14105WAT    EPW58227  -3.048   8.070   0.347  0.2959 -0.2375 -0.5340
14106WAT      O58228   1.151   4.180   4.329 -0.3368 -0.2944  0.7330
14106WAT     H158229   1.106   4.110   4.375  1.1339 -0.9461  1.2291
14106WAT     H258230   1.081   4.227   4.283 -1.7038 -0.4202  2.5385
14106WAT    EPW58231   1.136   4.177   4.329 -0.3231 -0.3970  1.0364
14107WAT      O58232   1.335   7.855   0.829 -0.8658  0.1061  0.0407
14107WAT     H158233   1.284   7.902   0.763 -0.7560  0.0039 -0.1184
14107WAT     H258234   1.391   7.922   0.869 -0.8377  0.1437 -0.0621
14107WAT    EPW58235   1.336   7.870   0.826 -0.8476  0.0975  0.0061
14108WAT      O58236   2.966   4.928   2.818  0.0206 -0.2709 -0.3438
14108WAT     H158237   2.890   4.927   2.760 -0.4645 -3.1241  0.2179
14108WAT     H258238   2.952   5.005   2.874  0.0861  2.0750 -3.3257
14108WAT    EPW58239   2.954   4.938   2.818 -0.0348 -0.3376 -0.6630
14109WAT      O58240  -4.653   3.552   8.090  0.0386  0.3202  0.1444
14109WAT     H158241  -4.670   3.626   8.032  0.0979  0.5347  0.3960
14109WAT     H258242  -4.568   3.518   8.061 -0.7366 -0.6705 -1.0241
14109WAT    EPW58243  -4.644   3.558   8.079 -0.0556  0.2178  0.0229
14110WAT      O58244  -2.392   1.688   5.433 -0.0020  0.1051 -0.0364
14110WAT     H158245  -2.462   1.714   5.493  0.9115 -1.4316  1.8030
14110WAT     H258246  -2.385   1.594   5.444  1.2745  0.0100 -1.4106
14110WAT    EPW58247  -2.400   1.679   5.443  0.2868 -0.1101  0.0248
14111WAT      O58248  -1.650   8.533   5.824  0.2983  0.0852 -0.1506
14111WAT     H158249  -1.736   8.523   5.864  0.0777  1.9181 -0.0720
14111WAT     H258250  -1.591   8.551   5.897  1.1861 -2.9288  0.0324
14111WAT    EPW58251  -1.654   8.534   5.839  0.3864 -0.0706 -0.1159
14112WAT      O58252  -1.739   5.859   4.868  0.0288 -0.4667 -0.4111
14112WAT     H158253  -1.773   5.921   4.803 -1.9036 -0.3299  0.6642
14112WAT     H258254  -1.758   5.899   4.952  0.3989 -1.7039  0.2803
14112WAT    EPW58255  -1.746   5.872   4.870 -0.1773 -0.6118 -0.1781
14113WAT      O58256   7.542   7.115   0.200  0.4719  0.6823  0.0138
14113WAT     H158257   7.509   7.171   0.129  0.5095  0.1437 -0.4329
14113WAT     H258258   7.492   7.143   0.277 -2.7485 -1.5533 -1.0119
14113WAT    EPW58259   7.531   7.126   0.201  0.0522  0.3164 -0.1804
14114WAT      O58260   4.638   2.651   5.121 -0.2852  0.1991 -0.3829
14114WAT     H158261   4.575   2.677   5.188  1.3015  2.5842  0.3268
14114WAT     H258262   4.683   2.575   5.158 -1.4464 -0.3646 -0.0910
14114WAT    EPW58263   4.636   2.645   5.135 -0.2291  0.4393 -0.2508
14115WAT      O58264   1.523   0.396   5.262  0.9067  0.2369  0.2981
14115WAT     H158265   1.558   0.308   5.245  1.0973  0.1574  1.0760
14115WAT     H258266   1.545   0.446   5.183 -0.5170 -0.7918 -0.8226
14115WAT    EPW58267   1.530   0.391   5.249  0.7440  0.0908  0.2530
14116WAT      O58268   4.347   8.087   4.847  0.1598  0.1858  0.2638
14116WAT     H158269   4.296   8.036   4.785 -0.9884  1.0692  0.4304
14116WAT     H258270   4.430   8.041   4.855 -0.2257 -0.7293 -0.8156
14116WAT    EPW58271   4.351   8.074   4.840 -0.0422  0.1817  0.1435
14117WAT      O58272   3.427   3.289   7.788  0.4145  0.0587 -0.3517
14117WAT     H158273   3.494   3.355   7.804  1.2423 -0.8203 -0.0459
14117WAT     H258274   3.349   3.339   7.764  1.4907  1.0630 -1.9366
14117WAT    EPW58275   3.426   3.304   7.787  0.6657  0.0752 -0.5202
14118WAT      O58276   7.216   1.707   1.507 -0.0226 -0.2990  0.6486
14118WAT     H158277   7.231   1.801   1.506 -0.7305 -0.1814  0.7132
14118WAT     H258278   7.131   1.697   1.549 -0.7142 -0.8619 -0.8282
14118WAT    EPW58279   7.207   1.718   1.512 -0.2072 -0.3577  0.4624
14119WAT      O58280  -0.233   4.808   0.604  0.3626  0.0948  0.3375
14119WAT     H158281  -0.310   4.752   0.608 -1.2175  1.9166 -1.6895
14119WAT     H258282  -0.176   4.765   0.540 -0.9063  0.7822 -1.3282
14119WAT    EPW58283  -0.236   4.795   0.596 -0.0132  0.4256 -0.1496
14120WAT      O58284   5.538   0.985   1.601  0.1569 -0.1214  0.8644
14120WAT     H158285   5.608   1.011   1.541 -0.1435  2.0759  1.3956
14120WAT     H258286   5.457   1.009   1.556 -0.1382  0.0417  1.4796
14120WAT    EPW58287   5.537   0.992   1.587  0.0784  0.1899  1.0156
14121WAT      O58288   9.106   0.212   0.367  0.7042 -0.5443  0.2820
14121WAT     H158289   9.129   0.305   0.378  2.1893 -0.4592 -2.6920
14121WAT     H258290   9.068   0.207   0.279  1.4735 -2.8918  0.0282
14121WAT    EPW58291   9.104   0.224   0.357  1.0018 -0.8427 -0.1437
14122WAT      O58292  -2.162   1.217   8.433  0.5892  0.1345 -0.3412
14122WAT     H158293  -2.075   1.177   8.434 -0.8294 -3.2029  0.7421
14122WAT     H258294  -2.201   1.193   8.517 -0.3956  4.2475  0.6323
14122WAT    EPW58295  -2.155   1.209   8.444  0.2723  0.2367 -0.0701
14123WAT      O58296   3.314   8.088   5.724 -0.5270 -0.5393 -0.4169
14123WAT     H158297   3.224   8.072   5.697 -0.5228 -0.4151 -0.5041
14123WAT     H258298   3.343   8.162   5.670  0.2771 -1.8495 -1.8774
14123WAT    EPW58299   3.306   8.096   5.713 -0.4203 -0.6957 -0.6211
14124WAT      O58300   2.070  -0.008   3.373 -0.3309 -0.0229 -0.0724
14124WAT     H158301   2.096  -0.011   3.465 -0.4952  0.3819 -0.0080
14124WAT     H258302   2.117   0.068   3.338 -1.9575  1.1906  0.2269
14124WAT    EPW58303   2.080   0.002   3.380 -0.5671  0.1907 -0.0246
14125WAT      O58304   1.067   7.642   3.449  0.3663  0.7099 -0.6693
14125WAT     H158305   1.151   7.597   3.440  0.4711  0.6689  0.4013
14125WAT     H258306   1.090   7.735   3.453  0.1204  0.9527 -3.2998
14125WAT    EPW58307   1.081   7.649   3.448  0.3477  0.7367 -0.8750
14126WAT      O58308   2.675   5.522   2.835 -0.0286  0.5298 -0.2715
14126WAT     H158309   2.648   5.437   2.798 -2.0256  0.9194  0.1839
14126WAT     H258310   2.661   5.584   2.764  0.2885  0.6630 -0.2183
14126WAT    EPW58311   2.670   5.519   2.821 -0.2502  0.5987 -0.2043
14127WAT      O58312  -5.032   5.759   4.969 -0.1674  0.2037 -0.1937
14127WAT     H158313  -4.963   5.714   5.017  0.2942 -0.6809 -1.6209
14127WAT     H258314  -5.029   5.849   5.001  0.6038 -0.1881  0.8789
14127WAT    EPW58315  -5.023   5.765   4.979 -0.0048  0.0355 -0.2406
14128WAT      O58316   4.149   3.198   6.770  0.1640  0.2109  0.1581
14128WAT     H158317   4.103   3.115   6.754  1.2605 -0.8914  2.3246
14128WAT     H258318   4.143   3.211   6.864  0.8810  2.1245 -0.0127
14128WAT    EPW58319   4.142   3.189   6.780  0.4034  0.3179  0.4213
14129WAT      O58320  -5.790   5.964   6.872  0.0524 -0.5646 -0.2265
14129WAT     H158321  -5.821   6.001   6.955 -1.4697 -0.7099 -0.7102
14129WAT     H258322  -5.718   6.021   6.846 -0.1799  0.1411  0.6433
14129WAT    EPW58323  -5.784   5.976   6.879 -0.1788 -0.4907 -0.1755
14130WAT      O58324  -1.521   1.731   3.024  0.2206  0.8485 -0.4835
14130WAT     H158325  -1.602   1.728   2.974  0.4975 -0.8696 -0.9234
14130WAT     H258326  -1.458   1.773   2.965 -0.3818  2.3826 -0.0560
14130WAT    EPW58327  -1.523   1.736   3.009  0.1777  0.8242 -0.4852
14131WAT      O58328  -0.618   4.039   3.572 -0.3210  0.2508  0.3752
14131WAT     H158329  -0.581   4.003   3.653 -1.1096 -0.7706  0.3009
14131WAT     H258330  -0.552   4.100   3.541 -1.3767  3.3784  3.5949
14131WAT    EPW58331  -0.605   4.042   3.578 -0.5642  0.5288  0.7900
14132WAT      O58332  -4.966   3.662   7.286 -0.4362  0.6441  0.6672
14132WAT     H158333  -4.930   3.590   7.234  0.1736 -1.2957  3.5436
14132WAT     H258334  -4.913   3.738   7.263  1.7936 -0.8366  0.6365
14132WAT    EPW58335  -4.955   3.663   7.276 -0.0615  0.1930  1.0426
14133WAT      O58336  -0.965   0.510   6.045  0.8830 -0.1231  0.4372
14133WAT     H158337  -1.018   0.519   5.966  0.3920 -1.6452  0.5630
14133WAT     H258338  -1.029   0.495   6.116  1.0351  4.1862  1.7762
14133WAT    EPW58339  -0.981   0.509   6.044  0.8383  0.2446  0.6304
14134WAT      O58340  -1.311   7.303   1.268  0.1728 -0.5670  0.1662
14134WAT     H158341  -1.274   7.379   1.223 -1.4063  0.1955  0.1118
14134WAT     H258342  -1.405   7.315   1.264 -0.0691 -1.4432  2.0215
14134WAT    EPW58343  -1.318   7.315   1.262 -0.0674 -0.5820  0.4038
14135WAT      O58344  -0.383   4.540   3.133  0.1690  0.4518  0.2571
14135WAT     H158345  -0.323   4.466   3.140  0.8526  0.8651 -0.8255
14135WAT     H258346  -0.408   4.560   3.223 -2.3772 -2.8986  0.4977
14135WAT    EPW58347  -0.378   4.533   3.146 -0.0767  0.0646  0.1462
14136WAT      O58348   5.245   5.404   1.981  0.0791 -0.7898  0.1899
14136WAT     H158349   5.221   5.404   1.889  0.1449  0.6063  0.1427
14136WAT     H258350   5.272   5.314   2.000  1.9835 -0.6747 -1.6448
14136WAT    EPW58351   5.245   5.392   1.972  0.3390 -0.5906 -0.0584
14137WAT      O58352   1.118   8.654   6.747 -0.3869 -0.5504  0.2332
14137WAT     H158353   1.176   8.724   6.718  0.6621 -1.2954  0.4836
14137WAT     H258354   1.070   8.691   6.821 -0.5058  0.1903 -0.2088
14137WAT    EPW58355   1.119   8.668   6.753 -0.2642 -0.5507  0.2081
14138WAT      O58356  -4.544   7.218   4.653  0.3264 -0.4093  0.1209
14138WAT     H158357  -4.546   7.128   4.686  1.1198  0.3401  2.3718
14138WAT     H258358  -4.474   7.260   4.703  0.1147  1.4140 -1.0516
14138WAT    EPW58359  -4.535   7.211   4.664  0.4032 -0.0699  0.2632
14139WAT      O58360   6.551   0.954   5.587 -0.0820 -0.1464 -0.4669
14139WAT     H158361   6.635   0.910   5.583 -0.8230 -1.7032  0.3476
14139WAT     H258362   6.551   1.012   5.511  0.2648 -2.8268 -2.6495
14139WAT    EPW58363   6.562   0.956   5.576 -0.1338 -0.7052 -0.6473
14140WAT      O58364   3.977   4.831   8.190 -0.0366  0.3220 -0.5176
14140WAT     H158365   4.037   4.762   8.219 -2.6658 -2.7556 -1.8512
14140WAT     H258366   3.996   4.841   8.097 -0.0793  1.0634 -0.4579
14140WAT    EPW58367   3.988   4.824   8.182 -0.3890  0.0141 -0.6852
14141WAT      O58368   5.518   4.642   2.348  0.1003 -0.1880 -0.1403
14141WAT     H158369   5.457   4.717   2.351 -2.6714 -2.2669  0.1087
14141WAT     H258370   5.603   4.680   2.368 -1.4380  2.6597  1.8608
14141WAT    EPW58371   5.521   4.657   2.351 -0.4683 -0.0865  0.1564
14142WAT      O58372  -4.087   5.207   5.854 -0.3353 -0.6390 -0.7134
14142WAT     H158373  -4.112   5.179   5.942  0.3724 -2.1373 -0.9517
14142WAT     H258374  -3.992   5.219   5.858 -0.7090  3.2642 -0.2783
14142WAT    EPW58375  -4.078   5.205   5.866 -0.2913 -0.3219 -0.6874
14143WAT      O58376  -3.908   9.857   4.361  0.5138 -0.7185  0.3288
14143WAT     H158377  -3.959   9.926   4.317 -2.1235 -1.7460  1.5933
14143WAT     H258378  -3.881   9.799   4.290 -2.6364 -1.7023 -0.1964
14143WAT    EPW58379  -3.911   9.859   4.346 -0.2495 -0.9832  0.4263
14144WAT      O58380   8.803   1.018   2.435 -0.6026 -0.0765 -0.6754
14144WAT     H158381   8.882   0.964   2.439 -0.0651  0.7744  1.1087
14144WAT     H258382   8.833   1.102   2.401 -0.5619  0.5046  0.7471
14144WAT    EPW58383   8.817   1.022   2.431 -0.5264  0.1123 -0.2525
14145WAT      O58384  -0.512   4.306   6.203  0.0892 -0.0918 -0.1290
14145WAT     H158385  -0.499   4.397   6.230  1.8950 -1.2898  3.9067
14145WAT     H258386  -0.605   4.289   6.222  0.6024 -0.0143  3.1139
14145WAT    EPW58387  -0.523   4.316   6.209  0.3951 -0.2398  0.8311
14146WAT      O58388  -0.276   4.723   3.635 -0.0715 -0.4003 -0.3255
14146WAT     H158389  -0.357   4.709   3.683  0.3687  0.5243  0.7395
14146WAT     H258390  -0.294   4.799   3.579 -0.3000 -0.9229 -0.9720
14146WAT    EPW58391  -0.289   4.732   3.634 -0.0436 -0.3471 -0.2702
14147WAT      O58392  -1.448  10.111   7.629 -0.5707  0.7858  1.0165
14147WAT     H158393  -1.503  10.174   7.583  0.1584  1.5448  1.1717
14147WAT     H258394  -1.432  10.150   7.715  2.1208  1.7543  0.2058
14147WAT    EPW58395  -1.453  10.124   7.634 -0.1196  1.0133  0.9298
14148WAT      O58396   1.649   9.476   4.077 -0.0536 -0.1218  0.1046
14148WAT     H158397   1.624   9.422   4.002  2.7416 -1.8678  0.2823
14148WAT     H258398   1.696   9.416   4.134  2.3473  2.2709  0.8266
14148WAT    EPW58399   1.652   9.461   4.075  0.6317 -0.0367  0.2234
14149WAT      O58400   0.312   0.609   1.658 -0.9662 -0.7266  0.1533
14149WAT     H158401   0.252   0.664   1.708  1.4288  1.5637  0.7131
14149WAT     H258402   0.337   0.663   1.583  1.0444 -1.2403  0.4210
14149WAT    EPW58403   0.307   0.623   1.655 -0.3851 -0.4923  0.2624
14150WAT      O58404  -2.815   1.528   6.145  0.0798 -0.2007  0.0113
14150WAT     H158405  -2.763   1.466   6.095  0.1451  0.5852 -0.9225
14150WAT     H258406  -2.803   1.612   6.100 -1.6408  0.0935  0.0410
14150WAT    EPW58407  -2.807   1.531   6.133 -0.1384 -0.0583 -0.1080
14151WAT      O58408   4.265   4.071   2.132  0.5803 -0.7591  0.4980
14151WAT     H158409   4.205   4.027   2.071  0.6933  0.1132 -0.2709
14151WAT     H258410   4.215   4.078   2.213  0.0021 -0.9422  0.1692
14151WAT    EPW58411   4.250   4.067   2.135  0.5190 -0.6683  0.3532
14152WAT      O58412   3.924   4.219   3.498  0.1586 -0.6243 -0.1328
14152WAT     H158413   3.896   4.128   3.511  1.2020 -0.9908 -0.3295
14152WAT     H258414   3.872   4.250   3.424 -0.8885 -0.7386  0.5310
14152WAT    EPW58415   3.913   4.211   3.490  0.1581 -0.6876 -0.0712
14153WAT      O58416   0.789   4.715   7.406  0.0751  0.1385  0.1630
14153WAT     H158417   0.695   4.727   7.416  0.1711 -0.1613  1.5801
14153WAT     H258418   0.828   4.776   7.468  0.8472  0.5549 -0.6990
14153WAT    EPW58419   0.782   4.725   7.415  0.1896  0.1540  0.2363
14154WAT      O58420  -2.092   1.860   5.461 -0.1500  0.2112 -1.0706
14154WAT     H158421  -2.134   1.808   5.392  1.3443  0.6741 -2.3776
14154WAT     H258422  -2.165   1.891   5.514 -1.3645 -0.1851 -2.4334
14154WAT    EPW58423  -2.107   1.857   5.459 -0.1130  0.2199 -1.4226
14155WAT      O58424   3.937   0.679   8.904  1.2104  0.7576  0.2969
14155WAT     H158425   3.961   0.636   8.986 -0.7725  0.7361  0.9085
14155WAT     H258426   3.875   0.747   8.931 -0.8118 -0.3520 -1.3305
14155WAT    EPW58427   3.932   0.683   8.919  0.6822  0.6084  0.1631
14156WAT      O58428  -4.634   3.275   8.754 -0.4057  0.2408  0.4768
14156WAT     H158429  -4.660   3.294   8.664  1.8653  0.8889 -0.0958
14156WAT     H258430  -4.563   3.212   8.746 -2.7411 -2.8752  2.0522
14156WAT    EPW58431  -4.628   3.269   8.741 -0.4141 -0.0848  0.6089
14157WAT      O58432  -0.094   2.392   6.934 -0.2556 -0.4073 -0.2609
14157WAT     H158433  -0.095   2.435   7.020  0.5131  0.2598 -0.5718
14157WAT     H258434  -0.024   2.328   6.939 -1.4006 -1.6536  0.1986
14157WAT    EPW58435  -0.085   2.389   6.946 -0.3052 -0.4838 -0.2413
14158WAT      O58436  -3.618   4.629   6.745 -1.1929 -0.0041 -0.0472
14158WAT     H158437  -3.547   4.690   6.764 -0.4560 -1.7181  3.4031
14158WAT     H258438  -3.579   4.566   6.684 -0.4075  0.2634  0.1598
14158WAT    EPW58439  -3.603   4.628   6.739 -0.9922 -0.1948  0.4349
14159WAT      O58440   6.158   6.253   3.570 -0.3990  0.2464  0.0642
14159WAT     H158441   6.185   6.171   3.528 -1.9784 -0.6907  0.7601
14159WAT     H258442   6.081   6.281   3.521  0.1715  1.3820 -0.2100
14159WAT    EPW58443   6.152   6.246   3.558 -0.5319  0.2725  0.1197
14160WAT      O58444   8.263   2.062   2.324 -0.4314 -0.2753 -0.1939
14160WAT     H158445   8.346   2.093   2.290  0.5863 -1.1086  1.3738
14160WAT     H258446   8.229   2.003   2.257  0.2162  0.1159 -0.8667
14160WAT    EPW58447   8.269   2.058   2.311 -0.2117 -0.3335 -0.0759
14161WAT      O58448   5.229   1.334   7.320  0.0833  0.1105 -0.0395
14161WAT     H158449   5.294   1.334   7.390 -1.8140 -1.0341  1.8359
14161WAT     H258450   5.227   1.425   7.289  0.1529  0.9719  2.2568
14161WAT    EPW58451   5.237   1.346   7.325 -0.1576  0.0731  0.5109
14162WAT      O58452  -3.414   8.887   2.076  0.2674  0.3682 -0.3652
14162WAT     H158453  -3.478   8.817   2.062 -0.1082  0.2877  1.4887
14162WAT     H258454  -3.454   8.964   2.036 -2.2868  0.9271  2.8420
14162WAT    EPW58455  -3.428   8.888   2.069 -0.1191  0.4311  0.3024
14163WAT      O58456  -0.480   0.535   0.911 -0.5437  0.6738  0.3872
14163WAT     H158457  -0.408   0.519   0.849 -0.2386  1.7581  0.4474
14163WAT     H258458  -0.466   0.471   0.980 -0.9735 -0.6635 -0.7052
14163WAT    EPW58459  -0.469   0.524   0.912 -0.5602  0.6404  0.2510
14164WAT      O58460  -3.990   5.700   8.506  0.3705 -0.0546  0.2724
14164WAT     H158461  -3.916   5.744   8.547  0.5517 -0.7462  0.7137
14164WAT     H258462  -3.958   5.612   8.487  0.2449  0.2004 -1.2397
14164WAT    EPW58463  -3.976   5.694   8.509  0.3778 -0.1123  0.1307
14165WAT      O58464   0.478   0.710   4.876  0.9505  0.5396  0.1095
14165WAT     H158465   0.438   0.722   4.962  0.3158  0.6081 -0.1853
14165WAT     H258466   0.548   0.646   4.890  0.0667 -0.3807  0.4531
14165WAT    EPW58467   0.482   0.703   4.889  0.7503  0.4272  0.1159
14166WAT      O58468   2.966   4.990   8.260 -0.8033  0.0289  0.0963
14166WAT     H158469   3.002   4.938   8.188  0.3894  1.0702 -0.1033
14166WAT     H258470   3.042   5.034   8.298 -1.5259  0.1237  1.4972
14166WAT    EPW58471   2.981   4.989   8.255 -0.7414  0.1786  0.2546
14167WAT      O58472  -1.921   7.486   0.874 -0.0728  0.9517  0.5306
14167WAT     H158473  -1.978   7.417   0.840 -0.4086  1.0277  0.9403
14167WAT     H258474  -1.930   7.558   0.811  2.2847 -0.2775 -1.4039
14167WAT    EPW58475  -1.929   7.486   0.861  0.1938  0.7994  0.3295
14168WAT      O58476   6.245   1.527   1.402 -0.1790  0.5430 -0.1777
14168WAT     H158477   6.229   1.538   1.495 -4.3783 -0.0652 -0.6311
14168WAT     H258478   6.166   1.484   1.369  0.1194  2.6905 -4.3752
14168WAT    EPW58479   6.232   1.523   1.410 -0.6936  0.7460 -0.7911
14169WAT      O58480  -5.487   8.336   5.180  0.4119  0.2515 -0.3441
14169WAT     H158481  -5.568   8.285   5.186 -0.1304  1.2159  1.2005
14169WAT     H258482  -5.500   8.392   5.103  0.3189 -0.7296 -1.0654
14169WAT    EPW58483  -5.500   8.337   5.170  0.3281  0.2494 -0.2353
14170WAT      O58484  -2.738   4.297   3.389  0.1911 -0.9909 -0.3943
14170WAT     H158485  -2.764   4.241   3.462  0.6307  0.8564  1.2483
14170WAT     H258486  -2.754   4.386   3.419  1.4542 -0.1056 -2.1295
14170WAT    EPW58487  -2.744   4.301   3.402  0.4157 -0.6304 -0.4065
14171WAT      O58488  -2.330   4.818   6.852 -0.0911  0.1878 -0.3425
14171WAT     H158489  -2.410   4.827   6.799  0.6852 -0.3504 -1.6689
14171WAT     H258490  -2.360   4.820   6.942 -1.3013  3.3383 -0.6787
14171WAT    EPW58491  -2.344   4.820   6.857 -0.1483  0.5324 -0.5617
14172WAT      O58492   4.838   7.839   4.536  0.7695 -0.0794  0.1088
14172WAT     H158493   4.897   7.828   4.462  0.6113  1.2245 -0.2408
14172WAT     H258494   4.818   7.933   4.537  1.0397 -0.0058  2.0070
14172WAT    EPW58495   4.843   7.850   4.526  0.7844  0.1023  0.3133
14173WAT      O58496  -3.642   7.657   4.254  0.3529  0.1751 -0.2305
14173WAT     H158497  -3.681   7.631   4.171 -1.6764  1.8237  0.1272
14173WAT     H258498  -3.633   7.576   4.303 -2.0443 -0.4074 -0.6280
14173WAT    EPW58499  -3.646   7.643   4.249 -0.2310  0.3159 -0.2358
14174WAT      O58500   0.480  10.083   2.105 -0.5097 -0.3627  0.0815
14174WAT     H158501   0.406  10.142   2.122 -0.6256 -0.1287 -1.1372
14174WAT     H258502   0.505  10.101   2.015 -0.8634 -2.5058 -0.5160
14174WAT    EPW58503   0.473  10.093   2.096 -0.5717 -0.6146 -0.1581
14175WAT      O58504   2.738   7.158   0.770 -0.0742 -0.1528  0.1779
14175WAT     H158505   2.727   7.094   0.840 -2.4799 -0.0538 -0.0242
14175WAT     H258506   2.667   7.221   0.783  1.8791  2.2510  0.0536
14175WAT    EPW58507   2.727   7.158   0.781 -0.1339  0.1771  0.1348
14176WAT      O58508  -2.776   8.377   8.619  0.5934 -0.2610  0.4349
14176WAT     H158509  -2.799   8.441   8.687  1.4510  2.5739 -1.7266
14176WAT     H258510  -2.680   8.377   8.618  0.6116  0.1346 -1.0107
14176WAT    EPW58511  -2.766   8.386   8.628  0.7089  0.1655 -0.0410
14177WAT      O58512   5.704   7.721   0.242 -0.3124 -0.7489 -0.6746
14177WAT     H158513   5.662   7.806   0.253 -0.6422 -0.6429 -2.5003
14177WAT     H258514   5.798   7.740   0.249 -0.4290 -0.5335  0.5760
14177WAT    EPW58515   5.711   7.735   0.245 -0.3712 -0.7067 -0.7505
14178WAT      O58516   6.602  10.317   1.164 -0.0924 -0.4299 -0.0545
14178WAT     H158517   6.677  10.337   1.221 -0.5192  0.1612  0.3092
14178WAT     H258518   6.597  10.221   1.165 -0.4921 -0.4262  1.4636
14178WAT    EPW58519   6.611  10.307   1.172 -0.2015 -0.3514  0.1937
14179WAT      O58520  -5.377   7.425   7.980 -0.5166 -0.0360  0.1759
14179WAT     H158521  -5.389   7.455   8.070  0.5786 -0.5142  0.4853
14179WAT     H258522  -5.446   7.359   7.967 -0.9642  0.3654  0.5049
14179WAT    EPW58523  -5.388   7.420   7.990 -0.4311 -0.0463  0.2599
14180WAT      O58524  -1.401   5.407   0.395 -0.4970 -1.4189  0.0359
14180WAT     H158525  -1.468   5.415   0.326 -2.6321  1.5907  2.1699
14180WAT     H258526  -1.451   5.399   0.476  1.8755 -2.4998  1.4888
14180WAT    EPW58527  -1.416   5.407   0.396 -0.4656 -1.1647  0.5090
14181WAT      O58528  -1.498   1.335   4.867 -0.2780  0.0583 -0.0001
14181WAT     H158529  -1.462   1.276   4.801  2.6633  0.5221  1.0757
14181WAT     H258530  -1.500   1.284   4.947  0.0391  0.7066  0.4268
14181WAT    EPW58531  -1.494   1.321   4.869  0.1518  0.2050  0.1981
14182WAT      O58532  -4.195   6.959   4.260  0.2007 -0.0145  0.6011
14182WAT     H158533  -4.244   6.958   4.177  1.0618  2.0545  0.0073
14182WAT     H258534  -4.106   6.984   4.235  1.0237 -1.4017  1.9432
14182WAT    EPW58535  -4.189   6.962   4.246  0.4227  0.0756  0.6998
14183WAT      O58536   6.541   5.832   2.783 -0.7492 -0.4763  0.1271
14183WAT     H158537   6.518   5.924   2.798  1.5667  0.3023 -0.5581
14183WAT     H258538   6.596   5.809   2.858 -2.7510 -1.9455  1.2342
14183WAT    EPW58539   6.545   5.841   2.795 -0.7079 -0.5672  0.1826
14184WAT      O58540   2.412   5.070   7.254  0.5366 -0.1517  0.2645
14184WAT     H158541   2.440   5.013   7.326 -0.9801 -1.1037  0.1427
14184WAT     H258542   2.334   5.114   7.287  1.0496  1.0412 -0.0623
14184WAT    EPW58543   2.406   5.068   7.268  0.4042 -0.1202  0.2053
14185WAT      O58544  -2.001   7.438   1.556 -0.5268 -0.1657 -0.0096
14185WAT     H158545  -2.004   7.416   1.649 -0.7527 -0.7306 -0.1465
14185WAT     H258546  -2.093   7.437   1.528 -0.4316 -0.4085 -0.3285
14185WAT    EPW58547  -2.014   7.435   1.564 -0.5440 -0.2723 -0.0697
14186WAT      O58548   1.561   1.981   2.848  0.3176 -0.7237 -0.3961
14186WAT     H158549   1.590   2.016   2.932  1.9200 -0.7637 -0.8975
14186WAT     H258550   1.466   1.970   2.857  0.5201 -1.1273  1.5423
14186WAT    EPW58551   1.552   1.984   2.860  0.5557 -0.7822 -0.2065
14187WAT      O58552  -2.469   6.041   4.736 -0.8160 -0.3354  1.2602
14187WAT     H158553  -2.461   5.975   4.667  3.3162  0.5806  0.5773
14187WAT     H258554  -2.496   6.120   4.689 -1.6903 -0.5547  1.3776
14187WAT    EPW58555  -2.471   6.043   4.720 -0.3865 -0.2434  1.1857
14188WAT      O58556   5.275   8.925   0.053 -0.2132 -0.4900 -0.6230
14188WAT     H158557   5.297   8.864   0.123 -0.5157 -0.4144 -0.4565
14188WAT     H258558   5.235   9.000   0.098  1.4585  0.4896 -0.6896
14188WAT    EPW58559   5.272   8.927   0.068 -0.0324 -0.3505 -0.6098
14189WAT      O58560   4.332   3.139   5.892 -0.9504 -0.0512 -0.4560
14189WAT     H158561   4.321   3.230   5.919  2.3469  0.5119 -0.4826
14189WAT     H258562   4.398   3.144   5.822 -0.2988 -2.4832 -0.1016
14189WAT    EPW58563   4.339   3.152   5.886 -0.4294 -0.2978 -0.4127
14190WAT      O58564   2.032   9.535   1.741 -0.2105 -0.0803 -0.5253
14190WAT     H158565   2.038   9.597   1.813  0.2738 -0.2946 -0.3801
14190WAT     H258566   2.002   9.588   1.666  0.1540  0.3205 -0.3928
14190WAT    EPW58567   2.029   9.550   1.740 -0.0985 -0.0558 -0.4886
14191WAT      O58568   1.466   0.029   6.929  0.5450  0.5088 -0.3840
14191WAT     H158569   1.439   0.066   6.845 -1.7663 -0.2094 -0.0143
14191WAT     H258570   1.539   0.084   6.957 -0.5798  2.6435 -1.4333
14191WAT    EPW58571   1.472   0.041   6.921  0.0918  0.6957 -0.4737
14192WAT      O58572   4.501   0.952   4.311  0.3717 -0.6281 -0.6866
14192WAT     H158573   4.434   1.017   4.287  0.8500  0.3983  0.6604
14192WAT     H258574   4.474   0.873   4.264  1.0187  1.0648 -4.2341
14192WAT    EPW58575   4.488   0.950   4.301  0.5200 -0.2695 -0.9768
14193WAT      O58576   1.679   5.733   0.243  0.6522 -0.1128  0.3435
14193WAT     H158577   1.759   5.778   0.270  0.2792 -1.0335  3.3052
14193WAT     H258578   1.617   5.750   0.314 -0.8062 -1.8949 -0.4433
14193WAT    EPW58579   1.681   5.741   0.256  0.4107 -0.4692  0.6304
14194WAT      O58580   2.157   8.799   0.577 -0.1197 -0.3722  0.5254
14194WAT     H158581   2.232   8.857   0.586 -0.9578  0.3804  3.3660
14194WAT     H258582   2.192   8.712   0.597  0.6900 -0.6415 -1.7354
14194WAT    EPW58583   2.172   8.795   0.580 -0.1234 -0.3085  0.6019
14195WAT      O58584   1.309   5.295   7.294  0.2025 -0.9256 -0.2920
14195WAT     H158585   1.264   5.371   7.258 -1.5747 -2.1866 -0.8715
14195WAT     H258586   1.341   5.325   7.379 -2.1673 -0.0244  0.3734
14195WAT    EPW58587   1.307   5.309   7.301 -0.3445 -0.9730 -0.2806
14196WAT      O58588   3.804   7.290   6.928  0.1925  0.2907 -0.3637
14196WAT     H158589   3.842   7.372   6.958 -0.6141  0.3425  0.5673
14196WAT     H258590   3.871   7.224   6.947  1.0463  0.7693 -1.5734
14196WAT    EPW58591   3.818   7.292   6.935  0.1987  0.3605 -0.4005
14197WAT      O58592   1.044   2.023   6.906  0.4940 -0.7926  0.6239
14197WAT     H158593   1.083   2.100   6.866 -0.1276 -0.8933 -0.1928
14197WAT     H258594   0.964   2.055   6.949  0.2481 -0.9732  0.3053
14197WAT    EPW58595   1.039   2.037   6.907  0.3796 -0.8298  0.4742
14198WAT      O58596  -2.538   4.128   2.899  0.7944  0.2630  0.6947
14198WAT     H158597  -2.462   4.132   2.840  1.4362 -1.1481  1.3897
14198WAT     H258598  -2.512   4.179   2.975  0.5528  0.8009  0.4263
14198WAT    EPW58599  -2.525   4.135   2.901  0.8472  0.1478  0.7509
14199WAT      O58600   7.069   5.105   1.709 -0.3212 -0.0938 -0.8687
14199WAT     H158601   7.038   5.106   1.618 -1.4126  1.7819 -0.5315
14199WAT     H258602   7.022   5.177   1.751  1.1622 -0.0625  0.8666
14199WAT    EPW58603   7.059   5.114   1.702 -0.2697  0.1578 -0.5953
14200WAT      O58604  -1.381   9.512   0.209  0.8115 -0.5257  1.2242
14200WAT     H158605  -1.438   9.486   0.136  0.5856 -0.8964  1.5296
14200WAT     H258606  -1.385   9.438   0.270 -0.0259  0.2981  2.2182
14200WAT    EPW58607  -1.389   9.499   0.207  0.6713 -0.4659  1.3956
14201WAT      O58608  -1.390   4.721   1.127 -0.2640  0.7207  0.0795
14201WAT     H158609  -1.416   4.775   1.053  1.5152  1.9021  0.2505
14201WAT     H258610  -1.444   4.752   1.200 -1.9337 -0.3626 -0.6321
14201WAT    EPW58611  -1.401   4.732   1.127 -0.2496  0.7336  0.0082
14202WAT      O58612   3.874   4.959   3.921  0.1678 -0.1654 -0.5468
14202WAT     H158613   3.908   4.951   4.010 -0.2649 -1.0168 -0.4462
14202WAT     H258614   3.816   4.883   3.911 -0.8244  0.6443 -1.0887
14202WAT    EPW58615   3.870   4.948   3.932 -0.0200 -0.1709 -0.6050
14203WAT      O58616  -3.641  10.221   1.593  0.0213  0.1725  0.3731
14203WAT     H158617  -3.608  10.265   1.671  0.8913  1.4074 -0.6466
14203WAT     H258618  -3.562  10.186   1.551 -0.5946 -1.9372  0.8603
14203WAT    EPW58619  -3.626  10.222   1.598  0.0548  0.0572  0.3029
14204WAT      O58620   1.441   0.066   7.225  0.7882  0.1579  0.5709
14204WAT     H158621   1.431   0.046   7.132 -0.3284  0.4850  0.6129
14204WAT     H258622   1.430  -0.019   7.269 -0.2682  0.2436  0.4984
14204WAT    EPW58623   1.438   0.052   7.219  0.5016  0.2123  0.5670
14205WAT      O58624   0.735   8.925   0.914  0.1795  0.3288 -0.7069
14205WAT     H158625   0.733   8.989   0.843 -1.2567 -0.2845 -1.2576
14205WAT     H258626   0.644   8.900   0.926  0.7673 -2.3396 -1.1817
14205WAT    EPW58627   0.723   8.931   0.906  0.0676 -0.1040 -0.8421
14206WAT      O58628   1.322   5.511   1.812  0.0794 -0.0193  0.3684
14206WAT     H158629   1.282   5.547   1.733 -0.5501  1.5344  1.3366
14206WAT     H258630   1.335   5.419   1.793 -2.5563 -0.2764 -0.5905
14206WAT    EPW58631   1.318   5.504   1.799 -0.3512  0.1516  0.3697
14207WAT      O58632  -5.231   8.138   8.082 -0.3831  0.5144  0.3240
14207WAT     H158633  -5.244   8.109   7.992  1.3418 -0.3085  0.3047
14207WAT     H258634  -5.319   8.159   8.114 -0.9435  1.5622 -1.7679
14207WAT    EPW58635  -5.245   8.137   8.075 -0.2294  0.5441  0.0458
14208WAT      O58636   0.950   0.569   6.218  0.2241 -0.0891  0.7672
14208WAT     H158637   0.985   0.496   6.269 -0.2008 -0.8158  0.0382
14208WAT     H258638   0.933   0.637   6.283  0.0962 -0.8407  1.5406
14208WAT    EPW58639   0.952   0.569   6.233  0.1512 -0.2841  0.7730
14209WAT      O58640  -3.634   4.296   8.575  0.4063 -0.4918 -0.6897
14209WAT     H158641  -3.678   4.215   8.551 -1.4554  0.0247  0.7470
14209WAT     H258642  -3.566   4.268   8.636 -1.9785 -0.8701  2.0324
14209WAT    EPW58643  -3.631   4.282   8.580 -0.1539 -0.4735 -0.1411
14210WAT      O58644   5.007   1.094   1.284 -0.6680  0.2056 -0.4778
14210WAT     H158645   5.042   1.038   1.353 -1.8023  2.3744  2.0513
14210WAT     H258646   5.062   1.076   1.208  1.3026 -1.5832  1.2363
14210WAT    EPW58647   5.019   1.084   1.283 -0.5577  0.2556  0.0818
14211WAT      O58648   1.889   6.854   6.408 -0.0049 -0.1025 -0.2117
14211WAT     H158649   1.888   6.764   6.441 -1.3729 -0.1711 -0.3863
14211WAT     H258650   1.972   6.861   6.360  1.2869 -0.4854  1.8326
14211WAT    EPW58651   1.900   6.843   6.406 -0.0150 -0.1621  0.0350
14212WAT      O58652   1.391   8.157   4.450 -0.1886 -0.1965 -0.2195
14212WAT     H158653   1.362   8.070   4.479  0.6531 -1.1078 -1.9315
14212WAT     H258654   1.318   8.215   4.471 -1.5968 -1.6783 -0.7979
14212WAT    EPW58655   1.378   8.153   4.457 -0.2633 -0.5126 -0.5214
14213WAT      O58656  -5.735   6.186   8.695  0.2524 -0.5853 -0.6140
14213WAT     H158657  -5.642   6.165   8.684  0.4338  0.4659 -1.2587
14213WAT     H258658  -5.771   6.111   8.741  0.9086 -2.1716 -2.5147
14213WAT    EPW58659  -5.727   6.173   8.699  0.3629 -0.6559 -0.9494
14214WAT      O58660  -1.674   3.611   3.693 -0.5211 -0.1000  0.8087
14214WAT     H158661  -1.657   3.518   3.680  0.6727  0.3169 -1.0152
14214WAT     H258662  -1.683   3.621   3.788 -1.5225 -2.1787  0.9836
14214WAT    EPW58663  -1.673   3.600   3.704 -0.4957 -0.3192  0.5913
14215WAT      O58664   4.301   7.149   0.906  0.4747 -0.8862  0.1722
14215WAT     H158665   4.257   7.111   0.830  2.8353 -0.1262 -1.6997
14215WAT     H258666   4.312   7.241   0.883  0.8774 -0.5431  1.6482
14215WAT    EPW58667   4.297   7.156   0.893  0.8392 -0.7408  0.1200
14216WAT      O58668   5.940  10.356   1.090  0.0019  0.4983  0.4562
14216WAT     H158669   5.902  10.283   1.042  2.3436  0.9631 -2.4219
14216WAT     H258670   5.909  10.434   1.044  2.7809  0.9372 -0.9368
14216WAT    EPW58671   5.931  10.357   1.077  0.6773  0.6180 -0.1071
14217WAT      O58672  -0.762   0.350   2.163 -0.1714  0.3730  0.2293
14217WAT     H158673  -0.759   0.431   2.213 -0.4455  0.1643  0.5874
14217WAT     H258674  -0.718   0.285   2.218 -4.8936 -1.1936  2.7344
14217WAT    EPW58675  -0.756   0.352   2.176 -0.8304  0.1388  0.6069
14218WAT      O58676  -2.350   2.827   7.379  0.4109  0.4508 -0.0665
14218WAT     H158677  -2.281   2.762   7.396 -2.6523 -2.6492  1.8296
14218WAT     H258678  -2.376   2.857   7.465 -2.3639 -0.5519 -0.4751
14218WAT    EPW58679  -2.344   2.822   7.392 -0.3592 -0.0904  0.1297
14219WAT      O58680  -0.102   4.012   8.691 -0.1307 -0.1512 -0.1768
14219WAT     H158681  -0.120   3.958   8.614  3.5432 -1.7201 -0.1062
14219WAT     H258682  -0.150   3.969   8.761  1.3708 -2.4593 -0.4606
14219WAT    EPW58683  -0.111   3.999   8.690  0.5519 -0.6626 -0.2050
14220WAT      O58684   2.923   9.720   0.692  0.2234 -0.8088 -0.0160
14220WAT     H158685   2.948   9.797   0.743  0.1851 -1.6709  1.3725
14220WAT     H258686   2.989   9.654   0.715  0.4509 -1.0982 -1.4326
14220WAT    EPW58687   2.935   9.721   0.702  0.2484 -0.9608 -0.0197
14221WAT      O58688   0.753   5.697   4.600  0.0612 -0.3738  0.3724
14221WAT     H158689   0.797   5.771   4.641  2.8306 -1.6764  0.0489
14221WAT     H258690   0.824   5.649   4.556 -1.7538 -2.6236 -0.3061
14221WAT    EPW58691   0.768   5.700   4.599  0.1871 -0.8423  0.2403
14222WAT      O58692   7.632   1.685   2.364 -0.5156  0.1334 -0.2105
14222WAT     H158693   7.677   1.701   2.447 -0.7997  0.2747 -0.0833
14222WAT     H258694   7.624   1.590   2.358 -1.8476  0.1660  0.6501
14222WAT    EPW58695   7.637   1.675   2.374 -0.7286  0.1563 -0.0802
14223WAT      O58696   2.232   9.176   0.853  0.0707 -0.0936  0.2764
14223WAT     H158697   2.215   9.083   0.867 -0.5607 -0.1262 -0.6197
14223WAT     H258698   2.208   9.217   0.936  0.0964 -0.6910  0.5874
14223WAT    EPW58699   2.227   9.169   0.866 -0.0092 -0.1769  0.1993
14224WAT      O58700   5.503   3.047   6.770  0.3690  0.1754  0.4260
14224WAT     H158701   5.457   3.064   6.687 -1.3495  0.1555  1.3182
14224WAT     H258702   5.516   2.952   6.770  2.4715  0.3893 -0.8052
14224WAT    EPW58703   5.498   3.037   6.759  0.4196  0.2010  0.3812
14225WAT      O58704  -1.921   7.277   3.591  0.3554  0.3919  0.1391
14225WAT     H158705  -1.982   7.244   3.657  0.7232 -0.1176  0.2282
14225WAT     H258706  -1.920   7.372   3.605 -0.3102  0.3882  0.2214
14225WAT    EPW58707  -1.929   7.285   3.602  0.3161  0.3240  0.1616
14226WAT      O58708  -2.382   8.067   0.903  0.1325  0.7249  0.4581
14226WAT     H158709  -2.295   8.104   0.917 -0.6823  1.9912  2.6570
14226WAT     H258710  -2.366   7.975   0.881  2.0592  1.4547 -1.5425
14226WAT    EPW58711  -2.369   8.060   0.902  0.2792  0.9885  0.4843
14227WAT      O58712   4.753   1.201   4.985 -0.4639  0.2769 -0.0800
14227WAT     H158713   4.705   1.280   5.010  1.6242  0.7043  3.1184
14227WAT     H258714   4.768   1.154   5.067  1.8459 -1.3917 -1.3246
14227WAT    EPW58715   4.749   1.205   4.999  0.1163  0.1132  0.1776
14228WAT      O58716   8.079   1.169   1.736 -0.0337  0.7529  0.4129
14228WAT     H158717   8.024   1.093   1.714  0.3999  0.4543  0.3479
14228WAT     H258718   8.161   1.131   1.767  0.2799  1.1963  0.1384
14228WAT    EPW58719   8.082   1.154   1.737  0.0648  0.7721  0.3682
14229WAT      O58720  -0.128   9.288   6.066  0.2399  0.1342  0.3029
14229WAT     H158721  -0.113   9.194   6.060  2.1726  0.4691 -0.7148
14229WAT     H258722  -0.154   9.302   6.157 -4.3896 -1.8556 -0.4320
14229WAT    EPW58723  -0.130   9.277   6.077 -0.1158 -0.0839  0.0715
14230WAT      O58724   7.477   3.360   0.517  0.0185 -0.3422  0.0959
14230WAT     H158725   7.456   3.434   0.460  1.6054  0.3991  0.4154
14230WAT     H258726   7.459   3.392   0.605  1.9293  0.1995  0.3522
14230WAT    EPW58727   7.472   3.374   0.521  0.4799 -0.1731  0.1718
14231WAT      O58728  -2.156   9.691   5.025 -0.2961  0.0433 -0.0373
14231WAT     H158729  -2.136   9.602   5.056 -0.4993 -0.2842 -0.8277
14231WAT     H258730  -2.232   9.717   5.077  0.1646  0.0196  0.6678
14231WAT    EPW58731  -2.164   9.683   5.036 -0.2621 -0.0033 -0.0486
14232WAT      O58732   3.082   5.573   2.402  0.0426 -0.4708 -0.2955
14232WAT     H158733   3.092   5.591   2.308 -2.7860 -0.0050 -0.5999
14232WAT     H258734   3.013   5.633   2.430 -1.0855 -2.4537  1.4472
14232WAT    EPW58735   3.074   5.583   2.393 -0.4792 -0.6709 -0.1057
14233WAT      O58736   5.100   8.063   0.715 -0.1590  0.0883 -0.5722
14233WAT     H158737   5.041   8.126   0.674  1.2905  1.9597  0.0794
14233WAT     H258738   5.074   8.064   0.808  1.0198  1.1167 -0.2362
14233WAT    EPW58739   5.089   8.071   0.722  0.1876  0.4706 -0.4420
14234WAT      O58740  -7.348   9.567   7.732 -0.2054 -0.4441 -0.6479
14234WAT     H158741  -7.270   9.516   7.757  1.9043  2.5551 -0.6216
14234WAT     H258742  -7.317   9.625   7.663 -2.4962  0.7784 -0.7191
14234WAT    EPW58743  -7.334   9.568   7.727 -0.2294  0.1125 -0.6535
14235WAT      O58744   1.832   9.134   5.658 -0.2080  0.5075  0.2278
14235WAT     H158745   1.923   9.150   5.631 -0.4679  0.3875 -0.7678
14235WAT     H258746   1.784   9.124   5.575 -1.5997  3.0313  0.6129
14235WAT    EPW58747   1.838   9.135   5.643 -0.4259  0.8245  0.1471
14236WAT      O58748  -0.806   2.648   5.916  0.2346 -0.5990 -0.1112
14236WAT     H158749  -0.900   2.662   5.910  0.3995  0.0438 -1.5664
14236WAT     H258750  -0.784   2.596   5.839  1.2130  0.1054 -0.3284
14236WAT    EPW58751  -0.816   2.643   5.905  0.3854 -0.4213 -0.3319
14237WAT      O58752  -1.292   8.783   8.955  0.1340 -0.2026  0.0311
14237WAT     H158753  -1.273   8.836   9.033  2.6063 -2.3284  1.0438
14237WAT     H258754  -1.207   8.772   8.913 -1.1412  0.9676 -3.1788
14237WAT    EPW58755  -1.278   8.789   8.960  0.2919 -0.3281 -0.2589
14238WAT      O58756  -0.641   2.329   4.932  0.2516 -0.2803 -0.5997
14238WAT     H158757  -0.696   2.258   4.963 -0.5431  0.8614  0.6859
14238WAT     H258758  -0.572   2.285   4.881  1.9485 -2.3498  3.0958
14238WAT    EPW58759  -0.639   2.314   4.929  0.3706 -0.4027  0.0575
14239WAT      O58760   2.631   6.809   1.163  0.0962  0.1672 -0.7573
14239WAT     H158761   2.621   6.760   1.245 -1.0089 -0.6842 -1.3745
14239WAT     H258762   2.619   6.901   1.189 -2.1554 -0.2146 -0.2114
14239WAT    EPW58763   2.628   6.815   1.177 -0.3467  0.0048 -0.7667
14240WAT      O58764   1.778   6.185   8.534  0.5620  0.2114 -0.1981
14240WAT     H158765   1.784   6.277   8.559  0.2518 -0.2777  1.8277
14240WAT     H258766   1.817   6.138   8.608 -0.2318 -1.3320 -0.7259
14240WAT    EPW58767   1.784   6.191   8.547  0.4164 -0.0565 -0.0005
14241WAT      O58768   6.684   3.239   4.326  0.7122  0.0082  0.4844
14241WAT     H158769   6.758   3.224   4.267 -1.0176 -0.1742 -1.7771
14241WAT     H258770   6.681   3.160   4.381  1.3153 -0.6462 -0.3850
14241WAT    EPW58771   6.693   3.226   4.325  0.5636 -0.1022  0.0713
14242WAT      O58772   5.637   6.092   4.194  0.0787  0.1920 -0.0199
14242WAT     H158773   5.726   6.113   4.221  0.3048 -2.5888  1.7548
14242WAT     H258774   5.646   6.060   4.104  0.5999  1.3107 -0.3847
14242WAT    EPW58775   5.650   6.091   4.185  0.1771 -0.0272  0.1659
14243WAT      O58776  -2.130   2.978   4.345 -0.7213 -0.0913  0.7227
14243WAT     H158777  -2.097   3.018   4.425 -0.6900 -0.3960  0.8638
14243WAT     H258778  -2.162   2.892   4.373  1.4744 -1.2086  0.0182
14243WAT    EPW58779  -2.130   2.972   4.359 -0.4276 -0.2787  0.6485
14244WAT      O58780  -2.263   7.386   1.486 -0.3595  0.6354 -0.0940
14244WAT     H158781  -2.326   7.458   1.482  0.6640  1.5482 -0.3719
14244WAT     H258782  -2.311   7.313   1.525 -1.0853  1.8405  1.3301
14244WAT    EPW58783  -2.277   7.386   1.490 -0.3202  0.9148  0.0572
14245WAT      O58784  -1.130   3.369   3.255 -0.4152 -0.4473 -0.0868
14245WAT     H158785  -1.102   3.444   3.306 -0.5835 -0.3383 -0.1556
14245WAT     H258786  -1.213   3.396   3.215 -0.4517 -0.6501 -0.1498
14245WAT    EPW58787  -1.137   3.382   3.256 -0.4422 -0.4597 -0.1042
14246WAT      O58788   3.535   7.706   4.502 -0.3126  0.4625  0.1792
14246WAT     H158789   3.447   7.734   4.530 -1.1827 -1.4938 -0.4254
14246WAT     H258790   3.519   7.631   4.445  1.7849 -0.1503  0.3176
14246WAT    EPW58791   3.521   7.700   4.498 -0.1507  0.1235  0.1178
14247WAT      O58792   1.114   0.233   1.799 -0.9832  0.0050  0.2498
14247WAT     H158793   1.081   0.146   1.779 -0.0727 -0.3712  0.3695
14247WAT     H258794   1.130   0.232   1.894 -1.6612  0.5485  0.3850
14247WAT    EPW58795   1.111   0.222   1.809 -0.9526  0.0271  0.2834
14248WAT      O58796   5.727   6.374   2.401  0.2964  0.0143  0.2094
14248WAT     H158797   5.794   6.414   2.457  1.9946 -1.9689 -0.3167
14248WAT     H258798   5.737   6.417   2.316  1.9522 -1.2561 -0.2859
14248WAT    EPW58799   5.737   6.385   2.397  0.7389 -0.4146  0.0746
14249WAT      O58800  -3.873   9.686   7.245 -0.1876 -0.3569 -0.1918
14249WAT     H158801  -3.790   9.726   7.270  0.4573 -0.6854 -1.7044
14249WAT     H258802  -3.858   9.651   7.157 -1.4770 -1.7337  0.0813
14249WAT    EPW58803  -3.860   9.687   7.237 -0.2725 -0.5817 -0.3552
14250WAT      O58804  -0.511   0.113   1.316  0.5528  0.1815 -0.3133
14250WAT     H158805  -0.480   0.153   1.234  2.1529  0.1252  0.2191
14250WAT     H258806  -0.513   0.185   1.379 -1.6064  0.4172 -0.6061
14250WAT    EPW58807  -0.507   0.128   1.313  0.4791  0.2051 -0.2816
14251WAT      O58808  -5.598   3.683   7.839  0.2972 -0.6718 -0.8142
14251WAT     H158809  -5.674   3.699   7.784  1.3948  0.8433 -1.9814
14251WAT     H258810  -5.577   3.591   7.825  1.0762 -0.1458 -3.7228
14251WAT    EPW58811  -5.605   3.673   7.830  0.5448 -0.4026 -1.3518
14252WAT      O58812   0.080   2.761   3.496 -0.4003 -0.9608 -0.4243
14252WAT     H158813   0.096   2.812   3.575  0.5799 -0.5192 -0.8898
14252WAT     H258814   0.167   2.736   3.466 -0.5631  0.5958 -2.4620
14252WAT    EPW58815   0.093   2.765   3.502 -0.2925 -0.6973 -0.7545
14253WAT      O58816  -2.485   6.676   2.526  0.0722  0.1379 -0.4340
14253WAT     H158817  -2.568   6.633   2.549  0.8456 -0.6346  1.0801
14253WAT     H258818  -2.449   6.703   2.610  2.1049 -0.9642 -0.8949
14253WAT    EPW58819  -2.492   6.674   2.540  0.4424 -0.1094 -0.2952
14254WAT      O58820   0.736   9.555   8.982  0.1288 -0.0363  0.2800
14254WAT     H158821   0.751   9.543   8.889  0.1610  2.9441 -0.1763
14254WAT     H258822   0.808   9.612   9.011 -0.9732  0.7060  1.6774
14254WAT    EPW58823   0.748   9.561   8.974 -0.0123  0.4544  0.4044
14255WAT      O58824   0.293   9.648   7.499  0.9476  0.0250 -0.1870
14255WAT     H158825   0.332   9.733   7.479  1.7729 -0.3884 -0.3630
14255WAT     H258826   0.359   9.604   7.552 -0.8476  0.8125  2.9655
14255WAT    EPW58827   0.306   9.653   7.503  0.8197  0.0744  0.2055
14256WAT      O58828   7.508   6.982   1.387  0.0003  0.3033 -0.2154
14256WAT     H158829   7.568   6.965   1.314 -1.6233  0.3862 -1.6365
14256WAT     H258830   7.528   7.072   1.413  1.1770 -0.0161  0.0194
14256WAT    EPW58831   7.519   6.992   1.381 -0.0584  0.2720 -0.3719
14257WAT      O58832  -1.123   9.676   2.527  0.7513  0.0565  0.4124
14257WAT     H158833  -1.188   9.615   2.562  0.0847 -0.5968 -1.8193
14257WAT     H258834  -1.108   9.647   2.437  1.5967  2.2415 -0.2257
14257WAT    EPW58835  -1.130   9.664   2.520  0.7749  0.2584  0.0339
14258WAT      O58836   5.976   2.565   3.909  0.1403 -0.1750 -0.2385
14258WAT     H158837   5.892   2.609   3.909  0.5601  0.6551  0.8104
14258WAT     H258838   5.955   2.474   3.886 -1.3686 -0.5574  2.3302
14258WAT    EPW58839   5.963   2.558   3.906 -0.0031 -0.1159  0.2385
14259WAT      O58840   4.651   1.669   6.079  1.0076  0.7402  0.0826
14259WAT     H158841   4.709   1.594   6.064 -1.2142 -0.8284 -1.2667
14259WAT     H258842   4.613   1.653   6.166 -1.1142 -1.0170 -1.0630
14259WAT    EPW58843   4.654   1.657   6.088  0.4346  0.3015 -0.2463
14260WAT      O58844  -0.730   3.571   1.912 -1.1430  0.4942  0.2171
14260WAT     H158845  -0.733   3.486   1.955  1.5510  0.5895  0.7360
14260WAT     H258846  -0.766   3.632   1.976 -2.5646 -0.1245  0.0510
14260WAT    EPW58847  -0.735   3.568   1.926 -0.9752  0.4252  0.2636
14261WAT      O58848  -1.637   2.160   6.079  0.2025  0.1143  0.2896
14261WAT     H158849  -1.547   2.178   6.051  0.5204  1.0087  1.7702
14261WAT     H258850  -1.691   2.198   6.010  0.9546  0.3771 -0.1720
14261WAT    EPW58851  -1.632   2.168   6.066  0.3436  0.2669  0.4237
14262WAT      O58852  -1.135   2.917   4.604 -0.0409  0.1074  0.4228
14262WAT     H158853  -1.230   2.907   4.619 -0.1280 -1.5773 -0.9375
14262WAT     H258854  -1.119   2.872   4.521  1.9615  0.3908  0.6111
14262WAT    EPW58855  -1.146   2.910   4.595  0.2117 -0.0774  0.2682
14263WAT      O58856  -3.395   2.022   6.379  0.4223 -0.2996  0.3270
14263WAT     H158857  -3.423   2.050   6.292  0.0272  0.8616  0.8137
14263WAT     H258858  -3.318   2.077   6.398  1.9446 -2.1242 -0.2096
14263WAT    EPW58859  -3.388   2.033   6.370  0.5710 -0.3872  0.3204
14264WAT      O58860  -0.705   1.082   8.170  0.3828  0.5157 -0.2978
14264WAT     H158861  -0.677   1.173   8.166  0.4604  0.5515  0.7910
14264WAT     H258862  -0.800   1.087   8.181  0.4717  0.5042  0.6031
14264WAT    EPW58863  -0.714   1.095   8.171  0.4048  0.5189 -0.0353
14265WAT      O58864  -0.056   3.207   2.738  0.4811  0.3644  0.0851
14265WAT     H158865  -0.049   3.297   2.708  0.3305  0.3534  0.0144
14265WAT     H258866  -0.006   3.156   2.675 -2.2875 -0.0591 -1.9671
14265WAT    EPW58867  -0.049   3.212   2.726  0.0961  0.3071 -0.1950
14266WAT      O58868  -0.231   5.064   0.750  0.2084 -0.0205 -0.1461
14266WAT     H158869  -0.240   4.980   0.705 -0.1521 -0.2400  0.3299
14266WAT     H258870  -0.314   5.076   0.795 -0.4011  1.3951 -1.5492
14266WAT    EPW58871  -0.243   5.054   0.750  0.0805  0.1371 -0.2684
14267WAT      O58872  -0.964   9.683   1.417 -0.4569  0.1496 -0.2393
14267WAT     H158873  -1.028   9.620   1.451 -0.1264 -1.7593 -2.8695
14267WAT     H258874  -1.014   9.736   1.355 -0.3791  1.5647  0.8495
14267WAT    EPW58875  -0.979   9.682   1.414 -0.4030  0.0849 -0.4426
14268WAT      O58876   1.319   9.767   4.606  0.1036 -0.1591  0.1100
14268WAT     H158877   1.287   9.750   4.518  0.0584  1.5926 -0.2640
14268WAT     H258878   1.410   9.738   4.605  0.2102  0.1705 -0.6445
14268WAT    EPW58879   1.327   9.761   4.595  0.1117  0.1154 -0.0386
14269WAT      O58880   1.036   0.153   5.863  0.6649  0.3990 -0.6736
14269WAT     H158881   0.943   0.150   5.881  0.4535 -1.0601 -1.8401
14269WAT     H258882   1.042   0.165   5.768  1.7105  3.7338 -0.3464
14269WAT    EPW58883   1.025   0.154   5.853  0.7749  0.6464 -0.7844
14270WAT      O58884  -1.815   5.550   0.658 -0.0414 -1.0629 -0.1607
14270WAT     H158885  -1.818   5.462   0.620  0.3425 -0.8320 -0.7482
14270WAT     H258886  -1.730   5.584   0.630 -1.7195  0.9684 -3.3604
14270WAT    EPW58887  -1.804   5.543   0.649 -0.2121 -0.7644 -0.6602
14271WAT      O58888   0.989   7.065   2.054  0.5566  0.2236 -0.3736
14271WAT     H158889   0.994   7.008   2.130  2.7511  0.2056 -0.4688
14271WAT     H258890   0.904   7.046   2.014 -0.5397  0.0785  1.9148
14271WAT    EPW58891   0.979   7.055   2.059  0.7015  0.2022 -0.0843
14272WAT      O58892   5.359   4.087   1.507 -0.4283 -0.6594 -0.3353
14272WAT     H158893   5.444   4.047   1.526 -0.7262 -0.6513  1.0917
14272WAT     H258894   5.298   4.013   1.506 -0.9199 -0.3512  1.9393
14272WAT    EPW58895   5.362   4.072   1.509 -0.5324 -0.6175  0.1529
14273WAT      O58896  -1.900   6.149   7.054 -0.2012 -0.1138 -0.3078
14273WAT     H158897  -1.854   6.093   6.991 -1.3813 -1.1453 -0.2995
14273WAT     H258898  -1.989   6.156   7.019 -1.4367 -2.2356  2.0981
14273WAT    EPW58899  -1.905   6.142   7.041 -0.5198 -0.5295  0.0107
14274WAT      O58900   0.633   0.534   8.140  0.5658  0.0523 -0.1782
14274WAT     H158901   0.643   0.485   8.059 -0.9136 -1.6943  0.6254
14274WAT     H258902   0.720   0.570   8.157  1.4987 -1.5267 -1.3107
14274WAT    EPW58903   0.646   0.532   8.132  0.4937 -0.3863 -0.2217
14275WAT      O58904   6.430   5.076   2.914 -0.4316 -0.2707  0.3868
14275WAT     H158905   6.410   5.089   3.006  0.7220  0.1495  0.5951
14275WAT     H258906   6.441   5.164   2.879  1.5936 -0.4594  0.4468
14275WAT    EPW58907   6.429   5.089   2.921 -0.0122 -0.2403  0.4222
14276WAT      O58908   2.084   2.775   3.555 -0.4115 -0.5444  0.3258
14276WAT     H158909   2.099   2.821   3.472  2.4997 -2.4326 -0.3663
14276WAT     H258910   2.088   2.843   3.622  0.4344  0.6466 -0.8813
14276WAT    EPW58911   2.087   2.790   3.553  0.0840 -0.6365  0.0753
14277WAT      O58912   4.040   1.973   4.740 -0.3180  0.3045 -0.2656
14277WAT     H158913   4.042   2.050   4.683 -1.7637  0.9800  0.5447
14277WAT     H258914   3.955   1.977   4.784  0.1430 -0.9981  0.8430
14277WAT    EPW58915   4.029   1.983   4.739 -0.4480  0.2218 -0.0126
14278WAT      O58916   3.445   3.591   5.792 -0.0321  0.6109 -0.0694
14278WAT     H158917   3.477   3.567   5.878  0.9144 -0.3041 -0.6584
14278WAT     H258918   3.508   3.656   5.759  1.0881 -0.9131 -1.0739
14278WAT    EPW58919   3.457   3.596   5.799  0.2404  0.2892 -0.2797
14279WAT      O58920   3.526   6.005   7.637  0.2276 -0.6871  0.0392
14279WAT     H158921   3.516   5.988   7.544  3.0226 -1.1547 -0.2576
14279WAT     H258922   3.497   6.095   7.649 -1.7489 -1.1530 -0.9197
14279WAT    EPW58923   3.521   6.014   7.627  0.3356 -0.8101 -0.1264
14280WAT      O58924   5.001   5.231   4.063 -0.2542 -0.4822  0.4897
14280WAT     H158925   5.092   5.205   4.054  0.0264  0.5406  0.2073
14280WAT     H258926   4.957   5.194   3.987 -0.2052 -1.4772  0.9350
14280WAT    EPW58927   5.007   5.223   4.052 -0.2108 -0.4785  0.5112
14281WAT      O58928  -6.065  10.343   8.828 -0.8827 -0.1795 -0.0030
14281WAT     H158929  -6.142  10.378   8.873 -0.8059 -0.1343  0.0958
14281WAT     H258930  -6.056  10.254   8.862  1.7818  1.2060  3.5666
14281WAT    EPW58931  -6.074  10.336   8.839 -0.5214  0.0091  0.4807
14282WAT      O58932   6.930   0.547   2.824 -0.5928  0.7705 -0.6443
14282WAT     H158933   6.880   0.466   2.838  1.5135 -0.5621 -0.4220
14282WAT     H258934   6.890   0.610   2.885 -3.0227  0.2997 -1.6318
14282WAT    EPW58935   6.918   0.545   2.834 -0.6354  0.5327 -0.7453
14283WAT      O58936   0.644  10.203   6.680  0.4265 -0.1157  0.2820
14283WAT     H158937   0.705  10.265   6.640  0.4701  1.0657  2.0660
14283WAT     H258938   0.643  10.226   6.773  0.4822 -2.8612  1.0510
14283WAT    EPW58939   0.652  10.215   6.687  0.4396 -0.3219  0.6187
14284WAT      O58940  -4.886   8.777   3.618 -0.7832 -0.4203 -0.0529
14284WAT     H158941  -4.863   8.786   3.526 -0.5086  0.1354  0.0667
14284WAT     H258942  -4.981   8.784   3.620 -0.9128 -1.7172 -0.4331
14284WAT    EPW58943  -4.896   8.779   3.606 -0.7641 -0.5178 -0.0874
14285WAT      O58944  -2.998   3.523   4.937  0.2831 -0.0084  0.1517
14285WAT     H158945  -3.005   3.603   4.884 -1.4675  0.0308  0.4049
14285WAT     H258946  -3.055   3.538   5.012  0.5837 -1.1833  0.6409
14285WAT    EPW58947  -3.006   3.536   4.940  0.0919 -0.1583  0.2496
14286WAT      O58948  -1.355   5.734   5.001  0.2514  0.4751  0.2175
14286WAT     H158949  -1.416   5.682   4.949  1.6819 -1.0493 -0.0057
14286WAT     H258950  -1.381   5.825   4.984 -0.8049 -0.0655 -1.2795
14286WAT    EPW58951  -1.366   5.739   4.992  0.3008  0.2027 -0.0093
14287WAT      O58952   3.328   8.495   7.210  0.8912  0.0766 -0.4424
14287WAT     H158953   3.345   8.584   7.241 -1.3661  1.3680 -2.5516
14287WAT     H258954   3.294   8.449   7.286  1.7772  1.1095  0.6120
14287WAT    EPW58955   3.326   8.501   7.224  0.7104  0.3834 -0.5815
14288WAT      O58956  -2.082   9.396   6.976  0.5228 -0.6674  0.4800
14288WAT     H158957  -2.123   9.374   6.892 -0.8436  1.5552  0.4998
14288WAT     H258958  -1.990   9.376   6.963  0.4593  0.2188 -1.7883
14288WAT    EPW58959  -2.076   9.390   6.963  0.3341 -0.2570  0.1836
14289WAT      O58960   2.094   0.894   3.477  0.0989  0.5619 -0.4450
14289WAT     H158961   2.037   0.905   3.553  0.0860  1.7697 -0.6058
14289WAT     H258962   2.091   0.979   3.433  0.8946  0.1875 -1.2461
14289WAT    EPW58963   2.086   0.907   3.481  0.2022  0.6718 -0.5718
14290WAT      O58964   2.393   9.116   4.137 -0.2525 -0.2552 -0.6314
14290WAT     H158965   2.348   9.111   4.052 -1.8780 -1.2672  0.2546
14290WAT     H258966   2.472   9.166   4.118 -2.0806  2.3347 -2.1223
14290WAT    EPW58967   2.397   9.122   4.123 -0.7080 -0.0467 -0.7112
14291WAT      O58968   5.590   1.601   3.489  0.1785 -0.2628  0.1505
14291WAT     H158969   5.614   1.519   3.532 -0.8667  0.4856  2.3519
14291WAT     H258970   5.669   1.654   3.492  1.1108 -1.4215 -2.0497
14291WAT    EPW58971   5.603   1.597   3.495  0.1636 -0.3169  0.1508
14292WAT      O58972  -1.998   6.908   3.632 -0.5662  0.8772 -0.3833
14292WAT     H158973  -1.986   6.903   3.727 -1.2875 -1.1345 -0.3409
14292WAT     H258974  -2.006   6.816   3.605  2.7808  1.0924 -2.8322
14292WAT    EPW58975  -1.997   6.895   3.641 -0.2199  0.6404 -0.7007
14293WAT      O58976   1.013   0.992   1.266 -0.7139 -0.5581  0.1155
14293WAT     H158977   0.942   1.047   1.233  0.3766  0.7130 -0.1800
14293WAT     H258978   1.068   0.976   1.190  0.3046  0.0173  0.7190
14293WAT    EPW58979   1.011   0.997   1.251 -0.4358 -0.3146  0.1562
14294WAT      O58980   4.795   4.844   0.964  0.7221  0.6460  0.1324
14294WAT     H158981   4.808   4.759   0.922  0.3211  0.7988 -0.3086
14294WAT     H258982   4.738   4.826   1.039 -1.6597  0.9074 -1.5090
14294WAT    EPW58983   4.789   4.830   0.968  0.3552  0.7010 -0.1423
14295WAT      O58984   1.769   3.936   3.575  0.3840  0.8963  0.0882
14295WAT     H158985   1.692   3.939   3.519  2.1189  0.7257 -2.4347
14295WAT     H258986   1.835   3.987   3.529  2.7625 -1.5422  0.5508
14295WAT    EPW58987   1.767   3.943   3.562  0.9265  0.5521 -0.1836
14296WAT      O58988   1.878   9.334   1.857 -0.3566 -0.1128 -0.4918
14296WAT     H158989   1.889   9.266   1.791  2.6169 -2.3301  2.0113
14296WAT     H258990   1.919   9.412   1.818 -1.0423 -0.5688 -2.2177
14296WAT    EPW58991   1.885   9.335   1.843 -0.0549 -0.4649 -0.3892
14297WAT      O58992   7.640   3.475   1.487 -0.6288 -0.8719 -1.0236
14297WAT     H158993   7.559   3.430   1.464 -1.3056 -1.7327  2.4239
14297WAT     H258994   7.651   3.541   1.419 -1.4428 -3.9287 -4.4205
14297WAT    EPW58995   7.631   3.477   1.475 -0.8254 -1.3885 -1.0170
14298WAT      O58996   1.117   6.216   3.105  0.0253 -0.3162  0.0027
14298WAT     H158997   1.174   6.235   3.032 -0.2775  0.3579 -0.0635
14298WAT     H258998   1.098   6.122   3.097  1.1174 -0.5497  0.0397
14298WAT    EPW58999   1.122   6.206   3.094  0.1295 -0.2580 -0.0012
14299WAT      O59000   1.865   7.950   2.957  0.4915 -0.1675 -0.4274
14299WAT     H159001   1.956   7.939   2.927  0.1651 -1.6632 -0.9759
14299WAT     H259002   1.848   7.872   3.010 -0.5880 -0.1016 -0.6607
14299WAT    EPW59003   1.875   7.938   2.960  0.3061 -0.3560 -0.5306
14300WAT      O59004  -0.634   0.356   8.516 -0.0038 -0.7833  0.0088
14300WAT     H159005  -0.552   0.341   8.469 -0.0863 -1.4912  0.0819
14300WAT     H259006  -0.634   0.291   8.586  0.1049  0.2451  0.9899
14300WAT    EPW59007  -0.623   0.345   8.519 -0.0004 -0.7410  0.1478
14301WAT      O59008   9.022   2.273   1.007 -0.1679  0.2068  0.2658
14301WAT     H159009   8.926   2.268   1.008 -0.1733 -4.8279  0.8781
14301WAT     H259010   9.044   2.340   1.072 -3.2983 -0.1844  1.9083
14301WAT    EPW59011   9.012   2.281   1.015 -0.5817 -0.5089  0.5632
14302WAT      O59012   0.555   4.976   1.614  0.0818  0.0607  0.1256
14302WAT     H159013   0.502   5.037   1.563  1.6024  1.4707  0.1172
14302WAT     H259014   0.573   5.023   1.695 -0.5687 -1.3135  1.0923
14302WAT    EPW59015   0.551   4.991   1.618  0.1966  0.0651  0.2520
14303WAT      O59016   0.401   8.084   4.902  0.6272 -0.0051  0.1021
14303WAT     H159017   0.424   8.177   4.901 -0.8392  0.4146 -1.9338
14303WAT     H259018   0.449   8.048   4.976  1.5438  2.2910  0.7113
14303WAT    EPW59019   0.410   8.091   4.912  0.5547  0.3529 -0.0861
14304WAT      O59020   1.097   4.911   0.991 -0.1260 -0.3465 -0.7620
14304WAT     H159021   1.148   4.989   1.015  2.3975 -1.6630 -1.5692
14304WAT     H259022   1.037   4.899   1.065  0.1104  1.7587 -0.1513
14304WAT    EPW59023   1.095   4.920   1.004  0.2381 -0.2427 -0.7879
14305WAT      O59024  -0.585   5.713  -0.002  0.3241 -0.3339 -0.1814
14305WAT     H159025  -0.532   5.684   0.072 -0.3681  1.7960  1.2383
14305WAT     H259026  -0.675   5.694   0.023 -0.1452  2.6534  0.7443
14305WAT    EPW59027  -0.590   5.707   0.011  0.1709  0.3412  0.1280
14306WAT      O59028   3.550   0.213   0.089  0.5813  0.7102 -0.0907
14306WAT     H159029   3.517   0.129   0.058  1.1794  0.2977  0.3537
14306WAT     H259030   3.522   0.277   0.023  1.1320 -0.0178 -1.0542
14306WAT    EPW59031   3.542   0.211   0.076  0.7329  0.5598 -0.1592
14307WAT      O59032   2.786   6.906   1.883  0.9471  0.1434 -0.4087
14307WAT     H159033   2.732   6.828   1.868  1.9876 -0.2948 -2.1300
14307WAT     H259034   2.847   6.880   1.953 -0.6587  0.4782  1.1949
14307WAT    EPW59035   2.787   6.892   1.891  0.8726  0.1297 -0.4242
14308WAT      O59036   1.173   2.327   4.362  0.1559 -0.1225  0.3965
14308WAT     H159037   1.170   2.338   4.267 -1.4958 -3.2615 -0.0407
14308WAT     H259038   1.257   2.366   4.388  0.3341  1.4572 -2.1899
14308WAT    EPW59039   1.183   2.334   4.353 -0.0384 -0.3281 -0.0024
14309WAT      O59040   3.179   9.473   2.989 -0.2299  1.0373  0.2478
14309WAT     H159041   3.264   9.517   2.996 -0.1109  0.9515 -0.5406
14309WAT     H259042   3.176   9.442   2.898 -1.6176  2.1012 -0.1035
14309WAT    EPW59043   3.190   9.475   2.978 -0.3972  1.1668  0.0975
14310WAT      O59044   6.497   4.668   0.823 -0.0395 -0.1206 -0.1958
14310WAT     H159045   6.498   4.610   0.899  2.3298  0.8039  0.5719
14310WAT     H259046   6.407   4.702   0.820  0.2189  1.3473  3.4639
14310WAT    EPW59047   6.485   4.665   0.832  0.3071  0.1948  0.3882
14311WAT      O59048   4.372   5.914   1.865  0.0271 -0.0369  0.2977
14311WAT     H159049   4.400   5.989   1.812 -1.0763 -0.2630 -0.6310
14311WAT     H259050   4.447   5.896   1.922  0.5670  1.3305  0.0539
14311WAT    EPW59051   4.386   5.921   1.865 -0.0472  0.1137  0.1431
14312WAT      O59052   1.166   8.657   0.085  0.1783 -0.5375  0.4187
14312WAT     H159053   1.120   8.735   0.055 -3.1535 -1.8633  1.5743
14312WAT     H259054   1.258   8.674   0.065 -0.3667  3.6088  0.6067
14312WAT    EPW59055   1.172   8.669   0.078 -0.3330 -0.1655  0.5959
14313WAT      O59056   1.449   5.767   6.427 -0.7198  0.3599  0.6757
14313WAT     H159057   1.410   5.846   6.464 -1.2163 -0.3258  1.6525
14313WAT     H259058   1.376   5.706   6.417  0.2133 -1.5903  4.1796
14313WAT    EPW59059   1.434   5.769   6.430 -0.6623  0.0124  1.2667
14314WAT      O59060   1.459   6.167   7.133  0.2851 -0.3001 -0.6638
14314WAT     H159061   1.540   6.134   7.094 -0.7252 -2.5215 -1.0650
14314WAT     H259062   1.472   6.157   7.227  0.2893 -1.2493 -0.7484
14314WAT    EPW59063   1.471   6.161   7.140  0.1525 -0.7184 -0.7277
14315WAT      O59064   6.532   7.883   0.606  0.1191 -0.0009 -0.0953
14315WAT     H159065   6.567   7.865   0.693 -1.0900  0.0453  0.4208
14315WAT     H259066   6.493   7.970   0.613  0.5114  0.2498 -0.8530
14315WAT    EPW59067   6.531   7.892   0.618  0.0114  0.0381 -0.1272
14316WAT      O59068  -0.679   9.050   3.477 -0.2030  0.3453 -0.4992
14316WAT     H159069  -0.752   9.008   3.430 -1.8865  1.5183  0.9434
14316WAT     H259070  -0.685   9.142   3.453 -0.6364  0.8453  1.3769
14316WAT    EPW59071  -0.689   9.056   3.467 -0.4822  0.5660 -0.0614
14317WAT      O59072  -3.359   2.958   8.679  0.2551  0.2200  0.3290
14317WAT     H159073  -3.386   2.866   8.681  0.1988  0.2452  0.7092
14317WAT     H259074  -3.280   2.961   8.733 -0.0776  0.5061  0.8025
14317WAT    EPW59075  -3.352   2.946   8.686  0.2040  0.2611  0.4416
14318WAT      O59076  -2.056   2.234   7.413 -0.1936 -0.6907 -0.2478
14318WAT     H159077  -1.969   2.265   7.441 -0.6351 -0.0300  0.4626
14318WAT     H259078  -2.053   2.236   7.318  0.6507 -0.8961 -0.2332
14318WAT    EPW59079  -2.044   2.238   7.404 -0.1404 -0.6306 -0.1521
14319WAT      O59080   3.548   8.015   6.286 -0.6522  0.1073  0.3853
14319WAT     H159081   3.507   8.087   6.239  0.0092  0.4862  0.3779
14319WAT     H259082   3.584   8.055   6.365  0.8500  0.0447 -0.2406
14319WAT    EPW59083   3.547   8.030   6.291 -0.3668  0.1488  0.3016
14320WAT      O59084   5.190   9.143   2.355  0.0555 -0.2242 -0.6779
14320WAT     H159085   5.228   9.177   2.274  1.7950  1.5790  0.7736
14320WAT     H259086   5.156   9.057   2.332 -1.1579  0.9343 -3.7234
14320WAT    EPW59087   5.190   9.136   2.341  0.1249  0.1664 -0.8882
14321WAT      O59088  -4.348   2.948   5.686  0.0549  0.3555  0.0803
14321WAT     H159089  -4.302   2.865   5.694 -1.6750 -0.5920  0.9005
14321WAT     H259090  -4.441   2.924   5.684 -0.4565  2.1529 -1.4509
14321WAT    EPW59091  -4.354   2.934   5.686 -0.2408  0.4677 -0.0134
14322WAT      O59092   4.836   8.000   1.167  0.1610  0.5614 -0.3925
14322WAT     H159093   4.901   7.966   1.227 -1.2914 -3.4947 -0.8453
14322WAT     H259094   4.883   8.011   1.084  0.5715 -1.4653 -0.4819
14322WAT    EPW59095   4.851   7.997   1.164  0.0236 -0.2406 -0.4640
14323WAT      O59096  -5.954   3.177   8.230  0.6115 -0.0083 -0.1070
14323WAT     H159097  -5.862   3.154   8.245  0.5395 -0.3599 -0.1868
14323WAT     H259098  -6.001   3.094   8.242  0.2360  0.2873  0.5186
14323WAT    EPW59099  -5.948   3.163   8.234  0.5524 -0.0156 -0.0348
14324WAT      O59100  -2.176   5.529   3.785 -0.1797 -0.7742  0.8301
14324WAT     H159101  -2.215   5.560   3.867 -0.8170  0.9600 -0.0865
14324WAT     H259102  -2.221   5.447   3.766  0.7604 -1.8107  2.7641
14324WAT    EPW59103  -2.187   5.523   3.793 -0.1398 -0.6824  0.9643
14325WAT      O59104   5.702   0.145   4.801  0.0110  0.0280  0.0607
14325WAT     H159105   5.716   0.220   4.743  0.1277 -0.9832 -1.2655
14325WAT     H259106   5.746   0.169   4.883 -0.2157  1.5194 -0.2324
14325WAT    EPW59107   5.709   0.158   4.804 -0.0036  0.0914 -0.1528
14326WAT      O59108  -1.991   7.244   3.275 -0.0116 -0.0335 -0.0856
14326WAT     H159109  -2.021   7.276   3.360  1.7246 -0.6112  0.8056
14326WAT     H259110  -2.035   7.159   3.264  1.9005 -1.3761  1.6940
14326WAT    EPW59111  -2.001   7.237   3.285  0.4697 -0.2868  0.2667
14327WAT      O59112  -4.562   9.062   2.876  0.4379 -0.1213 -0.2650
14327WAT     H159113  -4.638   9.114   2.849  1.6351  1.4651 -0.8044
14327WAT     H259114  -4.560   9.070   2.971  0.8235  1.2368 -0.3566
14327WAT    EPW59115  -4.572   9.070   2.885  0.6464  0.2670 -0.3482
14328WAT      O59116   4.727   0.824   0.055 -0.3065 -0.2333  0.1586
14328WAT     H159117   4.675   0.770  -0.004 -0.8226  1.2815 -0.8452
14328WAT     H259118   4.662   0.870   0.109 -0.2107  2.5616 -1.8832
14328WAT    EPW59119   4.711   0.823   0.054 -0.3619  0.3352 -0.2431
14329WAT      O59120   5.426   6.759   4.978 -0.1313  0.4938  0.2714
14329WAT     H159121   5.459   6.767   5.068 -1.6042 -0.6402  0.9559
14329WAT     H259122   5.392   6.846   4.957 -0.0809  0.6794  0.9322
14329WAT    EPW59123   5.426   6.771   4.987 -0.3190  0.3688  0.4487
14330WAT      O59124   2.577   1.964   8.773  0.7367 -0.1457  0.1469
14330WAT     H159125   2.571   1.886   8.829  0.0706 -1.1558 -1.2810
14330WAT     H259126   2.552   1.933   8.686  1.7971  1.3770 -0.7357
14330WAT    EPW59127   2.573   1.950   8.769  0.7888 -0.0781 -0.1578
14331WAT      O59128  -6.206   6.060   7.219 -0.2394  0.0867 -0.4868
14331WAT     H159129  -6.122   6.023   7.190  0.6790  0.5891  1.3573
14331WAT     H259130  -6.229   6.009   7.296 -1.3117  0.4049 -0.5804
14331WAT    EPW59131  -6.198   6.048   7.225 -0.2596  0.1950 -0.2561
14332WAT      O59132   3.509   3.218   4.569  0.2992  0.1915 -0.8233
14332WAT     H159133   3.500   3.139   4.623  1.6529 -0.0257 -0.8806
14332WAT     H259134   3.603   3.231   4.561  0.1055  1.1435 -1.8113
14332WAT    EPW59135   3.520   3.209   4.575  0.4522  0.2884 -0.9611
14333WAT      O59136   4.601   1.344   3.286 -0.6678  0.8079 -0.0142
14333WAT     H159137   4.599   1.439   3.299  1.5771  1.2796 -2.2823
14333WAT     H259138   4.536   1.328   3.218  0.0020  0.9423 -0.6870
14333WAT    EPW59139   4.592   1.354   3.279 -0.2832  0.8878 -0.4020
14334WAT      O59140  -6.008   4.421   8.279  0.5046  0.4683  0.0257
14334WAT     H159141  -5.955   4.393   8.204 -0.3713  0.3332 -0.5481
14334WAT     H259142  -6.094   4.440   8.242 -0.1479 -0.2907  1.0956
14334WAT    EPW59143  -6.012   4.420   8.264  0.3030  0.3502  0.0911
14335WAT      O59144  -2.267   3.905   4.572 -0.2458  0.5233 -0.0863
14335WAT     H159145  -2.333   3.863   4.517  0.2499  1.8400 -1.7574
14335WAT     H259146  -2.248   3.988   4.529  4.1639 -0.7161 -1.0501
14335WAT    EPW59147  -2.273   3.910   4.559  0.4013  0.5335 -0.4337
14336WAT      O59148   6.211   8.377   1.787  0.4496 -0.0710 -0.2483
14336WAT     H159149   6.294   8.332   1.802  1.0359  0.2286 -2.3742
14336WAT     H259150   6.191   8.361   1.695 -1.0967  1.1174 -0.1590
14336WAT    EPW59151   6.219   8.369   1.777  0.3231  0.1249 -0.5169
14337WAT      O59152   4.046   3.756   8.091 -0.5270 -0.2153 -0.5560
14337WAT     H159153   4.087   3.817   8.152  1.7041 -1.6192 -0.5412
14337WAT     H259154   4.113   3.689   8.076 -1.5779 -0.7560 -3.3411
14337WAT    EPW59155   4.060   3.755   8.097 -0.3715 -0.4717 -0.9217
14338WAT      O59156   0.821   4.838   0.667 -0.3891 -0.4758  0.0839
14338WAT     H159157   0.760   4.862   0.597 -1.2477  2.1471  1.6101
14338WAT     H259158   0.833   4.918   0.717  0.4997 -2.1527  2.7454
14338WAT    EPW59159   0.815   4.852   0.664 -0.3851 -0.3512  0.6363
14339WAT      O59160  -1.573   8.467   2.103 -0.8225  0.0280 -0.2000
14339WAT     H159161  -1.505   8.520   2.143 -2.9385  3.3392 -0.6111
14339WAT     H259162  -1.529   8.422   2.031  1.0775  1.5026 -0.0375
14339WAT    EPW59163  -1.558   8.468   2.099 -0.8510  0.6590 -0.2328
14340WAT      O59164   3.052   2.656   4.317 -0.8317 -0.2416  0.7348
14340WAT     H159165   3.122   2.662   4.382  2.5071 -0.5979 -2.4791
14340WAT     H259166   3.045   2.744   4.281  0.4520 -0.8806 -1.2138
14340WAT    EPW59167   3.060   2.668   4.321 -0.2220 -0.3729  0.0539
14341WAT      O59168  -4.037   0.237   8.752  0.2732  0.7304  0.6575
14341WAT     H159169  -3.980   0.175   8.708 -0.8018  0.3146 -0.1896
14341WAT     H259170  -3.988   0.319   8.754  0.6442  0.5469 -0.6152
14341WAT    EPW59171  -4.023   0.240   8.747  0.1805  0.6514  0.3781
14342WAT      O59172   3.583   8.641   1.363 -0.4308 -0.0403 -0.3160
14342WAT     H159173   3.678   8.637   1.375 -0.5660  0.6550  1.2165
14342WAT     H259174   3.562   8.561   1.315  1.0946  0.5571 -2.0799
14342WAT    EPW59175   3.593   8.630   1.358 -0.2475  0.1297 -0.3465
14343WAT      O59176   4.276   6.301   3.048  1.1717  0.2912 -0.0443
14343WAT     H159177   4.212   6.297   2.976  2.7624  1.7918 -1.6318
14343WAT     H259178   4.361   6.292   3.005  2.1513  0.2085  1.8019
14343WAT    EPW59179   4.279   6.299   3.033  1.5106  0.4783 -0.0100
14344WAT      O59180   2.928   6.649   7.222 -0.7842  0.1321  0.3361
14344WAT     H159181   3.017   6.685   7.229  0.9158 -3.6104  0.4004
14344WAT     H259182   2.906   6.656   7.129 -1.0773  2.2792  0.5140
14344WAT    EPW59183   2.937   6.655   7.211 -0.5987 -0.0782  0.3681
14345WAT      O59184   1.416   7.234   6.450  0.6086 -0.1957  0.1732
14345WAT     H159185   1.392   7.172   6.519 -0.1468  0.8831  0.9094
14345WAT     H259186   1.373   7.200   6.371 -0.6004 -0.1084  0.7716
14345WAT    EPW59187   1.407   7.221   6.449  0.3495 -0.0420  0.3493
14346WAT      O59188   6.808   1.776   3.638  0.3526 -0.5119 -0.1299
14346WAT     H159189   6.742   1.716   3.672  0.4262 -0.3910  0.2313
14346WAT     H259190   6.890   1.745   3.676  0.3063  0.1971  0.5771
14346WAT    EPW59191   6.810   1.764   3.648  0.3562 -0.4025  0.0111
14347WAT      O59192   2.038  10.302   6.478 -0.2348  0.6783 -0.5834
14347WAT     H159193   1.988  10.360   6.420  1.4608  1.4919 -1.2947
14347WAT     H259194   2.103  10.359   6.519  1.1881 -0.6272 -0.9425
14347WAT    EPW59195   2.040  10.317   6.476  0.1765  0.6137 -0.7246
14348WAT      O59196  -0.989   2.629   6.515  0.2333 -0.5273 -0.0531
14348WAT     H159197  -0.926   2.609   6.446 -0.7875  1.3160 -1.6237
14348WAT     H259198  -0.955   2.707   6.558 -0.0426 -0.6196  0.3396
14348WAT    EPW59199  -0.977   2.636   6.512  0.0623 -0.2964 -0.2086
14349WAT      O59200   2.858   5.302   6.688  0.5278  0.0959 -0.2474
14349WAT     H159201   2.917   5.355   6.742 -1.2254  0.3713  1.5243
14349WAT     H259202   2.793   5.269   6.750 -1.0542 -0.3855 -2.0712
14349WAT    EPW59203   2.857   5.304   6.704  0.0879  0.0687 -0.2544
14350WAT      O59204  -1.434   0.068   3.476  0.0655 -0.0372 -0.2627
14350WAT     H159205  -1.442   0.153   3.433  0.9230  0.0511 -0.2698
14350WAT     H259206  -1.411   0.089   3.566 -2.7270 -0.1862  0.5713
14350WAT    EPW59207  -1.432   0.082   3.482 -0.1897 -0.0452 -0.1535
14351WAT      O59208  -1.740   3.986   7.544  0.3024  0.2125  0.3225
14351WAT     H159209  -1.665   3.961   7.491 -0.3958 -2.1929  0.3558
14351WAT     H259210  -1.779   4.060   7.498  1.1221 -0.2657 -1.1823
14351WAT    EPW59211  -1.735   3.993   7.531  0.3184 -0.1677  0.1283
14352WAT      O59212   2.339   9.493   8.061 -0.5260  0.0681 -0.8150
14352WAT     H159213   2.281   9.497   8.137  1.3363  1.2215  0.6224
14352WAT     H259214   2.298   9.551   7.996 -0.9968  0.8335  0.1432
14352WAT    EPW59215   2.326   9.501   8.062 -0.3425  0.3214 -0.4988
14353WAT      O59216   5.849   2.715   3.390 -0.4431  0.3249 -0.5548
14353WAT     H159217   5.929   2.764   3.406 -0.9436  0.9492  0.0668
14353WAT     H259218   5.786   2.780   3.360 -0.7852 -0.1261 -0.8340
14353WAT    EPW59219   5.851   2.730   3.388 -0.5541  0.3477 -0.5096
14354WAT      O59220   2.769   1.490   4.678 -0.5199 -0.0993 -0.2358
14354WAT     H159221   2.763   1.580   4.644  0.0433 -0.5752 -1.7030
14354WAT     H259222   2.854   1.459   4.645  0.6313 -0.2629  2.6034
14354WAT    EPW59223   2.780   1.498   4.669 -0.2939 -0.1836 -0.0548
14355WAT      O59224   2.869   8.322   2.170  0.2922 -0.0642 -0.0220
14355WAT     H159225   2.896   8.277   2.250 -0.4999 -1.9362 -0.7395
14355WAT     H259226   2.951   8.351   2.131  0.7996 -0.3807  0.7698
14355WAT    EPW59227   2.883   8.320   2.176  0.2546 -0.3529 -0.0122
14356WAT      O59228   3.971   9.711   5.570  0.1580 -0.8247  0.3842
14356WAT     H159229   3.947   9.628   5.530  0.2354 -0.8391  0.3676
14356WAT     H259230   3.914   9.775   5.527  1.9925 -0.4556 -1.6408
14356WAT    EPW59231   3.960   9.709   5.559  0.4103 -0.7782  0.1152
14357WAT      O59232   2.198   2.623   4.074 -0.2682 -0.3680 -0.6953
14357WAT     H159233   2.145   2.544   4.065  1.1477 -1.4031 -0.2101
14357WAT     H259234   2.218   2.629   4.167  1.2426 -0.5408 -0.9856
14357WAT    EPW59235   2.193   2.614   4.085  0.1178 -0.5274 -0.6697
14358WAT      O59236   3.828   9.276   0.391  0.3863 -0.2658 -1.2609
14358WAT     H159237   3.879   9.297   0.312  4.0091  3.6128  1.6834
14358WAT     H259238   3.765   9.347   0.398  0.6119 -0.1544 -0.2782
14358WAT    EPW59239   3.826   9.288   0.381  0.8940  0.2604 -0.7430
14359WAT      O59240  -1.412   3.674   3.702  0.3885  0.6328  0.4152
14359WAT     H159241  -1.504   3.652   3.711  0.6771 -0.5151  0.8305
14359WAT     H259242  -1.372   3.645   3.784  1.3490 -0.2641 -0.3346
14359WAT    EPW59243  -1.419   3.667   3.714  0.5533  0.3631  0.3711
14360WAT      O59244  -1.810   7.924   7.410 -0.0211 -0.5481  0.2305
14360WAT     H159245  -1.890   7.876   7.386  0.2546 -1.8008  1.7181
14360WAT     H259246  -1.781   7.963   7.327 -2.4140  0.3760 -0.2791
14360WAT    EPW59247  -1.817   7.923   7.396 -0.3004 -0.5915  0.3598
14361WAT      O59248   4.532   3.365   3.315  0.5822 -0.0368  0.3420
14361WAT     H159249   4.606   3.313   3.346  1.8788  1.9613  0.7153
14361WAT     H259250   4.556   3.391   3.226 -0.4318 -0.6983 -0.1534
14361WAT    EPW59251   4.545   3.361   3.308  0.6196  0.1396  0.3259
14362WAT      O59252   4.112   1.068   5.169 -0.6058 -0.0102 -0.2145
14362WAT     H159253   4.120   1.155   5.208 -5.1887  0.7524 -0.4658
14362WAT     H259254   4.119   1.007   5.243  0.5457  0.6588  0.2542
14362WAT    EPW59255   4.114   1.071   5.184 -1.0583  0.1786 -0.1860
14363WAT      O59256  -0.509   6.704   6.546 -0.4935  0.1203 -0.2795
14363WAT     H159257  -0.456   6.753   6.483 -0.0023  3.3879  2.3728
14363WAT     H259258  -0.469   6.723   6.631 -1.2142 -3.8933  1.1895
14363WAT    EPW59259  -0.497   6.713   6.549 -0.5238  0.0219  0.2642
14364WAT      O59260   6.732   5.163   2.292 -0.1995  0.0299 -0.0092
14364WAT     H159261   6.714   5.223   2.220 -1.8454  2.3693  2.2040
14364WAT     H259262   6.826   5.173   2.308 -0.3243  1.5336 -0.1122
14364WAT    EPW59263   6.742   5.172   2.285 -0.4330  0.5367  0.2691
14365WAT      O59264  -3.901   5.848   8.272 -0.4276 -0.0774  1.2281
14365WAT     H159265  -3.943   5.790   8.336  2.9616 -0.6859  3.1700
14365WAT     H259266  -3.940   5.934   8.289  0.3552 -0.2114  4.2675
14365WAT    EPW59267  -3.912   5.852   8.283  0.1228 -0.1755  1.8849
14366WAT      O59268   4.282   7.707   1.351  0.6517  0.8532  0.1114
14366WAT     H159269   4.248   7.782   1.302 -3.0741 -0.8414 -0.2331
14366WAT     H259270   4.306   7.643   1.283 -1.1797 -0.1725  0.3787
14366WAT    EPW59271   4.281   7.708   1.335 -0.0811  0.4945  0.1012
14367WAT      O59272   5.166   0.055   0.178  0.4122  0.0229 -1.1564
14367WAT     H159273   5.116   0.011   0.109  1.7865 -1.6364 -1.1636
14367WAT     H259274   5.257   0.033   0.159  0.7491 -3.3460  2.9043
14367WAT    EPW59275   5.172   0.046   0.166  0.6380 -0.6403 -0.6218
14368WAT      O59276  -4.303   8.051   6.172 -1.0732  0.1363 -0.4730
14368WAT     H159277  -4.268   8.128   6.217 -0.2099  0.0287 -0.9425
14368WAT     H259278  -4.244   7.980   6.197  0.3978  0.3677 -2.9601
14368WAT    EPW59279  -4.291   8.052   6.181 -0.7656  0.1526 -0.8631
14369WAT      O59280   6.541   9.069   0.347 -0.3346 -0.1796  0.7652
14369WAT     H159281   6.574   9.010   0.415  0.3796  1.6591  2.1090
14369WAT     H259282   6.591   9.046   0.269  1.6167  0.1465  1.8504
14369WAT    EPW59283   6.552   9.058   0.346  0.0169  0.1059  1.0855
14370WAT      O59284   5.033   0.386   5.330 -0.6800  0.0496 -0.0420
14370WAT     H159285   5.046   0.469   5.377  2.6801  0.3970 -1.3061
14370WAT     H259286   4.953   0.400   5.279  0.2570  2.9407 -0.9271
14370WAT    EPW59287   5.024   0.399   5.330 -0.1132  0.4767 -0.3254
14371WAT      O59288  -2.150   0.685   3.707  0.7281  0.4859 -0.6553
14371WAT     H159289  -2.064   0.648   3.690  0.4082 -1.1340  0.9858
14371WAT     H259290  -2.194   0.620   3.761 -1.6138  1.1705 -1.6097
14371WAT    EPW59291  -2.145   0.672   3.712  0.3771  0.3625 -0.5647
14372WAT      O59292   5.562  10.273   1.945 -0.2584 -0.4117  0.0450
14372WAT     H159293   5.483  10.222   1.927  0.8313 -1.7190 -1.2925
14372WAT     H259294   5.618  10.258   1.869  0.8464  1.3820  0.4454
14372WAT    EPW59295   5.559  10.264   1.932  0.0308 -0.3471 -0.0786
14373WAT      O59296   2.585   6.118   5.101 -0.1107  0.3791  0.7897
14373WAT     H159297   2.547   6.176   5.036  0.2135  0.2442  0.4810
14373WAT     H259298   2.512   6.062   5.129 -0.0669 -0.0908 -0.0286
14373WAT    EPW59299   2.570   6.118   5.096 -0.0621  0.2995  0.6411
14374WAT      O59300   1.613   6.358   5.809 -0.9312 -0.1112  0.6862
14374WAT     H159301   1.613   6.434   5.867  0.2184  0.8149 -0.4807
14374WAT     H259302   1.654   6.389   5.729 -0.9988 -1.8105 -0.0392
14374WAT    EPW59303   1.618   6.372   5.806 -0.7886 -0.2134  0.4365
14375WAT      O59304  -7.146   8.300   7.076 -0.2530 -0.7344 -0.1267
14375WAT     H159305  -7.056   8.330   7.063 -0.6587  0.4046 -0.3889
14375WAT     H259306  -7.139   8.235   7.146  0.6704 -0.0952  0.4092
14375WAT    EPW59307  -7.133   8.295   7.083 -0.1848 -0.5002 -0.0906
14376WAT      O59308  -0.084   5.864   5.352 -0.0291 -0.0942  0.4861
14376WAT     H159309  -0.076   5.908   5.436 -0.0638 -1.6601  1.3615
14376WAT     H259310  -0.023   5.790   5.359  0.2714 -0.0251 -1.0368
14376WAT    EPW59311  -0.075   5.860   5.364  0.0060 -0.2916  0.4005
14377WAT      O59312  -1.264   2.535   6.074 -0.1218  0.0107  0.0047
14377WAT     H159313  -1.274   2.580   6.158  1.7230  0.2819  0.1207
14377WAT     H259314  -1.331   2.574   6.018 -0.0567  1.3070  0.7759
14377WAT    EPW59315  -1.274   2.546   6.078  0.1301  0.2176  0.1218
14378WAT      O59316   4.088  10.094   1.651 -0.1682 -0.2726 -0.5523
14378WAT     H159317   4.112  10.024   1.591 -1.4386 -0.4551 -0.8725
14378WAT     H259318   4.126  10.173   1.612 -0.2876 -0.5098 -1.1576
14378WAT    EPW59319   4.097  10.095   1.638 -0.3517 -0.3276 -0.6744
14379WAT      O59320  -0.947   6.790   1.851  1.0812  0.3811  0.7210
14379WAT     H159321  -0.975   6.786   1.759 -0.3612  2.5026  0.9960
14379WAT     H259322  -0.854   6.812   1.847  1.5254 -1.4520 -0.1979
14379WAT    EPW59323  -0.939   6.793   1.838  0.9495  0.4194  0.6361
14380WAT      O59324   4.108   4.619   1.577 -0.0511 -0.0763 -0.3944
14380WAT     H159325   4.198   4.600   1.605 -0.1309  0.2421  0.1094
14380WAT     H259326   4.059   4.540   1.599 -0.0451  0.0449  0.0897
14380WAT    EPW59327   4.114   4.606   1.584 -0.0610 -0.0184 -0.2641
14381WAT      O59328   4.601   2.951   1.401  0.2974 -0.2629 -0.3900
14381WAT     H159329   4.534   3.014   1.427 -0.7537 -0.5680 -2.2221
14381WAT     H259330   4.552   2.874   1.371  1.5128 -1.1751 -0.1265
14381WAT    EPW59331   4.586   2.949   1.401  0.3192 -0.4236 -0.5969
14382WAT      O59332  -2.679   7.611   3.702 -0.4125  0.3597  0.5513
14382WAT     H159333  -2.618   7.537   3.690  0.4249  1.2691 -1.2485
14382WAT     H259334  -2.623   7.685   3.722 -0.9081  1.1641 -0.8915
14382WAT    EPW59335  -2.664   7.611   3.703 -0.3674  0.5858  0.1235
14383WAT      O59336  -4.097   9.466   2.622  0.2186  0.1583  0.1857
14383WAT     H159337  -4.181   9.445   2.582  0.3770 -0.4871  0.1892
14383WAT     H259338  -4.068   9.545   2.576 -1.6691  2.0674  2.0289
14383WAT    EPW59339  -4.105   9.474   2.611 -0.0095  0.3252  0.4293
14384WAT      O59340  10.131   1.105   0.115 -0.0662 -0.0807 -0.1092
14384WAT     H159341  10.063   1.041   0.138  0.1271 -0.8435 -1.5588
14384WAT     H259342  10.192   1.057   0.060  1.2412  0.8195  0.5041
14384WAT    EPW59343  10.130   1.090   0.111  0.1321 -0.0626 -0.2195
14385WAT      O59344  -2.876   7.472   1.852  0.6043  0.0886 -0.1997
14385WAT     H159345  -2.907   7.420   1.927 -0.4733 -1.2886 -1.5457
14385WAT     H259346  -2.806   7.527   1.889 -0.5946  0.2502  2.0478
14385WAT    EPW59347  -2.871   7.473   1.867  0.3041 -0.0718 -0.0808
14386WAT      O59348   5.632   7.228   3.392 -0.3009 -0.4241 -1.4639
14386WAT     H159349   5.626   7.134   3.408  1.3448 -0.5318 -1.2806
14386WAT     H259350   5.698   7.236   3.323  0.2290  0.6366 -0.8589
14386WAT    EPW59351   5.640   7.216   3.385 -0.0141 -0.2985 -1.3599
14387WAT      O59352   3.914   3.456   7.896 -0.8048 -0.5874 -0.1239
14387WAT     H159353   3.930   3.375   7.945  0.3958 -0.4046 -0.1827
14387WAT     H259354   4.002   3.487   7.872 -1.1948  1.1281  0.5232
14387WAT    EPW59355   3.928   3.449   7.899 -0.6979 -0.3370 -0.0465
14388WAT      O59356   0.571   0.734   7.230 -0.0185 -0.0337  0.0515
14388WAT     H159357   0.510   0.731   7.156  0.7629  0.9242 -0.6616
14388WAT     H259358   0.526   0.687   7.300 -0.3236 -1.9957 -1.3611
14388WAT    EPW59359   0.557   0.728   7.229  0.0443 -0.1661 -0.2289
14389WAT      O59360   3.101   9.473   1.198 -0.1260  0.8312 -0.5770
14389WAT     H159361   3.089   9.553   1.146  0.3981 -0.6087 -3.0926
14389WAT     H259362   3.196   9.467   1.211 -0.1936  0.7791 -0.0807
14389WAT    EPW59363   3.112   9.483   1.193 -0.0658  0.6342 -0.8433
14390WAT      O59364  -3.047  10.083   3.900  0.0887  0.7893  0.8617
14390WAT     H159365  -3.129  10.046   3.932  0.2165 -1.0114 -0.7166
14390WAT     H259366  -2.979  10.036   3.948  0.2494 -1.0854 -1.0631
14390WAT    EPW59367  -3.049  10.072   3.911  0.1268  0.3047  0.3996
14391WAT      O59368   2.523   3.824   8.426 -0.1591  0.6383 -0.1608
14391WAT     H159369   2.529   3.744   8.374 -0.5183 -0.4549  1.4231
14391WAT     H259370   2.439   3.862   8.401 -0.4919 -0.0563 -0.1250
14391WAT    EPW59371   2.513   3.819   8.415 -0.2503  0.4026  0.0525
14392WAT      O59372   0.678   2.333   0.982 -0.4686  0.0853 -0.4220
14392WAT     H159373   0.669   2.427   0.965 -0.2677 -0.1810 -2.2081
14392WAT     H259374   0.764   2.324   1.023 -0.0228  0.5785 -1.2236
14392WAT    EPW59375   0.688   2.344   0.985 -0.3833  0.1152 -0.7633
14393WAT      O59376  -4.374   1.479   8.802  0.4031  0.5351 -0.9709
14393WAT     H159377  -4.436   1.412   8.831 -0.7370  1.7170 -0.5886
14393WAT     H259378  -4.423   1.531   8.738  1.1109  1.2675 -0.9278
14393WAT    EPW59379  -4.389   1.477   8.798  0.3462  0.7876 -0.9146
14394WAT      O59380  -2.536   6.405   8.927 -0.2385 -0.5446 -0.4292
14394WAT     H159381  -2.631   6.403   8.939 -0.1942 -2.2562 -0.1199
14394WAT     H259382  -2.516   6.325   8.879  1.2219 -1.0454  0.9271
14394WAT    EPW59383  -2.546   6.394   8.922 -0.0399 -0.8364 -0.2093
14395WAT      O59384   0.985   4.880   0.038  0.0408 -0.0167 -0.1860
14395WAT     H159385   1.005   4.830   0.118  0.1697 -0.1269 -0.2866
14395WAT     H259386   0.915   4.940   0.064  0.0196 -0.1163 -0.0128
14395WAT    EPW59387   0.978   4.881   0.052  0.0550 -0.0443 -0.1764
14396WAT      O59388  -5.178  10.164   4.005 -0.6615  0.7649 -0.1907
14396WAT     H159389  -5.272  10.166   3.985 -0.3611  0.2279 -1.8661
14396WAT     H259390  -5.137  10.144   3.921  1.0505  2.3093  0.2172
14396WAT    EPW59391  -5.185  10.162   3.991 -0.3963  0.8974 -0.3577
14397WAT      O59392   3.416   8.941   3.716  0.6200 -0.3819  0.2172
14397WAT     H159393   3.335   8.956   3.765  0.3786  1.3072 -0.6284
14397WAT     H259394   3.484   8.982   3.770  0.4531  0.8549 -0.4685
14397WAT    EPW59395   3.414   8.948   3.730  0.5660  0.0038  0.0153
14398WAT      O59396   7.461   3.834   0.756 -0.1967  0.2017  0.2817
14398WAT     H159397   7.433   3.744   0.738 -2.0670  0.8792 -0.4378
14398WAT     H259398   7.449   3.880   0.673  0.1626  1.2501  0.7948
14398WAT    EPW59399   7.456   3.828   0.742 -0.3960  0.4293  0.2545
14399WAT      O59400  -1.195   1.304   1.615 -0.0701 -0.5283  0.6223
14399WAT     H159401  -1.225   1.222   1.576 -0.2717 -0.6566  1.0474
14399WAT     H259402  -1.113   1.323   1.568 -0.2530 -0.7328  0.2099
14399WAT    EPW59403  -1.188   1.296   1.603 -0.1208 -0.5722  0.6239
14400WAT      O59404  -2.852   6.788   7.244  0.0436  0.2902  0.0701
14400WAT     H159405  -2.816   6.872   7.274  0.9656  0.5133 -1.5232
14400WAT     H259406  -2.874   6.803   7.152 -0.0257 -1.1302 -0.1656
14400WAT    EPW59407  -2.850   6.801   7.236  0.1562  0.1323 -0.1712
14401WAT      O59408   5.975   4.171   3.200  0.5650 -0.5683 -0.0936
14401WAT     H159409   5.923   4.099   3.165  1.7661 -0.1192 -3.0867
14401WAT     H259410   6.055   4.129   3.232  0.7547 -0.7257 -0.7475
14401WAT    EPW59411   5.979   4.156   3.200  0.7484 -0.5298 -0.5746
14402WAT      O59412   6.361  10.090   0.628  0.6063 -0.3237  1.1227
14402WAT     H159413   6.361  10.091   0.532  0.7224 -0.3054  1.1227
14402WAT     H259414   6.283  10.139   0.653 -0.0734 -1.3194  1.0230
14402WAT    EPW59415   6.351  10.096   0.618  0.5319 -0.4525  1.1096
14403WAT      O59416   1.515   8.245   6.584 -0.1496  0.1097  0.0256
14403WAT     H159417   1.580   8.180   6.609 -1.0969 -0.3311  1.5117
14403WAT     H259418   1.510   8.304   6.659  0.4474  1.7504 -1.1597
14403WAT    EPW59419   1.523   8.244   6.597 -0.1958  0.2680  0.0653
14404WAT      O59420   2.557   3.874   4.311 -0.4399 -0.2678 -0.2840
14404WAT     H159421   2.470   3.905   4.284  0.0218  1.8067  0.3781
14404WAT     H259422   2.597   3.842   4.231 -0.8042  1.4054 -1.1909
14404WAT    EPW59423   2.551   3.874   4.297 -0.4270  0.2265 -0.3161
14405WAT      O59424  -5.956   8.332   5.838  0.0418 -0.0959  0.3566
14405WAT     H159425  -5.900   8.254   5.835 -0.6005 -0.5212 -1.9145
14405WAT     H259426  -6.045   8.298   5.848 -0.2483  0.3257 -0.6894
14405WAT    EPW59427  -5.960   8.317   5.839 -0.0811 -0.0968 -0.0808
14406WAT      O59428  -4.112   9.250   1.993  0.1589 -0.2201  0.0481
14406WAT     H159429  -4.073   9.173   2.034  1.2871 -1.5781 -3.2562
14406WAT     H259430  -4.064   9.324   2.030  0.4659 -1.2189  1.7593
14406WAT    EPW59431  -4.101   9.250   2.003  0.3483 -0.5307 -0.1620
14407WAT      O59432  -1.596   5.108   6.279 -0.4161 -0.8844 -0.5627
14407WAT     H159433  -1.660   5.038   6.288 -1.8494  0.4394 -0.0282
14407WAT     H259434  -1.536   5.096   6.352 -1.2229 -0.9892  0.0887
14407WAT    EPW59435  -1.597   5.097   6.290 -0.7116 -0.7236 -0.4063
14408WAT      O59436   6.664   5.473   0.593 -0.1540 -0.6355  0.8937
14408WAT     H159437   6.620   5.389   0.581 -0.8721 -0.2936  1.0970
14408WAT     H259438   6.659   5.514   0.507 -1.1911 -0.1438  1.1823
14408WAT    EPW59439   6.658   5.467   0.580 -0.3853 -0.5255  0.9586
14409WAT      O59440  -0.253   5.505   6.536 -0.1147  0.2693 -0.3476
14409WAT     H159441  -0.232   5.594   6.508  0.7160 -0.0395 -0.7269
14409WAT     H259442  -0.333   5.484   6.487 -1.0641  1.2685  0.7328
14409WAT    EPW59443  -0.261   5.514   6.526 -0.1304  0.3603 -0.2551
14410WAT      O59444   7.967   1.401   2.908  0.6821 -0.4853  0.3951
14410WAT     H159445   8.003   1.318   2.940 -0.9390 -1.2707  0.2595
14410WAT     H259446   7.995   1.465   2.974  2.3502 -1.0169  0.2620
14410WAT    EPW59447   7.976   1.399   2.921  0.6883 -0.6590  0.3597
14411WAT      O59448   8.097   0.968   0.603 -0.1512  0.1951 -0.5069
14411WAT     H159449   8.154   1.037   0.638 -0.8582  2.1486 -2.8873
14411WAT     H259450   8.074   0.915   0.679 -0.5715  3.3276  1.7509
14411WAT    EPW59451   8.101   0.970   0.618 -0.2999  0.8659 -0.5231
14412WAT      O59452   6.411   9.039   1.404 -0.2267  0.9513  0.3615
14412WAT     H159453   6.395   9.083   1.488 -2.3453  0.7306  0.1390
14412WAT     H259454   6.374   9.099   1.339 -0.8376  0.0236 -0.1680
14412WAT    EPW59455   6.404   9.053   1.407 -0.5867  0.8001  0.2624
14413WAT      O59456   1.378   4.608   1.289  0.5025  0.0687  0.7612
14413WAT     H159457   1.462   4.570   1.313  0.7708  1.0150  1.3744
14413WAT     H259458   1.370   4.686   1.344 -0.5084  0.3127  0.2947
14413WAT    EPW59459   1.388   4.614   1.299  0.4046  0.2258  0.7805
14414WAT      O59460  -7.475   9.724   7.272  0.0981  0.1495  0.6346
14414WAT     H159461  -7.444   9.770   7.194 -0.4943  0.3554  0.5158
14414WAT     H259462  -7.467   9.632   7.250  1.2258  0.1825  0.8465
14414WAT    EPW59463  -7.470   9.718   7.259  0.1688  0.1812  0.6468
14415WAT      O59464   2.264   2.817   5.112 -0.2502  0.1334  0.4032
14415WAT     H159465   2.313   2.819   5.194  0.2646  0.4173  0.0959
14415WAT     H259466   2.263   2.908   5.082  0.0450 -0.0482 -0.1781
14415WAT    EPW59467   2.270   2.829   5.119 -0.1434  0.1470  0.2863
14416WAT      O59468   3.058   6.832   3.926  0.6017 -0.1923 -0.3096
14416WAT     H159469   3.107   6.843   3.844  0.8002  0.1598 -0.1478
14416WAT     H259470   3.045   6.738   3.934  1.5535 -0.3209 -0.1886
14416WAT    EPW59471   3.063   6.821   3.916  0.7534 -0.1626 -0.2724
14417WAT      O59472   0.748   9.093   6.569 -0.2258  0.0251  0.4252
14417WAT     H159473   0.829   9.071   6.524 -0.5124  0.6461 -0.4207
14417WAT     H259474   0.776   9.131   6.653  0.3097 -1.0491  0.7518
14417WAT    EPW59475   0.762   9.095   6.574 -0.1930 -0.0348  0.3567
14418WAT      O59476   0.181   2.589   1.398  0.2653 -0.0090 -0.2999
14418WAT     H159477   0.249   2.541   1.446 -0.2091 -0.7222 -0.3211
14418WAT     H259478   0.158   2.530   1.326 -1.2268 -0.3214  0.3971
14418WAT    EPW59479   0.187   2.575   1.395  0.0059 -0.1441 -0.2108
14419WAT      O59480  -0.642   9.782   5.581  0.7447  0.0650  0.2600
14419WAT     H159481  -0.554   9.806   5.607  0.8554  0.1253 -0.1698
14419WAT     H259482  -0.699   9.826   5.645  1.0571 -0.7812  1.1560
14419WAT    EPW59483  -0.638   9.791   5.593  0.8005 -0.0386  0.3216
14420WAT      O59484   7.449   8.686   0.692 -0.2199 -0.0600  0.4611
14420WAT     H159485   7.537   8.725   0.689  0.7739 -2.0030  1.9606
14420WAT     H259486   7.465   8.592   0.703 -2.4812 -0.9854 -2.7319
14420WAT    EPW59487   7.463   8.679   0.693 -0.3872 -0.4387  0.2377
14421WAT      O59488  -3.163   2.037   6.986  0.3787  0.8706 -0.4981
14421WAT     H159489  -3.170   1.983   7.065 -0.2768 -2.0362 -2.3534
14421WAT     H259490  -3.244   2.088   6.985  0.3559  0.8904  0.6611
14421WAT    EPW59491  -3.175   2.036   6.996  0.2891  0.4898 -0.5898
14422WAT      O59492   6.803   3.660   4.742 -0.1557  0.4580 -0.7136
14422WAT     H159493   6.851   3.593   4.791 -0.5350 -0.2138 -1.2456
14422WAT     H259494   6.776   3.616   4.662  1.2442  1.7845 -1.9836
14422WAT    EPW59495   6.806   3.645   4.738 -0.0210  0.5443 -0.9513
14423WAT      O59496   2.269   2.673   6.439  1.0810 -1.2957 -0.1048
14423WAT     H159497   2.246   2.666   6.347 -0.2034  0.9299 -0.0187
14423WAT     H259498   2.362   2.650   6.443  1.4723 -0.2543 -2.1524
14423WAT    EPW59499   2.278   2.669   6.428  0.9633 -0.8649 -0.3636
14424WAT      O59500   0.400   3.814   1.975 -0.2858  0.1199  0.1072
14424WAT     H159501   0.449   3.867   2.038 -0.2514  1.3585 -0.9187
14424WAT     H259502   0.317   3.796   2.019 -0.3997  1.2516  0.4060
14424WAT    EPW59503   0.396   3.819   1.989 -0.2963  0.4326  0.0113
14425WAT      O59504  -2.826   8.687   5.767  0.1207 -0.5356  0.2244
14425WAT     H159505  -2.749   8.673   5.711  0.0458  2.3294 -0.7359
14425WAT     H259506  -2.793   8.738   5.841 -0.7291  0.3092  0.0442
14425WAT    EPW59507  -2.811   8.692   5.770 -0.0012 -0.0463  0.0739
14426WAT      O59508  -2.838   7.176   6.206  0.0227  0.3457 -0.4868
14426WAT     H159509  -2.912   7.122   6.179 -0.3216  1.5321 -2.0778
14426WAT     H259510  -2.764   7.116   6.207 -0.8303 -0.7216  0.5221
14426WAT    EPW59511  -2.838   7.161   6.202 -0.1353  0.3614 -0.5636
14427WAT      O59512   2.757   5.600   6.116  0.9812 -0.4385  0.6424
14427WAT     H159513   2.791   5.528   6.062 -3.0519 -1.0636 -1.4763
14427WAT     H259514   2.762   5.566   6.206  1.7007 -2.2464 -0.0200
14427WAT    EPW59515   2.762   5.586   6.121  0.5442 -0.7594  0.2759
14428WAT      O59516   2.367   7.961   6.032  0.3203  0.4132  0.2156
14428WAT     H159517   2.427   7.957   6.107 -0.1024 -1.7168  0.5000
14428WAT     H259518   2.292   8.011   6.064  0.7515  0.7292  0.7463
14428WAT    EPW59519   2.365   7.967   6.046  0.3214  0.1740  0.3231
14429WAT      O59520   0.961   6.912   7.383  0.7395 -0.2097  0.0025
14429WAT     H159521   0.989   6.825   7.412 -1.5770 -1.0651 -0.1490
14429WAT     H259522   1.021   6.934   7.312  2.0607 -1.1858  0.7783
14429WAT    EPW59523   0.973   6.903   7.377  0.6082 -0.4513  0.0851
14430WAT      O59524   0.468   1.147   5.838 -1.0514  0.0711 -0.8287
14430WAT     H159525   0.373   1.134   5.840 -1.1656  0.5681 -1.9712
14430WAT     H259526   0.485   1.179   5.749  0.0139  1.3219 -0.2019
14430WAT    EPW59527   0.457   1.149   5.826 -0.9260  0.3017 -0.8967
14431WAT      O59528   3.376   6.213   3.378 -0.3583 -0.3319 -0.3074
14431WAT     H159529   3.372   6.305   3.351 -2.2842 -0.2095  0.1738
14431WAT     H259530   3.447   6.175   3.327 -0.4177  1.1099 -1.5218
14431WAT    EPW59531   3.384   6.220   3.368 -0.6201 -0.1256 -0.4041
14432WAT      O59532  -4.735   6.757   4.057  0.6038 -0.3709  0.3698
14432WAT     H159533  -4.684   6.691   4.011  1.4712  1.3424 -1.2999
14432WAT     H259534  -4.817   6.763   4.008  1.5678  1.5290 -1.1707
14432WAT    EPW59535  -4.739   6.749   4.044  0.8454  0.1056 -0.0536
14433WAT      O59536   0.275   5.239   6.852  0.0297  0.3514 -0.9680
14433WAT     H159537   0.342   5.293   6.893 -0.9450  0.5937  0.3821
14433WAT     H259538   0.216   5.215   6.924  0.2093 -2.1964 -1.5758
14433WAT    EPW59539   0.276   5.243   6.867 -0.0751  0.0474 -0.8702
14434WAT      O59540   6.913   2.445   2.699  0.2962 -0.6454  0.4482
14434WAT     H159541   7.002   2.440   2.732  0.4485 -0.4137  0.0815
14434WAT     H259542   6.870   2.510   2.754  0.7852  0.3659 -0.3342
14434WAT    EPW59543   6.919   2.453   2.710  0.3810 -0.4814  0.2967
14435WAT      O59544   1.478   9.924   3.758 -0.0636 -0.2198 -0.4838
14435WAT     H159545   1.540   9.895   3.826 -0.4451 -0.4079 -0.2099
14435WAT     H259546   1.393   9.925   3.803 -0.2028  0.3775 -0.7649
14435WAT    EPW59547   1.475   9.920   3.773 -0.1323 -0.1659 -0.4847
14436WAT      O59548  -1.382   5.137   1.993 -0.3774 -0.1713  0.5387
14436WAT     H159549  -1.387   5.146   1.898  0.8205  0.1201  0.4852
14436WAT     H259550  -1.292   5.160   2.014 -0.2748 -1.4457  1.6145
14436WAT    EPW59551  -1.371   5.141   1.983 -0.2059 -0.3009  0.6735
14437WAT      O59552  -2.401   2.942   5.377 -0.9919 -0.5678  0.0057
14437WAT     H159553  -2.389   3.037   5.383 -3.0385 -0.2676  0.2747
14437WAT     H259554  -2.438   2.917   5.461  1.2476 -1.9766  0.6627
14437WAT    EPW59555  -2.404   2.951   5.389 -0.9665 -0.7141  0.1278
14438WAT      O59556  -2.922   5.479   5.039  0.5365 -0.6313 -0.5081
14438WAT     H159557  -2.855   5.527   4.992 -1.0695  2.4176  0.0645
14438WAT     H259558  -2.895   5.483   5.131  1.2527 -2.4634 -0.5841
14438WAT    EPW59559  -2.910   5.486   5.045  0.4191 -0.4709 -0.4425
14439WAT      O59560   1.699   8.346   8.405 -0.0118  0.0247 -0.7007
14439WAT     H159561   1.783   8.382   8.378 -0.0151  0.6154  0.0428
14439WAT     H259562   1.657   8.417   8.454 -0.2217 -0.8210  0.3923
14439WAT    EPW59563   1.704   8.360   8.408 -0.0399 -0.0086 -0.4582
14440WAT      O59564   0.251   5.387   3.161  0.9637  0.1754 -0.4468
14440WAT     H159565   0.335   5.370   3.204  0.9971  1.3450 -0.0139
14440WAT     H259566   0.273   5.399   3.069  1.7364  3.2836  0.0292
14440WAT    EPW59567   0.265   5.386   3.155  1.0701  0.7396 -0.3269
14441WAT      O59568  -2.352   5.138   7.396  0.0465  0.4378  0.4450
14441WAT     H159569  -2.394   5.054   7.376 -0.2542 -0.1303  3.0995
14441WAT     H259570  -2.399   5.201   7.342 -0.5000 -0.9362 -0.7515
14441WAT    EPW59571  -2.364   5.135   7.386 -0.0652  0.1817  0.6373
14442WAT      O59572  -1.916   2.843   1.792  0.4569 -0.5110  0.2727
14442WAT     H159573  -1.838   2.797   1.760  0.9447  1.3105 -1.3673
14442WAT     H259574  -1.989   2.789   1.763  1.0377 -0.7721 -0.7671
14442WAT    EPW59575  -1.915   2.830   1.784  0.5978 -0.3052 -0.0808
14443WAT      O59576  -1.017   3.890   5.956  0.0871 -0.0104 -0.2055
14443WAT     H159577  -0.963   3.811   5.964 -1.0364 -0.8204 -0.3573
14443WAT     H259578  -1.086   3.878   6.021  0.6369  1.5019  0.7250
14443WAT    EPW59579  -1.019   3.878   5.966  0.0114  0.0824 -0.1030
14444WAT      O59580   4.244   4.246   2.683 -0.4579  0.1521 -0.4972
14444WAT     H159581   4.288   4.306   2.623  1.7948 -0.5555  0.3702
14444WAT     H259582   4.312   4.217   2.743 -2.2909 -0.4173  1.4196
14444WAT    EPW59583   4.259   4.250   2.683 -0.4025 -0.0162 -0.1301
14445WAT      O59584   6.118   0.055   1.435  0.3104  0.3164  0.3401
14445WAT     H159585   6.166   0.114   1.492  0.2649 -0.9192  1.7475
14445WAT     H259586   6.069  -0.001   1.495 -0.8705 -0.1250 -0.9753
14445WAT    EPW59587   6.118   0.055   1.450  0.1485  0.0952  0.3523
14446WAT      O59588   2.853   8.530   4.729  0.3292 -0.0611  0.1959
14446WAT     H159589   2.847   8.624   4.745  0.4917  0.0856 -0.5572
14446WAT     H259590   2.870   8.523   4.635 -2.4680 -0.9295 -0.3481
14446WAT    EPW59591   2.854   8.541   4.718 -0.0182 -0.1564  0.0248
14447WAT      O59592   6.148   4.318   1.265  0.5054  0.0198  0.1161
14447WAT     H159593   6.062   4.292   1.233  0.0846 -1.2273  2.1105
14447WAT     H259594   6.201   4.239   1.258  0.8942  0.2128  0.8057
14447WAT    EPW59595   6.144   4.304   1.260  0.5012 -0.1192  0.4701
14448WAT      O59596  -2.791  10.310   6.870 -0.5602 -0.4536 -0.6308
14448WAT     H159597  -2.835  10.231   6.901 -0.5281 -0.0401  0.5084
14448WAT     H259598  -2.852  10.348   6.808 -1.0178 -0.8445 -0.4267
14448WAT    EPW59599  -2.805  10.305   6.866 -0.6163 -0.4506 -0.4537
14449WAT      O59600   0.144   0.961   6.669 -0.7102 -1.1249 -0.6050
14449WAT     H159601   0.064   0.988   6.714  0.0158 -2.6024  1.7871
14449WAT     H259602   0.215   0.990   6.727  0.4380 -0.9796 -2.0282
14449WAT    EPW59603   0.143   0.968   6.683 -0.4630 -1.3006 -0.4773
14450WAT      O59604   6.925   1.517   5.701  0.4562 -0.4703  0.2658
14450WAT     H159605   7.016   1.501   5.728  0.7996 -1.3962 -1.2773
14450WAT     H259606   6.931   1.586   5.635  0.0561 -0.5662  0.1245
14450WAT    EPW59607   6.938   1.524   5.696  0.4487 -0.6050  0.0436
14451WAT      O59608   0.725   8.665   7.596  0.7726 -0.3231 -0.7532
14451WAT     H159609   0.641   8.637   7.561  1.0853 -1.6462 -0.5091
14451WAT     H259610   0.705   8.695   7.685  0.8491 -3.0408  0.2915
14451WAT    EPW59611   0.711   8.665   7.604  0.8239 -0.8564 -0.5832
14452WAT      O59612   8.618   2.921   1.640 -0.2956 -0.3813 -0.0107
14452WAT     H159613   8.539   2.914   1.694 -0.7564 -0.5747 -0.7063
14452WAT     H259614   8.655   3.007   1.664  0.5867 -1.2543  2.0358
14452WAT    EPW59615   8.612   2.932   1.650 -0.2403 -0.5220  0.1675
14453WAT      O59616   3.140   9.035   3.495  0.0923  0.2797 -0.4673
14453WAT     H159617   3.051   9.023   3.461  1.1135 -2.4236 -2.5562
14453WAT     H259618   3.183   9.092   3.432  0.7513 -1.2284 -1.4459
14453WAT    EPW59619   3.134   9.041   3.482  0.3139 -0.2756 -0.8719
14454WAT      O59620  -5.191   9.963   2.792  0.5296  0.4660 -0.8649
14454WAT     H159621  -5.136   9.929   2.863  1.6385  1.6891 -1.1054
14454WAT     H259622  -5.177   9.901   2.720  0.7160  0.1593 -0.5709
14454WAT    EPW59623  -5.182   9.950   2.792  0.7005  0.5870 -0.8579
14455WAT      O59624   4.422   4.255   4.262 -0.3324  0.2128 -0.6276
14455WAT     H159625   4.464   4.254   4.176 -0.4940  1.7532 -0.7506
14455WAT     H259626   4.335   4.291   4.245  0.2120  2.1822  0.3775
14455WAT    EPW59627   4.416   4.260   4.248 -0.2818  0.6759 -0.5112
14456WAT      O59628   3.236   2.981   7.428 -0.3469  0.1711  0.3815
14456WAT     H159629   3.247   3.057   7.485  1.4189 -0.1448  0.5139
14456WAT     H259630   3.323   2.941   7.424 -0.9711 -1.1638 -0.6476
14456WAT    EPW59631   3.249   2.986   7.435 -0.1962 -0.0465  0.2632
14457WAT      O59632   9.523   2.327   0.861  0.7168 -0.0053 -0.3019
14457WAT     H159633   9.559   2.392   0.922  0.4765 -1.2801  1.2497
14457WAT     H259634   9.472   2.268   0.916 -0.9387 -0.2328 -1.9934
14457WAT    EPW59635   9.521   2.328   0.876  0.4668 -0.2035 -0.3204
14458WAT      O59636   4.734   9.105   0.878  0.4025 -0.2763  0.3868
14458WAT     H159637   4.762   9.120   0.788  2.6544  0.6090  1.1535
14458WAT     H259638   4.683   9.182   0.901 -1.3336 -1.1120 -0.4980
14458WAT    EPW59639   4.731   9.117   0.869  0.4706 -0.2694  0.3712
14459WAT      O59640   3.065   1.848   6.243 -0.3105 -0.6628 -0.8778
14459WAT     H159641   3.123   1.798   6.185 -0.3401 -1.2174 -0.4386
14459WAT     H259642   3.017   1.781   6.292 -0.1306 -0.2019 -0.0622
14459WAT    EPW59643   3.066   1.832   6.242 -0.2908 -0.6751 -0.7124
14460WAT      O59644   7.620   6.863   1.155  0.4909  0.2151  0.2542
14460WAT     H159645   7.618   6.767   1.158  1.8543  0.1846  0.6955
14460WAT     H259646   7.531   6.887   1.129 -0.0805 -1.1353  0.8537
14460WAT    EPW59647   7.608   6.853   1.152  0.5953  0.0329  0.3915
14461WAT      O59648  -3.019   8.911   6.460  0.4148  0.2351 -0.1782
14461WAT     H159649  -2.995   9.001   6.437  2.1035 -0.3085 -0.6717
14461WAT     H259650  -3.030   8.867   6.376 -2.7922  0.4896 -0.0154
14461WAT    EPW59651  -3.017   8.917   6.446  0.2146  0.1969 -0.2220
14462WAT      O59652   7.170   4.421   2.046 -0.9114 -0.0428  0.3000
14462WAT     H159653   7.182   4.515   2.058  0.0574 -0.0979 -0.1320
14462WAT     H259654   7.146   4.389   2.133  1.8465  0.1562  1.2335
14462WAT    EPW59655   7.168   4.429   2.059 -0.4199 -0.0238  0.3661
14463WAT      O59656   2.083   4.867   7.425 -0.0337 -0.3232  0.2326
14463WAT     H159657   2.126   4.887   7.342 -0.1460  0.2708  0.3149
14463WAT     H259658   2.060   4.953   7.462  1.7216 -0.4578  1.8020
14463WAT    EPW59659   2.086   4.881   7.419  0.1831 -0.2627  0.4506
14464WAT      O59660  -5.680   2.849   8.527  0.5124  0.0501  0.0621
14464WAT     H159661  -5.689   2.823   8.619  1.5326 -3.9892 -0.7864
14464WAT     H259662  -5.590   2.825   8.505 -0.1889 -0.5981 -2.3575
14464WAT    EPW59663  -5.669   2.842   8.537  0.5548 -0.5682 -0.3691
14465WAT      O59664   2.560   2.030   3.428 -0.2040  0.7223 -0.6286
14465WAT     H159665   2.519   2.080   3.358 -0.8270  2.0403  0.6442
14465WAT     H259666   2.552   1.939   3.399 -1.8188  1.1218 -1.5621
14465WAT    EPW59667   2.554   2.024   3.415 -0.4990  0.9488 -0.5839
14466WAT      O59668   4.102   3.517   3.590 -0.5853  0.9490  0.4887
14466WAT     H159669   4.123   3.461   3.666 -3.1834 -1.7123 -0.5785
14466WAT     H259670   4.177   3.505   3.531 -0.6622 -0.7755  0.6825
14466WAT    EPW59671   4.115   3.508   3.592 -0.9382  0.3705  0.3735
14467WAT      O59672   0.105   1.268   8.894  0.0503  0.3820 -0.6893
14467WAT     H159673   0.063   1.343   8.936 -0.2719  1.3329 -2.6307
14467WAT     H259674   0.089   1.195   8.954 -0.7163  1.5863  0.6311
14467WAT    EPW59675   0.098   1.268   8.908 -0.0933  0.6663 -0.7715
14468WAT      O59676  -0.654   0.416   4.128 -0.1401  0.6334 -0.9020
14468WAT     H159677  -0.584   0.351   4.131 -0.0022  0.6493 -2.6790
14468WAT     H259678  -0.733   0.367   4.149  0.3544  0.6416  1.2792
14468WAT    EPW59679  -0.655   0.401   4.131 -0.0567  0.6366 -0.8488
14469WAT      O59680   6.553   0.412   1.851 -0.2593  0.1363  0.0914
14469WAT     H159681   6.631   0.467   1.842 -0.4870  0.2762 -1.1157
14469WAT     H259682   6.537   0.410   1.945  0.9177  0.5017  0.3221
14469WAT    EPW59683   6.561   0.419   1.862 -0.1342  0.2030 -0.0374
14470WAT      O59684  -1.152   5.934   7.602 -0.2427 -0.0461  0.1692
14470WAT     H159685  -1.214   6.005   7.587  1.0796  1.2531  0.6645
14470WAT     H259686  -1.202   5.868   7.650 -1.2759  0.9108  0.4420
14470WAT    EPW59687  -1.167   5.935   7.606 -0.2046  0.2513  0.2704
14471WAT      O59688   2.746   3.928   2.955 -0.2298  0.0661  0.0993
14471WAT     H159689   2.675   3.988   2.932 -0.4062  0.1121  0.7460
14471WAT     H259690   2.721   3.894   3.041 -0.6709 -1.7309 -0.6787
14471WAT    EPW59691   2.733   3.931   2.964 -0.3113 -0.1649  0.0819
14472WAT      O59692  -3.389   2.598   7.975  0.5451 -0.5372 -0.6527
14472WAT     H159693  -3.424   2.543   7.905 -0.2500  0.8673 -1.3835
14472WAT     H259694  -3.462   2.654   8.001  1.7991  1.4509 -1.2026
14472WAT    EPW59695  -3.403   2.598   7.969  0.6056 -0.0896 -0.8216
14473WAT      O59696  -1.759   3.999   4.365  0.5055  0.5418  0.7066
14473WAT     H159697  -1.826   3.945   4.408  0.9603  1.0445  2.0812
14473WAT     H259698  -1.745   4.072   4.425  1.2294  1.2263 -0.2683
14473WAT    EPW59699  -1.766   4.001   4.378  0.6610  0.6983  0.7594
14474WAT      O59700   6.029   5.065   3.085  0.2923  0.1025  0.7207
14474WAT     H159701   6.053   5.143   3.135  0.5866  0.3553  0.1927
14474WAT     H259702   5.951   5.031   3.130  0.8088  0.0634  1.6153
14474WAT    EPW59703   6.022   5.071   3.098  0.3991  0.1309  0.7690
14475WAT      O59704   3.348   2.569   2.844 -0.0591 -0.4041 -0.1174
14475WAT     H159705   3.354   2.659   2.876  0.5829 -0.4583 -0.0861
14475WAT     H259706   3.339   2.516   2.923  0.5326 -0.4497 -0.0767
14475WAT    EPW59707   3.347   2.574   2.859  0.1037 -0.4172 -0.1080
14476WAT      O59708   0.424   0.962   1.815  0.4530 -0.2934  0.6409
14476WAT     H159709   0.352   1.018   1.843  2.5843  1.5498  2.9948
14476WAT     H259710   0.420   0.963   1.720 -0.7271  2.4280  0.6381
14476WAT    EPW59711   0.414   0.969   1.806  0.5784  0.3087  0.9510
14477WAT      O59712  -0.407   6.369   3.278 -0.3565 -0.0355  0.3702
14477WAT     H159713  -0.317   6.336   3.275 -0.5796 -0.6081 -0.2333
14477WAT     H259714  -0.435   6.356   3.369 -0.8851 -2.7874 -0.1054
14477WAT    EPW59715  -0.399   6.363   3.290 -0.4557 -0.4740  0.2278
14478WAT      O59716  -3.387   6.294   8.297 -0.2826  0.0691 -0.1078
14478WAT     H159717  -3.355   6.283   8.208 -0.2400 -1.0050  0.0350
14478WAT     H259718  -3.454   6.227   8.307 -0.3912  0.2795  0.6219
14478WAT    EPW59719  -3.392   6.284   8.287 -0.2912 -0.0448  0.0072
14479WAT      O59720   1.779   6.547   8.955  0.1570  0.3796  0.3502
14479WAT     H159721   1.746   6.505   9.035  0.6913 -2.2029 -0.6957
14479WAT     H259722   1.865   6.508   8.941 -0.0976  0.4546 -1.7120
14479WAT    EPW59723   1.786   6.536   8.964  0.1939  0.0489 -0.0601
14480WAT      O59724   4.510   7.646   4.783  0.1627 -0.1421 -0.1871
14480WAT     H159725   4.530   7.581   4.850  0.9521  0.8604  0.5861
14480WAT     H259726   4.437   7.608   4.734 -2.4892  0.2833  3.0302
14480WAT    EPW59727   4.503   7.633   4.786 -0.0830  0.0463  0.3393
14481WAT      O59728  -0.556   0.766   8.386  0.6858 -0.0493 -0.8015
14481WAT     H159729  -0.588   0.839   8.333 -0.4436 -0.2800 -0.4774
14481WAT     H259730  -0.635   0.714   8.405  0.5936  1.0787  2.7713
14481WAT    EPW59731  -0.571   0.769   8.382  0.5247  0.0691 -0.2875
14482WAT      O59732  -3.322   4.703   4.275 -0.0352  0.8365 -0.2893
14482WAT     H159733  -3.258   4.671   4.339  0.9734  1.8354 -0.7638
14482WAT     H259734  -3.385   4.753   4.327  1.2368  2.3519 -0.1231
14482WAT    EPW59735  -3.322   4.705   4.290  0.2656  1.1683 -0.3297
14483WAT      O59736   3.243   6.394   7.991  0.9287 -0.5062  0.3067
14483WAT     H159737   3.148   6.396   8.003  0.6110  0.6348 -1.8137
14483WAT     H259738   3.275   6.468   8.043  0.3553  0.5003 -0.7140
14483WAT    EPW59739   3.235   6.404   7.999  0.8112 -0.2229 -0.1078
14484WAT      O59740   0.814   7.586   8.688  0.0164 -0.6026  0.6326
14484WAT     H159741   0.778   7.670   8.662 -1.8971 -1.6312 -0.2119
14484WAT     H259742   0.901   7.584   8.648  0.9315  1.7226  2.2818
14484WAT    EPW59743   0.821   7.597   8.679 -0.1153 -0.4315  0.7386
14485WAT      O59744   0.639   7.782   8.631  0.5799  0.7119  0.3850
14485WAT     H159745   0.562   7.736   8.664 -2.7114  1.5725 -4.9255
14485WAT     H259746   0.626   7.873   8.655 -0.4220  0.9213 -0.8439
14485WAT    EPW59747   0.627   7.788   8.638  0.0137  0.8528 -0.4778
14486WAT      O59748   3.140   1.651   2.306  0.0779 -0.2543  0.3718
14486WAT     H159749   3.092   1.589   2.252  1.6208 -0.7035 -0.5421
14486WAT     H259750   3.107   1.637   2.394 -0.2473 -1.7343  0.0363
14486WAT    EPW59751   3.130   1.641   2.310  0.2385 -0.5087  0.2069
14487WAT      O59752  -1.910   4.534   3.521 -0.7966  0.0062 -0.0431
14487WAT     H159753  -1.926   4.473   3.593 -0.1829  0.8299  0.8189
14487WAT     H259754  -1.961   4.611   3.544  1.7698  1.4856  1.1726
14487WAT    EPW59755  -1.919   4.536   3.533 -0.3772  0.3099  0.2309
14488WAT      O59756  -0.113   9.368   3.659  0.0184 -0.2635 -0.3578
14488WAT     H159757  -0.190   9.315   3.680  0.2011  0.4818  2.6061
14488WAT     H259758  -0.126   9.450   3.707  2.2610  0.2241 -0.4722
14488WAT    EPW59759  -0.125   9.372   3.668  0.3383 -0.1006  0.0181
14489WAT      O59760   0.985   0.024   2.568 -0.0929 -0.2714 -0.0231
14489WAT     H159761   0.946   0.009   2.482 -0.9640  2.1536 -0.1155
14489WAT     H259762   0.938  -0.035   2.627 -0.8900 -0.5049 -0.8714
14489WAT    EPW59763   0.974   0.014   2.564 -0.3129  0.0176 -0.1472
14490WAT      O59764  -0.850   8.534   1.725  0.2301 -0.1260 -0.5046
14490WAT     H159765  -0.864   8.613   1.673 -4.1590 -1.0233 -1.0873
14490WAT     H259766  -0.798   8.477   1.668  0.2393  0.9233 -1.5947
14490WAT    EPW59767  -0.845   8.537   1.710 -0.3476 -0.1063 -0.7252
14491WAT      O59768  -1.666   4.123   5.100  0.0030  0.5270 -0.1111
14491WAT     H159769  -1.711   4.178   5.163  0.5595  1.4862 -0.5271
14491WAT     H259770  -1.733   4.063   5.067 -0.5669  0.8243  0.4954
14491WAT    EPW59771  -1.680   4.122   5.104  0.0013  0.6928 -0.0858
14492WAT      O59772   0.595   9.530   5.668  0.0606 -0.7379 -0.2461
14492WAT     H159773   0.509   9.540   5.708  0.9203 -1.1082  1.8441
14492WAT     H259774   0.591   9.582   5.588 -1.7309  0.1907  0.3979
14492WAT    EPW59775   0.583   9.538   5.663 -0.0623 -0.6647  0.1147
14493WAT      O59776  -4.605   9.634   8.004  0.4296 -0.4759 -0.3576
14493WAT     H159777  -4.686   9.635   7.953  0.4678 -3.0572 -0.5692
14493WAT     H259778  -4.623   9.573   8.076  1.7858 -0.1224  0.3104
14493WAT    EPW59779  -4.618   9.626   8.007  0.6135 -0.7696 -0.2971
14494WAT      O59780   7.401   9.158   0.339  0.8343  0.1324  0.1642
14494WAT     H159781   7.483   9.156   0.289  0.0332 -1.6918 -1.2002
14494WAT     H259782   7.423   9.115   0.422  1.2579 -0.3733 -0.2029
14494WAT    EPW59783   7.415   9.152   0.343  0.7846 -0.1750 -0.0642
14495WAT      O59784  -0.899   7.364   5.820  0.5057 -0.3071 -0.1911
14495WAT     H159785  -0.909   7.322   5.735  0.6670 -0.9434  0.1002
14495WAT     H259786  -0.838   7.308   5.868  2.4059  1.3452 -0.5181
14495WAT    EPW59787  -0.892   7.351   5.815  0.7776 -0.1731 -0.1957
14496WAT      O59788  -6.125   7.662   8.427 -0.3889 -0.1060 -0.4056
14496WAT     H159789  -6.216   7.666   8.455 -0.0433  0.1090  0.7302
14496WAT     H259790  -6.099   7.754   8.418  0.0125 -0.1478  0.2910
14496WAT    EPW59791  -6.134   7.674   8.429 -0.2904 -0.0832 -0.1640
14497WAT      O59792  -0.991   6.960   7.392  0.2322  0.3708  0.1029
14497WAT     H159793  -0.981   7.041   7.342 -0.6978  0.5990  0.2744
14497WAT     H259794  -0.952   6.892   7.336  1.6606  1.0127  0.2557
14497WAT    EPW59795  -0.984   6.961   7.378  0.2979  0.4854  0.1454
14498WAT      O59796  -0.092   1.606   5.051 -0.1366 -0.3367  1.3359
14498WAT     H159797  -0.011   1.624   5.004 -0.1425 -1.1157  1.0057
14498WAT     H259798  -0.124   1.524   5.014 -0.5760 -0.5427  2.1282
14498WAT    EPW59799  -0.086   1.598   5.040 -0.1954 -0.4666  1.3969
14499WAT      O59800  -1.141   6.205   6.981  0.3689 -0.0851  0.3804
14499WAT     H159801  -1.194   6.132   6.948 -2.5155  0.9306  2.3631
14499WAT     H259802  -1.135   6.265   6.907 -2.6864  0.4355  0.4170
14499WAT    EPW59803  -1.147   6.203   6.967 -0.4146  0.1175  0.6466
14500WAT      O59804  -0.699   3.686   8.496  0.5898  0.3165  0.3032
14500WAT     H159805  -0.693   3.688   8.591  1.5683 -1.9631  0.3557
14500WAT     H259806  -0.732   3.598   8.476  0.2400  0.8090 -1.4689
14500WAT    EPW59807  -0.703   3.674   8.506  0.6728  0.0808  0.0763
14501WAT      O59808  -5.440   4.813   6.981 -0.3314 -0.3055 -0.5702
14501WAT     H159809  -5.363   4.758   6.963  1.0805  1.7851 -1.2154
14501WAT     H259810  -5.499   4.796   6.908  0.7778  0.1752 -1.6131
14501WAT    EPW59811  -5.438   4.803   6.969  0.0012  0.0336 -0.7930
14502WAT      O59812  -2.661   8.842   5.910  0.8893  0.0924  0.3973
14502WAT     H159813  -2.657   8.899   5.833  1.2320  1.3158  1.2996
14502WAT     H259814  -2.696   8.897   5.980 -0.1106 -1.1980  0.9672
14502WAT    EPW59815  -2.665   8.856   5.909  0.8026  0.0834  0.5915
14503WAT      O59816   0.290   7.081   5.741  0.4840 -0.2013  0.1994
14503WAT     H159817   0.255   7.092   5.829 -0.7467 -1.1422 -0.1321
14503WAT     H259818   0.235   7.139   5.687 -0.4494 -1.4835 -0.2874
14503WAT    EPW59819   0.278   7.090   5.745  0.1986 -0.4945  0.0916
14504WAT      O59820   2.100   2.099   6.592  0.0086 -0.0953  0.1166
14504WAT     H159821   2.184   2.144   6.582 -0.5005  1.2822  1.4780
14504WAT     H259822   2.059   2.143   6.666 -1.6880 -1.1054 -0.1721
14504WAT    EPW59823   2.105   2.111   6.601 -0.2823 -0.0468  0.2580
14505WAT      O59824   4.971   1.943   8.399 -0.6625  0.3571  0.0901
14505WAT     H159825   4.895   1.904   8.356  0.9433 -0.5657 -2.1389
14505WAT     H259826   5.018   1.868   8.436 -0.3383  0.8014  0.5859
14505WAT    EPW59827   4.967   1.928   8.398 -0.4079  0.2940 -0.1388
14506WAT      O59828  -6.021   9.896   7.238  0.2106 -0.0406  0.7064
14506WAT     H159829  -5.930   9.921   7.224  0.0636 -0.8173 -2.0941
14506WAT     H259830  -6.020   9.845   7.319  2.0827  0.6923  1.1900
14506WAT    EPW59831  -6.009   9.893   7.247  0.4382 -0.0463  0.4010
14507WAT      O59832   2.832   7.306   6.700 -0.3558  0.2868  0.4704
14507WAT     H159833   2.834   7.396   6.732  0.9430 -0.3692  2.4687
14507WAT     H259834   2.739   7.285   6.693 -0.7106  1.1443  2.0660
14507WAT    EPW59835   2.820   7.315   6.704 -0.2313  0.3133  0.9444
14508WAT      O59836  -1.509   0.905   6.286 -0.5879  0.2048  0.1868
14508WAT     H159837  -1.507   0.915   6.382 -1.2426 -1.7236  0.4343
14508WAT     H259838  -1.517   0.811   6.272  1.4580  0.2322 -1.8102
14508WAT    EPW59839  -1.510   0.894   6.297 -0.4044 -0.0459 -0.0436
14509WAT      O59840  -7.276   9.251   7.182  0.4312  0.3760  0.3149
14509WAT     H159841  -7.224   9.328   7.205  1.2592  0.0957 -0.5139
14509WAT     H259842  -7.296   9.262   7.089 -0.0786 -0.0527  0.3667
14509WAT    EPW59843  -7.272   9.263   7.173  0.4733  0.2823  0.2124
14510WAT      O59844   4.765   4.359   4.859 -0.7786 -0.9777 -0.9272
14510WAT     H159845   4.695   4.294   4.859 -0.7074 -1.0558 -0.9761
14510WAT     H259846   4.750   4.412   4.937 -0.3900 -1.5406 -0.4555
14510WAT    EPW59847   4.754   4.358   4.869 -0.7179 -1.0619 -0.8712
14511WAT      O59848   0.604   0.329   0.091 -0.5681 -0.7881  0.4787
14511WAT     H159849   0.540   0.391   0.058 -0.1339 -0.6491 -0.1286
14511WAT     H259850   0.561   0.285   0.164  0.3201  2.7674  3.3983
14511WAT    EPW59851   0.590   0.331   0.096 -0.3937 -0.3008  0.7837
14512WAT      O59852   2.731   1.938   7.628  0.7593 -0.3390  0.0357
14512WAT     H159853   2.715   1.978   7.714 -0.6436 -2.0996  0.6365
14512WAT     H259854   2.774   2.008   7.578  0.3503  1.1980  1.6992
14512WAT    EPW59855   2.735   1.953   7.633  0.5203 -0.3685  0.3345
14513WAT      O59856   4.140   6.656   5.162  0.0098  0.6188 -0.1209
14513WAT     H159857   4.167   6.746   5.179  0.8834  0.1421  1.1959
14513WAT     H259858   4.222   6.607   5.159 -0.5354 -0.3778  0.7578
14513WAT    EPW59859   4.154   6.661   5.164  0.0532  0.4244  0.1688
14514WAT      O59860   6.098   7.116   0.593  0.5667 -0.5714  0.3422
14514WAT     H159861   6.184   7.118   0.636  1.1068  1.9895 -0.6567
14514WAT     H259862   6.045   7.177   0.645  0.3643  0.3617 -0.9308
14514WAT    EPW59863   6.102   7.124   0.606  0.6113 -0.1104  0.0426
14515WAT      O59864   4.815   4.187   1.405  0.3031  0.5097 -0.3933
14515WAT     H159865   4.848   4.110   1.451  1.1740  0.7218 -0.6254
14515WAT     H259866   4.722   4.170   1.391  0.2937 -0.0907  0.3598
14515WAT    EPW59867   4.807   4.175   1.409  0.4165  0.4585 -0.3246
14516WAT      O59868   4.203   7.216   4.792  0.7027 -1.0756  0.1766
14516WAT     H159869   4.134   7.195   4.729  1.3037  0.3336 -1.0188
14516WAT     H259870   4.271   7.150   4.776  0.6214 -1.0497 -0.2878
14516WAT    EPW59871   4.203   7.205   4.782  0.7713 -0.8864 -0.0424
14517WAT      O59872   6.200   9.360   1.807 -0.0372  0.0304  0.2528
14517WAT     H159873   6.254   9.374   1.729 -0.7891  0.1787 -0.2532
14517WAT     H259874   6.147   9.283   1.787  0.9877 -0.9923  1.3194
14517WAT    EPW59875   6.200   9.352   1.794 -0.0012 -0.0854  0.3268
14518WAT      O59876   1.603   9.396   4.762  0.5406 -0.6095  0.0199
14518WAT     H159877   1.691   9.428   4.783  1.4556 -0.5072 -3.3881
14518WAT     H259878   1.588   9.324   4.824  3.4350 -1.2815  0.0810
14518WAT    EPW59879   1.613   9.391   4.773  1.0431 -0.6847 -0.4215
14519WAT      O59880   1.349   1.648   0.294 -0.8055  0.4931 -0.2472
14519WAT     H159881   1.259   1.631   0.321 -0.5170  1.4350  1.4428
14519WAT     H259882   1.341   1.714   0.225 -1.4797 -0.7855 -1.4354
14519WAT    EPW59883   1.336   1.654   0.289 -0.8564  0.4487 -0.1810
14520WAT      O59884   3.514   6.827   7.507  0.6393  0.5145 -0.0195
14520WAT     H159885   3.516   6.735   7.531 -1.0344  0.5118  0.2292
14520WAT     H259886   3.539   6.873   7.587  0.7631  0.3073  0.0627
14520WAT    EPW59887   3.517   6.821   7.520  0.4349  0.4869  0.0241
14521WAT      O59888   0.468   5.490   3.856 -0.4028 -0.3559 -0.6947
14521WAT     H159889   0.382   5.531   3.866 -0.5943 -0.5005 -1.6588
14521WAT     H259890   0.497   5.473   3.946 -1.0217  0.4262 -0.3399
14521WAT    EPW59891   0.460   5.493   3.869 -0.5097 -0.2718 -0.7751
14522WAT      O59892   8.306   3.655   0.550 -0.1331  0.3782  0.0650
14522WAT     H159893   8.250   3.578   0.565  0.7787  0.1094  2.5594
14522WAT     H259894   8.390   3.618   0.525  0.2880  0.5265  1.2055
14522WAT    EPW59895   8.309   3.640   0.549  0.0424  0.3624  0.5444
14523WAT      O59896   3.492   3.057   0.392 -0.2622  0.0776  0.0976
14523WAT     H159897   3.455   3.098   0.470 -0.4575  0.8882 -0.4116
14523WAT     H259898   3.587   3.055   0.409 -0.2786  0.4811  0.2503
14523WAT    EPW59899   3.500   3.062   0.405 -0.2902  0.2378  0.0506
14524WAT      O59900   7.166   7.747   1.550 -0.5998 -0.0195  0.2212
14524WAT     H159901   7.112   7.825   1.565  2.2001  2.1867 -0.2022
14524WAT     H259902   7.166   7.735   1.456  0.9358  1.1089  0.0324
14524WAT    EPW59903   7.159   7.756   1.540 -0.0277  0.4203  0.1404
14525WAT      O59904   0.081   3.728   1.344 -0.5339 -0.2614  0.0950
14525WAT     H159905   0.154   3.713   1.284 -1.6680  1.0049 -1.7170
14525WAT     H259906   0.029   3.796   1.302 -1.3104  0.8490  2.6639
14525WAT    EPW59907   0.083   3.735   1.330 -0.7859  0.0521  0.1948
14526WAT      O59908   3.330   0.532   1.970 -0.1242  0.6150 -0.3652
14526WAT     H159909   3.397   0.465   1.958 -0.7450  0.3122 -2.7613
14526WAT     H259910   3.364   0.609   1.924  0.1789  1.7042  1.5840
14526WAT    EPW59911   3.343   0.534   1.962 -0.1662  0.7188 -0.4241
14527WAT      O59912  -1.464   9.414   3.783  0.2488 -0.0679  0.4268
14527WAT     H159913  -1.405   9.439   3.712  1.4296 -1.1547  0.9933
14527WAT     H259914  -1.456   9.486   3.846  0.9313 -0.1654  0.4641
14527WAT    EPW59915  -1.455   9.427   3.782  0.4945 -0.2236  0.5064
14528WAT      O59916   0.749   6.879   5.935 -0.0907 -0.6328 -1.1835
14528WAT     H159917   0.682   6.942   5.962 -1.7624 -2.7200 -0.1198
14528WAT     H259918   0.831   6.917   5.966 -1.0095  1.0643 -0.7066
14528WAT    EPW59919   0.751   6.892   5.943 -0.4324 -0.6843 -0.9806
14529WAT      O59920   0.436   2.933   0.786 -0.4850 -1.2278  0.0309
14529WAT     H159921   0.424   2.961   0.877 -0.6197 -0.9137 -0.0827
14529WAT     H259922   0.423   2.838   0.788  0.6361 -1.3864  0.5346
14529WAT    EPW59923   0.433   2.924   0.798 -0.3549 -1.2074  0.0823
14530WAT      O59924  -0.233   1.902   7.326  0.0006 -0.1694  0.7480
14530WAT     H159925  -0.204   1.965   7.260 -1.6424  0.6830  0.7633
14530WAT     H259926  -0.185   1.822   7.307  1.9456  0.9880  0.5476
14530WAT    EPW59927  -0.223   1.900   7.315  0.0404  0.0957  0.7236
14531WAT      O59928  -1.281   4.465   5.106  0.1306  0.0502  0.5077
14531WAT     H159929  -1.271   4.462   5.010  1.3384  0.5754  0.6059
14531WAT     H259930  -1.200   4.428   5.140 -0.2276  0.0113  1.3390
14531WAT    EPW59931  -1.269   4.460   5.097  0.2427  0.1144  0.6304
14532WAT      O59932   4.882   0.544   6.948 -0.2639  0.8588 -0.1116
14532WAT     H159933   4.815   0.612   6.946 -0.7782  0.4379  1.5048
14532WAT     H259934   4.946   0.574   7.012 -0.4256 -0.1046  0.5172
14532WAT    EPW59935   4.882   0.557   6.956 -0.3531  0.6763  0.1843
14533WAT      O59936   2.703   5.140   1.196  0.3021 -0.4649 -0.0471
14533WAT     H159937   2.765   5.212   1.184 -1.4367  1.2079  0.5550
14533WAT     H259938   2.696   5.130   1.291  0.3437 -1.2840 -0.1247
14533WAT    EPW59939   2.711   5.148   1.207  0.0782 -0.3524  0.0221
14534WAT      O59940  -1.133   7.817   2.717  0.6958  0.7555 -0.0226
14534WAT     H159941  -1.075   7.774   2.655 -0.3162  0.6958 -0.9602
14534WAT     H259942  -1.097   7.796   2.803  1.3758 -0.2646 -0.5456
14534WAT    EPW59943  -1.121   7.809   2.721  0.6520  0.6130 -0.2152
14535WAT      O59944  -4.101   3.506   8.268  0.0370  0.6311 -0.4202
14535WAT     H159945  -4.019   3.522   8.221  0.7520  1.9920  1.1613
14535WAT     H259946  -4.164   3.565   8.226 -0.0493 -0.1172 -1.3732
14535WAT    EPW59947  -4.098   3.516   8.256  0.1199  0.7119 -0.3371
14536WAT      O59948   9.071   3.524   1.048 -0.0637 -0.5944 -0.3830
14536WAT     H159949   9.058   3.472   0.968 -2.5560 -1.6672  0.6067
14536WAT     H259950   8.983   3.537   1.083  0.8661  0.6273  1.7306
14536WAT    EPW59951   9.058   3.519   1.042 -0.2699 -0.5748  0.0263
14537WAT      O59952   6.300   1.759   1.199 -0.1782 -0.1760 -0.5576
14537WAT     H159953   6.310   1.827   1.133 -0.3970 -1.3678 -1.8455
14537WAT     H259954   6.252   1.689   1.155  0.8856 -1.5840  0.4380
14537WAT    EPW59955   6.295   1.759   1.185 -0.0665 -0.5190 -0.5961
14538WAT      O59956  -0.448   9.911   2.162  0.7252 -0.2137 -0.3509
14538WAT     H159957  -0.476   9.981   2.221 -0.2640 -1.0132  0.1687
14538WAT     H259958  -0.352   9.912   2.166  0.7354  1.2733 -0.5758
14538WAT    EPW59959  -0.439   9.920   2.170  0.5961 -0.1230 -0.3120
14539WAT      O59960   3.981   4.914   2.572 -0.1993  1.1121  0.0516
14539WAT     H159961   4.036   4.862   2.631  0.2795  1.2453 -0.2776
14539WAT     H259962   3.936   4.975   2.630  0.8235  1.7334  0.2052
14539WAT    EPW59963   3.982   4.915   2.588 -0.0012  1.2116  0.0285
14540WAT      O59964  -7.514   9.054   7.834 -0.3456 -0.7239  0.0767
14540WAT     H159965  -7.456   8.985   7.867  1.5191  1.2250  1.1294
14540WAT     H259966  -7.595   9.044   7.884  0.3281 -1.4471  1.0604
14540WAT    EPW59967  -7.517   9.044   7.845 -0.0107 -0.5622  0.3455
14541WAT      O59968   5.482   4.884   5.069  0.1923  0.0150  0.3192
14541WAT     H159969   5.412   4.856   5.128  0.0375  1.2398  0.7409
14541WAT     H259970   5.483   4.817   5.000 -0.8517 -0.4501  0.7354
14541WAT    EPW59971   5.473   4.872   5.067  0.0341  0.1152  0.4296
14542WAT      O59972   4.461   3.656   5.611 -0.0305 -0.0779 -0.3963
14542WAT     H159973   4.550   3.630   5.587  0.1838  1.7762 -1.8546
14542WAT     H259974   4.472   3.715   5.685 -0.0823 -0.2255 -0.2716
14542WAT    EPW59975   4.474   3.660   5.617 -0.0091  0.1471 -0.5720
14543WAT      O59976  -6.069   7.404   8.659 -0.1989 -0.6631  0.1185
14543WAT     H159977  -6.016   7.482   8.644 -0.4534  0.0382  2.4148
14543WAT     H259978  -6.018   7.353   8.722 -1.1710 -1.0987  0.5655
14543WAT    EPW59979  -6.055   7.408   8.665 -0.3607 -0.6282  0.4802
14544WAT      O59980  -5.059   4.859   6.736  0.2523 -0.3239 -0.3462
14544WAT     H159981  -5.112   4.936   6.757  0.0440 -0.5206 -0.1375
14544WAT     H259982  -5.086   4.834   6.648 -2.2348 -2.1974  0.7866
14544WAT    EPW59983  -5.070   4.866   6.727 -0.1032 -0.5970 -0.1693
14545WAT      O59984   3.263   1.697   6.113  0.0663  0.5017 -0.3301
14545WAT     H159985   3.338   1.656   6.155 -1.1255 -0.7118  0.7106
14545WAT     H259986   3.228   1.630   6.054 -1.6569  0.0748  1.0847
14545WAT    EPW59987   3.268   1.683   6.111 -0.3182  0.2853 -0.0062
14546WAT      O59988  -1.281   7.905   3.837  0.2164 -0.5631 -0.2863
14546WAT     H159989  -1.343   7.972   3.809  0.5399 -0.9167 -1.9730
14546WAT     H259990  -1.202   7.924   3.787  0.2722 -2.2767 -0.9065
14546WAT    EPW59991  -1.279   7.916   3.827  0.2665 -0.8359 -0.5906
14547WAT      O59992   4.493   1.574   0.459 -0.4537 -0.0044 -0.8708
14547WAT     H159993   4.542   1.519   0.398  0.6590 -0.3338  0.2646
14547WAT     H259994   4.410   1.592   0.415  0.6179  0.4503 -2.8144
14547WAT    EPW59995   4.488   1.569   0.445 -0.1655  0.0120 -0.9774
14548WAT      O59996   0.988   3.173   5.401 -0.2066 -0.2313 -0.1948
14548WAT     H159997   0.989   3.099   5.461  0.4716  0.6923  0.9746
14548WAT     H259998   0.922   3.232   5.437  0.2529  0.3598 -0.3039
14548WAT    EPW59999   0.980   3.171   5.414 -0.0566 -0.0316 -0.0548
14549WAT      O60000  -0.857   5.625   8.853  0.6225  0.0329  0.4610
14549WAT     H160001  -0.839   5.715   8.826 -0.7192  0.1677 -0.0557
14549WAT     H260002  -0.788   5.604   8.916  0.3048  1.8379  1.4786
14549WAT    EPW60003  -0.846   5.634   8.858  0.4037  0.2887  0.5274
14550WAT      O60004  -0.798   0.071   6.074  0.0449  0.4342  0.2186
14550WAT     H160005  -0.860   0.133   6.036 -0.1580 -0.8676 -1.7064
14550WAT     H260006  -0.730   0.061   6.008  0.2905 -1.0570  0.6495
14550WAT    EPW60007  -0.797   0.078   6.060  0.0505  0.0658  0.0215
14551WAT      O60008  -1.348   5.078   8.018 -0.5201 -0.0661 -0.4478
14551WAT     H160009  -1.392   5.033   8.090 -2.4969  0.3108 -1.3344
14551WAT     H260010  -1.278   5.018   7.991 -1.6034 -1.5535 -0.0990
14551WAT    EPW60011  -1.345   5.064   8.024 -0.9237 -0.2124 -0.5188
14552WAT      O60012  -6.773   8.195   7.076  0.2767 -0.0008 -0.7679
14552WAT     H160013  -6.685   8.200   7.039  0.6380 -0.9510 -0.0758
14552WAT     H260014  -6.824   8.146   7.012  0.8479 -1.4570 -0.1559
14552WAT    EPW60015  -6.768   8.190   7.063  0.3998 -0.3181 -0.5960
14553WAT      O60016   1.712   3.903   6.519  0.5395 -0.1855 -0.3577
14553WAT     H160017   1.645   3.959   6.478 -0.3648 -2.2732 -1.8869
14553WAT     H260018   1.769   3.878   6.446  0.6753 -1.5742  0.2140
14553WAT    EPW60019   1.711   3.907   6.504  0.4382 -0.6440 -0.4838
14554WAT      O60020   4.129   8.390   0.935  0.2426  0.1020  0.1195
14554WAT     H160021   4.182   8.460   0.972  1.0386 -0.7077  0.5478
14554WAT     H260022   4.112   8.417   0.845  1.7001  0.2094 -0.1388
14554WAT    EPW60023   4.133   8.403   0.928  0.5398  0.0095  0.1419
14555WAT      O60024   1.645   7.098   6.821  0.0941  0.4437  0.2652
14555WAT     H160025   1.690   7.101   6.906  0.3346 -0.2230  0.1598
14555WAT     H260026   1.603   7.013   6.819  0.7636  0.1201 -0.6331
14555WAT    EPW60027   1.646   7.087   6.832  0.2141  0.3130  0.1328
14556WAT      O60028   5.149   1.846   5.577  0.1876  0.3023 -0.6808
14556WAT     H160029   5.243   1.860   5.583  0.1354  0.7026 -0.7813
14556WAT     H260030   5.112   1.910   5.639  0.0289 -0.4671  0.0469
14556WAT    EPW60031   5.156   1.856   5.586  0.1597  0.2536 -0.5982
14557WAT      O60032  -0.782   2.046   5.077 -0.6172  0.0685 -0.4534
14557WAT     H160033  -0.775   2.030   5.171  1.7519 -0.7287 -0.7112
14557WAT     H260034  -0.875   2.035   5.058 -1.0562 -0.3599  1.6830
14557WAT    EPW60035  -0.793   2.043   5.087 -0.3627 -0.0932 -0.2055
14558WAT      O60036   5.000   2.413   4.628  0.3520 -0.1048 -0.4765
14558WAT     H160037   5.065   2.474   4.661  0.2730  0.2352 -0.9349
14558WAT     H260038   5.041   2.327   4.635  0.4164 -0.0128  0.2830
14558WAT    EPW60039   5.014   2.410   4.633  0.3500 -0.0478 -0.4368
14559WAT      O60040   1.700   1.967   7.598  0.2260  1.1317  0.9720
14559WAT     H160041   1.720   1.903   7.529  1.1629  2.6957 -0.2844
14559WAT     H260042   1.609   1.991   7.584 -0.3404 -0.3587  1.8683
14559WAT    EPW60043   1.691   1.962   7.587  0.2748  1.1415  0.9246
14560WAT      O60044   3.661   6.418   1.633 -0.2844  0.5368 -0.0216
14560WAT     H160045   3.684   6.328   1.654 -1.3973  0.0574 -0.7493
14560WAT     H260046   3.708   6.471   1.697  1.4143 -0.4690 -0.3892
14560WAT    EPW60047   3.670   6.413   1.644 -0.2071  0.3409 -0.1661
14561WAT      O60048   4.873   2.069   5.427  0.6731 -0.1166  0.3492
14561WAT     H160049   4.831   2.154   5.438 -1.4968 -1.2487  1.5977
14561WAT     H260050   4.828   2.030   5.351  2.0988  0.0569 -0.6221
14561WAT    EPW60051   4.861   2.075   5.418  0.5748 -0.2431  0.3860
14562WAT      O60052   1.201   3.091   3.677 -0.6806  0.5441 -0.9158
14562WAT     H160053   1.256   3.166   3.653  0.0887  0.1714 -0.3783
14562WAT     H260054   1.121   3.130   3.712 -1.3809  1.0997 -2.9790
14562WAT    EPW60055   1.198   3.106   3.678 -0.6715  0.5682 -1.1171
14563WAT      O60056  -2.595   2.114   8.397  0.0243  0.8269 -0.4274
14563WAT     H160057  -2.648   2.084   8.471  0.7037 -0.0607 -0.2823
14563WAT     H260058  -2.562   2.199   8.424 -0.9456  1.1885 -0.3359
14563WAT    EPW60059  -2.598   2.121   8.410 -0.0141  0.7575 -0.3958
14564WAT      O60060   4.335   9.370   3.321 -0.0529  0.5194  0.4525
14564WAT     H160061   4.266   9.435   3.331 -0.1803  1.0885 -2.8302
14564WAT     H260062   4.289   9.287   3.310 -0.2235  0.7601 -0.8096
14564WAT    EPW60063   4.320   9.367   3.321 -0.0920  0.6261 -0.1469
14565WAT      O60064   3.268  10.249   5.641  0.7029 -0.9624 -0.5282
14565WAT     H160065   3.226  10.321   5.688  0.7604  0.4210 -2.4466
14565WAT     H260066   3.205  10.225   5.573  1.1104 -2.0333 -0.5396
14565WAT    EPW60067   3.254  10.256   5.638  0.7643 -0.9212 -0.7830
14566WAT      O60068  -3.335   5.868   8.223 -0.6642  0.1500  0.1392
14566WAT     H160069  -3.306   5.848   8.312 -2.0197 -0.9333  0.3641
14566WAT     H260070  -3.290   5.950   8.202 -0.6474  0.6693  1.9699
14566WAT    EPW60071  -3.325   5.876   8.232 -0.8408  0.0756  0.4101
14567WAT      O60072   1.103   4.672   4.531  0.3611  0.0420  0.1767
14567WAT     H160073   1.131   4.755   4.493 -1.1275 -0.9188 -3.4220
14567WAT     H260074   1.170   4.609   4.503 -1.5255 -0.9687 -2.5316
14567WAT    EPW60075   1.116   4.675   4.523 -0.0840 -0.2179 -0.6549
14568WAT      O60076   7.149   0.667   2.043 -0.0723  0.4680 -0.0748
14568WAT     H160077   7.239   0.636   2.044 -0.3633 -0.3961  1.0031
14568WAT     H260078   7.100   0.596   2.002  0.0829  2.1609 -3.6733
14568WAT    EPW60079   7.154   0.654   2.037 -0.0901  0.5773 -0.4072
14569WAT      O60080   0.549   3.948   2.220 -0.4150  0.3476  0.3999
14569WAT     H160081   0.495   4.026   2.235 -1.1052 -0.2557  1.1853
14569WAT     H260082   0.552   3.905   2.306 -1.3431 -1.2955 -0.3502
14569WAT    EPW60083   0.542   3.952   2.234 -0.6285  0.0514  0.4046
14570WAT      O60084   2.641   4.892   2.396  0.0736  0.3339 -0.3083
14570WAT     H160085   2.613   4.810   2.356 -0.1800  0.3691 -0.2039
14570WAT     H260086   2.676   4.944   2.324  0.0954  0.1942 -0.3985
14570WAT    EPW60087   2.642   4.888   2.381  0.0430  0.3202 -0.3064
14571WAT      O60088   1.712   0.311   4.926  0.2789 -0.3288  0.3490
14571WAT     H160089   1.678   0.323   4.837 -0.0989 -0.4009  0.4831
14571WAT     H260090   1.667   0.378   4.978 -1.4006 -1.8682  0.9840
14571WAT    EPW60091   1.702   0.321   4.921  0.0075 -0.5413  0.4501
14572WAT      O60092   2.619   1.987   7.920 -0.5069  0.1919  1.1187
14572WAT     H160093   2.542   1.998   7.865  0.1049  0.4477  0.2785
14572WAT     H260094   2.646   2.076   7.942 -0.1983  0.1258  1.0234
14572WAT    EPW60095   2.613   2.000   7.916 -0.3855  0.2170  0.9952
14573WAT      O60096   8.353   1.095   1.495 -0.1974  0.5060  0.2326
14573WAT     H160097   8.333   1.062   1.407 -0.8403 -0.8339  0.8538
14573WAT     H260098   8.268   1.118   1.532 -0.4476 -2.4070  1.7939
14573WAT    EPW60099   8.339   1.094   1.488 -0.3152 -0.0550  0.5204
14574WAT      O60100  -1.340   6.437   2.606  0.0109  0.1865 -0.2994
14574WAT     H160101  -1.382   6.396   2.530  1.3703 -0.5434 -0.6844
14574WAT     H260102  -1.261   6.478   2.571 -0.4687  1.7564  0.3713
14574WAT    EPW60103  -1.335   6.437   2.591  0.1270  0.2973 -0.2617
14575WAT      O60104  -0.898   1.323   3.410  0.3010  0.5903  0.6711
14575WAT     H160105  -0.897   1.248   3.470  0.6692  0.3179  0.3308
14575WAT     H260106  -0.919   1.398   3.466  0.8945  0.3783  1.1989
14575WAT    EPW60107  -0.901   1.323   3.426  0.4278  0.5264  0.6958
14576WAT      O60108  -1.703   8.650   4.124 -0.1413 -0.2627 -0.5394
14576WAT     H160109  -1.793   8.660   4.157 -0.1094  0.0037 -0.5312
14576WAT     H260110  -1.689   8.727   4.069  1.0126  1.1850  1.6021
14576WAT    EPW60111  -1.713   8.662   4.121  0.0151 -0.0367 -0.2561
14577WAT      O60112  -4.524   0.461   8.399 -0.1440 -0.4986 -0.1928
14577WAT     H160113  -4.598   0.460   8.339  0.5945  0.8101 -1.1790
14577WAT     H260114  -4.480   0.544   8.381  1.0719 -0.8586  0.9715
14577WAT    EPW60115  -4.528   0.472   8.389  0.1140 -0.3734 -0.1698
14578WAT      O60116  -2.082   8.684   7.903 -0.5446  0.2277 -0.2491
14578WAT     H160117  -2.157   8.722   7.950  0.6653  0.5039  1.5652
14578WAT     H260118  -2.051   8.613   7.960 -0.3815 -0.9568 -1.7415
14578WAT    EPW60119  -2.088   8.680   7.917 -0.3636  0.1078 -0.2067
14579WAT      O60120   0.317   2.008   0.411  1.2802 -0.1585  0.4477
14579WAT     H160121   0.383   2.076   0.408 -0.0592  1.2407 -2.9735
14579WAT     H260122   0.364   1.927   0.391  2.2979  0.4170  0.4830
14579WAT    EPW60123   0.332   2.006   0.408  1.2378  0.1020  0.0011
14580WAT      O60124  -3.033   8.274   3.293  0.0899 -0.3817  0.0114
14580WAT     H160125  -3.119   8.245   3.324  1.7422 -2.6476  2.9879
14580WAT     H260126  -2.976   8.199   3.307  3.3197  2.1323  1.6380
14580WAT    EPW60127  -3.037   8.260   3.299  0.7339 -0.3495  0.6186
14581WAT      O60128   5.064   6.131   3.996 -0.2938 -0.0301  0.8502
14581WAT     H160129   5.068   6.135   4.092 -1.3087 -1.8498  1.0286
14581WAT     H260130   5.021   6.047   3.978 -1.6884  1.0338 -1.1679
14581WAT    EPW60131   5.058   6.120   4.006 -0.6118 -0.1297  0.6077
14582WAT      O60132  -0.580  10.373   5.968 -0.1390  0.9581  0.4718
14582WAT     H160133  -0.621  10.296   5.928  0.2859  0.4838  0.9278
14582WAT     H260134  -0.653  10.423   6.004 -0.3299  0.0657  1.3717
14582WAT    EPW60135  -0.595  10.369   5.967 -0.1082  0.7782  0.6509
14583WAT      O60136   1.396   5.434   7.983 -0.2565  0.3987 -0.1320
14583WAT     H160137   1.360   5.415   7.897 -1.3250 -0.2552  0.4484
14583WAT     H260138   1.320   5.444   8.040  0.4410  0.4770  0.8193
14583WAT    EPW60139   1.381   5.433   7.979 -0.3054  0.3228  0.0701
14584WAT      O60140  -1.859   8.466   2.154  0.2692  0.3802 -0.3208
14584WAT     H160141  -1.775   8.485   2.112  1.2911  0.4067  1.6143
14584WAT     H260142  -1.871   8.537   2.217 -0.1479 -0.7615  0.9179
14584WAT    EPW60143  -1.850   8.478   2.156  0.3490  0.2332  0.0979
14585WAT      O60144  -0.977   3.596   8.257 -0.1339 -0.9050 -0.0858
14585WAT     H160145  -1.055   3.558   8.296 -0.1217  0.7205  1.7112
14585WAT     H260146  -0.915   3.524   8.251 -0.6393 -1.5416  1.6890
14585WAT    EPW60147  -0.979   3.582   8.262 -0.1990 -0.7745  0.3853
14586WAT      O60148   5.993   2.948   5.526 -0.6688 -0.0675  0.0175
14586WAT     H160149   5.905   2.935   5.562 -0.8907 -0.2183 -0.5503
14586WAT     H260150   5.980   3.009   5.454 -0.0390  1.2271  0.9720
14586WAT    EPW60151   5.979   2.954   5.521 -0.6154  0.0834  0.0687
14587WAT      O60152   2.255   6.997   3.773  0.3874 -0.3661 -0.0492
14587WAT     H160153   2.197   6.965   3.703 -2.6458  0.4417  1.8682
14587WAT     H260154   2.238   7.091   3.777  2.7195  0.0966 -0.0798
14587WAT    EPW60155   2.245   7.005   3.764  0.2949 -0.1986  0.1997
14588WAT      O60156   4.421   1.741   4.672 -0.1296 -0.1280  0.0617
14588WAT     H160157   4.437   1.651   4.700  0.4043 -1.0898 -3.0241
14588WAT     H260158   4.338   1.737   4.625 -0.2127  1.0620  0.0789
14588WAT    EPW60159   4.412   1.729   4.670 -0.0701 -0.0979 -0.3428
14589WAT      O60160  -0.131   9.415   4.095  0.2057  0.1047  0.8125
14589WAT     H160161  -0.173   9.500   4.076 -0.8946 -0.5319  0.2995
14589WAT     H260162  -0.076   9.433   4.171  3.1227  2.2621 -1.5506
14589WAT    EPW60163  -0.130   9.429   4.103  0.4453  0.3047  0.4332
14590WAT      O60164   2.990   6.262   7.092  0.1373  0.0712  0.5029
14590WAT     H160165   3.042   6.213   7.155  0.8905 -1.1073 -0.9724
14590WAT     H260166   2.961   6.197   7.029 -2.2714  0.8738  0.6578
14590WAT    EPW60167   2.993   6.247   7.092 -0.0809  0.0215  0.3288
14591WAT      O60168  -3.106   2.805   8.495 -0.3817 -0.4306  0.0922
14591WAT     H160169  -3.057   2.886   8.481 -1.2137  0.0428 -0.1403
14591WAT     H260170  -3.198   2.833   8.498 -0.5461 -1.0252  2.4808
14591WAT    EPW60171  -3.112   2.820   8.494 -0.5132 -0.4466  0.3762
14592WAT      O60172  -0.911   4.483   0.566  0.8536  0.3637  0.1050
14592WAT     H160173  -0.923   4.576   0.548  2.3302  0.4711 -0.3999
14592WAT     H260174  -0.857   4.480   0.645  1.4329 -0.0472 -0.2946
14592WAT    EPW60175  -0.906   4.495   0.574  1.1247  0.3235 -0.0143
14593WAT      O60176   7.647   0.540   3.455 -0.7035  0.0338 -0.3246
14593WAT     H160177   7.682   0.494   3.532 -1.5984 -0.3470 -0.1313
14593WAT     H260178   7.685   0.628   3.461 -0.1600 -0.2191  0.1294
14593WAT    EPW60179   7.657   0.545   3.466 -0.7501 -0.0497 -0.2393
14594WAT      O60180  -0.178   2.982   3.688 -0.3532  0.3089  0.2265
14594WAT     H160181  -0.218   2.912   3.636 -0.4340  0.0459  0.6375
14594WAT     H260182  -0.251   3.022   3.736 -0.2492  0.4066  0.3062
14594WAT    EPW60183  -0.193   2.978   3.688 -0.3502  0.2871  0.2912
14595WAT      O60184   3.360   4.220   3.668 -0.3311 -0.3350  0.2638
14595WAT     H160185   3.266   4.223   3.681 -0.0932  1.2041  1.9229
14595WAT     H260186   3.373   4.252   3.578 -1.4234 -1.6872 -0.4098
14595WAT    EPW60187   3.350   4.224   3.658 -0.4438 -0.3102  0.3937
14596WAT      O60188  -2.488   2.119   7.803  0.0943  0.5019 -0.3022
14596WAT     H160189  -2.532   2.046   7.847 -0.2640  0.4281 -0.7722
14596WAT     H260190  -2.513   2.109   7.711 -0.9007  1.9069 -0.1989
14596WAT    EPW60191  -2.497   2.108   7.796 -0.0842  0.6775 -0.3505
14597WAT      O60192  -2.571   5.698   4.893  0.3220 -0.4530 -0.1682
14597WAT     H160193  -2.602   5.724   4.806 -1.8444  1.1854  0.9849
14597WAT     H260194  -2.557   5.781   4.939  0.8647 -1.2766  1.2200
14597WAT    EPW60195  -2.573   5.713   4.888  0.1079 -0.3455  0.1669
14598WAT      O60196   2.260   8.189   2.697 -0.2909 -0.1569 -0.4093
14598WAT     H160197   2.254   8.107   2.647 -0.9115 -1.6437  1.9179
14598WAT     H260198   2.345   8.183   2.741  0.4585  1.3491 -1.5770
14598WAT    EPW60199   2.270   8.177   2.696 -0.2739 -0.1545 -0.2564
14599WAT      O60200  -1.139   6.465   5.112  0.2233  0.2988 -0.0046
14599WAT     H160201  -1.121   6.544   5.163  1.0836 -0.3050  0.6466
14599WAT     H260202  -1.232   6.448   5.126  0.5929 -0.2971  2.0275
14599WAT    EPW60203  -1.149   6.473   5.121  0.3855  0.1407  0.3493
14600WAT      O60204  -3.450   1.602   7.251 -0.1726 -0.0860  0.1454
14600WAT     H160205  -3.397   1.608   7.172  0.2640  0.4422  0.4729
14600WAT     H260206  -3.499   1.684   7.254 -1.7692 -0.9584 -0.6682
14600WAT    EPW60207  -3.450   1.613   7.241 -0.3256 -0.1315  0.0813
14601WAT      O60208   6.893   3.414   0.344  0.6904 -0.5903  0.1216
14601WAT     H160209   6.910   3.507   0.328  1.8746 -0.6951  0.6962
14601WAT     H260210   6.961   3.368   0.295  0.4725 -1.1355  0.3184
14601WAT    EPW60211   6.904   3.420   0.335  0.8180 -0.6762  0.2233
14602WAT      O60212   2.999   1.145   6.607 -0.6911  0.1335  0.0469
14602WAT     H160213   3.094   1.141   6.616 -0.6935  1.0610  0.6102
14602WAT     H260214   2.965   1.122   6.693 -1.1414 -3.8201 -0.9838
14602WAT    EPW60215   3.007   1.142   6.619 -0.7507 -0.2656 -0.0148
14603WAT      O60216  -1.114   3.828   1.749  0.2886 -1.2162  0.0128
14603WAT     H160217  -1.197   3.856   1.710  0.8252 -2.3834 -2.0927
14603WAT     H260218  -1.095   3.744   1.708  1.0190 -2.4878  2.7513
14603WAT    EPW60219  -1.123   3.821   1.738  0.4557 -1.5378  0.0963
14604WAT      O60220   7.539   2.138   1.761 -0.5788 -0.2209  1.4835
14604WAT     H160221   7.618   2.183   1.790  0.7476 -2.6100  1.8134
14604WAT     H260222   7.562   2.101   1.676 -1.5832 -0.3584  1.2585
14604WAT    EPW60223   7.553   2.139   1.753 -0.5367 -0.5541  1.4973
14605WAT      O60224   0.214   7.285   4.644  0.0557 -0.1734  0.0674
14605WAT     H160225   0.141   7.347   4.647 -0.6865 -1.0493  0.5887
14605WAT     H260226   0.230   7.261   4.735 -0.0714 -1.1944 -0.1609
14605WAT    EPW60227   0.206   7.290   4.656 -0.0589 -0.4237  0.1059
14606WAT      O60228  -0.094   0.659   0.015 -0.2640 -0.2198  0.5450
14606WAT     H160229  -0.003   0.687   0.026  0.4621 -1.2046 -2.1171
14606WAT     H260230  -0.125   0.644   0.104  1.7686  1.3131  1.6118
14606WAT    EPW60231  -0.086   0.661   0.028  0.0999 -0.1476  0.3347
14607WAT      O60232   4.777   3.549   7.766  0.4280  0.6557 -0.0565
14607WAT     H160233   4.682   3.565   7.759  0.3769  3.6918  3.9123
14607WAT     H260234   4.815   3.609   7.702 -0.2945  0.8456 -0.3245
14607WAT    EPW60235   4.769   3.559   7.756  0.3262  1.0811  0.4315
14608WAT      O60236  -3.055   5.113   4.419 -0.3560  0.0238 -0.4509
14608WAT     H160237  -3.127   5.151   4.469 -0.6550 -0.1124 -0.7754
14608WAT     H260238  -3.052   5.163   4.338 -0.1678 -0.0557 -0.4949
14608WAT    EPW60239  -3.064   5.125   4.415 -0.3706 -0.0045 -0.4995
14609WAT      O60240   6.050   7.610   2.066  0.3543  0.3252  0.4785
14609WAT     H160241   6.076   7.551   2.137  0.2772  0.0638  0.2905
14609WAT     H260242   6.123   7.672   2.058  0.7022 -0.1091  0.2795
14609WAT    EPW60243   6.063   7.611   2.075  0.3901  0.2337  0.4275
14610WAT      O60244  -2.188   9.096   7.857  0.9288  0.0383 -0.3388
14610WAT     H160245  -2.171   9.023   7.917  1.1493 -0.3158 -0.8244
14610WAT     H260246  -2.159   9.174   7.905  0.9355 -0.2190  0.0815
14610WAT    EPW60247  -2.182   9.097   7.871  0.9588 -0.0420 -0.3474
14611WAT      O60248   0.187   1.780   3.023 -0.5169  0.6998 -0.3727
14611WAT     H160249   0.240   1.759   2.946 -1.9299 -0.9285 -0.9735
14611WAT     H260250   0.107   1.819   2.987 -0.3347  1.8455  0.4200
14611WAT    EPW60251   0.183   1.782   3.008 -0.6792  0.6361 -0.3475
14612WAT      O60252  -4.316   4.959   8.461  0.0814 -0.2791  0.2719
14612WAT     H160253  -4.336   4.867   8.478 -2.3487  0.0552 -0.5156
14612WAT     H260254  -4.398   5.005   8.479 -0.1722  1.1518 -3.7380
14612WAT    EPW60255  -4.329   4.953   8.466 -0.2725 -0.0463 -0.3610
14613WAT      O60256   4.443   2.279   7.015 -0.2999 -1.2231 -0.5603
14613WAT     H160257   4.468   2.217   7.084  0.6779 -0.7327 -0.4642
14613WAT     H260258   4.521   2.286   6.960  0.5846  1.8450  0.8537
14613WAT    EPW60259   4.457   2.272   7.017 -0.0544 -0.7538 -0.3610
14614WAT      O60260   5.771   0.632   5.230 -0.4849  0.4265  0.0091
14614WAT     H160261   5.734   0.720   5.237  1.1680  1.3053 -1.4660
14614WAT     H260262   5.859   0.646   5.197  1.7052 -1.4482  4.2847
14614WAT    EPW60263   5.777   0.646   5.227  0.0219  0.2951  0.3786
14615WAT      O60264   3.436   8.325   5.579 -0.1177 -0.4815  0.2071
14615WAT     H160265   3.354   8.359   5.614 -0.0300 -1.6845  1.7110
14615WAT     H260266   3.501   8.345   5.646  0.6805 -0.2356 -0.6106
14615WAT    EPW60267   3.434   8.332   5.592 -0.0010 -0.6075  0.2975
14616WAT      O60268   2.678   5.721   5.724  0.2135 -0.4650  0.5951
14616WAT     H160269   2.662   5.815   5.725 -1.0908 -0.6806  1.0648
14616WAT     H260270   2.774   5.714   5.731  0.2391  0.8044  2.5772
14616WAT    EPW60271   2.689   5.733   5.725  0.0448 -0.3262  0.9186
14617WAT      O60272   0.799   2.944   6.653 -0.4639 -0.1132  0.4746
14617WAT     H160273   0.802   2.860   6.699  0.5882 -0.6086 -0.4648
14617WAT     H260274   0.891   2.962   6.631 -0.8225  0.6804 -0.4021
14617WAT    EPW60275   0.812   2.935   6.656 -0.3724 -0.0740  0.2351
14618WAT      O60276  -7.161   6.837   8.644  0.0112 -0.0598 -0.1208
14618WAT     H160277  -7.226   6.895   8.605 -0.7400 -1.2090 -0.6615
14618WAT     H260278  -7.201   6.750   8.640  2.1209 -1.0598 -1.8243
14618WAT    EPW60279  -7.175   6.833   8.638  0.1905 -0.3433 -0.4163
14619WAT      O60280   3.423   1.323   6.997 -0.4761 -0.5105  0.9398
14619WAT     H160281   3.415   1.341   6.903 -0.3141  1.8442  1.3314
14619WAT     H260282   3.497   1.262   7.003 -0.6377 -0.8916 -0.4600
14619WAT    EPW60283   3.432   1.317   6.985 -0.4760 -0.2502  0.8068
14620WAT      O60284   2.061   1.121   6.261  0.2156  0.0597 -0.1533
14620WAT     H160285   1.992   1.055   6.266 -0.9344  1.3264  1.4855
14620WAT     H260286   2.087   1.137   6.351  0.9396  1.3736 -0.5633
14620WAT    EPW60287   2.055   1.115   6.273  0.1594  0.4000  0.0088
14621WAT      O60288   2.459   0.534   6.125 -0.0104 -0.4260 -0.4171
14621WAT     H160289   2.513   0.565   6.198 -0.2349  1.1966 -0.9066
14621WAT     H260290   2.507   0.561   6.047 -1.0901  0.2530 -0.8583
14621WAT    EPW60291   2.472   0.541   6.124 -0.1824 -0.1224 -0.5400
14622WAT      O60292  -2.068   4.252   8.792  0.4269  0.2953  0.5313
14622WAT     H160293  -2.045   4.240   8.884 -0.5923 -2.0884  0.5479
14622WAT     H260294  -2.154   4.293   8.794  0.4186  0.2724  0.6542
14622WAT    EPW60295  -2.076   4.256   8.804  0.2915 -0.0219  0.5493
14623WAT      O60296   0.013   8.908   3.289  0.4225 -0.7518  0.1324
14623WAT     H160297  -0.056   8.843   3.305  1.0803 -1.0978  1.8045
14623WAT     H260298  -0.031   8.992   3.302 -0.1344 -0.8932 -0.7658
14623WAT    EPW60299  -0.002   8.911   3.293  0.4358 -0.8163  0.2345
14624WAT      O60300   1.547  10.033   3.085  0.2796  0.1806 -0.0559
14624WAT     H160301   1.481  10.033   3.154  0.6680  0.6901  0.3306
14624WAT     H260302   1.625  10.069   3.128  0.8910 -0.6875 -0.4239
14624WAT    EPW60303   1.548  10.038   3.100  0.4115  0.1335 -0.0534
14625WAT      O60304   1.787   6.448   4.808 -0.3601  0.0179  0.1320
14625WAT     H160305   1.819   6.509   4.874 -2.0809  0.1669  0.8858
14625WAT     H260306   1.742   6.503   4.744 -0.9972 -0.3426  0.2564
14625WAT    EPW60307   1.785   6.464   4.809 -0.6711 -0.0098  0.2480
14626WAT      O60308   4.820   1.021   6.223 -0.2759  0.1206 -0.3853
14626WAT     H160309   4.823   1.117   6.224 -0.8137  0.1804 -1.8944
14626WAT     H260310   4.892   0.995   6.280  0.6252  1.4224 -0.8755
14626WAT    EPW60311   4.830   1.030   6.231 -0.2279  0.3002 -0.6490
14627WAT      O60312   6.119   2.681   0.648 -0.7333 -0.1151 -0.3972
14627WAT     H160313   6.186   2.618   0.674  0.6344  0.8148 -1.5828
14627WAT     H260314   6.041   2.654   0.698  1.1352  0.3669  3.0827
14627WAT    EPW60315   6.117   2.669   0.658 -0.3064  0.0712 -0.0946
14628WAT      O60316   7.239   3.723   1.443 -0.3852  0.1501 -0.1536
14628WAT     H160317   7.184   3.656   1.484 -0.2981 -0.4911 -1.0416
14628WAT     H260318   7.313   3.732   1.502 -0.2625 -0.7465 -0.1455
14628WAT    EPW60319   7.241   3.715   1.456 -0.3576 -0.0527 -0.2697
14629WAT      O60320   1.051   2.697   8.380  0.0446  0.9927 -0.0628
14629WAT     H160321   1.087   2.778   8.344  2.4087  0.1836  0.3029
14629WAT     H260322   1.060   2.633   8.309  2.4272  0.0013  1.0126
14629WAT    EPW60323   1.057   2.699   8.366  0.6707  0.7553  0.1278
14630WAT      O60324   1.046   3.941   5.746 -0.1950 -0.4237  0.3894
14630WAT     H160325   0.973   4.002   5.758 -1.5288 -1.5146 -1.5785
14630WAT     H260326   1.004   3.858   5.722  1.6095 -1.8109  1.7597
14630WAT    EPW60327   1.031   3.938   5.744 -0.1329 -0.7505  0.3107
14631WAT      O60328  -1.512   6.667   7.396  0.4455  0.1913 -0.0874
14631WAT     H160329  -1.589   6.677   7.452 -0.9370 -0.3484 -1.7963
14631WAT     H260330  -1.518   6.577   7.364  1.9156  0.0746 -0.0981
14631WAT    EPW60331  -1.523   6.656   7.399  0.4570  0.1047 -0.3142
14632WAT      O60332   0.826   3.777   2.433  0.0653  0.0267  0.1640
14632WAT     H160333   0.859   3.863   2.406  0.1443  0.5617  1.8107
14632WAT     H260334   0.885   3.715   2.390  0.3598  0.8132 -0.6070
14632WAT    EPW60335   0.838   3.781   2.424  0.1146  0.2010  0.2795
14633WAT      O60336  -0.259   7.342   1.233  0.1858 -0.1554  0.0742
14633WAT     H160337  -0.294   7.303   1.153  2.4725 -0.7013 -0.7234
14633WAT     H260338  -0.252   7.436   1.213  1.9069 -0.4510 -0.8788
14633WAT    EPW60339  -0.263   7.349   1.220  0.7144 -0.2666 -0.1566
14634WAT      O60340  -2.449   9.070   4.470  0.2281  0.2261  0.0154
14634WAT     H160341  -2.437   9.123   4.549 -1.3562 -0.1651  0.5550
14634WAT     H260342  -2.469   9.133   4.401  1.0503  0.5188  0.0257
14634WAT    EPW60343  -2.450   9.085   4.471  0.1274  0.2131  0.0877
14635WAT      O60344   5.211   6.036   2.666 -0.0717  0.3466  1.1416
14635WAT     H160345   5.303   6.057   2.682 -0.0789 -0.5913  2.6612
14635WAT     H260346   5.163   6.103   2.716 -0.1273 -1.0822  3.1396
14635WAT    EPW60347   5.217   6.048   2.675 -0.0799  0.0346  1.6055
14636WAT      O60348  -0.382   3.263   7.559  0.0623 -0.4997 -0.1565
14636WAT     H160349  -0.346   3.351   7.569  1.6368 -1.0410 -0.7212
14636WAT     H260350  -0.337   3.228   7.482  0.4047 -2.2423  0.7934
14636WAT    EPW60351  -0.371   3.270   7.550  0.3151 -0.8008 -0.1059
14637WAT      O60352  -2.413   7.374   4.245  0.3982 -0.0185  0.4412
14637WAT     H160353  -2.367   7.383   4.329  0.3635  2.0545  0.2900
14637WAT     H260354  -2.443   7.463   4.225 -0.4039 -0.6491 -1.3262
14637WAT    EPW60355  -2.411   7.387   4.254  0.2879  0.1717  0.1881
14638WAT      O60356  -1.867   2.855   4.304  0.3109  0.7124 -0.7151
14638WAT     H160357  -1.953   2.888   4.331  1.6945  2.5640  1.9724
14638WAT     H260358  -1.813   2.934   4.295  1.8972 -0.4265 -1.7459
14638WAT    EPW60359  -1.871   2.870   4.307  0.7026  0.8065 -0.4964
14639WAT      O60360   0.245   0.419   4.339  0.1687 -0.0013  0.0173
14639WAT     H160361   0.259   0.420   4.433 -0.5377  1.0649  0.1330
14639WAT     H260362   0.197   0.500   4.321 -0.5492 -0.6426 -1.1239
14639WAT    EPW60363   0.240   0.430   4.349 -0.0191  0.0547 -0.1180
14640WAT      O60364   2.999   9.374   6.533  0.2412 -0.1859  0.4123
14640WAT     H160365   3.060   9.313   6.492 -2.1430 -1.1638 -1.9916
14640WAT     H260366   2.926   9.318   6.562 -1.6293  1.3438 -1.1089
14640WAT    EPW60367   2.998   9.358   6.531 -0.3200 -0.1130 -0.1056
14641WAT      O60368   8.425   6.047   0.541  0.0483  0.7777  0.2966
14641WAT     H160369   8.341   6.081   0.573 -0.5927 -1.1650  0.8226
14641WAT     H260370   8.427   6.074   0.449 -0.7805  1.5226  0.4733
14641WAT    EPW60371   8.414   6.055   0.533 -0.1454  0.6196  0.3893
14642WAT      O60372   4.405   5.896   0.444  0.4493 -0.4309  0.2915
14642WAT     H160373   4.347   5.972   0.445  1.4592  0.5096 -2.8390
14642WAT     H260374   4.369   5.839   0.377  1.7894 -0.9450 -0.0175
14642WAT    EPW60375   4.393   5.899   0.436  0.7594 -0.3748 -0.1621
14643WAT      O60376   4.980   9.064   2.741  0.1159 -0.6952 -0.2310
14643WAT     H160377   5.026   9.143   2.712 -3.0896  0.9245 -1.5254
14643WAT     H260378   4.968   9.077   2.835  0.6423 -0.2104 -0.2262
14643WAT    EPW60379   4.984   9.076   2.749 -0.2372 -0.4172 -0.4010
14644WAT      O60380   6.535   0.294   5.562 -0.2169 -1.4279 -0.1402
14644WAT     H160381   6.532   0.381   5.601  0.1100 -1.4968  0.0449
14644WAT     H260382   6.458   0.289   5.506  0.6590 -0.3689 -1.5065
14644WAT    EPW60383   6.525   0.305   5.560 -0.0582 -1.2973 -0.2961
14645WAT      O60384  -3.341  10.145   5.558 -0.4708 -0.2496 -0.7190
14645WAT     H160385  -3.380  10.118   5.641 -0.1161  2.2512  0.3387
14645WAT     H260386  -3.251  10.110   5.561  0.0200  1.0326  0.6633
14645WAT    EPW60387  -3.334  10.137   5.569 -0.3592  0.2494 -0.3970
14646WAT      O60388  -1.675   4.013   3.256  0.0414 -0.4319  0.6318
14646WAT     H160389  -1.729   4.056   3.323  2.5473  1.6743  1.4597
14646WAT     H260390  -1.639   3.936   3.300  0.3407  0.0153  1.1869
14646WAT    EPW60391  -1.677   4.008   3.271  0.4113 -0.0949  0.8142
14647WAT      O60392  -3.325   8.047   2.519 -0.5541  0.2524 -0.0700
14647WAT     H160393  -3.293   7.962   2.550 -0.1415  0.6826  0.7144
14647WAT     H260394  -3.394   8.025   2.456  0.2017 -0.6732 -0.5941
14647WAT    EPW60395  -3.330   8.033   2.515 -0.3999  0.1874 -0.0356
14648WAT      O60396   0.274   3.674   0.570 -0.1989  0.5039 -0.0685
14648WAT     H160397   0.369   3.689   0.573 -0.0318 -0.0102 -1.7051
14648WAT     H260398   0.258   3.641   0.481 -1.4744 -2.5521  1.1864
14648WAT    EPW60399   0.285   3.672   0.558 -0.3451  0.0330 -0.1189
14649WAT      O60400   1.724   7.340   2.924 -1.3803  0.7716 -0.1568
14649WAT     H160401   1.704   7.412   2.983  1.9635  2.3395 -0.6809
14649WAT     H260402   1.703   7.373   2.837  0.7492  1.4892 -0.4625
14649WAT    EPW60403   1.719   7.354   2.920 -0.6585  1.0734 -0.2663
14650WAT      O60404   5.160   0.889   5.161 -0.3115 -0.0097  0.1225
14650WAT     H160405   5.237   0.870   5.215 -1.3219 -1.1700  1.2028
14650WAT     H260406   5.088   0.845   5.205 -1.7884  1.8225 -0.3734
14650WAT    EPW60407   5.161   0.880   5.174 -0.6397  0.0789  0.1996
14651WAT      O60408  -3.028   9.604   0.562  0.0772  0.2684  0.5895
14651WAT     H160409  -3.104   9.609   0.505  0.3482  0.6701  0.2522
14651WAT     H260410  -2.967   9.545   0.517 -0.2672 -0.5296  1.1481
14651WAT    EPW60411  -3.030   9.597   0.549  0.0676  0.2165  0.6187
14652WAT      O60412  -7.189   7.827   8.777  0.8990 -0.0150 -0.0248
14652WAT     H160413  -7.183   7.889   8.704  1.5565  0.6757  0.6050
14652WAT     H260414  -7.098   7.808   8.799  0.7206 -1.6909 -0.5947
14652WAT    EPW60415  -7.176   7.833   8.770  0.9623 -0.1452 -0.0172
14653WAT      O60416   7.788   0.301   3.349  0.0764 -0.1079 -0.2480
14653WAT     H160417   7.877   0.333   3.359  1.2573 -3.3413  1.2070
14653WAT     H260418   7.732   0.374   3.374  2.4480  0.8725  2.6779
14653WAT    EPW60419   7.792   0.315   3.353  0.5453 -0.4051  0.3299
14654WAT      O60420  -0.967   0.461   8.941  0.3390 -1.1026 -0.6196
14654WAT     H160421  -0.881   0.485   8.907  0.5763 -0.4449  0.4374
14654WAT     H260422  -0.955   0.373   8.978  1.0512 -0.2577  1.2471
14654WAT    EPW60423  -0.954   0.452   8.941  0.4642 -0.9046 -0.2340
14655WAT      O60424   1.029   6.017   0.553  0.7770  0.4167 -0.0337
14655WAT     H160425   1.008   5.975   0.470  1.4332 -0.6892  0.3465
14655WAT     H260426   0.954   5.996   0.610  0.8328  0.2461 -0.0219
14655WAT    EPW60427   1.016   6.009   0.550  0.8709  0.2484  0.0180
14656WAT      O60428  -3.616  10.129   5.128  0.4365 -0.1489 -0.2939
14656WAT     H160429  -3.682  10.062   5.147  0.1566  0.6721  2.0190
14656WAT     H260430  -3.533  10.088   5.151  0.5119 -0.4191 -1.0204
14656WAT    EPW60431  -3.614  10.115   5.134  0.4095 -0.0763 -0.0849
14657WAT      O60432   0.831   9.705   5.573 -0.3611  0.2096  0.0952
14657WAT     H160433   0.915   9.662   5.556  0.5222  0.5289  3.1277
14657WAT     H260434   0.781   9.641   5.624 -0.6005  1.2296  1.2006
14657WAT    EPW60435   0.835   9.691   5.578 -0.2761  0.3867  0.6411
14658WAT      O60436  -1.918   8.337   0.226  0.0545 -0.0108  0.9581
14658WAT     H160437  -2.011   8.328   0.205  0.6805 -0.3099 -2.1465
14658WAT     H260438  -1.877   8.361   0.143  2.7228  0.5118  2.3234
14658WAT    EPW60439  -1.925   8.339   0.212  0.4890  0.0186  0.7287
14659WAT      O60440  -1.425   4.664   2.421  0.0929  0.2730 -0.3038
14659WAT     H160441  -1.515   4.687   2.445 -0.2015 -1.4336  0.2989
14659WAT     H260442  -1.385   4.633   2.502  1.0428  0.3872 -0.7123
14659WAT    EPW60443  -1.431   4.663   2.434  0.1794  0.0629 -0.2781
14660WAT      O60444   0.500   3.856   1.196 -0.3912  0.1114  0.0777
14660WAT     H160445   0.518   3.878   1.287 -2.4358 -2.3220  1.1915
14660WAT     H260446   0.563   3.908   1.146  2.6026 -0.3599  2.9699
14660WAT    EPW60447   0.511   3.866   1.201 -0.2660 -0.2717  0.6061
14661WAT      O60448  -1.833  10.320   2.731 -0.0368 -0.3077  0.9648
14661WAT     H160449  -1.780  10.361   2.663  0.0169 -1.7132  0.1153
14661WAT     H260450  -1.830  10.382   2.804  1.8471  0.1870  0.5413
14661WAT    EPW60451  -1.825  10.333   2.732  0.2188 -0.4277  0.7969
14662WAT      O60452   4.255   5.121   4.466 -0.7300  0.0097 -0.1816
14662WAT     H160453   4.251   5.029   4.441 -2.8914 -0.4018  1.3518
14662WAT     H260454   4.170   5.138   4.507  0.9077  1.7153  2.8309
14662WAT    EPW60455   4.243   5.111   4.468 -0.7989  0.1805  0.4179
14663WAT      O60456   8.545   0.579   2.151 -0.5044 -0.0779  0.4357
14663WAT     H160457   8.478   0.511   2.154 -1.6439  1.0262  2.4187
14663WAT     H260458   8.564   0.597   2.243  2.3502 -0.1349 -0.0581
14663WAT    EPW60459   8.539   0.572   2.163 -0.2785  0.0602  0.6320
14664WAT      O60460   1.721   0.973   0.926 -0.5213  0.2240 -0.5836
14664WAT     H160461   1.725   0.910   0.997 -1.0429  0.2331 -0.5437
14664WAT     H260462   1.771   1.048   0.958 -2.2703  0.9775  0.5440
14664WAT    EPW60463   1.728   0.975   0.939 -0.8208  0.3245 -0.4296
14665WAT      O60464   1.269   0.837   8.430  0.2643  0.1890  0.4821
14665WAT     H160465   1.274   0.796   8.344 -2.1153 -0.9453  0.8142
14665WAT     H260466   1.358   0.866   8.448  1.2445 -1.4195 -1.4419
14665WAT    EPW60467   1.281   0.836   8.421  0.0798 -0.1727  0.2718
14666WAT      O60468  -1.002  10.292   5.354  0.6645 -0.9619  0.1945
14666WAT     H160469  -1.017  10.198   5.365 -1.0276 -0.8347 -0.5772
14666WAT     H260470  -0.971  10.301   5.264 -0.3602 -0.7069 -0.1522
14666WAT    EPW60471  -1.000  10.281   5.344  0.3061 -0.9112  0.0470
14667WAT      O60472  -5.065   2.177   8.464  0.2306 -0.9470  0.1424
14667WAT     H160473  -5.160   2.182   8.479  0.2979 -1.5919  0.8189
14667WAT     H260474  -5.027   2.192   8.550  0.7624 -0.3639 -0.1861
14667WAT    EPW60475  -5.073   2.180   8.477  0.3097 -0.9551  0.1884
14668WAT      O60476   2.240   1.633   3.396  0.1401  0.6095  0.1172
14668WAT     H160477   2.218   1.541   3.380 -0.4575  1.0049 -1.6155
14668WAT     H260478   2.196   1.654   3.478 -1.4946 -0.1140 -0.5271
14668WAT    EPW60479   2.231   1.624   3.405 -0.1544  0.5663 -0.1962
14669WAT      O60480   5.897   8.061   1.850  0.0564  0.3266  0.2530
14669WAT     H160481   5.908   7.966   1.856 -1.1768 -0.5928 -5.4400
14669WAT     H260482   5.966   8.088   1.789 -0.7986  2.7436  0.2749
14669WAT    EPW60483   5.908   8.052   1.842 -0.2191  0.5245 -0.4950
14670WAT      O60484  -0.494   9.627   5.007  0.2681  0.4644 -0.2259
14670WAT     H160485  -0.556   9.696   5.030 -0.2346 -0.3643  1.0151
14670WAT     H260486  -0.520   9.598   4.920 -1.6547 -0.4333  0.5956
14670WAT    EPW60487  -0.506   9.632   4.998 -0.0518  0.2370  0.0463
14671WAT      O60488   4.191   5.134   3.731  0.1832  0.1720  0.8047
14671WAT     H160489   4.272   5.101   3.693  1.0808  2.7373  0.3391
14671WAT     H260490   4.179   5.220   3.692 -0.9145  1.3264  3.4412
14671WAT    EPW60491   4.200   5.141   3.721  0.1571  0.6628  1.0911
14672WAT      O60492  -2.475   9.316   2.298 -0.1613 -0.6693 -0.2876
14672WAT     H160493  -2.444   9.264   2.225  0.8563  0.6422 -0.8327
14672WAT     H260494  -2.463   9.407   2.270 -2.8365 -0.0765  0.2136
14672WAT    EPW60495  -2.470   9.321   2.285 -0.3799 -0.4177 -0.2934
14673WAT      O60496  -1.486   2.289   6.807 -0.7606 -0.4971  0.0883
14673WAT     H160497  -1.534   2.206   6.810 -0.7779 -0.5141 -0.6104
14673WAT     H260498  -1.443   2.289   6.722 -2.0181  0.9165 -0.5983
14673WAT    EPW60499  -1.487   2.278   6.797 -0.9287 -0.3129 -0.0944
14674WAT      O60500   1.828   5.049   5.382 -0.1803 -0.0841 -0.9689
14674WAT     H160501   1.807   4.956   5.389 -1.4116  0.1949 -0.6348
14674WAT     H260502   1.904   5.061   5.440 -1.4147 -0.4902  0.8202
14674WAT    EPW60503   1.835   5.038   5.391 -0.5055 -0.1009 -0.6888
14675WAT      O60504   2.962   0.426   7.804  0.5790  0.7003  0.3586
14675WAT     H160505   2.947   0.513   7.766  2.5902  0.1776 -1.8896
14675WAT     H260506   3.034   0.438   7.866 -0.4551  0.9385  1.5556
14675WAT    EPW60507   2.969   0.439   7.807  0.7079  0.6628  0.2198
14676WAT      O60508   3.408   8.963   0.730  0.1136 -0.6037  0.1964
14676WAT     H160509   3.407   8.902   0.657  0.9436 -2.3269  1.5327
14676WAT     H260510   3.394   8.908   0.807 -0.0605  1.0416  1.4011
14676WAT    EPW60511   3.406   8.948   0.731  0.2002 -0.6137  0.5316
14677WAT      O60512  -4.739   2.208   7.142 -0.1818 -0.4226  0.3938
14677WAT     H160513  -4.705   2.298   7.142 -1.3322  0.1073  2.8288
14677WAT     H260514  -4.673   2.157   7.189 -0.3325 -0.4841  0.5403
14677WAT    EPW60515  -4.726   2.213   7.148 -0.3536 -0.3607  0.7346
14678WAT      O60516  -1.063   5.794   7.218 -0.4393  0.1556  0.1591
14678WAT     H160517  -1.136   5.855   7.210  0.9284  1.7946 -0.5454
14678WAT     H260518  -1.069   5.740   7.139 -0.8124  0.3545  0.0482
14678WAT    EPW60519  -1.073   5.795   7.206 -0.3081  0.3979  0.0515
14679WAT      O60520   0.114   0.916   7.008 -0.3667  0.6195 -0.3387
14679WAT     H160521   0.115   0.890   6.916 -0.5671  0.3740 -0.2729
14679WAT     H260522   0.202   0.950   7.024 -0.1214  0.0445 -0.4476
14679WAT    EPW60523   0.126   0.917   6.998 -0.3608  0.5113 -0.3443
14680WAT      O60524  -4.713   5.130   7.598 -1.0310 -0.2051  1.0126
14680WAT     H160525  -4.772   5.105   7.526  1.5855 -0.2064 -1.2856
14680WAT     H260526  -4.700   5.224   7.587  2.0009 -0.6954 -0.8122
14680WAT    EPW60527  -4.719   5.139   7.587 -0.2859 -0.2699  0.4687
14681WAT      O60528   2.148   1.320   3.254  0.3036  0.6577 -0.1783
14681WAT     H160529   2.153   1.225   3.259  0.2658  0.6639 -0.0227
14681WAT     H260530   2.055   1.338   3.236  0.8256  0.4950 -4.0287
14681WAT    EPW60531   2.136   1.310   3.252  0.3674  0.6371 -0.6655
14682WAT      O60532  -1.547   8.192   1.436 -0.5403  0.5667 -0.5142
14682WAT     H160533  -1.533   8.281   1.468 -0.6669  0.6936 -0.8070
14682WAT     H260534  -1.642   8.181   1.434 -0.5085  0.0989  0.3977
14682WAT    EPW60535  -1.557   8.202   1.440 -0.5528  0.5217 -0.4325
14683WAT      O60536   1.965   4.264   0.489 -0.4469  0.4645 -0.3731
14683WAT     H160537   1.927   4.301   0.569 -0.1688  2.7621 -1.2060
14683WAT     H260538   2.023   4.195   0.519 -0.8234  0.8484  1.3656
14683WAT    EPW60539   1.967   4.260   0.504 -0.4599  0.8183 -0.2536
14684WAT      O60540  -3.789   2.646   7.855  0.0236 -1.0553 -0.3645
14684WAT     H160541  -3.698   2.674   7.846 -0.1078 -0.7027 -0.6788
14684WAT     H260542  -3.839   2.712   7.806 -0.3703 -1.4198 -0.4649
14684WAT    EPW60543  -3.784   2.658   7.847 -0.0457 -1.0569 -0.4191
14685WAT      O60544  -6.107   7.376   5.820  0.4461 -0.7413  0.3531
14685WAT     H160545  -6.194   7.344   5.840  0.3452 -0.5830  0.1766
14685WAT     H260546  -6.086   7.336   5.735  1.7539 -3.1632  1.7072
14685WAT    EPW60547  -6.116   7.366   5.811  0.6053 -1.0397  0.5085
14686WAT      O60548   6.193   5.896   0.495 -0.5571 -0.5600  0.7995
14686WAT     H160549   6.228   5.807   0.481 -0.0597 -0.4275  1.1670
14686WAT     H260550   6.114   5.883   0.547  1.0883 -0.6228  3.4699
14686WAT    EPW60551   6.187   5.882   0.500 -0.2747 -0.5510  1.2002
14687WAT      O60552   2.699   0.938   7.601 -0.8484  0.2078  0.0247
14687WAT     H160553   2.718   0.888   7.522  1.6660 -0.4769  0.9534
14687WAT     H260554   2.631   1.001   7.575 -0.2100 -0.0933 -2.5965
14687WAT    EPW60555   2.692   0.940   7.587 -0.4326  0.0778 -0.1986
14688WAT      O60556   3.858   2.411   7.434 -0.0084  0.0709  0.2873
14688WAT     H160557   3.918   2.345   7.470 -1.0030 -0.3849  1.1957
14688WAT     H260558   3.913   2.486   7.414  1.1481 -1.0199 -0.7339
14688WAT    EPW60559   3.873   2.412   7.436  0.0130 -0.1332  0.2725
14689WAT      O60560   0.999   4.169   1.182 -0.0608 -0.0641 -0.7219
14689WAT     H160561   0.979   4.076   1.181  0.1407 -0.1221  0.3021
14689WAT     H260562   0.960   4.202   1.101 -1.6053 -0.7361 -0.2860
14689WAT    EPW60563   0.991   4.161   1.171 -0.2379 -0.1605 -0.5294
14690WAT      O60564   3.598   5.809   5.004  0.3372 -0.1473  0.8541
14690WAT     H160565   3.579   5.792   4.911 -1.8940 -0.6089  1.3264
14690WAT     H260566   3.673   5.753   5.023  0.8419 -0.0383 -0.6728
14690WAT    EPW60567   3.605   5.799   4.994  0.1094 -0.1938  0.7150
14691WAT      O60568   3.803   0.594   1.317 -0.6684  0.0133 -0.0351
14691WAT     H160569   3.726   0.558   1.274 -1.4704 -1.0565  2.1124
14691WAT     H260570   3.769   0.636   1.396  0.6337  2.6565 -0.7781
14691WAT    EPW60571   3.789   0.595   1.322 -0.6025  0.2208  0.1501
14692WAT      O60572   2.931   9.968   5.392 -0.1585  0.2345  0.3975
14692WAT     H160573   2.906   9.877   5.403 -0.6185  0.0740 -1.6438
14692WAT     H260574   2.925   9.984   5.298 -0.6085  2.5114  0.7476
14692WAT    EPW60575   2.927   9.958   5.381 -0.2785  0.5136  0.1745
14693WAT      O60576   1.724   1.034   3.234  1.1909 -0.6675  0.0324
14693WAT     H160577   1.733   1.117   3.279  1.9940 -0.7159 -0.0179
14693WAT     H260578   1.668   1.053   3.158 -0.1929 -0.5973  1.0407
14693WAT    EPW60579   1.718   1.047   3.230  1.1142 -0.6647  0.1588
14694WAT      O60580  -4.080   6.718   5.820 -0.1114  0.1130 -0.0101
14694WAT     H160581  -4.049   6.804   5.848  0.0549 -0.1232  0.5596
14694WAT     H260582  -4.170   6.714   5.850 -0.1478  0.1253 -0.1190
14694WAT    EPW60583  -4.087   6.729   5.828 -0.0942  0.0834  0.0508
14695WAT      O60584  -3.585   9.613   2.137  0.0264  0.3425 -0.0876
14695WAT     H160585  -3.533   9.552   2.189 -1.1031 -0.2830  0.3381
14695WAT     H260586  -3.636   9.557   2.078 -2.2994  0.6876  1.4690
14695WAT    EPW60587  -3.584   9.598   2.136 -0.4293  0.3057  0.1739
14696WAT      O60588   3.065   3.251   8.184  0.3124 -0.5563 -0.1475
14696WAT     H160589   3.037   3.182   8.244  1.6167 -0.4052  0.6689
14696WAT     H260590   3.089   3.324   8.242 -0.9493  0.5723 -0.9799
14696WAT    EPW60591   3.064   3.252   8.200  0.3179 -0.3875 -0.1497
14697WAT      O60592   2.033   9.340   3.251 -0.1154  0.3414 -0.3002
14697WAT     H160593   1.986   9.372   3.328  0.1892  1.5751 -0.5916
14697WAT     H260594   2.126   9.344   3.276 -0.0124  0.7829 -0.7274
14697WAT    EPW60595   2.039   9.345   3.265 -0.0615  0.5627 -0.3951
14698WAT      O60596   6.171   2.629   0.386 -0.1870 -0.2377  0.0716
14698WAT     H160597   6.247   2.684   0.368  0.5631 -1.1878  0.2956
14698WAT     H260598   6.144   2.655   0.474 -1.8022  2.0008 -0.9673
14698WAT    EPW60599   6.177   2.640   0.395 -0.3009 -0.0677 -0.0359
14699WAT      O60600  -1.712   6.424   7.681 -0.0077 -0.2893 -0.0386
14699WAT     H160601  -1.708   6.340   7.635  0.5840 -0.1387 -0.2802
14699WAT     H260602  -1.645   6.477   7.637  0.1717  0.0406  0.6320
14699WAT    EPW60603  -1.702   6.420   7.669  0.0939 -0.2260  0.0176
14700WAT      O60604   5.473   9.849   0.921 -0.0017  0.3806 -0.5047
14700WAT     H160605   5.441   9.902   0.994 -0.5147 -0.4908 -0.0892
14700WAT     H260606   5.427   9.883   0.844  0.6645  1.4153 -0.4704
14700WAT    EPW60607   5.463   9.861   0.921  0.0186  0.4025 -0.4454
14701WAT      O60608   3.921   1.652   5.150  0.2261  0.4958 -0.6743
14701WAT     H160609   3.834   1.690   5.166 -0.3551 -0.9983 -0.0735
14701WAT     H260610   3.935   1.661   5.056 -1.4733 -0.9807 -1.1234
14701WAT    EPW60611   3.911   1.658   5.140 -0.0747  0.1040 -0.6545
14702WAT      O60612  10.539   0.140   0.258  0.2177  0.1580  0.7157
14702WAT     H160613  10.474   0.140   0.188 -0.3813 -3.1574  1.1035
14702WAT     H260614  10.599   0.211   0.235 -1.6908  1.2152 -1.4091
14702WAT    EPW60615  10.538   0.149   0.246 -0.1135 -0.1398  0.4866
14703WAT      O60616  -2.035   3.550   3.553  0.6015 -0.0926 -0.3094
14703WAT     H160617  -2.131   3.553   3.553  0.5814 -0.3100 -1.4267
14703WAT     H260618  -2.013   3.491   3.481  1.5819 -0.0395 -0.0665
14703WAT    EPW60619  -2.045   3.542   3.544  0.7282 -0.1142 -0.4246
14704WAT      O60620   6.516   1.356   3.576 -0.2610 -0.0835 -0.1419
14704WAT     H160621   6.425   1.342   3.549  0.0285 -3.6608  0.2799
14704WAT     H260622   6.552   1.268   3.588  2.7475  1.2006  1.5170
14704WAT    EPW60623   6.509   1.342   3.574  0.1743 -0.3859  0.1326
14705WAT      O60624   0.037   2.036   1.037  0.1311 -1.0271  0.0312
14705WAT     H160625  -0.010   2.118   1.053 -1.1219 -1.6514 -0.3246
14705WAT     H260626   0.129   2.062   1.030 -0.4259  0.6496 -2.0247
14705WAT    EPW60627   0.043   2.050   1.038 -0.1076 -0.8883 -0.2869
14706WAT      O60628   6.004   7.755   2.707  0.2860 -1.0103  0.0369
14706WAT     H160629   6.071   7.799   2.759  0.2773 -0.9682  0.0128
14706WAT     H260630   6.009   7.663   2.734  1.0026 -1.1868 -0.6420
14706WAT    EPW60631   6.013   7.748   2.717  0.3796 -1.0278 -0.0559
14707WAT      O60632  -2.182   4.373   7.545 -0.2446  0.0444  0.3038
14707WAT     H160633  -2.266   4.403   7.509  1.2740  0.8579 -2.9179
14707WAT     H260634  -2.140   4.453   7.577 -1.2858 -0.5830  3.6288
14707WAT    EPW60635  -2.188   4.388   7.545 -0.1817  0.0689  0.3173
14708WAT      O60636   1.471   1.254   7.753  0.7207 -0.5269  0.1708
14708WAT     H160637   1.451   1.179   7.698  1.9645 -0.6923 -0.0658
14708WAT     H260638   1.395   1.312   7.743  0.3180 -1.1823 -0.6105
14708WAT    EPW60639   1.458   1.252   7.745  0.8316 -0.6351  0.0367
14709WAT      O60640  -0.220   0.523   3.398 -0.0653 -0.7576  0.2558
14709WAT     H160641  -0.219   0.474   3.315 -0.2227 -0.9293  0.3553
14709WAT     H260642  -0.187   0.610   3.374  1.4543 -1.2853  0.3125
14709WAT    EPW60643  -0.215   0.528   3.384  0.1144 -0.8498  0.2763
14710WAT      O60644   1.122   7.704   3.022 -0.2220  0.3655  0.1747
14710WAT     H160645   1.055   7.639   3.044  0.6192 -0.3987  0.5441
14710WAT     H260646   1.169   7.719   3.103  2.8593 -2.4269 -0.8674
14710WAT    EPW60647   1.119   7.697   3.036  0.2954 -0.1037  0.0859
14711WAT      O60648  -3.002   1.683   6.998 -0.5264  0.2624  0.1079
14711WAT     H160649  -3.089   1.711   7.024 -1.5156 -0.0520 -2.5455
14711WAT     H260650  -3.008   1.670   6.903  1.7633 -2.0052  0.1440
14711WAT    EPW60651  -3.014   1.685   6.988 -0.3549 -0.0781 -0.2372
14712WAT      O60652   2.759   2.741   2.801  0.4337 -0.1367 -0.5171
14712WAT     H160653   2.740   2.670   2.739 -1.5188  1.3954 -1.8276
14712WAT     H260654   2.781   2.815   2.745  3.8222  0.0619  0.8361
14712WAT    EPW60655   2.760   2.741   2.785  0.6231  0.0916 -0.5115
14713WAT      O60656  -2.219   6.956   0.439 -0.0658 -0.1142  0.4683
14713WAT     H160657  -2.135   6.929   0.478  0.9108  0.8647 -0.8555
14713WAT     H260658  -2.272   6.983   0.514  1.4809  0.9830  1.2344
14713WAT    EPW60659  -2.215   6.956   0.454  0.2670  0.1595  0.3947
14714WAT      O60660  -4.877   8.051   6.713  0.2254 -0.2816  0.0353
14714WAT     H160661  -4.955   8.001   6.688 -1.4544  1.3869  1.6094
14714WAT     H260662  -4.848   8.092   6.631  0.9234 -2.7407 -1.0465
14714WAT    EPW60663  -4.884   8.050   6.699  0.0958 -0.3853  0.1004
14715WAT      O60664   6.032   4.491   0.666  0.0552 -0.0946  0.2295
14715WAT     H160665   5.974   4.441   0.608  0.3856  0.2987 -0.4495
14715WAT     H260666   6.045   4.433   0.741  1.7272 -1.8024 -1.2384
14715WAT    EPW60667   6.026   4.476   0.668  0.3192 -0.2680 -0.0536
14716WAT      O60668   6.838   3.429   0.897 -0.1284  0.0751 -0.5682
14716WAT     H160669   6.882   3.403   0.816  1.6928  0.9427  0.0766
14716WAT     H260670   6.776   3.497   0.870  0.4692  0.3663 -1.2432
14716WAT    EPW60671   6.836   3.435   0.882  0.1907  0.2279 -0.5721
14717WAT      O60672  -0.362   4.163   4.376  0.3358 -0.1159  0.6001
14717WAT     H160673  -0.369   4.202   4.289 -0.2180  1.8734  1.4766
14717WAT     H260674  -0.276   4.191   4.408 -0.5875  1.6289  1.7448
14717WAT    EPW60675  -0.352   4.172   4.369  0.1410  0.3765  0.8667
14718WAT      O60676  -6.260   8.182   7.491 -0.1912 -0.2931  0.2842
14718WAT     H160677  -6.190   8.191   7.556 -1.4298 -1.0050  1.7769
14718WAT     H260678  -6.285   8.090   7.496 -0.4304 -0.3305 -1.1316
14718WAT    EPW60679  -6.254   8.171   7.500 -0.3860 -0.3924  0.2942
14719WAT      O60680   7.941   0.097   4.435  0.8645 -0.3028 -0.2316
14719WAT     H160681   7.982   0.011   4.427  0.2069 -0.6344 -0.1399
14719WAT     H260682   7.852   0.078   4.466 -0.4929  0.1476 -3.5194
14719WAT    EPW60683   7.935   0.083   4.438  0.5989 -0.2871 -0.6533
14720WAT      O60684  -1.608   4.446   5.426  0.2877  0.6289  0.9893
14720WAT     H160685  -1.676   4.388   5.459 -0.3956  0.7537 -0.1148
14720WAT     H260686  -1.650   4.532   5.423  0.3430  0.6423 -0.0378
14720WAT    EPW60687  -1.623   4.450   5.430  0.2049  0.6471  0.7081
14721WAT      O60688  -1.782   4.927   7.966  0.1741  0.0833  0.4060
14721WAT     H160689  -1.797   4.955   7.876  1.8707 -1.5579 -0.4419
14721WAT     H260690  -1.715   4.988   7.999 -0.9495  1.1262  0.8392
14721WAT    EPW60691  -1.775   4.939   7.959  0.2497  0.0043  0.3512
14722WAT      O60692  -0.771   1.606   6.753 -0.0797  0.5571  0.4773
14722WAT     H160693  -0.846   1.660   6.781 -0.1974 -0.7464  2.9577
14722WAT     H260694  -0.726   1.584   6.835  1.0439 -1.5299 -0.6390
14722WAT    EPW60695  -0.775   1.610   6.768  0.0530  0.1099  0.6573
14723WAT      O60696   1.718   0.977   2.786  0.5324 -0.0016  0.1339
14723WAT     H160697   1.673   0.919   2.848  0.2690 -0.0290 -0.0771
14723WAT     H260698   1.677   1.063   2.801 -2.0735 -0.6505 -2.3683
14723WAT    EPW60699   1.706   0.981   2.796  0.1540 -0.0908 -0.2239
14724WAT      O60700   0.847   4.041   5.133  0.0507 -0.4301  0.1936
14724WAT     H160701   0.918   3.990   5.095  0.5564  0.9222 -0.7676
14724WAT     H260702   0.888   4.093   5.202  0.2979  1.2851 -1.1911
14724WAT    EPW60703   0.862   4.041   5.137  0.1501 -0.0255 -0.1159
14725WAT      O60704   1.027   0.346   2.722  0.3746  0.2554 -0.3382
14725WAT     H160705   1.105   0.337   2.667  1.4233 -0.6238  1.2021
14725WAT     H260706   0.954   0.330   2.663  1.4027  0.4008 -1.6831
14725WAT    EPW60707   1.027   0.342   2.707  0.6485  0.1586 -0.3123
14726WAT      O60708  -5.027  10.324   8.391 -0.3541  0.4649 -0.1930
14726WAT     H160709  -5.037  10.416   8.416 -1.6178  0.1842  0.4251
14726WAT     H260710  -4.948  10.323   8.337 -0.8057  2.0628 -0.9679
14726WAT    EPW60711  -5.018  10.336   8.387 -0.5803  0.6385 -0.2136
14727WAT      O60712   3.626   2.371   8.228  0.4745  0.1928  0.0739
14727WAT     H160713   3.599   2.279   8.221 -0.9803  0.6937 -1.4869
14727WAT     H260714   3.722   2.367   8.235  0.4916 -1.4071 -0.6156
14727WAT    EPW60715   3.635   2.358   8.228  0.2850  0.0478 -0.2227
14728WAT      O60716   2.284   1.199   1.167  0.3617  0.1225  0.4146
14728WAT     H160717   2.256   1.186   1.076 -0.0759  1.7149  0.2956
14728WAT     H260718   2.379   1.209   1.162  0.3297  0.2800  0.1222
14728WAT    EPW60719   2.293   1.198   1.155  0.2998  0.3532  0.3604
14729WAT      O60720   8.802   3.910   0.337 -0.0431  0.7472 -0.0934
14729WAT     H160721   8.846   3.917   0.252  0.4196 -0.2740  0.0432
14729WAT     H260722   8.708   3.915   0.315  0.0818  0.8955 -0.6205
14729WAT    EPW60723   8.795   3.911   0.323  0.0343  0.6320 -0.1449
14730WAT      O60724   5.743   2.054   2.086 -0.4861 -0.7007 -0.0891
14730WAT     H160725   5.836   2.071   2.074  0.0187 -1.3278  2.3296
14730WAT     H260726   5.711   2.131   2.132 -1.5714  0.2335 -2.3000
14730WAT    EPW60727   5.751   2.066   2.091 -0.5627 -0.6602 -0.0618
14731WAT      O60728  -0.670   4.456   3.538  0.4789 -0.1231  0.6849
14731WAT     H160729  -0.640   4.420   3.622  0.2190 -2.7932 -0.2733
14731WAT     H260730  -0.736   4.394   3.508  0.4672  0.8520 -1.4528
14731WAT    EPW60731  -0.675   4.443   3.545  0.4431 -0.3467  0.2766
14732WAT      O60732   1.566   3.768   3.834 -0.1701 -0.1113  0.2098
14732WAT     H160733   1.628   3.838   3.852  0.7425 -1.0449  0.8099
14732WAT     H260734   1.601   3.724   3.756  0.0337 -0.7534  0.6572
14732WAT    EPW60735   1.579   3.771   3.826 -0.0228 -0.3190  0.3480
14733WAT      O60736   0.204   3.014   0.668 -0.2672  0.4147 -0.3175
14733WAT     H160737   0.284   2.997   0.719 -0.5201  2.7274  1.0070
14733WAT     H260738   0.232   3.010   0.577  0.6064 -2.0499 -0.0154
14733WAT    EPW60739   0.218   3.011   0.663 -0.1853  0.3946 -0.1029
14734WAT      O60740  -1.967   8.815   7.628  0.7223 -0.0162  0.4484
14734WAT     H160741  -2.004   8.785   7.711  2.3634  1.1713  1.6805
14734WAT     H260742  -2.003   8.903   7.616  2.5974  0.9360  1.3878
14734WAT    EPW60743  -1.976   8.822   7.637  1.1861  0.2661  0.7348
14735WAT      O60744  -0.686   7.597   8.818 -0.5798  0.5091 -0.0279
14735WAT     H160745  -0.613   7.658   8.823 -1.0590  1.0376  0.6802
14735WAT     H260746  -0.707   7.594   8.724  0.3339  0.3486 -0.2409
14735WAT    EPW60747  -0.679   7.604   8.806 -0.5225  0.5577  0.0372
14736WAT      O60748   2.461   7.128   0.912  0.0639  0.4074 -0.1016
14736WAT     H160749   2.399   7.201   0.913 -2.9492 -1.9174  1.3145
14736WAT     H260750   2.426   7.068   0.847  1.0854 -0.8140  0.4319
14736WAT    EPW60751   2.448   7.130   0.904 -0.1987 -0.0606  0.1555
14737WAT      O60752   1.097   3.011   7.858  0.2202 -1.3487 -0.0041
14737WAT     H160753   1.082   3.095   7.815 -0.7676 -0.7257  1.4661
14737WAT     H260754   1.108   2.949   7.786  1.5395  0.1046 -1.1247
14737WAT    EPW60755   1.096   3.014   7.843  0.2639 -1.0749  0.0420
14738WAT      O60756   0.534   2.075   0.944  0.3266  0.0541  0.3808
14738WAT     H160757   0.597   2.144   0.966 -1.4715  1.6659  0.7303
14738WAT     H260758   0.589   2.000   0.920  2.4188  1.9489 -1.2539
14738WAT    EPW60759   0.550   2.074   0.943  0.3654  0.5165  0.2113
14739WAT      O60760  -5.262   0.083   8.532 -1.0951 -0.1904  0.5268
14739WAT     H160761  -5.247   0.080   8.626  1.4326 -0.0396  0.2079
14739WAT     H260762  -5.242   0.173   8.507 -1.5903 -0.2636 -0.1681
14739WAT    EPW60763  -5.257   0.094   8.541 -0.8271 -0.1801  0.3929
14740WAT      O60764   3.343   2.055   6.895  0.2831 -0.2610  0.3115
14740WAT     H160765   3.409   2.102   6.945  1.4526  0.1383 -1.4922
14740WAT     H260766   3.310   2.119   6.832 -0.5849 -0.9217  0.0796
14740WAT    EPW60767   3.348   2.069   6.893  0.3229 -0.2954  0.0432
14741WAT      O60768   0.756   8.429   4.571  0.0102 -0.5301 -0.0092
14741WAT     H160769   0.777   8.363   4.506  0.7669 -1.6984  1.3636
14741WAT     H260770   0.686   8.481   4.531  0.2944 -1.3388 -1.6359
14741WAT    EPW60771   0.749   8.427   4.557  0.1474 -0.7911 -0.0427
14742WAT      O60772   5.722   1.520   6.411 -0.0318 -0.2462  0.2133
14742WAT     H160773   5.735   1.504   6.504 -0.2708 -0.4665  0.2078
14742WAT     H260774   5.742   1.437   6.368 -0.3387 -0.2661  0.1058
14742WAT    EPW60775   5.726   1.507   6.418 -0.1037 -0.2779  0.1984
14743WAT      O60776   7.146   6.443   0.191 -0.5062  0.9228 -0.3264
14743WAT     H160777   7.231   6.420   0.227 -1.7014 -0.7113  1.7285
14743WAT     H260778   7.139   6.390   0.111  1.2060  2.7272 -1.7468
14743WAT    EPW60779   7.156   6.433   0.185 -0.4380  0.9453 -0.2427
14744WAT      O60780   1.509   9.353   3.851  0.5064  0.6025 -0.7298
14744WAT     H160781   1.465   9.422   3.901  0.4299  0.5207 -0.6838
14744WAT     H260782   1.558   9.400   3.783 -0.9127  0.6083 -1.7776
14744WAT    EPW60783   1.510   9.368   3.849  0.3091  0.5922 -0.8618
14745WAT      O60784  -1.909   1.619   7.238 -0.2343 -0.5853 -0.1017
14745WAT     H160785  -1.920   1.677   7.163 -0.0523 -2.5119 -1.6795
14745WAT     H260786  -1.998   1.591   7.260 -0.1681 -1.1485 -0.5376
14745WAT    EPW60787  -1.922   1.623   7.231 -0.2016 -0.9137 -0.3672
14746WAT      O60788  -4.012   7.597   4.936  0.2043  0.3543  0.2153
14746WAT     H160789  -3.922   7.592   4.968  0.8315 -0.2379 -1.5395
14746WAT     H260790  -4.065   7.567   5.010  1.6016 -1.2960  0.6173
14746WAT    EPW60791  -4.007   7.593   4.950  0.4714  0.0587  0.0370
14747WAT      O60792  -1.442   2.735   1.889 -0.1727 -0.5367  0.5657
14747WAT     H160793  -1.427   2.817   1.842  0.6589 -1.3716 -0.6780
14747WAT     H260794  -1.454   2.762   1.980 -1.4155  1.0946 -0.0249
14747WAT    EPW60795  -1.442   2.750   1.895 -0.2269 -0.4317  0.3238
14748WAT      O60796  -0.451   2.215   6.519 -0.5344 -0.2624  0.8224
14748WAT     H160797  -0.527   2.213   6.461  0.0557  0.4963 -0.0167
14748WAT     H260798  -0.475   2.159   6.592 -1.1995 -1.4945 -0.2916
14748WAT    EPW60799  -0.464   2.207   6.521 -0.5443 -0.3248  0.5648
14749WAT      O60800  -5.249   2.792   7.569 -0.2759  0.7444 -0.1681
14749WAT     H160801  -5.225   2.870   7.518  0.0743 -0.5718 -2.1563
14749WAT     H260802  -5.344   2.796   7.575 -0.5919 -0.0907 -2.9057
14749WAT    EPW60803  -5.258   2.803   7.563 -0.2713  0.4607 -0.7915
14750WAT      O60804   4.576   5.789   4.438 -0.1957  0.1427 -0.0078
14750WAT     H160805   4.510   5.851   4.406 -0.4287 -0.1383 -0.0719
14750WAT     H260806   4.528   5.708   4.453  0.5119 -0.7156 -2.0849
14750WAT    EPW60807   4.561   5.786   4.436 -0.1330 -0.0074 -0.2904
14751WAT      O60808  -5.193   8.479   4.695 -0.2319  0.3431 -0.1176
14751WAT     H160809  -5.143   8.398   4.680  0.4075  0.9925 -1.6939
14751WAT     H260810  -5.134   8.534   4.747 -1.4694 -0.9363  2.8404
14751WAT    EPW60811  -5.178   8.475   4.700 -0.3109  0.2599  0.0648
14752WAT      O60812   2.697   1.876   0.375  0.9358 -0.0508  0.1498
14752WAT     H160813   2.737   1.963   0.368  2.5356 -0.6065  1.6780
14752WAT     H260814   2.771   1.816   0.380 -0.1349 -1.5434 -0.9107
14752WAT    EPW60815   2.712   1.880   0.374  1.0056 -0.3210  0.2115
14753WAT      O60816   4.913   1.678   1.175  0.1441  0.4479  0.2605
14753WAT     H160817   4.842   1.661   1.237 -0.0703  1.0327  0.1869
14753WAT     H260818   4.963   1.749   1.216  0.7368 -0.0149  0.3512
14753WAT    EPW60819   4.910   1.685   1.189  0.1941  0.4640  0.2628
14754WAT      O60820  -3.357   2.485   8.466 -0.4244 -0.3323 -0.8554
14754WAT     H160821  -3.359   2.440   8.382 -0.7907 -1.7724 -0.1150
14754WAT     H260822  -3.369   2.415   8.531 -1.3652  0.8814  0.3392
14754WAT    EPW60823  -3.359   2.470   8.464 -0.5966 -0.3620 -0.6003
14755WAT      O60824  -1.471   1.782   7.636 -0.1221  0.1536 -0.2508
14755WAT     H160825  -1.560   1.812   7.656  0.1321  0.4616  0.4559
14755WAT     H260826  -1.480   1.689   7.617 -0.5815  0.1677 -0.0990
14755WAT    EPW60827  -1.484   1.774   7.636 -0.1492  0.1960 -0.1378
14756WAT      O60828  -1.413   6.627   3.211 -0.5945 -0.4747  0.6515
14756WAT     H160829  -1.433   6.673   3.129 -2.0984 -1.8479  0.1939
14756WAT     H260830  -1.496   6.623   3.258  0.3377  0.6621  2.4829
14756WAT    EPW60831  -1.427   6.632   3.206 -0.6699 -0.5057  0.8327
14757WAT      O60832   3.167   6.374   2.382 -0.2682  0.0117  0.2713
14757WAT     H160833   3.216   6.293   2.371  0.8837  0.3514  2.3482
14757WAT     H260834   3.200   6.432   2.314  0.7881 -0.4236  0.3893
14757WAT    EPW60835   3.177   6.371   2.372  0.0230 -0.0010  0.5608
14758WAT      O60836  -0.524   4.036   2.308 -0.9111 -0.0955 -0.7611
14758WAT     H160837  -0.572   4.011   2.388  0.4163 -0.6919 -0.1136
14758WAT     H260838  -0.496   3.953   2.271 -1.4242  0.1878 -1.8222
14758WAT    EPW60839  -0.527   4.022   2.314 -0.8037 -0.1369 -0.8156
14759WAT      O60840   1.465   1.852   0.498  0.2294  0.0938  0.7342
14759WAT     H160841   1.445   1.792   0.426  1.4886  0.9364 -0.3735
14759WAT     H260842   1.389   1.909   0.503  0.8443  1.1951 -1.2238
14759WAT    EPW60843   1.453   1.852   0.489  0.4766  0.3502  0.3298
14760WAT      O60844  -0.011   6.144   8.238 -0.5547  0.3294  0.1968
14760WAT     H160845  -0.079   6.076   8.231  0.7611 -1.1050  0.8032
14760WAT     H260846  -0.020   6.194   8.157 -1.0096 -1.1062 -0.6905
14760WAT    EPW60847  -0.021   6.141   8.226 -0.4411 -0.0491  0.1597
14761WAT      O60848   2.405   2.988   7.008  0.3075  0.8854 -0.2736
14761WAT     H160849   2.425   2.994   7.102  0.1379  0.6660 -0.2224
14761WAT     H260850   2.420   3.077   6.975  0.8949  0.8361 -0.1458
14761WAT    EPW60851   2.410   3.001   7.016  0.3625  0.8500 -0.2501
14762WAT      O60852   5.438   2.370   0.730 -0.0201  0.1471 -0.2369
14762WAT     H160853   5.450   2.389   0.823  0.0935 -0.9331 -0.0180
14762WAT     H260854   5.348   2.396   0.712  1.1093  4.2688 -0.8598
14762WAT    EPW60855   5.428   2.376   0.740  0.1438  0.5482 -0.2902
14763WAT      O60856   1.188   3.332   0.731 -0.0223 -0.5390 -0.1384
14763WAT     H160857   1.201   3.414   0.777  1.0751 -0.7148 -0.1119
14763WAT     H260858   1.094   3.313   0.740 -0.3188  0.7865 -0.2981
14763WAT    EPW60859   1.177   3.340   0.738  0.0833 -0.3873 -0.1559
14764WAT      O60860   4.846   3.060   1.745  0.0083 -0.0066  0.2311
14764WAT     H160861   4.829   3.154   1.739  1.6339  0.3919  1.1672
14764WAT     H260862   4.851   3.031   1.654  0.9136  1.1136 -0.0956
14764WAT    EPW60863   4.844   3.068   1.732  0.3421  0.1937  0.3115
14765WAT      O60864   1.342   9.215   5.162  0.0440  0.0797  0.4928
14765WAT     H160865   1.336   9.221   5.258 -0.1478  0.8819  0.4350
14765WAT     H260866   1.254   9.236   5.132 -0.1068 -0.9709  0.1637
14765WAT    EPW60867   1.329   9.219   5.171 -0.0012  0.0467  0.4418
14766WAT      O60868  -3.897   0.094   6.444  0.1609 -0.0554  0.1086
14766WAT     H160869  -3.834   0.165   6.427  0.4196 -0.1304  0.7077
14766WAT     H260870  -3.983   0.136   6.437  0.2928  0.1788 -0.1456
14766WAT    EPW60871  -3.900   0.109   6.441  0.2124 -0.0344  0.1543
14767WAT      O60872  -0.129   8.427   4.079  0.0463 -0.3963  0.3708
14767WAT     H160873  -0.199   8.489   4.101  2.1996  1.3268  3.1109
14767WAT     H260874  -0.152   8.347   4.127 -1.4680 -0.9371 -1.1568
14767WAT    EPW60875  -0.141   8.425   4.088  0.1306 -0.2403  0.5307
14768WAT      O60876   1.999   7.570   0.493 -0.1004  0.9874  0.0077
14768WAT     H160877   1.908   7.576   0.521 -0.1904  1.4387 -0.3691
14768WAT     H260878   2.047   7.545   0.571 -0.5624  0.6440  0.1850
14768WAT    EPW60879   1.993   7.567   0.507 -0.1732  1.0016 -0.0187
14769WAT      O60880   1.748   9.672   4.808 -0.1295  0.2714  0.0733
14769WAT     H160881   1.672   9.700   4.758  0.3639 -0.1292 -0.9180
14769WAT     H260882   1.821   9.720   4.769  0.2104  0.2517  0.6695
14769WAT    EPW60883   1.748   9.682   4.797 -0.0196  0.2160  0.0212
14770WAT      O60884   1.478   3.985   6.411 -0.2244  0.3901  0.2286
14770WAT     H160885   1.402   3.992   6.470 -0.6258  0.6356 -0.3057
14770WAT     H260886   1.452   3.917   6.348  0.7732 -0.8972  1.1588
14770WAT    EPW60887   1.464   3.977   6.411 -0.1457  0.2527  0.2809
14771WAT      O60888  -5.186  10.337   5.812 -0.3003 -0.1061  0.0047
14771WAT     H160889  -5.192  10.242   5.816  0.8907 -0.2762 -1.5673
14771WAT     H260890  -5.276  10.366   5.794 -0.1673 -1.1826 -2.8879
14771WAT    EPW60891  -5.199  10.329   5.810 -0.1256 -0.2704 -0.5841
14772WAT      O60892   4.042   2.533   3.385 -0.0509  0.2918 -0.2046
14772WAT     H160893   3.954   2.536   3.345  0.0294  0.8897 -0.3476
14772WAT     H260894   4.099   2.503   3.314  0.2984  2.5543 -0.9680
14772WAT    EPW60895   4.038   2.529   3.370  0.0057  0.6690 -0.3241
14773WAT      O60896  -0.768   8.076   3.105 -0.3744  0.3535  0.4083
14773WAT     H160897  -0.759   8.162   3.145  1.7322  0.8895 -1.0204
14773WAT     H260898  -0.853   8.044   3.135 -1.2514  2.9360  0.9466
14773WAT    EPW60899  -0.778   8.083   3.114 -0.2123  0.7648  0.2909
14774WAT      O60900   2.400   3.502   8.199 -0.4660  0.1300  0.2063
14774WAT     H160901   2.465   3.432   8.195  0.3772  0.9482 -1.0268
14774WAT     H260902   2.448   3.582   8.178 -1.8535  0.7798 -0.6837
14774WAT    EPW60903   2.415   3.503   8.196 -0.5379  0.3235 -0.0734
14775WAT      O60904   0.957   2.079   4.181 -0.3562 -0.2913 -0.2433
14775WAT     H160905   0.977   2.022   4.107 -2.2194 -1.3002 -0.0297
14775WAT     H260906   1.028   2.063   4.243 -0.7644 -2.3651 -0.2376
14775WAT    EPW60907   0.969   2.069   4.180 -0.6558 -0.6980 -0.2143
14776WAT      O60908   3.112   7.908   0.984  0.5821 -0.1107  0.2673
14776WAT     H160909   3.187   7.955   0.948  0.5032 -0.9599 -1.1132
14776WAT     H260910   3.035   7.952   0.946  0.5080 -1.2404 -0.9879
14776WAT    EPW60911   3.112   7.920   0.974  0.5620 -0.3717 -0.0803
14777WAT      O60912   1.915   2.059   2.436 -0.3736 -0.5081  0.6236
14777WAT     H160913   1.865   1.986   2.400 -0.8594  1.5314 -3.4135
14777WAT     H260914   1.849   2.126   2.456  0.3191  0.6609 -0.7601
14777WAT    EPW60915   1.899   2.059   2.434 -0.3463 -0.0849 -0.0914
14778WAT      O60916   2.865   9.435   2.681  0.4960  0.4193 -0.4803
14778WAT     H160917   2.859   9.349   2.723  2.9197 -0.6765 -2.1308
14778WAT     H260918   2.880   9.496   2.753 -1.3508 -0.4687  0.7318
14778WAT    EPW60919   2.866   9.432   2.696  0.5720  0.1574 -0.5381
14779WAT      O60920  -0.478   2.178   8.843  0.8157 -0.2351 -0.4134
14779WAT     H160921  -0.513   2.152   8.928 -2.1325  1.7851 -0.9003
14779WAT     H260922  -0.497   2.104   8.786  1.1837 -0.8542  0.2417
14779WAT    EPW60923  -0.485   2.165   8.847  0.4754 -0.0503 -0.3920
14780WAT      O60924   2.253   4.142   7.459 -0.0827 -0.3931  0.3954
14780WAT     H160925   2.254   4.132   7.363 -0.3929 -0.6633  0.4178
14780WAT     H260926   2.339   4.111   7.487  0.4843  0.8323  0.0996
14780WAT    EPW60927   2.264   4.136   7.450 -0.0488 -0.2670  0.3595
14781WAT      O60928  -0.504   4.326   5.663  0.2762 -0.0113 -0.7569
14781WAT     H160929  -0.496   4.266   5.589  0.6343  0.4871 -1.1279
14781WAT     H260930  -0.558   4.279   5.726 -0.0283 -0.4485 -1.3331
14781WAT    EPW60931  -0.510   4.312   5.661  0.2833 -0.0033 -0.8817
14782WAT      O60932   7.839   3.589  -0.005  0.4372 -0.4386 -0.0754
14782WAT     H160933   7.787   3.540   0.058 -0.7816 -0.7776 -1.2964
14782WAT     H260934   7.782   3.662  -0.032  1.0165 -0.1668 -0.6107
14782WAT    EPW60935   7.825   3.592  -0.001  0.3531 -0.4475 -0.3071
14783WAT      O60936  -7.348   7.965   8.082 -0.5035 -0.7953  0.1916
14783WAT     H160937  -7.288   7.905   8.038 -0.6082 -0.6550 -0.1489
14783WAT     H260938  -7.329   8.051   8.043 -1.2309 -0.8206 -0.2569
14783WAT    EPW60939  -7.338   7.969   8.071 -0.6132 -0.7799  0.0877
14784WAT      O60940   3.524   3.715   0.444 -0.2009 -0.3001 -0.3684
14784WAT     H160941   3.472   3.636   0.429 -2.5171  1.2383 -1.0712
14784WAT     H260942   3.530   3.722   0.539 -2.0451 -0.1341 -0.2196
14784WAT    EPW60943   3.518   3.706   0.455 -0.7496 -0.0753 -0.4415
14785WAT      O60944  -4.434   7.058   5.970 -0.1262  0.2706 -0.2090
14785WAT     H160945  -4.415   6.969   5.941 -1.8600  0.0386 -0.7483
14785WAT     H260946  -4.360   7.082   6.025 -1.1765 -2.8395  2.8948
14785WAT    EPW60947  -4.422   7.050   5.973 -0.4933 -0.1702  0.1290
14786WAT      O60948   4.871   0.611   2.365 -0.0976  0.2568 -0.7509
14786WAT     H160949   4.905   0.624   2.276  0.5931 -2.8207 -1.0526
14786WAT     H260950   4.808   0.539   2.356 -1.3612  1.0961  0.9822
14786WAT    EPW60951   4.867   0.603   2.352 -0.1733 -0.0384 -0.5621
14787WAT      O60952  -5.049   6.311   6.038  0.2515  0.0022 -0.3538
14787WAT     H160953  -5.008   6.248   6.097  0.4477 -0.2334 -0.7352
14787WAT     H260954  -5.093   6.374   6.096  0.9140  0.0969  0.0540
14787WAT    EPW60955  -5.049   6.311   6.053  0.3648 -0.0165 -0.3505
14788WAT      O60956   5.253   2.726   2.281  0.2745 -1.0626  0.6376
14788WAT     H160957   5.182   2.739   2.217  0.2324 -0.0849  0.8678
14788WAT     H260958   5.227   2.648   2.330 -0.6242 -0.7485  0.6850
14788WAT    EPW60959   5.240   2.718   2.279  0.1504 -0.8923  0.6742
14789WAT      O60960   6.190   5.307   3.765  0.3147  0.0103  0.2668
14789WAT     H160961   6.116   5.352   3.807  2.3736  2.4854  1.5773
14789WAT     H260962   6.216   5.366   3.694  0.8460 -1.0043 -0.3988
14789WAT    EPW60963   6.183   5.321   3.761  0.6564  0.2029  0.3518
14790WAT      O60964  -2.581   3.379   4.236  0.2606  0.2062  0.1164
14790WAT     H160965  -2.671   3.411   4.241 -0.1323 -0.8843  0.1931
14790WAT     H260966  -2.570   3.352   4.145  0.5147  0.3316  0.1082
14790WAT    EPW60967  -2.592   3.380   4.224  0.2424  0.0788  0.1254
14791WAT      O60968   4.020   7.672   3.866 -0.2750 -0.3530 -0.3429
14791WAT     H160969   4.079   7.737   3.906 -0.4550  0.9927 -2.1383
14791WAT     H260970   3.963   7.723   3.809 -1.6450 -1.9162 -0.4559
14791WAT    EPW60971   4.020   7.687   3.864 -0.4795 -0.3815 -0.5946
14792WAT      O60972   6.853   1.440   1.136  0.3879 -0.1366  0.4816
14792WAT     H160973   6.769   1.423   1.094 -0.2321 -0.4951  1.8139
14792WAT     H260974   6.875   1.358   1.180  0.3917  0.5867  1.8712
14792WAT    EPW60975   6.845   1.427   1.136  0.3066 -0.0885  0.8406
14793WAT      O60976   3.696   3.277   0.233 -0.1077  0.5020 -0.1107
14793WAT     H160977   3.771   3.333   0.213 -0.5162  1.2085  0.2883
14793WAT     H260978   3.714   3.195   0.187  0.1223  1.2277 -1.3352
14793WAT    EPW60979   3.709   3.273   0.224 -0.1312  0.6909 -0.2196
14794WAT      O60980   4.174   7.768   0.990  0.4602  0.0252 -0.0907
14794WAT     H160981   4.267   7.746   0.984  0.9878  1.6854  1.1813
14794WAT     H260982   4.141   7.712   1.061  0.7143  0.1414  0.1191
14794WAT    EPW60983   4.182   7.757   0.999  0.5631  0.2596  0.1048
14795WAT      O60984   2.289   7.697   3.299 -0.7276  0.8346 -0.2135
14795WAT     H160985   2.275   7.776   3.248 -0.7328 -0.4544 -2.3577
14795WAT     H260986   2.242   7.629   3.251 -2.1538 -0.2149  2.4709
14795WAT    EPW60987   2.281   7.698   3.286 -0.9165  0.5264 -0.1422
14796WAT      O60988   0.381   7.042   6.643 -0.1497  0.4769 -0.3842
14796WAT     H160989   0.317   6.972   6.634 -0.8895  0.7978  1.7451
14796WAT     H260990   0.329   7.122   6.645  0.1433  0.7036  1.9950
14796WAT    EPW60991   0.366   7.043   6.642 -0.2086  0.5491  0.2103
14797WAT      O60992   2.210   7.550   0.703  0.2164 -0.6036  0.7648
14797WAT     H160993   2.221   7.587   0.616 -2.0375 -0.6240  0.3955
14797WAT     H260994   2.292   7.568   0.748  1.4309 -0.5852 -1.3456
14797WAT    EPW60995   2.222   7.557   0.698  0.0794 -0.6037  0.4377
14798WAT      O60996  -0.065   8.597   8.498 -0.1342 -0.2055  0.0003
14798WAT     H160997  -0.100   8.522   8.544 -0.8054  1.2428  1.9688
14798WAT     H260998  -0.110   8.597   8.413  0.5799 -2.4985 -0.4436
14798WAT    EPW60999  -0.075   8.587   8.493 -0.1285 -0.3171  0.2017
14799WAT      O61000  -1.162   9.367   4.501 -0.1010 -0.3234 -0.0523
14799WAT     H161001  -1.162   9.274   4.524 -2.1835 -0.0942  1.1588
14799WAT     H261002  -1.237   9.376   4.441  0.4718  0.4804 -0.6642
14799WAT    EPW61003  -1.172   9.356   4.496 -0.3002 -0.1869  0.0267
14800WAT      O61004   7.053   2.325   4.841 -0.2718 -0.1002 -0.1824
14800WAT     H161005   7.137   2.359   4.872 -0.4005 -0.4115  0.5340
14800WAT     H261006   7.025   2.388   4.775  1.2595 -0.8133 -1.5719
14800WAT    EPW61007   7.060   2.338   4.837 -0.0868 -0.2353 -0.2711
14801WAT      O61008  -5.311   7.257   5.467  0.0823  0.6892 -0.1584
14801WAT     H161009  -5.360   7.308   5.531  0.6994 -0.0729  0.9660
14801WAT     H261010  -5.220   7.264   5.496  0.1787 -1.1347  0.1437
14801WAT    EPW61011  -5.305   7.264   5.479  0.1764  0.3483  0.0296
14802WAT      O61012   4.445   3.089   5.482 -0.4287 -0.8678 -0.1619
14802WAT     H161013   4.356   3.112   5.453 -0.8357 -2.2754 -0.0866
14802WAT     H261014   4.493   3.073   5.400 -0.5262 -1.0979 -0.1747
14802WAT    EPW61015   4.440   3.090   5.467 -0.4952 -1.0837 -0.1535
14803WAT      O61016   4.787   5.520   6.721 -0.7237 -0.1729  0.3753
14803WAT     H161017   4.745   5.461   6.783 -0.2137 -1.3709 -0.3901
14803WAT     H261018   4.872   5.480   6.703 -0.2652  0.9142 -0.0030
14803WAT    EPW61019   4.793   5.507   6.727 -0.5960 -0.1876  0.2244
14804WAT      O61020  -1.654   0.296   5.254  0.3142  0.1625 -0.1928
14804WAT     H161021  -1.615   0.267   5.337 -0.0210 -1.9820 -0.7178
14804WAT     H261022  -1.588   0.276   5.188 -0.5655 -1.0527 -0.7672
14804WAT    EPW61023  -1.640   0.289   5.256  0.1540 -0.2806 -0.3378
14805WAT      O61024  -1.362   5.001   4.709 -0.2885  0.5523  0.2085
14805WAT     H161025  -1.380   5.075   4.766 -1.2221  1.3655 -1.0916
14805WAT     H261026  -1.380   5.033   4.621 -0.1459 -1.0496 -0.4459
14805WAT    EPW61027  -1.367   5.015   4.705 -0.3929  0.4482 -0.0494
14806WAT      O61028   2.141   2.847   4.444 -0.1026 -0.4102 -0.0503
14806WAT     H161029   2.111   2.819   4.531 -0.0614 -0.5701 -0.0859
14806WAT     H261030   2.062   2.879   4.400  0.0697  0.6968  0.4330
14806WAT    EPW61031   2.127   2.847   4.450 -0.0745 -0.2854  0.0086
14807WAT      O61032  -1.306   1.354   7.475 -0.1789 -0.2012 -0.3464
14807WAT     H161033  -1.380   1.299   7.499 -0.0424 -1.1945 -2.0154
14807WAT     H261034  -1.238   1.292   7.449  0.4251  0.7291 -1.0545
14807WAT    EPW61035  -1.306   1.338   7.475 -0.0813 -0.2096 -0.6599
14808WAT      O61036   3.463   4.315   5.696 -0.4630 -0.3140 -0.2575
14808WAT     H161037   3.539   4.272   5.733  0.6164  0.2040 -1.7683
14808WAT     H261038   3.413   4.346   5.772  2.8008  2.7461  0.8901
14808WAT    EPW61039   3.466   4.314   5.711  0.1099  0.1578 -0.3054
14809WAT      O61040  -2.823   3.652   4.671 -0.3815  0.7996  0.4192
14809WAT     H161041  -2.892   3.703   4.713 -0.7434  0.1956  0.5723
14809WAT     H261042  -2.744   3.672   4.722 -0.3022  1.9922 -0.1590
14809WAT    EPW61043  -2.822   3.661   4.684 -0.4188  0.8773  0.3631
14810WAT      O61044   2.931   2.342   4.911  0.5890 -0.7766  0.1058
14810WAT     H161045   2.863   2.409   4.910  1.2760 -0.0189  1.3069
14810WAT     H261046   2.957   2.336   5.003  1.7760 -1.4220 -0.2500
14810WAT    EPW61047   2.926   2.350   4.923  0.8361 -0.7617  0.2172
14811WAT      O61048   2.292   0.200   7.938 -0.2636 -0.1322 -0.0161
14811WAT     H161049   2.228   0.242   7.996  0.9388  2.8148 -0.6546
14811WAT     H261050   2.377   0.229   7.971  0.5090  0.6100 -2.4246
14811WAT    EPW61051   2.295   0.209   7.950 -0.0030  0.3544 -0.4179
14812WAT      O61052   0.624   4.411   2.238 -0.2008 -0.3793  0.6598
14812WAT     H161053   0.694   4.350   2.215  0.9176  0.7591  0.9676
14812WAT     H261054   0.582   4.431   2.154 -0.3465 -1.2692  0.5069
14812WAT    EPW61055   0.628   4.406   2.224 -0.0726 -0.3467  0.6802
14813WAT      O61056   3.668   7.453   6.309 -0.3700  0.2569  0.2385
14813WAT     H161057   3.662   7.384   6.376 -1.5924 -0.0153 -0.1256
14813WAT     H261058   3.701   7.409   6.231  0.0517  0.3532  0.3610
14813WAT    EPW61059   3.671   7.438   6.308 -0.4756  0.2334  0.2065
14814WAT      O61060   4.040  10.094   0.344  0.1742  0.4112  0.3499
14814WAT     H161061   3.969  10.032   0.357 -2.6762  3.3100 -0.0170
14814WAT     H261062   4.007  10.176   0.381  1.9795  2.7202 -2.6321
14814WAT    EPW61063   4.026  10.097   0.350  0.0362  1.0977 -0.0918
14815WAT      O61064   2.181   7.492   4.037 -0.4810  0.5862 -0.1319
14815WAT     H161065   2.096   7.462   4.068 -0.8104 -1.0171 -2.3684
14815WAT     H261066   2.164   7.525   3.949  1.1621  0.5924 -0.4825
14815WAT    EPW61067   2.168   7.493   4.030 -0.3078  0.3755 -0.4730
14816WAT      O61068   1.012   8.208   1.935 -0.4257  0.4437 -0.4555
14816WAT     H161069   1.032   8.159   2.014 -0.9554 -0.2305 -0.7268
14816WAT     H261070   1.030   8.146   1.864 -0.7552  0.7617 -0.8189
14816WAT    EPW61071   1.017   8.193   1.936 -0.5391  0.3967 -0.5391
14817WAT      O61072  -3.542   8.161   5.806 -0.1681  0.5696 -0.1205
14817WAT     H161073  -3.533   8.119   5.721 -3.4495 -1.8221  0.4951
14817WAT     H261074  -3.483   8.113   5.864  1.3054  1.5456 -0.7381
14817WAT    EPW61075  -3.533   8.149   5.802 -0.4066  0.3834 -0.1209
14818WAT      O61076  -0.382   7.737   0.464 -0.0848 -0.3628  0.3872
14818WAT     H161077  -0.335   7.668   0.417 -0.0165 -1.0666  1.4353
14818WAT     H261078  -0.331   7.749   0.545 -0.3689  0.5831  0.4357
14818WAT    EPW61079  -0.369   7.729   0.469 -0.1132 -0.3309  0.5318
14819WAT      O61080  -0.249   9.570   4.359 -1.1312 -0.3511  0.1244
14819WAT     H161081  -0.320   9.589   4.419 -1.3196  0.8518 -0.4600
14819WAT     H261082  -0.192   9.509   4.407 -0.6879  1.4194  1.9496
14819WAT    EPW61083  -0.251   9.564   4.373 -1.0976  0.0410  0.2880
14820WAT      O61084   7.881   0.737   3.503 -0.2179 -0.2834 -0.5120
14820WAT     H161085   7.922   0.726   3.589 -0.3491 -1.1914 -0.5581
14820WAT     H261086   7.952   0.722   3.440 -0.2960 -0.3917 -0.5744
14820WAT    EPW61087   7.895   0.734   3.506 -0.2456 -0.4174 -0.5264
14821WAT      O61088  -1.736   3.166   7.101  0.6771  0.4123  0.0238
14821WAT     H161089  -1.831   3.175   7.110  0.3807 -0.6193 -1.6138
14821WAT     H261090  -1.723   3.072   7.088  1.9190  0.5589  0.1635
14821WAT    EPW61091  -1.747   3.155   7.101  0.8019  0.2955 -0.1736
14822WAT      O61092  -2.105   8.647   4.990 -1.2757 -0.4262 -0.4433
14822WAT     H161093  -2.022   8.638   4.942 -1.6138 -0.6897 -0.9886
14822WAT     H261094  -2.099   8.582   5.060 -1.3262 -0.9620 -0.9297
14822WAT    EPW61095  -2.093   8.637   4.993 -1.3269 -0.5317 -0.5796
14823WAT      O61096   1.256   2.653   3.548  0.4696  0.4946 -0.3157
14823WAT     H161097   1.308   2.588   3.596  0.1434  0.6342  0.2440
14823WAT     H261098   1.280   2.737   3.588  0.8631  0.7163 -1.0110
14823WAT    EPW61099   1.266   2.655   3.560  0.4785  0.5423 -0.3335
14824WAT      O61100   4.941   3.376   3.519 -0.2868  0.4339  0.6118
14824WAT     H161101   4.993   3.423   3.453 -0.7872 -1.1918 -1.0261
14824WAT     H261102   5.005   3.348   3.584  0.3808  1.1899  0.3042
14824WAT    EPW61103   4.956   3.379   3.519 -0.2646  0.3192  0.3552
14825WAT      O61104   2.096   8.643   7.457 -0.8056  0.1004 -0.1084
14825WAT     H161105   2.135   8.563   7.423 -3.1108 -1.9185  1.6432
14825WAT     H261106   2.161   8.677   7.519 -0.5029 -1.4092  0.4299
14825WAT    EPW61107   2.110   8.637   7.461 -1.0698 -0.3648  0.1936
14826WAT      O61108  -2.681   9.163   6.446 -0.5304 -0.0605  0.1180
14826WAT     H161109  -2.773   9.145   6.425 -0.8492 -0.5839  1.8319
14826WAT     H261110  -2.674   9.150   6.540  0.8588  1.9568  0.3795
14826WAT    EPW61111  -2.692   9.159   6.456 -0.3891  0.1364  0.3784
14827WAT      O61112   5.055   0.334   0.244  1.1517 -0.0193  0.5433
14827WAT     H161113   5.138   0.361   0.207  1.2905  0.5042  1.2218
14827WAT     H261114   5.068   0.241   0.266  0.8716 -0.5145 -1.2087
14827WAT    EPW61115   5.068   0.325   0.242  1.1327 -0.0155  0.4017
14828WAT      O61116   4.782   1.573   2.685 -0.0002 -0.1501 -0.1876
14828WAT     H161117   4.817   1.523   2.611  1.2574 -0.0957  0.3576
14828WAT     H261118   4.693   1.595   2.658  0.3719 -0.2893 -1.6137
14828WAT    EPW61119   4.775   1.569   2.672  0.2146 -0.1612 -0.3036
14829WAT      O61120   5.543   3.556   2.847 -0.0570  0.7956  0.8072
14829WAT     H161121   5.528   3.633   2.902 -0.7285  0.6910  0.7896
14829WAT     H261122   5.588   3.589   2.770 -0.0915  1.1246  0.9274
14829WAT    EPW61123   5.547   3.570   2.844 -0.1502  0.8252  0.8208
14830WAT      O61124  -1.766   9.929   5.972  1.0462  0.3936 -0.0001
14830WAT     H161125  -1.672   9.946   5.965  1.1402 -0.6947 -2.8453
14830WAT     H261126  -1.806   9.995   5.915  0.2269  0.0186  0.1295
14830WAT    EPW61127  -1.759   9.940   5.963  0.9505  0.2007 -0.3583
14831WAT      O61128   2.926   3.041   6.231  0.2214 -0.3422  0.4390
14831WAT     H161129   2.856   3.011   6.173 -0.3630 -2.6065  2.2071
14831WAT     H261130   2.957   3.122   6.190 -3.2145  0.6214 -0.5754
14831WAT    EPW61131   2.921   3.048   6.218 -0.3089 -0.5138  0.5383
14832WAT      O61132  -1.238   5.956   4.744 -0.2828  0.2105  0.3764
14832WAT     H161133  -1.177   5.983   4.812 -0.6949 -0.5779  1.0717
14832WAT     H261134  -1.321   5.941   4.789 -0.5501 -0.3761 -0.2785
14832WAT    EPW61135  -1.241   5.958   4.759 -0.3724  0.0291  0.3817
14833WAT      O61136   2.132   4.939   5.749 -0.4162  1.2278  0.1628
14833WAT     H161137   2.198   4.991   5.796 -0.0575  2.2731 -1.4092
14833WAT     H261138   2.051   4.990   5.758 -1.1380 -0.1321  2.2271
14833WAT    EPW61139   2.130   4.953   5.757 -0.4641  1.1864  0.2277
14834WAT      O61140   3.524   9.065   2.337  0.1396 -0.0397  0.4571
14834WAT     H161141   3.505   9.033   2.249  0.5176  0.6565  0.1100
14834WAT     H261142   3.550   8.987   2.386  1.4075 -0.2389 -0.4644
14834WAT    EPW61143   3.525   9.051   2.332  0.3568  0.0257  0.2898
14835WAT      O61144  -3.465   5.563   2.541 -0.4366 -0.0480 -0.6149
14835WAT     H161145  -3.499   5.503   2.607 -1.5520  1.3960  0.1962
14835WAT     H261146  -3.421   5.632   2.591  1.0207 -0.2741 -1.5241
14835WAT    EPW61147  -3.463   5.564   2.556 -0.3916  0.1125 -0.6278
14836WAT      O61148   8.681   1.230   2.197  0.2240  0.2528 -0.3900
14836WAT     H161149   8.742   1.273   2.256  1.7378 -0.6188 -1.2523
14836WAT     H261150   8.629   1.302   2.159 -0.3866  0.8627  1.4998
14836WAT    EPW61151   8.682   1.245   2.200  0.3428  0.2183 -0.2545
14837WAT      O61152  -5.108   7.373   7.476 -0.0342 -1.0374 -0.6256
14837WAT     H161153  -5.168   7.445   7.492  0.2523 -0.8947 -0.1656
14837WAT     H261154  -5.084   7.381   7.384  0.7716  0.0734 -0.3452
14837WAT    EPW61155  -5.113   7.384   7.466  0.1097 -0.8721 -0.5281
14838WAT      O61156  -1.015   6.436   8.229  0.3950  0.2094 -0.0163
14838WAT     H161157  -1.057   6.448   8.314  0.4192 -0.6870  0.1303
14838WAT     H261158  -1.035   6.517   8.181 -2.3212 -0.5114 -0.2947
14838WAT    EPW61159  -1.023   6.448   8.234  0.0399 -0.0038 -0.0339
14839WAT      O61160   1.386   8.749   4.679 -0.2956  0.0285  0.7734
14839WAT     H161161   1.436   8.827   4.653 -0.5278  0.1037  0.5527
14839WAT     H261162   1.440   8.708   4.747  1.0973 -1.0206 -0.8945
14839WAT    EPW61163   1.400   8.754   4.685 -0.1426 -0.1001  0.5243
14840WAT      O61164   6.178   2.371   2.088 -0.2326 -0.1041  0.7720
14840WAT     H161165   6.156   2.452   2.042 -1.9034 -0.2483  1.2529
14840WAT     H261166   6.260   2.343   2.048 -1.2197  0.1507 -1.6557
14840WAT    EPW61167   6.186   2.378   2.076 -0.5832 -0.0895  0.5152
14841WAT      O61168  -4.666   2.649   6.459  0.4044 -0.6515 -0.2033
14841WAT     H161169  -4.709   2.563   6.458 -0.3675 -0.3038  1.4433
14841WAT     H261170  -4.736   2.712   6.446  0.8933 -0.2205 -0.8284
14841WAT    EPW61171  -4.681   2.646   6.457  0.3672 -0.5487 -0.0687
14842WAT      O61172   6.334   4.253   1.763 -0.8715  0.2379  0.0380
14842WAT     H161173   6.377   4.210   1.689  0.4864  0.6658  0.5424
14842WAT     H261174   6.403   4.307   1.803 -1.8286  0.7736  1.0291
14842WAT    EPW61175   6.349   4.254   1.758 -0.8187  0.3650  0.2352
14843WAT      O61176   1.501   1.685   7.918  0.4593  0.1064  0.6303
14843WAT     H161177   1.428   1.742   7.895 -0.3246 -0.2401  2.1155
14843WAT     H261178   1.459   1.606   7.952  1.5322 -0.3147  1.0172
14843WAT    EPW61179   1.486   1.682   7.919  0.4974  0.0051  0.8771
14844WAT      O61180  -5.949   5.162   8.622  0.2210  0.2922 -0.2253
14844WAT     H161181  -5.960   5.157   8.717  2.2971  0.6081  0.0682
14844WAT     H261182  -6.018   5.222   8.594 -2.2666 -1.9351  0.6536
14844WAT    EPW61183  -5.959   5.169   8.631  0.1667  0.0403 -0.0701
14845WAT      O61184   2.214   7.743   4.187  0.0085  0.3631 -0.4402
14845WAT     H161185   2.252   7.795   4.116 -0.5589  2.1506  0.4995
14845WAT     H261186   2.251   7.655   4.175  0.3506  0.7400 -2.5890
14845WAT    EPW61187   2.224   7.738   4.176 -0.0211  0.6485 -0.5996
14846WAT      O61188   5.563   5.474   5.003  0.4728  0.5026 -0.8392
14846WAT     H161189   5.505   5.544   4.973 -2.8093 -2.0610 -1.0224
14846WAT     H261190   5.588   5.500   5.091 -0.7536  1.8605 -0.8516
14846WAT    EPW61191   5.559   5.487   5.010 -0.1218  0.3436 -0.8650
14847WAT      O61192  -3.800   4.101   8.466 -0.5665  0.0159  0.1607
14847WAT     H161193  -3.803   4.080   8.373  0.6554  3.3724 -0.7734
14847WAT     H261194  -3.878   4.061   8.502 -2.4009  0.6288 -2.8065
14847WAT    EPW61195  -3.810   4.093   8.458 -0.6473  0.5395 -0.3533
14848WAT      O61196  -1.492  10.176   8.754 -0.0297 -0.5352 -0.0450
14848WAT     H161197  -1.473  10.261   8.714 -1.6547  0.6135  1.4479
14848WAT     H261198  -1.476  10.190   8.848 -1.2611 -1.5813  0.3395
14848WAT    EPW61199  -1.487  10.189   8.761 -0.4065 -0.5221  0.2031
14849WAT      O61200   6.533   4.289   0.068  0.3849  0.3798  0.8527
14849WAT     H161201   6.621   4.262   0.043  0.1354  0.0465  0.3232
14849WAT     H261202   6.533   4.384   0.059  1.2244  0.5785  2.5761
14849WAT    EPW61203   6.544   4.298   0.064  0.4625  0.3624  1.0102
14850WAT      O61204  -2.693   7.393   0.297 -0.6856  0.5180  0.1549
14850WAT     H161205  -2.679   7.299   0.286 -1.3426  0.5243 -0.9500
14850WAT     H261206  -2.608   7.426   0.326 -0.3355 -0.3617  0.1823
14850WAT    EPW61207  -2.680   7.385   0.299 -0.7261  0.4027  0.0128
14851WAT      O61208  -4.328   7.300   4.787 -0.1047  0.1750 -0.2794
14851WAT     H161209  -4.358   7.385   4.820 -0.0522  0.4779 -0.9843
14851WAT     H261210  -4.243   7.318   4.748  2.2957 -1.0937  3.7816
14851WAT    EPW61211  -4.321   7.314   4.786  0.2186  0.0477  0.1633
14852WAT      O61212   0.689   3.409   1.916 -0.6518 -0.0163 -0.0008
14852WAT     H161213   0.605   3.452   1.902 -0.2406  0.8628  0.1672
14852WAT     H261214   0.717   3.382   1.828  0.4995  2.7994 -0.6310
14852WAT    EPW61215   0.682   3.411   1.903 -0.4457  0.4709 -0.0618
14853WAT      O61216  -5.960   9.084   8.363 -0.1523  0.3737  0.4131
14853WAT     H161217  -6.036   9.125   8.321 -0.8069  0.1595  1.3470
14853WAT     H261218  -5.998   9.032   8.434  0.9562  1.2221  1.6712
14853WAT    EPW61219  -5.975   9.082   8.367 -0.0925  0.4573  0.7019
14854WAT      O61220   7.032   5.844   1.013  0.2862 -0.2598 -0.3707
14854WAT     H161221   6.987   5.873   1.092 -1.5879 -0.9182 -1.1202
14854WAT     H261222   7.056   5.753   1.031  0.3425 -0.2430 -0.3603
14854WAT    EPW61223   7.029   5.836   1.025  0.0465 -0.3445 -0.4683
14855WAT      O61224   1.950   8.191   1.650  0.1580 -0.2065  0.3607
14855WAT     H161225   2.037   8.174   1.614  0.6159 -2.0124  2.1944
14855WAT     H261226   1.895   8.122   1.614 -0.3594  0.4389 -0.1216
14855WAT    EPW61227   1.954   8.180   1.640  0.1501 -0.3595  0.5389
14856WAT      O61228   0.486   9.553   5.271 -0.9475 -0.2364 -0.0066
14856WAT     H161229   0.427   9.538   5.345  2.2329  2.1901  3.3980
14856WAT     H261230   0.526   9.638   5.289  1.2878 -0.2663 -3.7467
14856WAT    EPW61231   0.484   9.562   5.283 -0.2332  0.0796 -0.0508
14857WAT      O61232   5.581   7.962   2.753  0.5878 -0.5197  0.1778
14857WAT     H161233   5.667   7.971   2.793  2.2647 -1.1208 -2.9992
14857WAT     H261234   5.576   8.033   2.689 -1.8358  0.2322  1.0836
14857WAT    EPW61235   5.591   7.972   2.750  0.4892 -0.4997 -0.1217
14858WAT      O61236   2.691   8.797   3.191 -1.0377 -0.2031  0.2780
14858WAT     H161237   2.718   8.887   3.178 -0.6870 -0.6559 -2.8491
14858WAT     H261238   2.670   8.791   3.284 -1.0435  3.0557  0.5788
14858WAT    EPW61239   2.691   8.808   3.202 -0.9923  0.1669 -0.0948
14859WAT      O61240  -2.325   0.169   4.401  0.6456  0.1864 -0.2851
14859WAT     H161241  -2.406   0.139   4.361 -0.4633  2.8147 -0.2067
14859WAT     H261242  -2.262   0.171   4.329 -0.0811  0.5742 -0.9222
14859WAT    EPW61243  -2.327   0.165   4.386  0.4035  0.5842 -0.3588
14860WAT      O61244  -5.045   5.982   8.647  0.6643  0.1011 -0.1539
14860WAT     H161245  -5.006   5.908   8.601  1.1486 -0.6528  1.3921
14860WAT     H261246  -4.971   6.037   8.671  0.4924  0.1589  0.2579
14860WAT    EPW61247  -5.030   5.979   8.644  0.7055  0.0093  0.1044
14861WAT      O61248   2.612   6.769   6.169 -0.3508  0.5018  0.1215
14861WAT     H161249   2.567   6.747   6.087  0.8381  1.3499 -0.8015
14861WAT     H261250   2.663   6.690   6.190  0.4591  0.7627 -0.7663
14861WAT    EPW61251   2.613   6.755   6.161 -0.0871  0.6480 -0.1173
14862WAT      O61252  -0.143   0.040   2.195 -1.1675  0.0543 -0.4446
14862WAT     H161253  -0.058   0.002   2.171 -0.9522 -0.7866  1.5330
14862WAT     H261254  -0.167  -0.002   2.277 -2.9739  1.1247 -0.3640
14862WAT    EPW61255  -0.135   0.030   2.203 -1.3773  0.0846 -0.1731
14863WAT      O61256   1.735   7.655   0.739 -0.6365  0.3865  0.4979
14863WAT     H161257   1.719   7.567   0.706  1.7647  0.3086 -0.6311
14863WAT     H261258   1.770   7.703   0.664  1.8037  1.1616  2.0107
14863WAT    EPW61259   1.737   7.650   0.725  0.0020  0.4785  0.5485
14864WAT      O61260   3.999   7.130   3.672 -0.1204 -0.0490 -0.7844
14864WAT     H161261   3.914   7.139   3.629 -1.2110 -0.9225  1.0619
14864WAT     H261262   4.063   7.139   3.601 -1.7123  1.1344 -2.1492
14864WAT    EPW61263   3.997   7.133   3.657 -0.4742 -0.0081 -0.7211
14865WAT      O61264   5.737   7.788   1.376  0.0921 -0.0309 -0.5122
14865WAT     H161265   5.646   7.761   1.390  0.7780 -2.2886  0.0330
14865WAT     H261266   5.748   7.865   1.432 -1.4034  0.1278 -0.4003
14865WAT    EPW61267   5.726   7.795   1.385 -0.0145 -0.3078 -0.4255
14866WAT      O61268   5.971   8.071   0.618  0.1533 -0.7825 -0.3102
14866WAT     H161269   5.958   8.034   0.706  1.9165 -1.0529 -0.1189
14866WAT     H261270   5.896   8.041   0.568 -1.6944  0.6078  1.4738
14866WAT    EPW61271   5.960   8.062   0.623  0.1421 -0.6347 -0.0496
14867WAT      O61272   5.956   0.099   5.911  0.6910  0.4128  1.0316
14867WAT     H161273   6.020   0.095   5.982  2.2049 -2.5939 -0.3213
14867WAT     H261274   6.005   0.073   5.833 -1.7121  0.1341 -0.4733
14867WAT    EPW61275   5.971   0.095   5.910  0.5736 -0.0205  0.6547
14868WAT      O61276   4.500   3.740   5.144  0.1077  0.0926 -0.9252
14868WAT     H161277   4.520   3.746   5.051  1.4721  0.6095 -0.6189
14868WAT     H261278   4.569   3.684   5.180 -0.8262 -0.7217 -0.3200
14868WAT    EPW61279   4.512   3.733   5.137  0.1643  0.0534 -0.8051
14869WAT      O61280   2.618   0.534   7.636  0.0541 -0.0506 -0.3460
14869WAT     H161281   2.618   0.504   7.726 -0.0545 -0.1591 -0.3818
14869WAT     H261282   2.532   0.575   7.624 -0.3985 -1.0830 -0.7470
14869WAT    EPW61283   2.607   0.536   7.646 -0.0200 -0.2010 -0.4036
14870WAT      O61284   4.838   1.424   3.088  0.2298 -0.0315 -0.3539
14870WAT     H161285   4.927   1.412   3.121  0.4732  0.4597 -0.8272
14870WAT     H261286   4.786   1.362   3.139  0.8387 -0.3251 -0.0727
14870WAT    EPW61287   4.843   1.414   3.099  0.3424 -0.0055 -0.3793
14871WAT      O61288   3.106   8.079   5.979 -0.2951  0.6434 -0.5508
14871WAT     H161289   3.201   8.082   5.968 -0.1784 -0.4762  0.0350
14871WAT     H261290   3.080   8.171   5.988  0.6467  1.0043 -1.2883
14871WAT    EPW61291   3.115   8.091   5.978 -0.1554  0.5436 -0.5708
14872WAT      O61292   1.378   9.927   1.768  0.3319 -0.1128 -0.6894
14872WAT     H161293   1.423   9.910   1.851  1.7381  1.7766 -0.9960
14872WAT     H261294   1.436   9.890   1.702 -0.0880 -0.3558 -0.9259
14872WAT    EPW61295   1.392   9.920   1.770  0.4620  0.1040 -0.7610
14873WAT      O61296   0.597   6.408   6.526 -0.6883 -0.7130  0.7533
14873WAT     H161297   0.637   6.495   6.530 -2.8128  0.4672 -1.3173
14873WAT     H261298   0.651   6.359   6.464 -0.0466 -0.5802  1.1975
14873WAT    EPW61299   0.610   6.413   6.518 -0.8839 -0.5398  0.5386
14874WAT      O61300   0.938   1.060   4.415 -0.5395 -0.3742 -0.5619
14874WAT     H161301   0.857   1.092   4.453 -1.2353 -0.0566 -2.2134
14874WAT     H261302   0.928   0.965   4.414  0.7882 -0.6690  2.7318
14874WAT    EPW61303   0.926   1.051   4.420 -0.4562 -0.3712 -0.3450
14875WAT      O61304   3.942   6.365   5.473  0.4355 -0.3494  0.0515
14875WAT     H161305   3.994   6.329   5.402  0.6814 -0.0595  0.0824
14875WAT     H261306   3.913   6.450   5.440 -3.7492 -2.1854 -1.8121
14875WAT    EPW61307   3.945   6.371   5.459 -0.0840 -0.5531 -0.1903
14876WAT      O61308  -3.069   3.690   8.571  0.0874 -0.1710 -0.2439
14876WAT     H161309  -3.061   3.785   8.560  0.0649 -0.1655 -0.2108
14876WAT     H261310  -3.162   3.676   8.591  0.5373  0.0419  2.2563
14876WAT    EPW61311  -3.081   3.701   8.572  0.1439 -0.1422  0.0901
14877WAT      O61312  -4.095   1.473   8.108  0.3195  0.6973 -0.3101
14877WAT     H161313  -4.130   1.483   8.020 -0.3655  0.0625 -0.1198
14877WAT     H261314  -4.035   1.546   8.118 -0.0140  1.0918 -1.1013
14877WAT    EPW61315  -4.092   1.484   8.098  0.1850  0.6656 -0.3891
14878WAT      O61316   2.963   9.924   4.138 -0.4156 -0.3043  0.3737
14878WAT     H161317   2.876   9.894   4.167 -0.1360  0.8407  2.6465
14878WAT     H261318   2.965  10.016   4.162  1.4245 -0.3025  0.3411
14878WAT    EPW61319   2.952   9.932   4.145 -0.1360 -0.1531  0.6690
14879WAT      O61320   7.897   2.656   1.869  0.6861 -0.1972  0.1470
14879WAT     H161321   7.855   2.655   1.955 -1.8744  1.2335 -0.9647
14879WAT     H261322   7.974   2.712   1.879 -0.4610  1.2520  1.1781
14879WAT    EPW61323   7.901   2.663   1.881  0.1972  0.1827  0.1364
14880WAT      O61324   2.132   1.185   0.375 -0.3833 -0.1393 -0.2518
14880WAT     H161325   2.101   1.274   0.393 -0.1192 -0.0328 -0.3219
14880WAT     H261326   2.150   1.184   0.281  1.1520  0.2262  0.0095
14880WAT    EPW61327   2.130   1.197   0.365 -0.1460 -0.0771 -0.2266
14881WAT      O61328   0.158   8.006   1.028  0.4639 -0.0535 -0.4037
14881WAT     H161329   0.190   8.001   1.118  1.8204 -0.1401 -0.8668
14881WAT     H261330   0.186   7.924   0.988 -0.7691 -0.3423 -0.7309
14881WAT    EPW61331   0.166   7.994   1.035  0.4802 -0.1030 -0.5080
14882WAT      O61332  -1.841   8.662   8.739  0.0714 -0.7762  0.1507
14882WAT     H161333  -1.884   8.681   8.656  1.2683  0.8892 -0.1393
14882WAT     H261334  -1.777   8.733   8.750 -0.2008 -0.8276  2.6044
14882WAT    EPW61335  -1.838   8.674   8.730  0.1934 -0.5631  0.4358
14883WAT      O61336   3.330   5.346   4.763 -0.4152 -0.1204  0.2041
14883WAT     H161337   3.263   5.412   4.745  0.7976  0.6335 -1.7745
14883WAT     H261338   3.408   5.396   4.786 -0.1217 -0.9622  1.1342
14883WAT    EPW61339   3.331   5.361   4.764 -0.2166 -0.1318  0.0660
14884WAT      O61340   3.711   4.156   0.660 -0.8741 -0.6644  0.0087
14884WAT     H161341   3.681   4.207   0.735 -0.9848  1.6686 -1.5234
14884WAT     H261342   3.780   4.209   0.621 -2.0554 -0.8744 -2.5930
14884WAT    EPW61343   3.716   4.170   0.664 -1.0445 -0.3843 -0.5365
14885WAT      O61344   3.157   4.096   1.916  0.1510  0.0031 -0.1998
14885WAT     H161345   3.172   4.041   1.993  1.8089 -0.1740 -0.6085
14885WAT     H261346   3.119   4.037   1.852 -0.5845 -0.0159  0.2484
14885WAT    EPW61347   3.154   4.081   1.918  0.2726 -0.0229 -0.1945
14886WAT      O61348   2.705   3.604   8.783 -0.6873  0.3059  0.4196
14886WAT     H161349   2.762   3.659   8.837  0.2090  1.1379 -1.2901
14886WAT     H261350   2.627   3.657   8.769 -0.0505  0.9744 -0.7740
14886WAT    EPW61351   2.702   3.618   8.788 -0.4851  0.5039  0.0367
14887WAT      O61352   3.247   9.465   4.304 -0.2629  0.0007  0.3394
14887WAT     H161353   3.233   9.383   4.258  1.3098 -0.2361  0.2334
14887WAT     H261354   3.220   9.533   4.242  1.0517 -0.3446 -0.6400
14887WAT    EPW61355   3.242   9.463   4.290  0.1179 -0.0763  0.1962
14888WAT      O61356   1.963   0.046   5.870  0.1469 -0.0464  0.4434
14888WAT     H161357   2.043   0.022   5.822  0.9780  1.4735  1.0149
14888WAT     H261358   1.967  -0.007   5.950 -0.1616 -1.0100 -0.1555
14888WAT    EPW61359   1.974   0.036   5.874  0.2158  0.0270  0.4396
14889WAT      O61360   2.076   5.518   4.065 -0.1985 -0.0295  0.4338
14889WAT     H161361   2.121   5.589   4.020 -1.8545  0.7989 -0.0136
14889WAT     H261362   2.058   5.552   4.152  0.4878 -0.5509  0.7848
14889WAT    EPW61363   2.079   5.532   4.070 -0.3264  0.0110  0.4210
14890WAT      O61364  -0.933   9.491   4.401  0.3706 -0.6121 -0.0896
14890WAT     H161365  -1.013   9.456   4.441  0.8692 -0.0131  1.5361
14890WAT     H261366  -0.909   9.425   4.336 -1.0328 -1.1700 -0.0924
14890WAT    EPW61367  -0.941   9.477   4.398  0.2513 -0.6065  0.1247
14891WAT      O61368  -2.561   7.690   4.980  0.7901 -0.9561 -0.0462
14891WAT     H161369  -2.569   7.595   4.990 -0.2674 -0.9186 -0.5074
14891WAT     H261370  -2.540   7.721   5.069 -0.9562 -1.4182  0.5617
14891WAT    EPW61371  -2.559   7.682   4.993  0.4203 -1.0121 -0.0269
14892WAT      O61372   8.129   2.816   2.012 -0.3548  0.0944  0.1302
14892WAT     H161373   8.176   2.751   2.065 -0.6990 -2.7625 -2.7148
14892WAT     H261374   8.070   2.860   2.074  2.5028  0.3711  2.8873
14892WAT    EPW61375   8.127   2.813   2.027 -0.0234 -0.2459  0.1186
14893WAT      O61376   3.368   8.133   3.894 -0.3538 -0.9068  0.3621
14893WAT     H161377   3.301   8.177   3.843  0.1698 -0.4559  0.0477
14893WAT     H261378   3.415   8.079   3.830 -1.6249 -2.7565  0.9093
14893WAT    EPW61379   3.366   8.131   3.879 -0.4525 -1.0915  0.3928
14894WAT      O61380   1.029   1.601   6.233 -0.2261 -0.2259 -0.2792
14894WAT     H161381   0.999   1.640   6.314  0.0907 -1.9402  0.7212
14894WAT     H261382   0.970   1.635   6.166  0.0328  1.8797  0.4873
14894WAT    EPW61383   1.017   1.610   6.235 -0.1502 -0.1743 -0.0460
14895WAT      O61384   1.882   8.890   3.070 -0.0653  0.5672  0.1367
14895WAT     H161385   1.933   8.818   3.032 -0.8007 -1.5681  2.8944
14895WAT     H261386   1.939   8.926   3.139 -0.2317  1.7859 -0.3376
14895WAT    EPW61387   1.896   8.886   3.074 -0.1842  0.4458  0.4379
14896WAT      O61388   0.875   6.876   0.129 -0.3763 -0.4721  0.2373
14896WAT     H161389   0.917   6.942   0.074 -1.5351  0.3822  0.3379
14896WAT     H261390   0.911   6.891   0.217  0.0113 -0.5433  0.0897
14896WAT    EPW61391   0.885   6.886   0.134 -0.4780 -0.3688  0.2311
14897WAT      O61392  -3.355   1.394   8.284  0.4078  0.2025  0.4774
14897WAT     H161393  -3.338   1.327   8.351  0.0529  1.3654  1.7660
14897WAT     H261394  -3.415   1.455   8.326  3.2555  3.1981  0.5772
14897WAT    EPW61395  -3.361   1.393   8.298  0.7365  0.7510  0.6604
14898WAT      O61396   4.185   5.081   7.992 -0.5009 -0.3237  0.1807
14898WAT     H161397   4.107   5.081   7.936  0.1761  2.0093 -0.8929
14898WAT     H261398   4.258   5.068   7.932  0.1529  0.8740  0.6850
14898WAT    EPW61399   4.184   5.079   7.977 -0.3254  0.1419  0.1056
14899WAT      O61400  -2.428   0.924   8.507  0.5694  0.7709 -0.3271
14899WAT     H161401  -2.386   0.860   8.450 -0.6241 -1.0900  0.7853
14899WAT     H261402  -2.445   0.999   8.450 -0.8955 -1.1393 -2.5783
14899WAT    EPW61403  -2.425   0.926   8.492  0.2187  0.2735 -0.4773
14900WAT      O61404  -2.523   4.337   7.686 -0.1961 -0.1150 -0.1467
14900WAT     H161405  -2.508   4.314   7.595 -2.5216 -0.5118 -0.4988
14900WAT     H261406  -2.557   4.426   7.684 -1.1457 -0.4460  0.1990
14900WAT    EPW61407  -2.526   4.346   7.674 -0.6281 -0.2110 -0.1473
14901WAT      O61408  -1.272   1.484   8.808 -0.1298 -0.4376 -0.2429
14901WAT     H161409  -1.214   1.509   8.880 -0.3572  1.6451 -0.7305
14901WAT     H261410  -1.228   1.409   8.767  0.9087 -0.5040  0.9481
14901WAT    EPW61411  -1.258   1.478   8.812 -0.0228 -0.1716 -0.1502
14902WAT      O61412   2.949   1.889   7.086 -0.3120  0.0235  0.5390
14902WAT     H161413   2.944   1.984   7.075 -1.2742 -0.1205 -0.5021
14902WAT     H261414   3.037   1.866   7.059  0.1520  0.6890  1.4487
14902WAT    EPW61415   2.960   1.898   7.081 -0.3777  0.0923  0.5217
14903WAT      O61416  -2.119   0.732   8.867  0.0257 -0.4848 -0.9062
14903WAT     H161417  -2.102   0.809   8.921 -1.9831 -1.1790  0.8541
14903WAT     H261418  -2.184   0.761   8.804  0.6912 -0.2718 -1.5099
14903WAT    EPW61419  -2.125   0.746   8.866 -0.1515 -0.5482 -0.7534
14904WAT      O61420  -4.265   0.897   7.852  0.2564 -0.5369  0.3579
14904WAT     H161421  -4.355   0.928   7.844 -0.2344 -1.9426  0.2687
14904WAT     H261422  -4.233   0.892   7.762 -0.1323 -1.6002  0.2698
14904WAT    EPW61423  -4.272   0.901   7.839  0.1402 -0.8625  0.3345
14905WAT      O61424   2.258   4.578   4.000 -0.1058 -0.6007  0.7229
14905WAT     H161425   2.221   4.563   3.913 -0.4967  2.9519  0.1335
14905WAT     H261426   2.250   4.493   4.044 -3.3019 -1.6019 -1.4291
14905WAT    EPW61427   2.252   4.565   3.995 -0.5789 -0.2639  0.3612
14906WAT      O61428   0.055   8.571   1.372  0.7564  0.8508  0.3817
14906WAT     H161429   0.060   8.642   1.436  1.0350  1.0965  0.0891
14906WAT     H261430   0.013   8.499   1.420  1.5897  0.8001  1.0620
14906WAT    EPW61431   0.050   8.571   1.387  0.9030  0.8769  0.4328
14907WAT      O61432   8.907   1.388   1.975  0.7599  0.4235 -0.4836
14907WAT     H161433   8.886   1.450   2.045 -0.7302  1.5750 -1.8690
14907WAT     H261434   8.986   1.424   1.934  0.0562  1.3173 -1.1081
14907WAT    EPW61435   8.915   1.401   1.979  0.4706  0.6933 -0.7487
14908WAT      O61436   1.854   3.573   4.514  0.5160  0.0996  0.0992
14908WAT     H161437   1.849   3.561   4.419  0.2553 -0.4901  0.1851
14908WAT     H261438   1.933   3.526   4.540 -0.5042 -1.5101  0.4348
14908WAT    EPW61439   1.863   3.565   4.505  0.3471 -0.1905  0.1547
14909WAT      O61440  -1.289   1.685   2.384 -0.1100 -0.2211 -0.8504
14909WAT     H161441  -1.271   1.681   2.291 -0.0039  3.5933 -1.1629
14909WAT     H261442  -1.203   1.694   2.425 -0.0193 -3.3637 -0.1124
14909WAT    EPW61443  -1.276   1.686   2.377 -0.0840 -0.1324 -0.7942
14910WAT      O61444   5.571   0.494   3.209 -0.6212 -0.0144 -0.0358
14910WAT     H161445   5.643   0.538   3.255  1.0404 -0.5673 -1.9374
14910WAT     H261446   5.531   0.564   3.158 -1.8247  0.3971  1.4040
14910WAT    EPW61447   5.575   0.509   3.208 -0.5608 -0.0330 -0.0967
14911WAT      O61448   8.694   0.727   0.041 -0.1229 -0.1795  0.2892
14911WAT     H161449   8.605   0.705   0.068 -0.4494 -0.2651 -0.8466
14911WAT     H261450   8.692   0.724  -0.054  0.3618  2.6251  0.1146
14911WAT    EPW61451   8.682   0.724   0.032 -0.1020  0.1791  0.1163
14912WAT      O61452  -5.139   8.691   3.932  0.3200 -0.0293  0.2610
14912WAT     H161453  -5.204   8.742   3.981  0.0504 -0.4564  0.3507
14912WAT     H261454  -5.064   8.684   3.992  0.3418  0.2229  0.2643
14912WAT    EPW61455  -5.138   8.697   3.946  0.2873 -0.0525  0.2732
14913WAT      O61456  -3.416  10.186   8.775 -0.1380 -0.1890  0.2611
14913WAT     H161457  -3.448  10.267   8.736  0.8388 -1.6910 -4.3566
14913WAT     H261458  -3.463  10.117   8.728  1.3526 -2.3094  1.7010
14913WAT    EPW61459  -3.427  10.187   8.763  0.1874 -0.6661 -0.1583
14914WAT      O61460  -0.495   6.020   2.872  0.1094  0.3349  0.1412
14914WAT     H161461  -0.426   5.974   2.824 -0.9902 -1.1673 -0.0771
14914WAT     H261462  -0.454   6.101   2.902  2.3280 -1.0480  1.0595
14914WAT    EPW61463  -0.481   6.024   2.869  0.2570 -0.0458  0.2335
14915WAT      O61464  -0.877   6.521   6.760  0.7094 -0.2751  0.5623
14915WAT     H161465  -0.943   6.453   6.772 -0.2564  0.7060  0.9639
14915WAT     H261466  -0.806   6.477   6.713 -0.1802 -1.3766  0.2038
14915WAT    EPW61467  -0.877   6.506   6.755  0.4647 -0.2909  0.5682
14916WAT      O61468  -1.618   6.615   6.787  0.0854 -0.6982 -0.1246
14916WAT     H161469  -1.546   6.627   6.849  0.1268 -1.5672  0.0171
14916WAT     H261470  -1.693   6.659   6.828  0.0323 -1.5279  0.7141
14916WAT    EPW61471  -1.619   6.622   6.801  0.0839 -0.9222  0.0048
14917WAT      O61472   0.180   3.336   1.380  0.1793 -0.1332 -0.3744
14917WAT     H161473   0.126   3.389   1.322 -0.5972 -2.0739 -1.5225
14917WAT     H261474   0.227   3.277   1.321  0.4508 -1.2266  0.8966
14917WAT    EPW61475   0.179   3.335   1.365  0.1127 -0.5335 -0.3582
14918WAT      O61476  -1.022   8.563   6.393 -0.4951 -0.1418 -0.4991
14918WAT     H161477  -1.054   8.652   6.376 -1.5916 -0.1105  1.4356
14918WAT     H261478  -1.074   8.533   6.467  1.5883 -1.4640  0.5075
14918WAT    EPW61479  -1.033   8.571   6.400 -0.3650 -0.3119 -0.1111
14919WAT      O61480  -3.561   7.724   7.442 -0.4656  0.0150  0.1509
14919WAT     H161481  -3.560   7.697   7.534 -1.2175  0.9691  0.4449
14919WAT     H261482  -3.643   7.772   7.431  0.7790  2.1515 -0.3577
14919WAT    EPW61483  -3.571   7.727   7.452 -0.4007  0.4222  0.1225
14920WAT      O61484  -3.388   1.440   5.822 -0.5599 -0.9438  0.2697
14920WAT     H161485  -3.452   1.419   5.754  1.4392 -0.6141 -1.8336
14920WAT     H261486  -3.321   1.491   5.777 -0.2536  1.3609  3.0122
14920WAT    EPW61487  -3.388   1.444   5.807 -0.2558 -0.5963  0.3541
14921WAT      O61488   6.745   2.930   2.102 -0.2559  0.5206  0.2659
14921WAT     H161489   6.712   2.847   2.136  1.8427 -1.0697 -1.3430
14921WAT     H261490   6.674   2.963   2.048 -0.4706 -1.2044 -0.5755
14921WAT    EPW61491   6.731   2.923   2.099 -0.0074  0.0833 -0.0572
14922WAT      O61492  -5.468   8.036   5.751 -0.5211 -0.5173  1.0756
14922WAT     H161493  -5.512   7.983   5.685 -1.3883  0.6920  0.6424
14922WAT     H261494  -5.395   7.982   5.781 -0.7199 -1.4946 -0.1406
14922WAT    EPW61495  -5.464   8.022   5.746 -0.6618 -0.4869  0.8578
14923WAT      O61496  -0.916  10.178   4.090  0.0602 -0.5658  0.1206
14923WAT     H161497  -0.875  10.169   4.004  0.3568  1.0250  0.0665
14923WAT     H261498  -1.004  10.212   4.071  0.4563  0.7074  0.4612
14923WAT    EPW61499  -0.923  10.181   4.076  0.1515 -0.1884  0.1583
14924WAT      O61500   2.993   0.178   3.715  1.4119  0.1921 -0.1567
14924WAT     H161501   2.913   0.205   3.761  1.1064  0.2818 -0.7268
14924WAT     H261502   2.998   0.237   3.640  0.9683 -1.0265 -1.1851
14924WAT    EPW61503   2.983   0.189   3.711  1.3131  0.0432 -0.3676
14925WAT      O61504   3.110   8.797   5.643  0.1730  0.2979  0.3822
14925WAT     H161505   3.177   8.731   5.660  1.9963  1.7018 -1.0196
14925WAT     H261506   3.154   8.864   5.591 -1.6421  2.5489  1.5519
14925WAT    EPW61507   3.124   8.797   5.638  0.1742  0.7796  0.3517
14926WAT      O61508  -0.369   3.913   7.687  0.5639  0.5431  0.4473
14926WAT     H161509  -0.386   3.818   7.685 -0.1120  0.6398 -1.7649
14926WAT     H261510  -0.455   3.952   7.701  0.8301  0.8394  1.2799
14926WAT    EPW61511  -0.383   3.905   7.688  0.5099  0.5950  0.2651
14927WAT      O61512   4.129   3.167   8.450 -0.5446  0.2685  0.6155
14927WAT     H161513   4.085   3.142   8.531 -0.9264 -0.7561  0.1101
14927WAT     H261514   4.111   3.094   8.390  0.2977  0.6964 -0.1734
14927WAT    EPW61515   4.121   3.154   8.453 -0.4838  0.1898  0.4444
14928WAT      O61516   0.722   7.501   8.433 -0.6468  0.5057  0.1383
14928WAT     H161517   0.755   7.591   8.426  0.4567  0.0891 -0.2979
14928WAT     H261518   0.712   7.487   8.527 -0.3451  0.9265  0.2374
14928WAT    EPW61519   0.725   7.511   8.444 -0.4615  0.5062  0.0939
14929WAT      O61520  -2.476   1.166   4.608 -0.4182 -0.7482  0.1210
14929WAT     H161521  -2.498   1.165   4.515 -0.3582 -1.8377  0.1062
14929WAT     H261522  -2.385   1.197   4.610  0.0487 -2.0151 -0.3100
14929WAT    EPW61523  -2.467   1.170   4.596 -0.3487 -1.0590  0.0622
14930WAT      O61524   3.074   4.675   6.492 -0.8103  0.3351  0.3518
14930WAT     H161525   3.068   4.628   6.576  2.4823 -1.5163 -0.2596
14930WAT     H261526   3.127   4.752   6.511 -1.1564  0.6054  0.2216
14930WAT    EPW61527   3.080   4.679   6.506 -0.4216  0.1266  0.2542
14931WAT      O61528  -5.005   5.833   6.177  0.6487 -0.1255  0.0507
14931WAT     H161529  -4.962   5.915   6.152  0.2806  0.4613  1.2826
14931WAT     H261530  -4.982   5.772   6.107  1.4981  0.8358 -0.5347
14931WAT    EPW61531  -4.996   5.836   6.164  0.7124  0.0787  0.1361
14932WAT      O61532  -2.320   8.312   6.305 -0.2972 -0.2006  0.1451
14932WAT     H161533  -2.328   8.332   6.398 -2.5591  1.3880 -0.3176
14932WAT     H261534  -2.244   8.254   6.300 -1.0509 -1.6599  3.1628
14932WAT    EPW61535  -2.311   8.307   6.317 -0.6950 -0.1836  0.4821
14933WAT      O61536  -1.246   1.205   8.731 -0.4142 -0.3023 -0.1026
14933WAT     H161537  -1.211   1.177   8.646  2.3511  1.3401  0.3867
14933WAT     H261538  -1.334   1.238   8.710  0.3796  0.5474 -2.4674
14933WAT    EPW61539  -1.253   1.206   8.717  0.0552  0.0265 -0.3500
14934WAT      O61540   0.903   0.733   2.554  0.1033  0.1680  0.2117
14934WAT     H161541   0.896   0.666   2.486  0.2471  1.3409 -1.0126
14934WAT     H261542   0.934   0.686   2.631 -2.0115 -1.5801  0.0968
14934WAT    EPW61543   0.906   0.718   2.555 -0.1567  0.0921  0.0352
14935WAT      O61544  -0.814  10.148   6.864 -0.2768  0.7951 -0.4247
14935WAT     H161545  -0.788  10.074   6.918 -0.9508  0.8361 -0.0302
14935WAT     H261546  -0.885  10.190   6.913 -0.9287  0.8140 -1.3471
14935WAT    EPW61547  -0.820  10.144   6.878 -0.4517  0.8035 -0.4942
14936WAT      O61548  -7.415   9.381   8.542  0.3914 -0.0810 -0.2094
14936WAT     H161549  -7.327   9.353   8.517  0.2410 -2.8962  1.9138
14936WAT     H261550  -7.471   9.348   8.472  0.8063 -0.2174 -0.4826
14936WAT    EPW61551  -7.411   9.373   8.529  0.4263 -0.4706  0.0348
14937WAT      O61552   2.751   9.751   5.101  0.1024 -0.2382 -0.1512
14937WAT     H161553   2.822   9.721   5.044 -0.2923 -1.1285 -0.1870
14937WAT     H261554   2.760   9.700   5.181 -0.3011 -0.1213 -0.0255
14937WAT    EPW61555   2.761   9.740   5.104 -0.0027 -0.3405 -0.1392
14938WAT      O61556  -5.177   9.014   4.976 -0.2121  0.8941  0.6782
14938WAT     H161557  -5.226   8.963   5.040  3.7348 -1.9026  1.8354
14938WAT     H261558  -5.188   8.967   4.894  1.7832 -0.8402  1.3229
14938WAT    EPW61559  -5.184   9.001   4.974  0.5715  0.2966  0.9158
14939WAT      O61560   1.085   1.489   0.083  0.2720  0.2648  0.1066
14939WAT     H161561   1.024   1.415   0.080  1.4013 -0.8001  1.7190
14939WAT     H261562   1.083   1.518   0.174 -0.9304  2.9890 -0.6888
14939WAT    EPW61563   1.077   1.483   0.095  0.2623  0.4836  0.2144
14940WAT      O61564  -0.294   2.637   0.564  0.1804 -0.1482  0.1112
14940WAT     H161565  -0.315   2.554   0.522 -2.4756 -0.4168  1.7654
14940WAT     H261566  -0.240   2.612   0.639  0.8505 -0.1765 -0.3743
14940WAT    EPW61567  -0.289   2.623   0.568 -0.0815 -0.1874  0.2654
14941WAT      O61568   3.516   2.091   7.937 -0.0640  0.4644 -0.6736
14941WAT     H161569   3.536   2.182   7.918  1.8101  0.0615 -0.8376
14941WAT     H261570   3.420   2.087   7.941 -0.3041  1.8833 -3.3857
14941WAT    EPW61571   3.506   2.102   7.935  0.1515  0.5983 -1.0529
14942WAT      O61572  -4.103   3.525   7.865  0.0254  0.5033 -0.5451
14942WAT     H161573  -4.060   3.461   7.808  0.0205  1.2340 -1.3928
14942WAT     H261574  -4.071   3.505   7.953  1.0361  0.1751 -0.9813
14942WAT    EPW61575  -4.093   3.514   7.869  0.1581  0.5565 -0.7145
14943WAT      O61576   1.078   7.715   0.123  0.3008 -0.1958  0.2097
14943WAT     H161577   1.014   7.691   0.055  1.4276 -0.0710 -0.9344
14943WAT     H261578   1.025   7.732   0.201 -1.1475  0.6813 -0.9051
14943WAT    EPW61579   1.063   7.714   0.124  0.2583 -0.0634 -0.0883
14944WAT      O61580  -1.194   6.209   8.857 -0.2535 -0.3500  0.6561
14944WAT     H161581  -1.225   6.287   8.811 -3.1398 -1.3750  0.6868
14944WAT     H261582  -1.127   6.172   8.799 -0.7621  0.6776 -0.6366
14944WAT    EPW61583  -1.189   6.215   8.843 -0.7013 -0.3498  0.4897
14945WAT      O61584  -0.463   5.996   1.727  0.4355  0.2456 -0.1204
14945WAT     H161585  -0.385   6.007   1.673  0.0858  1.0857 -0.4665
14945WAT     H261586  -0.431   5.952   1.806  0.8302 -1.7824 -1.3160
14945WAT    EPW61587  -0.449   5.992   1.730  0.4415  0.0892 -0.3237
14946WAT      O61588   5.244   3.217   0.687 -0.4824  0.1927 -0.3846
14946WAT     H161589   5.244   3.282   0.617  1.7084  0.2774 -0.3806
14946WAT     H261590   5.257   3.134   0.642  3.3553  0.4472 -0.1087
14946WAT    EPW61591   5.246   3.215   0.672  0.3128  0.2373 -0.3477
14947WAT      O61592  -2.692   1.799   4.860  0.2838 -0.2970  0.0379
14947WAT     H161593  -2.620   1.749   4.821 -0.6771 -0.7232 -1.2249
14947WAT     H261594  -2.724   1.742   4.930  1.6263  0.2200  1.1387
14947WAT    EPW61595  -2.687   1.785   4.864  0.3340 -0.2850  0.0165
14948WAT      O61596  -1.333  10.220   2.095 -0.2095 -1.4145  0.0009
14948WAT     H161597  -1.282  10.154   2.049  0.9756  0.0273 -0.8634
14948WAT     H261598  -1.319  10.201   2.188  0.9018 -1.8082 -0.2315
14948WAT    EPW61599  -1.325  10.209   2.101  0.0933 -1.2760 -0.1438
14949WAT      O61600  -3.555   1.187   5.967 -0.0917 -0.2486 -0.7801
14949WAT     H161601  -3.496   1.261   5.951  0.9131 -0.2624  2.2843
14949WAT     H261602  -3.570   1.149   5.880  2.6143  1.0910 -1.9451
14949WAT    EPW61603  -3.549   1.192   5.953  0.3977 -0.0738 -0.5295
14950WAT      O61604   3.227   7.537   6.882 -0.7030 -0.2003  0.4373
14950WAT     H161605   3.164   7.470   6.910 -1.6260 -0.1341 -1.3636
14950WAT     H261606   3.173   7.608   6.849  0.3021 -0.0253 -0.8941
14950WAT    EPW61607   3.211   7.537   6.881 -0.6922 -0.1683  0.0243
14951WAT      O61608  -2.052   5.073   7.216  0.0081  0.4257  0.2700
14951WAT     H161609  -2.026   5.165   7.202  0.3772  0.2790 -0.0285
14951WAT     H261610  -1.992   5.023   7.162  0.2871 -0.0457  1.0038
14951WAT    EPW61611  -2.041   5.079   7.207  0.0936  0.3443  0.3276
14952WAT      O61612   0.571   9.328   0.233  0.3041 -0.3782 -0.4213
14952WAT     H161613   0.491   9.310   0.282  0.1174 -1.4904 -1.0942
14952WAT     H261614   0.618   9.245   0.233  1.2417  0.1371 -0.4415
14952WAT    EPW61615   0.566   9.315   0.240  0.4031 -0.4568 -0.5128
14953WAT      O61616   1.098   6.100   8.845  0.1801  0.0077 -0.8272
14953WAT     H161617   1.083   6.161   8.773  0.1874  0.5680 -0.3573
14953WAT     H261618   1.014   6.094   8.890  0.1887 -0.3026 -0.8460
14953WAT    EPW61619   1.085   6.107   8.842  0.1822  0.0408 -0.7677
14954WAT      O61620   3.840   1.092   0.791 -0.1057 -0.4169 -0.2067
14954WAT     H161621   3.862   1.117   0.701  0.1681 -2.4363 -0.7453
14954WAT     H261622   3.897   1.018   0.811 -1.4418 -1.1918  0.9522
14954WAT    EPW61623   3.850   1.086   0.782 -0.2458 -0.7855 -0.1249
14955WAT      O61624  -1.599   9.530   4.818  0.1648  0.2434  0.3461
14955WAT     H161625  -1.672   9.502   4.873  0.6726 -0.3831  0.7136
14955WAT     H261626  -1.526   9.474   4.844 -0.0849 -1.5501 -2.3602
14955WAT    EPW61627  -1.599   9.519   4.828  0.1988 -0.0763  0.0377
14956WAT      O61628  -0.294  10.042   3.079  0.1675 -0.3557  0.1904
14956WAT     H161629  -0.227   9.975   3.066 -0.6005 -1.5486  1.9203
14956WAT     H261630  -0.317  10.035   3.172 -3.8971 -1.6347 -0.7017
14956WAT    EPW61631  -0.288  10.032   3.090 -0.4699 -0.6814  0.3009
14957WAT      O61632   3.462   7.179   0.873  0.4949  0.1838 -0.0073
14957WAT     H161633   3.393   7.159   0.937  0.4023  2.0625  0.5304
14957WAT     H261634   3.509   7.096   0.863 -2.6536 -1.6246 -1.4727
14957WAT    EPW61635   3.459   7.165   0.880  0.0675  0.1931 -0.1297
14958WAT      O61636   2.941   3.778   8.589 -0.7253  0.5210 -0.8730
14958WAT     H161637   2.999   3.754   8.661  0.1115 -0.2511 -1.7870
14958WAT     H261638   2.984   3.852   8.547 -0.6423  0.2538 -1.2615
14958WAT    EPW61639   2.954   3.784   8.593 -0.6040  0.3840 -1.0452
14959WAT      O61640   3.010   4.084   3.067 -0.1070 -0.0871  0.7461
14959WAT     H161641   3.061   4.153   3.110  3.4990 -1.3714 -1.0140
14959WAT     H261642   2.957   4.130   3.003 -0.6392  1.2958  2.1261
14959WAT    EPW61643   3.010   4.099   3.064  0.2984 -0.0741  0.6959
14960WAT      O61644   3.331   5.367   8.769  0.0089 -0.1878  1.0867
14960WAT     H161645   3.338   5.450   8.816  0.0132 -0.8501  2.2999
14960WAT     H261646   3.244   5.369   8.730  0.0411  0.4182  1.0306
14960WAT    EPW61647   3.321   5.378   8.770  0.0137 -0.1953  1.2393
14961WAT      O61648   3.844   5.198   3.547 -0.6135  0.1963 -0.6862
14961WAT     H161649   3.751   5.176   3.538 -0.5258 -1.4083  1.6299
14961WAT     H261650   3.860   5.195   3.641  0.8704  4.6898 -0.5623
14961WAT    EPW61651   3.834   5.195   3.558 -0.4061  0.5774 -0.3643
14962WAT      O61652  -5.134  10.041   5.733  0.0011 -0.0154  0.5654
14962WAT     H161653  -5.074  10.092   5.679 -1.0617  0.4557 -0.2192
14962WAT     H261654  -5.115   9.950   5.711  1.7277  0.0023  1.7732
14962WAT    EPW61655  -5.124  10.036   5.723  0.0887  0.0491  0.6213
14963WAT      O61656  -1.395   6.684   5.560  0.1903 -0.3104  0.5603
14963WAT     H161657  -1.462   6.631   5.517  0.6094 -0.7721  0.4589
14963WAT     H261658  -1.314   6.635   5.546  0.1699 -1.1171  2.9309
14963WAT    EPW61659  -1.393   6.671   5.552  0.2428 -0.4778  0.8595
14964WAT      O61660  -5.900   5.953   6.542  0.5298 -0.2497 -0.7057
14964WAT     H161661  -5.978   5.940   6.488  0.7897 -1.8845 -0.7323
14964WAT     H261662  -5.892   6.048   6.551 -2.0478 -0.0580  0.1754
14964WAT    EPW61663  -5.909   5.964   6.536  0.2241 -0.4401 -0.5929
14965WAT      O61664   2.074   6.948   5.896  0.0804  0.2473 -0.8775
14965WAT     H161665   2.145   6.893   5.930 -0.8147 -1.3499 -1.4938
14965WAT     H261666   2.051   7.005   5.969  2.8651  1.7864 -1.0678
14965WAT    EPW61667   2.080   6.948   5.910  0.3296  0.2396 -0.9837
14966WAT      O61668  -4.095   3.820   7.837 -0.4554  0.1429 -0.3071
14966WAT     H161669  -4.170   3.872   7.865 -0.4674  0.9352 -1.7341
14966WAT     H261670  -4.117   3.730   7.861 -1.1740  0.5623  0.6587
14966WAT    EPW61671  -4.108   3.815   7.844 -0.5517  0.3028 -0.3679
14967WAT      O61672   5.347   6.185   2.090  0.1777  0.5548 -0.3625
14967WAT     H161673   5.394   6.102   2.102 -2.4446 -1.2286 -1.3309
14967WAT     H261674   5.312   6.204   2.177  2.0113  1.5286  0.2059
14967WAT    EPW61675   5.348   6.176   2.103  0.0739  0.4478 -0.4153
14968WAT      O61676   1.190   4.427   7.758 -0.0295  0.1681  0.5309
14968WAT     H161677   1.179   4.332   7.757  1.0437  0.0171 -0.2900
14968WAT     H261678   1.263   4.441   7.818 -0.6512  0.5470  1.2038
14968WAT    EPW61679   1.198   4.416   7.766  0.0300  0.1981  0.5114
14969WAT      O61680   0.365   2.925   2.687  0.0430  0.9285  0.1557
14969WAT     H161681   0.446   2.939   2.638  0.0712  1.5782  0.3645
14969WAT     H261682   0.314   3.005   2.672 -0.3691  0.7130  0.3814
14969WAT    EPW61683   0.369   2.938   2.679 -0.0076  0.9857  0.2131
14970WAT      O61684   4.515   3.020   6.948 -0.4046  0.9282 -0.4667
14970WAT     H161685   4.580   3.066   7.002 -0.7101 -0.7834  1.4777
14970WAT     H261686   4.445   3.084   6.937  0.7013  2.1149 -0.8579
14970WAT    EPW61687   4.515   3.035   6.954 -0.2990  0.8589 -0.2618
14971WAT      O61688   0.704   2.923   1.902  0.4443 -1.2332 -0.1521
14971WAT     H161689   0.631   2.954   1.849  0.2100 -0.2673  0.6992
14971WAT     H261690   0.780   2.971   1.869  0.0810  0.3060  1.1673
14971WAT    EPW61691   0.705   2.933   1.891  0.3655 -0.9028  0.1342
14972WAT      O61692  -1.203   8.244   4.032  0.0640  0.7372 -0.4849
14972WAT     H161693  -1.272   8.251   3.966  0.4172  1.4192 -0.7906
14972WAT     H261694  -1.210   8.155   4.065  0.3988  0.1356 -2.0016
14972WAT    EPW61695  -1.213   8.233   4.028  0.1547  0.7477 -0.7253
14973WAT      O61696  -8.179   8.895   8.928  0.1258 -0.1680  0.1668
14973WAT     H161697  -8.183   8.950   8.850  0.6303  0.3217  0.4756
14973WAT     H261698  -8.263   8.851   8.931 -0.0939  0.2037 -0.3686
14973WAT    EPW61699  -8.190   8.896   8.918  0.1636 -0.0544  0.1373
14974WAT      O61700   1.699   7.158   8.833 -0.3968 -0.8243 -0.3952
14974WAT     H161701   1.660   7.103   8.766 -0.7883  0.6217 -1.4060
14974WAT     H261702   1.625   7.192   8.883 -0.1731 -1.1273  0.1437
14974WAT    EPW61703   1.684   7.156   8.831 -0.4189 -0.6738 -0.4573
14975WAT      O61704  -1.357   0.340   6.125  0.4979 -0.1879 -0.5616
14975WAT     H161705  -1.344   0.252   6.091  0.4732 -0.1124 -0.7652
14975WAT     H261706  -1.398   0.388   6.053  0.8580  0.0915 -0.5851
14975WAT    EPW61707  -1.361   0.335   6.111  0.5421 -0.1411 -0.5915
14976WAT      O61708  -0.275   8.062   4.741  0.8622 -0.4310  0.4130
14976WAT     H161709  -0.222   8.003   4.688  2.3548  0.6748  0.5998
14976WAT     H261710  -0.312   8.124   4.679  1.5626  0.0898  0.5047
14976WAT    EPW61711  -0.273   8.063   4.726  1.1515 -0.2170  0.4497
14977WAT      O61712   0.008   2.268   8.895 -0.1166  0.5366 -0.1615
14977WAT     H161713   0.031   2.360   8.906 -0.1732  0.5219  0.0833
14977WAT     H261714  -0.031   2.242   8.979  0.5699  0.0904  0.0265
14977WAT    EPW61715   0.006   2.276   8.907 -0.0335  0.4758 -0.1044
14978WAT      O61716  -5.462   8.480   8.330  0.5665 -0.3017 -0.5087
14978WAT     H161717  -5.544   8.521   8.355  1.9693  1.8522  0.9787
14978WAT     H261718  -5.422   8.453   8.413  2.0000  0.1098 -1.0222
14978WAT    EPW61719  -5.467   8.482   8.344  0.9403  0.0362 -0.3800
14979WAT      O61720   5.311   0.532   8.308 -0.0358  1.1478  0.4343
14979WAT     H161721   5.267   0.490   8.234  2.1927 -1.6933  0.5725
14979WAT     H261722   5.271   0.493   8.385 -1.0183  2.6996  0.7654
14979WAT    EPW61723   5.300   0.522   8.308  0.1285  0.9777  0.4964
14980WAT      O61724  -4.588   5.030   8.597  0.6695 -0.3358  0.8180
14980WAT     H161725  -4.575   5.113   8.642 -0.3334  0.3496 -0.1090
14980WAT     H261726  -4.551   4.964   8.656  3.3053  0.9179  0.7163
14980WAT    EPW61727  -4.582   5.032   8.611  0.8848 -0.0799  0.6824
14981WAT      O61728   1.477   3.439   5.649 -0.0396  0.5783  0.1814
14981WAT     H161729   1.410   3.407   5.710 -0.6254  0.0555 -0.7034
14981WAT     H261730   1.469   3.380   5.574  0.3264  1.5192 -0.6021
14981WAT    EPW61731   1.467   3.427   5.647 -0.0685  0.6335 -0.0386
14982WAT      O61732   4.263   7.825   2.541 -0.2300  0.6536  0.3824
14982WAT     H161733   4.350   7.833   2.503  0.0086 -1.3711  0.3905
14982WAT     H261734   4.278   7.790   2.629 -1.0864 -1.5629 -0.2985
14982WAT    EPW61735   4.276   7.822   2.547 -0.3114  0.0942  0.2937
14983WAT      O61736  -1.102   8.227   5.991  0.2361 -0.4714  0.1831
14983WAT     H161737  -1.069   8.138   6.004  1.7979  0.2974  1.9415
14983WAT     H261738  -1.083   8.247   5.899  2.6954 -0.9077  0.5322
14983WAT    EPW61739  -1.095   8.218   5.980  0.7665 -0.4272  0.4611
14984WAT      O61740  -2.592   3.174   2.647  0.2756  0.1768 -0.6523
14984WAT     H161741  -2.503   3.191   2.679  0.9433 -0.6314 -1.9617
14984WAT     H261742  -2.606   3.081   2.662 -0.6120  0.4159  0.0996
14984WAT    EPW61743  -2.582   3.164   2.653  0.2465  0.1018 -0.7259
14985WAT      O61744  -3.332   0.877   5.826 -0.0277  0.1854  0.1363
14985WAT     H161745  -3.292   0.834   5.901 -0.3765  0.9664  0.7870
14985WAT     H261746  -3.345   0.807   5.762  1.2893 -0.2812  0.3624
14985WAT    EPW61747  -3.329   0.862   5.827  0.1000  0.2269  0.2520
14986WAT      O61748  -2.234   6.586   0.480  0.3179  0.2588 -0.5593
14986WAT     H161749  -2.243   6.563   0.572  0.5580  0.8411 -0.3858
14986WAT     H261750  -2.313   6.637   0.460  1.3215  2.1066 -0.0483
14986WAT    EPW61751  -2.246   6.590   0.489  0.4820  0.5794 -0.4690
14987WAT      O61752   1.477   8.130   7.638  0.9658  0.2672  0.3857
14987WAT     H161753   1.419   8.072   7.686  3.9723 -1.9832  1.6256
14987WAT     H261754   1.471   8.214   7.685 -1.7298  0.3762 -0.0277
14987WAT    EPW61755   1.469   8.134   7.651  1.0068 -0.0148  0.4945
14988WAT      O61756   1.024   7.697   1.939  0.2473  0.2602 -0.1621
14988WAT     H161757   1.082   7.682   1.864  1.2720 -1.2369  0.8742
14988WAT     H261758   0.945   7.646   1.919 -0.0220  0.8931 -0.7740
14988WAT    EPW61759   1.021   7.688   1.927  0.3469  0.1462 -0.1062
14989WAT      O61760   1.074   2.851   6.597  0.2759 -0.4626  0.1869
14989WAT     H161761   1.130   2.883   6.525  0.1257  0.0189  0.2806
14989WAT     H261762   1.136   2.817   6.661  0.5615  1.1818  0.8371
14989WAT    EPW61763   1.090   2.851   6.596  0.2939 -0.1822  0.2849
14990WAT      O61764   6.397   6.443   1.302  0.1861  0.3125  0.2047
14990WAT     H161765   6.325   6.439   1.239  0.1426  0.3438  0.2517
14990WAT     H261766   6.445   6.523   1.279  3.4088 -2.2992 -3.2587
14990WAT    EPW61767   6.394   6.453   1.291  0.6053 -0.0279 -0.2459
14991WAT      O61768   4.369   7.807   5.576 -0.1267  0.4561 -0.0176
14991WAT     H161769   4.429   7.880   5.563  0.0110  0.0700 -1.9019
14991WAT     H261770   4.426   7.731   5.588 -0.0663 -0.1175 -2.9623
14991WAT    EPW61771   4.384   7.806   5.576 -0.1004  0.3295 -0.6545
14992WAT      O61772   2.678   2.422   3.610  1.0423  0.3192  0.2630
14992WAT     H161773   2.604   2.372   3.576  0.8352  0.7237  0.1156
14992WAT     H261774   2.732   2.357   3.656  1.2544 -0.2014 -0.7025
14992WAT    EPW61775   2.676   2.406   3.612  1.0430  0.3040  0.1162
14993WAT      O61776   5.709   0.553   0.921  0.1687  0.0725  0.0595
14993WAT     H161777   5.680   0.491   0.855  0.9175 -1.6576  1.2928
14993WAT     H261778   5.802   0.564   0.905  0.2978 -0.1332  0.6563
14993WAT    EPW61779   5.717   0.546   0.910  0.2842 -0.1828  0.3009
14994WAT      O61780   9.184   4.760   0.100 -0.2266  0.5767 -0.6491
14994WAT     H161781   9.245   4.802   0.161 -0.6016 -1.6061  1.3629
14994WAT     H261782   9.097   4.788   0.129 -0.4727 -1.2982  0.6208
14994WAT    EPW61783   9.181   4.769   0.112 -0.3085  0.0415 -0.2162
14995WAT      O61784  -6.226   4.038   8.197 -0.2623  1.0360 -0.4762
14995WAT     H161785  -6.280   3.966   8.231 -0.3494  0.8364 -1.0290
14995WAT     H261786  -6.180   4.000   8.122 -1.2626  1.8940 -1.5495
14995WAT    EPW61787  -6.227   4.023   8.191 -0.4055  1.1230 -0.6905
14996WAT      O61788   4.974   1.221   6.890 -0.2602 -0.4511  0.2108
14996WAT     H161789   4.897   1.262   6.929  0.2735  0.9561 -0.1470
14996WAT     H261790   5.039   1.222   6.961 -0.2660 -0.7539  0.2216
14996WAT    EPW61791   4.972   1.227   6.905 -0.1905 -0.3055  0.1650
14997WAT      O61792  -3.124   4.640   4.914 -0.2749  0.1769  0.0986
14997WAT     H161793  -3.205   4.688   4.898 -0.6159 -1.0769 -2.3648
14997WAT     H261794  -3.058   4.708   4.931 -1.3910  1.3154 -0.0027
14997WAT    EPW61795  -3.126   4.655   4.914 -0.4671  0.1619 -0.2398
14998WAT      O61796   5.543   0.308   1.410 -0.3871 -0.1167  0.5236
14998WAT     H161797   5.561   0.320   1.317 -1.6403 -0.0694  0.2626
14998WAT     H261798   5.448   0.322   1.418 -0.8467 -2.9396  1.3030
14998WAT    EPW61799   5.533   0.311   1.399 -0.6127 -0.4828  0.5919
14999WAT      O61800   4.916   0.672   0.443 -0.0038 -0.6352 -0.0817
14999WAT     H161801   4.853   0.744   0.452 -0.8162 -1.0945 -1.7930
14999WAT     H261802   4.966   0.675   0.525  1.2957  3.0849 -0.7894
14999WAT    EPW61803   4.915   0.682   0.455  0.0606 -0.2051 -0.4008
15000WAT      O61804   3.152   8.381   6.981  0.2370  0.0336 -0.1042
15000WAT     H161805   3.183   8.311   6.922 -1.6194 -1.6893  0.8571
15000WAT     H261806   3.231   8.409   7.028  0.9242 -2.0414  0.0775
15000WAT    EPW61807   3.167   8.375   6.979  0.0827 -0.4673  0.0465
15001WAT      O61808   0.507   3.131   2.080  0.8011  0.4595  1.1081
15001WAT     H161809   0.597   3.111   2.104  0.3809 -1.5533  1.1796
15001WAT     H261810   0.455   3.065   2.125 -0.7946  1.9496  1.5514
15001WAT    EPW61811   0.512   3.120   2.089  0.5352  0.3905  1.1761
15002WAT      O61812   4.925   2.130   4.247 -0.3833 -0.4423 -0.1320
15002WAT     H161813   4.911   2.041   4.216 -2.3023 -0.2318  0.0082
15002WAT     H261814   4.840   2.156   4.284  0.7235  0.7014  1.7413
15002WAT    EPW61815   4.912   2.122   4.248 -0.4907 -0.2637  0.1333
15003WAT      O61816   4.367   7.967   1.148  0.7839  0.4706  0.3167
15003WAT     H161817   4.429   8.004   1.212  1.2109 -2.1356  1.5333
15003WAT     H261818   4.420   7.954   1.069  1.4297 -0.3673  0.8728
15003WAT    EPW61819   4.382   7.970   1.146  0.9253  0.0165  0.5506
15004WAT      O61820   3.976   0.813   7.541 -0.2723  0.1258 -0.2077
15004WAT     H161821   3.929   0.776   7.466 -2.3970  0.5434  0.8112
15004WAT     H261822   3.975   0.908   7.525  0.9439  0.1001 -0.5278
15004WAT    EPW61823   3.969   0.821   7.529 -0.3921  0.1775 -0.1159
15005WAT      O61824  -1.020   7.019   7.807 -0.5918  0.1402  0.6607
15005WAT     H161825  -1.002   6.936   7.763  2.2593  1.4275 -0.8705
15005WAT     H261826  -1.059   7.075   7.740  1.9970  1.4903  0.1220
15005WAT    EPW61827  -1.023   7.016   7.793  0.1257  0.4878  0.3877
15006WAT      O61828  -2.599   0.534   6.961  0.0781  0.7726  0.5944
15006WAT     H161829  -2.600   0.576   7.048 -3.3861  1.8431  0.1961
15006WAT     H261830  -2.691   0.515   6.943  1.0249 -2.8047 -1.3560
15006WAT    EPW61831  -2.611   0.537   6.970 -0.2539  0.4420  0.2847
15007WAT      O61832   3.874   2.591   0.936  0.0150  0.1760 -0.1140
15007WAT     H161833   3.800   2.610   0.993  0.0473  1.6621 -0.5310
15007WAT     H261834   3.951   2.607   0.991  0.0456 -0.6053  0.0841
15007WAT    EPW61835   3.875   2.596   0.951  0.0234  0.2688 -0.1429
15008WAT      O61836   0.291   4.371   0.408 -0.1001  0.3476 -0.2280
15008WAT     H161837   0.290   4.448   0.464 -0.3910 -0.2189  0.5551
15008WAT     H261838   0.199   4.347   0.398  0.0511 -0.6469  0.5903
15008WAT    EPW61839   0.278   4.378   0.414 -0.1186  0.1416 -0.0168
15009WAT      O61840   6.679   6.848   2.278  0.2472 -0.6084  0.0130
15009WAT     H161841   6.723   6.836   2.194  0.5280  0.0395  0.0603
15009WAT     H261842   6.678   6.943   2.290 -0.7597 -0.6400  0.2302
15009WAT    EPW61843   6.685   6.859   2.268  0.1516 -0.5271  0.0478
15010WAT      O61844  -3.113   9.446   5.142 -0.7267 -0.0023 -0.4063
15010WAT     H161845  -3.094   9.539   5.129  0.0424 -0.4689 -3.2955
15010WAT     H261846  -3.198   9.445   5.186 -0.2901  2.0345  0.6256
15010WAT    EPW61847  -3.122   9.458   5.146 -0.5677  0.2050 -0.6514
15011WAT      O61848   4.438   2.800   6.217 -0.6566 -0.0496 -0.0179
15011WAT     H161849   4.412   2.826   6.129 -0.3175  0.4689  0.0276
15011WAT     H261850   4.473   2.712   6.207  1.6851  0.9012 -0.8513
15011WAT    EPW61851   4.439   2.792   6.204 -0.3030  0.1442 -0.1218
15012WAT      O61852   2.096   5.331   0.989  0.5744  0.0463 -0.1294
15012WAT     H161853   2.124   5.369   0.905  1.9975  1.3034  0.8457
15012WAT     H261854   2.166   5.270   1.012  0.3222 -0.0919  0.2732
15012WAT    EPW61855   2.109   5.328   0.981  0.7288  0.1938  0.0523
15013WAT      O61856  -3.541   8.571   4.056  0.5098  0.1674  0.3321
15013WAT     H161857  -3.599   8.628   4.107  1.9679  1.3360  0.7496
15013WAT     H261858  -3.601   8.517   4.005 -0.9664  0.2204  1.9112
15013WAT    EPW61859  -3.557   8.572   4.056  0.5074  0.3285  0.5956
15014WAT      O61860   1.973   9.916   0.676  0.4359 -0.2713 -0.2515
15014WAT     H161861   1.966   9.823   0.700  0.5383 -0.7421 -1.8880
15014WAT     H261862   2.006   9.914   0.586  3.3723  1.4117  0.6484
15014WAT    EPW61863   1.976   9.903   0.667  0.8367 -0.1116 -0.3486
15015WAT      O61864   3.800   4.554   4.533 -0.1191  0.8673 -0.7709
15015WAT     H161865   3.718   4.598   4.511 -0.7773 -0.4471 -1.0723
15015WAT     H261866   3.773   4.468   4.566  1.1505 -0.3568 -2.6755
15015WAT    EPW61867   3.786   4.548   4.534 -0.0384  0.5324 -1.0617
15016WAT      O61868  -1.064   3.294   6.350 -0.1792  0.0949 -0.5314
15016WAT     H161869  -1.134   3.240   6.315  1.6915 -3.1482  0.3082
15016WAT     H261870  -1.009   3.313   6.274 -1.1776  1.4811 -0.9460
15016WAT    EPW61871  -1.066   3.289   6.335 -0.0641 -0.1500 -0.4754
15017WAT      O61872   2.286   2.094   7.514 -0.8180  0.3366 -0.5191
15017WAT     H161873   2.216   2.152   7.544  2.7371  4.1260  1.5468
15017WAT     H261874   2.275   2.091   7.419 -3.2283  1.5080 -0.3471
15017WAT    EPW61875   2.276   2.101   7.505 -0.6670  0.9909 -0.2239
15018WAT      O61876   1.133   2.088   3.276  0.0392  0.0759  0.4018
15018WAT     H161877   1.047   2.128   3.291 -0.6329 -1.6188  1.3453
15018WAT     H261878   1.119   2.029   3.202  1.0122  1.4368 -0.9515
15018WAT    EPW61879   1.120   2.086   3.268  0.0788  0.0319  0.3479
15019WAT      O61880   7.481   5.384   0.773 -0.0699 -0.4172 -0.1116
15019WAT     H161881   7.434   5.464   0.794 -0.3640 -0.2770 -1.2385
15019WAT     H261882   7.560   5.387   0.827 -0.5475  0.1540  0.5638
15019WAT    EPW61883   7.485   5.395   0.783 -0.1719 -0.3235 -0.1711
15020WAT      O61884   1.501   2.668   0.027  0.5245  0.0649 -0.2629
15020WAT     H161885   1.514   2.670   0.122  0.5122 -2.3872 -0.1230
15020WAT     H261886   1.573   2.612  -0.005 -0.7206 -0.9526 -1.3979
15020WAT    EPW61887   1.512   2.661   0.035  0.3586 -0.3928 -0.3941
15021WAT      O61888   1.002   7.484   3.912 -0.3714 -0.6971  0.6112
15021WAT     H161889   0.967   7.424   3.979  2.5583 -0.8218  2.1955
15021WAT     H261890   0.966   7.570   3.935  0.2981 -0.8099  2.1730
15021WAT    EPW61891   0.992   7.487   3.924  0.1033 -0.7284  1.0260
15022WAT      O61892   3.855   6.590   5.938  0.1231  0.3820 -0.4714
15022WAT     H161893   3.801   6.548   6.005  1.5318  0.7126  0.9009
15022WAT     H261894   3.832   6.543   5.857 -3.3113  1.4890 -0.2940
15022WAT    EPW61895   3.845   6.578   5.936 -0.1441  0.5715 -0.2670
15023WAT      O61896   3.707   4.308   1.968  0.0253 -0.3375  0.6609
15023WAT     H161897   3.629   4.349   2.006  0.0644  1.5213 -1.0872
15023WAT     H261898   3.701   4.328   1.874  2.1431 -0.9401  0.3458
15023WAT    EPW61899   3.696   4.316   1.961  0.3098 -0.1717  0.3888
15024WAT      O61900   2.269   0.304   5.782  0.3345  0.1917  0.1527
15024WAT     H161901   2.180   0.277   5.761  0.0270  1.0891  0.2991
15024WAT     H261902   2.272   0.307   5.877  0.7340 -0.5020  0.1759
15024WAT    EPW61903   2.258   0.301   5.791  0.3467  0.2185  0.1752
15025WAT      O61904   2.478   4.231   0.377 -0.7774  0.2743 -0.7386
15025WAT     H161905   2.423   4.305   0.402 -1.5820 -0.8035  0.8625
15025WAT     H261906   2.417   4.164   0.347 -0.2016 -0.3481 -0.5537
15025WAT    EPW61907   2.463   4.232   0.376 -0.8075  0.0501 -0.5031
15026WAT      O61908  -1.039   8.486   6.776  0.4094  0.8076 -0.4877
15026WAT     H161909  -0.988   8.564   6.754 -0.0369  1.3300  0.3109
15026WAT     H261910  -1.007   8.460   6.862 -0.2109  0.7508 -0.2733
15026WAT    EPW61911  -1.028   8.493   6.784  0.2687  0.8693 -0.3541
15027WAT      O61912   0.094   4.562   0.851  0.4077  0.2534 -0.0990
15027WAT     H161913   0.172   4.563   0.796  0.4643  1.6083 -0.0313
15027WAT     H261914   0.127   4.586   0.938  0.1028 -0.4599  0.2184
15027WAT    EPW61915   0.109   4.565   0.856  0.3749  0.3381 -0.0482
15028WAT      O61916  -3.728   6.136   4.703  0.8088  0.4771 -0.3949
15028WAT     H161917  -3.665   6.084   4.654  1.1486  1.2168 -0.7745
15028WAT     H261918  -3.808   6.134   4.649 -0.2300 -2.1690  1.0778
15028WAT    EPW61919  -3.731   6.129   4.689  0.7166  0.2255 -0.2506
15029WAT      O61920  -3.749   6.783   2.209  0.2187  0.3472 -0.9435
15029WAT     H161921  -3.741   6.691   2.234 -0.8868 -0.1958 -2.4872
15029WAT     H261922  -3.678   6.798   2.147  0.1567  0.4269 -0.9959
15029WAT    EPW61923  -3.738   6.773   2.204  0.0646  0.2861 -1.1541
15030WAT      O61924   0.389   5.710   3.048 -0.7480 -0.3130 -0.7809
15030WAT     H161925   0.392   5.633   2.991 -0.6555 -1.1591  0.3308
15030WAT     H261926   0.316   5.762   3.015 -1.2183 -1.1950 -1.1542
15030WAT    EPW61927   0.380   5.706   3.036 -0.7979 -0.5410 -0.6835
15031WAT      O61928   1.238   3.909   8.818  0.7066  0.8549 -0.1486
15031WAT     H161929   1.204   3.997   8.807 -0.4515  0.4024 -0.3491
15031WAT     H261930   1.307   3.902   8.752  1.5617  1.9621  0.6081
15031WAT    EPW61931   1.243   3.919   8.808  0.6667  0.9413 -0.0753
15032WAT      O61932  -2.861   6.005   2.301  0.2784 -0.2548  0.0472
15032WAT     H161933  -2.824   6.086   2.267 -3.1176  1.2667 -0.4635
15032WAT     H261934  -2.819   5.992   2.386  3.2906  0.1387 -1.2806
15032WAT    EPW61935  -2.851   6.014   2.307  0.2278 -0.0024 -0.1954
15033WAT      O61936  -0.263   1.342   0.407 -0.3520 -0.4239  0.6043
15033WAT     H161937  -0.217   1.381   0.333 -0.3457 -2.0444 -0.3038
15033WAT     H261938  -0.306   1.415   0.450 -2.5376  0.3515 -2.5367
15033WAT    EPW61939  -0.262   1.357   0.403 -0.6394 -0.5353  0.0703
15034WAT      O61940   8.068   0.377   3.420  0.7579  0.0240 -0.8628
15034WAT     H161941   8.064   0.457   3.472  0.8291  0.7935 -1.9967
15034WAT     H261942   8.084   0.407   3.331 -0.5233 -1.1672 -1.5435
15034WAT    EPW61943   8.069   0.391   3.415  0.5984 -0.0316 -1.1022
15035WAT      O61944   1.451   4.332   4.141  0.3393 -0.6977 -0.0911
15035WAT     H161945   1.426   4.255   4.091 -2.6182 -0.4713  0.8969
15035WAT     H261946   1.411   4.320   4.227 -0.6577  2.1148 -0.0564
15035WAT    EPW61947   1.443   4.321   4.146 -0.1823 -0.2971  0.0439
15036WAT      O61948  -0.022  10.202   6.900  0.0594  0.7219  0.3079
15036WAT     H161949   0.029  10.265   6.850 -1.0312 -0.8373 -3.0971
15036WAT     H261950  -0.110  10.240   6.903  0.0823  0.7319  0.9707
15036WAT    EPW61951  -0.027  10.215   6.893 -0.0814  0.5178 -0.0536
15037WAT      O61952  -0.075   5.475   7.472  0.0934  0.4149 -0.3762
15037WAT     H161953  -0.045   5.555   7.515  1.7350 -0.5617  0.3731
15037WAT     H261954  -0.130   5.506   7.400 -0.5982  2.1606  0.8315
15037WAT    EPW61955  -0.078   5.490   7.468  0.2187  0.5164 -0.1180
15038WAT      O61956   5.077   0.147   6.500  0.7198  0.3384  0.6626
15038WAT     H161957   4.984   0.141   6.518  0.4618 -0.7370 -0.8544
15038WAT     H261958   5.101   0.062   6.464  1.7715  1.3341 -1.1680
15038WAT    EPW61959   5.068   0.135   6.497  0.8245  0.3279  0.2210
15039WAT      O61960   1.895   9.515   4.544 -0.2804 -0.1268 -0.7338
15039WAT     H161961   1.800   9.524   4.540 -0.2699  0.4068  0.0472
15039WAT     H261962   1.926   9.602   4.569  0.4376 -0.2329 -1.2227
15039WAT    EPW61963   1.887   9.528   4.547 -0.1843 -0.0706 -0.6950
15040WAT      O61964   0.899   5.866   4.738  0.2629 -0.0327 -0.0839
15040WAT     H161965   0.853   5.837   4.818  3.0517  0.1907  1.7360
15040WAT     H261966   0.884   5.960   4.735  0.9300  0.1192  0.7910
15040WAT    EPW61967   0.891   5.874   4.748  0.7187  0.0169  0.2718
15041WAT      O61968   7.712   5.218   1.503  0.2584  1.0035 -0.1385
15041WAT     H161969   7.699   5.275   1.427 -1.1905  2.3525  1.0549
15041WAT     H261970   7.652   5.252   1.569  2.3058  0.6028  2.0533
15041WAT    EPW61971   7.702   5.230   1.501  0.3374  1.1287  0.3080
15042WAT      O61972  -3.147   7.879   8.677  0.4220 -0.0915 -0.3859
15042WAT     H161973  -3.086   7.944   8.641 -1.7980  3.2059  1.3160
15042WAT     H261974  -3.109   7.855   8.761  0.1933  0.7801 -0.0172
15042WAT    EPW61975  -3.134   7.885   8.683  0.0989  0.4585 -0.1125
15043WAT      O61976  -0.144   5.298   4.486  0.4790 -0.2140 -0.0287
15043WAT     H161977  -0.228   5.253   4.477 -0.8340  1.7089  1.6363
15043WAT     H261978  -0.108   5.264   4.567  1.1069 -0.6722 -0.4896
15043WAT    EPW61979  -0.150   5.287   4.495  0.3886 -0.0205  0.1302
15044WAT      O61980   3.216   8.924   7.278  0.1988 -0.1113 -0.1220
15044WAT     H161981   3.171   8.844   7.305  1.0492  0.0275  1.9300
15044WAT     H261982   3.259   8.901   7.196  0.0655 -1.6167  0.2005
15044WAT    EPW61983   3.216   8.910   7.271  0.2934 -0.2913  0.1912
15045WAT      O61984   0.051   5.003   7.981 -0.2341 -0.7710 -0.6862
15045WAT     H161985  -0.014   5.057   8.025 -0.7969 -0.5524 -1.7641
15045WAT     H261986   0.087   4.948   8.051 -0.1873  0.4445  0.2839
15045WAT    EPW61987   0.048   5.003   7.996 -0.3021 -0.5817 -0.7002
15046WAT      O61988   0.404   6.660   4.358 -1.2470 -0.3059  0.6664
15046WAT     H161989   0.353   6.678   4.437 -0.7045 -1.1021  1.2166
15046WAT     H261990   0.338   6.645   4.290 -1.7377  2.3206  0.4620
15046WAT    EPW61991   0.388   6.661   4.359 -1.2401 -0.0646  0.7124
15047WAT      O61992   2.732   9.911   0.237  0.1553 -0.8191  0.2286
15047WAT     H161993   2.642   9.939   0.221 -0.0933 -0.4830  2.0725
15047WAT     H261994   2.732   9.878   0.326  2.2759  1.0414  1.0270
15047WAT    EPW61995   2.720   9.910   0.246  0.4022 -0.5293  0.5771
15048WAT      O61996  -1.600   3.085   5.307  0.7320  0.0586  0.5678
15048WAT     H161997  -1.600   3.150   5.377  0.3500  0.7007 -0.0203
15048WAT     H261998  -1.602   3.001   5.353  0.5404  0.4656  1.3252
15048WAT    EPW61999  -1.600   3.082   5.323  0.6563  0.1969  0.5901
15049WAT      O62000   1.157   7.057   5.130  0.2942  0.5782  0.2434
15049WAT     H162001   1.076   7.105   5.112 -0.1603  0.4962  1.9795
15049WAT     H262002   1.214   7.121   5.173  0.2868  0.0286  1.0929
15049WAT    EPW62003   1.154   7.072   5.133  0.2333  0.4950  0.5844
15050WAT      O62004   3.534   1.040   0.799  0.7193 -0.2018 -0.0820
15050WAT     H162005   3.487   1.115   0.763  1.1649 -0.1362 -0.5324
15050WAT     H262006   3.624   1.070   0.810  0.5203 -0.0853  1.4903
15050WAT    EPW62007   3.540   1.054   0.796  0.7517 -0.1777  0.0660
15051WAT      O62008   1.361   8.190   8.553 -0.0126  0.2369  0.0580
15051WAT     H162009   1.319   8.244   8.621  0.0582  0.2829  0.0653
15051WAT     H262010   1.454   8.191   8.576  0.0633  0.5612 -0.2552
15051WAT    EPW62011   1.367   8.198   8.565  0.0068  0.2861  0.0181
15052WAT      O62012  -0.812   4.412   6.591  0.3850 -0.0968 -0.5635
15052WAT     H162013  -0.720   4.395   6.612 -0.0128  0.6121  2.0714
15052WAT     H262014  -0.830   4.498   6.630 -1.3742 -0.1406 -1.1863
15052WAT    EPW62015  -0.802   4.421   6.599  0.1006 -0.0091 -0.2983
15053WAT      O62016   0.856   6.325   5.890  0.4111 -0.6006 -0.3902
15053WAT     H162017   0.806   6.397   5.930 -1.1637 -1.8287 -0.0451
15053WAT     H262018   0.819   6.246   5.928  0.6689 -1.7161 -2.3087
15053WAT    EPW62019   0.845   6.324   5.900  0.2374 -0.9096 -0.5975
15054WAT      O62020   2.252   4.091   0.230 -0.7320  0.2738 -0.6953
15054WAT     H162021   2.216   4.002   0.224  0.5625 -0.2707 -0.8538
15054WAT     H262022   2.211   4.138   0.157  0.6638 -1.0244 -2.4266
15054WAT    EPW62023   2.242   4.085   0.219 -0.3772  0.0308 -0.9445
15055WAT      O62024  -1.717   6.474   4.824  0.4553 -0.1202 -0.2379
15055WAT     H162025  -1.739   6.424   4.902  0.2024  0.3895  0.0265
15055WAT     H262026  -1.798   6.475   4.773  0.6739 -0.6080 -0.5951
15055WAT    EPW62027  -1.731   6.468   4.828  0.4508 -0.1173 -0.2501
15056WAT      O62028  -3.356   0.157   7.814  0.4526  0.4103 -0.4059
15056WAT     H162029  -3.318   0.232   7.769 -0.1384  2.5270  2.3743
15056WAT     H262030  -3.280   0.110   7.850  0.7543  2.1530  1.4132
15056WAT    EPW62031  -3.341   0.160   7.813  0.4144  0.9193  0.2007
15057WAT      O62032  -0.565   9.757   1.120  0.1370  0.0297 -0.3342
15057WAT     H162033  -0.493   9.713   1.164 -1.0763  0.8442  2.7624
15057WAT     H262034  -0.619   9.687   1.084  0.3936 -0.8120  0.8840
15057WAT    EPW62035  -0.563   9.742   1.121  0.0108  0.0262  0.2348
15058WAT      O62036  -2.863   0.037   8.824 -0.3594 -0.9204 -0.1069
15058WAT     H162037  -2.911  -0.002   8.898  1.2755 -1.3441  0.7896
15058WAT     H262038  -2.780   0.065   8.863 -0.6534  1.6566 -1.1594
15058WAT    EPW62039  -2.859   0.035   8.839 -0.1826 -0.6364 -0.1273
15059WAT      O62040   2.599   1.278   7.129  0.3306 -0.4673 -0.4258
15059WAT     H162041   2.690   1.252   7.142  0.4605  0.9585  2.3364
15059WAT     H262042   2.548   1.212   7.175  0.1082 -0.2132 -0.3044
15059WAT    EPW62043   2.604   1.266   7.137  0.3184 -0.2457 -0.0455
15060WAT      O62044  -1.796   3.224   6.795 -0.1606  0.5307 -0.2712
15060WAT     H162045  -1.732   3.167   6.838 -1.3028 -0.5310  0.0589
15060WAT     H262046  -1.744   3.273   6.731  1.5739  2.1036  2.1868
15060WAT    EPW62047  -1.780   3.223   6.792 -0.0825  0.5981  0.0963
15061WAT      O62048  -2.782   1.626   6.636 -1.0759  0.0092 -0.0219
15061WAT     H162049  -2.721   1.681   6.685  0.0560 -0.9349 -0.3032
15061WAT     H262050  -2.792   1.548   6.690 -1.3077 -0.2283 -0.4044
15061WAT    EPW62051  -2.775   1.623   6.650 -0.9573 -0.1466 -0.1094
15062WAT      O62052  -4.943   7.968   4.899 -0.3653  0.1802  0.5721
15062WAT     H162053  -5.033   7.937   4.906 -0.1315 -0.9666 -1.0052
15062WAT     H262054  -4.907   7.921   4.824  1.9512 -0.3545  1.9113
15062WAT    EPW62055  -4.950   7.958   4.890 -0.0288 -0.0417  0.5407
15063WAT      O62056  -1.434   1.588   1.495 -1.1754  0.6025  0.1498
15063WAT     H162057  -1.364   1.653   1.484  0.7168 -1.6232 -2.1063
15063WAT     H262058  -1.430   1.565   1.588  0.7922  0.9476  0.2067
15063WAT    EPW62059  -1.424   1.594   1.506 -0.6663  0.3545 -0.1403
15064WAT      O62060   3.352   2.339   2.173 -0.1439  0.2087 -0.0026
15064WAT     H162061   3.433   2.315   2.217 -0.2544 -3.8068 -1.5463
15064WAT     H262062   3.377   2.353   2.081 -1.1347 -1.3189 -0.5499
15064WAT    EPW62063   3.366   2.338   2.166 -0.2892 -0.5224 -0.2784
15065WAT      O62064   1.259  10.314   7.625 -0.4666  0.3961 -0.3021
15065WAT     H162065   1.232  10.240   7.680  0.3547  0.9667  0.9217
15065WAT     H262066   1.321  10.277   7.563 -0.6857 -0.0987 -0.2272
15065WAT    EPW62067   1.264  10.299   7.624 -0.3871  0.4063 -0.1309
15066WAT      O62068  -3.971   7.446   3.874  0.0126  0.0414  0.4105
15066WAT     H162069  -3.981   7.484   3.787 -0.1871 -0.2627  0.2980
15066WAT     H262070  -3.957   7.353   3.858  0.3891  0.0491  0.6873
15066WAT    EPW62071  -3.971   7.439   3.860  0.0360  0.0024  0.4323
15067WAT      O62072  -2.618   0.073   7.476 -0.3456  0.3974  0.0169
15067WAT     H162073  -2.657   0.123   7.548  0.7327  1.2097  0.0576
15067WAT     H262074  -2.649   0.117   7.397 -0.4977  0.2885  0.0154
15067WAT    EPW62075  -2.627   0.085   7.475 -0.2234  0.4902  0.0222
15068WAT      O62076  -1.385   2.972   8.270 -0.6925 -0.2399 -0.5296
15068WAT     H162077  -1.384   3.021   8.188 -1.1991  1.7652  0.6041
15068WAT     H262078  -1.410   3.036   8.337 -1.9679 -2.1758  0.9804
15068WAT    EPW62079  -1.388   2.987   8.268 -0.9275 -0.2308 -0.1807
15069WAT      O62080   0.649   3.894   1.825  0.1586  0.5888 -0.2723
15069WAT     H162081   0.676   3.803   1.835  1.1234  1.1113  2.9476
15069WAT     H262082   0.553   3.891   1.823  0.1725 -0.4532  0.3576
15069WAT    EPW62083   0.640   3.882   1.826  0.2877  0.5202  0.2354
15070WAT      O62084  -0.058   6.171   6.510 -0.1940  0.1207  0.5436
15070WAT     H162085  -0.126   6.158   6.444 -0.5114  2.1113  0.4031
15070WAT     H262086  -0.096   6.135   6.590 -0.2397 -1.3358 -0.0986
15070WAT    EPW62087  -0.072   6.165   6.512 -0.2419  0.1912  0.4404
15071WAT      O62088   3.688   2.301   1.129 -0.1587  0.0027 -0.3161
15071WAT     H162089   3.756   2.312   1.063 -1.3448  0.4250 -1.5055
15071WAT     H262090   3.720   2.229   1.184  0.7659 -0.5027 -1.4614
15071WAT    EPW62091   3.701   2.293   1.128 -0.1931 -0.0083 -0.6241
15072WAT      O62092  -2.270  10.380   1.004  0.0620 -0.6374  0.2262
15072WAT     H162093  -2.247  10.298   0.960  0.5312 -0.5790  0.3637
15072WAT     H262094  -2.362  10.367   1.030  0.0508 -1.0136  0.0165
15072WAT    EPW62095  -2.279  10.367   1.001  0.1224 -0.6793  0.2167
15073WAT      O62096  -1.195   4.795   2.121 -0.8077  0.3260 -0.5218
15073WAT     H162097  -1.271   4.749   2.083 -0.1872 -0.8180 -0.4302
15073WAT     H262098  -1.206   4.784   2.215  0.9062 -2.4048 -0.5152
15073WAT    EPW62099  -1.207   4.788   2.128 -0.4998 -0.1853 -0.5088
15074WAT      O62100   4.155   2.349   0.316  0.2752 -0.1152  0.5810
15074WAT     H162101   4.084   2.354   0.252  1.1939 -0.3380 -0.5042
15074WAT     H262102   4.142   2.424   0.373 -1.8047 -1.0946  1.4789
15074WAT    EPW62103   4.144   2.359   0.315  0.1221 -0.2738  0.5563
15075WAT      O62104   0.334   5.243   8.773 -0.2202  0.3012  0.4907
15075WAT     H162105   0.285   5.175   8.819  0.0835  0.5835  1.2329
15075WAT     H262106   0.309   5.324   8.817  0.5725  0.5013  0.5864
15075WAT    EPW62107   0.324   5.245   8.785 -0.0756  0.3648  0.6008
15076WAT      O62108   0.169   3.988   8.878  0.3968 -0.0725  0.1676
15076WAT     H162109   0.078   3.989   8.847  0.3868 -2.3262 -0.0287
15076WAT     H262110   0.218   3.943   8.810  1.1003 -1.5604  1.5948
15076WAT    EPW62111   0.163   3.982   8.865  0.4883 -0.5660  0.3300
15077WAT      O62112   0.365   6.187   8.724  0.3472  0.0818  0.2294
15077WAT     H162113   0.389   6.225   8.639  0.0208  2.8756  1.2691
15077WAT     H262114   0.425   6.227   8.786  0.5025 -1.8330  1.3648
15077WAT    EPW62115   0.376   6.197   8.721  0.3246  0.1976  0.5164
15078WAT      O62116   3.370   5.035   2.042 -0.5312 -0.6351 -0.2098
15078WAT     H162117   3.277   5.023   2.026 -0.2569 -0.5311 -2.0857
15078WAT     H262118   3.413   4.973   1.984  0.5805 -0.8145  0.7580
15078WAT    EPW62119   3.364   5.026   2.033 -0.3483 -0.6449 -0.3296
15079WAT      O62120  -3.506   1.984   5.336 -0.7613  0.4912 -0.3792
15079WAT     H162121  -3.412   1.986   5.314 -0.8684  0.8495 -0.8271
15079WAT     H262122  -3.508   1.972   5.431 -0.2875 -1.7008 -0.5974
15079WAT    EPW62123  -3.494   1.983   5.346 -0.7130  0.2494 -0.4668
15080WAT      O62124  -1.492   3.264   3.423 -0.1382 -0.4778 -0.6653
15080WAT     H162125  -1.417   3.215   3.456 -0.8330 -1.6542 -0.7883
15080WAT     H262126  -1.471   3.355   3.442 -0.6960 -1.0162  3.5880
15080WAT    EPW62127  -1.479   3.270   3.430 -0.3034 -0.7041 -0.1205
15081WAT      O62128   3.374   9.293   5.919 -0.2431  0.6293  0.5328
15081WAT     H162129   3.452   9.320   5.969 -0.4969  1.7403  0.3618
15081WAT     H262130   3.353   9.369   5.865 -0.3693 -0.3193 -0.7984
15081WAT    EPW62131   3.382   9.307   5.919 -0.2933  0.6509  0.3347
15082WAT      O62132   3.950   1.675   4.411  0.6210 -0.2166  0.5306
15082WAT     H162133   3.876   1.617   4.424 -0.3969  1.4411  2.7462
15082WAT     H262134   3.911   1.757   4.379  1.7293  0.0848 -0.1202
15082WAT    EPW62135   3.935   1.678   4.408  0.6329  0.0418  0.7370
15083WAT      O62136  -3.497   5.020   8.529  0.5449 -0.0754 -1.0428
15083WAT     H162137  -3.545   5.027   8.447 -3.5561  4.8618  1.1755
15083WAT     H262138  -3.543   4.953   8.579  1.3923 -1.2191 -1.7466
15083WAT    EPW62139  -3.509   5.012   8.525  0.1158  0.4249 -0.8430
15084WAT      O62140   4.774   3.827   5.750  0.2824 -0.3953 -0.0449
15084WAT     H162141   4.773   3.883   5.828 -2.5234  0.2914 -0.4862
15084WAT     H262142   4.855   3.852   5.705  0.6856  1.0328  1.3713
15084WAT    EPW62143   4.785   3.838   5.754 -0.0346 -0.1163  0.0837
15085WAT      O62144   1.507   2.724   3.253  0.1308  0.4396  0.7275
15085WAT     H162145   1.456   2.773   3.318 -1.5874 -0.1889 -0.0786
15085WAT     H262146   1.445   2.708   3.181  1.1809 -1.2354  0.1303
15085WAT    EPW62147   1.492   2.728   3.252  0.0426  0.1358  0.5424
15086WAT      O62148   1.042   0.850   7.972 -0.3394 -0.0852 -0.6479
15086WAT     H162149   0.967   0.909   7.963  0.2435  0.5977 -1.1417
15086WAT     H262150   1.091   0.886   8.046 -1.6102 -1.8116  1.1656
15086WAT    EPW62151   1.038   0.862   7.981 -0.4301 -0.2228 -0.4737
15087WAT      O62152   5.661   3.300   5.992  0.7152 -0.2313  0.6604
15087WAT     H162153   5.704   3.247   6.059  0.2740 -0.1346  1.0234
15087WAT     H262154   5.569   3.298   6.015  0.2593 -1.8298 -1.0766
15087WAT    EPW62155   5.655   3.293   6.004  0.5970 -0.4294  0.4792
15088WAT      O62156   0.907   4.401   7.873  0.2043  0.0048 -0.2587
15088WAT     H162157   0.879   4.370   7.959  0.5941 -0.1449 -0.1844
15088WAT     H262158   0.999   4.375   7.867  1.1793  2.8763  0.6506
15088WAT    EPW62159   0.915   4.394   7.883  0.3843  0.3641 -0.1290
15089WAT      O62160  -0.939   2.756   3.052  0.6322  0.4759  0.1373
15089WAT     H162161  -0.956   2.745   2.959 -0.2381 -1.1305  0.4469
15089WAT     H262162  -1.025   2.744   3.093  1.3956 -1.3525  1.3029
15089WAT    EPW62163  -0.953   2.753   3.045  0.6181  0.0228  0.3319
15090WAT      O62164  -1.368   2.078   6.359 -0.2683 -0.3472 -0.4699
15090WAT     H162165  -1.305   2.149   6.377 -0.1488 -0.2345 -1.3198
15090WAT     H262166  -1.439   2.093   6.422 -0.5892  0.9596 -1.1183
15090WAT    EPW62167  -1.369   2.089   6.370 -0.2949 -0.1600 -0.6676
15091WAT      O62168  -2.184   6.390   8.786  0.5180 -0.6590 -0.5713
15091WAT     H162169  -2.242   6.404   8.711  2.1159 -0.3621 -1.8324
15091WAT     H262170  -2.232   6.424   8.861 -1.8058 -2.3847 -1.1653
15091WAT    EPW62171  -2.198   6.396   8.786  0.4222 -0.8476 -0.8159
15092WAT      O62172   3.113  10.311   3.388 -0.2467 -0.3051  0.3819
15092WAT     H162173   3.066  10.227   3.392  1.5794 -1.3375  3.7393
15092WAT     H262174   3.205  10.287   3.394  0.7016  1.8310 -3.0104
15092WAT    EPW62175   3.119  10.296   3.389  0.1193 -0.1597  0.3774
15093WAT      O62176   4.999   0.894   8.044 -0.0823  0.8945  0.4935
15093WAT     H162177   5.022   0.985   8.023  0.3870  0.7058  0.1624
15093WAT     H262178   4.937   0.901   8.116  0.0794  1.4756  0.5832
15093WAT    EPW62179   4.994   0.907   8.051  0.0010  0.9463  0.4616
15094WAT      O62180  -1.823   2.798   8.423  0.2030  0.2312 -0.0803
15094WAT     H162181  -1.899   2.828   8.474 -1.1286 -0.5161 -1.5393
15094WAT     H262182  -1.861   2.749   8.350  2.1141 -0.2258 -0.8244
15094WAT    EPW62183  -1.838   2.796   8.420  0.2794  0.0725 -0.3710
15095WAT      O62184   6.267   6.289   2.018 -0.3743 -0.1096  0.1217
15095WAT     H162185   6.223   6.323   1.940 -2.5827 -1.2588  0.8129
15095WAT     H262186   6.251   6.355   2.085  1.6435  0.9463 -0.3443
15095WAT    EPW62187   6.259   6.302   2.016 -0.3994 -0.1216  0.1514
15096WAT      O62188   1.984   1.706   5.376 -0.4449  0.4134  0.8555
15096WAT     H162189   1.905   1.741   5.417  0.4406  0.3375  2.7050
15096WAT     H262190   2.035   1.671   5.448  2.4005  2.5625  0.0624
15096WAT    EPW62191   1.980   1.706   5.391  0.0471  0.6868  0.9947
15097WAT      O62192  -3.135  10.333   4.838 -0.8844  0.3172 -0.4576
15097WAT     H162193  -3.188  10.320   4.760 -1.8265 -0.1479  0.2367
15097WAT     H262194  -3.197  10.324   4.911 -0.1035  1.1438  0.3290
15097WAT    EPW62195  -3.150  10.330   4.837 -0.9057  0.3649 -0.2623
15098WAT      O62196   7.390   1.949   0.671  0.1845  0.4237  0.1314
15098WAT     H162197   7.335   1.888   0.721  0.9846  0.3879  1.0034
15098WAT     H262198   7.479   1.917   0.684  0.7855  2.5178  1.7353
15098WAT    EPW62199   7.395   1.937   0.679  0.3693  0.6952  0.4579
15099WAT      O62200   5.045   5.068   5.379 -0.3975  0.4512 -0.2137
15099WAT     H162201   5.000   5.006   5.322  0.2412  0.5951 -0.8864
15099WAT     H262202   5.086   5.013   5.446  0.4197  0.1043 -0.9782
15099WAT    EPW62203   5.044   5.053   5.380 -0.2053  0.4244 -0.4032
15100WAT      O62204   5.770   9.786   1.846  0.3276 -0.6030 -0.1688
15100WAT     H162205   5.775   9.881   1.843  0.0047 -0.6020 -1.1681
15100WAT     H262206   5.861   9.758   1.860  0.2834 -0.1415  1.1746
15100WAT    EPW62207   5.783   9.795   1.847  0.2789 -0.5417 -0.1234
15101WAT      O62208  -1.306   0.843   8.354 -0.8496 -0.0748  0.2774
15101WAT     H162209  -1.283   0.760   8.395  1.4023  0.4085  0.1465
15101WAT     H262210  -1.348   0.893   8.423  0.9751 -0.0600  1.4584
15101WAT    EPW62211  -1.308   0.839   8.368 -0.3119 -0.0091  0.4158
15102WAT      O62212   4.835   1.882   6.217  0.4559  0.0385  0.8198
15102WAT     H162213   4.779   1.829   6.160  0.0534  1.1182  0.1806
15102WAT     H262214   4.778   1.906   6.291 -0.0478  1.3406  0.0503
15102WAT    EPW62215   4.820   1.878   6.219  0.3364  0.3527  0.6342
15103WAT      O62216   0.326   6.529   7.755 -0.0544  0.1129 -0.0220
15103WAT     H162217   0.235   6.499   7.760  0.2359 -0.6370  1.4555
15103WAT     H262218   0.358   6.522   7.845  1.2810  0.9726 -0.4068
15103WAT    EPW62219   0.319   6.524   7.768  0.1600  0.1276  0.1223
15104WAT      O62220  -1.197   5.466   2.141 -0.1736  0.4695  0.4705
15104WAT     H162221  -1.277   5.423   2.111 -0.8851  2.0080  0.0714
15104WAT     H262222  -1.218   5.501   2.227  1.2911 -2.2967  2.1224
15104WAT    EPW62223  -1.210   5.465   2.148 -0.0743  0.3073  0.6357
15105WAT      O62224   2.013   3.950   3.908 -0.2953  0.4111 -0.0132
15105WAT     H162225   2.065   3.880   3.869  1.0896  0.0952  2.2475
15105WAT     H262226   2.068   4.028   3.900 -0.3300  0.5008  0.6078
15105WAT    EPW62227   2.027   3.951   3.901 -0.1172  0.3814  0.3667
15106WAT      O62228   2.945  10.214   2.171 -0.3125  1.0532  0.8950
15106WAT     H162229   2.857  10.237   2.140  0.7776  1.9311 -1.8269
15106WAT     H262230   2.941  10.119   2.185 -1.6699  1.0588  0.7172
15106WAT    EPW62231   2.933  10.204   2.169 -0.3479  1.1702  0.5125
15107WAT      O62232   0.432   3.919   6.230  0.5778  0.3856  0.2734
15107WAT     H162233   0.342   3.925   6.263 -0.0326 -1.7975 -0.7800
15107WAT     H262234   0.484   3.970   6.293 -1.3061  1.2481  1.2126
15107WAT    EPW62235   0.427   3.926   6.243  0.2488  0.2114  0.2582
15108WAT      O62236   1.354   4.056   4.053  0.7630 -0.3240  0.2371
15108WAT     H162237   1.434   4.041   4.103  1.4790 -0.0030 -0.8046
15108WAT     H262238   1.375   4.030   3.964 -0.0625  0.4595 -0.2045
15108WAT    EPW62239   1.367   4.051   4.048  0.7486 -0.1783  0.0415
15109WAT      O62240  -0.934   9.277   6.220 -0.0481  0.5575  0.1202
15109WAT     H162241  -0.939   9.285   6.125 -0.9851 -4.6130 -0.5548
15109WAT     H262242  -1.019   9.309   6.251 -0.9731 -0.4494 -1.2194
15109WAT    EPW62243  -0.946   9.282   6.211 -0.2937 -0.2575 -0.1454
15110WAT      O62244   2.456   8.149   3.200 -0.3953 -0.4382  0.1828
15110WAT     H162245   2.425   8.235   3.172 -1.1702 -1.0537 -0.9540
15110WAT     H262246   2.377   8.094   3.198  0.1471 -1.2427  0.5735
15110WAT    EPW62247   2.441   8.153   3.196 -0.4261 -0.6256  0.0844
15111WAT      O62248   5.727   9.731   1.574  0.0649 -0.5243 -0.4192
15111WAT     H162249   5.794   9.672   1.539  1.6407  0.8240  0.1551
15111WAT     H262250   5.736   9.722   1.669 -1.7636 -1.5572 -0.3002
15111WAT    EPW62251   5.737   9.722   1.582  0.0317 -0.4826 -0.3278
15112WAT      O62252   2.484   9.165   7.717  0.2785 -0.2580 -0.2193
15112WAT     H162253   2.487   9.145   7.811 -1.7076 -0.3852 -0.1497
15112WAT     H262254   2.443   9.250   7.711  1.3057  0.2135 -0.9611
15112WAT    EPW62255   2.479   9.173   7.728  0.1521 -0.2127 -0.3078
15113WAT      O62256   3.729   1.603   0.970  0.6275 -0.4442 -0.0866
15113WAT     H162257   3.810   1.598   1.022 -0.5974 -0.3951  1.9159
15113WAT     H262258   3.757   1.641   0.887  2.4045  1.2094  1.1633
15113WAT    EPW62259   3.744   1.608   0.966  0.7004 -0.2196  0.3424
15114WAT      O62260   0.268   6.033   6.511  0.1802  0.3169 -0.2441
15114WAT     H162261   0.223   6.052   6.593 -0.0094 -0.0940 -0.2492
15114WAT     H262262   0.361   6.047   6.530  0.4507 -2.3758  0.8502
15114WAT    EPW62263   0.275   6.037   6.524  0.1909 -0.0925 -0.1006
15115WAT      O62264  -4.712   6.217   5.776 -0.7849 -0.4875  0.5457
15115WAT     H162265  -4.640   6.248   5.721 -0.8374  0.0728  0.7862
15115WAT     H262266  -4.731   6.290   5.834 -0.5762 -1.1661  1.4828
15115WAT    EPW62267  -4.705   6.231   5.776 -0.7641 -0.5031  0.7010
15116WAT      O62268   0.137   1.670   2.460  0.7564 -0.2535  0.3000
15116WAT     H162269   0.099   1.655   2.547  1.6637  0.5785  0.8524
15116WAT     H262270   0.225   1.632   2.465  1.9555  2.3975  0.7540
15116WAT    EPW62271   0.143   1.663   2.472  1.0343  0.2059  0.4327
15117WAT      O62272  -3.174  10.344   1.375  0.0940 -0.8030 -0.1791
15117WAT     H162273  -3.227  10.411   1.417 -1.7869 -1.5916 -1.1951
15117WAT     H262274  -3.227  10.313   1.302  1.1300 -3.0307 -0.0738
15117WAT    EPW62275  -3.188  10.349   1.371 -0.0174 -1.2008 -0.2992
15118WAT      O62276   4.932   8.236   1.982 -0.2315  0.5334  0.2035
15118WAT     H162277   4.997   8.257   1.915  1.5833 -2.0146  1.0204
15118WAT     H262278   4.982   8.223   2.062 -1.9977  0.4655  1.3687
15118WAT    EPW62279   4.947   8.237   1.984 -0.2253  0.1884  0.4650
15119WAT      O62280   2.905   4.361   4.211 -0.0493  0.3969 -0.5254
15119WAT     H162281   2.918   4.445   4.254  0.3954  0.5682 -0.9784
15119WAT     H262282   2.814   4.365   4.179 -0.6183 -0.0170  0.9743
15119WAT    EPW62283   2.894   4.373   4.212 -0.0658  0.3650 -0.3874
15120WAT      O62284  -1.478  10.195   5.095  0.1326 -0.6037 -0.3532
15120WAT     H162285  -1.460  10.252   5.170  1.3263 -1.5800  0.1170
15120WAT     H262286  -1.526  10.121   5.132 -0.6187 -0.3694 -0.8222
15120WAT    EPW62287  -1.482  10.193   5.110  0.1910 -0.7014 -0.3531
15121WAT      O62288   5.762   0.524   3.508 -0.6568  0.1501  0.0504
15121WAT     H162289   5.697   0.461   3.539  1.8516 -2.6653  0.0576
15121WAT     H262290   5.770   0.506   3.414  0.0668  0.4926  0.0419
15121WAT    EPW62291   5.755   0.513   3.500 -0.2306 -0.1760  0.0502
15122WAT      O62292  -0.440   0.273   1.082  0.1440  0.7533  0.5338
15122WAT     H162293  -0.508   0.246   1.021  1.5444 -4.6201  0.9065
15122WAT     H262294  -0.372   0.311   1.027  0.2811 -1.6173 -1.0632
15122WAT    EPW62295  -0.440   0.275   1.067  0.3468 -0.2681  0.3724
15123WAT      O62296   6.061   1.720   2.527  1.1510  0.6584  0.4677
15123WAT     H162297   6.036   1.806   2.561 -0.3980  0.0265  1.0252
15123WAT     H262298   6.045   1.726   2.433 -0.9163  0.3990  0.7522
15123WAT    EPW62299   6.056   1.733   2.519  0.6740  0.5409  0.5789
15124WAT      O62300   4.766   4.647   0.080  0.2877 -0.1599 -0.5742
15124WAT     H162301   4.765   4.670   0.172  0.7462  0.4162 -0.7069
15124WAT     H262302   4.770   4.731   0.034 -0.1250 -0.4346 -1.1220
15124WAT    EPW62303   4.767   4.661   0.086  0.2937 -0.1202 -0.6639
15125WAT      O62304   1.573   3.013   7.649 -0.0686 -0.1407  0.1025
15125WAT     H162305   1.586   2.933   7.599 -0.9889  0.0093 -0.4002
15125WAT     H262306   1.660   3.055   7.651  0.2372 -0.7406 -0.3264
15125WAT    EPW62307   1.586   3.008   7.643 -0.1497 -0.2000 -0.0205
15126WAT      O62308  -5.095   3.344   8.349  0.4904  0.6996 -0.7019
15126WAT     H162309  -5.017   3.320   8.398 -0.1608 -0.7476 -0.3190
15126WAT     H262310  -5.092   3.289   8.271 -0.9310 -0.6016  0.0955
15126WAT    EPW62311  -5.085   3.334   8.345  0.2172  0.3370 -0.5465
15127WAT      O62312  -1.439   9.066   0.749  0.3056  0.5528  0.9965
15127WAT     H162313  -1.388   9.134   0.704  1.2168  0.0739  1.2799
15127WAT     H262314  -1.448   8.996   0.684 -0.9465  1.0749  0.5822
15127WAT    EPW62315  -1.433   9.066   0.734  0.2606  0.5584  0.9792
15128WAT      O62316   8.672   0.070   2.349  0.5758  0.9868 -0.5432
15128WAT     H162317   8.768   0.065   2.342  0.6185  0.6292  0.2066
15128WAT     H262318   8.647   0.141   2.289  1.3362  1.3170 -0.4794
15128WAT    EPW62319   8.682   0.078   2.340  0.6814  0.9832 -0.4358
15129WAT      O62320   0.630   0.347   6.107 -0.2646 -0.3679  0.3458
15129WAT     H162321   0.622   0.353   6.012 -0.4516  0.0632  0.3877
15129WAT     H262322   0.721   0.319   6.122 -0.5012 -1.3579  0.0137
15129WAT    EPW62323   0.641   0.344   6.097 -0.3204 -0.4416  0.3076
15130WAT      O62324  -2.486   9.587   8.719  0.0721  0.3443 -0.5140
15130WAT     H162325  -2.568   9.555   8.757  0.8901 -2.9286 -1.2173
15130WAT     H262326  -2.426   9.592   8.794 -0.5090  2.1546 -0.1058
15130WAT    EPW62327  -2.489   9.583   8.734  0.1034  0.1516 -0.5527
15131WAT      O62328   1.046   3.793   3.826 -0.9527 -0.2307 -0.8046
15131WAT     H162329   1.041   3.784   3.921 -0.7295 -4.3576 -0.9849
15131WAT     H262330   1.139   3.803   3.807 -1.0505  1.2248 -0.6237
15131WAT    EPW62331   1.058   3.793   3.836 -0.9362 -0.5831 -0.8045
15132WAT      O62332   9.463   1.088   1.409  0.1592 -0.2782 -0.0825
15132WAT     H162333   9.457   1.133   1.325 -2.1454 -1.1769 -0.4663
15132WAT     H262334   9.473   0.996   1.387  2.0681 -0.3267  0.6998
15132WAT    EPW62335   9.464   1.082   1.395  0.1068 -0.4032 -0.0299
15133WAT      O62336  -2.005   7.312   8.042 -0.0430  0.7123  0.1501
15133WAT     H162337  -1.938   7.371   8.077  0.9089 -0.4208  0.2964
15133WAT     H262338  -1.960   7.261   7.975 -1.1620  0.9511 -0.8236
15133WAT    EPW62339  -1.990   7.313   8.038 -0.0649  0.5941  0.0410
15134WAT      O62340  -0.248   7.283   4.360 -0.3731 -0.4517 -0.1326
15134WAT     H162341  -0.332   7.319   4.331  0.4678  1.7764  0.0192
15134WAT     H262342  -0.262   7.261   4.453 -1.3835 -2.2004 -0.6493
15134WAT    EPW62343  -0.261   7.285   4.369 -0.3954 -0.3886 -0.1807
15135WAT      O62344   1.570   3.411   6.662 -0.4522  0.2247 -0.6376
15135WAT     H162345   1.577   3.506   6.661 -0.4013  0.2277 -0.1959
15135WAT     H262346   1.660   3.380   6.663 -0.4203  0.2198  1.8651
15135WAT    EPW62347   1.582   3.419   6.662 -0.4413  0.2246 -0.2494
15136WAT      O62348   6.491   4.723   1.220 -0.0360 -0.0416  0.7710
15136WAT     H162349   6.468   4.748   1.309 -0.8342 -1.7625  1.0794
15136WAT     H262350   6.531   4.636   1.229  0.3618 -0.0075 -0.4950
15136WAT    EPW62351   6.493   4.715   1.233 -0.0887 -0.2642  0.6447
15137WAT      O62352  -3.228   8.514   2.283 -0.7459 -0.0483 -0.2896
15137WAT     H162353  -3.138   8.536   2.306 -0.1134 -0.9040 -1.7922
15137WAT     H262354  -3.230   8.418   2.283 -1.8997 -0.0555  0.5067
15137WAT    EPW62355  -3.216   8.504   2.286 -0.8146 -0.1616 -0.3828
15138WAT      O62356   1.942   7.333   7.273  0.0693  0.2714 -0.6275
15138WAT     H162357   1.881   7.302   7.339 -0.8035  2.1510 -0.4770
15138WAT     H262358   2.026   7.341   7.319  0.3343 -1.7958 -0.6965
15138WAT    EPW62359   1.945   7.330   7.288 -0.0109  0.2465 -0.6168
15139WAT      O62360  -1.518   9.712   5.915 -0.0606 -0.0739 -0.2683
15139WAT     H162361  -1.454   9.664   5.863  0.2971  0.4778 -0.3472
15139WAT     H262362  -1.590   9.731   5.854 -0.9962 -1.9655  0.1813
15139WAT    EPW62363  -1.519   9.709   5.900 -0.1368 -0.2503 -0.2196
15140WAT      O62364  -1.311   4.171   8.912  0.3973  0.5614  0.0736
15140WAT     H162365  -1.366   4.093   8.909  0.0088  0.8114  0.5291
15140WAT     H262366  -1.329   4.218   8.830 -0.2946  0.7898  0.3503
15140WAT    EPW62367  -1.321   4.167   8.901  0.2548  0.6247  0.1698
15141WAT      O62368   3.174   6.454   0.610 -0.2837  0.0672  0.5769
15141WAT     H162369   3.079   6.446   0.611 -0.4526  0.8462 -2.0269
15141WAT     H262370   3.191   6.545   0.637 -0.2850  0.0054  0.7884
15141WAT    EPW62371   3.164   6.465   0.614 -0.3061  0.1619  0.2614
15142WAT      O62372  -1.466   8.087   4.465  0.4663  0.4993 -0.0461
15142WAT     H162373  -1.437   8.162   4.413 -0.8491  1.3917  0.4717
15142WAT     H262374  -1.415   8.013   4.430  1.0622  1.4386 -1.2359
15142WAT    EPW62375  -1.455   8.087   4.453  0.3713  0.7410 -0.1347
15143WAT      O62376   1.946  10.191   5.825 -0.0643 -0.0292  0.8109
15143WAT     H162377   1.920  10.193   5.733  1.7795  0.9526  0.2505
15143WAT     H262378   1.869  10.160   5.871 -1.4438  0.6404 -0.9291
15143WAT    EPW62379   1.933  10.187   5.819 -0.0031  0.1888  0.5074
15144WAT      O62380  -1.493   7.991   2.512 -0.2328  0.1940  0.4346
15144WAT     H162381  -1.577   7.960   2.480  0.0651  1.0399 -1.2798
15144WAT     H262382  -1.498   7.981   2.607 -2.0604 -0.2348  0.3232
15144WAT    EPW62383  -1.505   7.985   2.520 -0.4346  0.2489  0.1938
15145WAT      O62384  -0.052   9.069   4.353  0.2069 -0.1197  0.0018
15145WAT     H162385   0.029   9.074   4.403  0.0362  1.4010  0.1801
15145WAT     H262386  -0.117   9.033   4.414  0.1942  0.9487  0.6298
15145WAT    EPW62387  -0.050   9.065   4.367  0.1827  0.2217  0.1080
15146WAT      O62388   0.643   8.146   3.735 -0.2408 -0.2224 -0.0898
15146WAT     H162389   0.576   8.145   3.667 -2.4665 -0.6439  1.9888
15146WAT     H262390   0.666   8.055   3.748 -1.7448 -0.4438  1.4126
15146WAT    EPW62391   0.637   8.134   3.728 -0.7327 -0.3071  0.3825
15147WAT      O62392  -0.378   9.004   1.382  0.1923  0.4290  0.1047
15147WAT     H162393  -0.349   8.975   1.295  1.7832 -2.4977  1.4917
15147WAT     H262394  -0.304   9.052   1.418 -0.6101  1.9938 -0.2273
15147WAT    EPW62395  -0.365   9.007   1.375  0.2963  0.2499  0.2439
15148WAT      O62396   8.083   2.639   1.599 -0.2341  0.4003  0.1016
15148WAT     H162397   8.050   2.659   1.511  0.3693  0.8187 -0.0355
15148WAT     H262398   8.019   2.576   1.635  0.1047 -0.6472 -1.0551
15148WAT    EPW62399   8.070   2.633   1.592 -0.1097  0.3173 -0.0691
15149WAT      O62400   0.782   8.050   2.299 -0.3243 -0.0304  0.7786
15149WAT     H162401   0.852   7.991   2.330 -0.7031  0.0419  1.7901
15149WAT     H262402   0.822   8.137   2.299  0.1139 -0.2144 -0.3370
15149WAT    EPW62403   0.797   8.053   2.303 -0.3165 -0.0453  0.7650
15150WAT      O62404   4.533   3.882   3.406  0.1262  0.4229  0.1051
15150WAT     H162405   4.610   3.897   3.352 -0.0056  1.2689  0.1407
15150WAT     H262406   4.542   3.945   3.478 -0.8033  0.8097 -0.1088
15150WAT    EPW62407   4.544   3.893   3.409 -0.0136  0.5854  0.0815
15151WAT      O62408   0.414   3.289   5.184  1.0866 -0.1556 -0.0498
15151WAT     H162409   0.402   3.358   5.119  1.5496  0.4061  0.4588
15151WAT     H262410   0.398   3.208   5.135 -0.1219  0.3294 -0.4988
15151WAT    EPW62411   0.410   3.287   5.169  0.9883 -0.0175 -0.0420
15152WAT      O62412   5.264   2.337   7.391  0.8626  0.0863 -0.1995
15152WAT     H162413   5.202   2.295   7.331  1.8467 -0.0315 -1.1910
15152WAT     H262414   5.214   2.406   7.433 -0.8184 -2.0135  1.4936
15152WAT    EPW62415   5.250   2.340   7.388  0.7706 -0.2062 -0.1068
15153WAT      O62416  -0.578   8.661   5.873  0.4693  0.1122  0.0984
15153WAT     H162417  -0.559   8.616   5.791  1.6930  1.9116 -0.6565
15153WAT     H262418  -0.660   8.622   5.903  0.5291 -1.2928 -1.4395
15153WAT    EPW62419  -0.586   8.650   5.866  0.6386  0.1645 -0.2038
15154WAT      O62420   6.008   6.910   2.841  0.0160 -0.4532  0.2501
15154WAT     H162421   6.003   6.918   2.746  2.6956  1.6953  0.1900
15154WAT     H262422   5.917   6.920   2.871 -0.7913 -0.4945 -2.0095
15154WAT    EPW62423   5.995   6.912   2.833  0.2630 -0.1750 -0.0559
15155WAT      O62424  -0.701   4.519   5.590  0.0896 -0.2676 -0.1120
15155WAT     H162425  -0.753   4.545   5.666  0.5453 -0.8993  0.4270
15155WAT     H262426  -0.653   4.442   5.619 -0.5587 -1.1931 -1.3789
15155WAT    EPW62427  -0.701   4.512   5.604  0.0642 -0.4730 -0.2081
15156WAT      O62428   0.985   9.944   6.047  0.9727 -0.4380  0.1953
15156WAT     H162429   0.988  10.038   6.026  1.1629 -0.7162 -1.0655
15156WAT     H262430   0.892   9.926   6.061  0.8356 -0.2329 -0.4091
15156WAT    EPW62431   0.973   9.954   6.046  0.9797 -0.4478 -0.0505
15157WAT      O62432   2.160   4.588   2.369  0.5588 -0.2111  0.3103
15157WAT     H162433   2.117   4.528   2.430  0.6008  1.7374  2.3826
15157WAT     H262434   2.097   4.659   2.355  1.7079  0.9191  0.5890
15157WAT    EPW62435   2.146   4.590   2.375  0.7159  0.1948  0.6204
15158WAT      O62436   4.870  10.280   0.303  0.4323  0.3231  0.4596
15158WAT     H162437   4.845  10.283   0.396  1.0353  0.3030  0.6239
15158WAT     H262438   4.800  10.328   0.259 -0.0058  0.0897  0.8928
15158WAT    EPW62439   4.857  10.287   0.309  0.4539  0.2899  0.5384
15159WAT      O62440   6.834   7.070   0.819 -0.1105  0.2922  0.1003
15159WAT     H162441   6.839   7.165   0.825 -0.2774  0.3194 -0.1726
15159WAT     H262442   6.791   7.054   0.735  0.2316 -0.0275 -0.0159
15159WAT    EPW62443   6.829   7.080   0.809 -0.0875  0.2537  0.0490
15160WAT      O62444  -0.531   5.607   8.645  0.2716  0.6350 -0.2302
15160WAT     H162445  -0.618   5.582   8.614 -0.0716  1.9652 -0.4142
15160WAT     H262446  -0.518   5.553   8.723 -1.3150  1.3652  0.5974
15160WAT    EPW62447  -0.541   5.597   8.651  0.0170  0.9067 -0.1450
15161WAT      O62448  -2.869   5.919   8.490  0.3054 -0.0043 -0.7947
15161WAT     H162449  -2.930   5.875   8.431 -1.1787 -0.5956  1.0525
15161WAT     H262450  -2.893   6.012   8.486 -0.6147 -0.2037 -0.2566
15161WAT    EPW62451  -2.880   5.925   8.482 -0.0118 -0.1087 -0.4797
15162WAT      O62452   4.125   6.142   0.284 -0.4983  0.0161 -0.3983
15162WAT     H162453   4.087   6.056   0.302  0.9726 -0.3566  1.1387
15162WAT     H262454   4.121   6.188   0.368 -0.3385  1.0830 -0.9611
15162WAT    EPW62455   4.120   6.137   0.298 -0.2832  0.1075 -0.2698
15163WAT      O62456   3.541   4.575   1.523  0.3502  0.1343  0.6984
15163WAT     H162457   3.460   4.535   1.554  0.7216 -0.3139  1.1150
15163WAT     H262458   3.521   4.668   1.518  0.2668  0.2331  2.3221
15163WAT    EPW62459   3.528   4.582   1.526  0.3883  0.0882  0.9676
15164WAT      O62460   3.157   8.520   6.434 -0.8961 -0.4244  0.4146
15164WAT     H162461   3.244   8.538   6.470  0.6172 -0.6567 -2.7832
15164WAT     H262462   3.163   8.430   6.401 -1.3309  0.4250 -2.2535
15164WAT    EPW62463   3.169   8.511   6.434 -0.7539 -0.3428 -0.3591
15165WAT      O62464   2.576   4.404   2.479  0.3079  0.5488 -0.0758
15165WAT     H162465   2.492   4.371   2.447 -0.3134  0.9692  1.0535
15165WAT     H262466   2.641   4.358   2.427 -0.6303  1.6480 -2.3490
15165WAT    EPW62467   2.573   4.393   2.468  0.1022  0.7493 -0.2266
15166WAT      O62468   1.040   8.998   7.953 -0.0329  0.0439 -0.0594
15166WAT     H162469   1.099   9.060   7.995  1.7661 -1.1109 -0.7658
15166WAT     H262470   1.039   9.024   7.861 -0.1312 -0.3149 -0.1617
15166WAT    EPW62471   1.047   9.010   7.946  0.1914 -0.1554 -0.1659
15167WAT      O62472   4.135   9.726   3.940  0.0575  0.5672  0.7290
15167WAT     H162473   4.224   9.700   3.966  0.0522 -0.1541  0.0505
15167WAT     H262474   4.140   9.737   3.845 -0.3825  1.3532  0.7865
15167WAT    EPW62475   4.148   9.724   3.931 -0.0012  0.5755  0.6471
15168WAT      O62476   1.819   0.194   8.338 -0.0029  0.1662 -0.0105
15168WAT     H162477   1.815   0.269   8.397  1.4753 -0.3510  0.8263
15168WAT     H262478   1.815   0.232   8.251  2.4257  1.4628  0.3343
15168WAT    EPW62479   1.818   0.209   8.335  0.5124  0.2690  0.1454
15169WAT      O62480  -1.547   1.869   5.850  0.0225  0.2399  0.0444
15169WAT     H162481  -1.503   1.952   5.834 -0.0899 -0.1471 -2.6703
15169WAT     H262482  -1.503   1.834   5.928  2.0624  1.5138 -0.4617
15169WAT    EPW62483  -1.535   1.875   5.858  0.2767  0.3569 -0.3805
15170WAT      O62484  -1.193   7.463   2.717 -0.3496  0.1194  0.0495
15170WAT     H162485  -1.271   7.437   2.668  1.4322 -1.3233 -2.1904
15170WAT     H262486  -1.146   7.381   2.732  1.6820  1.1480 -0.3758
15170WAT    EPW62487  -1.197   7.449   2.713  0.1534  0.0648 -0.3021
15171WAT      O62488   7.007   3.741   1.213  0.5068 -0.0829  0.2719
15171WAT     H162489   6.984   3.651   1.192 -0.0735  0.6353 -2.6403
15171WAT     H262490   7.085   3.734   1.268  0.4115 -2.3550  0.1927
15171WAT    EPW62491   7.015   3.728   1.217  0.4175 -0.2878 -0.1227
15172WAT      O62492  -5.317  10.261   3.408  0.2573 -0.1796  0.0236
15172WAT     H162493  -5.340  10.259   3.315  0.7637 -1.2389 -0.0949
15172WAT     H262494  -5.233  10.308   3.410  0.3371 -0.3155 -0.0793
15172WAT    EPW62495  -5.309  10.267   3.396  0.3345 -0.3366 -0.0056
15173WAT      O62496   2.900   3.832   2.053 -0.4285 -0.0952  0.3327
15173WAT     H162497   2.969   3.881   2.097  0.1311  1.0984 -1.7399
15173WAT     H262498   2.906   3.744   2.091  1.0765  0.4261  1.4307
15173WAT    EPW62499   2.910   3.827   2.064 -0.1563  0.1309  0.2042
15174WAT      O62500  -2.181   0.190   3.668 -0.2556 -0.1627  0.0718
15174WAT     H162501  -2.122   0.263   3.684  0.4097 -0.9564  1.4269
15174WAT     H262502  -2.224   0.211   3.585  0.7338  1.2106 -0.1190
15174WAT    EPW62503  -2.179   0.202   3.659 -0.0373 -0.0863  0.2254
15175WAT      O62504  -0.929   3.378   7.829  0.1422  0.4440 -0.2185
15175WAT     H162505  -0.961   3.462   7.797  2.5194  0.9361 -1.5494
15175WAT     H262506  -0.965   3.314   7.768  0.4318  0.7977 -0.7658
15175WAT    EPW62507  -0.938   3.380   7.817  0.4939  0.5555 -0.4661
15176WAT      O62508  -3.183   4.898   5.445  0.1874  0.2872 -0.0437
15176WAT     H162509  -3.238   4.956   5.496  0.4453  1.9788 -1.6058
15176WAT     H262510  -3.093   4.926   5.464  0.4033 -0.6597  0.4023
15176WAT    EPW62511  -3.178   4.909   5.454  0.2499  0.3853 -0.1910
15177WAT      O62512   4.911   6.740   4.159 -0.0386  0.5779  0.2253
15177WAT     H162513   4.843   6.702   4.214  0.2094  0.5959  0.5487
15177WAT     H262514   4.993   6.704   4.194  0.1628  1.0224  0.2212
15177WAT    EPW62515   4.913   6.730   4.171  0.0205  0.6390  0.2670
15178WAT      O62516  -0.010   7.429   4.279 -0.3310  0.2641  0.0415
15178WAT     H162517  -0.065   7.464   4.209 -1.4475 -2.2943 -0.4731
15178WAT     H262518  -0.065   7.363   4.322  0.8431  0.7116  2.3897
15178WAT    EPW62519  -0.024   7.425   4.276 -0.3234 -0.0143  0.2832
15179WAT      O62520  -1.197   3.644   3.298 -0.1186  0.1144  0.4688
15179WAT     H162521  -1.162   3.713   3.354  0.2954 -0.3687  0.8241
15179WAT     H262522  -1.236   3.690   3.224 -0.9471  0.7846  1.2990
15179WAT    EPW62523  -1.198   3.659   3.295 -0.1733  0.1391  0.6251
15180WAT      O62524   3.443   1.290   0.654  0.5156 -0.7405 -0.2617
15180WAT     H162525   3.506   1.276   0.583  0.9461 -1.3108  0.2141
15180WAT     H262526   3.492   1.342   0.718 -0.2380  0.7880 -0.8650
15180WAT    EPW62527   3.458   1.295   0.653  0.4730 -0.6142 -0.2785
15181WAT      O62528  -2.549   8.984   3.145 -0.1837 -0.1885  0.5210
15181WAT     H162529  -2.494   9.061   3.161  0.6659 -0.7678  0.4818
15181WAT     H262530  -2.527   8.924   3.216 -0.4665 -0.5864  0.2769
15181WAT    EPW62531  -2.539   8.986   3.156 -0.1090 -0.3171  0.4835
15182WAT      O62532  -1.736   4.884   1.149  0.0594 -0.1945 -0.0630
15182WAT     H162533  -1.699   4.828   1.218  0.1421 -1.1246 -0.8420
15182WAT     H262534  -1.747   4.969   1.191 -2.0290 -1.2701  1.7960
15182WAT    EPW62535  -1.732   4.888   1.164 -0.2052 -0.4590  0.0795
15183WAT      O62536   7.800   1.221   2.404 -0.3535  0.5707 -0.0911
15183WAT     H162537   7.743   1.173   2.464  0.3330  0.6440  0.6402
15183WAT     H262538   7.827   1.298   2.454  2.1540 -0.5571  0.4358
15183WAT    EPW62539   7.796   1.225   2.419  0.0677  0.4316  0.0749
15184WAT      O62540  -2.082   1.739   6.226  0.7258  0.3072  0.1444
15184WAT     H162541  -1.999   1.693   6.214  0.9445  0.7138  0.0694
15184WAT     H262542  -2.119   1.700   6.305 -0.9692 -2.7535 -1.9873
15184WAT    EPW62543  -2.076   1.728   6.235  0.5311 -0.0429 -0.1466
15185WAT      O62544   4.126   2.095   5.947  0.2527 -0.5888 -0.1078
15185WAT     H162545   4.045   2.051   5.976  0.5944 -1.3090 -0.2176
15185WAT     H262546   4.099   2.185   5.928 -0.8090 -1.1416 -1.3692
15185WAT    EPW62547   4.111   2.101   5.948  0.1574 -0.7567 -0.2887
15186WAT      O62548  -5.272   9.868   3.257  0.3242  0.1827  0.1022
15186WAT     H162549  -5.234   9.856   3.344 -1.7018  3.7011  1.7341
15186WAT     H262550  -5.359   9.830   3.263 -0.3458  1.6388  0.1731
15186WAT    EPW62551  -5.278   9.862   3.269 -0.0315  0.8388  0.3269
15187WAT      O62552   0.939   2.736   0.598 -0.1501 -0.4850 -0.0251
15187WAT     H162553   1.009   2.716   0.535  1.3363  2.3241  0.5375
15187WAT     H262554   0.909   2.651   0.629  2.6828 -1.8594 -0.7186
15187WAT    EPW62555   0.945   2.722   0.594  0.4196 -0.2956 -0.0424
15188WAT      O62556  -0.651   7.370   5.037  0.2148 -0.4101  0.1360
15188WAT     H162557  -0.714   7.298   5.030  0.2285 -0.2735 -2.0499
15188WAT     H262558  -0.699   7.447   5.005  0.7168  0.2253  0.8806
15188WAT    EPW62559  -0.666   7.371   5.032  0.2828 -0.3083 -0.0539
15189WAT      O62560   1.495   1.457   3.788  0.2184  0.1133 -0.4997
15189WAT     H162561   1.560   1.438   3.720  0.1000 -1.1274 -0.2825
15189WAT     H262562   1.446   1.375   3.798  0.3579  0.1985  1.2143
15189WAT    EPW62563   1.497   1.444   3.781  0.2212 -0.0391 -0.2450
15190WAT      O62564  -2.349   0.094   8.345 -0.2121 -0.9328 -0.4021
15190WAT     H162565  -2.325   0.003   8.366 -1.0216 -0.9801  0.3675
15190WAT     H262566  -2.429   0.087   8.294 -0.7195 -0.6326  0.3337
15190WAT    EPW62567  -2.356   0.081   8.341 -0.3858 -0.8994 -0.2036
15191WAT      O62568   2.410   4.068   2.607  0.3644 -0.3452  0.0985
15191WAT     H162569   2.493   4.116   2.609  1.2687 -1.8536  2.4529
15191WAT     H262570   2.345   4.132   2.635  1.6464 -0.4547  3.8471
15191WAT    EPW62571   2.413   4.083   2.611  0.6528 -0.5586  0.9035
15192WAT      O62572   3.473   7.758   0.199  0.0065 -0.3042 -0.4229
15192WAT     H162573   3.567   7.746   0.214 -0.5051 -1.4093  2.6434
15192WAT     H262574   3.452   7.839   0.244 -0.4597  0.1656 -1.4691
15192WAT    EPW62575   3.483   7.767   0.207 -0.1223 -0.3881 -0.1564
15193WAT      O62576   4.310   4.284   5.975 -0.0259  0.3485 -0.6329
15193WAT     H162577   4.234   4.263   6.028  1.2279 -1.1216  0.6880
15193WAT     H262578   4.333   4.374   6.000  0.2080 -0.1261  0.9638
15193WAT    EPW62579   4.303   4.293   5.985  0.1702  0.0920 -0.2482
15194WAT      O62580   1.462   2.884   8.392  0.2669  0.2416 -0.3998
15194WAT     H162581   1.442   2.857   8.302 -0.5378 -0.1213 -0.1266
15194WAT     H262582   1.417   2.819   8.447 -1.1175  1.6922  0.2751
15194WAT    EPW62583   1.453   2.872   8.387 -0.0219  0.3850 -0.2747
15195WAT      O62584   0.259   4.128   2.556  0.8320 -0.1587  0.4583
15195WAT     H162585   0.174   4.086   2.543  0.0197  0.3781  3.4103
15195WAT     H262586   0.301   4.077   2.625  3.2315 -0.7430 -1.2933
15195WAT    EPW62587   0.253   4.116   2.563  1.0413 -0.1650  0.6167
15196WAT      O62588   7.158   7.398   1.126  0.5415  0.3196  0.3618
15196WAT     H162589   7.189   7.431   1.042  1.1415 -1.4980 -0.1819
15196WAT     H262590   7.074   7.357   1.106 -1.5298  3.6256  1.5039
15196WAT    EPW62591   7.151   7.397   1.112  0.3476  0.5159  0.4407
15197WAT      O62592  -2.832   8.981   0.745 -0.4855 -0.2322 -0.5274
15197WAT     H162593  -2.740   8.957   0.758 -0.1541  1.6125  0.8999
15197WAT     H262594  -2.881   8.910   0.787  0.3693 -0.0116  0.9299
15197WAT    EPW62595  -2.826   8.969   0.752 -0.3291  0.0405 -0.1469
15198WAT      O62596   0.151   1.747   0.703 -0.5238 -0.1408 -0.0174
15198WAT     H162597   0.172   1.832   0.742 -0.2379 -0.5892  0.8310
15198WAT     H262598   0.063   1.727   0.734 -1.0363  0.3463 -1.1199
15198WAT    EPW62599   0.142   1.756   0.712 -0.5537 -0.1358 -0.0509
15199WAT      O62600   0.898   0.806   4.356 -0.1783  0.6078 -0.1444
15199WAT     H162601   0.803   0.790   4.357 -0.7804  3.4476  2.2463
15199WAT     H262602   0.935   0.731   4.403 -1.4775  0.3335  0.5032
15199WAT    EPW62603   0.890   0.794   4.363 -0.4291  0.9462  0.2563
15200WAT      O62604  -3.822   5.999   8.052 -0.0167  0.2024 -0.6866
15200WAT     H162605  -3.801   6.088   8.081  0.1110 -0.1694  0.4004
15200WAT     H262606  -3.864   5.959   8.127  1.4587 -1.1961 -0.5581
15200WAT    EPW62607  -3.825   6.006   8.065  0.1947 -0.0310 -0.5264
15201WAT      O62608  -0.199   2.058   5.592 -0.7368 -0.5571  0.5467
15201WAT     H162609  -0.223   2.093   5.506 -0.5640 -0.7410  0.4224
15201WAT     H262610  -0.278   2.067   5.645 -1.2187 -1.5561  0.0120
15201WAT    EPW62611  -0.213   2.064   5.588 -0.7776 -0.7132  0.4597
15202WAT      O62612  -4.554   6.731   4.334 -0.3102  0.0822  0.5639
15202WAT     H162613  -4.486   6.792   4.363 -2.0601  1.8634  1.1611
15202WAT     H262614  -4.534   6.715   4.242  2.0419 -1.0952  1.2027
15202WAT    EPW62615  -4.542   6.737   4.326 -0.2308  0.1619  0.7269
15203WAT      O62616   8.409   4.611   1.458 -0.2447  0.4373 -0.4133
15203WAT     H162617   8.430   4.704   1.463  1.3568  0.0323  1.8520
15203WAT     H262618   8.328   4.607   1.408 -1.9619  3.3537  1.8302
15203WAT    EPW62619   8.401   4.622   1.452 -0.2599  0.7687  0.1814
15204WAT      O62620   5.279   0.466   0.108  0.3652  0.5875  0.4439
15204WAT     H162621   5.253   0.509   0.027 -1.1975  0.5770  0.8931
15204WAT     H262622   5.321   0.535   0.160 -0.6496  1.1804  0.5059
15204WAT    EPW62623   5.281   0.481   0.105  0.0253  0.6643  0.5113
15205WAT      O62624  -0.371   2.332   8.647 -0.0238  0.5082  0.1021
15205WAT     H162625  -0.396   2.282   8.725 -1.3931 -0.4024 -0.8696
15205WAT     H262626  -0.380   2.423   8.674  1.4586  0.2675  1.5735
15205WAT    EPW62627  -0.376   2.337   8.661 -0.0089  0.3563  0.1678
15206WAT      O62628   1.904   7.562   3.625 -0.2722 -0.5386  0.0445
15206WAT     H162629   1.889   7.469   3.614  2.1245 -0.7990 -1.5535
15206WAT     H262630   1.844   7.604   3.563  0.7799 -1.1868 -1.4408
15206WAT    EPW62631   1.894   7.556   3.616  0.1827 -0.6583 -0.3622
15207WAT      O62632  -1.961   5.731   4.054  0.1660 -0.3804  0.2600
15207WAT     H162633  -1.912   5.650   4.065  1.0054  0.2142  1.0361
15207WAT     H262634  -2.034   5.707   3.996 -0.4101 -2.0207  1.5858
15207WAT    EPW62635  -1.964   5.717   4.048  0.2007 -0.5181  0.5372
15208WAT      O62636   1.121   3.806   4.416  0.0956  0.1279  0.5553
15208WAT     H162637   1.213   3.781   4.415  0.0084 -0.2045  0.4414
15208WAT     H262638   1.109   3.853   4.498 -0.0119 -1.3291  1.4142
15208WAT    EPW62639   1.131   3.809   4.426  0.0699 -0.1080  0.6537
15209WAT      O62640   6.465   0.611   3.373 -0.5009  0.2028 -0.2802
15209WAT     H162641   6.392   0.572   3.421 -2.8747  1.8143 -2.2995
15209WAT     H262642   6.459   0.571   3.286  0.0752  1.4631 -0.9088
15209WAT    EPW62643   6.454   0.600   3.368 -0.7379  0.5816 -0.6293
15210WAT      O62644   4.806   8.071   0.329 -0.1351 -0.0157  0.0517
15210WAT     H162645   4.866   8.029   0.268  0.0563  1.6269 -0.9630
15210WAT     H262646   4.736   8.007   0.342  0.4680 -0.8970 -0.8914
15210WAT    EPW62647   4.805   8.057   0.323 -0.0303  0.0849 -0.2065
15211WAT      O62648  -3.700   1.446   8.120 -0.1598  0.0692 -0.5741
15211WAT     H162649  -3.748   1.511   8.068 -1.7584  0.2871  1.0644
15211WAT     H262650  -3.648   1.498   8.182  0.7501 -0.1973 -1.0999
15211WAT    EPW62651  -3.699   1.461   8.122 -0.2505  0.0628 -0.4272
15212WAT      O62652   2.817   2.338   5.598  0.3633 -0.4004 -0.5599
15212WAT     H162653   2.860   2.421   5.578  1.2614 -0.8114 -0.3822
15212WAT     H262654   2.726   2.351   5.570  0.9683 -0.0796 -2.5784
15212WAT    EPW62655   2.811   2.351   5.591  0.5615 -0.4122 -0.8028
15213WAT      O62656  -5.771   7.525   6.778  0.1316 -0.0862 -0.1234
15213WAT     H162657  -5.728   7.610   6.790 -0.8556  0.3695  0.3509
15213WAT     H262658  -5.794   7.497   6.866  3.7382 -2.7081  0.2018
15213WAT    EPW62659  -5.768   7.533   6.791  0.4773 -0.3717 -0.0179
15214WAT      O62660   0.629   8.900   3.838 -0.6390 -0.2949 -0.7103
15214WAT     H162661   0.588   8.975   3.796  0.6077  0.3525 -0.8313
15214WAT     H262662   0.707   8.883   3.786 -0.3332 -0.9878 -0.0508
15214WAT    EPW62663   0.634   8.908   3.826 -0.4342 -0.3014 -0.6393
15215WAT      O62664  -4.572   9.398   6.876  0.6010  0.5854  0.3977
15215WAT     H162665  -4.633   9.354   6.935  0.4822 -1.5236 -1.1837
15215WAT     H262666  -4.623   9.412   6.796  1.7327  0.1774 -0.4155
15215WAT    EPW62667  -4.587   9.394   6.873  0.7346  0.2532  0.0820
15216WAT      O62668   3.896   1.429   1.282 -0.3834  0.1273  0.2093
15216WAT     H162669   3.888   1.501   1.344  1.1625  1.6142 -1.1936
15216WAT     H262670   3.818   1.437   1.227 -0.1870  0.8392  0.0108
15216WAT    EPW62671   3.885   1.440   1.283 -0.1537  0.4173 -0.0018
15217WAT      O62672   3.181   7.945   7.026 -0.2051  0.9377 -0.4285
15217WAT     H162673   3.165   8.017   7.087  2.2106  2.1980 -1.1547
15217WAT     H262674   3.224   7.986   6.951 -0.3165 -1.0254 -1.6454
15217WAT    EPW62675   3.185   7.960   7.024  0.0988  0.8450 -0.6847
15218WAT      O62676  -0.203   4.616   2.037 -0.3696 -0.0876 -0.4903
15218WAT     H162677  -0.255   4.640   1.960 -0.6241 -1.0692 -0.6389
15218WAT     H262678  -0.244   4.536   2.069 -1.6911  1.5059  2.0682
15218WAT    EPW62679  -0.215   4.609   2.031 -0.5775 -0.0072 -0.1725
15219WAT      O62680   0.230   0.456   6.970 -0.1247  0.7220  0.2207
15219WAT     H162681   0.203   0.398   6.899 -1.0527 -1.7620  2.4475
15219WAT     H262682   0.294   0.515   6.929 -0.1029 -0.9919 -2.4949
15219WAT    EPW62683   0.235   0.456   6.955 -0.2442  0.1683  0.1562
15220WAT      O62684   5.056   9.295   0.792 -0.2908  0.8417  0.8159
15220WAT     H162685   5.074   9.280   0.700  1.0068 -0.5277  1.2524
15220WAT     H262686   5.136   9.335   0.826  0.6766 -1.8601  2.0236
15220WAT    EPW62687   5.069   9.299   0.784  0.0079  0.3047  1.0328
15221WAT      O62688   0.883   4.740   7.836 -0.2859 -0.5427  0.9202
15221WAT     H162689   0.815   4.672   7.831 -1.9776  1.1341 -0.4004
15221WAT     H262690   0.852   4.800   7.903 -0.0178  0.1500  0.4289
15221WAT    EPW62691   0.870   4.739   7.844 -0.4737 -0.2303  0.6812
15222WAT      O62692  -0.646   5.442   2.055  0.4077 -0.4516 -0.2798
15222WAT     H162693  -0.638   5.516   1.995 -0.9202  1.0535  1.3251
15222WAT     H262694  -0.692   5.376   2.003  0.6201  0.2285 -1.3855
15222WAT    EPW62695  -0.651   5.443   2.040  0.2606 -0.1633 -0.2140
15223WAT      O62696   0.562   5.384   2.965 -0.1106  0.0587  0.5478
15223WAT     H162697   0.610   5.440   3.026  0.5222  1.1878 -0.9157
15223WAT     H262698   0.570   5.296   3.001  2.6317  0.2818  0.6820
15223WAT    EPW62699   0.569   5.380   2.978  0.3346  0.2370  0.3725
15224WAT      O62700  -0.073   4.611   0.227 -0.2171  0.1119  0.0647
15224WAT     H162701  -0.068   4.534   0.171 -0.2703 -0.6334  1.0552
15224WAT     H262702  -0.153   4.656   0.199  0.8073  0.8683 -1.8120
15224WAT    EPW62703  -0.083   4.607   0.216 -0.0890  0.1132 -0.0522
15225WAT      O62704   1.086   8.097   4.680  0.1468  0.3111  0.2920
15225WAT     H162705   1.059   8.051   4.759  1.7244  0.1025  0.7402
15225WAT     H262706   1.085   8.189   4.705  0.5442  0.2526  0.5238
15225WAT    EPW62707   1.082   8.103   4.694  0.4073  0.2761  0.3817
15226WAT      O62708   0.156   9.365   2.145 -0.2128 -0.1238 -0.1097
15226WAT     H162709   0.204   9.352   2.227 -1.2687  1.1859  0.7800
15226WAT     H262710   0.100   9.288   2.137 -0.2516 -0.1698  0.5378
15226WAT    EPW62711   0.155   9.353   2.155 -0.3572  0.0429  0.0930
15227WAT      O62712   5.330   5.001   3.533 -0.0514 -0.1712 -0.7147
15227WAT     H162713   5.335   5.031   3.624 -0.6160 -0.1819 -0.6719
15227WAT     H262714   5.265   4.931   3.535  2.2669 -2.4616 -0.5605
15227WAT    EPW62715   5.322   4.996   3.546  0.1798 -0.4747 -0.6887
15228WAT      O62716  -0.932   2.364   4.260  0.9610  0.8076  0.2088
15228WAT     H162717  -0.911   2.273   4.285 -0.2475  0.7024  0.9256
15228WAT     H262718  -0.897   2.417   4.331  0.4858  0.7884  0.4588
15228WAT    EPW62719  -0.924   2.359   4.273  0.7389  0.7912  0.3364
15229WAT      O62720   2.325   7.686   8.734 -0.3554 -0.7192 -0.2175
15229WAT     H162721   2.323   7.591   8.740  0.8621 -0.8085 -0.9041
15229WAT     H262722   2.328   7.716   8.825  1.4947 -1.4328  0.0020
15229WAT    EPW62723   2.325   7.678   8.747  0.0492 -0.8252 -0.2789
15230WAT      O62724   5.024   1.710   5.374 -0.1895  0.0679  0.3949
15230WAT     H162725   5.086   1.637   5.385 -0.8220 -0.6624 -0.6494
15230WAT     H262726   5.063   1.782   5.422  0.1625 -1.1392  2.0091
15230WAT    EPW62727   5.037   1.710   5.381 -0.2267 -0.1876  0.4702
15231WAT      O62728  -5.521   7.331   8.767  0.2279  0.1319  0.8722
15231WAT     H162729  -5.564   7.416   8.775  0.9383  0.6720 -0.5641
15231WAT     H262730  -5.491   7.328   8.676  1.6324 -0.9726  1.3275
15231WAT    EPW62731  -5.522   7.342   8.756  0.5069  0.0575  0.7429
15232WAT      O62732  -5.068   1.416   8.117 -0.4034  0.3072  0.0175
15232WAT     H162733  -4.992   1.453   8.163 -0.5997  0.6839  0.0437
15232WAT     H262734  -5.126   1.386   8.186 -0.1546 -0.2491 -0.0050
15232WAT    EPW62735  -5.066   1.417   8.132 -0.3965  0.2835  0.0181
15233WAT      O62736   2.682   4.367   1.398 -0.1602  0.1366 -0.1702
15233WAT     H162737   2.601   4.364   1.450 -0.2355  0.3164 -0.2776
15233WAT     H262738   2.672   4.296   1.334 -0.6888  0.8114 -0.8516
15233WAT    EPW62739   2.670   4.357   1.397 -0.2398  0.2494 -0.2742
15234WAT      O62740  -0.093   8.039   0.782 -0.0093  0.3666 -0.4957
15234WAT     H162741  -0.124   7.950   0.771  1.0100 -0.0314 -0.2384
15234WAT     H262742  -0.072   8.046   0.875  1.6297  0.2955 -0.8455
15234WAT    EPW62743  -0.095   8.028   0.793  0.3413  0.3052 -0.5080
15235WAT      O62744   5.748   5.721   3.409 -0.2394 -0.3526  0.6420
15235WAT     H162745   5.720   5.775   3.483  0.9267 -1.2228  1.7513
15235WAT     H262746   5.672   5.666   3.390 -0.4654 -0.3040  1.3649
15235WAT    EPW62747   5.734   5.721   3.416 -0.1154 -0.4611  0.8837
15236WAT      O62748   0.481   6.873   3.044  0.7307 -0.1254  0.1273
15236WAT     H162749   0.522   6.805   2.991  1.3483 -0.6067  1.1912
15236WAT     H262750   0.419   6.916   2.985  1.2144 -0.8098 -0.8975
15236WAT    EPW62751   0.478   6.870   3.030  0.8760 -0.2792  0.1324
15237WAT      O62752   0.093   8.202   3.120 -0.4139 -0.4316 -0.6179
15237WAT     H162753   0.125   8.118   3.088  1.6118  0.0015  0.1758
15237WAT     H262754   0.142   8.218   3.201  1.0596  2.5881 -1.9474
15237WAT    EPW62755   0.103   8.193   3.126  0.0476  0.0238 -0.6886
15238WAT      O62756   0.114   2.719   2.374  0.0405 -0.0136  0.6061
15238WAT     H162757   0.065   2.638   2.386  0.1764 -0.6253 -2.2193
15238WAT     H262758   0.049   2.782   2.343  0.7333 -0.6334 -2.4635
15238WAT    EPW62759   0.099   2.716   2.372  0.1498 -0.1760 -0.1714
15239WAT      O62760   6.387   3.282   4.185  0.0646 -0.8599  0.0864
15239WAT     H162761   6.364   3.219   4.253  1.4939 -1.9699 -0.4083
15239WAT     H262762   6.480   3.298   4.198 -0.1091  0.6302 -0.2624
15239WAT    EPW62763   6.396   3.276   4.196  0.2303 -0.8099 -0.0250
15240WAT      O62764   0.748   1.961   7.375 -0.4043  0.0591 -0.0637
15240WAT     H162765   0.779   2.026   7.312 -2.1989 -0.4927 -1.5846
15240WAT     H262766   0.828   1.923   7.412  0.6770  1.5552 -0.7621
15240WAT    EPW62767   0.763   1.965   7.372 -0.4984  0.1836 -0.3567
15241WAT      O62768   1.905   4.651   3.347  0.2318  0.0561  0.0108
15241WAT     H162769   1.834   4.595   3.379 -1.0349  2.9593  2.8843
15241WAT     H262770   1.862   4.734   3.326  2.3233  0.7842 -1.7707
15241WAT    EPW62771   1.890   4.655   3.349  0.3406  0.5350  0.1549
15242WAT      O62772   1.010   1.687   7.958  0.0312  0.6559 -0.4694
15242WAT     H162773   1.089   1.633   7.950  2.4123  3.7641  0.1452
15242WAT     H262774   0.960   1.645   8.028  2.8594  0.3782  1.5523
15242WAT    EPW62775   1.014   1.674   7.966  0.7182  1.0293 -0.1218
15243WAT      O62776  -4.004   8.530   3.151 -0.2138 -0.6496 -0.4155
15243WAT     H162777  -3.967   8.552   3.236  0.9404  0.1649 -1.1111
15243WAT     H262778  -4.093   8.565   3.154  0.0782  0.0505  0.1795
15243WAT    EPW62779  -4.011   8.538   3.163 -0.0231 -0.4497 -0.4288
15244WAT      O62780  -2.536   8.249   8.927  0.3208 -0.0897 -0.0245
15244WAT     H162781  -2.514   8.257   8.834  0.0686  0.5449 -0.0360
15244WAT     H262782  -2.458   8.212   8.967 -0.5579 -3.1641 -0.9364
15244WAT    EPW62783  -2.523   8.246   8.920  0.1717 -0.4110 -0.1459
15245WAT      O62784   2.930   6.127   0.486 -0.3261 -0.1335  0.4180
15245WAT     H162785   2.872   6.113   0.411 -0.0803 -0.4922  0.2917
15245WAT     H262786   3.013   6.154   0.446  0.2007 -1.5702  0.4748
15245WAT    EPW62787   2.933   6.129   0.471 -0.2244 -0.3703  0.4088
15246WAT      O62788   4.618   1.051   0.821 -0.6471 -0.0356 -0.7197
15246WAT     H162789   4.622   1.036   0.916 -1.5967  0.3194 -0.6107
15246WAT     H262790   4.524   1.054   0.802 -0.4730 -0.6072 -1.7560
15246WAT    EPW62791   4.606   1.049   0.831 -0.7493 -0.0641 -0.8420
15247WAT      O62792   4.159   3.793   6.438 -0.1435  0.0761 -0.7108
15247WAT     H162793   4.109   3.864   6.398  0.3842  0.2467 -1.0773
15247WAT     H262794   4.096   3.720   6.445  0.1487 -0.5129 -3.3683
15247WAT    EPW62795   4.144   3.792   6.434 -0.0353  0.0209 -1.1096
15248WAT      O62796  -2.424   2.761   7.677  0.1577  0.0412  0.3722
15248WAT     H162797  -2.342   2.751   7.726  0.7986 -2.4405 -1.0184
15248WAT     H262798  -2.490   2.717   7.732  0.2969 -0.2583  0.3010
15248WAT    EPW62799  -2.422   2.754   7.691  0.2605 -0.3257  0.1793
15249WAT      O62800   5.332   7.051   2.309 -0.0129 -0.6155  0.3371
15249WAT     H162801   5.283   6.974   2.281 -0.2229  0.1093 -1.4072
15249WAT     H262802   5.278   7.089   2.379 -1.0241 -0.8655 -0.2842
15249WAT    EPW62803   5.318   7.046   2.315 -0.1740 -0.5527  0.0250
15250WAT      O62804   1.281   3.089   8.102  1.2507  0.4238 -0.1923
15250WAT     H162805   1.253   3.104   8.012  1.6212  0.2558 -0.3417
15250WAT     H262806   1.265   3.172   8.147 -0.3409  0.0532 -0.0308
15250WAT    EPW62807   1.275   3.102   8.096  1.0896  0.3527 -0.1907
15251WAT      O62808   2.970   0.207   4.631  0.2878  0.2691 -0.3121
15251WAT     H162809   3.028   0.175   4.563  0.8418 -1.0390  0.7388
15251WAT     H262810   2.904   0.138   4.641 -0.6283  1.0968 -0.5051
15251WAT    EPW62811   2.969   0.194   4.624  0.2401  0.2057 -0.1988
15252WAT      O62812   2.646   8.061   8.573  0.6408  0.5864 -0.1710
15252WAT     H162813   2.561   8.078   8.533  0.5271 -0.8365 -0.6135
15252WAT     H262814   2.706   8.118   8.525  0.3362 -0.3299 -1.7268
15252WAT    EPW62815   2.643   8.071   8.561  0.5857  0.2775 -0.4344
15253WAT      O62816   1.142   7.626   7.619 -0.0531 -0.4571 -0.4465
15253WAT     H162817   1.218   7.684   7.629 -0.1183 -0.5201  0.5285
15253WAT     H262818   1.072   7.671   7.666 -0.7189 -0.2551 -1.5875
15253WAT    EPW62819   1.143   7.640   7.626 -0.1495 -0.4387 -0.4683
15254WAT      O62820  -0.749   7.205   5.990 -0.0722  0.2402  0.3851
15254WAT     H162821  -0.695   7.162   5.924 -0.8552  0.4578 -0.4086
15254WAT     H262822  -0.791   7.133   6.037 -0.1552  0.1045  0.1051
15254WAT    EPW62823  -0.747   7.190   5.988 -0.1864  0.2513  0.2434
15255WAT      O62824   0.163   0.707   0.050  0.3440 -0.5507 -0.0469
15255WAT     H162825   0.227   0.775   0.029  1.1055 -1.4604 -0.7417
15255WAT     H262826   0.163   0.703   0.146  1.1761 -0.3947 -0.0363
15255WAT    EPW62827   0.171   0.715   0.060  0.5542 -0.6500 -0.1371
15256WAT      O62828   5.183   4.900   2.628  0.3804 -0.1467  0.2724
15256WAT     H162829   5.214   4.845   2.700  2.0965 -1.8188 -1.6189
15256WAT     H262830   5.239   4.977   2.631  0.2743 -0.0865  0.8620
15256WAT    EPW62831   5.195   4.903   2.638  0.5929 -0.3593  0.1006
15257WAT      O62832  -1.168   8.515   7.349  0.3117  0.0636  0.3309
15257WAT     H162833  -1.204   8.469   7.425  0.8320 -0.7875  0.0705
15257WAT     H262834  -1.242   8.521   7.288 -0.5348  2.0618  1.4487
15257WAT    EPW62835  -1.183   8.510   7.351  0.2686  0.2151  0.4437
15258WAT      O62836   3.850   8.101   5.621 -0.0097 -0.0522  0.7264
15258WAT     H162837   3.849   8.010   5.594  0.9279  0.1109  0.0842
15258WAT     H262838   3.830   8.099   5.714  0.2282 -0.9313  0.7667
15258WAT    EPW62839   3.847   8.089   5.630  0.1454 -0.1469  0.6471
15259WAT      O62840  -0.741   9.525   5.562  0.5305  0.3294 -0.6320
15259WAT     H162841  -0.695   9.608   5.571  1.4171  0.0565 -2.3852
15259WAT     H262842  -0.677   9.459   5.589  0.6016  0.0681 -1.4290
15259WAT    EPW62843  -0.727   9.527   5.567  0.6568  0.2589 -0.9685
15260WAT      O62844   0.987   8.407   6.707 -0.3979 -0.0928  0.0565
15260WAT     H162845   1.043   8.330   6.704 -0.7136 -0.3559  0.6570
15260WAT     H262846   1.049   8.481   6.711 -0.0800 -0.3903  0.9849
15260WAT    EPW62847   1.003   8.407   6.707 -0.3976 -0.1664  0.2580
15261WAT      O62848   6.480   0.372   2.157  0.8892  0.3395 -0.0752
15261WAT     H162849   6.568   0.358   2.191  0.2760 -3.1731  0.5132
15261WAT     H262850   6.463   0.294   2.103 -1.7016  1.0937 -0.4850
15261WAT    EPW62851   6.490   0.360   2.154  0.4666 -0.0243 -0.0516
15262WAT      O62852   6.434   5.663   0.638 -0.2943 -0.1972  0.5491
15262WAT     H162853   6.492   5.721   0.687 -0.5432  1.0770 -0.5969
15262WAT     H262854   6.491   5.594   0.604  0.3646  0.4096  0.3945
15262WAT    EPW62855   6.449   5.661   0.640 -0.2406  0.0510  0.3776
15263WAT      O62856  -0.353   8.886   3.152 -0.8432  0.3941  0.0624
15263WAT     H162857  -0.372   8.944   3.225  0.7924  0.7597  0.2306
15263WAT     H262858  -0.381   8.800   3.182 -1.7829  0.8147  0.4359
15263WAT    EPW62859  -0.359   8.882   3.166 -0.7514  0.4983  0.1338
15264WAT      O62860   2.244   1.695   6.927  0.3553  0.0980 -0.0338
15264WAT     H162861   2.212   1.747   6.853  0.2714  1.8777  1.1997
15264WAT     H262862   2.331   1.665   6.898 -0.2842 -0.5100 -1.4168
15264WAT    EPW62863   2.251   1.698   6.913  0.2600  0.2524 -0.0536
15265WAT      O62864   2.401   9.333   6.518 -0.4930  0.2485 -0.6440
15265WAT     H162865   2.398   9.389   6.440 -0.4147  0.5604 -0.4284
15265WAT     H262866   2.458   9.260   6.493 -1.1984 -0.1324 -1.1769
15265WAT    EPW62867   2.408   9.331   6.505 -0.5757  0.2398 -0.6857
15266WAT      O62868  -2.055   9.772   2.186  0.2615 -0.0042 -0.0891
15266WAT     H162869  -1.988   9.710   2.217  0.6274 -1.6062 -3.5067
15266WAT     H262870  -2.004   9.842   2.144 -0.1066 -0.4765 -1.3935
15266WAT    EPW62871  -2.039   9.773   2.184  0.2612 -0.2780 -0.7119
15267WAT      O62872  -3.051   6.885   5.117  0.4581  0.7053 -0.5102
15267WAT     H162873  -3.056   6.884   5.021  2.6585  1.8947 -0.6979
15267WAT     H262874  -3.058   6.978   5.140  2.0493  0.6623  0.2911
15267WAT    EPW62875  -3.053   6.897   5.107  0.9582  0.8566 -0.4294
15268WAT      O62876   3.205   9.178   6.471 -0.2891 -0.5837  0.1270
15268WAT     H162877   3.248   9.227   6.401 -2.4746  0.3458 -0.6439
15268WAT     H262878   3.266   9.181   6.544  1.0561  0.4239 -0.9922
15268WAT    EPW62879   3.219   9.185   6.471 -0.4001 -0.3281 -0.1225
15269WAT      O62880  -2.200   4.186   4.514 -0.4514  0.0159  0.2264
15269WAT     H162881  -2.161   4.240   4.582  0.3453  0.0617 -0.2549
15269WAT     H262882  -2.261   4.244   4.469 -0.9493 -0.0036  0.8626
15269WAT    EPW62883  -2.203   4.201   4.517 -0.4119  0.0193  0.2470
15270WAT      O62884  -1.842   4.844   2.071 -0.1798  0.0239 -0.0356
15270WAT     H162885  -1.907   4.900   2.029 -1.1132 -0.4099  0.7952
15270WAT     H262886  -1.814   4.894   2.148 -1.0450 -0.6340  0.7307
15270WAT    EPW62887  -1.847   4.858   2.076 -0.4171 -0.1199  0.1751
15271WAT      O62888   5.489   2.611   0.560 -0.5457  0.2789 -0.3621
15271WAT     H162889   5.486   2.534   0.618 -1.4942 -0.5989 -1.5218
15271WAT     H262890   5.400   2.618   0.526  0.3315 -0.2252 -2.9529
15271WAT    EPW62891   5.477   2.602   0.563 -0.5550  0.0967 -0.8568
15272WAT      O62892   1.327  10.240   4.969  0.2153 -0.3616  0.1681
15272WAT     H162893   1.367  10.321   4.940 -0.4754  0.5015  1.5189
15272WAT     H262894   1.287  10.203   4.890  0.1684  0.8254 -0.3834
15272WAT    EPW62895   1.327  10.246   4.955  0.1181 -0.0916  0.2735
15273WAT      O62896  -2.008   7.488   4.221  0.8582  0.7359  0.7947
15273WAT     H162897  -1.962   7.406   4.237  0.5772  0.4539  0.1785
15273WAT     H262898  -2.039   7.481   4.131  0.6669  1.4378  0.8030
15273WAT    EPW62899  -2.006   7.476   4.211  0.7958  0.7911  0.7145
15274WAT      O62900   8.255   4.178   1.532  0.3643  0.1378  0.3382
15274WAT     H162901   8.347   4.204   1.537 -0.6388  4.1433  1.3860
15274WAT     H262902   8.234   4.147   1.620  0.5665 -0.2108  0.2641
15274WAT    EPW62903   8.264   4.177   1.544  0.2589  0.6201  0.4666
15275WAT      O62904  -4.060   8.383   7.154  0.1356  0.4102 -0.1565
15275WAT     H162905  -4.110   8.460   7.181 -0.8858 -0.3248  0.1050
15275WAT     H262906  -4.060   8.326   7.231 -1.6686 -1.1344 -1.2315
15275WAT    EPW62907  -4.066   8.386   7.168 -0.2370  0.1097 -0.2637
15276WAT      O62908  -1.267   3.495   7.685 -0.3926  0.4449  0.4137
15276WAT     H162909  -1.189   3.519   7.737  0.0997 -1.8042  0.8166
15276WAT     H262910  -1.317   3.437   7.743  0.0557 -1.9618 -1.4450
15276WAT    EPW62911  -1.263   3.490   7.700 -0.2685 -0.1692  0.2220
15277WAT      O62912  -2.396   7.637   3.922 -0.1722  0.3276  0.5216
15277WAT     H162913  -2.410   7.635   3.827 -2.0691  0.1122  0.7593
15277WAT     H262914  -2.333   7.707   3.936 -1.4891  1.8526 -0.7498
15277WAT    EPW62915  -2.390   7.646   3.911 -0.5960  0.5004  0.3852
15278WAT      O62916  -1.589   0.505   7.344 -0.0167  0.3976  0.0218
15278WAT     H162917  -1.522   0.503   7.412 -0.3363 -0.7033  0.3282
15278WAT     H262918  -1.665   0.461   7.384 -0.1637 -0.3973 -1.0787
15278WAT    EPW62919  -1.591   0.499   7.358 -0.0783  0.1475 -0.0830
15279WAT      O62920  -1.517   3.976   3.944 -0.6949  0.2238 -0.1478
15279WAT     H162921  -1.425   3.968   3.919 -0.5596 -2.1048  0.8799
15279WAT     H262922  -1.515   3.999   4.037 -1.1643  0.2055 -0.1298
15279WAT    EPW62923  -1.505   3.978   3.953 -0.7389 -0.0857 -0.0099
15280WAT      O62924  -5.105   8.217   6.228  0.1549 -0.4420  0.1854
15280WAT     H162925  -5.117   8.123   6.235 -0.1688 -0.7909 -3.2579
15280WAT     H262926  -5.193   8.253   6.224  0.2756 -0.0222  1.1327
15280WAT    EPW62927  -5.118   8.210   6.228  0.1278 -0.4325 -0.1440
15281WAT      O62928  -0.216   6.156   5.404 -0.0073 -0.2997 -0.2580
15281WAT     H162929  -0.154   6.193   5.467  2.8714  1.6108 -3.8254
15281WAT     H262930  -0.300   6.157   5.450  1.7691  1.3527  3.3420
15281WAT    EPW62931  -0.219   6.161   5.418  0.6066  0.1702 -0.2539
15282WAT      O62932   0.194   2.703   7.048  0.4421  0.4531  0.6083
15282WAT     H162933   0.112   2.733   7.008  0.3111  3.2523  2.6852
15282WAT     H262934   0.219   2.774   7.107  5.3609  0.5997 -1.1993
15282WAT    EPW62935   0.186   2.717   7.050  1.0736  0.8417  0.6437
15283WAT      O62936  -2.365  10.163   6.590 -0.7210  0.3495  0.2427
15283WAT     H162937  -2.386  10.157   6.683 -1.1138 -0.4171  0.1094
15283WAT     H262938  -2.286  10.110   6.580 -0.1002  1.2440  0.3099
15283WAT    EPW62939  -2.357  10.156   6.601 -0.6909  0.3662  0.2341
15284WAT      O62940  -5.978   3.957   7.736 -0.2091 -0.0864 -0.1712
15284WAT     H162941  -5.987   3.937   7.829  1.9544  3.5431  1.0025
15284WAT     H262942  -6.043   4.026   7.720 -1.2647 -1.3610 -1.7057
15284WAT    EPW62943  -5.988   3.963   7.746 -0.0629  0.2241 -0.2189
15285WAT      O62944   2.978   6.862   3.597  0.1456 -0.3961 -0.4354
15285WAT     H162945   2.891   6.827   3.617  0.3233  0.0484  1.2903
15285WAT     H262946   2.961   6.937   3.540 -0.5735 -0.5761 -0.4648
15285WAT    EPW62947   2.964   6.867   3.593  0.0741 -0.3612 -0.2116
15286WAT      O62948  -3.646   2.073   4.859 -0.3599 -0.0262 -0.1796
15286WAT     H162949  -3.615   2.158   4.892 -0.2851  0.2336 -0.8904
15286WAT     H262950  -3.642   2.015   4.935 -0.8767  0.7271  0.4430
15286WAT    EPW62951  -3.641   2.077   4.873 -0.4183  0.1074 -0.1912
15287WAT      O62952  -4.437   7.823   6.948  0.5446 -0.4371  0.1406
15287WAT     H162953  -4.454   7.822   6.853  3.9367 -0.7418 -0.5896
15287WAT     H262954  -4.448   7.915   6.972 -0.3967 -0.3568 -0.5167
15287WAT    EPW62955  -4.441   7.835   6.938  0.8678 -0.4666 -0.0424
15288WAT      O62956   0.319   1.433   4.501  0.4241  0.4973  0.4940
15288WAT     H162957   0.348   1.519   4.469  2.2303  0.4191  1.7617
15288WAT     H262958   0.393   1.401   4.553 -0.4718 -1.5467  0.6042
15288WAT    EPW62959   0.333   1.440   4.503  0.5442  0.2173  0.6759
15289WAT      O62960  -2.014   4.940   3.499  0.1121 -0.4160  0.2105
15289WAT     H162961  -2.063   4.859   3.509  2.1325 -1.6447  0.8464
15289WAT     H262962  -2.015   4.979   3.587  3.1022 -2.2737  1.2378
15289WAT    EPW62963  -2.020   4.934   3.512  0.7730 -0.8230  0.4299
15290WAT      O62964   7.868   1.439   2.033  0.4722  0.5908  0.2500
15290WAT     H162965   7.847   1.360   2.082  1.4991  0.4358  0.4773
15290WAT     H262966   7.784   1.484   2.021  0.2051  0.8351  2.4973
15290WAT    EPW62967   7.855   1.435   2.038  0.5724  0.6026  0.5765
15291WAT      O62968  -2.574   5.475   5.589 -0.0267 -0.2011  0.8590
15291WAT     H162969  -2.597   5.432   5.671  0.8590  0.1707  1.3114
15291WAT     H262970  -2.531   5.407   5.537  0.8787 -0.0232  1.3565
15291WAT    EPW62971  -2.571   5.461   5.593  0.2095 -0.1287  0.9844
15292WAT      O62972   5.936   5.895   0.625  0.0356 -0.3062 -0.2283
15292WAT     H162973   5.894   5.814   0.596  1.0534 -1.9803  2.6033
15292WAT     H262974   5.866   5.960   0.624 -1.2653 -1.6687 -0.8509
15292WAT    EPW62975   5.921   5.893   0.621 -0.0019 -0.7067  0.0630
15293WAT      O62976   2.047   1.716   4.681  0.3083  1.1135 -0.2634
15293WAT     H162977   2.075   1.648   4.619  1.4184  1.6843 -0.4075
15293WAT     H262978   1.986   1.671   4.739  1.9131 -0.3499  0.3811
15293WAT    EPW62979   2.043   1.701   4.680  0.6664  0.9958 -0.1974
15294WAT      O62980   8.176   1.944   0.270 -0.3794 -0.2601 -0.5542
15294WAT     H162981   8.179   1.959   0.364  3.5960 -0.5588 -0.4803
15294WAT     H262982   8.132   1.859   0.261 -0.3197 -0.4982  1.0528
15294WAT    EPW62983   8.171   1.935   0.281  0.1526 -0.3309 -0.3325
15295WAT      O62984  -3.536   5.237   3.810  0.3288 -0.1591 -0.0290
15295WAT     H162985  -3.472   5.166   3.799  0.5466 -0.1037  0.7644
15295WAT     H262986  -3.616   5.192   3.837  0.8504 -0.0312  1.8812
15295WAT    EPW62987  -3.538   5.221   3.812  0.4263 -0.1349  0.3276
15296WAT      O62988   2.620   9.252   4.009  0.3397  0.3959 -0.8453
15296WAT     H162989   2.688   9.193   4.039 -1.7739 -1.8758 -0.1486
15296WAT     H262990   2.650   9.339   4.034  2.3430 -0.6466  0.6077
15296WAT    EPW62991   2.633   9.256   4.016  0.3252 -0.0410 -0.5617
15297WAT      O62992   7.230   3.388   0.065  0.1449 -0.1105 -0.9931
15297WAT     H162993   7.150   3.357   0.022 -1.5581  1.2459  0.9802
15297WAT     H262994   7.236   3.480   0.042  1.3874 -0.2804 -1.4143
15297WAT    EPW62995   7.220   3.396   0.056  0.0842  0.0459 -0.7884
15298WAT      O62996   1.781   7.120   1.529  0.7064  0.7210  0.0218
15298WAT     H162997   1.754   7.210   1.509 -0.8379  0.6528  1.5815
15298WAT     H262998   1.876   7.126   1.540  0.9596  1.6931 -2.0722
15298WAT    EPW62999   1.790   7.133   1.528  0.5361  0.8402 -0.0487
15299WAT      O63000   1.072   7.727   7.148  0.3731 -0.2815  0.1720
15299WAT     H163001   0.989   7.699   7.186  0.8742 -0.4187  1.1848
15299WAT     H263002   1.106   7.792   7.210  1.0172 -0.2149 -0.2429
15299WAT    EPW63003   1.066   7.732   7.161  0.5241 -0.2909  0.2511
15300WAT      O63004   1.766   9.825   7.362 -0.0569 -0.2154 -0.6815
15300WAT     H163005   1.775   9.835   7.267  1.4957  0.6709 -0.4759
15300WAT     H263006   1.834   9.762   7.386 -0.0076  0.0682 -0.0667
15300WAT    EPW63007   1.776   9.818   7.353  0.1544 -0.0610 -0.5734
15301WAT      O63008   5.875   5.428   1.175  0.0099  0.0316 -0.0892
15301WAT     H163009   5.959   5.423   1.129  0.2335 -0.9619  0.3923
15301WAT     H263010   5.899   5.440   1.267 -0.3880  0.1065  0.0052
15301WAT    EPW63011   5.890   5.429   1.181 -0.0131 -0.0896 -0.0132
15302WAT      O63012  -0.726   3.465   6.587 -0.4708 -0.4319  0.7662
15302WAT     H163013  -0.702   3.373   6.591  0.7115 -0.3067 -1.7067
15302WAT     H263014  -0.708   3.498   6.675 -1.6921 -2.6903  1.9347
15302WAT    EPW63015  -0.720   3.458   6.599 -0.4759 -0.7133  0.5941
15303WAT      O63016   2.751   0.000   6.461  0.4507  0.0959  0.4596
15303WAT     H163017   2.758   0.006   6.556  0.9269 -2.1201  0.6086
15303WAT     H263018   2.661   0.028   6.442  1.0720  2.9759  1.2454
15303WAT    EPW63019   2.740   0.005   6.471  0.5955  0.1831  0.5827
15304WAT      O63020  -1.038   2.663   0.394  0.1816  0.1795 -0.6325
15304WAT     H163021  -1.119   2.635   0.350  0.7810 -0.6926 -1.2132
15304WAT     H263022  -0.987   2.582   0.404  1.3303  0.8376 -1.0073
15304WAT    EPW63023  -1.042   2.648   0.389  0.4122  0.1512 -0.7585
15305WAT      O63024   1.447   4.109   7.534  0.4293  0.2248  0.0682
15305WAT     H163025   1.430   4.076   7.622 -0.0620  1.7512  0.5706
15305WAT     H263026   1.362   4.108   7.491  0.0250  2.4947  0.7018
15305WAT    EPW63027   1.434   4.104   7.540  0.3111  0.7255  0.2182
15306WAT      O63028   1.359   8.355   0.697 -0.0673  0.0734 -0.8552
15306WAT     H163029   1.424   8.321   0.758 -0.9235  0.4263  0.2927
15306WAT     H263030   1.332   8.279   0.646 -0.7805 -0.6884  0.5868
15306WAT    EPW63031   1.364   8.341   0.698 -0.2743  0.0191 -0.5136
15307WAT      O63032  -1.347  10.224   1.407 -0.3229 -0.3853 -0.6138
15307WAT     H163033  -1.259  10.192   1.391 -0.2249  0.2377 -1.3537
15307WAT     H263034  -1.377  10.175   1.484  0.9127 -0.1125  0.0597
15307WAT    EPW63035  -1.340  10.213   1.415 -0.1469 -0.2670 -0.6225
15308WAT      O63036   0.169   0.822   5.754 -0.5987 -0.6350  0.4217
15308WAT     H163037   0.097   0.884   5.751 -0.4178 -0.3595  1.4823
15308WAT     H263038   0.172   0.784   5.666 -1.4358  0.0224  0.1028
15308WAT    EPW63039   0.160   0.825   5.742 -0.6852 -0.5119  0.5195
15309WAT      O63040   5.046   1.759   8.192  0.0401 -0.2895 -0.0861
15309WAT     H163041   5.059   1.690   8.127 -1.7864  0.7768 -1.7067
15309WAT     H263042   4.954   1.783   8.183  0.2469  1.3161  1.4984
15309WAT    EPW63043   5.035   1.753   8.182 -0.1736  0.0629 -0.0911
15310WAT      O63044   4.100   7.390   3.727 -0.2774  0.1677 -0.4695
15310WAT     H163045   4.077   7.458   3.790 -2.8937 -2.1974  1.3952
15310WAT     H263046   4.037   7.320   3.744  0.6045 -1.7116 -3.9950
15310WAT    EPW63047   4.088   7.390   3.737 -0.5062 -0.3922 -0.6886
15311WAT      O63048   3.695   2.733   7.094  0.7048  0.2477 -0.1730
15311WAT     H163049   3.618   2.687   7.126  0.3215  1.3884  0.5926
15311WAT     H263050   3.762   2.665   7.086 -0.2733 -0.6988 -0.5480
15311WAT    EPW63051   3.694   2.718   7.097  0.5252  0.2732 -0.1216
15312WAT      O63052  -4.481   1.878   7.923 -0.5220 -0.2170 -0.2663
15312WAT     H163053  -4.567   1.905   7.890 -0.9253 -2.2185 -1.0194
15312WAT     H263054  -4.471   1.788   7.891  0.5289 -1.1116  2.3161
15312WAT    EPW63055  -4.491   1.870   7.915 -0.4368 -0.5990 -0.0250
15313WAT      O63056  -2.181   9.617   8.601  0.5205  0.4448 -0.3704
15313WAT     H163057  -2.275   9.615   8.589  0.5422  0.2951 -0.5198
15313WAT     H263058  -2.148   9.667   8.526  0.4048  2.1883  0.6916
15313WAT    EPW63059  -2.189   9.623   8.589  0.5082  0.6552 -0.2494
15314WAT      O63060   4.716   3.174   7.045  0.0443  0.1072 -0.6377
15314WAT     H163061   4.712   3.235   7.119 -1.2125 -0.8541  0.1172
15314WAT     H263062   4.707   3.230   6.967 -1.1994  0.8937  0.0393
15314WAT    EPW63063   4.715   3.190   7.044 -0.2854  0.0842 -0.4487
15315WAT      O63064   6.555   3.025   2.832  0.2375 -1.0151 -0.3336
15315WAT     H163065   6.475   3.079   2.833  1.1955  0.5783 -2.3658
15315WAT     H263066   6.615   3.069   2.891  0.0846 -1.4519  0.1536
15315WAT    EPW63067   6.552   3.038   2.840  0.3440 -0.8626 -0.5374
15316WAT      O63068   1.427   9.692   0.749  0.2161 -0.0778  0.6098
15316WAT     H163069   1.481   9.617   0.722 -1.3456 -1.1727  0.4171
15316WAT     H263070   1.445   9.759   0.683 -1.2252 -1.6449 -1.5089
15316WAT    EPW63071   1.437   9.691   0.737 -0.1800 -0.4287  0.3049
15317WAT      O63072   1.250   5.328   7.741 -0.2481 -0.2018 -0.0128
15317WAT     H163073   1.285   5.240   7.759 -2.7177 -1.5384 -1.2920
15317WAT     H263074   1.161   5.313   7.709 -1.6210  2.9222  1.8855
15317WAT    EPW63075   1.243   5.314   7.739 -0.7548  0.0339  0.0689
15318WAT      O63076  -3.649   9.996   4.053 -0.0434 -0.0704  0.1265
15318WAT     H163077  -3.621  10.000   4.144  2.2184  1.6814 -0.5542
15318WAT     H263078  -3.715  10.064   4.045  1.4999  1.4859 -0.0069
15318WAT    EPW63079  -3.654  10.005   4.064  0.4585  0.3657  0.0191
15319WAT      O63080  -3.020   9.752   7.231  0.0820  0.1131  0.1241
15319WAT     H163081  -3.091   9.816   7.242  0.9903  1.9744 -3.3009
15319WAT     H263082  -2.945   9.791   7.276  0.6822  1.7340 -2.1066
15319WAT    EPW63083  -3.020   9.766   7.239  0.2811  0.5722 -0.6218
15320WAT      O63084   5.454   0.476   6.917  0.4350 -0.1622 -0.4636
15320WAT     H163085   5.373   0.428   6.935  0.7018  0.1292  1.8232
15320WAT     H263086   5.512   0.411   6.876  0.1846 -1.3471  0.9813
15320WAT    EPW63087   5.451   0.461   6.914  0.4370 -0.2801  0.0286
15321WAT      O63088  -3.676   0.780   8.814 -0.0743 -0.8526 -0.1786
15321WAT     H163089  -3.587   0.762   8.784  0.2561  1.7948 -1.0438
15321WAT     H263090  -3.723   0.807   8.735 -0.5541  1.4856  0.8224
15321WAT    EPW63091  -3.670   0.781   8.800 -0.0941 -0.1951 -0.1607
15322WAT      O63092  -0.124   9.259   0.093  0.7910  0.4452  0.1677
15322WAT     H163093  -0.138   9.205   0.171 -2.4895 -0.2424 -0.7389
15322WAT     H263094  -0.111   9.195   0.023  3.9810  1.0599  0.0809
15322WAT    EPW63095  -0.124   9.243   0.094  0.7790  0.4354  0.0367
15323WAT      O63096   2.457   2.244   0.644 -0.5581 -0.2582 -0.5264
15323WAT     H163097   2.473   2.338   0.640  0.2778 -0.3978 -0.6748
15323WAT     H263098   2.529   2.210   0.697  1.0912 -1.2190 -3.2240
15323WAT    EPW63099   2.469   2.252   0.651 -0.2303 -0.4034 -0.9018
15324WAT      O63100  -4.795   7.976   5.279 -0.0440  0.0392  0.0264
15324WAT     H163101  -4.778   7.945   5.190 -0.2453 -0.2823  0.0954
15324WAT     H263102  -4.722   8.034   5.299 -1.0058  1.7179 -1.0924
15324WAT    EPW63103  -4.783   7.979   5.270 -0.1974  0.2184 -0.1121
15325WAT      O63104   2.826   6.747   0.946 -0.4121  0.6096  0.3811
15325WAT     H163105   2.906   6.704   0.975  0.3813  2.0083  0.3283
15325WAT     H263106   2.778   6.767   1.027  0.2678  1.5843  0.5620
15325WAT    EPW63107   2.830   6.744   0.961 -0.2178  0.9227  0.3980
15326WAT      O63108   5.538   8.138   3.231  0.5674  0.3419  0.4317
15326WAT     H163109   5.448   8.164   3.245  0.2720 -1.2515  1.8395
15326WAT     H263110   5.544   8.051   3.270  1.7710 -1.2254 -2.8431
15326WAT    EPW63111   5.527   8.130   3.238  0.6874 -0.0749  0.1854
15327WAT      O63112   6.793   3.045   2.676 -0.0455 -0.2511 -0.1016
15327WAT     H163113   6.701   3.053   2.702 -0.9006 -1.5220 -2.4284
15327WAT     H263114   6.790   3.032   2.581  2.5719 -0.1111 -0.2687
15327WAT    EPW63115   6.781   3.044   2.667  0.1869 -0.4002 -0.4305
15328WAT      O63116  -0.191   5.472   3.914 -0.1104 -0.3355  0.1263
15328WAT     H163117  -0.219   5.546   3.860 -3.5798 -1.1829  0.5056
15328WAT     H263118  -0.155   5.409   3.851 -0.0005  0.4363 -0.5986
15328WAT    EPW63119  -0.190   5.473   3.899 -0.5535 -0.3455  0.0807
15329WAT      O63120  -4.118   8.036   8.824 -0.4853 -0.1520  0.1495
15329WAT     H163121  -4.028   8.044   8.794 -0.2657 -0.4102  0.7235
15329WAT     H263122  -4.115   7.967   8.890 -1.1393 -0.2996  0.0283
15329WAT    EPW63123  -4.106   8.028   8.829 -0.5429 -0.2055  0.2089
15330WAT      O63124   4.154   1.353   2.757  0.1395 -0.1185 -0.2746
15330WAT     H163125   4.161   1.314   2.670  0.8190  1.0264 -0.7636
15330WAT     H263126   4.159   1.279   2.818  1.3393 -0.7859 -1.1574
15330WAT    EPW63127   4.155   1.338   2.754  0.3874 -0.0556 -0.4556
15331WAT      O63128   0.208   9.775   0.206 -0.1079  0.1450 -0.1731
15331WAT     H163129   0.294   9.797   0.170  0.4157 -0.6309  0.5715
15331WAT     H263130   0.149   9.841   0.169  1.0201  1.4489  0.2794
15331WAT    EPW63131   0.212   9.787   0.196  0.1099  0.2146 -0.0152
15332WAT      O63132   3.150   1.382   5.023 -0.3223 -0.3684  0.1045
15332WAT     H163133   3.233   1.379   5.071 -0.4872  0.4039  0.4695
15332WAT     H263134   3.102   1.455   5.064 -0.8841 -0.3464 -0.5719
15332WAT    EPW63135   3.155   1.392   5.035 -0.4182 -0.2636  0.0637
15333WAT      O63136   0.716   1.585   1.466 -0.0643 -0.5091  0.1770
15333WAT     H163137   0.800   1.581   1.421 -0.5843 -0.4425 -0.8164
15333WAT     H263138   0.739   1.592   1.559  1.0169 -0.8070 -0.0592
15333WAT    EPW63139   0.730   1.585   1.472  0.0097 -0.5396  0.0148
15334WAT      O63140   1.964   1.877   7.985 -0.1051 -0.9350  1.0601
15334WAT     H163141   1.874   1.849   8.001 -0.2914 -0.6777  0.5016
15334WAT     H263142   1.989   1.831   7.905 -0.5769  0.8125 -0.1477
15334WAT    EPW63143   1.956   1.867   7.977 -0.1919 -0.6706  0.8273
15335WAT      O63144  -4.345   5.369   8.576 -0.4828  0.1004  0.2769
15335WAT     H163145  -4.418   5.355   8.516 -0.4410 -0.1794  0.2862
15335WAT     H263146  -4.335   5.464   8.581 -0.6741  0.1320  0.0687
15335WAT    EPW63147  -4.353   5.380   8.568 -0.5026  0.0677  0.2503
15336WAT      O63148   4.101  10.154   0.855 -0.2745  0.1692 -0.2202
15336WAT     H163149   4.039  10.161   0.782 -2.0109  1.7203  1.2949
15336WAT     H263150   4.076  10.074   0.900  1.3075 -1.2159 -1.6981
15336WAT    EPW63151   4.090  10.145   0.852 -0.2949  0.1912 -0.2153
15337WAT      O63152   0.157   9.900   6.354  0.3967  0.0899 -0.4131
15337WAT     H163153   0.242   9.875   6.318  0.1993  2.4015 -2.8614
15337WAT     H263154   0.162   9.995   6.364 -0.8432 -0.0495  2.5940
15337WAT    EPW63155   0.169   9.909   6.350  0.2071  0.3762 -0.3395
15338WAT      O63156   0.454   1.031   3.786  0.1559  0.3774 -0.0343
15338WAT     H163157   0.379   1.043   3.845 -0.5866  1.1750 -1.1084
15338WAT     H263158   0.528   1.069   3.835 -0.4100  0.8711  0.4633
15338WAT    EPW63159   0.454   1.038   3.800 -0.0167  0.5477 -0.1104
15339WAT      O63160  -1.981   2.161   2.589 -0.2938  0.0559 -0.4925
15339WAT     H163161  -2.075   2.178   2.586  0.1043  2.5837 -3.3374
15339WAT     H263162  -1.965   2.103   2.514  0.6063  1.2868 -1.2953
15339WAT    EPW63163  -1.991   2.156   2.579 -0.1227  0.5517 -0.9736
15340WAT      O63164  -0.659   3.243   5.231 -0.2256  0.3329 -0.4736
15340WAT     H163165  -0.732   3.303   5.250 -0.5439 -0.0786 -0.3714
15340WAT     H263166  -0.596   3.296   5.182 -1.8188 -0.0199 -3.0685
15340WAT    EPW63167  -0.660   3.258   5.227 -0.4777  0.2321 -0.8025
15341WAT      O63168  -1.100   2.901   3.516  0.3392 -0.3930  0.2972
15341WAT     H163169  -1.115   2.809   3.497  0.3376 -0.3030 -0.1657
15341WAT     H263170  -1.032   2.927   3.453  2.2827 -0.7273  2.1492
15341WAT    EPW63171  -1.093   2.893   3.505  0.5953 -0.4252  0.4803
15342WAT      O63172   3.033   5.627   1.044 -0.6380 -0.8214 -0.3481
15342WAT     H163173   3.020   5.713   1.083 -0.2002 -1.1120  0.4663
15342WAT     H263174   3.050   5.569   1.119 -2.5079 -1.9315 -0.7312
15342WAT    EPW63175   3.034   5.631   1.059 -0.8268 -1.0059 -0.2912
15343WAT      O63176  -3.770   7.038   3.171 -0.2137 -0.4016 -0.2106
15343WAT     H163177  -3.802   7.054   3.260  0.1436 -0.2897 -0.0982
15343WAT     H263178  -3.743   6.947   3.171  0.2470 -0.2684 -0.0550
15343WAT    EPW63179  -3.770   7.028   3.183 -0.1059 -0.3691 -0.1752
15344WAT      O63180   6.029   9.378   1.096  0.4296 -0.6266 -0.7236
15344WAT     H163181   6.040   9.466   1.060  2.3513 -0.6016 -0.1614
15344WAT     H263182   6.073   9.320   1.033 -1.0941 -1.2820 -1.2629
15344WAT    EPW63183   6.036   9.382   1.083  0.4823 -0.7100 -0.7206
15345WAT      O63184   2.066   4.768   0.055 -0.5046  0.6741  0.2448
15345WAT     H163185   2.016   4.686   0.054 -0.4519  0.6424  0.1926
15345WAT     H263186   2.158   4.739   0.052 -0.5059  0.7735 -1.2245
15345WAT    EPW63187   2.072   4.753   0.055 -0.4978  0.6828  0.0441
15346WAT      O63188  -3.157   6.637   3.157  0.3425  0.2406  0.6558
15346WAT     H163189  -3.192   6.724   3.139  0.3761  0.2702  0.7362
15346WAT     H263190  -3.074   6.635   3.108  0.5265  0.3898  0.9623
15346WAT    EPW63191  -3.151   6.648   3.148  0.3712  0.2642  0.7068
15347WAT      O63192   0.398   1.571   8.372  0.4728 -0.8663 -0.1011
15347WAT     H163193   0.348   1.646   8.405 -0.9785 -1.2938 -1.2445
15347WAT     H263194   0.339   1.496   8.382  1.8312 -1.8666  0.8444
15347WAT    EPW63195   0.384   1.571   8.378  0.4606 -1.0546 -0.1273
15348WAT      O63196  -0.904   1.219   7.170  0.0972  0.3136  0.0567
15348WAT     H163197  -0.842   1.214   7.098  0.3984  0.7110  0.2802
15348WAT     H263198  -0.974   1.275   7.137 -0.4448 -0.6198 -0.4071
15348WAT    EPW63199  -0.905   1.226   7.156  0.0654  0.2429  0.0250
15349WAT      O63200   2.034  10.186   5.180  0.2248  0.2777 -0.7856
15349WAT     H163201   2.085  10.267   5.185 -0.3189  0.5761  0.2976
15349WAT     H263202   1.943  10.215   5.169  0.0404 -0.1942 -0.5526
15349WAT    EPW63203   2.028  10.200   5.179  0.1287  0.2546 -0.6120
15350WAT      O63204  -7.053   8.260   8.167  0.5740  0.7235 -0.4329
15350WAT     H163205  -7.134   8.306   8.147 -1.9361 -2.9571  0.4339
15350WAT     H263206  -7.037   8.205   8.090  0.7855 -0.4975  0.4659
15350WAT    EPW63207  -7.061   8.259   8.154  0.2708  0.0768 -0.2003
15351WAT      O63208  -3.010   4.985   5.851  0.9146  0.2427  0.0596
15351WAT     H163209  -2.937   4.952   5.903  0.3684  1.3413  1.6058
15351WAT     H263210  -2.977   4.988   5.761  2.6766  0.4806  0.6807
15351WAT    EPW63211  -2.996   4.981   5.846  1.0749  0.4189  0.3455
15352WAT      O63212   2.599   5.936   0.820  0.1647 -0.1003 -0.2383
15352WAT     H163213   2.616   5.923   0.913 -1.0175  0.0914  0.0219
15352WAT     H263214   2.642   5.862   0.777  1.2115  0.1260  0.4013
15352WAT    EPW63215   2.607   5.924   0.826  0.1469 -0.0451 -0.1196
15353WAT      O63216   1.151   4.377   1.279 -0.4140  0.1278  0.0912
15353WAT     H163217   1.124   4.286   1.265  3.1794 -0.6685 -4.1700
15353WAT     H263218   1.222   4.371   1.343 -0.1381 -0.0956 -0.2337
15353WAT    EPW63219   1.157   4.364   1.285  0.0964 -0.0067 -0.5137
15354WAT      O63220  -2.550  10.075   7.256 -0.4708 -0.9858  0.0378
15354WAT     H163221  -2.529  10.165   7.278  0.0918  0.2534 -4.6794
15354WAT     H263222  -2.466  10.029   7.259  0.1046 -0.1549 -2.0319
15354WAT    EPW63223  -2.537  10.081   7.260 -0.3208 -0.7129 -0.8576
15355WAT      O63224   4.324   7.673   1.790  0.0764 -0.6192 -0.6538
15355WAT     H163225   4.310   7.748   1.733  2.3278  1.9299  1.8161
15355WAT     H263226   4.383   7.705   1.858  0.6722 -4.4997  0.9598
15355WAT    EPW63227   4.330   7.687   1.792  0.4518 -0.7949 -0.1152
15356WAT      O63228   4.365   3.908   4.581 -0.2391 -0.6338 -0.4556
15356WAT     H163229   4.300   3.839   4.596 -0.9707  0.4382  1.7565
15356WAT     H263230   4.447   3.862   4.568 -1.0367 -1.9599 -0.9660
15356WAT    EPW63231   4.367   3.893   4.582 -0.4406 -0.6673 -0.2313
15357WAT      O63232   6.808   6.225   1.392  0.0031 -0.2413 -0.9784
15357WAT     H163233   6.755   6.293   1.433 -0.0876 -1.1620  0.4866
15357WAT     H263234   6.867   6.195   1.461  2.0122  0.2614 -2.3605
15357WAT    EPW63235   6.809   6.230   1.406  0.2561 -0.2964 -0.9675
15358WAT      O63236   4.514   4.508   3.109  0.6268  0.3849 -0.5658
15358WAT     H163237   4.507   4.567   3.185 -3.2543  0.2373 -0.5960
15358WAT     H263238   4.541   4.424   3.146 -2.8973 -0.1965  1.2154
15358WAT    EPW63239   4.516   4.505   3.124 -0.3498  0.2887 -0.3347
15359WAT      O63240  -2.216   6.837   4.224  0.5675 -0.5678  0.0315
15359WAT     H163241  -2.205   6.747   4.254  0.1920 -0.8542 -0.6599
15359WAT     H263242  -2.166   6.889   4.286 -1.1424 -1.0023  1.8877
15359WAT    EPW63243  -2.208   6.832   4.236  0.2924 -0.6630  0.1855
15360WAT      O63244  -7.169   9.765   8.181 -0.4506 -0.0346 -0.3173
15360WAT     H163245  -7.234   9.797   8.244 -1.7210 -0.0885 -1.5495
15360WAT     H263246  -7.216   9.701   8.128  0.9267 -0.9002 -0.5601
15360WAT    EPW63247  -7.184   9.761   8.182 -0.4365 -0.1554 -0.5112
15361WAT      O63248   6.490   6.652   0.728  0.5577 -0.3986 -0.9352
15361WAT     H163249   6.539   6.655   0.646 -0.0508  0.4058 -1.2706
15361WAT     H263250   6.508   6.564   0.762  0.9763 -0.6708 -1.8215
15361WAT    EPW63251   6.499   6.640   0.722  0.5326 -0.3285 -1.0963
15362WAT      O63252  -6.166   3.533   8.704  0.8406 -0.3249  0.1760
15362WAT     H163253  -6.121   3.448   8.699 -0.8549 -1.2728  0.1485
15362WAT     H263254  -6.256   3.513   8.680  0.7980  1.8605 -1.7811
15362WAT    EPW63255  -6.172   3.519   8.700  0.6115 -0.1616 -0.0854
15363WAT      O63256   2.324   6.266   8.785  0.3999 -0.0864  0.2955
15363WAT     H163257   2.277   6.196   8.738  0.6106  0.1172 -0.2215
15363WAT     H263258   2.357   6.323   8.716 -0.0490  0.7078  0.7362
15363WAT    EPW63259   2.322   6.264   8.770  0.3684  0.0453  0.2856
15364WAT      O63260  -1.014   5.545   1.787 -0.1034 -0.6575 -1.1562
15364WAT     H163261  -1.019   5.499   1.703 -3.5514  0.0191 -1.4804
15364WAT     H263262  -1.059   5.628   1.771 -0.5469 -0.3555  1.2866
15364WAT    EPW63263  -1.021   5.550   1.774 -0.6167 -0.5286 -0.8768
15365WAT      O63264   6.121   6.361   1.797 -0.8707  0.1165  0.2743
15365WAT     H163265   6.153   6.352   1.707 -0.1701 -1.8022  0.6492
15365WAT     H263266   6.026   6.352   1.790 -0.6881 -2.1444 -0.1364
15365WAT    EPW63267   6.112   6.358   1.784 -0.7541 -0.4346  0.2695
15366WAT      O63268   5.792   9.742   2.628  0.2063  0.7709  0.0866
15366WAT     H163269   5.725   9.699   2.576 -0.4123  2.8864 -0.9709
15366WAT     H263270   5.870   9.688   2.615 -1.2280 -1.8125  1.4486
15366WAT    EPW63271   5.794   9.729   2.619 -0.0644  0.7091  0.1267
15367WAT      O63272   3.816   8.320   4.144  0.6338  0.1932  0.8305
15367WAT     H163273   3.758   8.395   4.138 -0.0960 -0.4440 -0.4603
15367WAT     H263274   3.873   8.340   4.218  0.0956  1.7481  0.8618
15367WAT    EPW63275   3.816   8.332   4.153  0.4666  0.3142  0.6642
15368WAT      O63276  -1.507   5.377   0.643 -0.3446  0.4298  0.1034
15368WAT     H163277  -1.453   5.443   0.685 -0.8175 -0.0561  1.5355
15368WAT     H263278  -1.597   5.402   0.666 -0.6695  0.4750 -1.1272
15368WAT    EPW63279  -1.512   5.389   0.652 -0.4498  0.3717  0.1300
15369WAT      O63280  -0.699   0.413   6.139  0.5161  0.5103  0.3426
15369WAT     H163281  -0.783   0.441   6.103  0.1472  0.0238  0.8054
15369WAT     H263282  -0.708   0.427   6.234  0.1311 -1.5902  0.6549
15369WAT    EPW63283  -0.711   0.419   6.147  0.4167  0.1691  0.4449
15370WAT      O63284  -0.751   1.824   5.791 -0.1431  0.3051  0.3479
15370WAT     H163285  -0.689   1.790   5.855 -1.3780 -0.9225  0.9268
15370WAT     H263286  -0.705   1.816   5.707  1.0735  0.9181  0.9330
15370WAT    EPW63287  -0.736   1.818   5.788 -0.1455  0.2241  0.5014
15371WAT      O63288   4.584   2.863   5.570 -0.0548  0.4302 -0.2388
15371WAT     H163289   4.495   2.896   5.582  0.2636  1.2608 -0.1375
15371WAT     H263290   4.641   2.938   5.587  0.7388 -0.4474  1.1364
15371WAT    EPW63291   4.580   2.877   5.573  0.0918  0.4240 -0.0439
15372WAT      O63292   2.096   2.383   0.141 -0.5576  0.2379  0.9752
15372WAT     H163293   2.083   2.342   0.055  0.9235  1.1815  0.2596
15372WAT     H263294   2.050   2.467   0.135  1.8571  1.5806  0.0308
15372WAT    EPW63295   2.088   2.389   0.129 -0.0437  0.5394  0.7562
15373WAT      O63296  -0.076   2.805   8.947 -0.3262 -0.0003 -0.4784
15373WAT     H163297  -0.036   2.719   8.936 -2.3310 -0.8443 -1.6516
15373WAT     H263298  -0.155   2.789   8.999  1.1929  1.7708  2.6785
15373WAT    EPW63299  -0.081   2.792   8.953 -0.3903  0.1218 -0.2168
15374WAT      O63300   9.079   1.903   1.471 -0.1484  0.2185 -0.2257
15374WAT     H163301   9.089   1.992   1.439  0.1374  0.3361  0.1792
15374WAT     H263302   9.161   1.885   1.517 -0.0649 -0.3725 -0.5909
15374WAT    EPW63303   9.091   1.912   1.473 -0.0997  0.1560 -0.2205
15375WAT      O63304  -0.545   2.121   0.901  0.3868 -0.3249 -0.5503
15375WAT     H163305  -0.608   2.128   0.972  0.8945  0.2044 -0.1433
15375WAT     H263306  -0.526   2.027   0.894 -0.1245 -0.4396 -0.3965
15375WAT    EPW63307  -0.551   2.109   0.909  0.3863 -0.2702 -0.4763
15376WAT      O63308  -2.098   7.285   2.575 -0.2961 -0.0182 -0.2523
15376WAT     H163309  -2.166   7.219   2.585  0.7909 -1.1763 -0.2978
15376WAT     H263310  -2.100   7.307   2.482 -0.3246 -0.3415 -0.3271
15376WAT    EPW63311  -2.107   7.279   2.564 -0.1565 -0.2134 -0.2681
15377WAT      O63312   3.805   4.393   5.256  0.5901 -0.1514  0.1211
15377WAT     H163313   3.769   4.368   5.171  0.7852 -2.5928  0.6821
15377WAT     H263314   3.899   4.399   5.242  0.4543  1.5676 -0.2725
15377WAT    EPW63315   3.813   4.391   5.243  0.5980 -0.2465  0.1433
15378WAT      O63316  -6.585   8.817   5.987 -0.7832 -0.0072  0.3055
15378WAT     H163317  -6.516   8.861   5.937 -1.6161  0.6172 -0.3093
15378WAT     H263318  -6.612   8.882   6.052 -0.2679 -0.5296  1.0609
15378WAT    EPW63319  -6.580   8.832   5.989 -0.8252  0.0062  0.3240
15379WAT      O63320  -0.199   4.364   6.404 -0.1351  0.4467  0.0324
15379WAT     H163321  -0.171   4.318   6.325 -2.0783  1.1530 -1.1543
15379WAT     H263322  -0.249   4.300   6.453 -0.3369  0.4633 -0.1496
15379WAT    EPW63323  -0.202   4.350   6.400 -0.4180  0.5422 -0.1481
15380WAT      O63324  -3.692   4.746   8.078 -0.3114 -0.4714 -0.6803
15380WAT     H163325  -3.754   4.687   8.034 -0.7937  0.0306 -0.6733
15380WAT     H263326  -3.657   4.800   8.008  0.2389 -0.8518 -0.7066
15380WAT    EPW63327  -3.695   4.745   8.063 -0.3023 -0.4554 -0.6824
15381WAT      O63328  -1.629   2.747   8.648  0.1507 -0.1108  0.0006
15381WAT     H163329  -1.611   2.841   8.645 -2.5873  0.4863 -0.2879
15381WAT     H263330  -1.679   2.730   8.568 -0.9562 -1.4321  0.9316
15381WAT    EPW63331  -1.633   2.757   8.637 -0.3564 -0.2062  0.0854
15382WAT      O63332  -1.683   5.993   2.997  0.2079  1.5425  0.5374
15382WAT     H163333  -1.665   5.906   2.962  1.9940  2.2073 -0.3261
15382WAT     H263334  -1.708   5.978   3.088  1.2482  0.1845  0.6181
15382WAT    EPW63335  -1.684   5.979   3.004  0.5807  1.4510  0.4342
15383WAT      O63336  -0.839   2.727   2.764  0.6381  0.1705  0.7676
15383WAT     H163337  -0.918   2.749   2.715  0.8732 -1.0182 -0.2182
15383WAT     H263338  -0.784   2.805   2.759 -0.1276  0.7135  0.7505
15383WAT    EPW63339  -0.842   2.740   2.757  0.5681  0.0854  0.6353
15384WAT      O63340  -0.602   9.006   1.541  0.0464  0.5090 -0.2281
15384WAT     H163341  -0.676   9.055   1.505 -0.6478  0.0560  0.5379
15384WAT     H263342  -0.531   9.020   1.478 -1.2715 -0.7532 -2.1218
15384WAT    EPW63343  -0.603   9.014   1.528 -0.2190  0.2828 -0.3769
15385WAT      O63344   3.925   6.926   4.899  0.1093  0.2325  0.3147
15385WAT     H163345   3.958   6.837   4.892 -0.2261 -0.3415  4.2289
15385WAT     H263346   4.003   6.981   4.884  0.7898 -0.7595  0.0926
15385WAT    EPW63347   3.940   6.922   4.896  0.1547  0.0257  0.8018
15386WAT      O63348  -0.099  10.049   1.666  0.3640 -0.1961 -0.4408
15386WAT     H163349  -0.058  10.054   1.579 -0.9576 -2.7464 -1.3353
15386WAT     H263350  -0.097   9.956   1.688 -1.5170  0.0653  1.1542
15386WAT    EPW63351  -0.094  10.037   1.657 -0.0584 -0.4978 -0.3483
15387WAT      O63352   1.991   7.413   8.785 -0.3794  0.7622 -0.0929
15387WAT     H163353   1.937   7.364   8.723 -2.0074  1.2200  0.8934
15387WAT     H263354   1.930   7.475   8.825  0.6031  0.5026  1.9317
15387WAT    EPW63355   1.976   7.414   8.782 -0.4645  0.7885  0.3042
15388WAT      O63356  -1.258   3.543   7.163 -0.8205  0.3885 -0.1459
15388WAT     H163357  -1.310   3.470   7.196 -1.3960  0.6885 -0.3818
15388WAT     H263358  -1.319   3.616   7.157 -0.2797  0.8582 -0.0416
15388WAT    EPW63359  -1.273   3.543   7.166 -0.8251  0.4901 -0.1633
15389WAT      O63360  -5.085   2.483   7.218 -0.4074  0.2756 -0.3328
15389WAT     H163361  -5.022   2.479   7.289 -0.8653  0.0014  0.0604
15389WAT     H263362  -5.129   2.398   7.220  1.2061 -0.7184 -2.4629
15389WAT    EPW63363  -5.082   2.471   7.227 -0.2549  0.1084 -0.5620
15390WAT      O63364   8.478   1.569   2.648 -0.1831  0.4636 -0.5275
15390WAT     H163365   8.440   1.489   2.610 -1.2740  0.5894  0.2525
15390WAT     H263366   8.484   1.630   2.574 -0.1926 -0.0435 -0.9509
15390WAT    EPW63367   8.474   1.566   2.633 -0.3285  0.4132 -0.4804
15391WAT      O63368  -4.686   0.184   8.528 -0.0618 -0.5251  0.0177
15391WAT     H163369  -4.624   0.212   8.461  0.0399 -1.3197 -0.2267
15391WAT     H263370  -4.663   0.235   8.605  0.6548 -0.5406 -0.1808
15391WAT    EPW63371  -4.675   0.194   8.529  0.0463 -0.6320 -0.0410
15392WAT      O63372   2.556   3.662   3.433 -0.1160 -0.1084 -0.3021
15392WAT     H163373   2.560   3.717   3.354 -1.2084 -1.5955 -1.4531
15392WAT     H263374   2.489   3.704   3.487 -1.3393 -0.5656 -1.4150
15392WAT    EPW63375   2.548   3.675   3.430 -0.4214 -0.3648 -0.6007
15393WAT      O63376   0.392   9.247   0.445  0.2620  0.3236 -0.3088
15393WAT     H163377   0.395   9.214   0.535 -0.1231  0.4267 -0.2576
15393WAT     H263378   0.330   9.320   0.449 -3.2546 -2.3226 -1.5304
15393WAT    EPW63379   0.385   9.252   0.458 -0.2526 -0.0119 -0.4632
15394WAT      O63380   1.110   4.216   3.384  0.9562 -0.8352 -0.0583
15394WAT     H163381   1.164   4.252   3.313  0.4227  0.4959  0.1844
15394WAT     H263382   1.102   4.288   3.447 -0.9355 -1.0417  0.0065
15394WAT    EPW63383   1.116   4.230   3.383  0.6363 -0.6869 -0.0176
15395WAT      O63384  -3.729   3.783   8.123 -0.3341 -0.2247 -0.2496
15395WAT     H163385  -3.812   3.820   8.153 -2.7210 -4.4149 -0.9044
15395WAT     H263386  -3.715   3.706   8.179  2.0108 -0.8291 -1.5214
15395WAT    EPW63387  -3.738   3.778   8.135 -0.3395 -0.8571 -0.5035
15396WAT      O63388  -5.514   3.259   7.276 -0.2415 -0.0629  0.8505
15396WAT     H163389  -5.590   3.307   7.308  1.3507  2.9895  0.5366
15396WAT     H263390  -5.538   3.232   7.187 -1.1500  0.3764  0.9545
15396WAT    EPW63391  -5.527   3.262   7.269 -0.1514  0.3976  0.8228
15397WAT      O63392  -0.864   9.098   6.577  0.0668  0.7733 -0.7295
15397WAT     H163393  -0.819   9.076   6.496  1.4679  2.8418 -0.5956
15397WAT     H263394  -0.838   9.031   6.639 -0.2149 -0.2595 -1.7007
15397WAT    EPW63395  -0.855   9.086   6.575  0.2145  0.9098 -0.8397
15398WAT      O63396  -1.103   1.558   1.051 -0.2699 -0.1291 -0.1446
15398WAT     H163397  -1.026   1.611   1.073 -0.3293 -0.3832  0.6876
15398WAT     H263398  -1.117   1.575   0.957  1.0311 -0.3816 -0.4016
15398WAT    EPW63399  -1.095   1.567   1.041 -0.1062 -0.1959 -0.0687
15399WAT      O63400   2.178   9.013   2.929 -0.3154 -0.4245 -0.6219
15399WAT     H163401   2.181   8.918   2.945  2.2145 -0.2568  0.3265
15399WAT     H263402   2.267   9.043   2.945 -0.6636  1.9109 -2.4964
15399WAT    EPW63403   2.190   9.004   2.934 -0.0277 -0.0944 -0.7442
15400WAT      O63404  -2.343   7.700   1.542  0.0014  0.4687  0.3529
15400WAT     H163405  -2.338   7.646   1.620  0.4346  0.0823  0.0686
15400WAT     H263406  -2.266   7.756   1.547  0.1279  0.3200  0.1212
15400WAT    EPW63407  -2.332   7.700   1.553  0.0752  0.3982  0.2849
15401WAT      O63408   1.009   5.216   7.110  0.6962 -0.2623  0.8487
15401WAT     H163409   0.977   5.195   7.198 -0.0361 -0.3359  0.5747
15401WAT     H263410   1.032   5.309   7.114  0.9433 -0.3392  1.1994
15401WAT    EPW63411   1.008   5.226   7.122  0.6322 -0.2820  0.8588
15402WAT      O63412   2.500   6.852   5.912  0.2891 -0.0802 -0.4470
15402WAT     H163413   2.591   6.883   5.911  1.2993 -2.6257  1.7809
15402WAT     H263414   2.477   6.845   5.819  3.0991 -1.2083 -1.1738
15402WAT    EPW63415   2.509   6.855   5.900  0.7929 -0.5646 -0.2489
15403WAT      O63416   0.530   9.167   8.180 -0.2075  0.7120 -0.0934
15403WAT     H163417   0.491   9.250   8.153 -2.6827  1.4518  4.7163
15403WAT     H263418   0.603   9.191   8.236  0.3371 -0.4738 -0.2503
15403WAT    EPW63419   0.534   9.181   8.184 -0.4621  0.6533  0.5202
15404WAT      O63420  -7.484   9.907   7.504 -1.5180 -0.1446  0.1393
15404WAT     H163421  -7.489   9.977   7.439 -0.9597 -0.1495  0.0866
15404WAT     H263422  -7.534   9.835   7.465 -1.2622 -0.1162 -0.2479
15404WAT    EPW63423  -7.491   9.906   7.490 -1.4107 -0.1411  0.0813
15405WAT      O63424   4.907   3.326   6.196  0.0962 -0.3381 -0.6094
15405WAT     H163425   4.906   3.419   6.177  3.0569 -0.0392  0.1858
15405WAT     H263426   4.922   3.321   6.290 -0.4190 -1.6373 -0.5731
15405WAT    EPW63427   4.909   3.337   6.206  0.4187 -0.4700 -0.4997
15406WAT      O63428  -5.861   6.337   6.943  0.1212 -0.0720  0.3885
15406WAT     H163429  -5.858   6.430   6.919 -0.3197  0.1548  1.1688
15406WAT     H263430  -5.846   6.336   7.038  1.1412 -0.8880  0.2367
15406WAT    EPW63431  -5.859   6.349   6.953  0.1976 -0.1495  0.4714
15407WAT      O63432   6.562   8.884   1.213  0.1378  0.6521  0.1950
15407WAT     H163433   6.547   8.937   1.135 -2.4266 -1.3499 -0.8266
15407WAT     H263434   6.526   8.937   1.285 -1.0611  0.9465 -0.5885
15407WAT    EPW63435   6.555   8.898   1.212 -0.3586  0.4272 -0.0431
15408WAT      O63436   3.614   0.829   4.769  0.3075  0.0657  0.2500
15408WAT     H163437   3.643   0.813   4.680 -0.4350 -1.4655  0.2588
15408WAT     H263438   3.521   0.805   4.769 -0.4634  2.6725  0.7818
15408WAT    EPW63439   3.605   0.824   4.758  0.1080  0.2076  0.3211
15409WAT      O63440   5.758   3.479   1.145 -0.2177 -0.2521 -0.0921
15409WAT     H163441   5.816   3.506   1.217  0.4744  4.4527 -2.0163
15409WAT     H263442   5.813   3.424   1.089  1.4455  1.4589 -0.2414
15409WAT    EPW63443   5.773   3.475   1.147  0.0930  0.5940 -0.3656
15410WAT      O63444   2.230   4.409   7.296  0.1531 -0.6151  0.2140
15410WAT     H163445   2.220   4.471   7.368 -1.3901  2.2909 -2.2340
15410WAT     H263446   2.316   4.431   7.259 -0.6031  0.5418 -0.9550
15410WAT    EPW63447   2.240   4.420   7.300 -0.1502 -0.0792 -0.2630
15411WAT      O63448  -2.933   6.257   5.700 -0.2027  0.1273  0.2900
15411WAT     H163449  -2.935   6.189   5.632 -0.3360  1.6062 -1.2508
15411WAT     H263450  -3.019   6.254   5.740 -0.6998  0.3007 -0.7350
15411WAT    EPW63451  -2.944   6.248   5.696 -0.2857  0.3452 -0.0486
15412WAT      O63452   5.817   9.744   0.620  0.4238 -0.5236  0.0674
15412WAT     H163453   5.850   9.721   0.533  1.4795 -2.0816  0.8287
15412WAT     H263454   5.786   9.834   0.611  0.4088 -0.6829 -1.9346
15412WAT    EPW63455   5.817   9.753   0.607  0.5612 -0.7501 -0.0963
15413WAT      O63456  -7.739   7.526   8.381  0.2030 -0.9608 -0.2907
15413WAT     H163457  -7.651   7.516   8.345 -0.0675 -1.6413 -0.7807
15413WAT     H263458  -7.789   7.569   8.312  0.5456  0.9582  0.6053
15413WAT    EPW63459  -7.734   7.530   8.367  0.2127 -0.7975 -0.2370
15414WAT      O63460   7.608   7.756   0.042  0.5514 -0.2417 -0.9252
15414WAT     H163461   7.604   7.753  -0.054  1.7553  0.5069 -1.0201
15414WAT     H263462   7.593   7.848   0.064 -0.1780 -0.4884 -0.3639
15414WAT    EPW63463   7.606   7.768   0.032  0.6142 -0.1755 -0.8637
15415WAT      O63464   3.602   9.528   6.043  0.3317  0.3548 -0.4212
15415WAT     H163465   3.607   9.571   5.958  2.3713  0.8518 -0.0993
15415WAT     H263466   3.547   9.586   6.096  0.6906  1.0831 -0.8323
15415WAT    EPW63467   3.595   9.542   6.039  0.6480  0.5169 -0.4332
15416WAT      O63468   9.211   0.694   2.050  0.2552  0.3295  0.0753
15416WAT     H163469   9.179   0.605   2.037 -0.1344  0.5915 -0.7818
15416WAT     H263470   9.176   0.720   2.136  0.2493 -0.2806  0.2621
15416WAT    EPW63471   9.202   0.686   2.060  0.2031  0.2836 -0.0132
15417WAT      O63472   3.377   4.547   4.750  0.6275  0.4882  0.4664
15417WAT     H163473   3.339   4.614   4.693 -0.7517  0.2513  1.0633
15417WAT     H263474   3.305   4.521   4.808  1.1468 -1.3999  0.3555
15417WAT    EPW63475   3.362   4.552   4.750  0.5140  0.2077  0.5307
15418WAT      O63476   4.787   6.509   5.039 -0.4730  0.0128 -0.2655
15418WAT     H163477   4.863   6.458   5.068  0.8282  1.2084 -1.4462
15418WAT     H263478   4.718   6.486   5.102  0.3867 -2.2699 -0.0554
15418WAT    EPW63479   4.788   6.499   5.051 -0.1881 -0.1307 -0.3934
15419WAT      O63480  -5.813   4.646   7.082  0.3042 -0.3421 -0.6214
15419WAT     H163481  -5.719   4.659   7.086  0.0833  1.4111  0.2424
15419WAT     H263482  -5.831   4.579   7.148  0.6598  1.8583  1.8967
15419WAT    EPW63483  -5.803   4.639   7.092  0.3221  0.1793 -0.1752
15420WAT      O63484   5.275   4.294   2.276  0.1022  0.9901 -0.4014
15420WAT     H163485   5.334   4.264   2.346 -1.7203  3.5014  2.4701
15420WAT     H263486   5.304   4.383   2.257  0.4558  0.4105 -2.8561
15420WAT    EPW63487   5.287   4.302   2.283 -0.0916  1.2450 -0.3464
15421WAT      O63488   4.851   1.937   3.434  0.8720  0.7757 -0.1860
15421WAT     H163489   4.942   1.936   3.464  1.2663  0.9263 -1.3346
15421WAT     H263490   4.845   1.862   3.375  0.0655  0.3863  0.3761
15421WAT    EPW63491   4.862   1.927   3.431  0.8178  0.7442 -0.2633
15422WAT      O63492   2.782   6.351   7.483  0.2849  0.4609 -0.2220
15422WAT     H163493   2.743   6.369   7.398  1.1658  1.9309 -0.3504
15422WAT     H263494   2.847   6.420   7.495 -0.0678  0.5058  1.8043
15422WAT    EPW63495   2.786   6.362   7.473  0.3545  0.6607  0.0281
15423WAT      O63496  -1.018   2.339   4.640 -0.0614  0.2594 -0.0361
15423WAT     H163497  -0.974   2.391   4.572 -0.5593  0.3081 -0.3290
15423WAT     H263498  -0.964   2.351   4.718  1.5792 -1.2841 -0.8488
15423WAT    EPW63499  -1.005   2.348   4.641  0.0893  0.0622 -0.1819
15424WAT      O63500  -1.937   2.142   6.533  0.3204  0.6404 -0.3761
15424WAT     H163501  -1.964   2.142   6.442 -0.0665 -0.0336 -0.2678
15424WAT     H263502  -2.001   2.085   6.577  1.4788 -0.3805  0.0196
15424WAT    EPW63503  -1.949   2.135   6.527  0.4222  0.4168 -0.3097
15425WAT      O63504   5.029   8.851   4.549  0.2025 -0.9340  0.3230
15425WAT     H163505   5.043   8.941   4.578 -0.3838 -0.6857 -0.1393
15425WAT     H263506   4.990   8.808   4.624  0.1203 -0.6995  0.4159
15425WAT    EPW63507   5.026   8.857   4.563  0.1144 -0.8702  0.2742
15426WAT      O63508  -2.712   6.983   8.779  0.0566  0.1967  0.4915
15426WAT     H163509  -2.633   7.028   8.750 -0.2528  1.7145  1.8179
15426WAT     H263510  -2.765   7.052   8.819 -1.7455 -0.8607  0.0632
15426WAT    EPW63511  -2.709   6.998   8.780 -0.2218  0.2575  0.6094
15427WAT      O63512  -3.693   5.620   8.240 -0.2968 -0.5802  0.5858
15427WAT     H163513  -3.644   5.662   8.169  0.4948  1.1197  2.0618
15427WAT     H263514  -3.781   5.657   8.232 -0.2293 -0.4468  0.4425
15427WAT    EPW63515  -3.698   5.631   8.229 -0.1836 -0.3386  0.7615
15428WAT      O63516   0.983   1.951   8.018 -0.5012 -0.2536 -0.6049
15428WAT     H163517   1.007   1.866   7.983 -1.1892 -0.6538 -0.1193
15428WAT     H263518   0.888   1.955   8.009 -0.7401 -0.4728  1.3982
15428WAT    EPW63519   0.974   1.940   8.012 -0.6234 -0.3353 -0.2770
15429WAT      O63520   4.128   1.486   3.168 -0.1113 -0.8738  0.5372
15429WAT     H163521   4.146   1.566   3.217  1.2168 -0.3718 -0.6951
15429WAT     H263522   4.035   1.491   3.147  0.2578  1.2520 -0.9739
15429WAT    EPW63523   4.118   1.497   3.171  0.1125 -0.5272  0.1752
15430WAT      O63524   0.902   3.600   6.733  0.6444  0.1606 -0.6996
15430WAT     H163525   0.957   3.668   6.694 -0.2318  0.4063 -1.5370
15430WAT     H263526   0.870   3.639   6.814 -1.5568  1.6168 -2.1834
15430WAT    EPW63527   0.905   3.614   6.738  0.2385  0.3850 -1.0056
15431WAT      O63528   1.732   6.828   3.041 -0.2181  0.7280 -0.6218
15431WAT     H163529   1.742   6.751   2.986  1.4399  0.1942  0.3647
15431WAT     H263530   1.820   6.865   3.048 -0.8107  2.1541 -0.2691
15431WAT    EPW63531   1.745   6.823   3.035 -0.0775  0.8457 -0.4451
15432WAT      O63532   3.701   4.314   4.241  0.6367  0.3145  0.0461
15432WAT     H163533   3.669   4.319   4.331 -0.5816 -0.7261 -0.3051
15432WAT     H263534   3.787   4.357   4.245 -0.0208  1.6413  1.3757
15432WAT    EPW63535   3.708   4.321   4.254  0.3893  0.3524  0.1752
15433WAT      O63536  -3.145   3.681   8.257 -0.0256 -0.4560  0.6500
15433WAT     H163537  -3.095   3.729   8.192  0.3552 -0.3074  1.0492
15433WAT     H263538  -3.093   3.602   8.274 -0.4164 -0.7821  0.3393
15433WAT    EPW63539  -3.132   3.677   8.251 -0.0269 -0.4793  0.6618
15434WAT      O63540   3.701  10.176   1.707  0.0428 -0.5070  0.1349
15434WAT     H163541   3.780  10.176   1.653 -0.6335  0.8673 -0.9347
15434WAT     H263542   3.631  10.201   1.646 -0.5706  2.3916  1.8354
15434WAT    EPW63543   3.702  10.180   1.692 -0.1272  0.0567  0.2182
15435WAT      O63544  -1.016   5.570   1.016 -0.0963  0.1724  0.1161
15435WAT     H163545  -0.992   5.657   0.983 -1.0380  0.6595  0.6725
15435WAT     H263546  -1.019   5.515   0.938  2.3926  0.1474 -0.0437
15435WAT    EPW63547  -1.013   5.574   1.001  0.1078  0.2334  0.1684
15436WAT      O63548   6.186   7.869   2.880  0.0522 -0.0230  0.3221
15436WAT     H163549   6.243   7.946   2.883  0.0599 -0.0325  2.9569
15436WAT     H263550   6.149   7.863   2.968 -3.9876 -0.0974 -1.1719
15436WAT    EPW63551   6.189   7.878   2.892 -0.4797 -0.0341  0.4725
15437WAT      O63552   7.663   2.930   0.572 -0.6314  0.2075 -0.7323
15437WAT     H163553   7.619   2.852   0.605 -0.0914 -1.2416 -3.1271
15437WAT     H263554   7.755   2.903   0.562 -0.4328  1.1411 -1.5892
15437WAT    EPW63555   7.670   2.916   0.575 -0.5341  0.1396 -1.1611
15438WAT      O63556   1.490   2.854   4.906 -0.0940 -0.6324  0.1571
15438WAT     H163557   1.489   2.939   4.861 -0.9967 -0.2715  0.8132
15438WAT     H263558   1.404   2.816   4.887 -0.5076 -0.4538  1.5742
15438WAT    EPW63559   1.478   2.860   4.898 -0.2676 -0.5612  0.4303
15439WAT      O63560   8.036   7.415   0.508  0.3203  0.0358 -0.1757
15439WAT     H163561   7.998   7.328   0.520  1.6158 -0.8437 -2.0344
15439WAT     H263562   7.961   7.473   0.504 -0.5816 -0.9923  0.9106
15439WAT    EPW63563   8.021   7.411   0.509  0.3724 -0.2160 -0.2776
15440WAT      O63564  -4.937   8.661   5.920 -0.2031  0.1921  0.1122
15440WAT     H163565  -4.879   8.665   5.997  0.3160  0.7399 -0.2971
15440WAT     H263566  -4.978   8.575   5.926 -0.1206  0.1953  0.9703
15440WAT    EPW63567  -4.935   8.650   5.931 -0.1240  0.2646  0.1714
15441WAT      O63568   5.536   9.756   1.991  0.4677 -0.6476 -0.2798
15441WAT     H163569   5.609   9.748   1.929  0.4412 -0.7091 -0.3031
15441WAT     H263570   5.576   9.741   2.077  0.8426  1.1389 -0.0960
15441WAT    EPW63571   5.551   9.753   1.994  0.5136 -0.4201 -0.2586
15442WAT      O63572  -1.243   7.582   7.984 -1.2962 -1.3609  0.6071
15442WAT     H163573  -1.256   7.662   8.035 -1.4692 -0.5233 -0.7000
15442WAT     H263574  -1.150   7.561   7.995 -1.3736 -1.3053  1.4097
15442WAT    EPW63575  -1.232   7.589   7.992 -1.3292 -1.2431  0.5405
15443WAT      O63576   2.614   7.921   4.579 -0.2678  0.5112  0.3232
15443WAT     H163577   2.525   7.888   4.563 -1.3298  1.9673  2.6336
15443WAT     H263578   2.604   7.978   4.655  2.7358  0.4925  0.8277
15443WAT    EPW63579   2.601   7.924   4.587 -0.0117  0.7010  0.6945
15444WAT      O63580  -1.332   3.498   8.840 -0.2809  0.4221  0.4143
15444WAT     H163581  -1.335   3.590   8.813 -2.4512  0.0580 -0.8442
15444WAT     H263582  -1.424   3.471   8.841  0.3724 -2.2366 -1.1288
15444WAT    EPW63583  -1.345   3.507   8.837 -0.4810  0.0234  0.0448
15445WAT      O63584   3.323   4.731   3.785 -0.2912  0.2198  0.0819
15445WAT     H163585   3.264   4.795   3.824 -0.0475  0.3144  0.3049
15445WAT     H263586   3.405   4.742   3.833  0.7696  1.9193 -1.9555
15445WAT    EPW63587   3.326   4.741   3.797 -0.1192  0.4566 -0.1574
15446WAT      O63588   5.914   4.120   4.213 -0.0576 -0.2324 -0.2627
15446WAT     H163589   5.822   4.120   4.240 -1.0423  0.5701 -3.1951
15446WAT     H263590   5.938   4.212   4.208  0.5924 -0.4074 -0.4580
15446WAT    EPW63591   5.905   4.132   4.216 -0.1018 -0.1497 -0.6752
15447WAT      O63592   4.522   9.939   2.885 -0.0656 -0.0048 -0.3584
15447WAT     H163593   4.489   9.895   2.963  3.7518 -1.2549  0.7783
15447WAT     H263594   4.445   9.952   2.830 -2.5753 -1.0996  2.6233
15447WAT    EPW63595   4.508   9.935   2.888  0.1068 -0.3142  0.1848
15448WAT      O63596  -1.737   0.870   3.455  0.7337  0.3494 -0.0545
15448WAT     H163597  -1.754   0.919   3.535 -0.7233 -0.9982  0.5150
15448WAT     H263598  -1.661   0.816   3.475  1.3961  1.2175 -0.1691
15448WAT    EPW63599  -1.729   0.869   3.468  0.6289  0.2861  0.0055
15449WAT      O63600   4.406   7.178   5.696  0.1628 -0.2644  0.0186
15449WAT     H163601   4.329   7.198   5.642  1.0681  0.0461 -1.2109
15449WAT     H263602   4.389   7.223   5.779 -0.5077  0.6927 -0.6109
15449WAT    EPW63603   4.394   7.187   5.700  0.1938 -0.0970 -0.2265
15450WAT      O63604   2.258   7.005   5.028  0.4980  0.3623 -0.3015
15450WAT     H163605   2.303   7.000   5.112 -0.8688  2.3610  0.6325
15450WAT     H263606   2.325   6.984   4.963  1.9256  0.1025  1.2008
15450WAT    EPW63607   2.272   7.001   5.031  0.5060  0.5915  0.0198
15451WAT      O63608   2.897   5.303   0.663  0.2219  0.5112 -0.8269
15451WAT     H163609   2.866   5.264   0.745  2.5231 -1.0126 -0.6118
15451WAT     H263610   2.851   5.255   0.594  2.4668 -2.2998 -0.5386
15451WAT    EPW63611   2.887   5.292   0.665  0.8216 -0.0606 -0.7605
15452WAT      O63612   2.094   4.972   0.285  0.3758  0.1562  0.5189
15452WAT     H163613   2.160   5.031   0.248  0.1853  0.6745  0.9882
15452WAT     H263614   2.091   4.898   0.224  1.9419 -0.2506  0.8966
15452WAT    EPW63615   2.102   4.970   0.272  0.5573  0.1709  0.6306
15453WAT      O63616  -3.708   7.273   1.985  0.2867  0.2458 -0.3207
15453WAT     H163617  -3.657   7.354   1.996 -0.6342  0.7093  0.7251
15453WAT     H263618  -3.779   7.298   1.926 -1.1311  0.7695  1.5408
15453WAT    EPW63619  -3.710   7.287   1.979 -0.0217  0.3760  0.0628
15454WAT      O63620   3.051   2.297   6.358 -0.0091  0.4708  0.5926
15454WAT     H163621   3.008   2.292   6.273 -1.1036  1.3339  1.0562
15454WAT     H263622   3.051   2.207   6.390  0.9461  0.0428 -0.5465
15454WAT    EPW63623   3.045   2.284   6.351 -0.0275  0.5282  0.5035
15455WAT      O63624  -1.049   5.386   0.296 -0.1750 -1.3975  0.3317
15455WAT     H163625  -1.100   5.377   0.377 -0.0217 -2.3852  0.3353
15455WAT     H263626  -1.071   5.473   0.263  0.7481 -0.4165  2.1197
15455WAT    EPW63627  -1.059   5.396   0.303 -0.0330 -1.3983  0.5680
15456WAT      O63628   3.831   2.691   5.132 -0.3366  0.7613  0.1813
15456WAT     H163629   3.817   2.741   5.212 -0.5726  2.6240 -0.9634
15456WAT     H263630   3.919   2.716   5.103  0.5964 -1.4317  0.8281
15456WAT    EPW63631   3.841   2.701   5.139 -0.2447  0.7179  0.1156
15457WAT      O63632   1.735   0.855   3.969  0.0907  0.5983  0.5365
15457WAT     H163633   1.725   0.847   4.064  0.6060 -0.2861  0.5270
15457WAT     H263634   1.715   0.947   3.951  0.2802  0.8562  1.5396
15457WAT    EPW63635   1.731   0.866   3.980  0.1837  0.5157  0.6675
15458WAT      O63636  -3.188   5.480   8.026 -0.6857 -0.1028 -0.4616
15458WAT     H163637  -3.250   5.465   7.954  2.4704 -1.6766 -3.0926
15458WAT     H263638  -3.172   5.394   8.063 -1.5665  0.5741  1.6997
15458WAT    EPW63639  -3.194   5.467   8.021 -0.3856 -0.2210 -0.5236
15459WAT      O63640  -0.594   2.791   6.660 -0.3044  0.4961 -0.3086
15459WAT     H163641  -0.552   2.784   6.574  1.3108  0.8975  0.3950
15459WAT     H263642  -0.600   2.701   6.691  1.2086  0.4915  0.0666
15459WAT    EPW63643  -0.589   2.778   6.653  0.1082  0.5485 -0.1662
15460WAT      O63644  -1.679   5.805   1.511  0.6345 -0.1253  0.2624
15460WAT     H163645  -1.676   5.720   1.554  3.8522 -0.6621 -0.7757
15460WAT     H263646  -1.733   5.859   1.569 -0.1669 -2.3952  1.7722
15460WAT    EPW63647  -1.685   5.801   1.524  0.9532 -0.4957  0.3247
15461WAT      O63648  -4.653   6.264   7.948  0.1376  0.0512  0.2236
15461WAT     H163649  -4.733   6.233   7.906 -0.8802  2.9846 -0.2808
15461WAT     H263650  -4.671   6.355   7.970  2.7832  0.3594  1.6371
15461WAT    EPW63651  -4.666   6.272   7.945  0.3524  0.4787  0.3436
15462WAT      O63652  -3.817   7.699   2.877 -0.1999  0.3501 -0.4313
15462WAT     H163653  -3.741   7.648   2.850 -0.0703  1.8158 -3.2168
15462WAT     H263654  -3.878   7.635   2.914  2.9127 -0.6690  3.5704
15462WAT    EPW63655  -3.815   7.684   2.878  0.2278  0.4089 -0.2708
15463WAT      O63656  -3.347   3.077   8.432  0.5484  0.1246  0.4322
15463WAT     H163657  -3.364   3.043   8.520 -1.6224  3.3538  1.4546
15463WAT     H263658  -3.266   3.127   8.440  0.5436  0.1220  0.4932
15463WAT    EPW63659  -3.339   3.079   8.444  0.2615  0.5503  0.5746
15464WAT      O63660  -5.934   7.672   6.605 -0.2105  0.4300  0.3045
15464WAT     H163661  -5.888   7.612   6.665  1.6530  1.5409  0.0687
15464WAT     H263662  -5.979   7.614   6.543  1.2065 -0.7326  0.3095
15464WAT    EPW63663  -5.934   7.656   6.605  0.2220  0.4232  0.2742
15465WAT      O63664   6.447   3.696   1.082 -0.2381 -0.9940  0.0435
15465WAT     H163665   6.371   3.730   1.035 -0.7344 -2.9627 -0.6721
15465WAT     H263666   6.521   3.716   1.026 -0.6306 -1.7998 -0.8000
15465WAT    EPW63667   6.446   3.703   1.069 -0.3555 -1.3598 -0.1621
15466WAT      O63668   1.121   2.857   1.756  0.1775 -0.0231  0.0333
15466WAT     H163669   1.071   2.806   1.692 -1.2908  1.2832  0.0912
15466WAT     H263670   1.062   2.927   1.782  0.4243 -0.9411  3.4769
15466WAT    EPW63671   1.107   2.859   1.751  0.0164  0.0280  0.4951
15467WAT      O63672   1.693   9.520   2.882  0.4033 -0.3330  0.7245
15467WAT     H163673   1.649   9.564   2.809  0.3425  0.0496  0.9881
15467WAT     H263674   1.714   9.433   2.848  3.5694  0.9564 -1.0007
15467WAT    EPW63675   1.690   9.515   2.868  0.8128 -0.1125  0.5318
15468WAT      O63676   6.613   6.399   1.477  0.3666  0.3209  0.1309
15468WAT     H163677   6.572   6.411   1.563  0.5551  3.2690 -0.0943
15468WAT     H263678   6.540   6.376   1.419 -0.1124  0.3557  0.7121
15468WAT    EPW63679   6.598   6.398   1.480  0.3283  0.7143  0.1778
15469WAT      O63680   0.586   2.833   1.469  0.0184 -0.2559 -0.1400
15469WAT     H163681   0.511   2.889   1.490  0.9247  1.0699 -0.3804
15469WAT     H263682   0.616   2.863   1.383 -0.5511 -2.2984 -1.1322
15469WAT    EPW63683   0.580   2.844   1.460  0.0629 -0.3505 -0.3026
15470WAT      O63684  -3.165   2.518   6.748 -0.0133 -0.2940 -0.8965
15470WAT     H163685  -3.084   2.565   6.769 -1.1650  1.7419 -0.8125
15470WAT     H263686  -3.150   2.429   6.782  1.2844  0.6829  1.2956
15470WAT    EPW63687  -3.152   2.512   6.755  0.0060  0.1035 -0.5963
15471WAT      O63688   2.726   6.121   4.062  0.9089 -0.3215 -0.1454
15471WAT     H163689   2.705   6.061   4.133  1.0098  0.0576  0.2063
15471WAT     H263690   2.674   6.199   4.079 -0.9689 -1.1102 -1.8282
15471WAT    EPW63691   2.717   6.123   4.074  0.6746 -0.3755 -0.3209
15472WAT      O63692   6.330   4.809   2.540 -0.0222  0.5579 -0.6304
15472WAT     H163693   6.319   4.718   2.510 -0.1836 -0.0361  1.1355
15472WAT     H263694   6.361   4.855   2.462  2.9425 -1.5922 -0.8962
15472WAT    EPW63695   6.333   4.803   2.526  0.3476  0.1960 -0.4326
15473WAT      O63696   4.865   7.360   2.309  0.0915  0.2478 -0.9341
15473WAT     H163697   4.928   7.306   2.357  1.0860  2.5940  0.6210
15473WAT     H263698   4.790   7.368   2.369 -0.4488 -0.1391 -1.5459
15473WAT    EPW63699   4.863   7.354   2.323  0.1514  0.5062 -0.8098
15474WAT      O63700   4.712   4.133   4.639 -0.5736 -0.0405  0.4079
15474WAT     H163701   4.713   4.150   4.545 -2.5013  0.7268  0.4860
15474WAT     H263702   4.619   4.133   4.663 -0.1373 -0.3130  2.3056
15474WAT    EPW63703   4.699   4.135   4.630 -0.7703  0.0248  0.6683
15475WAT      O63704  -0.949   8.194   5.170 -0.6188 -0.1244 -0.4391
15475WAT     H163705  -0.935   8.167   5.079 -0.9408  0.9510 -0.8322
15475WAT     H263706  -0.941   8.290   5.167  0.1343 -0.1328  0.8147
15475WAT    EPW63707  -0.946   8.203   5.158 -0.5620  0.0167 -0.3254
15476WAT      O63708  -0.338   1.237   0.822  0.1298  0.1393  0.2178
15476WAT     H163709  -0.383   1.306   0.873  0.9577 -0.3656  1.6980
15476WAT     H263710  -0.351   1.158   0.873  5.8463  0.5038  3.0590
15476WAT    EPW63711  -0.346   1.236   0.836  0.9929  0.1208  0.7877
15477WAT      O63712   1.844   6.903   4.298 -0.4312 -0.8935 -0.1213
15477WAT     H163713   1.926   6.874   4.258  0.4574 -1.4894  2.0310
15477WAT     H263714   1.776   6.860   4.246  0.6376 -1.4206 -1.1431
15477WAT    EPW63715   1.846   6.894   4.286 -0.1730 -1.0417  0.0279
15478WAT      O63716  -3.838   5.144   4.840  0.1794 -0.5812  0.0521
15478WAT     H163717  -3.885   5.227   4.843  0.6055 -0.3340 -0.2323
15478WAT     H263718  -3.894   5.084   4.890 -0.4467 -0.2913 -0.2860
15478WAT    EPW63719  -3.852   5.147   4.847  0.1531 -0.5105 -0.0300
15479WAT      O63720   7.803   2.029   0.721 -0.0633 -0.2350 -0.5577
15479WAT     H163721   7.782   2.071   0.804  2.9502  1.3333 -0.4386
15479WAT     H263722   7.776   2.093   0.654  0.4659 -0.0373 -0.5908
15479WAT    EPW63723   7.797   2.043   0.723  0.4039 -0.0020 -0.5464
15480WAT      O63724   1.685  10.112   8.475  0.0907  0.6469 -0.6502
15480WAT     H163725   1.761  10.057   8.452  1.4860  2.4751 -0.6006
15480WAT     H263726   1.704  10.143   8.563 -0.1094  2.0701 -1.0874
15480WAT    EPW63727   1.698  10.109   8.483  0.2483  1.0757 -0.7014
15481WAT      O63728   2.316   6.485   2.996  0.3992 -0.6269  0.4088
15481WAT     H163729   2.385   6.419   2.995  1.2342  0.2090  1.3339
15481WAT     H263730   2.339   6.545   2.925  0.0866 -0.8746  0.0940
15481WAT    EPW63731   2.328   6.485   2.986  0.4681 -0.5493  0.4892
15482WAT      O63732   2.130   5.006   4.361  0.3180 -0.1535  0.7072
15482WAT     H163733   2.049   4.959   4.382 -1.5038  2.6925  0.5845
15482WAT     H263734   2.105   5.066   4.291  2.7853  0.2634  0.1052
15482WAT    EPW63735   2.116   5.007   4.354  0.4032  0.2768  0.6115
15483WAT      O63736   4.214   5.717   1.715 -0.3718 -0.0492  0.5626
15483WAT     H163737   4.195   5.777   1.642  0.1637 -0.6787 -0.1106
15483WAT     H263738   4.279   5.763   1.768  1.8803 -0.9568 -1.2568
15483WAT    EPW63739   4.220   5.731   1.712 -0.0041 -0.2518  0.2339
15484WAT      O63740  -2.841   9.372   5.703  0.1024  0.3101  0.7725
15484WAT     H163741  -2.747   9.356   5.697  0.5329  2.5388  0.7060
15484WAT     H263742  -2.877   9.335   5.622  1.2027  1.0073 -0.0714
15484WAT    EPW63743  -2.833   9.365   5.691  0.3043  0.6962  0.6523
15485WAT      O63744   7.237   5.282   2.166  0.1045  0.6429  0.9558
15485WAT     H163745   7.240   5.269   2.261 -3.1892  2.1339  1.3804
15485WAT     H263746   7.205   5.199   2.132  1.2135  0.1319  1.0979
15485WAT    EPW63747   7.233   5.269   2.174 -0.1836  0.7722  1.0306
15486WAT      O63748   1.705   3.992   0.059  0.1712 -0.3638  0.6731
15486WAT     H163749   1.717   3.983   0.153 -2.0142 -0.0116  1.0257
15486WAT     H263750   1.612   4.007   0.047  0.5707  0.9372 -1.4590
15486WAT    EPW63751   1.695   3.993   0.069 -0.0643 -0.1458  0.4384
15487WAT      O63752   5.982   2.276   4.743 -0.1083  0.0468 -0.2544
15487WAT     H163753   6.042   2.202   4.752 -0.5082 -0.3267 -0.6442
15487WAT     H263754   5.897   2.237   4.724 -1.1532  0.4268  3.1166
15487WAT    EPW63755   5.979   2.261   4.742 -0.2990  0.0477  0.1388
15488WAT      O63756   0.923   3.302   8.132  0.2322 -0.3364 -0.0102
15488WAT     H163757   0.830   3.280   8.126 -0.0547  1.1164 -3.4757
15488WAT     H263758   0.951   3.268   8.217 -2.8541 -2.9920  0.1061
15488WAT    EPW63759   0.915   3.295   8.143 -0.2127 -0.4951 -0.4520
15489WAT      O63760  -0.619   0.666   5.137 -0.4626  0.4932 -0.0069
15489WAT     H163761  -0.680   0.671   5.211 -0.1693 -0.3119  0.3040
15489WAT     H263762  -0.657   0.599   5.080 -1.0733  1.6218 -0.9658
15489WAT    EPW63763  -0.632   0.658   5.139 -0.5045  0.5359 -0.0923
15490WAT      O63764  -2.489   9.422   3.757 -0.2047 -0.1254 -0.4683
15490WAT     H163765  -2.428   9.396   3.688 -0.8430 -0.6263 -0.8573
15490WAT     H263766  -2.470   9.515   3.773  0.7063 -0.2920 -0.5173
15490WAT    EPW63767  -2.479   9.431   3.750 -0.1687 -0.2131 -0.5261
15491WAT      O63768   3.951   3.559   0.853 -0.0950 -0.1909 -0.3493
15491WAT     H163769   3.906   3.570   0.769 -2.3928  0.8796  0.9473
15491WAT     H263770   3.946   3.465   0.870 -1.3063 -0.1804 -0.5469
15491WAT    EPW63771   3.945   3.548   0.844 -0.5578 -0.0483 -0.2044
15492WAT      O63772   3.902   3.746   4.417  0.5643  0.0014  0.4186
15492WAT     H163773   3.930   3.770   4.506  1.1908 -0.1228  0.2639
15492WAT     H263774   3.976   3.697   4.382 -1.0949 -3.3292  1.1695
15492WAT    EPW63775   3.916   3.743   4.424  0.4281 -0.4543  0.4973
15493WAT      O63776   2.681   3.592   4.656  0.5619 -0.2829  0.1324
15493WAT     H163777   2.655   3.571   4.567 -1.4391 -2.2132  1.0672
15493WAT     H263778   2.610   3.558   4.711  0.6778  2.6521  2.3911
15493WAT    EPW63779   2.668   3.585   4.652  0.3133 -0.1503  0.5536
15494WAT      O63780   0.302   2.726   6.234 -0.1122 -0.0518 -0.6239
15494WAT     H163781   0.333   2.759   6.150  0.6963  1.2121  0.1498
15494WAT     H263782   0.207   2.720   6.223 -0.0877  0.7614 -1.4046
15494WAT    EPW63783   0.293   2.730   6.222 -0.0023  0.2222 -0.6249
15495WAT      O63784   2.120   9.740   6.250  0.4745 -0.1332  0.0729
15495WAT     H163785   2.197   9.787   6.216 -1.0313  3.0312  0.6490
15495WAT     H263786   2.055   9.750   6.181 -1.1764  2.4202  1.8201
15495WAT    EPW63787   2.122   9.748   6.236  0.0582  0.6208  0.3793
15496WAT      O63788   1.305   3.612   2.143  0.4127 -0.2578  0.6072
15496WAT     H163789   1.321   3.615   2.237 -2.1863 -1.1167  1.1498
15496WAT     H263790   1.389   3.638   2.104  0.9068  2.4646  3.1537
15496WAT    EPW63791   1.318   3.616   2.150  0.1351 -0.0120  1.0146
15497WAT      O63792   1.279   9.324   0.500  0.1281 -0.9846 -0.0179
15497WAT     H163793   1.233   9.335   0.417 -0.2798 -1.8106  0.0918
15497WAT     H263794   1.355   9.270   0.477  0.0294 -1.1891  0.1304
15497WAT    EPW63795   1.283   9.318   0.486  0.0613 -1.1206  0.0161
15498WAT      O63796  -3.881   4.329   7.786  0.6627  0.1675  0.2188
15498WAT     H163797  -3.931   4.274   7.846  0.9874  0.3849  0.6923
15498WAT     H263798  -3.827   4.268   7.737  0.7037  0.0265  0.4406
15498WAT    EPW63799  -3.881   4.314   7.787  0.7111  0.1776  0.3104
15499WAT      O63800  -4.592   9.729   4.252  0.3924  0.3838 -0.3127
15499WAT     H163801  -4.533   9.738   4.177  0.4137 -1.1848 -0.5246
15499WAT     H263802  -4.563   9.796   4.313  3.2407 -1.0582  0.0971
15499WAT    EPW63803  -4.581   9.739   4.250  0.7710 -0.0134 -0.2868
15500WAT      O63804  -2.793   5.823   6.070  0.0632  0.4798 -0.2229
15500WAT     H163805  -2.829   5.906   6.040  0.7860  0.2764 -1.8054
15500WAT     H263806  -2.725   5.848   6.133  0.5655  1.1240 -0.9999
15500WAT    EPW63807  -2.788   5.837   6.074  0.2247  0.5379 -0.5343
15501WAT      O63808   1.400   4.282   4.421  0.5230 -0.1308 -0.4119
15501WAT     H163809   1.356   4.332   4.489  1.5885 -0.7610  0.7880
15501WAT     H263810   1.335   4.218   4.391  0.7419 -1.4943  1.7950
15501WAT    EPW63811   1.386   4.280   4.426  0.6924 -0.3939  0.0377
15502WAT      O63812   3.349   1.900   8.511 -0.8200  0.0384 -0.1797
15502WAT     H163813   3.326   1.840   8.440 -0.7475  0.5576 -0.6465
15502WAT     H263814   3.407   1.964   8.470  1.3645 -1.1225  0.9114
15502WAT    EPW63815   3.354   1.900   8.496 -0.5223 -0.0463 -0.0973
15503WAT      O63816   4.967   4.713   1.321 -0.4976 -0.0669 -0.3533
15503WAT     H163817   5.061   4.700   1.329 -0.6010 -0.8262 -0.2895
15503WAT     H263818   4.932   4.686   1.406 -0.8785 -0.9108 -0.7632
15503WAT    EPW63819   4.975   4.708   1.333 -0.5615 -0.2785 -0.3989
15504WAT      O63820  -1.413   5.749   6.994 -0.1225 -0.7189 -0.1811
15504WAT     H163821  -1.457   5.782   7.072  1.2842  0.5080  0.1386
15504WAT     H263822  -1.378   5.664   7.020 -1.0871 -1.0753 -0.0156
15504WAT    EPW63823  -1.414   5.742   7.008 -0.0641 -0.6039 -0.1171
15505WAT      O63824   5.241   2.794   3.002  0.2334  0.0464 -0.6879
15505WAT     H163825   5.285   2.715   2.968 -0.1597 -0.8868  0.8671
15505WAT     H263826   5.220   2.772   3.093 -3.2881  0.4899 -1.2504
15505WAT    EPW63827   5.244   2.780   3.010 -0.2830 -0.0181 -0.5571
15506WAT      O63828   0.447   5.830   3.966 -0.1759 -0.3812 -0.4435
15506WAT     H163829   0.527   5.777   3.962 -0.3036 -0.5017 -1.7583
15506WAT     H263830   0.384   5.781   3.914 -1.0675 -0.1994  0.4428
15506WAT    EPW63831   0.449   5.816   3.959 -0.3104 -0.3734 -0.5001
15507WAT      O63832  -0.982   7.431   6.133  0.5537  0.6772 -0.1421
15507WAT     H163833  -0.995   7.364   6.067 -2.8755 -2.2825  3.0990
15507WAT     H263834  -1.033   7.506   6.102  1.3617  0.4756 -2.0710
15507WAT    EPW63835  -0.990   7.432   6.121  0.2080  0.2601  0.0310
15508WAT      O63836   0.640   6.975   4.117  0.0557 -0.1693 -0.1687
15508WAT     H163837   0.596   6.903   4.073  0.4199 -1.0574  0.8628
15508WAT     H263838   0.571   7.041   4.130 -0.9622 -1.4130  1.1744
15508WAT    EPW63839   0.625   6.974   4.113 -0.0305 -0.4504  0.1445
15509WAT      O63840   5.964   9.343   1.555  0.5624 -0.3457  1.2177
15509WAT     H163841   5.877   9.309   1.532  0.4366  1.1034 -0.6324
15509WAT     H263842   5.948   9.394   1.635  0.1308 -1.7095  2.0509
15509WAT    EPW63843   5.950   9.345   1.563  0.4888 -0.3347  1.0836
15510WAT      O63844   2.134   5.077   2.690  0.5031 -0.7455  0.0332
15510WAT     H163845   2.122   5.169   2.669 -1.1791 -0.8699  0.2910
15510WAT     H263846   2.146   5.034   2.605  0.4002 -0.4111 -0.1517
15510WAT    EPW63847   2.134   5.083   2.676  0.2676 -0.7179  0.0429
15511WAT      O63848  -2.776   2.369   7.189  1.0342 -0.1632 -0.1106
15511WAT     H163849  -2.766   2.297   7.252  1.2107  0.5137  0.6455
15511WAT     H263850  -2.775   2.448   7.243 -0.0602  0.3680 -0.8368
15511WAT    EPW63851  -2.775   2.370   7.205  0.9131 -0.0038 -0.1066
15512WAT      O63852  -2.537   3.606   6.680 -0.1216 -0.0446 -0.8958
15512WAT     H163853  -2.551   3.570   6.767  0.3705  0.1987 -0.7113
15512WAT     H263854  -2.526   3.529   6.624  0.0714 -0.1926 -0.6555
15512WAT    EPW63855  -2.537   3.591   6.684 -0.0312 -0.0319 -0.8397
15513WAT      O63856   3.559   4.048   1.490 -0.2756  0.4402 -0.0886
15513WAT     H163857   3.611   4.018   1.565  4.0712 -0.2408 -3.0165
15513WAT     H263858   3.576   4.142   1.485 -0.8333  0.5457 -0.0618
15513WAT    EPW63859   3.568   4.056   1.499  0.2242  0.3643 -0.4713
15514WAT      O63860   2.065   8.589   3.198  1.0231 -0.1970 -0.0800
15514WAT     H163861   1.975   8.574   3.168  0.9397 -0.4199  0.2697
15514WAT     H263862   2.057   8.659   3.263  1.0650 -0.3936  0.1385
15514WAT    EPW63863   2.052   8.596   3.203  1.0176 -0.2522 -0.0051
15515WAT      O63864  -1.199   2.413   4.166  0.0838 -0.2816 -1.1469
15515WAT     H163865  -1.263   2.343   4.164 -1.1549  0.7239  0.8739
15515WAT     H263866  -1.120   2.373   4.202 -0.1157 -0.9909 -1.4934
15515WAT    EPW63867  -1.197   2.399   4.170 -0.1059 -0.2426 -0.9263
15516WAT      O63868   6.599  10.100   0.762  0.1323 -0.9734 -0.9003
15516WAT     H163869   6.517  10.083   0.715 -1.3533  0.5083  0.9761
15516WAT     H263870   6.572  10.145   0.843  2.8502  0.2807 -0.5519
15516WAT    EPW63871   6.585  10.104   0.767  0.2947 -0.6123 -0.6068
15517WAT      O63872   3.199   8.190   3.299  0.7721 -0.1410 -0.7071
15517WAT     H163873   3.238   8.149   3.375  1.4389 -0.7297 -1.3510
15517WAT     H263874   3.272   8.204   3.239  0.2196  0.0589 -1.3461
15517WAT    EPW63875   3.213   8.187   3.301  0.7871 -0.1926 -0.8763
15518WAT      O63876   3.365   4.166   5.065 -0.3620  0.1153 -0.0111
15518WAT     H163877   3.352   4.153   4.971  0.6834  0.7798 -0.2620
15518WAT     H263878   3.289   4.218   5.092  0.2932  1.5940 -0.8925
15518WAT    EPW63879   3.353   4.171   5.056 -0.1377  0.3979 -0.1607
15519WAT      O63880   8.630   0.629   3.034 -0.2109 -0.3814  0.0300
15519WAT     H163881   8.642   0.657   2.943 -1.0898  0.5680  0.1978
15519WAT     H263882   8.705   0.665   3.080 -0.5874  0.5104 -0.0309
15519WAT    EPW63883   8.641   0.637   3.028 -0.3762 -0.1386  0.0442
15520WAT      O63884  -5.982   8.957   7.360  0.0275  0.1106 -1.1475
15520WAT     H163885  -5.906   9.013   7.371 -0.6575  1.5461 -3.1998
15520WAT     H263886  -5.990   8.911   7.444  0.6896  2.9941  0.6377
15520WAT    EPW63887  -5.973   8.958   7.373  0.0243  0.6804 -1.1826
15521WAT      O63888   0.442   6.507   7.194 -0.0527  0.1295 -0.2164
15521WAT     H163889   0.423   6.591   7.153  1.1693 -0.7482 -2.7504
15521WAT     H263890   0.430   6.442   7.124  2.3500 -1.4430  0.6970
15521WAT    EPW63891   0.438   6.509   7.180  0.4253 -0.1936 -0.4303
15522WAT      O63892   5.288   3.447   2.561 -0.1541  0.0056  0.3096
15522WAT     H163893   5.350   3.505   2.517 -0.3778 -1.6127 -2.3787
15522WAT     H263894   5.204   3.466   2.520 -0.5575 -0.9918  0.6456
15522WAT    EPW63895   5.285   3.457   2.550 -0.2370 -0.3394 -0.0007
15523WAT      O63896  -2.829   3.438   5.143 -0.4884 -0.0990 -0.7367
15523WAT     H163897  -2.782   3.506   5.191 -1.0735 -0.0157 -0.2776
15523WAT     H263898  -2.890   3.486   5.087 -1.9992 -0.2548  0.7095
15523WAT    EPW63899  -2.831   3.453   5.142 -0.7648 -0.1086 -0.4854
15524WAT      O63900  -0.902  10.044   3.796  0.3417  0.4214  0.3504
15524WAT     H163901  -0.953  10.040   3.715 -0.8407  0.0949  1.1025
15524WAT     H263902  -0.959  10.009   3.863  0.3979  2.8605  1.8055
15524WAT    EPW63903  -0.916  10.039   3.794  0.1931  0.7000  0.6416
15525WAT      O63904   1.889   3.835   6.272 -0.3863  0.0963 -0.4826
15525WAT     H163905   1.982   3.817   6.289 -1.1166 -0.9325  3.5652
15525WAT     H263906   1.861   3.763   6.216  1.2863  0.7069 -2.2216
15525WAT    EPW63907   1.898   3.823   6.267 -0.2620  0.0411 -0.1781
15526WAT      O63908  -2.030   8.806   8.885 -0.4159  0.3870 -0.2292
15526WAT     H163909  -1.969   8.754   8.832 -1.1112 -0.8953  0.1814
15526WAT     H263910  -2.053   8.880   8.830  0.6800  0.3184 -0.8035
15526WAT    EPW63911  -2.025   8.809   8.871 -0.3631  0.2084 -0.2508
15527WAT      O63912  -0.445   2.076   2.313 -0.2515  0.8097  0.2996
15527WAT     H163913  -0.458   2.064   2.407  2.2469  0.2578  0.6562
15527WAT     H263914  -0.419   2.167   2.304 -0.8596  0.9653  0.0753
15527WAT    EPW63915  -0.443   2.086   2.324 -0.0022  0.7573  0.3171
15528WAT      O63916  -3.140   1.470   5.989  0.8141  0.2216  0.1716
15528WAT     H163917  -3.049   1.441   5.996  0.3884 -1.7320 -1.4109
15528WAT     H263918  -3.187   1.392   5.959 -1.6564  0.7455  2.2972
15528WAT    EPW63919  -3.134   1.456   5.986  0.4321  0.0330  0.2432
15529WAT      O63920  -1.920   3.489   2.605 -0.9639  0.8459 -0.0169
15529WAT     H163921  -1.947   3.411   2.654 -0.6746  1.4913  1.1887
15529WAT     H263922  -1.921   3.559   2.669 -0.5042  1.7039 -0.9300
15529WAT    EPW63923  -1.924   3.488   2.620 -0.8650  1.0442  0.0217
15530WAT      O63924   0.251   6.815   6.579  0.1363 -0.8752 -0.5475
15530WAT     H163925   0.186   6.796   6.647 -0.3119 -0.9469 -0.9848
15530WAT     H263926   0.324   6.757   6.598  0.4559 -0.1795  0.4749
15530WAT    EPW63927   0.252   6.805   6.591  0.1194 -0.7930 -0.4704
15531WAT      O63928  -5.569   9.267   6.879  0.2673 -0.3650  0.2483
15531WAT     H163929  -5.537   9.218   6.955 -2.2090 -1.0440  0.9292
15531WAT     H263930  -5.539   9.357   6.894  1.0988 -0.7799  1.2265
15531WAT    EPW63931  -5.561   9.272   6.891  0.0503 -0.5093  0.4673
15532WAT      O63932   3.950   6.793   1.314  0.1866 -0.5523  0.4701
15532WAT     H163933   3.987   6.709   1.340 -0.2210 -0.5345  1.1066
15532WAT     H263934   3.918   6.832   1.395  1.7732  0.9225  0.4589
15532WAT    EPW63935   3.951   6.787   1.328  0.3420 -0.3555  0.5526
15533WAT      O63936   5.157   8.126   2.173  0.3880  0.1113  0.3824
15533WAT     H163937   5.209   8.097   2.098  0.7079  0.2014  0.5681
15533WAT     H263938   5.081   8.067   2.174  0.6393 -0.2137  0.2953
15533WAT    EPW63939   5.154   8.115   2.163  0.4632  0.0806  0.3954
15534WAT      O63940  -0.825   0.429   2.502  0.6235  0.1502 -0.2319
15534WAT     H163941  -0.766   0.464   2.435 -0.4335  1.4916 -0.5051
15534WAT     H263942  -0.776   0.440   2.584  0.0586  3.1632 -0.1804
15534WAT    EPW63943  -0.811   0.435   2.504  0.4095  0.7245 -0.2612
15535WAT      O63944  -0.552   4.855   6.906 -0.0467 -0.5198 -0.1893
15535WAT     H163945  -0.550   4.762   6.884  1.6680 -0.9049  1.3939
15535WAT     H263946  -0.464   4.874   6.938  0.4456  2.2682 -2.7515
15535WAT    EPW63947  -0.541   4.845   6.907  0.2444 -0.2029 -0.3183
15536WAT      O63948   5.526   0.340   8.287  0.5386 -0.3276  0.0231
15536WAT     H163949   5.610   0.381   8.308  0.3493 -0.7690  1.7629
15536WAT     H263950   5.461   0.409   8.299  0.2769 -0.9127  2.4431
15536WAT    EPW63951   5.529   0.354   8.291  0.4792 -0.4630  0.5717
15537WAT      O63952  -0.492   8.886   8.294 -0.0121  0.0954 -0.2908
15537WAT     H163953  -0.496   8.918   8.385 -1.6367  0.1001 -0.3284
15537WAT     H263954  -0.576   8.842   8.281  0.6742 -0.9314 -1.4432
15537WAT    EPW63955  -0.504   8.884   8.304 -0.1359 -0.0396 -0.4482
15538WAT      O63956   2.107   4.098   2.032 -0.1700  0.4574  0.2950
15538WAT     H163957   2.113   4.161   1.960  0.2387 -0.5484 -0.5802
15538WAT     H263958   2.098   4.013   1.989  0.6231 -0.2296  1.4252
15538WAT    EPW63959   2.107   4.095   2.017 -0.0116  0.2339  0.3288
15539WAT      O63960   3.664   6.970   1.245 -0.4390 -0.2527  0.2147
15539WAT     H163961   3.754   7.000   1.254  0.1679 -0.9395 -2.6542
15539WAT     H263962   3.611   7.047   1.265  0.8004  0.4003  1.1113
15539WAT    EPW63963   3.669   6.984   1.249 -0.1954 -0.2573 -0.0454
15540WAT      O63964  -0.190   9.728   4.125 -0.4580 -0.5496 -0.9674
15540WAT     H163965  -0.223   9.685   4.204  0.4840  1.9552  0.9005
15540WAT     H263966  -0.261   9.787   4.099  0.2847  0.6097 -0.3753
15540WAT    EPW63967  -0.204   9.730   4.132 -0.2358 -0.0663 -0.6430
15541WAT      O63968  -1.838   9.817   7.418  0.1478  0.1666  0.0508
15541WAT     H163969  -1.925   9.836   7.454 -0.2571 -0.3456 -0.6228
15541WAT     H263970  -1.838   9.722   7.405 -0.1294  0.4428 -2.2820
15541WAT    EPW63971  -1.850   9.807   7.421  0.0578  0.1349 -0.3457
15542WAT      O63972   1.995   1.789   0.377 -0.2886  0.3169 -0.1834
15542WAT     H163973   2.030   1.860   0.322 -0.6174 -0.7781 -1.8743
15542WAT     H263974   1.906   1.817   0.397 -0.1380  0.7710 -0.1348
15542WAT    EPW63975   1.988   1.802   0.372 -0.3121  0.2324 -0.4000
15543WAT      O63976  -0.764   4.203   4.673  0.1168 -0.1356 -0.0268
15543WAT     H163977  -0.841   4.241   4.632  1.6003  1.3514 -1.6439
15543WAT     H263978  -0.714   4.279   4.704  2.0662 -0.8404 -1.2470
15543WAT    EPW63979  -0.767   4.218   4.672  0.5696 -0.0324 -0.4010
15544WAT      O63980   4.376   0.053   3.811 -0.3988  0.0186  0.3453
15544WAT     H163981   4.394   0.101   3.892 -1.7459  0.4493  0.4022
15544WAT     H263982   4.293   0.088   3.780 -0.3899 -0.8484 -0.7050
15544WAT    EPW63983   4.367   0.064   3.817 -0.5751 -0.0389  0.2143
15545WAT      O63984   6.536   0.281   4.871  0.5566 -1.1782 -0.3254
15545WAT     H163985   6.599   0.218   4.905 -0.0529 -0.8823  1.4505
15545WAT     H263986   6.589   0.354   4.840  1.2140 -2.1307 -1.5416
15545WAT    EPW63987   6.551   0.282   4.872  0.5629 -1.2648 -0.2515
15546WAT      O63988  -1.112   2.054   6.733  0.3311 -0.0301  0.5574
15546WAT     H163989  -1.181   2.004   6.690  0.8957 -0.6384  0.3472
15546WAT     H263990  -1.104   2.015   6.820  0.7432 -0.2839  0.4079
15546WAT    EPW63991  -1.120   2.042   6.738  0.4599 -0.1439  0.5100
15547WAT      O63992  -2.288   5.330   8.772  0.4856  0.4810  0.1535
15547WAT     H163993  -2.271   5.265   8.704 -1.9531  0.2173 -0.3003
15547WAT     H263994  -2.309   5.279   8.850 -1.5169  0.6374 -0.2239
15547WAT    EPW63995  -2.289   5.315   8.773 -0.1001  0.4668  0.0443
15548WAT      O63996  -4.329   8.796   3.680 -0.1516 -0.3771 -0.0953
15548WAT     H163997  -4.257   8.858   3.665 -1.0689  0.7467  0.0231
15548WAT     H263998  -4.309   8.757   3.765  1.7368 -2.1177 -1.2488
15548WAT    EPW63999  -4.317   8.799   3.689 -0.0236 -0.4587 -0.2319
15549WAT      O64000   1.116   6.626   8.235  0.1444 -1.5239  0.0588
15549WAT     H164001   1.047   6.693   8.237 -0.7988 -2.1904 -3.5837
15549WAT     H264002   1.089   6.562   8.301 -1.7706 -0.8614 -0.0199
15549WAT    EPW64003   1.103   6.627   8.244 -0.2326 -1.5244 -0.4320
15550WAT      O64004  -0.390   2.601   5.914  0.2158 -0.1495  0.0065
15550WAT     H164005  -0.313   2.647   5.947  0.2022 -0.5945  0.6902
15550WAT     H264006  -0.372   2.587   5.821  1.0257 -0.3738  0.1935
15550WAT    EPW64007  -0.378   2.605   5.906  0.3209 -0.2378  0.1211
15551WAT      O64008  -1.987   5.324   5.243 -0.5886 -0.0057  0.3113
15551WAT     H164009  -1.916   5.270   5.276 -2.2489 -2.3926  0.2003
15551WAT     H264010  -1.963   5.342   5.152 -0.3607 -1.2334  0.1167
15551WAT    EPW64011  -1.974   5.319   5.235 -0.7775 -0.4823  0.2708
15552WAT      O64012  -5.269   9.381   6.566  0.2860  1.0945  0.1025
15552WAT     H164013  -5.353   9.336   6.562  0.2863  1.1404 -0.5568
15552WAT     H264014  -5.283   9.461   6.515  0.9392  0.7499 -0.6324
15552WAT    EPW64015  -5.282   9.386   6.558  0.3719  1.0548 -0.0813
15553WAT      O64016  -0.643   1.382   4.355  0.6371  0.5051 -0.5798
15553WAT     H164017  -0.710   1.356   4.419  0.4542  0.2218 -0.8860
15553WAT     H264018  -0.574   1.317   4.365 -0.0044 -0.3673 -1.6380
15553WAT    EPW64019  -0.643   1.370   4.365  0.5283  0.3527 -0.7598
15554WAT      O64020   8.292   0.155   0.602 -0.4202 -0.5178  0.2385
15554WAT     H164021   8.330   0.115   0.680 -0.8959 -1.4415  0.0021
15554WAT     H264022   8.250   0.083   0.555  0.4119 -0.1050 -1.2149
15554WAT    EPW64023   8.291   0.140   0.606 -0.3734 -0.5852  0.0156
15555WAT      O64024   5.388   6.217   5.085 -0.4851  0.2696 -0.1805
15555WAT     H164025   5.407   6.137   5.134  0.0342 -0.6817 -1.8744
15555WAT     H264026   5.475   6.250   5.060 -0.7422  0.8449 -0.3305
15555WAT    EPW64027   5.402   6.211   5.088 -0.4506  0.2201 -0.4239
15556WAT      O64028   2.309   9.399   3.330  0.4294  0.2317  0.2240
15556WAT     H164029   2.327   9.492   3.343 -1.6155  0.4675  1.8021
15556WAT     H264030   2.378   9.354   3.379  0.6930  0.9125  0.4870
15556WAT    EPW64031   2.321   9.406   3.338  0.1944  0.3524  0.4668
15557WAT      O64032   1.258   6.856   8.258  0.0540 -0.3741 -0.1275
15557WAT     H164033   1.218   6.884   8.340  1.6005  0.3545  0.4129
15557WAT     H264034   1.220   6.770   8.240 -3.0490  0.9523 -0.5821
15557WAT    EPW64035   1.248   6.848   8.266 -0.1513 -0.1030 -0.1159
15558WAT      O64036  -0.169   9.916   8.244  0.2721  0.2925  0.2933
15558WAT     H164037  -0.163   9.906   8.150  0.7168  0.9773  0.2356
15558WAT     H264038  -0.195  10.007   8.257 -2.3656 -0.4453  0.7845
15558WAT    EPW64039  -0.172   9.927   8.234 -0.0171  0.2856  0.3505
15559WAT      O64040  -4.251   2.575   5.497 -0.5343  0.3078 -0.0044
15559WAT     H164041  -4.236   2.637   5.426  0.0109  0.9402  0.6388
15559WAT     H264042  -4.203   2.497   5.470 -0.2706  0.5666 -0.2995
15559WAT    EPW64043  -4.242   2.573   5.484 -0.4277  0.4253  0.0417
15560WAT      O64044   1.716   7.167   7.375  0.4117  0.0340 -0.4117
15560WAT     H164045   1.641   7.226   7.386 -0.7718 -1.6683  1.0818
15560WAT     H264046   1.714   7.145   7.282 -0.9132  0.0817 -0.4199
15560WAT    EPW64047   1.706   7.172   7.364  0.0808 -0.1843 -0.2158
15561WAT      O64048  -1.088   6.746   5.372 -0.2191 -0.7090  0.4445
15561WAT     H164049  -1.155   6.814   5.372 -0.9559 -1.4192  0.7050
15561WAT     H264050  -1.103   6.697   5.453  1.6686  0.1251  1.3552
15561WAT    EPW64051  -1.098   6.748   5.383 -0.0673 -0.6924  0.5989
15562WAT      O64052   1.335   7.419   7.168 -0.5090 -0.0388 -1.1663
15562WAT     H164053   1.264   7.458   7.219  0.2357 -1.3288  0.9792
15562WAT     H264054   1.411   7.475   7.187 -0.1940 -0.6072 -0.7249
15562WAT    EPW64055   1.336   7.432   7.177 -0.3693 -0.2837 -0.8252
15563WAT      O64056   0.195   5.722   2.096  0.6324  0.5235  0.2168
15563WAT     H164057   0.114   5.766   2.122  0.6538  0.9614 -0.4087
15563WAT     H264058   0.222   5.673   2.173 -0.0531  0.6380  0.5377
15563WAT    EPW64059   0.188   5.722   2.109  0.5448  0.5965  0.1767
15564WAT      O64060  -0.573   0.816   5.553 -0.7068  0.1511  0.6167
15564WAT     H164061  -0.499   0.820   5.614  1.7128 -0.6606 -2.0233
15564WAT     H264062  -0.568   0.898   5.505 -0.0024 -0.8720 -1.1338
15564WAT    EPW64063  -0.562   0.827   5.555 -0.2948 -0.0909  0.0377
15565WAT      O64064   3.434   6.862   4.515 -0.7610 -0.0736 -0.2812
15565WAT     H164065   3.520   6.899   4.494 -0.8497  0.0798 -0.3771
15565WAT     H264066   3.378   6.938   4.526 -0.9410 -0.1803 -0.4623
15565WAT    EPW64067   3.438   6.877   4.514 -0.7963 -0.0675 -0.3176
15566WAT      O64068  -2.867   1.127   6.639 -0.6565 -0.2719 -0.6003
15566WAT     H164069  -2.826   1.118   6.553  0.9442  1.4681 -0.0923
15566WAT     H264070  -2.961   1.131   6.620 -0.3038  0.7923 -2.3680
15566WAT    EPW64071  -2.874   1.127   6.625 -0.3989  0.0980 -0.7663
15567WAT      O64072   1.048   9.966   4.806 -0.7542  0.7145  0.5732
15567WAT     H164073   1.083   9.972   4.895  0.4707 -2.5850  0.4607
15567WAT     H264074   1.120   9.996   4.750 -1.0476  1.5367  0.6291
15567WAT    EPW64075   1.062   9.971   4.810 -0.6313  0.3877  0.5658
15568WAT      O64076  -4.456   7.925   6.426  0.4846  0.1281  0.1572
15568WAT     H164077  -4.527   7.947   6.366 -0.6570 -3.2378  0.0535
15568WAT     H264078  -4.392   7.879   6.373  1.0769  0.0665  0.9008
15568WAT    EPW64079  -4.457   7.922   6.411  0.4120 -0.3238  0.2415
15569WAT      O64080   2.096   8.358   2.248  0.2458  0.4649  0.1979
15569WAT     H164081   2.011   8.317   2.262  0.4707 -0.1288 -0.1251
15569WAT     H264082   2.080   8.452   2.257 -0.8036  0.4909 -1.5145
15569WAT    EPW64083   2.083   8.365   2.251  0.1371  0.3901 -0.0706
15570WAT      O64084   8.117   1.118   2.239  0.4710 -0.0502  0.3674
15570WAT     H164085   8.151   1.062   2.169  1.1000  0.3401  0.3505
15570WAT     H264086   8.032   1.148   2.206 -0.1908 -1.4945  0.6512
15570WAT    EPW64087   8.110   1.114   2.226  0.4668 -0.1892  0.4026
15571WAT      O64088   5.092   7.419   2.563  0.0648 -0.7429  0.5092
15571WAT     H164089   5.150   7.432   2.638 -1.6619 -1.1674  1.9937
15571WAT     H264090   5.061   7.506   2.541 -0.9425 -0.8012  1.6041
15571WAT    EPW64091   5.096   7.432   2.570 -0.2956 -0.8066  0.8495
15572WAT      O64092  -1.968   1.085   3.055  0.3406 -0.3685  0.4579
15572WAT     H164093  -1.975   1.020   3.125  0.0337  0.3326  1.1011
15572WAT     H264094  -1.938   1.165   3.099 -0.9981  0.4169  0.0263
15572WAT    EPW64095  -1.965   1.087   3.070  0.1235 -0.1724  0.4858
15573WAT      O64096  -1.454   3.933   2.271 -0.6968  0.1533  0.1070
15573WAT     H164097  -1.389   3.870   2.303 -1.9789 -0.5972  1.3466
15573WAT     H264098  -1.420   4.019   2.298  1.0868  0.0737 -1.6322
15573WAT    EPW64099  -1.441   3.936   2.279 -0.6307  0.0439  0.0411
15574WAT      O64100   1.460   0.874   2.035 -0.0119  0.2015 -0.5935
15574WAT     H164101   1.446   0.826   2.116 -0.9723  2.4456  0.6816
15574WAT     H264102   1.554   0.865   2.017  0.2918 -0.0479  0.9876
15574WAT    EPW64103   1.471   0.867   2.044 -0.0985  0.4646 -0.2167
15575WAT      O64104   0.672   4.041   7.097  0.2064 -0.3077 -0.5748
15575WAT     H164105   0.657   4.127   7.136 -0.1022 -1.2230  1.4904
15575WAT     H264106   0.700   3.986   7.171 -0.1091 -2.0968 -1.7153
15575WAT    EPW64107   0.673   4.045   7.112  0.1241 -0.6645 -0.4528
15576WAT      O64108   6.414   0.875   0.127  0.0974  0.6902  0.2578
15576WAT     H164109   6.394   0.905   0.215  0.0687  1.6062 -0.0528
15576WAT     H264110   6.484   0.933   0.097 -0.9936  1.4531 -0.9129
15576WAT    EPW64111   6.421   0.887   0.134 -0.0503  0.9117  0.0624
15577WAT      O64112   0.634   1.173   1.658  0.1033 -0.3842 -0.4721
15577WAT     H164113   0.716   1.163   1.706  0.3912 -0.0485 -0.8917
15577WAT     H264114   0.570   1.198   1.725  0.0159 -1.9954  0.1047
15577WAT    EPW64115   0.636   1.175   1.673  0.1297 -0.5524 -0.4514
15578WAT      O64116  -2.298   6.434   5.770  1.2417  0.7525 -0.5595
15578WAT     H164117  -2.365   6.431   5.701  1.3675 -2.1381 -0.6474
15578WAT     H264118  -2.348   6.437   5.852  1.0035 -0.1150 -0.6660
15578WAT    EPW64119  -2.314   6.434   5.772  1.2269  0.2568 -0.5851
15579WAT      O64120  -1.216   9.330   5.613 -0.0523  0.4883  0.2554
15579WAT     H164121  -1.165   9.257   5.579 -0.9624 -0.7786  1.4792
15579WAT     H264122  -1.156   9.405   5.611  1.9095 -0.9485  1.7061
15579WAT    EPW64123  -1.201   9.330   5.609  0.0864  0.1316  0.6082
15580WAT      O64124   4.899   0.325   1.464 -0.5717  0.0806  0.3717
15580WAT     H164125   4.940   0.410   1.446 -2.2769  1.0218  0.7323
15580WAT     H264126   4.936   0.266   1.398  2.3813  0.4710  1.5028
15580WAT    EPW64127   4.909   0.328   1.453 -0.4072  0.2562  0.5684
15581WAT      O64128  -0.547   7.192   1.870  0.2932  0.6866 -0.9134
15581WAT     H164129  -0.592   7.232   1.945 -0.0705  2.1282 -1.8664
15581WAT     H264130  -0.594   7.110   1.855  1.1644 -0.2796  1.1953
15581WAT    EPW64131  -0.559   7.187   1.878  0.3601  0.7493 -0.7610
15582WAT      O64132   1.069   9.847   0.798 -0.6727 -1.1851  0.4609
15582WAT     H164133   0.987   9.896   0.794  0.8508  1.6079  0.3056
15582WAT     H264134   1.107   9.856   0.711 -0.1549 -2.3957  0.5368
15582WAT    EPW64135   1.063   9.855   0.786 -0.4035 -0.9761  0.4504
15583WAT      O64136   3.087   0.166   0.245  0.4216 -0.7518 -0.3152
15583WAT     H164137   3.007   0.194   0.288  1.3094  0.4272  0.6580
15583WAT     H264138   3.157   0.191   0.306  1.6368 -0.2485 -1.8451
15583WAT    EPW64139   3.086   0.173   0.259  0.6989 -0.5299 -0.3886
15584WAT      O64140   1.534   8.075   0.076  0.1121 -0.2471 -0.1491
15584WAT     H164141   1.525   8.151   0.018 -2.7353 -0.7409 -0.5459
15584WAT     H264142   1.450   8.028   0.066  1.1852 -2.6454  1.1926
15584WAT    EPW64143   1.522   8.079   0.067 -0.1219 -0.6289 -0.0245
15585WAT      O64144   4.182   3.963   5.239 -0.0111  0.4595 -0.2111
15585WAT     H164145   4.234   3.968   5.320 -1.3544 -0.8003  0.7748
15585WAT     H264146   4.163   4.054   5.218 -0.0019  0.8087  1.1547
15585WAT    EPW64147   4.187   3.975   5.247 -0.1869  0.3395  0.0992
15586WAT      O64148  -0.400   3.221   6.616  0.2448  0.5443 -0.0947
15586WAT     H164149  -0.486   3.193   6.645  0.3128  1.0672  0.6278
15586WAT     H264150  -0.339   3.180   6.677  0.6055 -0.7637 -1.2878
15586WAT    EPW64151  -0.403   3.212   6.628  0.3013  0.4407 -0.1566
15587WAT      O64152   1.901   5.459   1.171 -0.0151  0.0287  0.3970
15587WAT     H164153   1.962   5.386   1.157  0.3401  0.2395  0.7857
15587WAT     H264154   1.894   5.465   1.267  0.2009  0.6972  0.3731
15587WAT    EPW64155   1.908   5.450   1.182  0.0602  0.1445  0.4451
15588WAT      O64156  -4.191   1.066   8.183  0.0280 -0.3869 -0.1982
15588WAT     H164157  -4.203   1.118   8.104 -2.1109 -0.9041 -0.2631
15588WAT     H264158  -4.207   1.127   8.255  0.6588 -0.2358 -0.1763
15588WAT    EPW64159  -4.194   1.081   8.182 -0.1712 -0.4352 -0.2036
15589WAT      O64160   1.856   1.263   0.146 -0.2649  0.4698 -0.0410
15589WAT     H164161   1.865   1.173   0.177  0.0907  0.0444 -1.2798
15589WAT     H264162   1.939   1.305   0.171  0.7645 -0.3534 -1.8304
15589WAT    EPW64163   1.868   1.256   0.153 -0.0823  0.3051 -0.4404
15590WAT      O64164   4.763   3.081   6.184  0.2090  0.6309 -0.2387
15590WAT     H164165   4.799   3.019   6.247 -1.8037 -1.2458 -0.8073
15590WAT     H264166   4.806   3.164   6.204  3.6190 -1.0488  0.0500
15590WAT    EPW64167   4.773   3.084   6.195  0.3934  0.1619 -0.2759
15591WAT      O64168  -4.015  10.221   1.320  0.1253 -0.3887 -0.5413
15591WAT     H164169  -3.987  10.222   1.228  1.3112  0.1705 -0.2022
15591WAT     H264170  -4.048  10.309   1.335  0.7511 -0.2016 -0.2142
15591WAT    EPW64171  -4.015  10.233   1.310  0.3643 -0.2904 -0.4534
15592WAT      O64172   0.865   5.133   2.117 -0.2975 -0.1919 -0.7669
15592WAT     H164173   0.902   5.167   2.036  1.0418  1.2273  0.3673
15592WAT     H264174   0.871   5.206   2.179  0.6661 -1.8272  1.1978
15592WAT    EPW64175   0.870   5.147   2.115  0.0062 -0.2203 -0.3581
15593WAT      O64176  -1.759   6.557   0.618  0.1496  0.4589 -0.1758
15593WAT     H164177  -1.799   6.631   0.571 -1.7194 -0.5405 -0.2823
15593WAT     H264178  -1.693   6.597   0.675 -0.0677  2.0811 -1.0070
15593WAT    EPW64179  -1.756   6.572   0.620 -0.1255  0.5410 -0.2995
15594WAT      O64180   0.063   2.967   8.783 -0.4921  0.4568 -0.1742
15594WAT     H164181   0.139   2.912   8.766 -0.2387  0.7909 -0.1210
15594WAT     H264182   0.006   2.912   8.838 -1.3385 -0.6383 -2.0634
15594WAT    EPW64183   0.065   2.953   8.788 -0.5703  0.3566 -0.4163
15595WAT      O64184   0.358   3.672   0.850 -0.0884  0.0011 -0.4305
15595WAT     H164185   0.343   3.596   0.794 -0.3293 -3.0023  3.3240
15595WAT     H264186   0.274   3.717   0.854 -0.2996 -0.2496 -1.6118
15595WAT    EPW64187   0.345   3.668   0.843 -0.1480 -0.4280 -0.0911
15596WAT      O64188  -2.234   8.321   2.479 -0.2458  0.3573 -0.0846
15596WAT     H164189  -2.317   8.276   2.460 -0.8976  2.1132 -1.8399
15596WAT     H264190  -2.180   8.303   2.402  0.0719  1.2217 -0.0684
15596WAT    EPW64191  -2.238   8.312   2.466 -0.2899  0.7029 -0.3141
15597WAT      O64192   4.179   3.013   8.756 -0.7149 -0.6585  0.0408
15597WAT     H164193   4.150   2.923   8.741  0.2973 -0.8359 -1.0477
15597WAT     H264194   4.102   3.066   8.736 -1.3250 -1.2736  0.7055
15597WAT    EPW64195   4.165   3.008   8.751 -0.6616 -0.7631 -0.0148
15598WAT      O64196  -0.185   4.453   0.463 -0.4607  0.0487  0.3016
15598WAT     H164197  -0.223   4.434   0.378  0.5730  2.2116 -0.7237
15598WAT     H264198  -0.101   4.406   0.463 -0.3768  0.2014  0.0567
15598WAT    EPW64199  -0.179   4.444   0.452 -0.3133  0.3541  0.1341
15599WAT      O64200   4.223  10.267   4.962  0.4112 -0.1379 -0.4014
15599WAT     H164201   4.148  10.230   4.915 -0.8296  0.2539  1.1917
15599WAT     H264202   4.295  10.207   4.944 -0.8097 -1.6804 -0.2793
15599WAT    EPW64203   4.222  10.255   4.953  0.0863 -0.2899 -0.1752
15600WAT      O64204   4.951   2.622   1.793 -0.1272  0.6394 -0.0265
15600WAT     H164205   4.857   2.614   1.779 -0.0931 -0.7920  0.4615
15600WAT     H264206   4.981   2.675   1.719 -0.9444 -1.0300 -1.6208
15600WAT    EPW64207   4.943   2.628   1.781 -0.2306  0.2303 -0.1724
15601WAT      O64208   7.055   1.542   0.973 -0.1011  0.3635  0.2255
15601WAT     H164209   6.974   1.491   0.984 -0.9443  1.6223  0.0660
15601WAT     H264210   7.062   1.592   1.054  0.0265  0.9280 -0.1301
15601WAT    EPW64211   7.045   1.542   0.985 -0.1955  0.6040  0.1576
15602WAT      O64212  -2.400   2.436   2.992  0.8093 -0.9250 -0.2081
15602WAT     H164213  -2.477   2.385   3.017  0.7155 -1.8041 -2.1434
15602WAT     H264214  -2.335   2.416   3.061 -1.0403  0.9922  2.2967
15602WAT    EPW64215  -2.401   2.426   3.005  0.5530 -0.7880 -0.1330
15603WAT      O64216  -1.400   3.718   0.620 -0.2389  0.3667 -0.0501
15603WAT     H164217  -1.469   3.703   0.554  0.1980  1.8492 -0.8993
15603WAT     H264218  -1.416   3.808   0.650  0.6087  0.2979  0.6115
15603WAT    EPW64219  -1.411   3.728   0.615 -0.0694  0.5531 -0.0749
15604WAT      O64220   5.302   7.701   2.895  0.0891  0.2972  0.5307
15604WAT     H164221   5.211   7.707   2.866 -0.4904 -0.1571  2.1315
15604WAT     H264222   5.298   7.653   2.978  1.8353 -0.0830  0.4513
15604WAT    EPW64223   5.290   7.695   2.902  0.2429  0.1869  0.7312
15605WAT      O64224   3.090   1.079   4.437 -0.6549 -0.2403  0.3625
15605WAT     H164225   3.128   1.005   4.483 -0.7985 -0.4833  0.0919
15605WAT     H264226   3.025   1.041   4.378  0.6186 -0.1094 -1.2030
15605WAT    EPW64227   3.087   1.064   4.435 -0.5059 -0.2551  0.1204
15606WAT      O64228  -3.572   7.773   6.917 -0.6235 -0.1999 -0.3264
15606WAT     H164229  -3.479   7.772   6.893 -0.6283  0.2497 -0.3701
15606WAT     H264230  -3.584   7.855   6.965 -1.2426  0.3177 -1.3292
15606WAT    EPW64231  -3.561   7.784   6.920 -0.7058 -0.0722 -0.4647
15607WAT      O64232  -1.546   9.333   6.690  0.7715 -0.4006 -0.3636
15607WAT     H164233  -1.635   9.362   6.708  0.0671 -2.4354 -0.2445
15607WAT     H264234  -1.557   9.257   6.633  2.4276 -0.6997 -0.3413
15607WAT    EPW64235  -1.560   9.327   6.685  0.8970 -0.7081 -0.3450
15608WAT      O64236   1.370   3.430   2.525 -0.6795 -0.2473  0.3764
15608WAT     H164237   1.410   3.391   2.602  3.0654 -2.5009 -2.3691
15608WAT     H264238   1.398   3.522   2.526 -1.7182  0.0940  2.1701
15608WAT    EPW64239   1.379   3.437   2.535 -0.3226 -0.4995  0.2508
15609WAT      O64240   1.294   9.283   5.477 -0.5273  0.3206  0.3917
15609WAT     H164241   1.378   9.271   5.521 -0.2038  0.9254 -0.0435
15609WAT     H264242   1.229   9.271   5.546 -0.2181 -2.2912  0.3333
15609WAT    EPW64243   1.296   9.280   5.492 -0.4439  0.0563  0.3266
15610WAT      O64244  -2.737   7.391   3.234 -0.5417  0.5838 -0.0685
15610WAT     H164245  -2.744   7.452   3.308  1.1474  0.9976 -0.1954
15610WAT     H264246  -2.826   7.383   3.201 -1.4836 -0.1452  2.4150
15610WAT    EPW64247  -2.749   7.398   3.240 -0.4431  0.5424  0.2424
15611WAT      O64248   6.167   2.937   0.836  0.0928 -0.1372  0.0141
15611WAT     H164249   6.242   2.885   0.866 -0.8832 -1.5253  0.1531
15611WAT     H264250   6.093   2.878   0.845 -1.0356  1.2277 -0.0808
15611WAT    EPW64251   6.167   2.922   0.841 -0.1848 -0.1402  0.0199
15612WAT      O64252  -6.570   8.524   5.855  0.3784  0.0723  0.1530
15612WAT     H164253  -6.476   8.534   5.867  0.4457 -0.3703  0.0052
15612WAT     H264254  -6.608   8.602   5.898  0.8212  0.4073 -0.0568
15612WAT    EPW64255  -6.563   8.536   5.862  0.4456  0.0582  0.1059
15613WAT      O64256   1.468   9.563   7.277  0.2628  0.2577  0.6881
15613WAT     H164257   1.513   9.592   7.356  0.3829 -0.5273  0.9198
15613WAT     H264258   1.454   9.643   7.226 -0.6471  0.9112  1.9236
15613WAT    EPW64259   1.472   9.577   7.281  0.1587  0.2408  0.8814
15614WAT      O64260   2.955   2.280   4.618  0.3763 -0.1742  1.1349
15614WAT     H164261   2.938   2.280   4.712 -0.8768  2.0303  0.9516
15614WAT     H264262   2.924   2.365   4.587  1.7464 -0.4044 -1.1151
15614WAT    EPW64263   2.949   2.291   4.627  0.3917  0.0862  0.8140
15615WAT      O64264   2.052   6.748   7.758  0.2141  0.0468  0.5900
15615WAT     H164265   2.060   6.840   7.733  0.4265  0.3229  1.6487
15615WAT     H264266   2.141   6.723   7.784 -0.2133  0.1408  2.2731
15615WAT    EPW64267   2.065   6.757   7.758  0.1857  0.0956  0.9515
15616WAT      O64268   4.698   5.267   4.798 -0.6082  0.6444 -0.4265
15616WAT     H164269   4.721   5.180   4.829 -2.2639  0.0755 -0.6976
15616WAT     H264270   4.749   5.278   4.718  0.8659  0.6304  0.4644
15616WAT    EPW64271   4.708   5.257   4.792 -0.6320  0.5674 -0.3450
15617WAT      O64272   3.122   0.242   0.649  0.3179 -0.0067  0.6433
15617WAT     H164273   3.122   0.334   0.622 -0.0862  0.2652  1.5398
15617WAT     H264274   3.137   0.244   0.744 -0.9275 -0.7834  0.8842
15617WAT    EPW64275   3.124   0.254   0.658  0.1004 -0.0733  0.7933
15618WAT      O64276  -1.353   6.581   2.856 -0.3113 -0.2255 -0.2576
15618WAT     H164277  -1.269   6.537   2.871 -0.2359  0.5406  1.8546
15618WAT     H264278  -1.375   6.560   2.765  2.1955 -0.3801 -0.8942
15618WAT    EPW64279  -1.345   6.572   2.846  0.0293 -0.1450 -0.0629
15619WAT      O64280  -3.020   4.836   2.138  0.4309 -0.3816  0.8726
15619WAT     H164281  -3.062   4.752   2.120  0.5782 -0.2207 -0.2936
15619WAT     H264282  -2.927   4.815   2.148  1.0168 -0.0507 -2.5633
15619WAT    EPW64283  -3.014   4.822   2.137  0.5276 -0.3169  0.2657
15620WAT      O64284   2.675   2.041   6.403  0.3331 -0.1320 -0.4681
15620WAT     H164285   2.630   1.966   6.365  0.7294 -1.1576  1.0084
15620WAT     H264286   2.641   2.048   6.492  2.0083 -0.0605  0.2107
15620WAT    EPW64287   2.665   2.032   6.410  0.6064 -0.2577 -0.1841
15621WAT      O64288  -5.493   8.508   4.062  0.3457 -0.1346  0.1948
15621WAT     H164289  -5.548   8.578   4.029  0.0604  0.3797  1.6809
15621WAT     H264290  -5.480   8.529   4.154  3.3045 -0.0433 -0.1347
15621WAT    EPW64291  -5.498   8.520   4.070  0.6983 -0.0548  0.3474
15622WAT      O64292   0.298   3.865   8.669 -0.2298  0.8449  0.0897
15622WAT     H164293   0.260   3.782   8.638  1.2698  0.2603 -0.2808
15622WAT     H264294   0.343   3.901   8.592  0.3813  1.2551  0.6242
15622WAT    EPW64295   0.299   3.859   8.655  0.0486  0.8219  0.1111
15623WAT      O64296   1.701   3.423   2.350 -0.0298  0.5575  0.2819
15623WAT     H164297   1.639   3.487   2.384  0.7440  2.0216 -0.9498
15623WAT     H264298   1.647   3.360   2.303 -0.8331  0.1070  1.7508
15623WAT    EPW64299   1.686   3.423   2.349 -0.0337  0.6913  0.3130
15624WAT      O64300   3.548   6.673   7.030  0.5207  0.0579  0.1863
15624WAT     H164301   3.632   6.672   6.984  0.2855  2.1891 -0.4202
15624WAT     H264302   3.533   6.765   7.051 -2.2935 -0.0341 -0.9349
15624WAT    EPW64303   3.557   6.685   7.027  0.1185  0.3271 -0.0417
15625WAT      O64304  -3.138   7.191   7.206  0.2603  0.1540  0.1037
15625WAT     H164305  -3.107   7.134   7.277  0.7461 -0.8090 -0.8473
15625WAT     H264306  -3.210   7.240   7.244 -0.8801 -1.8671  0.6951
15625WAT    EPW64307  -3.143   7.190   7.220  0.1739 -0.2398  0.0563
15626WAT      O64308  -2.701   3.642   5.339  0.2409 -0.2465  0.1006
15626WAT     H164309  -2.685   3.611   5.428 -1.1061 -0.0400  0.4416
15626WAT     H264310  -2.791   3.676   5.342  1.3304  2.9767 -0.4410
15626WAT    EPW64311  -2.711   3.642   5.351  0.2069  0.2059  0.0741
15627WAT      O64312  -2.231   4.768   1.935 -0.7071  0.1688  0.0980
15627WAT     H164313  -2.182   4.846   1.910  0.0092 -0.7598 -1.5690
15627WAT     H264314  -2.169   4.716   1.985 -0.9457  0.3150  0.5524
15627WAT    EPW64315  -2.217   4.772   1.938 -0.6441  0.0656 -0.0620
15628WAT      O64316  -2.894   3.212   5.713  0.4098 -0.4747 -1.0128
15628WAT     H164317  -2.963   3.166   5.665 -0.0691  0.6472 -1.4116
15628WAT     H264318  -2.909   3.188   5.805 -0.1945 -0.6305 -1.1509
15628WAT    EPW64319  -2.905   3.203   5.719  0.2669 -0.3474 -1.0836
15629WAT      O64320  -2.539   9.556   5.864 -0.7817 -0.7011 -0.5073
15629WAT     H164321  -2.496   9.641   5.858 -2.1790 -0.0284 -1.7791
15629WAT     H264322  -2.570   9.551   5.955  1.3126 -0.9233  0.2423
15629WAT    EPW64323  -2.538   9.567   5.875 -0.6897 -0.6413 -0.5763
15630WAT      O64324   4.829   4.360   2.071  0.4503  0.6190  0.1475
15630WAT     H164325   4.900   4.378   2.133  1.8325 -0.5050 -1.0158
15630WAT     H264326   4.833   4.432   2.009  2.2935 -0.6199 -1.3181
15630WAT    EPW64327   4.839   4.372   2.071  0.8757  0.3073 -0.1992
15631WAT      O64328  -0.745   5.648   5.368  0.1645  0.6352 -0.5046
15631WAT     H164329  -0.766   5.716   5.304  3.4464  1.8909 -0.4976
15631WAT     H264330  -0.701   5.696   5.439  2.0801 -1.3894 -0.2063
15631WAT    EPW64331  -0.742   5.664   5.369  0.8500  0.5336 -0.4642
15632WAT      O64332   4.989   9.016   3.472  0.0516  0.3251 -0.0957
15632WAT     H164333   4.963   9.009   3.380  1.3601 -0.3426 -0.4344
15632WAT     H264334   4.914   9.059   3.514  0.3076  2.6833 -1.8465
15632WAT    EPW64335   4.975   9.020   3.465  0.2580  0.5474 -0.3712
15633WAT      O64336  -0.570   3.889   7.246 -0.2838 -0.9304 -0.4906
15633WAT     H164337  -0.476   3.885   7.258 -0.1998  3.2906  2.2751
15633WAT     H264338  -0.607   3.871   7.332 -1.9670 -1.2346 -1.2180
15633WAT    EPW64339  -0.563   3.886   7.259 -0.4947 -0.4139 -0.2217
15634WAT      O64340   8.384   3.255   2.061 -0.5455  0.4594 -0.1105
15634WAT     H164341   8.375   3.337   2.014 -1.5250  0.6001  0.2886
15634WAT     H264342   8.360   3.276   2.151 -1.2237 -0.3419 -0.0867
15634WAT    EPW64343   8.379   3.269   2.067 -0.7639  0.3723 -0.0547
15635WAT      O64344   0.603   8.007   8.827  0.5522 -0.0620  0.0477
15635WAT     H164345   0.650   8.077   8.872 -2.3469  1.0086  1.6435
15635WAT     H264346   0.608   7.932   8.886 -1.6901  0.7970  1.4493
15635WAT    EPW64347   0.610   8.007   8.840 -0.1259  0.1926  0.4430
15636WAT      O64348   3.663   1.340   6.070  0.8728  0.1656  0.2261
15636WAT     H164349   3.626   1.358   5.984 -0.3513 -1.4564  0.3718
15636WAT     H264350   3.756   1.323   6.053  0.9762  1.3601 -0.5434
15636WAT    EPW64351   3.670   1.340   6.056  0.7249  0.1092  0.1438
15637WAT      O64352   3.550   2.002   4.826  0.8206  0.6285  0.0031
15637WAT     H164353   3.642   2.010   4.851  1.2407 -1.2785 -0.7164
15637WAT     H264354   3.537   2.068   4.758  1.4537  1.3802  0.6027
15637WAT    EPW64355   3.560   2.012   4.820  0.9596  0.4761 -0.0126
15638WAT      O64356  -0.660   4.095   2.081 -0.5034 -0.0146  0.0824
15638WAT     H164357  -0.598   4.071   2.150 -1.3517 -0.1439  0.8098
15638WAT     H264358  -0.724   4.024   2.080 -2.3954  1.5502  1.4703
15638WAT    EPW64359  -0.660   4.083   2.090 -0.8648  0.1748  0.3613
15639WAT      O64360   4.279   3.644   4.619 -0.0912  0.0134 -0.1219
15639WAT     H164361   4.237   3.621   4.702 -0.7984 -0.3306 -0.5666
15639WAT     H264362   4.221   3.608   4.552  1.3416 -1.2296 -0.7463
15639WAT    EPW64363   4.266   3.636   4.621  0.0045 -0.1959 -0.2627
15640WAT      O64364   4.188   5.657   5.947 -0.1352  0.2316 -0.0387
15640WAT     H164365   4.131   5.722   5.987  0.2450  1.9598 -2.1383
15640WAT     H264366   4.276   5.690   5.961  0.0100  0.8585 -2.1668
15640WAT    EPW64367   4.192   5.670   5.955 -0.0660  0.5424 -0.5963
15641WAT      O64368  -5.823   8.256   8.446 -0.4466  0.0356  0.2361
15641WAT     H164369  -5.912   8.257   8.410 -0.4051  1.8495  0.1133
15641WAT     H264370  -5.774   8.199   8.386 -1.1395  0.3581 -0.6577
15641WAT    EPW64371  -5.828   8.248   8.433 -0.5326  0.3176  0.1025
15642WAT      O64372  -5.087   4.233   8.545  0.0674  0.3957 -0.0442
15642WAT     H164373  -5.129   4.263   8.625 -0.8580 -0.6524 -0.1170
15642WAT     H264374  -5.025   4.303   8.523  1.4575  0.0364  2.3838
15642WAT    EPW64375  -5.084   4.246   8.552  0.1287  0.2100  0.2666
15643WAT      O64376   4.203   5.907   1.503 -0.5615  0.2582 -0.2572
15643WAT     H164377   4.217   5.848   1.429  1.0473  0.5081 -0.1977
15643WAT     H264378   4.133   5.965   1.474  2.0634  2.3922 -2.9412
15643WAT    EPW64379   4.196   5.907   1.489 -0.0031  0.5724 -0.6034
15644WAT      O64380   7.926   3.262   1.512 -0.6768 -0.1150 -0.2927
15644WAT     H164381   7.873   3.320   1.567 -1.5265 -0.9586 -0.2060
15644WAT     H264382   7.935   3.310   1.429  0.3597  1.0273  0.4424
15644WAT    EPW64383   7.921   3.276   1.508 -0.6521 -0.0757 -0.1843
15645WAT      O64384   0.870   0.209   7.699  0.6737  0.3166  0.0059
15645WAT     H164385   0.924   0.130   7.691  1.1886  0.8291 -2.3342
15645WAT     H264386   0.904   0.269   7.633 -2.8623  0.5568 -1.8948
15645WAT    EPW64387   0.881   0.206   7.689  0.2753  0.4159 -0.5534
15646WAT      O64388  -5.020   8.310   8.140  0.0843 -0.2556 -0.6079
15646WAT     H164389  -5.100   8.261   8.124  0.6040 -1.1190 -0.6114
15646WAT     H264390  -5.050   8.398   8.161 -0.9607 -0.9595  1.0365
15646WAT    EPW64391  -5.034   8.315   8.141  0.0150 -0.4625 -0.3910
15647WAT      O64392  -5.228   9.601   7.124 -0.3834  0.1227  0.0264
15647WAT     H164393  -5.307   9.655   7.123 -0.3600  0.1599 -1.1050
15647WAT     H264394  -5.256   9.519   7.163 -0.3930  0.9614  1.8750
15647WAT    EPW64395  -5.242   9.597   7.129 -0.3815  0.2384  0.1211
15648WAT      O64396   4.464   6.867   0.711 -0.1186 -0.0771 -1.0476
15648WAT     H164397   4.422   6.781   0.719  1.3890 -0.7041  0.6851
15648WAT     H264398   4.539   6.863   0.770 -0.3229  2.6475 -0.4661
15648WAT    EPW64399   4.468   6.855   0.720  0.0534  0.1996 -0.7423
15649WAT      O64400  -4.767   3.059   7.224  0.7374  0.3217 -0.0056
15649WAT     H164401  -4.861   3.040   7.219  0.6423  1.0079 -3.3701
15649WAT     H264402  -4.763   3.151   7.250  0.5946 -0.0586  1.4664
15649WAT    EPW64403  -4.779   3.069   7.227  0.7060  0.3622 -0.2551
15650WAT      O64404   2.321   6.671   7.738  0.7526 -0.5289 -0.2581
15650WAT     H164405   2.368   6.754   7.750  1.2579 -0.6514 -1.2858
15650WAT     H264406   2.383   6.604   7.767  1.7644 -0.7847 -2.7467
15650WAT    EPW64407   2.336   6.673   7.743  0.9526 -0.5789 -0.7219
15651WAT      O64408  -3.893   3.499   8.070 -0.1783 -0.0449 -0.0742
15651WAT     H164409  -3.820   3.474   8.126 -0.0030  0.3437 -0.1253
15651WAT     H264410  -3.853   3.552   8.001 -0.5673  0.5779  0.1634
15651WAT    EPW64411  -3.878   3.503   8.068 -0.2065  0.0886 -0.0496
15652WAT      O64412   0.464   2.959   6.729  0.2948 -0.3795  0.1873
15652WAT     H164413   0.501   3.039   6.691 -0.4669 -0.1926 -0.1782
15652WAT     H264414   0.458   2.899   6.655  0.8164 -0.7646  0.4531
15652WAT    EPW64415   0.468   2.962   6.714  0.2631 -0.4057  0.1743
15653WAT      O64416   6.817   1.937   3.158  0.5442 -0.0818 -0.4510
15653WAT     H164417   6.799   1.843   3.152  0.0787 -0.0871  0.6432
15653WAT     H264418   6.892   1.943   3.218 -1.5133  0.3528  2.2994
15653WAT    EPW64419   6.824   1.925   3.165  0.2115 -0.0252  0.0560
15654WAT      O64420   4.091   1.745   6.879 -0.9699  0.1197 -1.1276
15654WAT     H164421   4.118   1.837   6.880 -1.1449  0.1703  0.1196
15654WAT     H264422   4.166   1.699   6.841 -1.0509  0.8197 -2.1690
15654WAT    EPW64423   4.105   1.751   6.874 -1.0035  0.2187 -1.1005
15655WAT      O64424   3.857   2.385   4.615  0.0703  0.3032 -0.2817
15655WAT     H164425   3.949   2.411   4.618 -0.4254  2.1652  0.4973
15655WAT     H264426   3.856   2.305   4.562  2.0902  0.3863 -0.5217
15655WAT    EPW64427   3.869   2.378   4.608  0.2714  0.5597 -0.2105
15656WAT      O64428  -5.530   7.625   7.889 -0.3384 -1.3029  0.2588
15656WAT     H164429  -5.448   7.578   7.900 -0.4070 -0.9795  2.5820
15656WAT     H264430  -5.591   7.583   7.950 -0.1800  2.0844  3.0992
15656WAT    EPW64431  -5.528   7.614   7.898 -0.3264 -0.8132  0.9401
15657WAT      O64432   3.279   3.559   8.068  0.7991  1.0088  0.4319
15657WAT     H164433   3.225   3.619   8.017  1.1756  1.0818  0.1181
15657WAT     H264434   3.366   3.564   8.028  1.0449  0.9005  0.9429
15657WAT    EPW64435   3.283   3.567   8.056  0.8812  1.0041  0.4582
15658WAT      O64436   3.205  10.032   4.605  0.0913  0.7195 -0.2527
15658WAT     H164437   3.145  10.003   4.536  1.1942  2.6278 -2.1435
15658WAT     H264438   3.238   9.951   4.644 -0.4351 -0.4466 -2.1179
15658WAT    EPW64439   3.202  10.017   4.601  0.1675  0.8173 -0.7482
15659WAT      O64440   3.213   1.142   8.609  0.0436  0.4175 -0.1967
15659WAT     H164441   3.138   1.167   8.663  0.7856  1.4217  0.4068
15659WAT     H264442   3.289   1.158   8.664  0.7108 -0.7352 -0.7489
15659WAT    EPW64443   3.213   1.148   8.623  0.2295  0.3979 -0.1898
15660WAT      O64444  -1.148   0.143   7.728 -0.8453  0.0722 -0.5143
15660WAT     H164445  -1.099   0.095   7.662 -2.0846  0.7226 -1.9769
15660WAT     H264446  -1.200   0.206   7.678  0.8369  3.1064  1.3192
15660WAT    EPW64447  -1.149   0.145   7.713 -0.7869  0.5582 -0.4652
15661WAT      O64448  -5.361   7.669   6.903 -0.7291 -0.4395 -0.0827
15661WAT     H164449  -5.288   7.639   6.849  1.5979 -0.1919  2.6655
15661WAT     H264450  -5.399   7.589   6.940 -2.5205 -0.6340 -2.1049
15661WAT    EPW64451  -5.357   7.655   6.901 -0.6585 -0.4325  0.0129
15662WAT      O64452   8.754   5.075   0.055  0.1128  0.3386 -0.0631
15662WAT     H164453   8.683   5.010   0.056 -0.9519  1.4762  0.3119
15662WAT     H264454   8.731   5.136   0.124  0.4882  1.7471 -1.1519
15662WAT    EPW64455   8.741   5.074   0.064  0.0215  0.6745 -0.1572
15663WAT      O64456   4.098   6.533   2.674 -0.3258 -0.0681  0.2266
15663WAT     H164457   4.007   6.540   2.647 -1.0316 -2.2255  1.7033
15663WAT     H264458   4.148   6.529   2.592 -1.8015 -1.0947 -0.6701
15663WAT    EPW64459   4.093   6.533   2.660 -0.6135 -0.4880  0.3030
15664WAT      O64460   0.597   4.785   4.162  0.4584  0.3817  0.4337
15664WAT     H164461   0.581   4.751   4.250  1.1030  0.3782  0.5551
15664WAT     H264462   0.685   4.754   4.140  0.2717  0.3223 -0.2405
15664WAT    EPW64463   0.607   4.776   4.171  0.5188  0.3734  0.3607
15665WAT      O64464   1.277   7.786   5.311  0.6438  0.0116  0.0959
15665WAT     H164465   1.194   7.775   5.359  0.4493 -0.2774 -0.2955
15665WAT     H264466   1.336   7.722   5.351  1.0424  1.0134  1.1509
15665WAT    EPW64467   1.274   7.776   5.322  0.6707  0.1059  0.1833
15666WAT      O64468  -5.441   6.112   5.838  0.7295 -0.4618 -0.0584
15666WAT     H164469  -5.463   6.124   5.746 -1.4618 -1.9066  0.2142
15666WAT     H264470  -5.382   6.036   5.839  0.8418 -0.3778 -0.2739
15666WAT    EPW64471  -5.436   6.103   5.826  0.4551 -0.6411 -0.0508
15667WAT      O64472  -0.307   1.137   3.114 -0.0731 -0.6144  0.3848
15667WAT     H164473  -0.321   1.138   3.209  1.3592  0.5891  0.6284
15667WAT     H264474  -0.212   1.145   3.104 -0.3529  1.9634 -1.1284
15667WAT    EPW64475  -0.297   1.138   3.125  0.0789 -0.1156  0.2173
15668WAT      O64476   6.000   2.267   4.183 -0.1342  1.1424  0.1937
15668WAT     H164477   6.063   2.235   4.248  2.6818  0.3233 -2.6456
15668WAT     H264478   5.987   2.359   4.205 -0.0230  0.7022  2.3619
15668WAT    EPW64479   6.007   2.275   4.194  0.2520  0.9763  0.1051
15669WAT      O64480   3.291   4.412   2.867 -0.0590 -0.0759  0.0703
15669WAT     H164481   3.362   4.364   2.910 -1.2674 -2.4432 -0.4265
15669WAT     H264482   3.275   4.363   2.787 -4.0977 -1.3625  1.4532
15669WAT    EPW64483   3.298   4.399   2.862 -0.7510 -0.5577  0.1872
15670WAT      O64484  -5.037   5.577   5.713  0.4276 -0.7931 -0.2935
15670WAT     H164485  -5.041   5.521   5.635  2.3497  2.6168 -3.1870
15670WAT     H264486  -4.945   5.571   5.741  0.1338 -0.7136  0.7194
15670WAT    EPW64487  -5.025   5.568   5.706  0.6423 -0.3331 -0.5417
15671WAT      O64488  -1.939   2.426   6.332  0.2479 -0.0811  0.3152
15671WAT     H164489  -1.934   2.462   6.421 -0.3301 -1.3304  0.8774
15671WAT     H264490  -2.025   2.383   6.329  0.5150 -0.5582 -0.6589
15671WAT    EPW64491  -1.950   2.425   6.343  0.2069 -0.3088  0.2608
15672WAT      O64492  -3.741   5.090   6.613  0.3791 -0.0740  0.2184
15672WAT     H164493  -3.741   5.165   6.673  0.2610  2.5157 -2.7325
15672WAT     H264494  -3.674   5.112   6.548  0.1717 -2.4687 -0.9230
15672WAT    EPW64495  -3.732   5.103   6.612  0.3362 -0.0482 -0.3214
15673WAT      O64496   1.265   0.129   2.661  0.1311 -0.5753 -0.2756
15673WAT     H164497   1.186   0.083   2.691  0.4956 -1.5859 -0.8324
15673WAT     H264498   1.315   0.063   2.613  1.7182 -0.1704  0.7391
15673WAT    EPW64499   1.261   0.114   2.658  0.3884 -0.6552 -0.2151
15674WAT      O64500  -1.297   7.331   5.833 -1.1677 -0.4826 -0.4752
15674WAT     H164501  -1.341   7.282   5.764 -0.6536  0.4522 -1.4947
15674WAT     H264502  -1.256   7.404   5.788 -2.2730  1.1541  1.0495
15674WAT    EPW64503  -1.297   7.334   5.818 -1.2457 -0.1433 -0.4086
15675WAT      O64504  -1.371   9.546   6.636  0.4490  0.1782  0.2400
15675WAT     H164505  -1.358   9.567   6.729 -3.5408  0.4946  0.8965
15675WAT     H264506  -1.443   9.483   6.636 -0.1856  0.7802 -2.6904
15675WAT    EPW64507  -1.379   9.540   6.648 -0.1610  0.2995 -0.0598
15676WAT      O64508  -1.275   6.730   8.802  0.0126  0.6371  0.1242
15676WAT     H164509  -1.214   6.803   8.789 -0.8364  0.9258 -2.8785
15676WAT     H264510  -1.357   6.761   8.764 -1.3836 -0.6428  1.9411
15676WAT    EPW64511  -1.277   6.744   8.795 -0.2836  0.5062 -0.0319
15677WAT      O64512   3.626   1.449   6.320 -0.4556  0.5582 -0.2804
15677WAT     H164513   3.636   1.400   6.239  0.1681 -0.5942  0.4703
15677WAT     H264514   3.539   1.425   6.352  0.3618 -1.1513  0.7616
15677WAT    EPW64515   3.616   1.440   6.314 -0.2656  0.1807 -0.0441
15678WAT      O64516   1.718   8.549   4.684 -0.2210 -0.2272 -0.7521
15678WAT     H164517   1.701   8.503   4.602 -0.9369  1.4578 -1.6026
15678WAT     H264518   1.813   8.559   4.687 -0.2311  0.1754 -1.6582
15678WAT    EPW64519   1.728   8.544   4.674 -0.3168  0.0486 -0.9837
15679WAT      O64520   6.056   9.642   1.518  0.2811 -0.3044 -0.5294
15679WAT     H164521   6.033   9.636   1.610  3.0142 -1.4708  0.1755
15679WAT     H264522   6.106   9.562   1.500  2.3004  1.1966 -2.1980
15679WAT    EPW64523   6.060   9.631   1.527  0.9079 -0.2599 -0.6564
15680WAT      O64524   7.319   7.918   0.228 -0.2452  0.2108  0.5809
15680WAT     H164525   7.287   7.868   0.153 -0.7079 -0.7858  1.4120
15680WAT     H264526   7.368   7.854   0.280  3.3230  1.6735 -0.6712
15680WAT    EPW64527   7.321   7.903   0.225  0.1645  0.2720  0.5254
15681WAT      O64528  -1.897   7.305   5.186  0.2544  0.2064 -0.3906
15681WAT     H164529  -1.884   7.377   5.125 -0.7424  1.6909  1.0604
15681WAT     H264530  -1.814   7.297   5.233  1.0539 -1.0027 -1.9456
15681WAT    EPW64531  -1.885   7.313   5.184  0.2284  0.2427 -0.4041
15682WAT      O64532   5.384   5.074   3.805  0.4392 -0.3361  0.0266
15682WAT     H164533   5.415   5.144   3.862 -0.0716 -1.8116  2.2954
15682WAT     H264534   5.293   5.060   3.832  0.5744 -1.9504 -0.2163
15682WAT    EPW64535   5.376   5.081   3.816  0.3898 -0.7436  0.2939
15683WAT      O64536   3.668   8.547   6.131  0.4853 -0.0996  0.7565
15683WAT     H164537   3.679   8.467   6.080  1.3104 -1.0250  2.2932
15683WAT     H264538   3.681   8.519   6.222 -0.4031  1.5654  1.4493
15683WAT    EPW64539   3.671   8.533   6.137  0.4770 -0.0019  1.0505
15684WAT      O64540  -5.676   5.393   6.591  0.4096 -0.3859 -0.4916
15684WAT     H164541  -5.584   5.400   6.567  0.5615 -2.9199 -0.9947
15684WAT     H264542  -5.688   5.300   6.611 -2.4637 -0.5260 -2.2781
15684WAT    EPW64543  -5.665   5.381   6.591  0.0508 -0.7386 -0.7935
15685WAT      O64544   3.118   8.951   2.437 -0.1527  0.7427 -0.7388
15685WAT     H164545   3.097   8.892   2.365  1.2374  0.0675 -0.6186
15685WAT     H264546   3.084   8.907   2.515  0.1198  0.5211 -0.7470
15685WAT    EPW64547   3.110   8.937   2.438  0.0665  0.6242 -0.7240
15686WAT      O64548  -2.699   2.085   8.123 -0.2456 -0.4023 -0.1225
15686WAT     H164549  -2.659   2.074   8.209  0.6997 -1.3272 -0.6532
15686WAT     H264550  -2.708   2.180   8.112 -0.3724 -0.2760  0.9815
15686WAT    EPW64551  -2.695   2.096   8.132 -0.1377 -0.5077 -0.0467
15687WAT      O64552   2.193   4.881   1.139  0.3310 -0.0975  0.3051
15687WAT     H164553   2.101   4.856   1.133  1.0922 -3.2665 -0.3081
15687WAT     H264554   2.222   4.844   1.223  0.8296  1.8450  1.0335
15687WAT    EPW64555   2.185   4.873   1.150  0.4972 -0.2589  0.3203
15688WAT      O64556   8.633   0.137   0.868  0.7319  0.1072 -0.5472
15688WAT     H164557   8.538   0.134   0.853  0.7239  1.5925 -1.0067
15688WAT     H264558   8.668   0.071   0.809  0.0378  0.1957 -1.0778
15688WAT    EPW64559   8.625   0.128   0.858  0.6394  0.3148 -0.6778
15689WAT      O64560  -1.968   3.990   8.772  0.4206  0.3780  0.3654
15689WAT     H164561  -2.013   4.073   8.757 -0.6074 -0.1753  0.2641
15689WAT     H264562  -2.035   3.924   8.754  1.1932 -0.4670  0.5550
15689WAT    EPW64563  -1.983   3.992   8.767  0.3870  0.1936  0.3772
15690WAT      O64564   3.159   2.649   8.251 -0.3471  0.5551  0.3877
15690WAT     H164565   3.118   2.668   8.167  2.0108 -1.0568 -1.2547
15690WAT     H264566   3.230   2.589   8.230  1.4671  1.4568  3.3241
15690WAT    EPW64567   3.163   2.644   8.237  0.2031  0.4615  0.5584
15691WAT      O64568   5.307   3.165   2.740  0.2144  0.1120  0.2836
15691WAT     H164569   5.251   3.240   2.719 -1.1108 -0.6635  0.9000
15691WAT     H264570   5.288   3.101   2.672  1.6660  0.4727 -0.4889
15691WAT    EPW64571   5.297   3.167   2.728  0.2310  0.0572  0.2630
15692WAT      O64572  -0.218   1.945   2.692  0.0550 -0.5711  0.5304
15692WAT     H164573  -0.171   1.901   2.763  3.1837  0.2644 -0.8059
15692WAT     H264574  -0.191   1.898   2.613  0.3868  1.3005 -0.5284
15692WAT    EPW64575  -0.208   1.933   2.691  0.5115 -0.2140  0.2146
15693WAT      O64576  -2.032   1.200   5.229 -0.4354  0.5130 -0.2842
15693WAT     H164577  -2.055   1.286   5.265  3.9924  1.6686  0.3245
15693WAT     H264578  -2.024   1.143   5.305  2.0013  1.1189 -0.0051
15693WAT    EPW64579  -2.034   1.204   5.243  0.4700  0.7453 -0.1669
15694WAT      O64580   3.754   7.040   3.994  0.2073 -0.8096 -0.3900
15694WAT     H164581   3.699   7.089   4.055  0.5940  0.6043 -1.1237
15694WAT     H264582   3.839   7.082   3.999  0.2405 -0.6163 -1.9107
15694WAT    EPW64583   3.758   7.052   4.003  0.2626 -0.5975 -0.6874
15695WAT      O64584  -4.427   8.788   5.634  0.2817 -0.0393  0.1146
15695WAT     H164585  -4.454   8.845   5.562  0.1172  0.1755  0.3431
15695WAT     H264586  -4.446   8.700   5.603  1.8203 -0.0733 -0.7852
15695WAT    EPW64587  -4.433   8.784   5.621  0.4628 -0.0157  0.0262
15696WAT      O64588  -1.222   9.636   5.424 -0.6494 -0.2118  0.1253
15696WAT     H164589  -1.178   9.685   5.355  2.5858 -2.6429  0.1907
15696WAT     H264590  -1.276   9.572   5.377 -1.2349  0.4086 -0.0545
15696WAT    EPW64591  -1.223   9.634   5.409 -0.2999 -0.4506  0.1101
15697WAT      O64592   1.953   7.324   2.647 -0.3496 -0.5451 -0.6483
15697WAT     H164593   1.890   7.351   2.714 -1.9131 -0.1142 -2.1981
15697WAT     H264594   1.979   7.235   2.673 -0.7286 -0.3071  0.6257
15697WAT    EPW64595   1.948   7.316   2.659 -0.6059 -0.4568 -0.6847
15698WAT      O64596  -2.099   7.870   3.702  0.1553 -0.3682  0.2556
15698WAT     H164597  -2.011   7.905   3.689  0.2910 -1.0767 -0.8864
15698WAT     H264598  -2.157   7.942   3.678  0.4328 -0.7745 -1.8120
15698WAT    EPW64599  -2.095   7.884   3.697  0.2098 -0.5150 -0.1677
15699WAT      O64600   9.079   1.848   0.507  0.5967  0.1330  0.1455
15699WAT     H164601   9.154   1.905   0.489 -0.4772  1.3267 -0.7577
15699WAT     H264602   9.051   1.872   0.595 -0.8685  2.2981 -0.8307
15699WAT    EPW64603   9.085   1.859   0.516  0.2613  0.5761 -0.1024
15700WAT      O64604  -3.099  10.357   6.714 -0.6805 -0.6924 -0.1426
15700WAT     H164605  -3.118  10.432   6.657  3.5208  0.3379 -0.4963
15700WAT     H264606  -3.182  10.309   6.719 -2.2056  1.1104 -4.1714
15700WAT    EPW64607  -3.112  10.361   6.707 -0.3275 -0.3187 -0.7205
15701WAT      O64608   8.522   4.318   0.898  0.2039  0.5055  0.4353
15701WAT     H164609   8.522   4.406   0.862 -1.0472  0.2055 -0.4019
15701WAT     H264610   8.613   4.290   0.894  0.2613  0.8023 -1.8176
15701WAT    EPW64611   8.534   4.326   0.893  0.0467  0.5050  0.0277
15702WAT      O64612   0.488   0.576   0.696  1.2150  0.3340 -0.1562
15702WAT     H164613   0.481   0.537   0.783  0.9233  1.7650  0.4899
15702WAT     H264614   0.472   0.669   0.710 -1.9222  0.2372 -2.1591
15702WAT    EPW64615   0.485   0.583   0.709  0.7627  0.5099 -0.3352
15703WAT      O64616  -2.651   6.459   7.465 -0.0236  0.4559 -0.6497
15703WAT     H164617  -2.716   6.528   7.474  0.8013  1.3492 -1.2810
15703WAT     H264618  -2.634   6.454   7.371  0.0224 -0.5303 -0.5994
15703WAT    EPW64619  -2.657   6.468   7.454  0.0913  0.4437 -0.7265
15704WAT      O64620   3.846  10.231   1.468  0.8860 -0.5658  0.1589
15704WAT     H164621   3.768  10.233   1.413  0.4281  1.2762  0.7998
15704WAT     H264622   3.875  10.140   1.465 -0.8661 -1.1453 -0.6760
15704WAT    EPW64623   3.840  10.219   1.460  0.5946 -0.3986  0.1333
15705WAT      O64624   5.838   0.794   3.836  0.6057  0.1091  0.5888
15705WAT     H164625   5.812   0.746   3.914  1.1876 -0.4009  0.4769
15705WAT     H264626   5.826   0.886   3.859  1.0661 -0.0281  1.3876
15705WAT    EPW64627   5.833   0.800   3.849  0.7432  0.0238  0.6794
15706WAT      O64628   5.560   6.437   2.621 -0.3270 -0.3192 -0.7525
15706WAT     H164629   5.616   6.382   2.676 -0.7599  2.4032  2.7954
15706WAT     H264630   5.620   6.476   2.558  1.0980 -0.3074  0.5393
15706WAT    EPW64631   5.575   6.435   2.620 -0.1962  0.0415 -0.1142
15707WAT      O64632  -2.789   0.179   7.241 -0.5343 -0.5845 -0.7442
15707WAT     H164633  -2.777   0.178   7.146 -2.8255 -0.4982 -1.1011
15707WAT     H264634  -2.811   0.270   7.261 -1.5053 -0.8767 -0.3861
15707WAT    EPW64635  -2.791   0.191   7.231 -0.9646 -0.6117 -0.7443
15708WAT      O64636   1.177   5.448   8.136  0.3853 -0.1831  0.2168
15708WAT     H164637   1.158   5.505   8.211  0.4911 -0.5249  0.5075
15708WAT     H264638   1.129   5.487   8.063  0.8292  0.5463  0.2997
15708WAT    EPW64639   1.169   5.461   8.136  0.4578 -0.1321  0.2661
15709WAT      O64640  -7.500   6.948   8.312  0.3405 -0.5694  0.0694
15709WAT     H164641  -7.439   6.879   8.340  4.7757  2.8856 -0.0026
15709WAT     H264642  -7.525   6.923   8.223 -1.3606 -3.8128  1.2819
15709WAT    EPW64643  -7.495   6.935   8.304  0.7011 -0.5414  0.2203
15710WAT      O64644  -2.006   5.434   0.348  0.7596 -0.1712  0.1327
15710WAT     H164645  -2.093   5.457   0.380  0.5232  0.1980 -0.7398
15710WAT     H264646  -2.023   5.367   0.281  1.2022 -0.5855  0.4303
15710WAT    EPW64647  -2.020   5.428   0.343  0.7869 -0.1771  0.0569
15711WAT      O64648   7.481   1.051   0.174  0.5440 -0.7635 -0.6964
15711WAT     H164649   7.560   1.011   0.211  0.2650 -0.1454  0.6440
15711WAT     H264650   7.511   1.130   0.130  0.4763  0.8162  1.9055
15711WAT    EPW64651   7.495   1.056   0.173  0.4983 -0.4736 -0.1764
15712WAT      O64652   4.879   4.485   6.149  0.1357  0.5387 -0.3496
15712WAT     H164653   4.826   4.555   6.187  0.6497 -0.1419  1.7435
15712WAT     H264654   4.956   4.530   6.114 -0.9420  1.3242 -1.8159
15712WAT    EPW64655   4.882   4.500   6.149  0.0615  0.5527 -0.2670
15713WAT      O64656   0.083   4.179   6.552 -0.0334  0.7609  0.2714
15713WAT     H164657   0.070   4.261   6.599 -0.1500  0.1862  1.2763
15713WAT     H264658   0.055   4.197   6.463  0.9138  2.1068  0.2193
15713WAT    EPW64659   0.078   4.192   6.547  0.0762  0.8626  0.3970
15714WAT      O64660   3.474   5.337   4.505 -0.5482  0.6233 -0.4114
15714WAT     H164661   3.457   5.283   4.428  2.4668 -0.0982 -0.6907
15714WAT     H264662   3.418   5.299   4.573 -0.5647 -1.1299 -1.3311
15714WAT    EPW64663   3.464   5.325   4.504 -0.1527  0.2971 -0.5696
15715WAT      O64664   8.430   3.854   0.288 -0.1588 -0.5404  0.1133
15715WAT     H164665   8.411   3.774   0.240  2.3258 -1.8988  1.2026
15715WAT     H264666   8.371   3.852   0.363  0.6818 -2.0154  0.7663
15715WAT    EPW64667   8.419   3.843   0.292  0.2794 -0.9141  0.3431
15716WAT      O64668   1.796   2.892   8.193  1.0160  0.7695  0.4106
15716WAT     H164669   1.818   2.887   8.100 -0.2708 -0.8839  0.1412
15716WAT     H264670   1.760   2.980   8.204  0.2075  0.6303 -0.9077
15716WAT    EPW64671   1.794   2.903   8.182  0.7396  0.5331  0.2007
15717WAT      O64672   3.941   7.604   5.341 -0.6073 -0.0060 -0.7239
15717WAT     H164673   4.014   7.663   5.323  0.1311 -0.6628  0.0384
15717WAT     H264674   3.894   7.597   5.258 -0.9411  1.9410 -0.7497
15717WAT    EPW64675   3.945   7.611   5.328 -0.5541  0.1643 -0.6268
15718WAT      O64676   9.984   0.710   0.091 -0.2175  0.1872  0.4119
15718WAT     H164677   9.968   0.758   0.010  1.1190 -0.2696 -0.1551
15718WAT     H264678   9.938   0.627   0.079  0.7660 -0.2760 -0.3157
15718WAT    EPW64679   9.976   0.705   0.079  0.0887  0.0659  0.2411
15719WAT      O64680  -0.707   5.230   4.361  0.0979  0.1338 -0.1723
15719WAT     H164681  -0.619   5.234   4.397 -0.3918  2.4398  0.9731
15719WAT     H264682  -0.755   5.170   4.418  0.1851  1.2256  1.1057
15719WAT    EPW64683  -0.702   5.223   4.373  0.0448  0.5817  0.1473
15720WAT      O64684  -0.654   4.703   2.361  0.3397 -0.7800 -0.1145
15720WAT     H164685  -0.684   4.620   2.325 -0.7546 -1.1902  1.5992
15720WAT     H264686  -0.628   4.682   2.451  2.9283  0.1882 -0.5671
15720WAT    EPW64687  -0.655   4.689   2.368  0.5368 -0.7064  0.0519
15721WAT      O64688   9.027   3.012   0.756  0.3759  0.2131  0.0546
15721WAT     H164689   8.962   2.943   0.771 -0.4055  0.9022 -0.0939
15721WAT     H264690   8.999   3.083   0.815  2.0474 -0.1499  1.3536
15721WAT    EPW64691   9.014   3.012   0.766  0.4930  0.2562  0.2064
15722WAT      O64692   1.762   5.231   3.621 -0.2967 -0.0963 -0.0719
15722WAT     H164693   1.819   5.208   3.549  0.8669  1.4626  0.3002
15722WAT     H264694   1.815   5.219   3.699 -0.9565 -0.0251  0.4013
15722WAT    EPW64695   1.776   5.226   3.622 -0.2303  0.1187  0.0396
15723WAT      O64696   2.172   2.267   5.462  0.6718  0.0430  0.5404
15723WAT     H164697   2.267   2.252   5.470  0.7711  1.0464  1.6756
15723WAT     H264698   2.142   2.202   5.400  1.9548 -0.9542  0.9229
15723WAT    EPW64699   2.181   2.257   5.455  0.8541  0.0437  0.7408
15724WAT      O64700  -2.901   4.306   4.797 -0.7776 -0.3445  0.6371
15724WAT     H164701  -2.968   4.288   4.732 -2.0257 -0.6528  1.9597
15724WAT     H264702  -2.871   4.395   4.777  1.1817 -1.5246 -2.2823
15724WAT    EPW64703  -2.906   4.316   4.786 -0.6838 -0.5407  0.4265
15725WAT      O64704   4.348   5.362   5.320 -0.4450  0.2354  0.3116
15725WAT     H164705   4.267   5.402   5.350  0.1331  1.1788  0.6641
15725WAT     H264706   4.401   5.353   5.399  0.0052  0.1332  0.0016
15725WAT    EPW64707   4.345   5.366   5.334 -0.3095  0.3464  0.3173
15726WAT      O64708   4.020   0.418   7.514  0.7773  0.2365  0.7328
15726WAT     H164709   3.989   0.455   7.596  1.1344 -0.3664  1.1487
15726WAT     H264710   3.959   0.346   7.496 -0.9041  1.9448 -0.9042
15726WAT    EPW64711   4.008   0.413   7.522  0.6027  0.3823  0.5720
15727WAT      O64712  -0.094   0.910   0.663  0.2499 -0.0660  0.0957
15727WAT     H164713  -0.117   0.988   0.613  0.6912  0.3880  0.5937
15727WAT     H264714   0.001   0.903   0.655  0.2506 -0.3602  0.3291
15727WAT    EPW64715  -0.084   0.919   0.655  0.3082 -0.0449  0.1922
15728WAT      O64716   0.524   4.450   3.109  0.2253  0.2196  0.0495
15728WAT     H164717   0.605   4.501   3.114 -1.0782  2.3148  1.1602
15728WAT     H264718   0.506   4.444   3.015  2.0948 -1.0856 -0.2768
15728WAT    EPW64719   0.533   4.456   3.097  0.3000  0.3238  0.1531
15729WAT      O64720  -2.210   9.146   3.769  0.3549  0.6128  0.5834
15729WAT     H164721  -2.124   9.119   3.737  0.8025 -0.0050  2.2042
15729WAT     H264722  -2.192   9.192   3.851 -0.9362 -0.8865  1.7694
15729WAT    EPW64723  -2.196   9.149   3.776  0.2437  0.3338  0.9537
15730WAT      O64724  -1.944   9.989   3.689 -0.1350 -0.0918 -0.5860
15730WAT     H164725  -1.971  10.046   3.761  0.2696 -0.2597 -0.3068
15730WAT     H264726  -2.026   9.970   3.643 -0.3832  0.0704 -0.2173
15730WAT    EPW64727  -1.959   9.994   3.692 -0.1143 -0.0925 -0.5006
15731WAT      O64728   6.295   4.101   3.882  0.0699 -0.3300 -0.1154
15731WAT     H164729   6.324   4.014   3.853  0.2377 -0.2868 -0.0784
15731WAT     H264730   6.267   4.088   3.973 -0.7379 -0.5269 -0.3830
15731WAT    EPW64731   6.295   4.088   3.890 -0.0145 -0.3502 -0.1458
15732WAT      O64732   1.058   6.098   1.369 -1.1660 -0.5452 -0.1784
15732WAT     H164733   1.151   6.118   1.364 -1.4720  0.8801 -0.6198
15732WAT     H264734   1.043   6.070   1.459 -0.2374 -1.2410 -0.2321
15732WAT    EPW64735   1.068   6.097   1.380 -1.0839 -0.4489 -0.2437
15733WAT      O64736   6.646   4.546   0.029  0.2684 -0.1707  0.4190
15733WAT     H164737   6.573   4.598  -0.005  0.7839  0.4884  0.2986
15733WAT     H264738   6.688   4.603   0.093  2.5304  0.7302 -1.6902
15733WAT    EPW64739   6.642   4.560   0.033  0.6349  0.0350  0.1249
15734WAT      O64740   1.296   5.895   3.579  0.1832 -0.6377 -0.5066
15734WAT     H164741   1.235   5.837   3.624 -0.2149  1.2295  1.5156
15734WAT     H264742   1.272   5.983   3.608  2.4992  0.3445 -1.2783
15734WAT    EPW64743   1.285   5.899   3.589  0.4361 -0.2618 -0.3417
15735WAT      O64744  -3.478   6.933   5.259  0.1650 -0.4445 -0.4990
15735WAT     H164745  -3.519   6.919   5.345  1.9370  0.9334  0.6683
15735WAT     H264746  -3.443   6.847   5.235  0.2917 -0.7063  0.5538
15735WAT    EPW64747  -3.479   6.920   5.267  0.4154 -0.2973 -0.2062
15736WAT      O64748  -1.863   5.889   7.864 -0.0377  0.8767 -0.5380
15736WAT     H164749  -1.942   5.902   7.917  0.5071  3.6773 -0.2602
15736WAT     H264750  -1.890   5.914   7.775  0.3250  1.0732 -0.5947
15736WAT    EPW64751  -1.877   5.894   7.859  0.0821  1.2720 -0.5090
15737WAT      O64752  -3.216   0.049   6.000  0.1776  0.4032  0.1368
15737WAT     H164753  -3.299   0.093   6.020  2.2059  4.0916  1.2292
15737WAT     H264754  -3.170   0.109   5.942  2.1360 -1.5624 -0.4691
15737WAT    EPW64755  -3.221   0.062   5.995  0.7032  0.6305  0.2010
15738WAT      O64756  -2.149   9.850   8.078  0.2621 -0.3812 -0.6980
15738WAT     H164757  -2.079   9.792   8.106  1.5603  0.9851 -0.9712
15738WAT     H264758  -2.224   9.792   8.061  1.3840 -1.8970 -0.6414
15738WAT    EPW64759  -2.150   9.835   8.080  0.5813 -0.4010 -0.7267
15739WAT      O64760   3.381   8.839   1.364  0.5879 -0.1990 -0.2611
15739WAT     H164761   3.442   8.770   1.392 -0.4052 -0.7488  0.6467
15739WAT     H264762   3.318   8.846   1.436 -1.1707 -0.5651 -1.6844
15739WAT    EPW64763   3.380   8.831   1.377  0.2249 -0.3195 -0.3290
15740WAT      O64764  -0.202   6.838   4.526 -0.2597  0.3043 -0.4852
15740WAT     H164765  -0.295   6.839   4.547 -0.6113  0.7455 -1.9560
15740WAT     H264766  -0.164   6.905   4.584 -0.9734  0.6087 -0.3542
15740WAT    EPW64767  -0.209   6.847   4.536 -0.4002  0.4025 -0.6618
15741WAT      O64768  -3.637   9.861   3.317  0.1718  0.2625  0.4519
15741WAT     H164769  -3.579   9.848   3.242  0.9731  1.0598  0.9225
15741WAT     H264770  -3.697   9.930   3.289  0.5466  0.6445  0.5752
15741WAT    EPW64771  -3.637   9.868   3.303  0.3269  0.4182  0.5304
15742WAT      O64772   3.834   0.280   5.247 -0.0969 -0.0097  0.3563
15742WAT     H164773   3.747   0.311   5.223 -0.2082 -0.3327  0.3327
15742WAT     H264774   3.889   0.301   5.171 -0.5110 -1.3017 -0.3432
15742WAT    EPW64775   3.830   0.287   5.234 -0.1663 -0.2227  0.2606
15743WAT      O64776   2.134   5.112   6.063  0.7221 -0.2771  0.2347
15743WAT     H164777   2.109   5.136   6.152 -1.4669  0.1430 -0.4272
15743WAT     H264778   2.116   5.018   6.058 -0.7094 -0.0112 -0.1833
15743WAT    EPW64779   2.128   5.103   6.074  0.2446 -0.1867  0.0920
15744WAT      O64780  -5.699   5.577   7.461 -0.1396 -0.0341 -0.3334
15744WAT     H164781  -5.760   5.640   7.499 -0.8828 -0.4740 -0.7624
15744WAT     H264782  -5.613   5.611   7.482 -0.5165  1.4092 -0.9935
15744WAT    EPW64783  -5.696   5.589   7.469 -0.2873  0.0982 -0.4771
15745WAT      O64784   3.743   7.900   1.795  0.6230  0.4275  0.3740
15745WAT     H164785   3.737   7.823   1.851  0.4277 -0.4683 -0.8558
15745WAT     H264786   3.834   7.903   1.766  0.3251 -0.1370 -0.6606
15745WAT    EPW64787   3.754   7.890   1.799  0.5579  0.2348  0.0752
15746WAT      O64788   2.157   4.247   2.756  0.7223  0.3678 -0.2202
15746WAT     H164789   2.218   4.321   2.763 -1.1868  2.0673 -0.4319
15746WAT     H264790   2.071   4.287   2.768 -0.3504 -1.9766  0.3697
15746WAT    EPW64791   2.154   4.262   2.759  0.3291  0.2825 -0.1704
15747WAT      O64792   1.740   8.377   5.930  0.1757  0.1224  0.3906
15747WAT     H164793   1.657   8.401   5.890  1.7953  0.0749 -3.3468
15747WAT     H264794   1.738   8.281   5.935 -0.0491  0.1333  0.5258
15747WAT    EPW64795   1.729   8.367   5.926  0.3597  0.1173 -0.0844
15748WAT      O64796  -5.097   1.843   8.445 -0.0757  0.0686 -0.6910
15748WAT     H164797  -5.051   1.896   8.379 -0.1447 -0.1889 -0.9503
15748WAT     H264798  -5.064   1.875   8.529  0.9645 -0.4665 -0.8799
15748WAT    EPW64799  -5.086   1.854   8.447  0.0525 -0.0360 -0.7501
15749WAT      O64800  -3.872   7.127   3.405  0.0509  1.0741 -0.3571
15749WAT     H164801  -3.935   7.180   3.357 -0.4384 -0.9451 -2.1111
15749WAT     H264802  -3.926   7.073   3.463  0.4018  1.2798  0.1641
15749WAT    EPW64803  -3.887   7.127   3.407  0.0327  0.8349 -0.5196
15750WAT      O64804   2.338   1.140   5.230  0.2645  0.3027  0.6691
15750WAT     H164805   2.261   1.179   5.189  1.2512 -0.1871 -1.9092
15750WAT     H264806   2.351   1.189   5.311 -1.3083  2.0464 -0.0742
15750WAT    EPW64807   2.330   1.152   5.235  0.1872  0.4681  0.2310
15751WAT      O64808   1.289   4.686   1.018  0.2854  0.2284  0.3234
15751WAT     H164809   1.273   4.780   1.029 -1.9023 -0.0945  0.4010
15751WAT     H264810   1.308   4.654   1.107 -1.2776  0.2577  0.7007
15751WAT    EPW64811   1.289   4.694   1.031 -0.2093  0.1895  0.3834
15752WAT      O64812   3.880   4.569   2.344  0.0918  0.0324 -0.5798
15752WAT     H164813   3.879   4.543   2.252  0.6665  2.2137 -1.2593
15752WAT     H264814   3.966   4.611   2.357 -0.0959  0.0454  0.8724
15752WAT    EPW64815   3.891   4.571   2.334  0.1427  0.3216 -0.4779
15753WAT      O64816   3.842   0.336   0.839  0.1994  0.4396  0.2127
15753WAT     H164817   3.937   0.350   0.833  0.2414  1.2739  2.0012
15753WAT     H264818   3.811   0.409   0.892 -1.6403  0.8048 -1.2753
15753WAT    EPW64819   3.851   0.348   0.845 -0.0378  0.5978  0.2524
15754WAT      O64820   2.308   4.509   1.324  0.2398 -0.0097  0.4071
15754WAT     H164821   2.221   4.537   1.350  1.6880  4.0806  1.6380
15754WAT     H264822   2.305   4.507   1.228 -1.4818 -1.3126  0.4457
15754WAT    EPW64823   2.296   4.512   1.315  0.2037  0.3579  0.5746
15755WAT      O64824   3.058   5.137   2.577 -0.5102  0.2853 -0.3572
15755WAT     H164825   3.123   5.068   2.563  0.3040  1.2728 -1.7123
15755WAT     H264826   3.056   5.149   2.672  0.6539 -0.3744 -0.2253
15755WAT    EPW64827   3.066   5.130   2.588 -0.2491  0.3283 -0.5186
15756WAT      O64828  -5.948  10.146   4.131  0.8062  0.5011  0.1274
15756WAT     H164829  -5.934  10.083   4.061  1.4990  0.6155  0.1529
15756WAT     H264830  -5.925  10.230   4.092  1.3616  0.5447  0.5317
15756WAT    EPW64831  -5.943  10.149   4.117  0.9711  0.5221  0.1841
15757WAT      O64832   2.021   9.729   1.091 -0.4901 -0.4625  0.0214
15757WAT     H164833   2.079   9.712   1.017 -1.8361 -1.4937 -0.8616
15757WAT     H264834   1.938   9.689   1.065 -2.2130  2.5661  0.3455
15757WAT    EPW64835   2.017   9.721   1.078 -0.8949 -0.1993 -0.0523
15758WAT      O64836   2.484   3.925   6.950 -0.1436  0.1887 -0.4339
15758WAT     H164837   2.436   3.986   7.006  0.1732  0.8002 -0.8219
15758WAT     H264838   2.418   3.890   6.890 -0.2805  0.3389 -0.3716
15758WAT    EPW64839   2.469   3.928   6.950 -0.1199  0.2891 -0.4768
15759WAT      O64840   2.725   5.551   2.191  1.0996 -0.1075  0.3370
15759WAT     H164841   2.630   5.539   2.188  1.2320 -1.1023 -1.4226
15759WAT     H264842   2.756   5.482   2.249  0.7539  0.2807  0.9928
15759WAT    EPW64843   2.717   5.540   2.198  1.0715 -0.1874  0.1915
15760WAT      O64844   4.968   4.502   2.262  0.2263 -0.5599 -0.2611
15760WAT     H164845   4.905   4.547   2.319 -0.8589  0.2827 -2.0152
15760WAT     H264846   5.045   4.558   2.263  0.4143 -0.8160  0.7378
15760WAT    EPW64847   4.970   4.515   2.270  0.1078 -0.4828 -0.3606
15761WAT      O64848   1.295   1.386   7.326 -0.0700  0.2197  0.3132
15761WAT     H164849   1.266   1.296   7.309 -1.1826  0.4217  1.0554
15761WAT     H264850   1.376   1.394   7.277  1.4666 -2.0530  2.2123
15761WAT    EPW64851   1.302   1.375   7.318 -0.0141 -0.0534  0.6616
15762WAT      O64852   2.188   3.822   0.841  0.0223 -0.5064  0.0523
15762WAT     H164853   2.185   3.727   0.842 -0.5638 -0.4907  0.1519
15762WAT     H264854   2.224   3.844   0.755  0.3015 -0.8187  0.0890
15762WAT    EPW64855   2.192   3.813   0.829 -0.0182 -0.5455  0.0703
15763WAT      O64856   3.204   2.221   0.757 -0.0833  0.2421 -0.1388
15763WAT     H164857   3.201   2.305   0.803  0.8773  0.7452 -0.9569
15763WAT     H264858   3.201   2.156   0.827  1.6147  0.9946  0.6900
15763WAT    EPW64859   3.203   2.224   0.772  0.2674  0.4077 -0.1374
15764WAT      O64860   0.268   7.386   5.292  0.4063 -0.7812  0.1163
15764WAT     H164861   0.203   7.436   5.341 -1.5750 -3.3661  0.3823
15764WAT     H264862   0.298   7.319   5.354  1.0205 -1.5185 -0.9463
15764WAT    EPW64863   0.263   7.384   5.307  0.2259 -1.2195  0.0114
15765WAT      O64864   3.020   4.787   3.708  0.4719 -0.8088 -0.5256
15765WAT     H164865   2.939   4.741   3.730 -0.2246  1.2997  1.8784
15765WAT     H264866   3.018   4.794   3.613 -0.4418 -3.6874 -0.8234
15765WAT    EPW64867   3.009   4.782   3.699  0.2594 -0.9105 -0.2478
15766WAT      O64868   5.131   6.803   2.460 -0.5374  0.1192 -0.4133
15766WAT     H164869   5.107   6.727   2.514 -1.3045 -0.2522 -1.2630
15766WAT     H264870   5.098   6.878   2.510 -1.0931 -0.2070 -0.2799
15766WAT    EPW64871   5.124   6.803   2.474 -0.7119  0.0274 -0.5078
15767WAT      O64872   2.796   6.556   3.187  0.6510 -0.7738  0.0156
15767WAT     H164873   2.748   6.611   3.248  0.5496  0.5465 -1.2184
15767WAT     H264874   2.803   6.471   3.231  3.0283  0.8188  3.1105
15767WAT    EPW64875   2.791   6.552   3.201  0.9512 -0.3896  0.2611
15768WAT      O64876  -4.434   7.465   4.083  0.1561 -0.3281 -0.6876
15768WAT     H164877  -4.453   7.543   4.031  0.5262  0.4016  0.2497
15768WAT     H264878  -4.501   7.402   4.057  0.0193  0.2027 -1.6528
15768WAT    EPW64879  -4.445   7.467   4.072  0.1869 -0.1619 -0.6912
15769WAT      O64880  -4.226   2.450   6.256 -0.3787  0.4729 -0.9984
15769WAT     H164881  -4.197   2.507   6.185 -3.9601  1.7876 -1.6268
15769WAT     H264882  -4.322   2.456   6.254 -0.8324 -3.2159  0.9196
15769WAT    EPW64883  -4.235   2.458   6.247 -0.9108  0.1597 -0.8285
15770WAT      O64884   1.511   4.399   0.048  0.4395  0.2574 -0.6071
15770WAT     H164885   1.602   4.427   0.037  0.3913  1.8300  1.9376
15770WAT     H264886   1.462   4.453  -0.014  0.8651  2.9346  1.1612
15770WAT    EPW64887   1.516   4.410   0.039  0.4893  0.8180 -0.0382
15771WAT      O64888   3.011   2.191   6.637  0.4442  0.0262 -0.5161
15771WAT     H164889   2.948   2.243   6.687  2.2127  0.6737  1.2082
15771WAT     H264890   2.958   2.136   6.580 -1.5793  2.2869 -0.9766
15771WAT    EPW64891   2.996   2.191   6.636  0.4106  0.4098 -0.3493
15772WAT      O64892   1.666   4.240   1.172  0.3588 -0.5173  0.0493
15772WAT     H164893   1.694   4.289   1.094  2.7722  0.3182  1.3293
15772WAT     H264894   1.745   4.193   1.200  0.1189  0.5761  2.9168
15772WAT    EPW64895   1.680   4.240   1.165  0.6455 -0.2630  0.5963
15773WAT      O64896   2.789   2.621   1.069 -0.4578 -0.0371  0.2083
15773WAT     H164897   2.718   2.667   1.023  1.6266  1.4740 -1.6818
15773WAT     H264898   2.781   2.530   1.040 -1.2165  0.2472 -0.5219
15773WAT    EPW64899   2.778   2.615   1.059 -0.2829  0.1997 -0.1373
15774WAT      O64900   5.009   7.769   4.331 -0.4352  0.2089  0.1889
15774WAT     H164901   5.088   7.819   4.350 -1.1202  0.9404  1.2059
15774WAT     H264902   5.014   7.693   4.389  0.8749 -1.2646 -1.7400
15774WAT    EPW64903   5.020   7.765   4.341 -0.3529  0.1111  0.0684
15775WAT      O64904   4.867   3.196   4.437 -1.1644  0.7812  0.2186
15775WAT     H164905   4.816   3.194   4.356 -0.3682  2.1628 -0.3469
15775WAT     H264906   4.923   3.272   4.428 -1.5116  1.3617  2.3674
15775WAT    EPW64907   4.867   3.206   4.425 -1.1053  1.0401  0.4275
15776WAT      O64908   1.270   1.604   6.082  0.0137 -0.3024  0.1798
15776WAT     H164909   1.229   1.627   5.998  0.1520 -2.4294 -0.5467
15776WAT     H264910   1.197   1.592   6.142 -0.4279 -2.3662 -0.6578
15776WAT    EPW64911   1.255   1.605   6.079 -0.0263 -0.8551 -0.0265
15777WAT      O64912  -1.754   7.203   4.768  0.0274  0.3604  0.0762
15777WAT     H164913  -1.814   7.147   4.720 -0.6168  1.2248 -0.1581
15777WAT     H264914  -1.748   7.283   4.714  1.7148  0.1330 -0.1222
15777WAT    EPW64915  -1.761   7.206   4.754  0.1650  0.4442  0.0188
15778WAT      O64916  -1.953   4.002   1.269  0.6277  0.6132 -0.1961
15778WAT     H164917  -1.979   4.074   1.326  0.2534  0.0080  0.4082
15778WAT     H264918  -1.860   3.988   1.288  1.2882  2.3243 -1.8630
15778WAT    EPW64919  -1.944   4.009   1.279  0.6654  0.7591 -0.3363
15779WAT      O64920   5.729   0.506   0.556 -0.3082 -0.1392  0.6117
15779WAT     H164921   5.822   0.519   0.575 -0.5933  1.7107  0.8780
15779WAT     H264922   5.726   0.424   0.507  2.2683  2.6783 -5.2145
15779WAT    EPW64923   5.741   0.497   0.552 -0.0060  0.4764 -0.1216
15780WAT      O64924   5.275   7.745   4.658 -0.2193 -0.6698 -0.0722
15780WAT     H164925   5.270   7.792   4.575 -1.8918 -2.1031 -0.8394
15780WAT     H264926   5.311   7.660   4.635 -0.5936 -1.0443  0.6837
15780WAT    EPW64927   5.279   7.740   4.644 -0.4892 -0.9081 -0.0737
15781WAT      O64928   5.053   6.571   2.587 -0.4040  0.3917 -0.1611
15781WAT     H164929   4.962   6.562   2.615 -0.2325 -1.7577 -0.0722
15781WAT     H264930   5.104   6.564   2.668 -0.1404  0.9406 -0.2779
15781WAT    EPW64931   5.048   6.569   2.601 -0.3467  0.1807 -0.1649
15782WAT      O64932  -1.111   0.226   5.575 -0.5577 -0.3561 -0.0352
15782WAT     H164933  -1.203   0.201   5.577 -0.1511 -1.9440  0.3079
15782WAT     H264934  -1.108   0.310   5.620 -1.7940 -0.4379  0.2306
15782WAT    EPW64935  -1.123   0.234   5.581 -0.6671 -0.5763  0.0451
15783WAT      O64936   4.908   5.898   4.770  0.0891  0.1023  0.5366
15783WAT     H164937   4.938   5.825   4.824 -0.5647  0.1573  0.9777
15783WAT     H264938   4.973   5.903   4.699 -0.2883 -1.4050  0.0524
15783WAT    EPW64939   4.921   5.889   4.768 -0.0470 -0.0894  0.5310
15784WAT      O64940   3.105   5.090   4.811  0.0279  0.5061  0.5901
15784WAT     H164941   3.137   5.034   4.740 -0.3722  0.1111  0.7189
15784WAT     H264942   3.147   5.055   4.890  0.6976  1.1217  0.5202
15784WAT    EPW64943   3.115   5.078   4.812  0.0634  0.5352  0.5980
15785WAT      O64944  -2.182   8.502   1.836 -0.6206  0.0740 -0.4582
15785WAT     H164945  -2.125   8.425   1.846 -2.0134 -1.4835 -3.2941
15785WAT     H264946  -2.236   8.501   1.915  1.2596 -0.0873  0.9250
15785WAT    EPW64947  -2.181   8.492   1.848 -0.5563 -0.1526 -0.6499
15786WAT      O64948   4.270   4.390   1.016 -0.2439  0.1782  0.1840
15786WAT     H164949   4.353   4.429   0.986 -0.6892  0.1332 -1.1697
15786WAT     H264950   4.294   4.301   1.041  0.3163  0.5159  0.8949
15786WAT    EPW64951   4.284   4.383   1.015 -0.2286  0.2167  0.0992
15787WAT      O64952   2.514   2.530   2.815  0.3159  0.5577  0.4650
15787WAT     H164953   2.479   2.488   2.736  1.7232 -2.4806  1.2943
15787WAT     H264954   2.443   2.523   2.879 -0.1989  1.4386  0.0185
15787WAT    EPW64955   2.500   2.523   2.813  0.4336  0.2731  0.5156
15788WAT      O64956   2.348  10.235   4.009  0.2115  0.8098 -0.7210
15788WAT     H164957   2.294  10.180   3.953  0.5447  1.9664 -2.2459
15788WAT     H264958   2.314  10.221   4.097 -0.6706 -0.6664 -1.2707
15788WAT    EPW64959   2.337  10.226   4.013  0.1391  0.7677 -0.9947
15789WAT      O64960   0.280   1.941   5.541 -0.2935 -0.0792 -0.4050
15789WAT     H164961   0.356   1.896   5.505 -0.2231 -0.6558  0.4240
15789WAT     H264962   0.296   2.033   5.523  0.8103 -0.1548  0.1235
15789WAT    EPW64963   0.292   1.947   5.534 -0.1386 -0.1652 -0.2260
15790WAT      O64964   5.815   3.238   0.357  0.1174  0.1163 -0.3118
15790WAT     H164965   5.828   3.254   0.264 -0.0063 -0.7732 -0.4988
15790WAT     H264966   5.875   3.297   0.401 -0.6884  1.4247 -0.9101
15790WAT    EPW64967   5.825   3.248   0.350 -0.0050  0.1715 -0.4154
15791WAT      O64968   5.148   3.021   1.486  0.0569 -0.1013 -0.3721
15791WAT     H164969   5.063   3.012   1.443  0.7886 -1.1921 -1.6790
15791WAT     H264970   5.167   3.114   1.483  0.5284 -0.2150 -3.3980
15791WAT    EPW64971   5.139   3.032   1.480  0.2155 -0.2601 -0.9435
15792WAT      O64972   2.219   1.650   2.449 -0.1978  0.1804 -0.0349
15792WAT     H164973   2.310   1.659   2.420 -0.0034 -1.1322  0.1286
15792WAT     H264974   2.220   1.678   2.540  0.5081 -1.8214  0.6350
15792WAT    EPW64975   2.232   1.655   2.457 -0.0792 -0.2567  0.0751
15793WAT      O64976  -1.532   5.494   7.254 -0.2651 -0.1461 -0.1387
15793WAT     H164977  -1.612   5.457   7.291  0.7005 -2.0150  0.2023
15793WAT     H264978  -1.462   5.436   7.284  1.1789  1.1740 -0.7891
15793WAT    EPW64979  -1.534   5.482   7.263  0.0527 -0.2184 -0.1793
15794WAT      O64980  -0.912   7.834   1.804  0.4630 -0.0278  0.0916
15794WAT     H164981  -0.943   7.781   1.731  2.3943 -0.5167 -0.4256
15794WAT     H264982  -0.985   7.834   1.866 -0.5614 -1.0714 -1.0634
15794WAT    EPW64983  -0.925   7.827   1.803  0.5826 -0.2301 -0.1290
15795WAT      O64984   2.782   5.159   5.060  0.2879  0.1532  0.1442
15795WAT     H164985   2.703   5.158   5.114  0.8970  0.9733  1.0840
15795WAT     H264986   2.766   5.228   4.995 -0.3069 -0.6040 -0.5316
15795WAT    EPW64987   2.769   5.168   5.058  0.2898  0.1614  0.1793
15796WAT      O64988  -1.397   3.988   8.068  0.0461  0.4221 -0.1766
15796WAT     H164989  -1.370   3.928   7.998 -0.8242 -1.6457  1.1725
15796WAT     H264990  -1.473   3.945   8.108 -0.4115  2.2954  1.0692
15796WAT    EPW64991  -1.403   3.974   8.064 -0.1290  0.3965  0.1655
15797WAT      O64992  -5.319   5.005   6.736 -0.4536 -0.1093  0.1811
15797WAT     H164993  -5.400   5.041   6.772 -0.8724 -0.0425 -0.7969
15797WAT     H264994  -5.284   5.074   6.679 -1.0273 -1.0296 -1.3556
15797WAT    EPW64995  -5.325   5.018   6.733 -0.5846 -0.2220 -0.1507
15798WAT      O64996   7.912   6.868   0.886 -0.0351 -0.0223 -0.0764
15798WAT     H164997   7.823   6.863   0.853  0.6302 -1.3850 -1.8333
15798WAT     H264998   7.920   6.793   0.945 -0.1304  0.2577  0.2935
15798WAT    EPW64999   7.901   6.857   0.889  0.0401 -0.1652 -0.2594
15799WAT      O65000  -2.920   2.484   8.667  0.2368 -0.5608 -0.8399
15799WAT     H165001  -3.000   2.483   8.720  0.6543  1.1314 -0.1218
15799WAT     H265002  -2.951   2.481   8.577 -0.6197 -0.2137 -0.5681
15799WAT    EPW65003  -2.935   2.483   8.662  0.1788 -0.2919 -0.7091
15800WAT      O65004   9.704   0.673   0.310  0.0752  0.1566 -0.2845
15800WAT     H165005   9.719   0.762   0.343 -1.2024 -0.3468  1.8201
15800WAT     H265006   9.780   0.624   0.339 -0.3228  0.0563  0.5988
15800WAT    EPW65007   9.716   0.679   0.318 -0.1454  0.0770  0.1096
15801WAT      O65008   0.840  10.275   7.905 -0.6262 -0.1531 -0.5353
15801WAT     H165009   0.880  10.356   7.936  0.9516  0.2589 -3.2972
15801WAT     H265010   0.748  10.296   7.893 -0.7137  0.4775  0.9850
15801WAT    EPW65011   0.833  10.288   7.908 -0.4297 -0.0157 -0.6990
15802WAT      O65012   1.941   1.620   7.306  0.0987  0.1119 -0.3936
15802WAT     H165013   1.929   1.525   7.313 -1.3175  0.1633 -1.6135
15802WAT     H265014   1.937   1.651   7.396  2.9727 -1.1834  0.2906
15802WAT    EPW65015   1.939   1.612   7.318  0.2909 -0.0522 -0.4642
15803WAT      O65016  -1.576   5.146   0.099 -0.5490  0.2332 -0.1368
15803WAT     H165017  -1.555   5.163   0.007 -0.0872  0.0624 -0.0659
15803WAT     H265018  -1.584   5.233   0.138 -0.0494  0.3032 -0.1855
15803WAT    EPW65019  -1.574   5.160   0.092 -0.4222  0.2198 -0.1339
15804WAT      O65020  -3.833   1.049   8.886 -0.9231 -0.4195  0.7580
15804WAT     H165021  -3.812   1.123   8.942 -0.8743  0.3880 -0.2871
15804WAT     H265022  -3.755   0.993   8.890 -1.5403 -1.2296  2.7439
15804WAT    EPW65023  -3.820   1.051   8.894 -0.9981 -0.4198  0.8821
15805WAT      O65024  -0.259   7.942   4.472  0.0051  0.2751  0.0234
15805WAT     H165025  -0.227   7.960   4.384 -1.1402  0.4507 -0.3806
15805WAT     H265026  -0.207   7.868   4.502  1.0825  0.8423 -0.4077
15805WAT    EPW65027  -0.248   7.934   4.464 -0.0038  0.3729 -0.0868
15806WAT      O65028   5.851   3.716   6.145 -0.3938 -0.2418  0.2771
15806WAT     H165029   5.864   3.621   6.139 -1.0714 -0.3465  0.4045
15806WAT     H265030   5.864   3.736   6.237 -0.2551 -0.2077  0.2509
15806WAT    EPW65031   5.855   3.706   6.156 -0.4647 -0.2512  0.2904
15807WAT      O65032   1.445   2.534   8.122 -0.3972  0.3849  0.3406
15807WAT     H165033   1.496   2.614   8.136 -1.2175  0.5376  2.8212
15807WAT     H265034   1.503   2.464   8.150 -0.5205  0.2967  0.3717
15807WAT    EPW65035   1.459   2.536   8.127 -0.5217  0.3935  0.6719
15808WAT      O65036   5.315   3.874   6.421 -0.5099 -0.3019 -0.8049
15808WAT     H165037   5.228   3.888   6.459 -0.3259  0.9344 -0.8026
15808WAT     H265038   5.316   3.930   6.343  1.3599  2.2351  0.8765
15808WAT    EPW65039   5.304   3.883   6.416 -0.2391  0.1957 -0.5827
15809WAT      O65040  -1.938  10.112   7.146  0.2888 -0.4661 -0.9995
15809WAT     H165041  -2.024  10.150   7.165  0.3689 -1.3037  1.3965
15809WAT     H265042  -1.897  10.173   7.085 -0.6378  1.8542  0.5881
15809WAT    EPW65043  -1.944  10.125   7.141  0.1771 -0.2704 -0.4740
15810WAT      O65044   1.893   2.686   1.087  0.3640  0.4225  0.0675
15810WAT     H165045   1.811   2.723   1.053 -0.2812  0.5120  1.6347
15810WAT     H265046   1.921   2.625   1.019 -0.8566  0.5970 -0.6360
15810WAT    EPW65047   1.886   2.683   1.074  0.1179  0.4574  0.1814
15811WAT      O65048   0.941   7.971   3.957 -0.3766  0.3307 -0.0809
15811WAT     H165049   0.975   8.060   3.954 -1.1931  0.6424 -0.1600
15811WAT     H265050   0.888   7.962   3.878  1.5482 -1.0021 -1.3171
15811WAT    EPW65051   0.939   7.982   3.946 -0.2304  0.1960 -0.2544
15812WAT      O65052   3.723   1.249   5.176  0.5100 -0.1468  0.4275
15812WAT     H165053   3.814   1.276   5.185  0.0110  2.0124 -0.2273
15812WAT     H265054   3.726   1.173   5.118  1.8505  0.3357 -0.1758
15812WAT    EPW65055   3.735   1.243   5.169  0.6210  0.2016  0.2613
15813WAT      O65056  -0.518   8.278   0.931 -0.8824  0.1336  0.7032
15813WAT     H165057  -0.442   8.240   0.975 -1.6364 -0.9843  1.1027
15813WAT     H265058  -0.506   8.372   0.939  0.5808 -0.0074  0.5348
15813WAT    EPW65059  -0.506   8.285   0.938 -0.7888 -0.0324  0.7337
15814WAT      O65060   5.501   9.387   1.452 -0.3625  0.4673 -0.2888
15814WAT     H165061   5.489   9.418   1.541 -0.3883  2.8838 -1.0567
15814WAT     H265062   5.463   9.456   1.397  0.0458 -0.7299 -2.1945
15814WAT    EPW65063   5.494   9.400   1.456 -0.3121  0.6280 -0.6414
15815WAT      O65064  -1.761   7.051   3.553  0.7725  0.3876 -0.1130
15815WAT     H165065  -1.798   7.139   3.555  1.8868  0.8815 -0.5457
15815WAT     H265066  -1.826   6.997   3.598  0.1785  1.4665  0.3648
15815WAT    EPW65067  -1.775   7.055   3.560  0.8411  0.5949 -0.1070
15816WAT      O65068   0.198   0.933   8.861 -0.2542 -0.2556 -0.0973
15816WAT     H165069   0.153   0.897   8.937 -2.6396  0.1072 -1.2668
15816WAT     H265070   0.196   1.028   8.875 -1.7165 -0.1093 -1.0870
15816WAT    EPW65071   0.192   0.941   8.873 -0.7617 -0.1885 -0.3824
15817WAT      O65072   3.226   4.941   5.268  0.2503 -0.2814 -0.2848
15817WAT     H165073   3.252   4.858   5.308  0.0449  0.2298  0.9196
15817WAT     H265074   3.131   4.944   5.278  0.2728  0.1796 -0.1873
15817WAT    EPW65075   3.217   4.930   5.274  0.2261 -0.1533 -0.1132
15818WAT      O65076   3.987   3.178   2.653 -0.5944  0.7951 -0.4887
15818WAT     H165077   4.000   3.083   2.648  0.4260  0.8225  0.9958
15818WAT     H265078   3.897   3.188   2.685 -1.5298  0.4166 -2.8147
15818WAT    EPW65079   3.977   3.167   2.657 -0.5832  0.7488 -0.5996
15819WAT      O65080   5.219   5.291   1.141  0.5735  0.0815  0.3057
15819WAT     H165081   5.209   5.382   1.110 -3.1036 -0.0613  0.5396
15819WAT     H265082   5.239   5.299   1.234 -0.9990  0.7397  0.6186
15819WAT    EPW65083   5.220   5.304   1.149 -0.1190  0.1495  0.3778
15820WAT      O65084   5.205   9.559   2.699  0.2027 -0.6452 -0.4008
15820WAT     H165085   5.206   9.597   2.787 -1.8789 -2.3034  0.4316
15820WAT     H265086   5.160   9.624   2.646  0.7228  0.0066 -0.0583
15820WAT    EPW65087   5.199   9.572   2.704 -0.0031 -0.7777 -0.2458
15821WAT      O65088   2.657   5.581   3.249 -0.5677  0.2333 -0.5382
15821WAT     H165089   2.714   5.516   3.208  0.1604  0.8220 -0.4889
15821WAT     H265090   2.625   5.635   3.177 -0.1390  0.6085 -0.4549
15821WAT    EPW65091   2.660   5.580   3.234 -0.4151  0.3605 -0.5207
15822WAT      O65092  -4.672   3.378   7.240 -0.3467 -0.3959 -0.4379
15822WAT     H165093  -4.666   3.398   7.146 -0.7745 -1.1552 -0.6416
15822WAT     H265094  -4.765   3.384   7.260 -0.2167  0.1150  0.0264
15822WAT    EPW65095  -4.683   3.381   7.230 -0.3860 -0.4287 -0.4034
15823WAT      O65096   1.560   3.444   3.066 -0.3336  0.1727 -0.4363
15823WAT     H165097   1.592   3.534   3.065  0.5296 -0.1196 -2.0989
15823WAT     H265098   1.482   3.448   3.122  2.1270  1.0119  3.3604
15823WAT    EPW65099   1.554   3.456   3.074  0.1047  0.2449 -0.1549
15824WAT      O65100  -0.774   0.144   2.461  0.2462 -0.2271 -0.6118
15824WAT     H165101  -0.751   0.108   2.375 -2.1525 -3.0698 -0.2101
15824WAT     H265102  -0.803   0.233   2.442  1.9461  0.0165 -2.3926
15824WAT    EPW65103  -0.775   0.151   2.447  0.1540 -0.5699 -0.7936
15825WAT      O65104   0.234   6.784   6.286 -0.3166 -0.2882  0.2990
15825WAT     H165105   0.196   6.839   6.217  2.5467  0.1793 -1.0339
15825WAT     H265106   0.188   6.811   6.366 -1.5877  1.3469 -0.9166
15825WAT    EPW65107   0.223   6.795   6.287 -0.1066 -0.0110 -0.0372
15826WAT      O65108   6.304   3.973   1.650  0.2849 -0.3964 -0.2942
15826WAT     H165109   6.368   4.014   1.591 -2.6467  1.3331 -2.6092
15826WAT     H265110   6.280   3.892   1.606  1.4835 -1.5628  1.0842
15826WAT    EPW65111   6.309   3.968   1.636  0.0563 -0.3222 -0.4178
15827WAT      O65112   6.642   7.254   1.590  0.5466  0.7247 -0.1210
15827WAT     H165113   6.623   7.231   1.499 -0.3087  0.7693  0.0435
15827WAT     H265114   6.557   7.276   1.628  1.0124  1.6558  0.4269
15827WAT    EPW65115   6.628   7.254   1.583  0.4952  0.8533 -0.0270
15828WAT      O65116   7.879   5.638   0.928 -0.7608  0.2699  0.0108
15828WAT     H165117   7.907   5.662   1.016 -0.7706 -0.5357  0.2432
15828WAT     H265118   7.917   5.705   0.872  0.0877  0.2303  0.5197
15828WAT    EPW65119   7.888   5.650   0.932 -0.6502  0.1585  0.1086
15829WAT      O65120   3.921   9.166   3.324 -0.1226  0.0990  0.4320
15829WAT     H165121   3.909   9.080   3.363  0.4788  0.4308  1.4015
15829WAT     H265122   3.924   9.150   3.230  0.6102 -1.0245  0.6241
15829WAT    EPW65123   3.920   9.153   3.317  0.0533 -0.0057  0.5852
15830WAT      O65124   0.278  10.175   6.385 -0.4331  0.1657  0.3166
15830WAT     H165125   0.199  10.224   6.408 -0.5538  0.9652 -1.6293
15830WAT     H265126   0.326  10.167   6.468 -2.4849 -0.2877  1.5338
15830WAT    EPW65127   0.274  10.180   6.399 -0.7197  0.2112  0.2205
15831WAT      O65128   6.807   1.581   1.375 -0.3235 -1.2521  0.0080
15831WAT     H165129   6.773   1.670   1.364  1.0911 -0.7896 -0.8716
15831WAT     H265130   6.827   1.552   1.286 -0.0986 -2.1923  0.3537
15831WAT    EPW65131   6.805   1.589   1.362 -0.1070 -1.3151 -0.0624
15832WAT      O65132  -0.860   9.675   2.110 -0.2801  0.4746  0.4719
15832WAT     H165133  -0.783   9.620   2.096 -0.5426 -0.0101  0.8847
15832WAT     H265134  -0.834   9.762   2.079  0.5908  0.4224  1.0310
15832WAT    EPW65135  -0.846   9.680   2.104 -0.1998  0.4044  0.6000
15833WAT      O65136  -0.882   7.426   0.477 -0.1504  0.0436  0.1028
15833WAT     H165137  -0.800   7.456   0.515  0.1067  0.1121 -0.5007
15833WAT     H265138  -0.939   7.409   0.552  0.2057  0.5924  0.4965
15833WAT    EPW65139  -0.879   7.427   0.492 -0.0696  0.1247  0.0751
15834WAT      O65140  -3.599   7.944   2.807 -0.6128 -0.2037 -0.4539
15834WAT     H165141  -3.690   7.949   2.838 -0.7430 -0.9142 -0.7047
15834WAT     H265142  -3.557   7.884   2.867  0.1605  1.4533  0.7326
15834WAT    EPW65143  -3.606   7.937   2.819 -0.5280 -0.0787 -0.3304
15835WAT      O65144  -1.791   2.249   8.923  0.3860  0.6386  0.1872
15835WAT     H165145  -1.849   2.186   8.880  0.4585  1.2636 -0.8751
15835WAT     H265146  -1.800   2.230   9.016 -2.1534  1.2297  0.1388
15835WAT    EPW65147  -1.800   2.238   8.930  0.0606  0.7991  0.0405
15836WAT      O65148   2.077   6.747   2.140  0.8091  0.2805 -0.0186
15836WAT     H165149   2.009   6.809   2.165  2.2367  1.0048  2.3183
15836WAT     H265150   2.087   6.759   2.046  1.6663  4.3497  0.4158
15836WAT    EPW65151   2.070   6.757   2.131  1.1106  0.9129  0.3469
15837WAT      O65152   0.465   0.935   0.958  0.4082  0.2643 -0.5320
15837WAT     H165153   0.473   1.026   0.928 -0.8988 -0.2628 -2.6693
15837WAT     H265154   0.547   0.920   1.006  1.1088  2.2575 -0.9584
15837WAT    EPW65155   0.477   0.945   0.960  0.3282  0.4577 -0.8701
15838WAT      O65156  -7.650   8.535   8.613 -0.4649 -0.0366  0.4624
15838WAT     H165157  -7.709   8.611   8.616 -1.5179 -0.4139 -3.9572
15838WAT     H265158  -7.700   8.467   8.570  1.5427 -2.2436  1.3772
15838WAT    EPW65159  -7.664   8.536   8.608 -0.3390 -0.3777  0.0000
15839WAT      O65160  -3.061   6.294   8.859  0.0267  0.1580  0.5113
15839WAT     H165161  -3.071   6.365   8.796 -1.6083  0.0102  0.5555
15839WAT     H265162  -3.020   6.223   8.809 -1.5312 -0.0699 -0.4992
15839WAT    EPW65163  -3.057   6.294   8.844 -0.3945  0.1085  0.3843
15840WAT      O65164  -4.238   8.013   3.938 -0.4024 -0.0948 -0.1264
15840WAT     H165165  -4.232   8.017   3.842 -2.1862 -2.5856 -0.4488
15840WAT     H265166  -4.171   8.073   3.969  1.8430 -0.9343 -2.9423
15840WAT    EPW65167  -4.229   8.021   3.929 -0.3417 -0.5341 -0.5404
15841WAT      O65168   0.241   4.957   1.778  0.8957 -0.0476  0.8548
15841WAT     H165169   0.282   4.926   1.858  0.7618 -0.5569  0.7320
15841WAT     H265170   0.152   4.981   1.805  0.6877 -0.7095  0.7577
15841WAT    EPW65171   0.234   4.956   1.792  0.8506 -0.2022  0.8258
15842WAT      O65172  -0.371   4.675   8.291 -0.5402 -0.2087 -0.3725
15842WAT     H165173  -0.397   4.730   8.217  2.9487  0.7423 -1.0629
15842WAT     H265174  -0.330   4.735   8.353  2.7361 -1.7929 -0.8139
15842WAT    EPW65175  -0.369   4.690   8.289  0.3521 -0.2923 -0.5217
15843WAT      O65176   1.467   1.803   8.714 -0.7466  0.6389 -0.3026
15843WAT     H165177   1.528   1.841   8.778 -0.6824  0.4950 -0.2796
15843WAT     H265178   1.520   1.789   8.636 -0.9888  1.5002 -0.6363
15843WAT    EPW65179   1.482   1.806   8.713 -0.7701  0.7336 -0.3438
15844WAT      O65180   4.874   8.795   0.765  0.5024  0.0791 -0.0802
15844WAT     H165181   4.940   8.727   0.776  1.2679  0.5608 -1.4107
15844WAT     H265182   4.844   8.815   0.854  2.3907  0.0658  0.5948
15844WAT    EPW65183   4.879   8.789   0.778  0.8526  0.1411 -0.1667
15845WAT      O65184   2.773   3.544   1.188  0.4502 -0.4559 -0.1542
15845WAT     H165185   2.814   3.458   1.178  0.5969 -0.3538 -0.4304
15845WAT     H265186   2.818   3.583   1.263  1.6076  0.0806 -1.0991
15845WAT    EPW65187   2.784   3.538   1.197  0.6222 -0.3717 -0.3152
15846WAT      O65188   3.882   1.850   1.928 -0.2802 -0.2870 -0.1658
15846WAT     H165189   3.841   1.833   1.844  1.0654 -1.6308 -0.6048
15846WAT     H265190   3.813   1.832   1.993 -1.4125  1.0546 -0.9560
15846WAT    EPW65191   3.867   1.845   1.926 -0.2520 -0.2873 -0.3279
15847WAT      O65192  -5.277   6.051   8.496 -0.4683 -0.0796  0.1227
15847WAT     H165193  -5.354   6.002   8.525 -0.8548 -0.0040 -0.7759
15847WAT     H265194  -5.203   6.003   8.535 -0.9369 -0.4054  0.6218
15847WAT    EPW65195  -5.277   6.038   8.505 -0.5810 -0.1125  0.0701
15848WAT      O65196  -0.064   2.791   6.972 -0.5553 -0.3412  0.2714
15848WAT     H165197  -0.145   2.766   6.927 -0.2550 -0.3016 -0.2977
15848WAT     H265198  -0.091   2.805   7.063 -0.8817 -2.0213  0.4685
15848WAT    EPW65199  -0.078   2.789   6.978 -0.5587 -0.5575  0.2222
15849WAT      O65200  -7.093   6.348   8.110  0.2148  0.4821 -0.4882
15849WAT     H165201  -7.184   6.366   8.086  0.4096  1.6986 -0.3909
15849WAT     H265202  -7.078   6.258   8.082 -1.0475  0.2354 -0.4135
15849WAT    EPW65203  -7.103   6.339   8.103  0.0741  0.6101 -0.4659
15850WAT      O65204  -3.180   4.158   8.357 -0.0399 -0.2949 -1.0728
15850WAT     H165205  -3.247   4.160   8.426  1.4252  0.7192  0.4129
15850WAT     H265206  -3.144   4.247   8.356  2.0845 -1.0904 -0.9546
15850WAT    EPW65207  -3.184   4.170   8.366  0.4336 -0.2661 -0.8607
15851WAT      O65208  -2.141   3.861   2.159  0.3233 -0.2872  0.4013
15851WAT     H165209  -2.235   3.844   2.162  0.3367 -0.2375  3.0243
15851WAT     H265210  -2.105   3.786   2.110 -1.0810 -0.0510 -1.0702
15851WAT    EPW65211  -2.149   3.849   2.153  0.1400 -0.2495  0.5533
15852WAT      O65212   5.201   7.832   0.164  0.3250  0.1807 -0.7976
15852WAT     H165213   5.160   7.782   0.235 -0.0984  2.2769  0.5229
15852WAT     H265214   5.265   7.772   0.126 -0.1804 -1.3566  0.6687
15852WAT    EPW65215   5.204   7.818   0.168  0.2024  0.2544 -0.4300
15853WAT      O65216   6.135   1.972   2.382 -0.5039  0.5338 -0.4694
15853WAT     H165217   6.196   2.012   2.443 -1.1077 -0.1596  0.6225
15853WAT     H265218   6.189   1.917   2.325 -0.1629 -0.7535  1.0322
15853WAT    EPW65219   6.150   1.970   2.382 -0.5383  0.2726 -0.1273
15854WAT      O65220   8.113   0.547   2.100 -0.0195  0.2437  0.8490
15854WAT     H165221   8.103   0.539   2.006  0.6480 -1.1245  0.8747
15854WAT     H265222   8.042   0.605   2.127  0.6977  1.9227 -0.6822
15854WAT    EPW65223   8.103   0.554   2.091  0.1631  0.2847  0.6504
15855WAT      O65224   0.508   4.310   6.351 -0.0416  0.2185 -0.3576
15855WAT     H165225   0.475   4.290   6.438  1.2618  0.8415  0.3109
15855WAT     H265226   0.437   4.284   6.292 -1.9068  1.9615  0.9858
15855WAT    EPW65227   0.494   4.304   6.355 -0.1157  0.5305 -0.0920
15856WAT      O65228   4.737   4.496   4.373  0.3228  0.5120 -0.9088
15856WAT     H165229   4.757   4.432   4.305 -1.5122  0.0611 -1.0962
15856WAT     H265230   4.786   4.574   4.348  1.4654 -0.3545 -1.4732
15856WAT    EPW65231   4.746   4.498   4.361  0.2315  0.3383 -1.0080
15857WAT      O65232  -0.959   1.839   0.508  0.3641  0.4213 -0.1882
15857WAT     H165233  -0.900   1.811   0.578 -0.7446  0.0291  0.6328
15857WAT     H265234  -0.977   1.931   0.526 -0.4049  0.1633  0.4326
15857WAT    EPW65235  -0.953   1.847   0.519  0.1164  0.3355  0.0019
15858WAT      O65236   2.996   1.398   4.001  0.0370 -0.2484  0.4807
15858WAT     H165237   2.971   1.306   4.013 -0.7680  0.0665  1.3079
15858WAT     H265238   3.092   1.396   4.000  0.0267 -1.1635 -0.1202
15858WAT    EPW65239   3.005   1.385   4.003 -0.0706 -0.3275  0.5105
15859WAT      O65240   2.518   3.878   5.931  0.0427  0.5472  0.2572
15859WAT     H165241   2.584   3.859   5.997  1.1149  0.4005 -0.8214
15859WAT     H265242   2.556   3.948   5.878 -0.9672  0.9433  0.0255
15859WAT    EPW65243   2.532   3.885   5.933  0.0509  0.5800  0.0846
15860WAT      O65244   5.381   0.708   0.249  0.3573  0.0115  0.0027
15860WAT     H165245   5.338   0.709   0.335  2.1409 -0.6738  0.9740
15860WAT     H265246   5.466   0.667   0.266  0.8466  0.0645 -2.0695
15860WAT    EPW65247   5.387   0.703   0.263  0.6571 -0.0719 -0.1425
15861WAT      O65248  -0.722   9.422   3.943  0.8885 -0.2087  0.2518
15861WAT     H165249  -0.644   9.366   3.939  2.0094  1.3298 -1.6461
15861WAT     H265250  -0.779   9.387   3.874  1.8967  1.2824 -1.4298
15861WAT    EPW65251  -0.719   9.410   3.933  1.1693  0.1912 -0.2204
15862WAT      O65252  -1.664   9.411   0.372 -0.3225 -0.6128 -0.2703
15862WAT     H165253  -1.723   9.335   0.379 -0.1807 -0.5561  3.4907
15862WAT     H265254  -1.695   9.471   0.439  2.2843  0.6892 -0.1207
15862WAT    EPW65255  -1.676   9.409   0.382  0.0401 -0.4339  0.2455
15863WAT      O65256   3.015   2.496   4.038 -0.0387  0.3257  0.6338
15863WAT     H165257   3.043   2.419   4.088  0.0197  0.5355  0.9276
15863WAT     H265258   2.998   2.562   4.104 -2.5311 -0.1695  0.5981
15863WAT    EPW65259   3.016   2.494   4.053 -0.3598  0.2880  0.6678
15864WAT      O65260  -0.534   1.349   1.137 -0.8617  0.1743  0.3956
15864WAT     H165261  -0.569   1.320   1.052 -0.7305  1.5872 -0.1710
15864WAT     H265262  -0.458   1.401   1.114  0.6302 -1.3917  1.5342
15864WAT    EPW65263  -0.529   1.352   1.123 -0.6476  0.1541  0.4710
15865WAT      O65264   6.499   1.998   0.266  0.6608  0.1130 -0.2149
15865WAT     H165265   6.522   2.090   0.255 -1.4693  0.9484  1.4809
15865WAT     H265266   6.506   1.983   0.360  1.3901 -1.6188 -0.5055
15865WAT    EPW65267   6.503   2.008   0.277  0.4759 -0.0052 -0.0295
15866WAT      O65268   2.044   0.212   5.602  0.0642 -0.1836  0.5356
15866WAT     H165269   2.059   0.305   5.581 -0.1729 -0.2758 -0.0518
15866WAT     H265270   1.955   0.209   5.635 -0.3894 -0.3935 -0.6710
15866WAT    EPW65271   2.034   0.224   5.604 -0.0269 -0.2235  0.2987
15867WAT      O65272   5.721   5.505   0.323 -0.1455 -0.5415 -0.0127
15867WAT     H165273   5.646   5.550   0.362  0.3180  0.2134  0.0385
15867WAT     H265274   5.797   5.554   0.355  0.2431  0.3761 -2.1375
15867WAT    EPW65275   5.722   5.518   0.332 -0.0329 -0.3209 -0.2862
15868WAT      O65276   0.618   7.102   3.100  0.0556  0.6502  0.2255
15868WAT     H165277   0.679   7.040   3.059  0.4283  0.8256  0.5074
15868WAT     H265278   0.539   7.051   3.114 -0.2200  0.6948 -1.0721
15868WAT    EPW65279   0.616   7.087   3.096  0.0684  0.6793  0.0916
15869WAT      O65280  -3.086   0.596   8.694 -0.0276  0.1090  0.6151
15869WAT     H165281  -3.173   0.590   8.734 -0.3867  0.8918 -0.0191
15869WAT     H265282  -3.099   0.566   8.604  0.1271  1.1671  0.2198
15869WAT    EPW65283  -3.099   0.591   8.688 -0.0546  0.3518  0.4792
15870WAT      O65284   0.947   2.867   4.784  0.8988  0.5447  0.0499
15870WAT     H165285   0.985   2.919   4.713  2.3168 -1.2072 -0.5667
15870WAT     H265286   0.890   2.804   4.739  0.8636  0.2020  0.5654
15870WAT    EPW65287   0.944   2.866   4.768  1.0812  0.2685  0.0365
15871WAT      O65288  -3.172   7.783   6.531 -0.7281  0.7552  0.1232
15871WAT     H165289  -3.108   7.731   6.483 -2.3223 -2.4874  1.2462
15871WAT     H265290  -3.120   7.851   6.575  1.4637  0.2115 -1.4736
15871WAT    EPW65291  -3.157   7.785   6.531 -0.6493  0.2561  0.0608
15872WAT      O65292  -3.371   3.072   5.486 -0.2494  0.0316 -0.3781
15872WAT     H165293  -3.371   3.119   5.404 -0.4330 -0.0333 -0.4169
15872WAT     H265294  -3.421   3.127   5.546 -1.0988 -0.4489 -0.6238
15872WAT    EPW65295  -3.378   3.085   5.483 -0.3856 -0.0403 -0.4156
15873WAT      O65296  -1.604   5.877   8.030 -0.3724 -0.3347  0.8391
15873WAT     H165297  -1.622   5.867   8.124 -0.2432 -1.2152  0.7745
15873WAT     H265298  -1.690   5.874   7.989 -0.6183  1.8890  1.0568
15873WAT    EPW65299  -1.617   5.875   8.037 -0.3877 -0.1576  0.8593
15874WAT      O65300   3.085   7.745   5.161 -0.2830 -0.4486 -0.3414
15874WAT     H165301   3.144   7.751   5.086 -0.2055 -1.6672 -0.3908
15874WAT     H265302   3.126   7.681   5.219 -1.7306 -1.6112 -0.5532
15874WAT    EPW65303   3.098   7.737   5.159 -0.4637 -0.7627 -0.3760
15875WAT      O65304  -1.162   6.237   0.090  0.0593 -0.2977  0.3254
15875WAT     H165305  -1.098   6.210   0.025  0.4266  1.5411 -0.1363
15875WAT     H265306  -1.112   6.247   0.171  0.1887  0.2175  0.1873
15875WAT    EPW65307  -1.147   6.235   0.092  0.1248  0.0126  0.2463
15876WAT      O65308   0.994   6.176   0.025  0.8727  0.1274  0.7688
15876WAT     H165309   1.009   6.082   0.033  0.0476  0.0612  1.9012
15876WAT     H265310   1.042   6.202  -0.053  1.6193 -1.1233  0.7826
15876WAT    EPW65311   1.002   6.167   0.016  0.8625 -0.0463  0.9198
15877WAT      O65312  -1.384   2.681   4.812 -0.1727 -0.0842  0.0106
15877WAT     H165313  -1.334   2.611   4.770 -2.1683 -1.9523  0.5523
15877WAT     H265314  -1.412   2.736   4.739  0.2516 -0.6537 -0.6042
15877WAT    EPW65315  -1.381   2.679   4.797 -0.3799 -0.4058  0.0010
15878WAT      O65316   0.915   0.200   3.896  0.1325 -0.2245 -0.0039
15878WAT     H165317   0.837   0.253   3.914 -1.0683 -1.8932 -0.0473
15878WAT     H265318   0.908   0.180   3.802  0.2135 -0.9552  0.1396
15878WAT    EPW65319   0.903   0.204   3.886 -0.0152 -0.5410  0.0093
15879WAT      O65320   0.796   3.732   3.180  0.6138 -0.5327 -0.2678
15879WAT     H165321   0.811   3.753   3.088  0.1086 -1.0380 -0.4661
15879WAT     H265322   0.765   3.641   3.180 -0.4043 -0.2064  0.3023
15879WAT    EPW65323   0.794   3.723   3.168  0.4129 -0.5562 -0.2189
15880WAT      O65324  -1.227   0.793   2.638 -0.0849  0.2889  0.0251
15880WAT     H165325  -1.268   0.830   2.560 -0.9997 -1.2777 -0.2750
15880WAT     H265326  -1.291   0.805   2.708 -0.3431 -0.5852 -0.0506
15880WAT    EPW65327  -1.241   0.799   2.637 -0.2396 -0.0330 -0.0244
15881WAT      O65328  -0.228  10.286   5.422 -0.0902 -0.4694  0.9789
15881WAT     H165329  -0.308  10.309   5.470  0.7137  2.7112  0.9927
15881WAT     H265330  -0.240  10.324   5.336  0.5506 -1.8597  0.2426
15881WAT    EPW65331  -0.240  10.294   5.417  0.1003 -0.2332  0.8833
15882WAT      O65332  -1.687  10.147   3.833 -0.2895  0.0976  0.1933
15882WAT     H165333  -1.647  10.124   3.917 -0.0179  1.4210  0.4487
15882WAT     H265334  -1.684  10.066   3.782 -0.2647 -0.6720  1.3737
15882WAT    EPW65335  -1.682  10.133   3.837 -0.2505  0.1702  0.3825
15883WAT      O65336  -2.764   8.017   0.602 -0.2331  0.6103 -0.3773
15883WAT     H165337  -2.850   8.050   0.626  0.1490  1.3644 -0.0331
15883WAT     H265338  -2.703   8.061   0.661  0.4940  0.8694 -1.2924
15883WAT    EPW65339  -2.768   8.027   0.613 -0.0868  0.7439 -0.4526
15884WAT      O65340  -2.573   7.964   0.129  0.2487  0.2909 -0.6544
15884WAT     H165341  -2.603   7.922   0.209  0.3701  1.6989  0.1614
15884WAT     H265342  -2.648   7.960   0.070 -0.3345  0.5049  0.0562
15884WAT    EPW65343  -2.587   7.958   0.132  0.1878  0.5050 -0.4531
15885WAT      O65344  -1.298   0.436   5.575  0.0105 -0.2351 -0.5460
15885WAT     H165345  -1.369   0.448   5.638 -0.9518  0.4470 -1.7143
15885WAT     H265346  -1.230   0.496   5.605 -0.2798 -0.1953  0.0537
15885WAT    EPW65347  -1.298   0.446   5.587 -0.1547 -0.1399 -0.6211
15886WAT      O65348  -4.168   7.402   4.109  0.0140  0.1316  0.1257
15886WAT     H165349  -4.122   7.400   4.025 -0.8961 -0.5477 -0.3821
15886WAT     H265350  -4.260   7.405   4.085 -0.2261  1.6881  1.1222
15886WAT    EPW65351  -4.174   7.402   4.095 -0.1376  0.2475  0.1903
15887WAT      O65352   0.051   5.535   4.030  0.0507  0.6850 -0.4027
15887WAT     H165353   0.056   5.469   4.100 -1.0728 -0.3289 -1.2359
15887WAT     H265354  -0.035   5.521   3.990  0.3450  1.7885 -1.4672
15887WAT    EPW65355   0.040   5.524   4.034 -0.0587  0.6969 -0.6530
15888WAT      O65356  -1.389   7.306   4.997  0.3560  0.9932  0.1777
15888WAT     H165357  -1.305   7.321   5.040 -0.8225  2.2715  2.1965
15888WAT     H265358  -1.446   7.376   5.030 -1.7892 -0.4168 -0.3247
15888WAT    EPW65359  -1.385   7.317   5.007 -0.0824  0.9756  0.3779
15889WAT      O65360   1.043   8.954   6.115  0.4723  0.7494  0.1783
15889WAT     H165361   1.112   8.942   6.050  1.7956  3.0438  1.0535
15889WAT     H265362   1.071   8.902   6.190 -0.8262 -1.5230 -0.7993
15889WAT    EPW65363   1.055   8.945   6.116  0.4755  0.7524  0.1645
15890WAT      O65364   6.105   0.922   7.190  0.1154  0.1726  0.8212
15890WAT     H165365   6.148   0.877   7.118 -2.5066  0.1664 -0.8591
15890WAT     H265366   6.096   0.854   7.258  1.0367 -0.3060  0.4842
15890WAT    EPW65367   6.110   0.907   7.190 -0.1090  0.1087  0.5550
15891WAT      O65368  -3.346   5.847   5.386 -0.3142  0.3945 -0.7553
15891WAT     H165369  -3.301   5.810   5.461 -0.0905  0.7726 -0.7012
15891WAT     H265370  -3.277   5.864   5.322 -0.2954  1.4545 -0.4794
15891WAT    EPW65371  -3.331   5.845   5.387 -0.2823  0.5844 -0.7117
15892WAT      O65372  -2.060   6.396   5.458  0.3604  0.0942  0.1306
15892WAT     H165373  -2.046   6.453   5.534 -1.0313  0.1294  0.3838
15892WAT     H265374  -2.135   6.342   5.482 -0.4580  0.4883 -1.4348
15892WAT    EPW65375  -2.068   6.396   5.471  0.0689  0.1509 -0.0424
15893WAT      O65376  -5.498   1.723   8.445 -0.4558 -0.0114 -0.0134
15893WAT     H165377  -5.507   1.802   8.391  2.5389 -0.7999 -1.9355
15893WAT     H265378  -5.465   1.755   8.529 -1.4911  0.9266  0.0603
15893WAT    EPW65379  -5.495   1.738   8.449 -0.1974  0.0084 -0.2575
15894WAT      O65380  -1.190   6.401   1.804 -0.0063 -0.8879  0.1731
15894WAT     H165381  -1.112   6.446   1.839 -0.1341 -2.3092  2.4949
15894WAT     H265382  -1.182   6.311   1.836 -0.8874 -2.0111 -2.4830
15894WAT    EPW65383  -1.179   6.395   1.813 -0.1394 -1.2236  0.1290
15895WAT      O65384   6.392   6.789   0.952  0.1420  0.0544  0.5940
15895WAT     H165385   6.398   6.882   0.973  0.4803 -0.1485  1.4510
15895WAT     H265386   6.356   6.786   0.863  0.2064  1.0000  0.5301
15895WAT    EPW65387   6.388   6.801   0.943  0.1950  0.1523  0.6986
15896WAT      O65388  -3.857   8.979   8.519  0.5268 -0.1916  0.5244
15896WAT     H165389  -3.919   9.012   8.454  2.8238 -0.0519 -1.7446
15896WAT     H265390  -3.890   8.892   8.541 -1.2179  0.4137  0.4841
15896WAT    EPW65391  -3.869   8.972   8.513  0.5997 -0.0935  0.2198
15897WAT      O65392  -4.476   8.494   5.502 -0.4083  0.3162 -0.3074
15897WAT     H165393  -4.497   8.470   5.412 -0.3797 -0.9200 -0.0069
15897WAT     H265394  -4.435   8.416   5.539  2.3447  1.7483 -0.0863
15897WAT    EPW65395  -4.473   8.481   5.495 -0.0415  0.3424 -0.2384
15898WAT      O65396   1.653   9.743   6.273 -0.4947 -0.2032 -0.2626
15898WAT     H165397   1.640   9.825   6.322 -2.2954 -0.9442  0.5849
15898WAT     H265398   1.588   9.746   6.204  0.4874 -0.2339 -1.2156
15898WAT    EPW65399   1.643   9.754   6.271 -0.6027 -0.3052 -0.2766
15899WAT      O65400  -1.277   3.638   1.424 -0.0082 -0.4388 -0.0886
15899WAT     H165401  -1.185   3.646   1.398  0.1792 -0.9747  0.3825
15899WAT     H265402  -1.311   3.567   1.370 -0.8618  1.3724 -2.1071
15899WAT    EPW65403  -1.269   3.630   1.413 -0.0961 -0.2707 -0.2927
15900WAT      O65404   1.354   3.324   2.840  0.8017 -0.1089 -0.6307
15900WAT     H165405   1.394   3.354   2.921  1.6115  1.9142 -1.6960
15900WAT     H265406   1.321   3.404   2.799 -2.9395 -1.4448 -0.6291
15900WAT    EPW65407   1.355   3.339   2.845  0.4151 -0.0182 -0.7710
15901WAT      O65408   1.398   4.687   3.381 -0.2605  0.4671  0.2891
15901WAT     H165409   1.418   4.763   3.434 -1.3789  0.8753  0.1525
15901WAT     H265410   1.399   4.613   3.442 -0.0079  0.7126  0.5804
15901WAT    EPW65411   1.401   4.687   3.396 -0.3747  0.5531  0.3095
15902WAT      O65412   1.403   9.587   3.953  0.1163  0.8706  0.1865
15902WAT     H165413   1.319   9.615   3.916  0.1073  1.5309  0.6992
15902WAT     H265414   1.392   9.597   4.047  1.0223  1.6622  0.2167
15902WAT    EPW65415   1.390   9.592   3.960  0.2346  1.0624  0.2581
15903WAT      O65416   4.090   5.933   0.784 -0.3984  0.7092 -0.3753
15903WAT     H165417   4.103   6.001   0.718  0.7638 -0.3400 -1.2836
15903WAT     H265418   4.090   5.851   0.735  2.3706 -0.2740  1.0399
15903WAT    EPW65419   4.092   5.931   0.769  0.1202  0.4413 -0.3085
15904WAT      O65420  -3.362   7.902   5.822  0.2191 -0.1625  0.9194
15904WAT     H165421  -3.369   7.823   5.769  0.2248  0.9552 -0.8262
15904WAT     H265422  -3.323   7.967   5.763 -0.8753  1.4741  1.9195
15904WAT    EPW65423  -3.358   7.900   5.807  0.0756  0.2007  0.8211
15905WAT      O65424   2.176   7.593   1.452 -0.3365  0.1292  0.1529
15905WAT     H165425   2.255   7.545   1.425 -0.0891  1.5223 -1.7493
15905WAT     H265426   2.167   7.571   1.545  2.8914  0.7251  0.7482
15905WAT    EPW65427   2.185   7.583   1.461  0.1220  0.3915 -0.0195
15906WAT      O65428   0.729   8.339   0.710 -0.3541  0.0288  0.4070
15906WAT     H165429   0.819   8.369   0.718 -0.6392  0.5661  2.0214
15906WAT     H265430   0.703   8.362   0.621  0.6142  1.2642  0.4315
15906WAT    EPW65431   0.737   8.346   0.699 -0.2640  0.2627  0.6232
15907WAT      O65432   3.182   6.699   0.722 -0.3993  0.0906  0.6421
15907WAT     H165433   3.269   6.702   0.761 -0.1986  1.4985  0.1315
15907WAT     H265434   3.128   6.755   0.778 -0.9986 -0.7825  0.9660
15907WAT    EPW65435   3.186   6.706   0.734 -0.4519  0.1609  0.6175
15908WAT      O65436   0.788   4.300   2.832  0.3298  0.4808  0.0177
15908WAT     H165437   0.758   4.378   2.786 -1.8273 -1.5282 -2.2720
15908WAT     H265438   0.737   4.298   2.913  0.8303  1.6580  0.3969
15908WAT    EPW65439   0.777   4.310   2.837  0.1113  0.3710 -0.2344
15909WAT      O65440   2.859   5.365   1.155 -0.9749  0.6152  0.0413
15909WAT     H165441   2.927   5.328   1.099 -0.4436  0.7344  0.5964
15909WAT     H265442   2.809   5.422   1.098  0.8321  2.3892  0.1310
15909WAT    EPW65443   2.861   5.367   1.140 -0.6665  0.8647  0.1264
15910WAT      O65444   4.659   0.561   7.333  0.4558  0.0853  0.0313
15910WAT     H165445   4.645   0.640   7.280  0.1627  0.1077  0.1421
15910WAT     H265446   4.673   0.491   7.269  0.7261  0.2296 -0.0679
15910WAT    EPW65447   4.659   0.562   7.317  0.4530  0.1073  0.0327
15911WAT      O65448   3.161   7.136   1.532  0.3852  0.5058  0.4970
15911WAT     H165449   3.194   7.137   1.622 -0.2983  0.9979  0.7510
15911WAT     H265450   3.067   7.150   1.541  0.2303 -0.0044 -0.2688
15911WAT    EPW65451   3.153   7.138   1.545  0.2747  0.5035  0.4294
15912WAT      O65452  -3.357   0.250   8.772 -0.0144 -0.0603  0.3930
15912WAT     H165453  -3.329   0.226   8.684  2.5083  0.4290  0.9998
15912WAT     H265454  -3.414   0.326   8.758 -1.1822 -1.1209 -0.9067
15912WAT    EPW65455  -3.361   0.257   8.758  0.1643 -0.1357  0.3014
15913WAT      O65456   6.350  10.328   1.531  0.0908 -0.2865  0.0030
15913WAT     H165457   6.420  10.346   1.594 -1.9835 -2.0635  3.1505
15913WAT     H265458   6.358  10.234   1.513  0.3172  0.0915 -2.1084
15913WAT    EPW65459   6.360  10.318   1.537 -0.1531 -0.4711  0.1397
15914WAT      O65460  -1.536   7.280   3.097  0.7825 -0.1989 -0.0605
15914WAT     H165461  -1.613   7.223   3.092 -1.9752  3.2404 -1.5165
15914WAT     H265462  -1.525   7.312   3.008  1.4425  2.3081  0.8447
15914WAT    EPW65463  -1.545   7.277   3.084  0.5058  0.5853 -0.1330
15915WAT      O65464  -3.113   9.504   4.204 -0.4520  0.0485  0.1313
15915WAT     H165465  -3.062   9.580   4.176  1.3877  0.9493  4.9658
15915WAT     H265466  -3.061   9.464   4.274 -3.8417 -2.4732  1.5216
15915WAT    EPW65467  -3.099   9.508   4.210 -0.6565 -0.1655  0.9522
15916WAT      O65468   1.541   1.279   6.135  0.0901 -0.1747  0.6044
15916WAT     H165469   1.449   1.253   6.130  0.3517 -1.6925  2.6312
15916WAT     H265470   1.566   1.262   6.226  1.3504  3.8539  1.2247
15916WAT    EPW65471   1.532   1.274   6.146  0.2908  0.1565  0.9537
15917WAT      O65472  -4.227   4.551   8.213 -0.0453  0.4342  0.6248
15917WAT     H165473  -4.288   4.621   8.190 -1.1373 -0.3299  1.0707
15917WAT     H265474  -4.279   4.471   8.204  0.3006 -0.1139  2.9193
15917WAT    EPW65475  -4.242   4.549   8.209 -0.1438  0.2613  0.9861
15918WAT      O65476   0.337   9.641   0.790  0.3006  0.0259 -0.3484
15918WAT     H165477   0.375   9.728   0.801  0.0306  0.5676 -2.8895
15918WAT     H265478   0.245   9.653   0.812  0.5084  0.0520  0.5421
15918WAT    EPW65479   0.330   9.654   0.794  0.2924  0.1006 -0.5661
15919WAT      O65480   0.029  10.058   0.763  0.4627  0.1518 -0.3321
15919WAT     H165481   0.050   9.983   0.706  3.6749  0.0225  0.7923
15919WAT     H265482   0.001  10.126   0.703 -1.1644 -1.4786 -1.5358
15919WAT    EPW65483   0.028  10.057   0.748  0.6717 -0.0796 -0.3425
15920WAT      O65484   3.478   4.302   2.459 -0.6241  0.5185  0.0338
15920WAT     H165485   3.556   4.248   2.442 -0.5308  0.5807  0.2590
15920WAT     H265486   3.487   4.375   2.397 -0.3257  0.7030  0.2901
15920WAT    EPW65487   3.490   4.304   2.448 -0.5724  0.5510  0.0973
15921WAT      O65488   0.376   2.490   1.888  0.5925 -0.0402 -0.1730
15921WAT     H165489   0.320   2.529   1.956  0.9129 -0.3080  0.2521
15921WAT     H265490   0.341   2.402   1.875  0.1024  0.2555 -0.8604
15921WAT    EPW65491   0.364   2.484   1.896  0.5701 -0.0365 -0.2075
15922WAT      O65492  -1.374   0.051   7.432  0.2369 -0.3663 -0.2548
15922WAT     H165493  -1.433  -0.001   7.486  0.0526 -0.6126 -0.6836
15922WAT     H265494  -1.423   0.065   7.350 -0.1174  1.3314  0.2100
15922WAT    EPW65495  -1.388   0.046   7.428  0.1659 -0.1749 -0.2501
15923WAT      O65496   3.170   9.494   5.000 -0.2737  0.3748 -0.3938
15923WAT     H165497   3.199   9.415   4.953  2.5039  0.3825  1.0767
15923WAT     H265498   3.114   9.461   5.070 -2.3322  0.1445 -2.0459
15923WAT    EPW65499   3.167   9.479   5.003 -0.1789  0.3452 -0.4179
15924WAT      O65500   0.228   2.452   5.335  0.3622  0.0203  0.6313
15924WAT     H165501   0.175   2.417   5.263 -0.1741  2.4225 -0.2269
15924WAT     H265502   0.172   2.442   5.412 -0.6929  0.9862  0.0161
15924WAT    EPW65503   0.213   2.446   5.335  0.1523  0.4646  0.4370
15925WAT      O65504   1.421   9.132   0.281 -0.2183 -0.3536 -0.0617
15925WAT     H165505   1.476   9.200   0.243 -0.5750 -0.5879 -1.0372
15925WAT     H265506   1.449   9.051   0.237 -1.9863 -0.3331 -1.3476
15925WAT    EPW65507   1.432   9.130   0.270 -0.4985 -0.3819 -0.3600
15926WAT      O65508   6.413   5.676   2.532 -0.0073 -0.5488  0.2068
15926WAT     H165509   6.463   5.598   2.508 -0.8139 -1.0016 -0.0412
15926WAT     H265510   6.455   5.707   2.612 -0.0188 -1.5661  0.6303
15926WAT    EPW65511   6.425   5.670   2.539 -0.1152 -0.7429  0.2300
15927WAT      O65512   5.938   3.538   1.385  0.2199 -0.4276 -0.4854
15927WAT     H165513   6.002   3.566   1.321  0.5591 -0.3517 -0.1190
15927WAT     H265514   5.987   3.485   1.448 -0.3847 -1.7403 -1.0856
15927WAT    EPW65515   5.953   3.534   1.385  0.1853 -0.5908 -0.5162
15928WAT      O65516   0.671   8.674   2.829  0.1431 -0.0462 -0.0988
15928WAT     H165517   0.609   8.729   2.781 -1.7414 -1.4086  0.6794
15928WAT     H265518   0.618   8.606   2.868  1.8286  0.0172  2.5367
15928WAT    EPW65519   0.656   8.672   2.828  0.1169 -0.2179  0.3515
15929WAT      O65520   2.015   9.787   4.674  0.6505  0.0226 -0.0858
15929WAT     H165521   1.992   9.874   4.708 -0.3017  0.6641 -2.1960
15929WAT     H265522   2.084   9.804   4.610  2.3852 -1.1458  1.3686
15929WAT    EPW65523   2.021   9.801   4.670  0.7538 -0.0472 -0.1724
15930WAT      O65524   2.397   0.191   4.976  0.0909 -0.3080  0.2257
15930WAT     H165525   2.447   0.191   5.058 -1.6861 -0.0159  1.3511
15930WAT     H265526   2.327   0.255   4.990 -1.4047 -1.6522 -0.7835
15930WAT    EPW65527   2.395   0.199   4.988 -0.3407 -0.4467  0.2410
15931WAT      O65528   5.057   3.320   2.746  0.0836 -0.3842 -0.3969
15931WAT     H165529   4.989   3.388   2.744  0.0221 -0.2180  2.7082
15931WAT     H265530   5.010   3.238   2.757  0.3080 -0.5688 -0.7703
15931WAT    EPW65531   5.042   3.318   2.747  0.1049 -0.3867 -0.0366
15932WAT      O65532  -0.957   2.992   3.759  0.5326  0.5441  0.5127
15932WAT     H165533  -0.985   2.992   3.851 -0.3844 -1.7004  0.3110
15932WAT     H265534  -1.032   2.956   3.712  1.2109  1.1150 -1.0507
15932WAT    EPW65535  -0.971   2.987   3.765  0.5011  0.3233  0.2799
15933WAT      O65536   2.278   6.650   5.007  1.0762  0.6575 -0.3383
15933WAT     H165537   2.262   6.728   5.059  0.1326 -0.8475  1.7714
15933WAT     H265538   2.354   6.608   5.049  1.4548  0.3273 -1.3149
15933WAT    EPW65539   2.286   6.654   5.019  1.0016  0.4156 -0.1888
15934WAT      O65540   1.934   4.589   8.409 -0.6424  0.2413 -0.4764
15934WAT     H165541   1.885   4.515   8.375 -0.8770 -0.2175  0.7875
15934WAT     H265542   1.969   4.558   8.493 -0.3326  1.3964 -0.1561
15934WAT    EPW65543   1.933   4.575   8.416 -0.6325  0.3333 -0.2675
15935WAT      O65544   4.394   5.502   0.377 -0.4005  0.0366  0.1439
15935WAT     H165545   4.360   5.538   0.459  3.0628  1.8474  0.9690
15935WAT     H265546   4.406   5.579   0.321  2.3296 -0.3770  0.0122
15935WAT    EPW65547   4.391   5.517   0.380  0.4165  0.2208  0.2353
15936WAT      O65548  -4.982   5.791   8.420 -0.4505  0.0815 -0.4371
15936WAT     H165549  -5.043   5.830   8.357 -3.4888 -2.9568  0.3046
15936WAT     H265550  -5.029   5.715   8.454  2.2747 -0.2129  3.2481
15936WAT    EPW65551  -4.996   5.786   8.416 -0.4919 -0.3579  0.1469
15937WAT      O65552  -0.258   8.734   5.024 -0.5348  0.1785  0.5002
15937WAT     H165553  -0.222   8.784   5.097  0.2192 -0.6373  0.7110
15937WAT     H265554  -0.336   8.783   4.997 -0.1735  1.1091  1.0985
15937WAT    EPW65555  -0.264   8.747   5.030 -0.3877  0.1936  0.6068
15938WAT      O65556   7.122   7.540   0.459  0.2943 -0.2894  1.1011
15938WAT     H165557   7.069   7.542   0.380  0.2497  0.6807  1.1448
15938WAT     H265558   7.195   7.481   0.438  1.9352  2.1985 -0.7660
15938WAT    EPW65559   7.125   7.532   0.446  0.5050  0.1667  0.8606
15939WAT      O65560  -2.736   7.506   6.602  0.2448  0.4780  0.0209
15939WAT     H165561  -2.711   7.462   6.683 -0.1022  0.5221  0.1529
15939WAT     H265562  -2.790   7.442   6.555 -0.9340  1.0345  0.5796
15939WAT    EPW65563  -2.740   7.492   6.607  0.0436  0.5569  0.1121
15940WAT      O65564   5.294   5.868   0.795  0.2981  0.4442 -0.1357
15940WAT     H165565   5.356   5.925   0.749  0.6818  0.1479  0.0088
15940WAT     H265566   5.298   5.785   0.747 -0.4364  0.6027 -0.4914
15940WAT    EPW65567   5.303   5.865   0.782  0.2520  0.4261 -0.1635
15941WAT      O65568  -1.663   6.881   4.232 -0.1767  0.2751  0.0412
15941WAT     H165569  -1.680   6.966   4.192  0.3207 -1.0065 -3.1274
15941WAT     H265570  -1.594   6.842   4.178  1.5706 -1.1282  3.0076
15941WAT    EPW65571  -1.656   6.887   4.220  0.1194 -0.0792  0.0145
15942WAT      O65572  -2.205   8.725   6.129  0.1490  0.0100  0.7150
15942WAT     H165573  -2.265   8.723   6.055 -0.1054  1.5362  0.8555
15942WAT     H265574  -2.251   8.680   6.199 -0.2547 -0.0508  0.4125
15942WAT    EPW65575  -2.219   8.719   6.128  0.0621  0.2031  0.6936
15943WAT      O65576   2.573   3.386   7.618 -0.6843 -0.2635 -0.1586
15943WAT     H165577   2.510   3.318   7.592  0.3143 -0.7444 -1.4466
15943WAT     H265578   2.595   3.430   7.535  0.2144  0.2960  0.3676
15943WAT    EPW65579   2.568   3.383   7.603 -0.4340 -0.2531 -0.2589
15944WAT      O65580   8.354   3.593   0.158 -0.0781 -0.7960 -0.2121
15944WAT     H165581   8.260   3.611   0.168  0.1219  1.6199 -1.8523
15944WAT     H265582   8.361   3.551   0.073  0.4437  0.8744 -1.0464
15944WAT    EPW65583   8.342   3.590   0.148  0.0167 -0.2570 -0.5385
15945WAT      O65584   1.690   8.561   3.791  0.2571 -0.4256  0.0331
15945WAT     H165585   1.725   8.567   3.880 -1.3754 -0.6777  0.7216
15945WAT     H265586   1.763   8.586   3.735  1.2579 -0.0606  1.4501
15945WAT    EPW65587   1.704   8.565   3.795  0.1737 -0.4106  0.3108
15946WAT      O65588   2.319   9.830   0.415  0.1332 -0.5477 -0.3941
15946WAT     H165589   2.374   9.855   0.489 -1.6868  1.4506  0.4015
15946WAT     H265590   2.356   9.878   0.340  0.1349 -0.0683 -0.0914
15946WAT    EPW65591   2.331   9.840   0.415 -0.1066 -0.2208 -0.2492
15947WAT      O65592   1.759   6.455   5.571 -0.1580 -0.3308  0.0975
15947WAT     H165593   1.736   6.542   5.605 -0.4058 -1.0008  1.7386
15947WAT     H265594   1.835   6.429   5.623  1.3375 -0.2030 -1.9108
15947WAT    EPW65595   1.766   6.463   5.582  0.0066 -0.4022  0.0489
15948WAT      O65596   3.037   5.675   1.971 -0.2366  0.4027 -0.2960
15948WAT     H165597   3.106   5.664   1.905 -1.1043  0.5315 -1.2466
15948WAT     H265598   2.980   5.600   1.958  0.1683 -0.1612  1.0640
15948WAT    EPW65599   3.039   5.664   1.960 -0.2977  0.3452 -0.2421
15949WAT      O65600  -0.547  10.292   0.956 -1.4940 -0.3408  0.6097
15949WAT     H165601  -0.534  10.199   0.975  0.3640 -0.0907  0.7252
15949WAT     H265602  -0.468  10.335   0.988  0.0002  0.6560 -3.7645
15949WAT    EPW65603  -0.535  10.285   0.963 -1.0519 -0.1764  0.0480
15950WAT      O65604   4.110   1.506   1.732  0.6466 -0.1017 -0.2064
15950WAT     H165605   4.116   1.589   1.779  1.5714 -0.9077  1.1562
15950WAT     H265606   4.130   1.439   1.797 -0.2124 -1.4225 -1.2463
15950WAT    EPW65607   4.114   1.508   1.747  0.6554 -0.3822 -0.1639
15951WAT      O65608  -3.292   7.612   7.382  0.0224 -0.0553 -0.4340
15951WAT     H165609  -3.262   7.679   7.321  0.5164 -1.5608 -1.9046
15951WAT     H265610  -3.387   7.621   7.383  0.1561  1.7702  0.7587
15951WAT    EPW65611  -3.301   7.622   7.374  0.1051 -0.0131 -0.4706
15952WAT      O65612  -2.218   9.427   7.190  0.5001 -0.8316 -0.7823
15952WAT     H165613  -2.226   9.522   7.200 -0.4901 -1.1058  1.7719
15952WAT     H265614  -2.166   9.416   7.110  3.2493  1.9410  0.3829
15952WAT    EPW65615  -2.212   9.438   7.181  0.7322 -0.5021 -0.2916
15953WAT      O65616   0.079   1.519   3.086 -0.4365  0.0300  0.0223
15953WAT     H165617   0.127   1.593   3.049  0.4807 -0.6558 -0.2017
15953WAT     H265618  -0.013   1.546   3.082 -0.0452  1.6506  1.0986
15953WAT    EPW65619   0.073   1.532   3.081 -0.2639  0.1533  0.1346
15954WAT      O65620  -5.834   6.098   6.271  0.3014  0.1231  0.6242
15954WAT     H165621  -5.892   6.024   6.288  0.0029  0.4989  1.3011
15954WAT     H265622  -5.882   6.174   6.303  0.5699  0.6229 -0.1348
15954WAT    EPW65623  -5.848   6.098   6.277  0.2975  0.2384  0.6135
15955WAT      O65624   5.523   5.103   1.758 -0.3003 -0.4645  1.1662
15955WAT     H165625   5.603   5.052   1.748 -0.1380 -0.1214  0.6511
15955WAT     H265626   5.461   5.044   1.800  0.0202 -0.9364  0.9776
15955WAT    EPW65627   5.525   5.089   1.762 -0.2367 -0.4816  1.0734
15956WAT      O65628  -3.722   7.785   6.520  0.8673  1.0694  0.7249
15956WAT     H165629  -3.815   7.785   6.543  0.2676  2.2777 -1.4766
15956WAT     H265630  -3.694   7.876   6.532  0.3043  2.0286 -3.6321
15956WAT    EPW65631  -3.731   7.797   6.525  0.7141  1.3552 -0.1400
15957WAT      O65632   3.643   2.536   1.470 -0.2326 -0.4826  0.0055
15957WAT     H165633   3.697   2.500   1.540  0.7289 -1.0067 -0.9815
15957WAT     H265634   3.651   2.631   1.480  0.4408 -0.5565  0.1856
15957WAT    EPW65635   3.651   2.544   1.480 -0.0170 -0.5615 -0.1009
15958WAT      O65636  -2.177   7.976   4.588 -0.0945 -0.3694 -0.2378
15958WAT     H165637  -2.179   8.042   4.657 -0.8113 -0.2971 -0.3202
15958WAT     H265638  -2.090   7.985   4.549  0.3302 -0.4504  0.6841
15958WAT    EPW65639  -2.166   7.986   4.592 -0.1330 -0.3705 -0.1273
15959WAT      O65640   2.627   3.134   5.772 -0.9480  0.0308  0.4904
15959WAT     H165641   2.672   3.169   5.850 -1.1443 -0.4719  0.8356
15959WAT     H265642   2.599   3.046   5.799 -0.2643 -0.4857 -0.4306
15959WAT    EPW65643   2.629   3.127   5.786 -0.8837 -0.1036  0.4144
15960WAT      O65644   1.051   0.172   4.589  0.1261 -0.2324 -0.1677
15960WAT     H165645   1.034   0.155   4.496  1.7847  1.1263 -0.7791
15960WAT     H265646   1.090   0.091   4.622 -0.1412 -0.6044 -0.7466
15960WAT    EPW65647   1.054   0.159   4.581  0.3096 -0.1023 -0.3245
15961WAT      O65648   2.743   0.518   4.840 -0.0308  0.4421 -0.3848
15961WAT     H165649   2.666   0.460   4.840 -0.9339  1.5981 -0.2833
15961WAT     H265650   2.708   0.604   4.865  0.9780  1.4275 -2.1356
15961WAT    EPW65651   2.728   0.522   4.843 -0.0168  0.7246 -0.6022
15962WAT      O65652   2.850   1.672   4.884  0.3162  0.1553  0.5340
15962WAT     H165653   2.921   1.631   4.933  0.3736  0.6665  0.8811
15962WAT     H265654   2.806   1.599   4.840  0.9913 -0.1771  0.4004
15962WAT    EPW65655   2.854   1.657   4.884  0.4128  0.1789  0.5622
15963WAT      O65656  -1.907   0.840   4.600  0.1249 -0.0054 -0.1960
15963WAT     H165657  -1.867   0.874   4.519 -0.2628 -0.2270 -0.4819
15963WAT     H265658  -1.945   0.918   4.641  1.7307  0.4109  0.6181
15963WAT    EPW65659  -1.906   0.855   4.595  0.2856  0.0203 -0.1264
15964WAT      O65660  -2.759   8.575   0.887 -0.5975  0.0830  0.8210
15964WAT     H165661  -2.744   8.525   0.807  1.5092  2.3966 -0.3554
15964WAT     H265662  -2.672   8.589   0.924 -1.4723 -0.5575  3.3789
15964WAT    EPW65663  -2.746   8.570   0.882 -0.4350  0.3037  1.0032
15965WAT      O65664   5.971   3.528   3.037 -0.1467  0.7502  0.2827
15965WAT     H165665   5.961   3.620   3.061 -0.4591  0.8258 -0.1285
15965WAT     H265666   5.888   3.487   3.059 -0.1894  0.6743 -0.0123
15965WAT    EPW65667   5.959   3.534   3.043 -0.1936  0.7501  0.1894
15966WAT      O65668   2.371   0.767   0.646  0.0740 -0.2252 -0.6668
15966WAT     H165669   2.335   0.808   0.725 -2.6773 -2.9445 -0.3439
15966WAT     H265670   2.334   0.819   0.574  2.0184  1.8214 -0.3158
15966WAT    EPW65671   2.361   0.780   0.647 -0.0323 -0.3139 -0.5779
15967WAT      O65672   6.189   5.186   2.089  0.3198 -0.6533  0.2351
15967WAT     H165673   6.201   5.239   2.010 -1.4891 -1.6098 -0.7321
15967WAT     H265674   6.263   5.210   2.145 -0.7233  3.4359  0.1878
15967WAT    EPW65675   6.200   5.196   2.086 -0.0565 -0.2401  0.1013
15968WAT      O65676   5.338   1.422   2.933  0.0131 -0.1608  0.3309
15968WAT     H165677   5.314   1.422   2.841 -1.4432  2.1892  0.6140
15968WAT     H265678   5.370   1.511   2.949 -0.1412 -0.4006  2.1769
15968WAT    EPW65679   5.339   1.434   2.923 -0.1991  0.1176  0.6117
15969WAT      O65680   1.974   9.546   3.624  0.5048  1.0378 -0.5623
15969WAT     H165681   1.936   9.634   3.630  1.0503  1.4469 -2.3802
15969WAT     H265682   2.069   9.561   3.625  0.6273  0.3249  0.5239
15969WAT    EPW65683   1.982   9.560   3.625  0.5929  0.9980 -0.6589
15970WAT      O65684   4.149   8.011   5.296  0.4812 -0.1522  0.1110
15970WAT     H165685   4.107   7.933   5.259 -2.8657  2.2001 -1.5507
15970WAT     H265686   4.200   8.047   5.223  1.7960 -0.5821  0.7903
15970WAT    EPW65687   4.150   8.005   5.281  0.2131  0.1016 -0.0186
15971WAT      O65688  -1.735   0.137   6.489 -0.0362 -0.2314  0.2121
15971WAT     H165689  -1.762   0.058   6.535  1.2918 -0.5084  0.5467
15971WAT     H265690  -1.662   0.172   6.541  1.9405 -0.8889 -1.9459
15971WAT    EPW65691  -1.729   0.131   6.502  0.3996 -0.3546 -0.0284
15972WAT      O65692   5.004   3.021   7.366 -0.2591 -0.4942 -0.7136
15972WAT     H165693   4.955   3.099   7.342  1.1831  0.4917 -0.5527
15972WAT     H265694   4.948   2.948   7.337 -2.3532  0.5151  0.5331
15972WAT    EPW65695   4.990   3.021   7.359 -0.3452 -0.2311 -0.5281
15973WAT      O65696   5.584   2.263   1.826  0.4287  0.6588  0.3760
15973WAT     H165697   5.640   2.339   1.809 -0.0010  1.0012  0.4853
15973WAT     H265698   5.571   2.263   1.921 -1.2713  1.6814  0.1853
15973WAT    EPW65699   5.589   2.273   1.836  0.1478  0.8388  0.3653
15974WAT      O65700  -1.509   7.548   1.006 -0.2986 -0.0917 -0.0891
15974WAT     H165701  -1.520   7.643   1.017 -0.4345 -0.1999  0.7238
15974WAT     H265702  -1.521   7.534   0.912 -1.9706  0.4920  0.0050
15974WAT    EPW65703  -1.512   7.559   0.995 -0.5371 -0.0288  0.0305
15975WAT      O65704  -3.222   2.435   7.237 -0.6200  0.0240 -0.8912
15975WAT     H165705  -3.184   2.455   7.151 -1.0917 -0.6636 -1.2688
15975WAT     H265706  -3.226   2.519   7.282 -0.2621  0.3720 -1.5018
15975WAT    EPW65707  -3.217   2.449   7.231 -0.6350 -0.0207 -1.0216
15976WAT      O65708   1.457   6.389   5.279 -0.3901 -0.2883  0.8783
15976WAT     H165709   1.449   6.317   5.216 -0.4981  0.5704 -0.1104
15976WAT     H265710   1.429   6.351   5.363 -0.6268 -1.3366  0.3383
15976WAT    EPW65711   1.452   6.374   5.282 -0.4355 -0.3133  0.6766
15977WAT      O65712  -4.080   9.997   6.371  0.2858 -0.3654  0.4369
15977WAT     H165713  -4.161  10.038   6.341 -0.0154 -0.5276  1.0148
15977WAT     H265714  -4.108   9.917   6.415  0.8595 -1.1736 -0.6072
15977WAT    EPW65715  -4.094   9.992   6.373  0.3216 -0.4935  0.3755
15978WAT      O65716   1.339   0.474   4.054  0.3646  0.4181 -0.3664
15978WAT     H165717   1.281   0.398   4.046  2.1280 -0.7556 -3.7252
15978WAT     H265718   1.294   0.543   4.005  0.3639  0.4847 -0.2718
15978WAT    EPW65719   1.325   0.473   4.047  0.5971  0.2721 -0.7968
15979WAT      O65720   1.923   9.522   6.294 -0.1756 -0.2012  0.2726
15979WAT     H165721   1.942   9.526   6.200 -1.0765 -1.9023 -0.0296
15979WAT     H265722   1.856   9.589   6.307 -0.1986 -0.0984 -0.3450
15979WAT    EPW65723   1.916   9.532   6.283 -0.2974 -0.4120  0.1512
15980WAT      O65724   0.643   2.071   3.093  0.6946 -0.0026  0.2126
15980WAT     H165725   0.589   2.079   3.014  0.5091 -1.2787  0.1804
15980WAT     H265726   0.602   2.000   3.142  1.5011 -0.0103  0.8864
15980WAT    EPW65727   0.631   2.062   3.089  0.7765 -0.1720  0.2972
15981WAT      O65728   8.426   0.253   3.476  0.6263 -0.4130  0.0428
15981WAT     H165729   8.418   0.193   3.402 -0.7522 -1.6902  1.1623
15981WAT     H265730   8.495   0.214   3.531  1.2911  0.2588 -0.2929
15981WAT    EPW65731   8.434   0.240   3.474  0.5322 -0.4929  0.1462
15982WAT      O65732   2.167   2.894   3.327  0.4554 -0.4324  0.4225
15982WAT     H165733   2.255   2.911   3.362  1.5719  0.7772 -2.5643
15982WAT     H265734   2.173   2.808   3.287 -1.1439 -2.3202  3.8543
15982WAT    EPW65735   2.180   2.885   3.327  0.3917 -0.5219  0.4812
15983WAT      O65736   0.333   6.380   6.416 -0.2258  0.0443 -0.3145
15983WAT     H165737   0.251   6.421   6.442 -0.2564  0.9787 -1.7777
15983WAT     H265738   0.401   6.441   6.447 -0.3272  2.8460 -4.7653
15983WAT    EPW65739   0.331   6.394   6.424 -0.2432  0.5372 -1.0946
15984WAT      O65740   6.169   0.529   3.439  0.2464 -0.1570  0.0185
15984WAT     H165741   6.134   0.440   3.440  0.0228 -0.0902 -0.7380
15984WAT     H265742   6.139   0.568   3.521 -1.9555  0.0729 -0.8298
15984WAT    EPW65743   6.160   0.522   3.450 -0.0734 -0.1178 -0.1932
15985WAT      O65744   4.318   8.072   5.797  0.5380  0.1171 -0.1459
15985WAT     H165745   4.389   8.015   5.769 -0.2452 -0.9250 -0.0655
15985WAT     H265746   4.249   8.058   5.733 -0.6022 -0.9609  1.2249
15985WAT    EPW65747   4.318   8.063   5.785  0.2842 -0.1626  0.0453
15986WAT      O65748   0.063   8.066   6.211  0.3718  0.2822  0.1975
15986WAT     H165749   0.043   8.067   6.305 -2.1209  0.0378 -0.2519
15986WAT     H265750   0.142   8.012   6.204 -1.3549 -2.7619  1.9135
15986WAT    EPW65751   0.071   8.059   6.222 -0.1847 -0.1516  0.3645
15987WAT      O65752   3.155   2.287   2.684 -0.3258  0.5856  0.1134
15987WAT     H165753   3.076   2.239   2.710  0.2524 -0.4829 -0.0360
15987WAT     H265754   3.131   2.379   2.692 -0.4933  0.3711  3.5905
15987WAT    EPW65755   3.141   2.293   2.689 -0.2717  0.4164  0.5523
15988WAT      O65756   3.053   9.441   7.055 -0.1885 -0.1784  0.4543
15988WAT     H165757   2.961   9.415   7.050 -0.8487  1.9300  0.6545
15988WAT     H265758   3.089   9.418   6.969  0.1586 -4.3528  1.4827
15988WAT    EPW65759   3.045   9.434   7.043 -0.2298 -0.4511  0.6166
15989WAT      O65760  -0.419   1.663   2.568  0.2839 -0.6079  0.3685
15989WAT     H165761  -0.371   1.722   2.510  0.6256 -2.1524 -0.9844
15989WAT     H265762  -0.417   1.707   2.653  1.4174  0.8257 -0.3448
15989WAT    EPW65763  -0.412   1.677   2.572  0.4785 -0.6225  0.0961
15990WAT      O65764   1.686  10.059   3.579 -0.0064 -0.4061 -0.1785
15990WAT     H165765   1.691  10.054   3.483 -1.3032  0.2381 -0.3104
15990WAT     H265766   1.595  10.085   3.596  0.4073  0.2064  1.2025
15990WAT    EPW65767   1.675  10.062   3.569 -0.1228 -0.2403 -0.0137
15991WAT      O65768   3.053   8.809   7.760  0.3550  0.1703 -0.1428
15991WAT     H165769   3.063   8.877   7.693 -0.6344  0.5372  0.0643
15991WAT     H265770   3.098   8.845   7.837  0.4069  0.2944 -0.2304
15991WAT    EPW65771   3.060   8.823   7.762  0.2315  0.2351 -0.1271
15992WAT      O65772  -0.477   3.595   8.938  0.0150 -0.2561 -0.3101
15992WAT     H165773  -0.528   3.646   9.001 -3.0236 -3.9076  0.5374
15992WAT     H265774  -0.408   3.554   8.990 -1.8117 -2.3720  0.6172
15992WAT    EPW65775  -0.475   3.596   8.953 -0.6267 -1.0166 -0.0760
15993WAT      O65776  -5.497  10.248   4.740  0.7605  0.3694 -0.1745
15993WAT     H165777  -5.573  10.298   4.769  0.1594 -0.3508 -0.4904
15993WAT     H265778  -5.513  10.160   4.773  1.0732  0.0257 -0.9241
15993WAT    EPW65779  -5.509  10.243   4.749  0.7224  0.2294 -0.3152
15994WAT      O65780   3.383   9.719   5.153  0.6211 -0.5119 -0.0871
15994WAT     H165781   3.322   9.657   5.114  0.6078 -0.6799  0.2011
15994WAT     H265782   3.461   9.667   5.173  0.6076 -0.4385  0.1594
15994WAT    EPW65783   3.385   9.704   5.150  0.6176 -0.5250 -0.0165
15995WAT      O65784  -6.210   3.288   8.536  0.0603  0.2388  0.5115
15995WAT     H165785  -6.214   3.210   8.592  0.0311  0.3970  0.7280
15995WAT     H265786  -6.290   3.337   8.557 -0.8577 -0.5513 -0.9115
15995WAT    EPW65787  -6.221   3.284   8.546 -0.0646  0.1554  0.3524
15996WAT      O65788   0.107   6.995   0.703  0.4648 -0.0944 -0.2397
15996WAT     H165789   0.155   7.078   0.704 -0.3181  0.3609  0.8688
15996WAT     H265790   0.088   6.979   0.610  2.7066 -0.2781 -0.7261
15996WAT    EPW65791   0.111   7.004   0.691  0.6572 -0.0587 -0.1577
15997WAT      O65792   4.994   8.121   2.512  0.1232  0.6423 -0.6410
15997WAT     H165793   5.038   8.203   2.488  4.3804 -0.0572  3.4377
15997WAT     H265794   5.021   8.059   2.445  0.8765  1.4708 -1.1336
15997WAT    EPW65795   5.003   8.124   2.500  0.7842  0.6595 -0.1680
15998WAT      O65796  -6.544   9.423   8.672 -0.2190 -0.7912 -0.3374
15998WAT     H165797  -6.496   9.506   8.673 -2.7075  0.8921 -3.0544
15998WAT     H265798  -6.525   9.386   8.585 -3.5595 -0.0700 -1.5024
15998WAT    EPW65799  -6.535   9.429   8.660 -0.9878 -0.4740 -0.8492
15999WAT      O65800  -5.472   6.862   7.672 -0.6805 -0.0007  0.3085
15999WAT     H165801  -5.511   6.918   7.604  0.3319  0.5603  0.1731
15999WAT     H265802  -5.517   6.779   7.662 -0.6490  0.1067 -0.9870
15999WAT    EPW65803  -5.483   6.859   7.661 -0.5426  0.0873  0.1199
16000WAT      O65804  -4.070   9.885   2.230  0.3249 -0.3132  0.0341
16000WAT     H165805  -4.109   9.931   2.156  1.0564  1.5529  0.7365
16000WAT     H265806  -4.009   9.948   2.268 -0.6676 -0.8167  2.7748
16000WAT    EPW65807  -4.067   9.899   2.226  0.2904 -0.1335  0.4882
16001WAT      O65808   1.590   4.301   7.699 -0.0833  0.1544  0.2960
16001WAT     H165809   1.653   4.239   7.735 -0.9149 -1.0254 -0.2485
16001WAT     H265810   1.542   4.252   7.632 -1.5245  1.0559  0.6180
16001WAT    EPW65811   1.592   4.287   7.695 -0.3831  0.1175  0.2668
16002WAT      O65812   4.794   8.497   1.414 -0.4480 -1.0834  0.2768
16002WAT     H165813   4.854   8.423   1.414  1.3249  0.2674 -0.4704
16002WAT     H265814   4.762   8.503   1.504  1.8337 -0.9050  1.1410
16002WAT    EPW65815   4.798   8.488   1.426  0.0868 -0.8821  0.2922
16003WAT      O65816  -0.899   3.737   6.970 -0.5111  0.1733 -0.1190
16003WAT     H165817  -0.949   3.815   6.993  1.0995  1.2118  0.0694
16003WAT     H265818  -0.868   3.702   7.054  1.5839  1.3393 -0.3328
16003WAT    EPW65819  -0.901   3.742   6.984 -0.0223  0.4641 -0.1223
16004WAT      O65820   4.847   1.115   2.610  0.1668  0.0901  0.1069
16004WAT     H165821   4.839   1.026   2.644  1.4017  0.7208  2.2205
16004WAT     H265822   4.872   1.167   2.686 -0.0349  2.1635 -1.1902
16004WAT    EPW65823   4.850   1.110   2.624  0.3030  0.4468  0.2145
16005WAT      O65824   0.723   1.967   5.609  0.6291 -0.0262  1.3225
16005WAT     H165825   0.767   1.906   5.550 -0.0971 -0.1331  0.8742
16005WAT     H265826   0.707   2.045   5.556  1.6994  0.6324  1.9428
16005WAT    EPW65827   0.726   1.969   5.594  0.6745  0.0466  1.3454
16006WAT      O65828   0.302   6.827   0.314  0.2052  0.2620  0.1124
16006WAT     H165829   0.379   6.790   0.358 -0.2854  0.9976  1.6539
16006WAT     H265830   0.260   6.752   0.273  0.8813 -0.4038  0.6113
16006WAT    EPW65831   0.307   6.812   0.315  0.2296  0.2711  0.3815
16007WAT      O65832   6.370   6.343   2.651 -0.7257 -0.3207  0.4006
16007WAT     H165833   6.387   6.371   2.741 -2.0589  1.4546  0.1480
16007WAT     H265834   6.432   6.393   2.598 -1.4362  0.3210  0.1592
16007WAT    EPW65835   6.380   6.353   2.656 -0.9952 -0.0017  0.3355
16008WAT      O65836   1.011   0.646   4.560  0.9241 -0.0635 -0.4014
16008WAT     H165837   0.968   0.653   4.646  1.6063  2.5547 -0.1848
16008WAT     H265838   1.100   0.678   4.576  0.6573  1.8347 -2.3358
16008WAT    EPW65839   1.017   0.651   4.574  0.9789  0.5322 -0.6280
16009WAT      O65840   5.707   2.290   2.307  0.7584  0.8181 -0.0853
16009WAT     H165841   5.763   2.262   2.378  1.5273 -1.2246 -1.4006
16009WAT     H265842   5.623   2.248   2.325  0.5639  1.3555  0.2756
16009WAT    EPW65843   5.703   2.280   2.318  0.8342  0.6195 -0.2111
16010WAT      O65844  -1.704   6.384   1.742  0.2509  0.1800  0.6767
16010WAT     H165845  -1.689   6.293   1.768 -1.3573 -0.2402  0.2193
16010WAT     H265846  -1.742   6.379   1.655 -2.8110  1.0579  1.8261
16010WAT    EPW65847  -1.707   6.371   1.734 -0.3651  0.2403  0.7680
16011WAT      O65848   3.351   4.996   1.607  0.0451 -0.2351  0.1400
16011WAT     H165849   3.428   5.044   1.637  1.7087 -3.2875  1.1855
16011WAT     H265850   3.386   4.923   1.556 -2.3416 -0.3032 -1.5644
16011WAT    EPW65851   3.365   4.992   1.604 -0.0502 -0.6466  0.0531
16012WAT      O65852   4.146   2.504   8.548 -0.4158 -0.1722 -0.5805
16012WAT     H165853   4.078   2.509   8.481  0.1022 -3.2930 -1.4589
16012WAT     H265854   4.197   2.426   8.527  2.4040  1.0412  1.0779
16012WAT    EPW65855   4.144   2.494   8.537  0.0243 -0.4238 -0.4778
16013WAT      O65856   5.450   3.524   6.955 -0.3086 -0.1154  0.0268
16013WAT     H165857   5.370   3.472   6.944 -0.5246 -0.1094  1.4516
16013WAT     H265858   5.520   3.459   6.958 -0.5815 -0.3646  1.8465
16013WAT    EPW65859   5.449   3.508   6.954 -0.3729 -0.1475  0.4549
16014WAT      O65860   3.274  10.013   4.041 -0.3654 -0.0647 -0.4878
16014WAT     H165861   3.250   9.957   4.114 -1.3016  1.2395  0.2400
16014WAT     H265862   3.291   9.952   3.968  4.3916 -1.7970  1.6352
16014WAT    EPW65863   3.273   9.997   4.041  0.1384 -0.1211 -0.1118
16015WAT      O65864  -5.798   7.532   5.810  0.0875 -0.3480  0.2459
16015WAT     H165865  -5.758   7.458   5.764 -0.8635 -1.2655  0.8364
16015WAT     H265866  -5.886   7.538   5.773 -0.5584 -0.8579  1.6296
16015WAT    EPW65867  -5.804   7.523   5.799 -0.1230 -0.5364  0.5064
16016WAT      O65868   2.177   1.631   1.639 -0.4025 -0.5063 -0.5662
16016WAT     H165869   2.259   1.645   1.686 -0.1341  2.6262 -1.7619
16016WAT     H265870   2.110   1.670   1.695 -0.9636 -1.9722 -0.1628
16016WAT    EPW65871   2.179   1.638   1.653 -0.4411 -0.2865 -0.6707
16017WAT      O65872  -0.706   5.649   1.851 -0.5670  0.8927  0.1329
16017WAT     H165873  -0.780   5.673   1.908 -1.4204 -3.9769  1.5716
16017WAT     H265874  -0.736   5.571   1.805  2.0202  1.6646 -3.2551
16017WAT    EPW65875  -0.720   5.642   1.853 -0.3383  0.3521 -0.1242
16018WAT      O65876  -4.085   7.387   4.697 -0.2938  0.1088  0.4277
16018WAT     H165877  -4.088   7.422   4.608  0.0455 -0.0556  0.3501
16018WAT     H265878  -4.030   7.448   4.746  0.0073 -0.1163  0.3776
16018WAT    EPW65879  -4.078   7.400   4.692 -0.2093  0.0575  0.4110
16019WAT      O65880  -7.236   8.003   8.544  0.4156  0.2225  0.0898
16019WAT     H165881  -7.178   7.964   8.478 -1.7501  0.4946 -2.1319
16019WAT     H265882  -7.311   7.942   8.548  0.3906  0.3332  2.1913
16019WAT    EPW65883  -7.238   7.990   8.536  0.1266  0.2730  0.0739
16020WAT      O65884   4.156   3.741   5.528  0.1871 -0.1206  0.0838
16020WAT     H165885   4.071   3.783   5.545  0.1760 -0.2533  0.3561
16020WAT     H265886   4.217   3.814   5.519 -0.5876  0.3083 -4.1752
16020WAT    EPW65887   4.153   3.756   5.529  0.0837 -0.0815 -0.4420
16021WAT      O65888   4.394   4.926   3.018 -0.4934 -0.2403  0.4235
16021WAT     H165889   4.431   4.989   3.080  1.0830 -0.5242 -0.1564
16021WAT     H265890   4.442   4.944   2.936 -1.4812 -0.8403 -0.2995
16021WAT    EPW65891   4.405   4.937   3.015 -0.4156 -0.3569  0.2517
16022WAT      O65892  -2.424   7.873   4.497 -0.5986  0.0726  0.0850
16022WAT     H165893  -2.331   7.897   4.491 -0.3392 -1.2032 -2.9541
16022WAT     H265894  -2.460   7.897   4.412 -3.1769  0.6871  1.2471
16022WAT    EPW65895  -2.416   7.880   4.485 -0.9044 -0.0148 -0.1626
16023WAT      O65896  -4.707   4.092   7.621  0.2160  0.1171  1.0992
16023WAT     H165897  -4.665   4.123   7.540 -1.5637  3.2861  1.2358
16023WAT     H265898  -4.674   4.003   7.632  1.7680  0.1178 -2.2414
16023WAT    EPW65899  -4.697   4.084   7.612  0.1860  0.5350  0.6764
16024WAT      O65900   3.687   2.120   3.769  0.2479 -0.1823 -0.4779
16024WAT     H165901   3.711   2.029   3.788  1.1315 -0.1949 -1.5227
16024WAT     H265902   3.621   2.113   3.700  0.3922 -0.0389 -0.6333
16024WAT    EPW65903   3.682   2.107   3.762  0.3834 -0.1651 -0.6362
16025WAT      O65904  -1.522   3.771   6.185 -0.0687 -0.1961 -0.0197
16025WAT     H165905  -1.503   3.680   6.161 -0.9204 -0.3988  0.0090
16025WAT     H265906  -1.554   3.811   6.103  1.0115  0.2950 -0.2137
16025WAT    EPW65907  -1.524   3.764   6.171 -0.0385 -0.1581 -0.0415
16026WAT      O65908   6.156   1.423   0.092 -0.1493 -0.8229  0.2501
16026WAT     H165909   6.139   1.515   0.110  0.7494 -0.5124 -0.4046
16026WAT     H265910   6.156   1.417  -0.004 -0.1541 -1.4924  0.2858
16026WAT    EPW65911   6.154   1.434   0.082 -0.0312 -0.8703  0.1684
16027WAT      O65912  -0.962   3.776   5.013 -0.0477 -0.0741  0.4515
16027WAT     H165913  -1.050   3.744   5.029  0.8001 -2.1147  1.3811
16027WAT     H265914  -0.971   3.837   4.939 -1.7938 -2.6477 -1.6401
16027WAT    EPW65915  -0.975   3.780   5.005 -0.1661 -0.6826  0.2985
16028WAT      O65916  -0.223   6.229   2.736 -0.4518 -0.0043  0.2803
16028WAT     H165917  -0.235   6.237   2.831 -0.1318  0.8562  0.2620
16028WAT     H265918  -0.209   6.135   2.722  2.3308  0.1226  1.4735
16028WAT    EPW65919  -0.222   6.217   2.747 -0.0426  0.1261  0.4354
16029WAT      O65920   5.247   0.600   5.177  0.2175 -0.5996  0.6338
16029WAT     H165921   5.312   0.669   5.190 -0.0989 -0.5802  2.5206
16029WAT     H265922   5.286   0.541   5.113  1.4969  0.1393  0.7040
16029WAT    EPW65923   5.260   0.601   5.170  0.3445 -0.4995  0.8919
16030WAT      O65924   6.384   3.548   1.314  0.5015 -0.4697  0.3316
16030WAT     H165925   6.413   3.591   1.234  0.2867  0.8858  0.9560
16030WAT     H265926   6.427   3.597   1.384 -0.6422 -0.5731  1.1176
16030WAT    EPW65927   6.394   3.560   1.313  0.3223 -0.3045  0.5177
16031WAT      O65928  -5.126   9.815   7.336  0.4288 -0.1066  0.6700
16031WAT     H165929  -5.196   9.853   7.283  0.2930 -0.5796  0.5074
16031WAT     H265930  -5.093   9.889   7.387 -0.4364  0.0528  1.0255
16031WAT    EPW65931  -5.131   9.830   7.336  0.2968 -0.1483  0.6952
16032WAT      O65932   2.576   4.940   0.236  0.0363 -0.0030  0.3668
16032WAT     H165933   2.503   4.964   0.293  0.3071 -0.3319  0.8613
16032WAT     H265934   2.599   5.021   0.191 -1.0190 -0.0297 -0.2461
16032WAT    EPW65935   2.570   4.954   0.238 -0.0671 -0.0501  0.3512
16033WAT      O65936  -4.481   7.884   8.089  0.3426  0.0321 -0.1413
16033WAT     H165937  -4.432   7.911   8.168 -0.6101 -0.4751  0.6437
16033WAT     H265938  -4.436   7.805   8.059 -1.0515 -1.5474  1.6822
16033WAT    EPW65939  -4.468   7.877   8.096  0.0329 -0.2429  0.2027
16034WAT      O65940   0.576   8.840   7.303  0.0983  0.6169  0.1361
16034WAT     H165941   0.552   8.826   7.211  3.0020  0.4678 -0.6981
16034WAT     H265942   0.576   8.935   7.314  0.2019  0.6528 -0.1623
16034WAT    EPW65943   0.573   8.850   7.292  0.4950  0.6022 -0.0134
16035WAT      O65944  -6.222   6.990   8.872  0.2647  0.2318 -1.0711
16035WAT     H165945  -6.292   6.939   8.833  1.5391 -2.7587  0.1869
16035WAT     H265946  -6.163   6.924   8.910 -0.1480  2.5752  4.6903
16035WAT    EPW65947  -6.223   6.975   8.872  0.3784  0.1464 -0.1454
16036WAT      O65948   2.976   7.158   5.746  0.2427  0.3036 -0.7721
16036WAT     H165949   2.963   7.149   5.841 -0.4640 -0.7192 -0.9504
16036WAT     H265950   2.938   7.244   5.725  1.6133  1.1602  0.0570
16036WAT    EPW65951   2.970   7.168   5.756  0.3303  0.2816 -0.6862
16037WAT      O65952   4.535   7.909   3.141  0.4563  0.2512 -0.0283
16037WAT     H165953   4.545   7.971   3.214  0.3124  1.0730 -0.6967
16037WAT     H265954   4.590   7.943   3.072  0.1924 -0.2469 -0.4945
16037WAT    EPW65955   4.544   7.921   3.142  0.4025  0.2940 -0.1781
16038WAT      O65956  -4.459   3.881   8.816 -0.7485  0.0147  0.2369
16038WAT     H165957  -4.413   3.808   8.858 -0.4565  0.0067 -0.0981
16038WAT     H265958  -4.417   3.891   8.731  0.1913  1.5146  0.8369
16038WAT    EPW65959  -4.447   3.873   8.810 -0.5863  0.2115  0.2718
16039WAT      O65960   4.404   5.537   4.415 -0.3232  0.0032  0.0569
16039WAT     H165961   4.378   5.482   4.341  4.0083 -0.3096 -1.5340
16039WAT     H265962   4.406   5.478   4.490 -4.8750  0.3406  0.7141
16039WAT    EPW65963   4.401   5.522   4.415 -0.3524  0.0064 -0.0663
16040WAT      O65964   3.506   9.933   1.454  0.7990 -0.6183 -0.5989
16040WAT     H165965   3.457   9.950   1.534  1.8631 -0.0625 -0.0493
16040WAT     H265966   3.488  10.007   1.397  2.1819  0.3841  0.2043
16040WAT    EPW65967   3.497   9.945   1.457  1.1216 -0.4125 -0.4205
16041WAT      O65968   3.371   1.232   3.456  0.0638 -0.0248  0.5370
16041WAT     H165969   3.377   1.197   3.368 -0.1622 -1.6058  1.1214
16041WAT     H265970   3.295   1.188   3.495  0.6741 -0.0158  1.7995
16041WAT    EPW65971   3.361   1.222   3.450  0.1146 -0.2321  0.7806
16042WAT      O65972   5.488   0.765   8.178  0.3665 -0.3068 -0.5677
16042WAT     H165973   5.402   0.723   8.171  1.5619 -3.7649  2.3829
16042WAT     H265974   5.470   0.858   8.171 -3.5072 -0.9227 -0.7985
16042WAT    EPW65975   5.474   0.772   8.176  0.0134 -0.8441 -0.2089
16043WAT      O65976   5.078   4.637   4.614 -1.3118 -0.5510 -0.3036
16043WAT     H165977   5.070   4.713   4.673  0.8201 -0.1905 -0.3968
16043WAT     H265978   5.023   4.570   4.654 -1.1516  0.1955  1.2425
16043WAT    EPW65979   5.070   4.638   4.627 -1.0095 -0.4048 -0.1118
16044WAT      O65980  -5.532   8.612   8.596 -0.2958  0.2953 -0.2017
16044WAT     H165981  -5.508   8.521   8.617 -2.8329  0.4421  4.8481
16044WAT     H265982  -5.619   8.605   8.556  1.3672  0.4926 -4.2593
16044WAT    EPW65983  -5.540   8.599   8.594 -0.4113  0.3409 -0.0706
16045WAT      O65984  -0.700   9.613   3.523 -0.1688  0.4174  0.1199
16045WAT     H165985  -0.715   9.632   3.616 -0.2357 -0.9413  0.4091
16045WAT     H265986  -0.786   9.626   3.482 -0.7163 -1.1947  0.6726
16045WAT    EPW65987  -0.714   9.617   3.530 -0.2498  0.0253  0.2309
16046WAT      O65988  -4.481   8.865   5.878  0.1782 -0.0429  0.2731
16046WAT     H165989  -4.449   8.950   5.906 -4.6368  2.6027 -0.9831
16046WAT     H265990  -4.469   8.864   5.783  1.6603 -1.5875  0.4337
16046WAT    EPW65991  -4.475   8.876   5.869 -0.2613  0.1025  0.1287
16047WAT      O65992  -1.296   0.879   8.670  0.0481 -0.2062 -0.0878
16047WAT     H165993  -1.343   0.801   8.642 -0.5790  0.5927 -1.3311
16047WAT     H265994  -1.355   0.922   8.731  0.1706 -0.4189  0.1832
16047WAT    EPW65995  -1.310   0.874   8.674 -0.0185 -0.1289 -0.2160
16048WAT      O65996  -4.819   6.449   5.363 -0.1507 -0.2422  0.0574
16048WAT     H165997  -4.838   6.440   5.456  0.9333 -2.8075  0.1034
16048WAT     H265998  -4.807   6.359   5.332 -1.4456  0.4478 -2.7901
16048WAT    EPW65999  -4.820   6.436   5.371 -0.1786 -0.4897 -0.3121
16049WAT      O66000  -1.348   5.662   3.262  0.6845  0.1100 -0.5484
16049WAT     H166001  -1.401   5.729   3.220  0.1476 -1.2075 -2.0890
16049WAT     H266002  -1.269   5.708   3.289  2.1629  0.8112 -5.0714
16049WAT    EPW66003  -1.344   5.677   3.260  0.8087  0.0286 -1.3481
16050WAT      O66004  -1.172   0.527   6.606 -0.4331  0.1847  0.5891
16050WAT     H166005  -1.137   0.609   6.572 -0.3812  0.0368  0.2770
16050WAT     H266006  -1.266   0.542   6.613 -0.9372 -0.6816 -2.4282
16050WAT    EPW66007  -1.180   0.539   6.602 -0.4928  0.0510  0.1497
16051WAT      O66008   7.833   3.806   2.211  0.0102  0.3743 -0.4354
16051WAT     H166009   7.784   3.797   2.130  0.7599 -2.2396 -0.7044
16051WAT     H266010   7.814   3.726   2.260  2.3377  0.2165  0.3592
16051WAT    EPW66011   7.824   3.794   2.207  0.4163  0.0087 -0.3662
16052WAT      O66012   4.979   5.740   1.140 -0.5150 -0.1186 -0.1500
16052WAT     H166013   5.062   5.694   1.143 -0.0647  0.6404 -0.7247
16052WAT     H266014   4.978   5.783   1.054 -2.5620 -2.0718 -1.2229
16052WAT    EPW66015   4.990   5.740   1.129 -0.7255 -0.2759 -0.3674
16053WAT      O66016   1.694   7.960   4.515  0.3549 -0.2472  0.2989
16053WAT     H166017   1.665   7.890   4.457 -0.6771 -1.8686  2.6222
16053WAT     H266018   1.769   7.923   4.561  0.4286  0.5685  0.8596
16053WAT    EPW66019   1.700   7.946   4.513  0.2285 -0.3533  0.6793
16054WAT      O66020   0.381   9.988   7.024  0.2075  0.4141  0.3349
16054WAT     H166021   0.304  10.044   7.018 -1.1722 -1.4733 -0.3967
16054WAT     H266022   0.359   9.910   6.973  0.2240 -2.8152  4.6240
16054WAT    EPW66023   0.368   9.985   7.017  0.0277 -0.2608  0.8042
16055WAT      O66024  -3.374   8.311   4.515 -0.0704 -0.4092  0.0773
16055WAT     H166025  -3.288   8.276   4.492 -0.7535 -2.3034  0.2071
16055WAT     H266026  -3.364   8.342   4.605  0.0805 -2.2455  0.7324
16055WAT    EPW66027  -3.362   8.311   4.524 -0.1405 -0.9007  0.1807
16056WAT      O66028  -3.458   8.190   4.965 -0.6780 -0.2662 -0.2200
16056WAT     H166029  -3.487   8.262   5.021 -1.1802 -0.0263 -0.7890
16056WAT     H266030  -3.539   8.149   4.935 -0.3995 -1.3103  0.4004
16056WAT    EPW66031  -3.473   8.194   4.969 -0.7075 -0.3724 -0.2131
16057WAT      O66032   5.631   4.590   0.105 -0.1157 -0.0711  0.2731
16057WAT     H166033   5.631   4.677   0.145 -1.0376  0.5809 -1.0539
16057WAT     H266034   5.692   4.597   0.031  2.0225 -1.4267  1.7941
16057WAT    EPW66035   5.639   4.603   0.100  0.0448 -0.1638  0.2987
16058WAT      O66036  -0.473   8.167   4.555 -0.5002 -0.3453 -1.0836
16058WAT     H166037  -0.478   8.249   4.507 -0.9617  0.0113 -0.4329
16058WAT     H266038  -0.421   8.110   4.499  1.4314  0.9676 -0.7190
16058WAT    EPW66039  -0.467   8.170   4.541 -0.3063 -0.1249 -0.9494
16059WAT      O66040  -2.507   9.950   7.826  0.1700 -0.0157 -0.4154
16059WAT     H166041  -2.540   9.880   7.770  2.2284 -1.7548  0.3591
16059WAT     H266042  -2.421   9.971   7.789  1.0599 -0.3929  1.3147
16059WAT    EPW66043  -2.500   9.943   7.814  0.5589 -0.2947 -0.0854
16060WAT      O66044   6.068   7.879   0.834 -0.3544  0.0218 -0.7085
16060WAT     H166045   6.044   7.795   0.873  0.3711  0.0810 -0.1032
16060WAT     H266046   6.004   7.940   0.869 -0.5348 -0.1794 -0.6866
16060WAT    EPW66047   6.057   7.876   0.844 -0.2825  0.0033 -0.6257
16061WAT      O66048   3.542   6.297   8.541  0.3181  0.0851 -0.2928
16061WAT     H166049   3.473   6.347   8.497  1.0732  2.2987  0.8929
16061WAT     H266050   3.532   6.319   8.634 -0.2244 -3.1985  0.5592
16061WAT    EPW66051   3.532   6.306   8.548  0.3462 -0.0560 -0.0243
16062WAT      O66052  -1.872   8.205   8.908 -0.0098  0.1203 -0.4251
16062WAT     H166053  -1.960   8.204   8.872 -2.1621  0.2717  4.1398
16062WAT     H266054  -1.867   8.127   8.962  1.1432  1.9779  2.3875
16062WAT    EPW66055  -1.883   8.195   8.910 -0.1416  0.3858  0.5484
16063WAT      O66056   0.005   2.564   1.129 -0.0343  0.2033  0.8031
16063WAT     H166057  -0.023   2.605   1.210 -2.0608 -1.4553  1.0178
16063WAT     H266058   0.008   2.636   1.066  2.4015  1.6711  2.4465
16063WAT    EPW66059   0.002   2.579   1.131  0.0197  0.1781  1.0481
16064WAT      O66060   2.579   3.052   3.059 -0.1909  0.3167  0.1156
16064WAT     H166061   2.491   3.077   3.031 -0.1722 -0.6880 -0.9257
16064WAT     H266062   2.578   2.956   3.058  0.8127  0.2915  0.4225
16064WAT    EPW66063   2.567   3.043   3.055 -0.0561  0.1808  0.0186
16065WAT      O66064  -1.785   7.931   3.211 -0.6381 -0.3407  0.1663
16065WAT     H166065  -1.734   7.876   3.152 -0.8746 -0.7422  0.3312
16065WAT     H266066  -1.721   7.968   3.272 -0.3686  0.2030 -0.4277
16065WAT    EPW66067  -1.770   7.929   3.212 -0.6337 -0.3221  0.1098
16066WAT      O66068  -1.507   7.669   1.690 -0.5616 -0.3185  0.0305
16066WAT     H166069  -1.558   7.589   1.683 -0.5938 -0.3334  0.4071
16066WAT     H266070  -1.517   7.696   1.782 -2.1622  1.1775 -0.5195
16066WAT    EPW66071  -1.515   7.662   1.701 -0.7769 -0.1233  0.0076
16067WAT      O66072   0.970   2.969   0.390 -0.6118  0.2374  0.6724
16067WAT     H166073   0.922   3.033   0.337 -0.1825  0.9552  1.1254
16067WAT     H266074   1.060   3.002   0.390  0.3504 -2.0756 -1.7109
16067WAT    EPW66075   0.976   2.982   0.383 -0.4282  0.0269  0.4178
16068WAT      O66076   8.438   3.473   0.754 -0.1598 -0.0647 -0.2958
16068WAT     H166077   8.404   3.556   0.787  1.2348  0.1123  0.7762
16068WAT     H266078   8.490   3.497   0.677 -2.0955 -0.3068 -1.7682
16068WAT    EPW66079   8.441   3.487   0.748 -0.2313 -0.0733 -0.3486
16069WAT      O66080   5.023   4.037   5.674  0.4298 -0.3541  0.5894
16069WAT     H166081   4.999   4.111   5.619  0.1309  1.0559  2.5028
16069WAT     H266082   5.090   4.071   5.733  0.4807 -1.6794  1.3408
16069WAT    EPW66083   5.028   4.051   5.675  0.3970 -0.3428  0.9408
16070WAT      O66084   1.073  10.308   2.485 -0.0388  0.3876  0.1557
16070WAT     H166085   1.020  10.228   2.493  1.8407 -1.0303 -0.6489
16070WAT     H266086   1.106  10.324   2.573 -1.1416  0.8422  0.5072
16070WAT    EPW66087   1.070  10.299   2.497  0.0637  0.2608  0.0960
16071WAT      O66088   0.184   1.930   5.802  0.1767  0.8587 -0.1287
16071WAT     H166089   0.233   1.931   5.884  1.3105  1.5158 -0.7899
16071WAT     H266090   0.250   1.917   5.734 -0.9812 -2.1696 -0.8336
16071WAT    EPW66091   0.199   1.928   5.804  0.1735  0.5459 -0.3090
16072WAT      O66092   3.778   7.241   0.981  0.1675 -0.0795  0.5753
16072WAT     H166093   3.689   7.237   1.017  0.3310 -1.7982  0.8923
16072WAT     H266094   3.773   7.195   0.898  0.7274 -0.0627  0.5261
16072WAT    EPW66095   3.766   7.235   0.975  0.2630 -0.3040  0.6106
16073WAT      O66096  -1.295   0.812   4.923 -0.5678 -0.4675  0.0407
16073WAT     H166097  -1.368   0.855   4.967 -0.2942  1.4002 -1.2242
16073WAT     H266098  -1.217   0.858   4.956 -0.0983 -1.2200  0.0104
16073WAT    EPW66099  -1.294   0.824   4.933 -0.4697 -0.3204 -0.1302
16074WAT      O66100  -0.602   5.500   5.192 -0.2033 -0.4754 -0.4283
16074WAT     H166101  -0.599   5.555   5.114 -0.0224  1.5083  0.9085
16074WAT     H266102  -0.655   5.550   5.254  0.2813 -1.6469  0.9778
16074WAT    EPW66103  -0.608   5.514   5.190 -0.1155 -0.3684 -0.0665
16075WAT      O66104   1.823   0.840   6.232  0.2333  0.1250  0.3728
16075WAT     H166105   1.916   0.845   6.212  0.0892 -1.0390 -0.8192
16075WAT     H266106   1.811   0.753   6.270 -0.4507 -0.0383 -0.1722
16075WAT    EPW66107   1.834   0.829   6.234  0.1240 -0.0501  0.1435
16076WAT      O66108  -0.462   4.576   6.200  0.7109  0.1963  0.0859
16076WAT     H166109  -0.528   4.620   6.253  0.9123  0.1958  0.3372
16076WAT     H266110  -0.384   4.574   6.255  1.4198  1.6533 -0.8203
16076WAT    EPW66111  -0.460   4.581   6.214  0.8310  0.3881 -0.0005
16077WAT      O66112  -3.337  10.082   0.686 -0.4668 -0.1001 -0.3452
16077WAT     H166113  -3.414  10.139   0.697 -0.1106  0.2681  0.3305
16077WAT     H266114  -3.335  10.030   0.766  0.5751  0.6196  0.1201
16077WAT    EPW66115  -3.347  10.083   0.698 -0.2824  0.0434 -0.1947
16078WAT      O66116  -0.536   9.080   6.495 -0.2026  0.4850  0.2582
16078WAT     H166117  -0.572   9.125   6.418 -1.6276 -1.6717 -0.4114
16078WAT     H266118  -0.604   9.091   6.562 -0.2088  0.0384  0.3287
16078WAT    EPW66119  -0.550   9.088   6.494 -0.3914  0.1416  0.1793
16079WAT      O66120   0.971   0.656   3.333  0.5712  0.5057  0.2795
16079WAT     H166121   0.953   0.692   3.246  0.7562 -1.7833 -0.7932
16079WAT     H266122   1.021   0.576   3.316 -0.9583 -1.0181  2.3648
16079WAT    EPW66123   0.975   0.650   3.319  0.3939  0.0028  0.4132
16080WAT      O66124  -0.007   7.528   3.532  0.0861 -0.0607  0.0122
16080WAT     H166125  -0.070   7.496   3.467  0.5922  1.3041 -1.1877
16080WAT     H266126  -0.053   7.600   3.575  0.2766 -0.0396  0.1796
16080WAT    EPW66127  -0.022   7.533   3.529  0.1780  0.1221 -0.1240
16081WAT      O66128   4.037   6.550   1.685 -0.4741 -0.3430  0.2996
16081WAT     H166129   4.037   6.470   1.739  1.1872  1.6980  3.6883
16081WAT     H266130   4.130   6.572   1.676 -0.8994  1.2289 -0.5113
16081WAT    EPW66131   4.049   6.542   1.691 -0.3111  0.1338  0.6396
16082WAT      O66132  -5.811   8.677   7.634  0.3092 -0.4203 -0.1667
16082WAT     H166133  -5.841   8.767   7.642  4.1264  1.1189 -1.1143
16082WAT     H266134  -5.887   8.629   7.600 -2.1253  2.1648  1.2767
16082WAT    EPW66135  -5.825   8.683   7.631  0.4916  0.1235 -0.1016
16083WAT      O66136  -4.932   6.740   7.477  0.5345  0.7551  0.3358
16083WAT     H166137  -4.884   6.768   7.399  2.5726 -1.3060  0.7282
16083WAT     H266138  -4.988   6.669   7.445  0.5736  0.6234  0.5608
16083WAT    EPW66139  -4.933   6.734   7.462  0.8082  0.4659  0.4172
16084WAT      O66140   0.344   6.105   3.003  0.0796  0.2072  0.1204
16084WAT     H166141   0.412   6.077   2.942  0.3436 -0.5119  0.7266
16084WAT     H266142   0.324   6.195   2.977  3.4109  1.6076  1.7490
16084WAT    EPW66143   0.350   6.113   2.992  0.5538  0.2971  0.4151
16085WAT      O66144   5.250   7.584   3.421  0.0012  0.0745 -0.0080
16085WAT     H166145   5.269   7.535   3.501 -1.8441 -1.4801 -0.4483
16085WAT     H266146   5.175   7.640   3.444  0.8079  1.2139 -0.0842
16085WAT    EPW66147   5.242   7.585   3.435 -0.1357  0.0200 -0.0761
16086WAT      O66148  -0.323   6.831   7.640  0.0972 -0.6895  0.1940
16086WAT     H166149  -0.377   6.812   7.564 -1.0257 -3.1175  1.4908
16086WAT     H266150  -0.237   6.796   7.617  0.1426 -0.1769 -0.4479
16086WAT    EPW66151  -0.319   6.824   7.627 -0.0449 -0.9420  0.2804
16087WAT      O66152   4.849   1.124   0.216 -0.6226  0.1014 -0.2555
16087WAT     H166153   4.767   1.092   0.255 -0.0221 -0.7893  0.3375
16087WAT     H266154   4.822   1.168   0.136 -1.8168  1.1673  0.6923
16087WAT    EPW66155   4.835   1.125   0.211 -0.7010  0.1245 -0.0523
16088WAT      O66156   4.637   2.743   2.826 -0.0950 -0.2278  0.9936
16088WAT     H166157   4.625   2.835   2.802  1.8877 -0.3376 -0.7339
16088WAT     H266158   4.628   2.696   2.744  1.6748 -1.2516  1.3462
16088WAT    EPW66159   4.634   2.749   2.812  0.4001 -0.3773  0.8124
16089WAT      O66160  -0.804   7.901   3.391  0.7642 -0.2023 -0.1748
16089WAT     H166161  -0.830   7.971   3.451 -0.4654 -0.6202 -0.1926
16089WAT     H266162  -0.713   7.921   3.368  1.2640 -0.0243  1.8079
16089WAT    EPW66163  -0.796   7.913   3.396  0.6680 -0.2339  0.0844
16090WAT      O66164   2.601   8.163   1.206  0.0741 -0.5153  1.3776
16090WAT     H166165   2.692   8.183   1.227 -0.2964  1.3021  1.3661
16090WAT     H266166   2.566   8.126   1.287  0.6406 -0.6124  1.5848
16090WAT    EPW66167   2.609   8.161   1.220  0.0999 -0.2880  1.4035
16091WAT      O66168  -0.372   0.405   0.541  0.2385  0.0153 -0.1506
16091WAT     H166169  -0.324   0.338   0.590 -3.1941 -0.4599  3.0280
16091WAT     H266170  -0.354   0.487   0.588  1.0551  0.5848 -1.4112
16091WAT    EPW66171  -0.363   0.407   0.553 -0.1065  0.0277  0.1024
16092WAT      O66172   5.131   4.840   5.584  0.0627 -0.3935 -0.4621
16092WAT     H166173   5.208   4.791   5.610  0.5106 -0.0851 -1.1632
16092WAT     H266174   5.120   4.906   5.652  0.2972 -0.5667 -0.2553
16092WAT    EPW66175   5.140   4.843   5.596  0.1528 -0.3757 -0.5271
16093WAT      O66176   0.664   3.830   8.476  0.2037 -0.7859  0.0257
16093WAT     H166177   0.756   3.821   8.500 -0.2135 -3.9761  0.8560
16093WAT     H266178   0.617   3.778   8.541 -2.2425  0.7593 -0.3557
16093WAT    EPW66179   0.670   3.822   8.488 -0.1740 -1.0028  0.0849
16094WAT      O66180  -6.744   8.061   7.745 -0.5306 -0.1651 -0.5072
16094WAT     H166181  -6.779   7.980   7.709  0.9212 -1.0748  0.0555
16094WAT     H266182  -6.686   8.094   7.676 -0.8037  0.1932 -0.5696
16094WAT    EPW66183  -6.741   8.055   7.731 -0.3753 -0.2379 -0.4411
16095WAT      O66184  -0.070   6.357   2.125  0.1247 -0.0409 -0.6016
16095WAT     H166185  -0.055   6.356   2.219  0.3355  0.1254 -0.6321
16095WAT     H266186  -0.117   6.438   2.108  0.3881  0.0985 -0.6815
16095WAT    EPW66187  -0.074   6.367   2.135  0.1872 -0.0007 -0.6161
16096WAT      O66188   5.998   1.500   3.650 -0.2604  0.3075  0.4877
16096WAT     H166189   6.075   1.487   3.594 -2.2723 -0.7375 -2.2525
16096WAT     H266190   5.969   1.412   3.672 -1.4817  0.6361  0.2526
16096WAT    EPW66191   6.004   1.487   3.645 -0.6866  0.2130  0.0952
16097WAT      O66192  -2.864   7.085   2.192  0.1127 -0.2757 -0.0217
16097WAT     H166193  -2.850   7.147   2.121 -0.8919 -0.9260 -0.8167
16097WAT     H266194  -2.844   7.134   2.272  0.8650  0.5803 -0.7164
16097WAT    EPW66195  -2.859   7.100   2.193  0.0794 -0.2487 -0.2182
16098WAT      O66196   4.035   5.939   5.720 -0.0632  0.5696  0.2477
16098WAT     H166197   4.027   6.031   5.746 -0.6266  0.7080 -0.3922
16098WAT     H266198   4.122   5.934   5.679 -0.9184  1.3658 -1.7996
16098WAT    EPW66199   4.046   5.950   5.718 -0.2503  0.6928 -0.1068
16099WAT      O66200   5.386   7.116   2.043 -0.2288  0.9273 -0.4210
16099WAT     H166201   5.297   7.104   2.010 -0.2206  0.3437 -0.2298
16099WAT     H266202   5.380   7.095   2.136 -0.4347  3.4019  0.1845
16099WAT    EPW66203   5.373   7.112   2.051 -0.2549  1.1768 -0.3160
16100WAT      O66204  -5.442   4.673   7.951  0.1966 -0.1083  0.4478
16100WAT     H166205  -5.434   4.618   7.874 -2.2345  1.5639 -1.1527
16100WAT     H266206  -5.491   4.620   8.014 -1.7346 -0.0214 -0.9051
16100WAT    EPW66207  -5.447   4.659   7.949 -0.3788  0.1240  0.0584
16101WAT      O66208  -2.279   2.920   3.932  0.1565  0.2773 -0.0286
16101WAT     H166209  -2.228   2.966   3.998  0.0567 -0.0223  0.2627
16101WAT     H266210  -2.241   2.832   3.929  0.8570  0.5998 -1.1436
16101WAT    EPW66211  -2.267   2.914   3.940  0.2358  0.2803 -0.1372
16102WAT      O66212   5.656   9.242   3.415  0.1241 -0.4276 -0.2269
16102WAT     H166213   5.572   9.281   3.390 -0.5309  0.3273  2.7157
16102WAT     H266214   5.632   9.155   3.447  0.5000 -0.3656  0.2311
16102WAT    EPW66215   5.642   9.236   3.416  0.0875 -0.3200  0.2216
16103WAT      O66216  -1.306   9.660   4.582 -0.2934  0.3786  0.0753
16103WAT     H166217  -1.234   9.714   4.550 -0.5606  0.3396 -0.6270
16103WAT     H266218  -1.299   9.578   4.532  0.9989 -0.8774  2.1572
16103WAT    EPW66219  -1.296   9.656   4.571 -0.1582  0.2079  0.2575
16104WAT      O66220  -1.019   1.071   1.257  0.3135 -0.7974  0.3249
16104WAT     H166221  -0.999   1.073   1.163 -0.6803 -0.1018  0.1214
16104WAT     H266222  -0.939   1.037   1.297  1.2205  0.1015 -0.6529
16104WAT    EPW66223  -1.006   1.067   1.250  0.3021 -0.5870  0.1692
16105WAT      O66224  -4.055   5.684   7.945 -0.1222  0.1969 -0.3535
16105WAT     H166225  -4.128   5.623   7.953  2.2186 -3.3557 -2.9905
16105WAT     H266226  -4.062   5.720   7.856 -0.5129  2.6507  0.5844
16105WAT    EPW66227  -4.066   5.681   7.934  0.1349  0.0520 -0.5774
16106WAT      O66228   1.613   8.482   0.212  0.1331 -0.3513 -1.1144
16106WAT     H166229   1.552   8.555   0.210  0.4357 -0.0184  0.4408
16106WAT     H266230   1.598   8.440   0.297 -1.2088 -3.1697 -2.6155
16106WAT    EPW66231   1.603   8.486   0.223 -0.0040 -0.6790 -1.1073
16107WAT      O66232   2.149   9.105   6.745  0.4650 -0.0874 -0.8840
16107WAT     H166233   2.202   9.146   6.677  0.4267  0.5236 -0.5519
16107WAT     H266234   2.210   9.047   6.792  0.6833  0.1220 -0.9114
16107WAT    EPW66235   2.164   9.103   6.742  0.4888  0.0210 -0.8440
16108WAT      O66236   7.153   7.336   0.846  0.1520 -0.4033  0.0007
16108WAT     H166237   7.060   7.319   0.854  0.6306 -3.1512  0.6078
16108WAT     H266238   7.188   7.258   0.802  2.2822  0.1702  0.5779
16108WAT    EPW66239   7.146   7.324   0.841  0.4959 -0.6900  0.1568
16109WAT      O66240   1.376   0.997   5.816  0.3957 -0.1425 -0.4820
16109WAT     H166241   1.388   0.913   5.771  0.0851 -0.6690  0.3913
16109WAT     H266242   1.339   1.055   5.750  0.7946 -0.6364 -1.1469
16109WAT    EPW66243   1.373   0.994   5.802  0.4073 -0.2771 -0.4547
16110WAT      O66244   3.239   0.879   4.617  0.3531  0.3221 -0.7656
16110WAT     H166245   3.232   0.797   4.569 -3.6138  1.7977 -3.2829
16110WAT     H266246   3.179   0.868   4.691  1.9766  0.0882  0.5714
16110WAT    EPW66247   3.230   0.867   4.620  0.0439  0.4859 -0.9212
16111WAT      O66248   1.195   3.527   4.639 -0.0091 -0.0593 -0.3493
16111WAT     H166249   1.122   3.583   4.664  1.4753  0.8344  2.4300
16111WAT     H266250   1.259   3.586   4.600  0.5520 -0.2210  0.3014
16111WAT    EPW66251   1.194   3.542   4.637  0.2607  0.0372  0.1030
16112WAT      O66252  -0.595  10.315   8.122 -0.1976  0.3102  0.3769
16112WAT     H166253  -0.587  10.244   8.058  0.9132  0.3005  0.4984
16112WAT     H266254  -0.539  10.288   8.194 -2.7297 -0.4920  2.1700
16112WAT    EPW66255  -0.587  10.302   8.123 -0.3850  0.2031  0.6294
16113WAT      O66256  -1.215   4.762   5.163 -0.7244  0.5537  0.3044
16113WAT     H166257  -1.172   4.785   5.081 -2.4051  2.7750 -0.0139
16113WAT     H266258  -1.278   4.694   5.139  1.1620 -1.3870  0.4649
16113WAT    EPW66259  -1.217   4.756   5.149 -0.6973  0.5906  0.2837
16114WAT      O66260   3.545   0.334   2.513  0.6145 -0.0872  0.4504
16114WAT     H166261   3.484   0.405   2.496  0.2712  0.2245  2.7123
16114WAT     H266262   3.619   0.352   2.455 -0.1849  1.1533 -0.2257
16114WAT    EPW66263   3.547   0.346   2.503  0.4638  0.1176  0.6597
16115WAT      O66264   4.987   8.368   3.449  0.0818 -0.1503  0.0094
16115WAT     H166265   5.077   8.336   3.460  0.6710  1.7338  1.2784
16115WAT     H266266   4.951   8.367   3.538 -1.3298 -1.2561 -0.5379
16115WAT    EPW66267   4.994   8.364   3.462 -0.0267 -0.0477  0.1047
16116WAT      O66268  -1.549   6.433   2.163  0.8508 -0.4134 -0.7569
16116WAT     H166269  -1.625   6.375   2.156  1.4500 -1.1680 -1.1596
16116WAT     H266270  -1.510   6.433   2.076 -0.7516  2.9389 -1.6315
16116WAT    EPW66271  -1.554   6.425   2.151  0.7185 -0.0708 -0.9255
16117WAT      O66272   1.020   4.012   8.187 -0.2944 -0.0926 -0.4080
16117WAT     H166273   1.079   4.000   8.112 -0.5549 -2.8780 -0.2796
16117WAT     H266274   0.983   3.925   8.202 -2.1020  0.9172  1.4610
16117WAT    EPW66275   1.023   3.999   8.179 -0.5672 -0.3266 -0.1445
16118WAT      O66276   2.034   8.247   1.166  0.9723  0.2379 -0.1517
16118WAT     H166277   2.079   8.322   1.128  0.1749  1.3157  0.9063
16118WAT     H266278   1.947   8.249   1.126  0.4526  0.8077  0.9477
16118WAT    EPW66279   2.028   8.257   1.156  0.7986  0.4554  0.1329
16119WAT      O66280   6.577   5.637   0.096 -0.4480 -0.4512 -0.3574
16119WAT     H166281   6.616   5.556   0.063 -0.1530 -0.3913 -0.1617
16119WAT     H266282   6.486   5.635   0.065 -0.5862 -1.0968  0.0666
16119WAT    EPW66283   6.570   5.626   0.088 -0.4272 -0.5286 -0.2757
16120WAT      O66284  -1.104   2.336   6.657 -0.6770 -0.0245 -0.1987
16120WAT     H166285  -1.190   2.354   6.620  0.5284  1.8295 -2.4212
16120WAT     H266286  -1.097   2.241   6.659 -3.1507 -0.2384  1.0996
16120WAT    EPW66287  -1.114   2.326   6.652 -0.8443  0.1918 -0.3204
16121WAT      O66288  -0.102   5.625   0.880  0.7156 -0.2231  0.1269
16121WAT     H166289  -0.057   5.550   0.919  2.2516  0.1853 -0.7712
16121WAT     H266290  -0.062   5.635   0.794 -0.3857  0.8323 -0.2911
16121WAT    EPW66291  -0.091   5.616   0.874  0.7729 -0.0303 -0.0466
16122WAT      O66292   0.764   2.482   0.385 -0.3485  0.3265  0.0394
16122WAT     H166293   0.742   2.450   0.472  0.1138  2.8233  1.1659
16122WAT     H266294   0.684   2.469   0.333 -0.6712 -1.0557  0.8364
16122WAT    EPW66295   0.751   2.476   0.390 -0.3301  0.4735  0.2931
16123WAT      O66296   7.318   7.565   0.943 -0.3891  0.2568  0.0334
16123WAT     H166297   7.232   7.562   0.902 -0.3235  1.1350 -0.1749
16123WAT     H266298   7.380   7.547   0.872 -0.4431 -2.0685  0.4756
16123WAT    EPW66299   7.315   7.562   0.928 -0.3874  0.0660  0.0643
16124WAT      O66300  -2.074   6.439   6.454  1.4561  0.5870  0.0110
16124WAT     H166301  -2.127   6.499   6.402  2.7543  1.7625 -0.0156
16124WAT     H266302  -2.137   6.392   6.509  0.2245  0.5790 -1.3431
16124WAT    EPW66303  -2.089   6.441   6.454  1.4648  0.7410 -0.1712
16125WAT      O66304   5.150   0.091   4.794  0.5472  0.0261 -0.2077
16125WAT     H166305   5.211   0.080   4.867 -1.8161 -0.3950  1.8569
16125WAT     H266306   5.093   0.164   4.820 -0.9151 -0.6988 -1.1892
16125WAT    EPW66307   5.150   0.099   4.807  0.0424 -0.1251 -0.0648
16126WAT      O66308  -2.865   9.981   4.732  0.4016 -0.6092  0.1225
16126WAT     H166309  -2.825  10.068   4.726  0.3027 -0.6010 -0.6010
16126WAT     H266310  -2.844   9.940   4.648  0.6143 -1.3606  0.5300
16126WAT    EPW66311  -2.857   9.987   4.720  0.4168 -0.7071  0.0808
16127WAT      O66312   3.772   3.766   6.831  0.3675  0.2628  0.3883
16127WAT     H166313   3.772   3.792   6.739  0.0335 -1.3249 -0.0975
16127WAT     H266314   3.829   3.830   6.874 -0.3078  1.6687 -0.7109
16127WAT    EPW66315   3.780   3.778   6.825  0.2345  0.2388  0.1791
16128WAT      O66316  -4.298   9.445   6.587 -0.1947  0.9311  0.1029
16128WAT     H166317  -4.269   9.425   6.676 -2.6424 -0.1116  0.7636
16128WAT     H266318  -4.372   9.386   6.572  0.0128  1.2083 -2.5807
16128WAT    EPW66319  -4.304   9.435   6.597 -0.4902  0.8297 -0.1638
16129WAT      O66320  -5.887   9.594   7.699 -0.4597 -0.4275  0.3884
16129WAT     H166321  -5.799   9.606   7.733 -0.3285  0.1213 -0.1283
16129WAT     H266322  -5.891   9.501   7.675 -0.5279 -0.8049  1.7738
16129WAT    EPW66323  -5.876   9.583   7.700 -0.4513 -0.4048  0.5031
16130WAT      O66324   2.457  10.219   6.553 -0.6456 -0.0899 -0.0507
16130WAT     H166325   2.405  10.185   6.626  0.6406 -1.1101  0.4404
16130WAT     H266326   2.547  10.197   6.577  0.2308  3.0416 -0.0950
16130WAT    EPW66327   2.462  10.212   6.566 -0.3604  0.1888  0.0081
16131WAT      O66328   3.259   2.244   6.058  0.3558  0.5151 -0.0167
16131WAT     H166329   3.326   2.313   6.068  2.1554 -1.1233 -0.1485
16131WAT     H266330   3.284   2.177   6.122 -0.3621 -0.7401 -1.0028
16131WAT    EPW66331   3.271   2.244   6.068  0.4984  0.1335 -0.1640
16132WAT      O66332   0.101   7.677   2.721  1.0023 -0.4455 -0.4781
16132WAT     H166333   0.170   7.734   2.685  1.3557  0.5730  1.6595
16132WAT     H266334   0.148   7.618   2.779  0.0793  0.7368  1.5862
16132WAT    EPW66335   0.116   7.677   2.724  0.9271 -0.1552  0.0761
16133WAT      O66336  -2.688   5.332   7.793 -0.3116 -0.1672 -0.4938
16133WAT     H166337  -2.706   5.345   7.700  0.2865 -3.3386 -1.1741
16133WAT     H266338  -2.693   5.237   7.806 -4.0932  0.2361  3.5323
16133WAT    EPW66339  -2.691   5.321   7.783 -0.7316 -0.5322 -0.0527
16134WAT      O66340   4.199  10.156   3.121  0.0935  0.3119 -0.1137
16134WAT     H166341   4.141  10.103   3.066  0.6150  0.1565 -0.5305
16134WAT     H266342   4.143  10.226   3.153  0.0831  1.2709 -2.0537
16134WAT    EPW66343   4.184  10.158   3.118  0.1609  0.4182 -0.4245
16135WAT      O66344  -0.623   6.872   1.875  0.7058 -0.5926 -0.7695
16135WAT     H166345  -0.614   6.904   1.965 -1.8743 -2.4242  0.2777
16135WAT     H266346  -0.540   6.828   1.857  2.0635  1.5560 -0.1192
16135WAT    EPW66347  -0.611   6.870   1.885  0.5446 -0.5507 -0.5456
16136WAT      O66348   3.540   8.375   3.981 -0.4389 -0.4837 -0.0124
16136WAT     H166349   3.468   8.437   3.990 -0.4212 -0.6749  1.6172
16136WAT     H266350   3.607   8.423   3.932 -0.2252  0.9990  1.6440
16136WAT    EPW66351   3.539   8.390   3.975 -0.4083 -0.3128  0.4209
16137WAT      O66352  -2.445   2.105   4.239 -0.3422  0.4248 -0.5323
16137WAT     H166353  -2.360   2.125   4.200  0.3828  0.7548  1.1251
16137WAT     H266354  -2.468   2.184   4.288 -0.8568 -0.2242  0.3002
16137WAT    EPW66355  -2.437   2.118   4.241 -0.3144  0.3828 -0.2038
16138WAT      O66356  -5.609   7.367   5.437  0.3666 -0.1349 -0.0172
16138WAT     H166357  -5.603   7.335   5.527  0.9261  0.5449  0.1990
16138WAT     H266358  -5.615   7.288   5.384 -1.1575 -0.5219  0.6785
16138WAT    EPW66359  -5.609   7.352   5.442  0.2394 -0.0963  0.1032
16139WAT      O66360  -0.569   1.868   4.756 -0.1227  0.8905  1.0871
16139WAT     H166361  -0.556   1.846   4.848  1.2368  1.9701  1.1850
16139WAT     H266362  -0.647   1.818   4.730  0.6376 -1.0385  2.2627
16139WAT    EPW66363  -0.577   1.858   4.764  0.1568  0.7784  1.2550
16140WAT      O66364   1.769   9.463   7.973  0.1366  0.3034  0.1471
16140WAT     H166365   1.704   9.505   8.029  1.1220 -0.1095  1.6631
16140WAT     H266366   1.759   9.506   7.888 -4.7478 -2.2895 -0.9748
16140WAT    EPW66367   1.759   9.474   7.970 -0.3777 -0.0935  0.1991
16141WAT      O66368   0.588   0.195   5.235 -0.0347  0.3672 -0.3771
16141WAT     H166369   0.660   0.154   5.282  0.3342  0.6830 -0.6604
16141WAT     H266370   0.599   0.166   5.144 -0.9127 -0.4778 -0.2213
16141WAT    EPW66371   0.599   0.186   5.229 -0.1019  0.2974 -0.3941
16142WAT      O66372   1.396   8.846   0.610 -0.0750  0.5267  0.6738
16142WAT     H166373   1.374   8.821   0.700  0.2511 -0.4440  0.5046
16142WAT     H266374   1.312   8.846   0.564 -0.3560  1.9043  1.1699
16142WAT    EPW66375   1.382   8.842   0.616 -0.0691  0.5808  0.7169
16143WAT      O66376  -3.082   0.182   5.819  0.3917  0.2296 -0.2116
16143WAT     H166377  -3.013   0.246   5.802  1.6744 -1.2881 -0.9744
16143WAT     H266378  -3.132   0.178   5.738 -0.7623  1.4500  0.3936
16143WAT    EPW66379  -3.080   0.190   5.806  0.4086  0.1904 -0.2325
16144WAT      O66380   9.421   2.219   0.181  0.1423 -0.3066 -0.5248
16144WAT     H166381   9.442   2.182   0.267  2.2249 -1.4225 -1.4348
16144WAT     H266382   9.339   2.176   0.156 -0.4185 -0.0793  0.8180
16144WAT    EPW66383   9.413   2.208   0.189  0.3428 -0.4238 -0.4677
16145WAT      O66384  -1.541   7.310   7.881  0.0649  1.3299  0.1176
16145WAT     H166385  -1.586   7.235   7.840 -0.1550  0.7669  1.3376
16145WAT     H266386  -1.528   7.283   7.972  0.5378  2.5428  0.4276
16145WAT    EPW66387  -1.545   7.296   7.887  0.0982  1.4157  0.3192
16146WAT      O66388  -1.750   2.002   1.985 -0.5761 -0.1197 -0.2018
16146WAT     H166389  -1.693   1.991   1.909 -0.3074  0.5204 -0.1088
16146WAT     H266390  -1.699   2.059   2.044  0.3961 -2.7513  1.6732
16146WAT    EPW66391  -1.736   2.008   1.983 -0.4125 -0.3823  0.0578
16147WAT      O66392   8.774   4.728   0.516 -0.2080  0.6172 -0.5132
16147WAT     H166393   8.849   4.733   0.457 -0.0625  0.4551 -0.3404
16147WAT     H266394   8.800   4.665   0.583 -1.8613 -2.3994 -2.4608
16147WAT    EPW66395   8.787   4.721   0.517 -0.4067  0.1979 -0.7472
16148WAT      O66396  -0.770   9.015   0.202 -0.1710 -0.0289  0.1171
16148WAT     H166397  -0.726   9.093   0.167 -1.4205  0.7184  0.1525
16148WAT     H266398  -0.767   9.026   0.297 -0.8549  0.2752  0.1077
16148WAT    EPW66399  -0.764   9.027   0.210 -0.4260  0.1097  0.1205
16149WAT      O66400   0.728   7.119   6.944  0.0990  0.4741 -0.5610
16149WAT     H166401   0.802   7.137   6.886  2.3917  0.4215  2.1549
16149WAT     H266402   0.767   7.096   7.028 -3.0145 -0.8317  0.7085
16149WAT    EPW66403   0.743   7.119   6.947 -0.0093  0.2949 -0.0353
16150WAT      O66404   4.861   1.924   4.900  0.0348 -0.1522 -0.0241
16150WAT     H166405   4.875   1.833   4.926  0.1685 -0.1778 -0.1814
16150WAT     H266406   4.919   1.975   4.956 -0.3942 -0.1207  0.3930
16150WAT    EPW66407   4.871   1.919   4.911 -0.0043 -0.1514  0.0100
16151WAT      O66408   1.515   1.612   7.262 -0.1801  0.0343 -0.2559
16151WAT     H166409   1.448   1.680   7.265  0.1154  0.3104  1.1799
16151WAT     H266410   1.566   1.626   7.342  0.7718 -0.9928 -0.6570
16151WAT    EPW66411   1.513   1.623   7.273 -0.0156 -0.0647 -0.1194
16152WAT      O66412  -0.314   5.839   0.952 -0.3904 -0.4751 -0.4468
16152WAT     H166413  -0.231   5.886   0.939  0.5812 -1.2922  2.1961
16152WAT     H266414  -0.288   5.750   0.975 -2.1485 -1.6101 -2.4872
16152WAT    EPW66415  -0.300   5.834   0.953 -0.4942 -0.7327 -0.3673
16153WAT      O66416   5.790   7.397   0.905 -0.2249 -0.2809 -0.1529
16153WAT     H166417   5.715   7.386   0.848 -0.5861 -1.0355  0.4431
16153WAT     H266418   5.797   7.314   0.952  0.5501  0.0289  0.3109
16153WAT    EPW66419   5.781   7.385   0.904 -0.1705 -0.3395 -0.0131
16154WAT      O66420   1.775   6.518   8.187 -0.0619  0.3888 -0.1969
16154WAT     H166421   1.751   6.446   8.127  0.0943 -0.2117  0.4447
16154WAT     H266422   1.767   6.597   8.134  0.3575 -0.1578 -1.1016
16154WAT    EPW66423   1.771   6.519   8.172  0.0141  0.2372 -0.2317
16155WAT      O66424  -1.720   7.369   8.155 -0.2728  0.4998 -0.1680
16155WAT     H166425  -1.713   7.315   8.234  2.1809 -1.2695 -1.4835
16155WAT     H266426  -1.720   7.307   8.083 -1.3013  2.1329 -1.6561
16155WAT    EPW66427  -1.719   7.354   8.156 -0.0848  0.4818 -0.5379
16156WAT      O66428  -1.659   9.817   7.709  0.7734 -0.1006  0.7031
16156WAT     H166429  -1.717   9.867   7.767  1.6321  0.9306  0.6838
16156WAT     H266430  -1.682   9.846   7.621  0.2091 -0.8907  0.5762
16156WAT    EPW66431  -1.670   9.827   7.705  0.8122 -0.0691  0.6840
16157WAT      O66432  -2.150   5.804   1.215  0.6535  0.4468 -0.1599
16157WAT     H166433  -2.121   5.852   1.293  1.9768 -0.2504 -0.1812
16157WAT     H266434  -2.099   5.842   1.143 -0.0978  0.6630 -0.5888
16157WAT    EPW66435  -2.139   5.815   1.216  0.7290  0.3831 -0.2193
16158WAT      O66436   3.169   8.145   1.167  0.2996 -0.1052 -0.2648
16158WAT     H166437   3.103   8.181   1.109 -0.3676  0.1114  0.6010
16158WAT     H266438   3.165   8.051   1.154  0.2951 -0.0427 -0.7069
16158WAT    EPW66439   3.160   8.137   1.158  0.2110 -0.0682 -0.2089
16159WAT      O66440  -2.942   3.855   4.158 -0.5856 -0.2736  0.4441
16159WAT     H166441  -2.896   3.834   4.239 -0.3132 -1.0781  0.0850
16159WAT     H266442  -2.951   3.772   4.112  0.8542  0.4123 -1.1904
16159WAT    EPW66443  -2.937   3.842   4.162 -0.3598 -0.2892  0.1812
16160WAT      O66444  -2.982   4.472   4.377 -0.0636 -0.4508  0.9389
16160WAT     H166445  -3.026   4.544   4.423  1.0284  0.7249  0.2308
16160WAT     H266446  -2.889   4.486   4.396  0.2483 -1.0456 -0.1039
16160WAT    EPW66447  -2.975   4.483   4.386  0.1216 -0.3741  0.7079
16161WAT      O66448   2.170   8.369   1.984 -0.3358  0.6582  1.3105
16161WAT     H166449   2.089   8.378   1.933  0.7778 -0.4292 -0.7778
16161WAT     H266450   2.143   8.384   2.074 -2.5640  1.9253  0.5086
16161WAT    EPW66451   2.156   8.372   1.989 -0.4828  0.6819  0.9293
16162WAT      O66452  -3.165   0.727   7.918 -0.2418 -0.7527 -0.1630
16162WAT     H166453  -3.242   0.681   7.950 -1.3621  1.5883  0.7708
16162WAT     H266454  -3.108   0.733   7.995 -1.5822  2.1730  0.7587
16162WAT    EPW66455  -3.167   0.722   7.932 -0.5665 -0.0581  0.0818
16163WAT      O66456   0.492   6.726   8.140  0.0384 -0.0327  0.1052
16163WAT     H166457   0.508   6.755   8.050 -1.4568 -0.9088 -0.4838
16163WAT     H266458   0.502   6.631   8.136  0.2416 -0.0545  0.9461
16163WAT    EPW66459   0.495   6.717   8.127 -0.1320 -0.1509  0.1383
16164WAT      O66460  -0.598   7.534   7.686  0.0792  0.1138  0.0324
16164WAT     H166461  -0.507   7.557   7.708 -0.4158  1.5526  0.6874
16164WAT     H266462  -0.618   7.589   7.610 -0.1749 -0.4058 -0.2840
16164WAT    EPW66463  -0.589   7.544   7.679 -0.0196  0.2351  0.0772
16165WAT      O66464  -1.560   3.405   6.316 -0.8037 -0.2165  0.5399
16165WAT     H166465  -1.561   3.378   6.224  0.9327 -1.0458  0.7269
16165WAT     H266466  -1.532   3.327   6.364  0.3168  0.7663  1.5441
16165WAT    EPW66467  -1.556   3.391   6.310 -0.4269 -0.1962  0.6971
16166WAT      O66468  -5.390   7.705   5.711  0.2209 -0.4690 -0.0019
16166WAT     H166469  -5.389   7.721   5.806 -0.3864  0.2484 -0.1082
16166WAT     H266470  -5.299   7.715   5.684  0.3252 -0.2194  0.4347
16166WAT    EPW66471  -5.378   7.708   5.720  0.1547 -0.3417  0.0415
16167WAT      O66472  -2.121   8.151   4.808  0.8673 -0.0323 -0.3115
16167WAT     H166473  -2.187   8.092   4.844  2.0724 -1.0354  0.3359
16167WAT     H266474  -2.054   8.158   4.876  0.3738  2.8293  0.0076
16167WAT    EPW66475  -2.121   8.144   4.821  0.9613  0.2127 -0.1838
16168WAT      O66476  -3.953   6.449   6.183 -0.2272  0.1266  0.0163
16168WAT     H166477  -3.918   6.511   6.119  0.1659 -1.3938 -1.2896
16168WAT     H266478  -4.025   6.406   6.138  0.1657 -1.1053  0.5211
16168WAT    EPW66479  -3.958   6.452   6.169 -0.1236 -0.2363 -0.0896
16169WAT      O66480  -6.542   9.908   8.908 -0.3929 -0.0360 -0.2327
16169WAT     H166481  -6.500   9.854   8.841 -0.2615 -2.0358  1.3716
16169WAT     H266482  -6.478   9.977   8.927  1.2657 -1.6999  0.5485
16169WAT    EPW66483  -6.528   9.910   8.902 -0.1566 -0.5193  0.0815
16170WAT      O66484  -0.560   8.459   1.396  0.7928 -0.4847  0.0858
16170WAT     H166485  -0.572   8.471   1.490  0.9237  1.3093 -0.0926
16170WAT     H266486  -0.563   8.364   1.384 -0.6359 -0.6965  1.6958
16170WAT    EPW66487  -0.562   8.448   1.407  0.6216 -0.2766  0.2746
16171WAT      O66488   6.091  10.195   0.076  0.9146 -0.1489 -0.3316
16171WAT     H166489   6.072  10.256   0.147 -0.3132  0.2977 -1.0100
16171WAT     H266490   6.009  10.147   0.063  1.6186 -1.3916 -0.3530
16171WAT    EPW66491   6.078  10.197   0.083  0.8454 -0.2537 -0.4239
16172WAT      O66492   1.413   5.196   0.290  0.8020  0.2927  0.4304
16172WAT     H166493   1.461   5.249   0.225 -0.9349  1.7180  0.2211
16172WAT     H266494   1.402   5.255   0.364  0.6201 -0.5127  1.0521
16172WAT    EPW66495   1.418   5.211   0.291  0.5489  0.3743  0.4847
16173WAT      O66496   6.094   3.064   5.093 -0.3557  0.1811 -0.0724
16173WAT     H166497   6.066   2.976   5.119 -3.0271  1.3954  1.7042
16173WAT     H266498   6.057   3.076   5.005 -1.7533  0.1911  0.4931
16173WAT    EPW66499   6.085   3.054   5.085 -0.8924  0.3425  0.2365
16174WAT      O66500   0.059   4.122   7.027  0.2143  0.7151  0.7714
16174WAT     H166501   0.137   4.069   7.047  0.6550  1.7611  1.9939
16174WAT     H266502   0.022   4.081   6.949  2.6422  0.8510 -0.5639
16174WAT    EPW66503   0.065   4.109   7.019  0.5927  0.8709  0.7565
16175WAT      O66504   5.741   0.388   5.349  0.1410 -0.0787  0.4609
16175WAT     H166505   5.686   0.340   5.287  0.1447 -1.2742  1.3516
16175WAT     H266506   5.741   0.478   5.316  1.1938 -0.8882 -1.9984
16175WAT    EPW66507   5.734   0.394   5.336  0.2804 -0.3432  0.2539
16176WAT      O66508   0.111   1.327   0.283 -0.3570  0.0784  0.5236
16176WAT     H166509   0.205   1.338   0.292 -0.4031  2.3194 -0.9522
16176WAT     H266510   0.079   1.310   0.372  1.5436 -2.3646  0.8465
16176WAT    EPW66511   0.119   1.326   0.296 -0.1124  0.0517  0.3715
16177WAT      O66512   5.386   7.449   3.630  0.2914  0.8445 -0.1313
16177WAT     H166513   5.376   7.376   3.692  0.8680 -0.5751 -1.6430
16177WAT     H266514   5.460   7.499   3.664  0.2958  0.3663  0.5874
16177WAT    EPW66515   5.394   7.446   3.643  0.3681  0.5944 -0.2359
16178WAT      O66516  -4.367   8.388   4.663  0.0097  0.3024 -0.5275
16178WAT     H166517  -4.398   8.432   4.584  1.1312  0.3614 -0.9476
16178WAT     H266518  -4.327   8.459   4.715 -1.0809  0.3377  0.2859
16178WAT    EPW66519  -4.366   8.403   4.660  0.0136  0.3152 -0.4756
16179WAT      O66520   1.555   0.484   8.144  0.0395 -0.2275  0.1114
16179WAT     H166521   1.584   0.535   8.069  0.7688 -1.6184 -0.5984
16179WAT     H266522   1.563   0.544   8.218  0.5651  0.7711 -0.7252
16179WAT    EPW66523   1.560   0.499   8.144  0.2050 -0.2792 -0.0925
16180WAT      O66524  -6.630   8.568   8.958 -0.2614  0.4026 -0.0489
16180WAT     H166525  -6.587   8.610   9.033  0.7606  0.5340 -0.6986
16180WAT     H266526  -6.664   8.640   8.906 -2.7699  0.2935  1.2583
16180WAT    EPW66527  -6.629   8.583   8.961 -0.4574  0.4055  0.0378
16181WAT      O66528  -6.028   8.244   7.343  0.7851  0.2099 -0.2690
16181WAT     H166529  -6.008   8.199   7.261  1.4732 -2.2934  1.1663
16181WAT     H266530  -6.099   8.194   7.382  1.7056  0.1949  1.4934
16181WAT    EPW66531  -6.034   8.232   7.337  0.9971 -0.1225  0.1528
16182WAT      O66532   8.188   1.376   1.328  0.5125  0.1028 -0.5720
16182WAT     H166533   8.281   1.360   1.315  0.3450 -0.1046 -1.5883
16182WAT     H266534   8.176   1.375   1.423  1.4489 -0.4086 -0.4554
16182WAT    EPW66535   8.199   1.374   1.339  0.6137  0.0080 -0.6907
16183WAT      O66536   4.623   1.058   3.096 -0.1746  0.5680 -0.0434
16183WAT     H166537   4.670   1.070   3.178 -0.8163 -0.1131  0.4425
16183WAT     H266538   4.586   0.970   3.102 -0.4484  0.6049 -0.9540
16183WAT    EPW66539   4.624   1.048   3.107 -0.2954  0.4830 -0.0993
16184WAT      O66540  -2.545   8.638   7.591  0.4838 -0.5277 -0.2708
16184WAT     H166541  -2.548   8.632   7.496  0.5663  0.1111 -0.3231
16184WAT     H266542  -2.515   8.552   7.621  1.8955 -0.2757 -0.8919
16184WAT    EPW66543  -2.542   8.626   7.583  0.6809 -0.4106 -0.3595
16185WAT      O66544  -0.778   3.225   0.049  0.3950  0.0064 -0.3511
16185WAT     H166545  -0.805   3.290   0.114  0.9494 -0.3427  0.2480
16185WAT     H266546  -0.856   3.171   0.036 -0.5216  1.6547 -1.9615
16185WAT    EPW66547  -0.792   3.226   0.056  0.3472  0.1777 -0.4845
16186WAT      O66548   5.965   3.859   2.374  0.2059  0.3408 -0.2181
16186WAT     H166549   5.904   3.787   2.358 -1.3644  1.5438  0.1433
16186WAT     H266550   5.986   3.852   2.467 -1.3323  1.3619  0.2289
16186WAT    EPW66551   5.960   3.848   2.384 -0.2041  0.6342 -0.1116
16187WAT      O66552  -1.106  10.256   7.919 -0.3569  0.3585  0.2575
16187WAT     H166553  -1.167  10.284   7.851 -0.4431 -0.9579 -0.2286
16187WAT     H266554  -1.088  10.336   7.969 -5.0058  0.2592  2.5464
16187WAT    EPW66555  -1.111  10.270   7.917 -0.9814  0.1717  0.4952
16188WAT      O66556  -1.990   4.317   3.324  0.1427 -0.3928 -0.2707
16188WAT     H166557  -1.981   4.408   3.352 -1.6124  0.0656 -1.0920
16188WAT     H266558  -1.923   4.270   3.375  0.4858  1.1896  0.8206
16188WAT    EPW66559  -1.980   4.323   3.334 -0.0435 -0.1235 -0.2351
16189WAT      O66560   8.340   4.356   0.352 -0.2269  0.1385  0.4334
16189WAT     H166561   8.335   4.401   0.436  0.0891  2.3912 -0.6506
16189WAT     H266562   8.258   4.309   0.344 -0.4725  0.3017  1.7803
16189WAT    EPW66563   8.329   4.356   0.362 -0.2174  0.4570  0.4681
16190WAT      O66564  -5.733   9.977   4.357  0.3712  0.4215 -0.7775
16190WAT     H166565  -5.709  10.005   4.446  1.9203  1.1291 -1.3801
16190WAT     H266566  -5.829   9.981   4.356  0.3573  1.2610  0.5951
16190WAT    EPW66567  -5.743   9.982   4.369  0.5736  0.6256 -0.6759
16191WAT      O66568   6.184   5.727   4.170  0.5315 -0.5018  0.1177
16191WAT     H166569   6.269   5.748   4.131 -0.1818  1.8655 -0.2578
16191WAT     H266570   6.189   5.763   4.259  0.2191 -1.1465  0.4047
16191WAT    EPW66571   6.196   5.734   4.177  0.3960 -0.2744  0.1059
16192WAT      O66572  -1.032   3.833   1.074  0.3626 -0.7361 -0.1918
16192WAT     H166573  -0.947   3.857   1.037  0.8384 -0.6515  0.9084
16192WAT     H266574  -1.023   3.740   1.095  0.2224 -0.7058  0.0021
16192WAT    EPW66575  -1.019   3.824   1.072  0.4068 -0.7210 -0.0211
16193WAT      O66576  -0.080   9.633   0.113  0.4472  0.1918 -0.0541
16193WAT     H166577  -0.005   9.585   0.077  0.2817 -0.2775  0.2160
16193WAT     H266578  -0.150   9.619   0.048  0.2395 -0.3966  0.2866
16193WAT    EPW66579  -0.079   9.625   0.100  0.3980  0.0525  0.0265
16194WAT      O66580  -5.389   4.190   7.741 -1.0130 -0.4840 -0.2518
16194WAT     H166581  -5.459   4.143   7.695  0.3934 -0.8260 -2.1978
16194WAT     H266582  -5.318   4.195   7.677  0.3678  0.7758  1.2862
16194WAT    EPW66583  -5.389   4.184   7.726 -0.6452 -0.3629 -0.3057
16195WAT      O66584   4.968   2.556   0.230 -0.1374  0.1235 -0.2576
16195WAT     H166585   5.015   2.489   0.181 -2.5522 -1.8128 -0.0767
16195WAT     H266586   4.972   2.528   0.321 -4.2046 -2.0276 -0.4945
16195WAT    EPW66587   4.975   2.544   0.235 -0.9923 -0.4156 -0.2650
16196WAT      O66588  -1.217   7.215   0.661  1.0419 -0.3918 -0.2436
16196WAT     H166589  -1.134   7.169   0.673  1.1722 -0.2677 -0.6424
16196WAT     H266590  -1.249   7.232   0.749  2.2156  0.9700 -0.0542
16196WAT    EPW66591  -1.211   7.211   0.674  1.2138 -0.1957 -0.2713
16197WAT      O66592   2.413  10.232   3.159  0.6772 -0.4116  0.8216
16197WAT     H166593   2.496  10.236   3.206  0.2452  0.6193  1.5577
16197WAT     H266594   2.418  10.152   3.106  1.1381 -1.7301  2.7488
16197WAT    EPW66595   2.425  10.222   3.158  0.6810 -0.4497  1.1728
16198WAT      O66596   6.816   6.101   2.910  0.5985  0.0377  0.5502
16198WAT     H166597   6.886   6.132   2.852  1.3969  1.6617  2.2745
16198WAT     H266598   6.735   6.123   2.864  1.1982  2.2135  0.4356
16198WAT    EPW66599   6.815   6.108   2.896  0.7830  0.5388  0.7626
16199WAT      O66600   2.827   9.537   5.297 -0.1325  0.0442 -0.3097
16199WAT     H166601   2.739   9.502   5.307 -0.1772  0.3099  0.2574
16199WAT     H266602   2.876   9.468   5.252 -0.0061 -1.0732  1.4557
16199WAT    EPW66603   2.822   9.524   5.292 -0.1218 -0.0682 -0.0021
16200WAT      O66604  -0.189   1.610   3.038  0.2385  0.1209  0.5778
16200WAT     H166605  -0.215   1.525   3.003 -0.1804  1.2969 -2.2351
16200WAT     H266606  -0.240   1.620   3.118 -2.0388 -0.9962 -0.6457
16200WAT    EPW66607  -0.199   1.600   3.044 -0.1171  0.1287  0.0454
16201WAT      O66608   0.849   5.204   2.566 -0.6557 -0.5166 -0.1977
16201WAT     H166609   0.844   5.180   2.658  1.2351 -1.8806 -0.3913
16201WAT     H266610   0.850   5.121   2.519  2.3448 -0.0667 -1.1502
16201WAT    EPW66611   0.849   5.190   2.572 -0.0106 -0.6371 -0.3489
16202WAT      O66612  -2.435   0.984   3.753  0.2976 -0.4802  0.1172
16202WAT     H166613  -2.382   0.967   3.830 -2.2389 -3.7027  1.3854
16202WAT     H266614  -2.402   0.923   3.687 -1.7749 -2.7126  1.0056
16202WAT    EPW66615  -2.424   0.974   3.754 -0.3103 -1.1997  0.4016
16203WAT      O66616  -1.941   3.446   3.864  0.1035  0.8217  0.6946
16203WAT     H166617  -2.029   3.436   3.827  0.4474 -0.5227  0.1882
16203WAT     H266618  -1.956   3.449   3.959 -0.4046 -0.9814  0.7134
16203WAT    EPW66619  -1.955   3.445   3.872  0.0818  0.4065  0.6304
16204WAT      O66620  -1.267   7.939   5.286  0.6628  0.6070  0.4620
16204WAT     H166621  -1.225   7.889   5.356 -2.9335 -1.1820  1.5534
16204WAT     H266622  -1.348   7.971   5.324  0.2100  2.6272 -1.9185
16204WAT    EPW66623  -1.272   7.937   5.300  0.1287  0.6375  0.2918
16205WAT      O66624   4.024   9.225   4.423  0.1820 -0.5646 -0.2416
16205WAT     H166625   4.044   9.309   4.465  1.2864 -1.6618  1.5168
16205WAT     H266626   3.928   9.222   4.422 -0.0724  2.3527 -3.8665
16205WAT    EPW66627   4.014   9.236   4.429  0.2940 -0.3242 -0.4880
16206WAT      O66628   4.380   5.783   2.603 -0.2913  0.1527  0.3523
16206WAT     H166629   4.299   5.825   2.630 -0.0696  0.8509 -0.0487
16206WAT     H266630   4.355   5.694   2.581 -0.4095 -0.6913  3.3862
16206WAT    EPW66631   4.366   5.777   2.604 -0.2775  0.1333  0.6996
16207WAT      O66632  -0.679   2.282   6.364  0.6923 -0.9692 -0.1944
16207WAT     H166633  -0.773   2.277   6.379  0.5298  1.1649 -0.2073
16207WAT     H266634  -0.670   2.297   6.270  1.0227 -0.8132 -0.1408
16207WAT    EPW66635  -0.690   2.283   6.353  0.7145 -0.6671 -0.1891
16208WAT      O66636   5.873   0.207   7.968 -0.0001 -0.1321  0.3461
16208WAT     H166637   5.938   0.217   8.036  1.4609  1.8220 -1.2176
16208WAT     H266638   5.789   0.218   8.013  0.8942  0.8534  1.8500
16208WAT    EPW66639   5.870   0.209   7.983  0.3107  0.2556  0.3383
16209WAT      O66640   1.699   9.938   0.885  0.4170 -0.3165 -0.1955
16209WAT     H166641   1.712   9.844   0.872  4.4514 -0.6398  3.6215
16209WAT     H266642   1.664   9.945   0.974  0.1257  1.8106 -0.4251
16209WAT    EPW66643   1.696   9.926   0.895  0.9107 -0.0787  0.2776
16210WAT      O66644  -3.920   0.293   7.493 -1.0822 -0.3883 -0.4976
16210WAT     H166645  -3.981   0.235   7.448 -2.3304  1.2565 -1.0287
16210WAT     H266646  -3.949   0.292   7.584 -0.3385 -1.5193 -0.2658
16210WAT    EPW66647  -3.932   0.285   7.499 -1.1487 -0.3205 -0.5369
16211WAT      O66648  -2.016   3.698   7.930  0.5395 -0.0343  0.0084
16211WAT     H166649  -2.069   3.765   7.888 -1.8158 -2.0826 -0.5294
16211WAT     H266650  -1.938   3.690   7.875  0.5028  1.6520 -0.3352
16211WAT    EPW66651  -2.013   3.706   7.917  0.2241 -0.0820 -0.1078
16212WAT      O66652   4.001   1.689   6.320  0.8090  0.4187  0.0582
16212WAT     H166653   3.998   1.609   6.373 -0.9374  0.0564 -0.5230
16212WAT     H266654   3.937   1.674   6.251  0.2925  2.4077  0.0591
16212WAT    EPW66655   3.992   1.676   6.318  0.5106  0.6332 -0.0186
16213WAT      O66656   3.219   4.850   0.227 -0.1081  0.4407  0.1819
16213WAT     H166657   3.201   4.890   0.312  1.3322  0.1509  0.6455
16213WAT     H266658   3.315   4.851   0.220 -0.1247 -1.3034 -0.5781
16213WAT    EPW66659   3.229   4.856   0.237  0.0798  0.1721  0.1428
16214WAT      O66660   4.644   1.023   6.467  0.0637 -0.0418 -0.0370
16214WAT     H166661   4.630   0.932   6.491 -1.7336 -0.6806 -3.0182
16214WAT     H266662   4.660   1.021   6.373 -2.0115  2.8056 -0.5951
16214WAT    EPW66663   4.644   1.011   6.458 -0.4470  0.2495 -0.5038
16215WAT      O66664   1.485   9.612   5.640  0.6676  0.0535  0.2390
16215WAT     H166665   1.548   9.562   5.693 -1.3084 -2.1489  0.7196
16215WAT     H266666   1.444   9.672   5.702  0.5738 -0.2632  0.4857
16215WAT    EPW66667   1.488   9.613   5.656  0.3946 -0.2789  0.3350
16216WAT      O66668   2.776   1.708   3.462  0.0270 -0.4709 -0.5502
16216WAT     H166669   2.866   1.679   3.479  0.3425  0.3536 -0.8103
16216WAT     H266670   2.775   1.801   3.485 -0.1939  0.0681 -2.5696
16216WAT    EPW66671   2.788   1.716   3.468  0.0395 -0.2910 -0.8508
16217WAT      O66672  -0.539   2.653   2.576  0.3669 -0.4269  0.0441
16217WAT     H166673  -0.547   2.560   2.596 -0.9690 -0.3930 -0.2427
16217WAT     H266674  -0.623   2.677   2.537 -0.6156  1.6035  2.9835
16217WAT    EPW66675  -0.551   2.644   2.574  0.0611 -0.1546  0.3937
16218WAT      O66676   1.410   1.198   2.132 -0.3279  0.2378  0.2981
16218WAT     H166677   1.450   1.114   2.154 -2.6554 -0.7980  0.9317
16218WAT     H266678   1.362   1.181   2.051  0.4033  1.3893 -0.3903
16218WAT    EPW66679   1.409   1.184   2.124 -0.5385  0.2530  0.2909
16219WAT      O66680  -1.685   2.486   6.757  0.2824  0.4944 -0.2671
16219WAT     H166681  -1.617   2.427   6.789 -0.0257  0.5081  0.4320
16219WAT     H266682  -1.644   2.573   6.760 -0.0361  0.6215  1.0022
16219WAT    EPW66683  -1.670   2.490   6.762  0.1998  0.5130 -0.0074
16220WAT      O66684   2.343   0.752   6.903  0.9684 -0.1051  0.3453
16220WAT     H166685   2.310   0.696   6.833 -0.0835  1.8023 -0.7782
16220WAT     H266686   2.387   0.824   6.858 -3.3556  3.5271  1.1409
16220WAT    EPW66687   2.344   0.754   6.888  0.2593  0.6255  0.3018
16221WAT      O66688  -1.401   9.949   1.149  0.1136 -0.3177 -0.2089
16221WAT     H166689  -1.453  10.028   1.134  0.0391 -0.0901  1.0865
16221WAT     H266690  -1.448   9.880   1.103 -1.5372 -0.1754  1.1721
16221WAT    EPW66691  -1.414   9.950   1.141 -0.1140 -0.2689  0.1441
16222WAT      O66692   0.994   0.180   1.398 -1.1143 -0.0503  0.4183
16222WAT     H166693   0.974   0.118   1.469 -0.7364 -0.1920  0.4008
16222WAT     H266694   0.932   0.252   1.412 -1.0565 -0.0848  0.8816
16222WAT    EPW66695   0.983   0.181   1.409 -1.0568 -0.0736  0.4771
16223WAT      O66696  -5.867   9.220   7.995 -0.0090 -0.3790 -0.3221
16223WAT     H166697  -5.912   9.244   8.076 -0.1320  0.2596 -0.5781
16223WAT     H266698  -5.775   9.241   8.011 -0.2171  1.0087 -0.8089
16223WAT    EPW66699  -5.861   9.226   8.008 -0.0527 -0.1116 -0.4206
16224WAT      O66700   3.337   8.073   4.305  0.5605  0.3219  0.7841
16224WAT     H166701   3.409   8.012   4.291  2.2865  2.0226  1.7611
16224WAT     H266702   3.367   8.131   4.376 -1.7569  1.1318  1.2172
16224WAT    EPW66703   3.350   8.073   4.313  0.4824  0.6528  0.9699
16225WAT      O66704  -0.697   6.630   4.570 -0.4992  0.0960 -0.0290
16225WAT     H166705  -0.691   6.549   4.519 -2.8419  0.1479 -0.4956
16225WAT     H266706  -0.667   6.698   4.510 -1.6611 -0.0506 -0.8102
16225WAT    EPW66707  -0.692   6.628   4.556 -0.9615  0.0834 -0.1936
16226WAT      O66708  -2.052   1.531   7.638 -0.1712  0.4184  0.0523
16226WAT     H166709  -2.060   1.466   7.709 -1.2394 -1.0089 -1.3033
16226WAT     H266710  -1.965   1.569   7.650 -0.1233 -0.1412  1.8138
16226WAT    EPW66711  -2.042   1.527   7.649 -0.3057  0.1563  0.1059
16227WAT      O66712   0.254   1.406   2.681  0.5214  0.1204  0.6416
16227WAT     H166713   0.224   1.339   2.744 -2.7787  0.7158 -0.1383
16227WAT     H266714   0.304   1.356   2.616 -1.0316 -1.4826  0.5994
16227WAT    EPW66715   0.257   1.390   2.681 -0.1187 -0.0125  0.5332
16228WAT      O66716   7.388   0.379   5.003  0.8839  0.3303  0.4775
16228WAT     H166717   7.398   0.467   5.039 -1.0481  1.0692 -0.6141
16228WAT     H266718   7.333   0.391   4.925  1.6778 -1.6852 -0.4609
16228WAT    EPW66719   7.382   0.392   4.998  0.7339  0.1619  0.2098
16229WAT      O66720  -0.995   0.316   3.920  0.2803 -0.4104 -0.3657
16229WAT     H166721  -1.023   0.274   4.002  0.3301  0.8467  0.3186
16229WAT     H266722  -1.076   0.324   3.869  0.1694 -0.7961 -0.2574
16229WAT    EPW66723  -1.010   0.311   3.924  0.2723 -0.2955 -0.2612
16230WAT      O66724   6.248   5.172   4.233  0.7470 -0.5006  0.0310
16230WAT     H166725   6.211   5.248   4.278 -0.7194 -1.0946 -0.1121
16230WAT     H266726   6.333   5.202   4.201  0.2985  1.0089  0.1752
16230WAT    EPW66727   6.255   5.186   4.235  0.4945 -0.3796  0.0312
16231WAT      O66728  -2.356   1.032   3.322 -0.2877 -0.1169 -0.8278
16231WAT     H166729  -2.279   1.074   3.359 -0.1242 -0.9384 -0.2114
16231WAT     H266730  -2.397   0.986   3.396  0.6768 -2.7540 -1.8166
16231WAT    EPW66731  -2.351   1.032   3.337 -0.1390 -0.5730 -0.8769
16232WAT      O66732   1.099   6.549   5.944  0.0980  1.0961 -0.3144
16232WAT     H166733   1.005   6.540   5.933  0.0233  0.1272  0.9032
16232WAT     H266734   1.131   6.576   5.858 -0.9868 -0.8423 -1.3786
16232WAT    EPW66735   1.091   6.552   5.931 -0.0550  0.7126 -0.2942
16233WAT      O66736   6.163   2.955   1.552 -0.1459  0.1170 -0.7942
16233WAT     H166737   6.109   2.999   1.617 -0.3017 -0.8590 -0.2452
16233WAT     H266738   6.183   2.870   1.591  0.6259 -0.0787 -1.5841
16233WAT    EPW66739   6.158   2.950   1.565 -0.0646 -0.0374 -0.8260
16234WAT      O66740   1.833   9.686   6.578  0.1939 -0.1722 -0.4223
16234WAT     H166741   1.803   9.600   6.609  0.5545  0.5982  2.3703
16234WAT     H266742   1.928   9.684   6.590  0.0961  0.9521  0.6982
16234WAT    EPW66743   1.841   9.674   6.584  0.2286  0.0777  0.0937
16235WAT      O66744   4.403   0.030   6.449  0.1781  0.6609 -0.6534
16235WAT     H166745   4.309   0.019   6.439  0.4115 -0.8781 -1.6004
16235WAT     H266746   4.413   0.114   6.493 -1.7125 -0.1349  1.4734
16235WAT    EPW66747   4.392   0.039   6.453 -0.0403  0.3530 -0.4978
16236WAT      O66748  -3.048   9.627   2.904 -0.4470 -0.4111  0.5687
16236WAT     H166749  -3.131   9.609   2.949 -0.0806 -1.0465  1.0106
16236WAT     H266750  -3.053   9.720   2.880 -1.4471 -0.5372  0.2388
16236WAT    EPW66751  -3.060   9.637   2.907 -0.5306 -0.5116  0.5835
16237WAT      O66752   5.141   2.193   1.267 -0.2564 -0.0620  0.0527
16237WAT     H166753   5.192   2.135   1.323 -0.0499 -2.5301 -2.4292
16237WAT     H266754   5.158   2.281   1.299  2.8054 -1.0599  1.4432
16237WAT    EPW66755   5.150   2.197   1.278  0.1748 -0.5192 -0.0913
16238WAT      O66756  -4.492   5.544   4.300 -0.3895  0.3535  0.7892
16238WAT     H166757  -4.582   5.513   4.307 -0.3250 -0.1393 -0.4117
16238WAT     H266758  -4.477   5.556   4.206  1.3798 -1.3682  0.7828
16238WAT    EPW66759  -4.502   5.541   4.289 -0.1478  0.0613  0.6299
16239WAT      O66760   1.053   7.426   6.384  0.0155  0.1483  0.2873
16239WAT     H166761   1.055   7.331   6.394  2.1336  0.1982  0.8187
16239WAT     H266762   1.077   7.459   6.471  1.4424  1.0910 -0.4297
16239WAT    EPW66763   1.056   7.418   6.397  0.4831  0.2792  0.2630
16240WAT      O66764   3.150   7.048   6.568  0.2689  0.2747 -0.0700
16240WAT     H166765   3.102   7.059   6.650 -1.0523  3.5659 -1.1211
16240WAT     H266766   3.139   6.955   6.546 -1.2998 -0.1951  2.2669
16240WAT    EPW66767   3.142   7.037   6.576 -0.1123  0.6468  0.0997
16241WAT      O66768   7.607   1.842   4.311 -0.7056 -0.3592  0.4202
16241WAT     H166769   7.625   1.863   4.219 -1.8716  2.8774  0.7921
16241WAT     H266770   7.691   1.811   4.344 -0.3367 -1.9456 -1.7700
16241WAT    EPW66771   7.621   1.841   4.303 -0.8109 -0.1416  0.1802
16242WAT      O66772  -5.816   4.363   8.026 -0.2617  0.6607 -0.9052
16242WAT     H166773  -5.811   4.290   7.964  0.6972 -0.7923  0.7848
16242WAT     H266774  -5.726   4.395   8.032 -0.7796  2.4489 -2.1040
16242WAT    EPW66775  -5.803   4.357   8.019 -0.2036  0.7048 -0.8402
16243WAT      O66776   0.737   2.766   3.314 -0.0418 -0.2835 -0.1982
16243WAT     H166777   0.745   2.743   3.221  0.3104  1.3593 -0.6047
16243WAT     H266778   0.741   2.682   3.359 -0.3334 -1.1310 -1.6708
16243WAT    EPW66779   0.739   2.752   3.308 -0.0338 -0.1786 -0.4460
16244WAT      O66780  -2.254   8.979   6.034  1.0002 -0.1289 -0.0312
16244WAT     H166781  -2.239   8.898   6.082  0.7280  0.0281  0.3222
16244WAT     H266782  -2.245   8.954   5.942  0.5775 -0.6322  0.0610
16244WAT    EPW66783  -2.251   8.965   6.028  0.9085 -0.1740  0.0277
16245WAT      O66784  -2.469   0.097   5.819 -0.6589 -0.5159 -0.5278
16245WAT     H166785  -2.495   0.181   5.782  1.2091  0.3027 -0.0883
16245WAT     H266786  -2.377   0.108   5.843 -0.2120 -2.8331 -0.8754
16245WAT    EPW66787  -2.460   0.109   5.817 -0.3536 -0.7136 -0.5157
16246WAT      O66788   0.887   9.300   4.164  0.2733 -0.2593 -0.6177
16246WAT     H166789   0.811   9.313   4.222  1.5157 -2.4345  1.7188
16246WAT     H266790   0.951   9.363   4.194 -0.4014  1.3641 -2.3907
16246WAT    EPW66791   0.885   9.310   4.176  0.3482 -0.3319 -0.5436
16247WAT      O66792   4.664   2.642   7.924 -0.0856  0.2366 -0.0803
16247WAT     H166793   4.671   2.570   7.861 -3.4284  0.1876 -0.6009
16247WAT     H266794   4.675   2.600   8.009  2.7154  0.0045 -0.4625
16247WAT    EPW66795   4.666   2.627   7.927 -0.1571  0.1996 -0.1993
16248WAT      O66796   8.541   5.842   0.071 -0.5228  0.3251  0.3716
16248WAT     H166797   8.515   5.750   0.064  1.6963 -0.1994 -3.2377
16248WAT     H266798   8.630   5.840   0.104 -0.6381  1.2531  0.7796
16248WAT    EPW66799   8.549   5.830   0.074 -0.2456  0.3781 -0.0507
16249WAT      O66800  -0.327   8.855   6.541 -0.2876  0.0777 -0.2853
16249WAT     H166801  -0.380   8.931   6.519 -0.0771 -0.4868 -3.1821
16249WAT     H266802  -0.390   8.785   6.555 -0.4087  0.1196 -0.6104
16249WAT    EPW66803  -0.342   8.856   6.540 -0.2758  0.0091 -0.7102
16250WAT      O66804   2.903   4.098   8.575 -0.1723 -0.0886  0.3813
16250WAT     H166805   2.814   4.075   8.603  0.3684 -1.1646  1.3101
16250WAT     H266806   2.893   4.180   8.528 -2.0565 -1.4895 -1.9027
16250WAT    EPW66807   2.890   4.105   8.573 -0.3494 -0.4156  0.2027
16251WAT      O66808   2.303   7.536   7.219 -0.9570  0.4785  0.0807
16251WAT     H166809   2.230   7.585   7.257 -1.4694  0.9729 -1.4798
16251WAT     H266810   2.288   7.539   7.125  1.5309  1.3079 -0.3699
16251WAT    EPW66811   2.291   7.543   7.212 -0.6965  0.6530 -0.1845
16252WAT      O66812  -4.129   0.092   7.464  0.3147 -0.4035 -0.1893
16252WAT     H166813  -4.193   0.067   7.530  1.4980 -0.6478  0.9069
16252WAT     H266814  -4.050   0.044   7.488  1.7137  1.8773  0.0545
16252WAT    EPW66815  -4.127   0.082   7.476  0.6552 -0.1349 -0.0126
16253WAT      O66816   4.647   2.687   4.727 -0.5570 -0.2174 -0.1314
16253WAT     H166817   4.687   2.737   4.799  3.2889 -0.7067 -1.6825
16253WAT     H266818   4.596   2.620   4.771  0.5059  0.3491  2.1559
16253WAT    EPW66819   4.646   2.685   4.742  0.0904 -0.2072 -0.0341
16254WAT      O66820   2.347   6.034   5.232 -0.7148  0.2773 -0.3906
16254WAT     H166821   2.309   6.087   5.301  2.3655  0.2819  1.4956
16254WAT     H266822   2.315   5.945   5.250 -0.2958  0.3540  0.7833
16254WAT    EPW66823   2.338   6.029   5.243 -0.2532  0.2880  0.0129
16255WAT      O66824   6.267   2.437   2.812 -1.0282  0.1461 -0.5154
16255WAT     H166825   6.310   2.386   2.743 -1.2140 -1.2140  0.3266
16255WAT     H266826   6.303   2.402   2.893 -1.5272  1.0533  0.1134
16255WAT    EPW66827   6.277   2.425   2.813 -1.1187  0.0864 -0.3214
16256WAT      O66828  -5.377   7.661   4.955 -0.0674 -0.4479  0.1313
16256WAT     H166829  -5.335   7.657   5.041  0.3779  0.4626 -0.0278
16256WAT     H266830  -5.319   7.717   4.903 -1.2337  0.4385 -0.2455
16256WAT    EPW66831  -5.364   7.668   4.960 -0.1624 -0.2110  0.0606
16257WAT      O66832   2.550  10.120   1.016 -0.3624  0.9100  0.4832
16257WAT     H166833   2.610  10.145   1.086  0.0240  0.2233  0.4172
16257WAT     H266834   2.465  10.112   1.058  0.0720 -0.6503  1.1534
16257WAT    EPW66835   2.547  10.122   1.031 -0.2543  0.6137  0.5628
16258WAT      O66836  -6.228   7.857   6.905 -1.0458  0.2548  0.1773
16258WAT     H166837  -6.312   7.866   6.860 -1.6270  3.8614  1.6400
16258WAT     H266838  -6.250   7.864   6.998  0.7844  0.5683  0.6278
16258WAT    EPW66839  -6.242   7.859   6.911 -0.8812  0.7720  0.4296
16259WAT      O66840  -1.748   6.338   7.203  0.1170  0.2315  0.4868
16259WAT     H166841  -1.813   6.278   7.167 -0.1679  2.1153 -2.4068
16259WAT     H266842  -1.690   6.357   7.130  0.6302  2.8663  1.4775
16259WAT    EPW66843  -1.749   6.332   7.189  0.1472  0.8276  0.2358
16260WAT      O66844   4.729   6.554   4.262 -0.2724 -0.8801  0.2304
16260WAT     H166845   4.669   6.489   4.226 -1.2840 -0.2381  0.7157
16260WAT     H266846   4.681   6.593   4.335  0.4858  0.0950  0.2290
16260WAT    EPW66847   4.715   6.551   4.267 -0.3059 -0.6669  0.2942
16261WAT      O66848   3.479   8.532   2.187  0.6056  0.3270 -0.1333
16261WAT     H166849   3.453   8.623   2.199  1.3442  0.3413  1.8045
16261WAT     H266850   3.574   8.533   2.197  0.7818 -0.4921 -1.4499
16261WAT    EPW66851   3.488   8.544   2.190  0.7263  0.2213 -0.0514
16262WAT      O66852  -0.240   9.926   4.385  0.2449  0.2319 -0.0515
16262WAT     H166853  -0.211   9.839   4.357  2.0586  0.8549 -0.2001
16262WAT     H266854  -0.271   9.913   4.475  1.3621 -0.4225  0.2621
16262WAT    EPW66855  -0.240   9.913   4.393  0.6315  0.2279 -0.0298
16263WAT      O66856   7.376   4.458   0.493 -0.0773  0.0189 -0.3894
16263WAT     H166857   7.283   4.446   0.512 -0.0910 -1.2624 -1.1882
16263WAT     H266858   7.394   4.399   0.420  0.9067  1.7603 -1.6276
16263WAT    EPW66859   7.366   4.449   0.486  0.0508  0.0794 -0.6580
16264WAT      O66860   0.797   6.187   7.714  0.0626 -0.5647  0.0023
16264WAT     H166861   0.812   6.100   7.677  1.7524 -0.3712  0.1374
16264WAT     H266862   0.776   6.170   7.806 -0.9991 -0.8848 -0.2885
16264WAT    EPW66863   0.796   6.173   7.721  0.1454 -0.5813 -0.0181
16265WAT      O66864  -2.645   4.804   5.103  0.2860 -0.1637  0.2802
16265WAT     H166865  -2.593   4.755   5.039 -0.9164  0.0240 -0.8928
16265WAT     H266866  -2.598   4.887   5.113 -0.0753  0.2578 -1.2371
16265WAT    EPW66867  -2.632   4.809   5.096  0.0798 -0.0830 -0.0746
16266WAT      O66868   3.582   3.469   1.708  0.1550  0.2371  0.7237
16266WAT     H166869   3.531   3.391   1.731  0.9572 -0.7402 -0.6951
16266WAT     H266870   3.525   3.519   1.650  0.5309 -0.5214 -0.3212
16266WAT    EPW66871   3.568   3.465   1.704  0.3103  0.0082  0.3987
16267WAT      O66872   5.532   0.884   5.631  0.2729  0.4036  0.3295
16267WAT     H166873   5.446   0.842   5.637  0.2060  0.4889 -0.0599
16267WAT     H266874   5.574   0.843   5.556  0.9576 -0.3387  1.1023
16267WAT    EPW66875   5.526   0.873   5.622  0.3543  0.3169  0.3800
16268WAT      O66876   5.114   0.020   6.992 -0.2489 -0.3568  0.1774
16268WAT     H166877   5.027   0.050   7.016 -0.2198  1.6938 -1.9151
16268WAT     H266878   5.172   0.060   7.058 -0.7659 -0.6857  0.8392
16268WAT    EPW66879   5.111   0.030   7.004 -0.3133 -0.1297 -0.0112
16269WAT      O66880   4.101   9.134   2.844  0.2638  0.2086 -0.0623
16269WAT     H166881   4.156   9.212   2.844 -1.1744  1.2796 -0.0974
16269WAT     H266882   4.020   9.163   2.801 -0.3306 -1.2990 -0.0189
16269WAT    EPW66883   4.097   9.148   2.838 -0.0043  0.1512 -0.0612
16270WAT      O66884  -4.540   0.796   7.830  0.4991 -0.2170  0.3787
16270WAT     H166885  -4.620   0.823   7.785  0.7923  0.9528  0.5071
16270WAT     H266886  -4.537   0.701   7.820  0.8915  0.0395 -2.6354
16270WAT    EPW66887  -4.550   0.787   7.823  0.5896 -0.0289 -0.0019
16271WAT      O66888  -1.142   5.865   1.766 -0.5857 -0.0568 -0.5212
16271WAT     H166889  -1.178   5.898   1.684 -1.3387  2.6130  0.7610
16271WAT     H266890  -1.084   5.935   1.797  0.4047 -1.3941  0.7821
16271WAT    EPW66891  -1.139   5.878   1.759 -0.5544  0.1190 -0.1802
16272WAT      O66892  -0.545   7.863   8.649  0.5110 -0.0433 -0.1962
16272WAT     H166893  -0.608   7.883   8.580  0.0842  1.1225  0.5019
16272WAT     H266894  -0.472   7.822   8.603  0.1982  0.6194 -1.3304
16272WAT    EPW66895  -0.544   7.861   8.634  0.4134  0.1976 -0.2542
16273WAT      O66896  -2.447   5.923   5.562  0.2642 -0.3801 -0.5216
16273WAT     H166897  -2.501   6.001   5.553 -0.9722 -1.0678  0.5013
16273WAT     H266898  -2.432   5.893   5.472 -0.3829  0.2883 -0.8648
16273WAT    EPW66899  -2.452   5.929   5.549  0.0159 -0.3827 -0.4323
16274WAT      O66900   2.260   9.766   6.897 -0.1498 -0.4526  0.9819
16274WAT     H166901   2.312   9.712   6.957  1.5469  1.9046  1.7869
16274WAT     H266902   2.310   9.765   6.815 -2.2416 -3.3095 -0.4250
16274WAT    EPW66903   2.274   9.759   6.894 -0.2021 -0.5183  0.9024
16275WAT      O66904   3.788   7.908   4.368 -0.0003  0.2884 -0.2487
16275WAT     H166905   3.715   7.958   4.404 -0.9320 -0.5333 -0.9624
16275WAT     H266906   3.794   7.830   4.423 -0.9527 -0.6058 -1.3534
16275WAT    EPW66907   3.779   7.905   4.380 -0.2488  0.0620 -0.4885
16276WAT      O66908  -1.439   5.287   3.347  0.4527  0.1900 -0.1013
16276WAT     H166909  -1.360   5.249   3.309  0.1920 -1.7699  1.1763
16276WAT     H266910  -1.500   5.213   3.356 -0.4867  1.0954  1.5210
16276WAT    EPW66911  -1.437   5.272   3.344  0.2944  0.0510  0.2812
16277WAT      O66912   3.156   5.699   0.293  1.3964 -0.8860 -0.3919
16277WAT     H166913   3.176   5.606   0.307 -0.6287 -1.1110  1.4139
16277WAT     H266914   3.066   5.699   0.262  1.0867  0.5187  0.4408
16277WAT    EPW66915   3.147   5.686   0.290  1.0885 -0.7305 -0.0439
16278WAT      O66916   1.668   2.101   6.853  0.2689 -0.1165 -0.6121
16278WAT     H166917   1.663   2.012   6.818 -1.1993 -0.0702 -0.5912
16278WAT     H266918   1.696   2.088   6.944 -0.7766 -0.6463 -0.3485
16278WAT    EPW66919   1.671   2.087   6.861 -0.0626 -0.1802 -0.5746
16279WAT      O66920   5.260   7.421   2.261  0.3748  0.5923  0.0529
16279WAT     H166921   5.262   7.339   2.311 -1.0445  0.4499 -0.0762
16279WAT     H266922   5.322   7.408   2.190  0.2453 -0.3315  0.1030
16279WAT    EPW66923   5.269   7.409   2.258  0.1705  0.4516  0.0424
16280WAT      O66924  -4.117   7.275   3.280  0.1363 -0.1824  0.9484
16280WAT     H166925  -4.120   7.359   3.327  0.6490  0.2069  0.3027
16280WAT     H266926  -4.209   7.257   3.259  0.1150  0.8217  0.0649
16280WAT    EPW66927  -4.130   7.284   3.284  0.2012  0.0014  0.7467
16281WAT      O66928   3.360   1.607   3.775 -0.6267 -0.1638 -0.5664
16281WAT     H166929   3.273   1.643   3.759 -0.6080  0.6259  0.9215
16281WAT     H266930   3.415   1.683   3.790 -0.1411 -0.7111  0.6061
16281WAT    EPW66931   3.356   1.621   3.775 -0.5602 -0.1318 -0.2155
16282WAT      O66932   6.646   6.543   3.350  0.0738  0.2657 -0.1901
16282WAT     H166933   6.552   6.550   3.368 -0.0731 -0.8281 -0.4614
16282WAT     H266934   6.664   6.450   3.353  1.6386  0.5483  2.1887
16282WAT    EPW66935   6.636   6.532   3.353  0.2608  0.1588  0.0880
16283WAT      O66936   6.140   9.685   0.025  0.3512 -0.7242  0.8500
16283WAT     H166937   6.195   9.644   0.092  0.1198  0.9815  2.1722
16283WAT     H266938   6.073   9.731   0.075  0.0381  0.4306 -0.5728
16283WAT    EPW66939   6.138   9.686   0.041  0.2794 -0.3467  0.8368
16284WAT      O66940  -3.244   9.050   0.837 -0.4144  0.1166  0.3772
16284WAT     H166941  -3.277   8.962   0.822  0.5800 -0.5695  1.9708
16284WAT     H266942  -3.162   9.038   0.884 -2.2375  1.8896  4.5088
16284WAT    EPW66943  -3.238   9.037   0.841 -0.5237  0.2599  1.1323
16285WAT      O66944  -2.113   9.251   8.126 -0.0880 -0.0525 -0.0344
16285WAT     H166945  -2.146   9.340   8.129  1.6370  0.6092  0.1399
16285WAT     H266946  -2.129   9.216   8.214  2.0283  1.1789  0.9135
16285WAT    EPW66947  -2.120   9.258   8.138  0.4187  0.1969  0.1135
16286WAT      O66948   1.225   0.751   4.160 -0.1514 -0.4143 -0.2229
16286WAT     H166949   1.263   0.741   4.073  1.9751  0.3997  0.5404
16286WAT     H266950   1.183   0.838   4.158  0.5303 -0.0814 -0.2248
16286WAT    EPW66951   1.224   0.761   4.148  0.2190 -0.2630 -0.1225
16287WAT      O66952   2.545   6.062   2.153 -0.3203  0.3465  0.4369
16287WAT     H166953   2.594   5.986   2.122  1.6570  0.9355  1.8739
16287WAT     H266954   2.511   6.035   2.239 -0.4551  0.7541  0.5140
16287WAT    EPW66955   2.547   6.048   2.161 -0.0772  0.4778  0.6366
16288WAT      O66956   3.518   7.248   4.446 -0.0190 -0.1621  0.9745
16288WAT     H166957   3.530   7.193   4.368 -0.0271 -0.6689  1.3256
16288WAT     H266958   3.588   7.221   4.506 -0.8809 -0.7978  1.7149
16288WAT    EPW66959   3.529   7.237   4.444 -0.1338 -0.3128  1.1184
16289WAT      O66960   3.610   9.297   1.900  0.3632  0.3617 -0.0371
16289WAT     H166961   3.624   9.297   1.995 -1.3727  2.2487  0.2938
16289WAT     H266962   3.627   9.388   1.874 -0.0123  0.0574 -1.4024
16289WAT    EPW66963   3.614   9.309   1.909  0.0846  0.5703 -0.1734
16290WAT      O66964   1.119   3.242   3.354 -0.1531 -0.0086 -0.2609
16290WAT     H166965   1.074   3.162   3.380  0.3875  0.2897  1.8000
16290WAT     H266966   1.050   3.308   3.351 -0.6511 -0.5542 -2.2603
16290WAT    EPW66967   1.104   3.240   3.357 -0.1475 -0.0412 -0.2528
16291WAT      O66968   8.286   0.342   2.117 -0.1202 -0.2185 -0.5014
16291WAT     H166969   8.246   0.264   2.155  0.6288 -1.6509 -2.4869
16291WAT     H266970   8.213   0.401   2.100 -0.8565 -1.0234 -0.1911
16291WAT    EPW66971   8.271   0.339   2.120 -0.1187 -0.5136 -0.7223
16292WAT      O66972   3.781   3.058   5.920 -0.1739 -0.0685  0.0360
16292WAT     H166973   3.695   3.056   5.963 -0.7747  2.3800 -0.9042
16292WAT     H266974   3.843   3.074   5.992 -0.8872  1.3618  0.3818
16292WAT    EPW66975   3.778   3.060   5.935 -0.3473  0.4431 -0.0424
16293WAT      O66976   1.278   8.138   8.929 -0.8575  0.0456 -0.0392
16293WAT     H166977   1.293   8.044   8.913 -0.1668 -0.0892  1.2359
16293WAT     H266978   1.346   8.182   8.877 -1.6215 -0.0973 -1.2022
16293WAT    EPW66979   1.289   8.131   8.920 -0.8672  0.0091 -0.0243
16294WAT      O66980   1.598   9.680   7.520  0.0472 -0.3148 -0.7051
16294WAT     H166981   1.522   9.737   7.531  0.0456 -0.3014 -0.7809
16294WAT     H266982   1.647   9.719   7.448 -1.5445 -2.0484 -2.9067
16294WAT    EPW66983   1.594   9.692   7.512 -0.1630 -0.5417 -1.0054
16295WAT      O66984   1.087   0.589   1.062 -0.1560 -1.4740 -0.4619
16295WAT     H166985   1.162   0.533   1.081 -0.2210 -1.2380  0.5476
16295WAT     H266986   1.123   0.677   1.053 -0.2179 -1.4769 -0.7757
16295WAT    EPW66987   1.101   0.593   1.063 -0.1727 -1.4433 -0.3701
16296WAT      O66988   0.048   4.152   6.270  0.4344 -0.3175 -0.6093
16296WAT     H166989  -0.039   4.172   6.236  1.0401  1.1759 -1.3733
16296WAT     H266990   0.108   4.197   6.211  1.8258 -2.4392 -0.9021
16296WAT    EPW66991   0.044   4.161   6.258  0.6978 -0.4003 -0.7486
16297WAT      O66992  -0.814   2.950   1.069  1.2623 -0.1147  0.1569
16297WAT     H166993  -0.823   2.882   1.001 -1.3228 -0.9599  1.2133
16297WAT     H266994  -0.788   2.901   1.148 -0.1692  0.1358  0.8158
16297WAT    EPW66995  -0.812   2.934   1.071  0.7326 -0.1931  0.3831
16298WAT      O66996  -0.990   8.254   3.154 -0.0939  0.7605 -0.6273
16298WAT     H166997  -0.904   8.281   3.122  0.7420 -0.1723  0.7351
16298WAT     H266998  -1.013   8.179   3.101 -0.7313  1.8318 -1.9262
16298WAT    EPW66999  -0.981   8.248   3.143 -0.0677  0.7787 -0.6189
16299WAT      O67000   4.036   2.379   3.994 -0.4138  0.2515 -0.0139
16299WAT     H167001   3.949   2.363   4.030 -1.0572  1.3692 -0.9934
16299WAT     H267002   4.081   2.295   4.002 -0.9221  0.1333  2.2122
16299WAT    EPW67003   4.030   2.366   4.000 -0.5658  0.3834  0.1506
16300WAT      O67004  -4.803   8.189   4.442 -0.1014 -0.6063  0.7608
16300WAT     H167005  -4.820   8.283   4.442 -0.4566 -0.6630  1.5936
16300WAT     H267006  -4.712   8.181   4.469  0.0272 -0.4908  0.3694
16300WAT    EPW67007  -4.794   8.200   4.446 -0.1314 -0.5984  0.8190
16301WAT      O67008   0.127   3.146   1.912  0.0157  0.7736 -0.1585
16301WAT     H167009   0.187   3.220   1.896 -1.7221  2.0702 -1.0039
16301WAT     H267010   0.059   3.157   1.846  0.2298 -2.2430 -1.0129
16301WAT    EPW67011   0.126   3.157   1.901 -0.1853  0.5467 -0.3827
16302WAT      O67012  -1.560   4.449   4.474  0.3081 -0.9280  0.0834
16302WAT     H167013  -1.606   4.404   4.404  0.8329  0.1817 -1.0235
16302WAT     H267014  -1.479   4.481   4.432 -1.4133  3.8290 -0.2226
16302WAT    EPW67015  -1.555   4.448   4.459  0.1503 -0.1543 -0.1030
16303WAT      O67016  -2.159   6.974   1.076  0.3678 -0.4320 -1.2039
16303WAT     H167017  -2.184   6.905   1.138  1.6318 -0.8197 -1.0878
16303WAT     H267018  -2.064   6.981   1.086  0.2350  1.5629 -0.9971
16303WAT    EPW67019  -2.150   6.966   1.086  0.5171 -0.2201 -1.1613
16304WAT      O67020   0.361   2.199   5.495  0.3563 -0.2236  0.2578
16304WAT     H167021   0.326   2.184   5.407  1.2480  0.9260 -0.3267
16304WAT     H267022   0.452   2.225   5.480  0.9074 -1.2771  1.6222
16304WAT    EPW67023   0.368   2.201   5.481  0.5466 -0.2109  0.3607
16305WAT      O67024   4.563   5.910   0.817  0.2112 -0.0933 -0.5642
16305WAT     H167025   4.582   5.929   0.908 -3.3606  2.4780 -0.1818
16305WAT     H267026   4.535   5.818   0.817  1.3272 -0.4610  0.6779
16305WAT    EPW67027   4.562   5.900   0.829 -0.1128  0.1974 -0.3500
16306WAT      O67028   1.828   4.219   4.613  0.2639  0.1129  0.3279
16306WAT     H167029   1.819   4.271   4.693  0.9279 -0.4243  0.7599
16306WAT     H267030   1.762   4.256   4.553 -0.1691  0.5842  1.0783
16306WAT    EPW67031   1.818   4.231   4.615  0.2944  0.1042  0.4838
16307WAT      O67032  -1.575   9.003   0.128  0.2949  0.4359 -1.2312
16307WAT     H167033  -1.660   8.968   0.103 -0.7034  0.5400  1.7040
16307WAT     H267034  -1.536   8.935   0.184  0.8737  1.5436 -0.2350
16307WAT    EPW67035  -1.581   8.989   0.132  0.2396  0.5956 -0.7126
16308WAT      O67036   3.756   1.031   7.860  0.4034  0.9246  0.0514
16308WAT     H167037   3.717   1.031   7.772 -0.0646  1.9177  0.2372
16308WAT     H267038   3.844   0.996   7.847 -0.4619 -1.1890 -0.4115
16308WAT    EPW67039   3.763   1.027   7.847  0.2276  0.7768  0.0150
16309WAT      O67040   7.051   0.111   2.559  0.2554  0.0467 -0.6312
16309WAT     H167041   7.048   0.120   2.654 -0.8257  1.0125 -0.7365
16309WAT     H267042   6.986   0.173   2.527 -1.3109 -2.1363 -1.9028
16309WAT    EPW67043   7.042   0.120   2.567 -0.0939 -0.1138 -0.8129
16310WAT      O67044   1.096   9.104   4.638  0.2614  0.2556 -0.0228
16310WAT     H167045   1.085   9.058   4.555 -2.9846 -0.6298  0.7395
16310WAT     H267046   1.099   9.034   4.703 -0.3734  0.9987  0.8209
16310WAT    EPW67047   1.095   9.089   4.636 -0.2505  0.2370  0.1891
16311WAT      O67048   5.292   3.958   4.305  0.5834  0.0170  0.5366
16311WAT     H167049   5.344   3.985   4.230 -0.3981 -0.9739 -0.5345
16311WAT     H267050   5.344   3.984   4.381  0.7174  2.8475 -0.4160
16311WAT    EPW67051   5.306   3.965   4.305  0.4716  0.2596  0.2694
16312WAT      O67052   4.658   0.483   5.714  0.4559 -0.4455 -0.6803
16312WAT     H167053   4.579   0.459   5.762 -0.0404  1.0103 -0.7443
16312WAT     H267054   4.713   0.526   5.779  0.1613  0.7223 -1.1894
16312WAT    EPW67055   4.655   0.485   5.729  0.3517 -0.0995 -0.7560
16313WAT      O67056   1.825   5.709   0.823  0.2092 -0.2376  0.4439
16313WAT     H167057   1.871   5.766   0.762 -0.7829  0.6762  0.5172
16313WAT     H267058   1.772   5.652   0.768  1.6053 -1.5108  0.3427
16313WAT    EPW67059   1.824   5.709   0.808  0.2626 -0.2849  0.4402
16314WAT      O67060   3.694  10.153   3.513 -0.1982  0.0696 -0.4042
16314WAT     H167061   3.679  10.247   3.520  1.8371  0.3714  0.5757
16314WAT     H267062   3.632  10.114   3.574 -0.6162  0.8220 -0.3423
16314WAT    EPW67063   3.684  10.160   3.522  0.0151  0.2089 -0.2668
16315WAT      O67064  -1.926   3.886   3.579 -0.6954  0.6392 -0.1264
16315WAT     H167065  -1.891   3.916   3.663 -0.6776 -2.8080  1.2576
16315WAT     H267066  -2.020   3.903   3.585 -0.5180  1.7028 -0.0703
16315WAT    EPW67067  -1.934   3.892   3.591 -0.6697  0.3248  0.0635
16316WAT      O67068   1.721   6.981   0.064  0.2546 -0.2911  0.6050
16316WAT     H167069   1.626   6.986   0.059  0.2106 -1.0716  0.5217
16316WAT     H267070   1.751   6.994  -0.026  0.1951 -0.6280  0.5364
16316WAT    EPW67071   1.713   6.983   0.051  0.2410 -0.4385  0.5850
16317WAT      O67072  -0.019   0.330   4.416  1.4567  0.2690 -0.0443
16317WAT     H167073  -0.035   0.424   4.420  1.7196  0.6582 -4.1031
16317WAT     H267074   0.073   0.322   4.392  1.4188 -1.0289  0.1804
16317WAT    EPW67075  -0.009   0.341   4.414  1.4864  0.1491 -0.5500
16318WAT      O67076   0.071   4.588   5.653  0.3217 -0.0319 -0.0662
16318WAT     H167077   0.102   4.649   5.719  0.2052 -1.0475  0.9547
16318WAT     H267078  -0.017   4.618   5.631 -0.0537 -0.3021  1.0320
16318WAT    EPW67079   0.064   4.600   5.659  0.2568 -0.2015  0.2134
16319WAT      O67080   3.134   2.387   8.005  0.5288 -0.0089 -0.0714
16319WAT     H167081   3.097   2.475   7.997  1.9687  0.6656  0.4521
16319WAT     H267082   3.221   2.400   8.041  1.1722 -1.5813 -0.9339
16319WAT    EPW67083   3.141   2.400   8.009  0.8035 -0.1274 -0.1159
16320WAT      O67084   4.289   1.622   8.549  0.6299 -0.5071 -0.5829
16320WAT     H167085   4.267   1.592   8.637 -1.6920 -0.9650 -1.2518
16320WAT     H267086   4.320   1.544   8.504  3.9893  0.1247  0.3383
16320WAT    EPW67087   4.290   1.608   8.555  0.7668 -0.4842 -0.5498
16321WAT      O67088  -3.197   8.408   5.873 -0.2534  0.5995 -0.2033
16321WAT     H167089  -3.139   8.354   5.926 -1.0664  0.1097  0.2057
16321WAT     H267090  -3.282   8.403   5.917 -0.8918  0.3564 -1.4219
16321WAT    EPW67091  -3.201   8.400   5.886 -0.4449  0.5026 -0.3099
16322WAT      O67092   2.070   4.279   1.287  0.1306  0.2940 -0.3185
16322WAT     H167093   2.005   4.211   1.268  0.0210  0.1661  0.4968
16322WAT     H267094   2.101   4.258   1.375 -0.9632  2.1525  0.5557
16322WAT    EPW67095   2.065   4.267   1.296 -0.0283  0.5224 -0.0957
16323WAT      O67096  -2.257   1.623   4.438 -0.5897 -0.2487  0.2279
16323WAT     H167097  -2.347   1.591   4.430 -0.4626 -0.1043 -4.7526
16323WAT     H267098  -2.265   1.718   4.444 -0.8978 -0.0192 -2.6378
16323WAT    EPW67099  -2.270   1.631   4.438 -0.6136 -0.1994 -0.8070
16324WAT      O67100   2.536   6.275   4.187 -0.1582  0.0017 -0.2896
16324WAT     H167101   2.503   6.206   4.245  0.4950 -0.8621 -0.9069
16324WAT     H267102   2.543   6.352   4.243 -0.8385 -0.4478  0.4396
16324WAT    EPW67103   2.533   6.276   4.202 -0.1618 -0.1717 -0.2749
16325WAT      O67104  -6.297   9.931   8.608  0.3369 -0.1750 -0.4473
16325WAT     H167105  -6.218   9.976   8.637 -1.0557  0.7057  2.3111
16325WAT     H267106  -6.354  10.001   8.574 -0.6064 -0.2184  0.9427
16325WAT    EPW67107  -6.294   9.946   8.607  0.0286 -0.0644  0.0997
16326WAT      O67108   2.417   8.914   7.607  0.2954  0.6849  1.0444
16326WAT     H167109   2.446   8.909   7.516  2.3506 -0.5354  1.6991
16326WAT     H267110   2.428   9.006   7.631  1.9406  0.6042  0.6970
16326WAT    EPW67111   2.422   8.925   7.599  0.7834  0.5136  1.0850
16327WAT      O67112   1.342   9.360   8.917 -0.1047 -0.2845  0.1656
16327WAT     H167113   1.425   9.329   8.953  0.3407  0.2011 -0.4284
16327WAT     H267114   1.297   9.399   8.993  1.0968  1.2976  0.1287
16327WAT    EPW67115   1.347   9.361   8.932  0.1125 -0.0119  0.0820
16328WAT      O67116   5.865   2.205   2.522 -0.0179 -0.9249  0.4506
16328WAT     H167117   5.909   2.209   2.608  0.2216 -1.6502  0.3674
16328WAT     H267118   5.935   2.221   2.459 -0.1364 -0.7193  0.3681
16328WAT    EPW67119   5.880   2.208   2.525 -0.0019 -0.9935  0.4288
16329WAT      O67120  -0.758   1.031   6.748 -0.1185 -0.1273 -0.5620
16329WAT     H167121  -0.739   0.958   6.690 -0.6636 -0.8372  0.1297
16329WAT     H267122  -0.716   1.107   6.707 -1.0703 -0.4680 -2.2309
16329WAT    EPW67123  -0.750   1.032   6.735 -0.3159 -0.2658 -0.6909
16330WAT      O67124   9.258   1.550   1.782 -0.2040 -0.8697 -0.1755
16330WAT     H167125   9.270   1.628   1.728  1.5859 -1.2258 -0.3562
16330WAT     H267126   9.241   1.583   1.870 -0.7951 -0.2959 -0.4973
16330WAT    EPW67127   9.257   1.564   1.786 -0.0458 -0.8410 -0.2418
16331WAT      O67128   6.524   0.179   6.466 -0.7600 -0.5386  0.3489
16331WAT     H167129   6.474   0.116   6.415  0.3061  0.0419 -1.4955
16331WAT     H267130   6.605   0.192   6.416  0.0906  0.4829  1.9135
16331WAT    EPW67131   6.528   0.172   6.453 -0.5071 -0.3273  0.3121
16332WAT      O67132   3.325   2.157   7.489  0.2754  0.2567 -0.1457
16332WAT     H167133   3.383   2.233   7.486 -1.2323  1.4441 -1.3184
16332WAT     H267134   3.372   2.088   7.442  0.7788  1.1689 -1.0133
16332WAT    EPW67135   3.338   2.158   7.482  0.1429  0.5337 -0.4148
16333WAT      O67136  -0.174   4.237   0.774  0.1986  0.2286 -0.7345
16333WAT     H167137  -0.107   4.289   0.730 -1.6924  0.9594 -2.9622
16333WAT     H267138  -0.214   4.186   0.703 -1.8579  0.1373  0.4388
16333WAT    EPW67139  -0.170   4.237   0.759 -0.3221  0.3128 -0.8736
16334WAT      O67140   2.362   2.662   8.216  0.1170  0.0355 -0.1196
16334WAT     H167141   2.349   2.568   8.228 -0.0554 -0.0020 -0.5737
16334WAT     H267142   2.368   2.697   8.305 -2.1601 -0.0738  0.1348
16334WAT    EPW67143   2.362   2.654   8.229 -0.2061  0.0161 -0.1459
16335WAT      O67144   1.231   6.902   8.725 -0.5430  0.5467 -0.2243
16335WAT     H167145   1.280   6.980   8.753 -0.8716  0.7990 -0.3524
16335WAT     H267146   1.183   6.876   8.803 -0.1376  0.2439 -0.0711
16335WAT    EPW67147   1.231   6.909   8.739 -0.5328  0.5400 -0.2213
16336WAT      O67148  -1.402   3.550   3.454 -0.5865  0.6621  0.2529
16336WAT     H167149  -1.320   3.563   3.406  0.4545 -2.0965  1.0888
16336WAT     H267150  -1.383   3.581   3.543 -0.8387  1.0734  0.1649
16336WAT    EPW67151  -1.389   3.555   3.459 -0.4825  0.3525  0.3514
16337WAT      O67152   0.228   9.606   8.499 -0.1305  0.0980  0.2311
16337WAT     H167153   0.247   9.599   8.406  1.9419 -0.0476  0.6294
16337WAT     H267154   0.182   9.525   8.521 -0.8680  0.2513 -0.6861
16337WAT    EPW67155   0.224   9.594   8.490  0.0455  0.0992  0.1626
16338WAT      O67156   4.451   4.664   6.346  0.1883  0.0606  0.2708
16338WAT     H167157   4.470   4.609   6.423 -1.4941 -2.3698 -0.8941
16338WAT     H267158   4.356   4.677   6.350  0.1164  0.1677 -1.1817
16338WAT    EPW67159   4.441   4.658   6.357 -0.0432 -0.2458 -0.0746
16339WAT      O67160   4.072  10.256   0.094 -0.1892 -0.4025  0.0231
16339WAT     H167161   4.049  10.239   0.185 -0.6933  0.0643 -0.0069
16339WAT     H267162   3.996  10.226   0.044 -1.1698  1.8974 -0.0203
16339WAT    EPW67163   4.059  10.250   0.099 -0.3850 -0.0377  0.0134
16340WAT      O67164   2.012   1.311   6.794 -0.1727  0.1757  0.1172
16340WAT     H167165   1.918   1.293   6.800  0.1983 -1.9659  0.2967
16340WAT     H267166   2.054   1.227   6.812  1.7810  0.9706 -0.4364
16340WAT    EPW67167   2.005   1.297   6.797  0.1339 -0.0019  0.0677
16341WAT      O67168   2.021   1.326   0.689 -0.3225 -0.7638 -0.1056
16341WAT     H167169   2.084   1.382   0.643  1.2288 -1.7967  0.7047
16341WAT     H267170   1.967   1.288   0.619 -1.5477  1.7925 -0.6780
16341WAT    EPW67171   2.022   1.329   0.673 -0.2794 -0.5630 -0.0742
16342WAT      O67172  -2.146   6.032   8.573 -0.1881  0.0973  0.4000
16342WAT     H167173  -2.158   6.001   8.663 -0.7992  3.3860  1.5972
16342WAT     H267174  -2.227   6.009   8.528 -0.0431 -1.2054  0.7834
16342WAT    EPW67175  -2.158   6.025   8.579 -0.2495  0.3593  0.6084
16343WAT      O67176   4.873   0.684   5.899 -0.2655  0.2453 -0.3115
16343WAT     H167177   4.846   0.626   5.971 -0.1501 -0.9469 -1.1845
16343WAT     H267178   4.897   0.766   5.941 -2.0062  0.2179  0.8295
16343WAT    EPW67179   4.872   0.687   5.914 -0.4799  0.0845 -0.2761
16344WAT      O67180   5.722   0.997   4.870  0.5429  0.4270  0.3747
16344WAT     H167181   5.793   1.061   4.867 -0.5734  1.6757 -2.3000
16344WAT     H267182   5.663   1.022   4.799 -0.3524 -3.1555 -0.3598
16344WAT    EPW67183   5.723   1.008   4.861  0.2775  0.1192 -0.0746
16345WAT      O67184  -3.197   2.086   5.740 -0.5763  0.1657  0.0329
16345WAT     H167185  -3.134   2.014   5.731 -1.5808 -0.6872 -0.3713
16345WAT     H267186  -3.265   2.066   5.676 -0.2954  2.1307 -0.9306
16345WAT    EPW67187  -3.198   2.074   5.731 -0.6717  0.3123 -0.1473
16346WAT      O67188   4.655   1.997   2.680 -0.4990 -0.8596 -0.0489
16346WAT     H167189   4.683   2.085   2.706 -1.8802  0.0459 -1.4032
16346WAT     H267190   4.696   1.984   2.594 -0.8552 -1.2434 -0.1651
16346WAT    EPW67191   4.664   2.007   2.672 -0.7281 -0.7908 -0.2428
16347WAT      O67192   3.473   5.657   7.946 -0.6555  0.0984  0.2201
16347WAT     H167193   3.390   5.704   7.940 -1.2828 -0.9249  0.7284
16347WAT     H267194   3.492   5.629   7.856  0.6703  2.8254 -0.4710
16347WAT    EPW67195   3.465   5.660   7.934 -0.5634  0.3233  0.1960
16348WAT      O67196   3.029   9.744   4.992  0.4250 -0.7817 -0.8344
16348WAT     H167197   3.084   9.672   4.960  0.3399 -1.4972  0.5520
16348WAT     H267198   3.087   9.792   5.051  0.1687 -0.3095 -0.9680
16348WAT    EPW67199   3.044   9.741   4.995  0.3802 -0.8140 -0.6690
16349WAT      O67200   6.251   8.879   1.151 -0.2159  0.6554  0.5897
16349WAT     H167201   6.206   8.901   1.232  3.0525  1.1718  2.4269
16349WAT     H267202   6.340   8.856   1.178  0.9133  0.4406 -2.8263
16349WAT    EPW67203   6.257   8.878   1.165  0.3643  0.6948  0.3815
16350WAT      O67204  -3.406   9.814   6.462 -0.6091 -0.3924  0.7028
16350WAT     H167205  -3.320   9.781   6.490 -0.1343  0.5206  0.3623
16350WAT     H267206  -3.465   9.740   6.475  0.5587 -1.6742 -0.8301
16350WAT    EPW67207  -3.402   9.800   6.468 -0.3926 -0.4411  0.4556
16351WAT      O67208   2.564   6.179   3.442 -0.2354  0.0086 -0.1823
16351WAT     H167209   2.631   6.130   3.394  0.9954  0.1694  1.2860
16351WAT     H267210   2.509   6.112   3.481 -1.1730 -0.1245 -1.6508
16351WAT    EPW67211   2.566   6.164   3.441 -0.1968  0.0124 -0.1823
16352WAT      O67212  -2.576   1.984   6.034 -0.2433 -0.3748  0.8566
16352WAT     H167213  -2.635   2.058   6.021 -0.6374 -0.7867  0.2429
16352WAT     H267214  -2.538   1.998   6.120 -0.6093  0.3345  0.9094
16352WAT    EPW67215  -2.578   1.996   6.043 -0.3434 -0.3355  0.7825
16353WAT      O67216  -1.466   3.470   4.431 -0.2419 -0.4482  0.0829
16353WAT     H167217  -1.428   3.387   4.403  0.4764 -0.4310  0.9790
16353WAT     H267218  -1.561   3.456   4.425 -0.1343 -1.4702  0.6270
16353WAT    EPW67219  -1.474   3.457   4.426 -0.1329 -0.5808  0.2728
16354WAT      O67220  -3.889   9.592   6.974 -0.3030 -0.1171  0.2983
16354WAT     H167221  -3.904   9.505   7.012 -3.4922 -0.0584 -0.5048
16354WAT     H267222  -3.973   9.614   6.932  0.1834  3.5902  0.9471
16354WAT    EPW67223  -3.902   9.583   6.973 -0.6595  0.3796  0.2780
16355WAT      O67224   7.042   2.577   1.887  0.5183  0.0161 -0.3900
16355WAT     H167225   7.073   2.486   1.890  3.6464  0.9326 -0.8955
16355WAT     H267226   7.007   2.592   1.975 -2.1414 -2.2076 -0.9180
16355WAT    EPW67227   7.042   2.567   1.899  0.5801 -0.1563 -0.5263
16356WAT      O67228  -2.825   8.979   8.213  0.3060  0.5491  0.4498
16356WAT     H167229  -2.805   9.064   8.175  0.5211  1.1152  1.8189
16356WAT     H267230  -2.746   8.953   8.260  0.9969 -1.3605 -1.5673
16356WAT    EPW67231  -2.812   8.987   8.214  0.4255  0.3724  0.3648
16357WAT      O67232   3.993   5.346   5.180  0.0306  0.0329 -0.1910
16357WAT     H167233   4.020   5.260   5.210  1.2942  0.4614 -0.0435
16357WAT     H267234   4.036   5.356   5.095 -1.6249 -0.2287 -1.0854
16357WAT    EPW67235   4.002   5.336   5.173 -0.0210  0.0548 -0.2894
16358WAT      O67236   1.017   7.734   5.435 -0.1614  0.2256 -0.1996
16358WAT     H167237   1.051   7.668   5.495 -2.8796  0.0567  1.3285
16358WAT     H267238   0.969   7.795   5.491 -3.7210 -0.4881 -2.1611
16358WAT    EPW67239   1.015   7.733   5.450 -0.9894  0.1092 -0.2568
16359WAT      O67240  -3.143   0.459   6.556  0.1413  0.1790  0.0825
16359WAT     H167241  -3.200   0.501   6.620 -0.4757  0.2203 -0.4971
16359WAT     H267242  -3.166   0.498   6.472 -0.4120 -1.2578 -0.4665
16359WAT    EPW67243  -3.153   0.470   6.554 -0.0131 -0.0051 -0.0663
16360WAT      O67244   8.804   0.510   2.384 -0.2142 -0.6965  0.6125
16360WAT     H167245   8.835   0.588   2.338 -2.4032 -0.0888  0.0576
16360WAT     H267246   8.709   0.524   2.393 -0.9178 -3.8255 -0.6537
16360WAT    EPW67247   8.795   0.522   2.379 -0.5956 -1.0290  0.3723
16361WAT      O67248  -2.635   6.882   7.631 -0.5715 -0.2891  0.1896
16361WAT     H167249  -2.545   6.867   7.604 -0.5780 -0.5258  0.3009
16361WAT     H267250  -2.649   6.823   7.705 -0.5820  0.3028  0.6628
16361WAT    EPW67251  -2.625   6.872   7.637 -0.5736 -0.2422  0.2666
16362WAT      O67252  -1.330   8.532   8.329  0.6791  0.1940  0.1015
16362WAT     H167253  -1.372   8.446   8.336  3.0736 -1.3228 -2.3705
16362WAT     H267254  -1.400   8.590   8.299 -0.6197 -1.2084  0.2387
16362WAT    EPW67255  -1.345   8.528   8.326  0.8236 -0.1907 -0.2065
16363WAT      O67256   2.489   3.593   2.562  0.0452 -0.5408 -0.4463
16363WAT     H167257   2.555   3.524   2.548  1.5793  0.8989 -0.6804
16363WAT     H267258   2.541   3.672   2.580 -1.6567  0.4944  0.1758
16363WAT    EPW67259   2.505   3.594   2.563  0.0230 -0.2143 -0.3952
16364WAT      O67260   3.241   6.411   7.292 -0.3608  0.5425  1.0353
16364WAT     H167261   3.281   6.329   7.263 -2.3025 -0.2519  0.4489
16364WAT     H267262   3.299   6.442   7.361  1.1379 -0.6323  0.3626
16364WAT    EPW67263   3.254   6.404   7.297 -0.4193  0.2828  0.8693
16365WAT      O67264   2.368   0.591   1.019 -0.0649  0.3300  0.0931
16365WAT     H167265   2.310   0.577   0.944  2.1511 -0.6606 -1.5683
16365WAT     H267266   2.454   0.605   0.980  0.9810  0.9742  2.4555
16365WAT    EPW67267   2.372   0.591   1.004  0.3653  0.2843  0.1855
16366WAT      O67268  -3.202   3.908   8.813 -0.4946  0.1350  0.1547
16366WAT     H167269  -3.176   4.000   8.814 -1.7187  0.4970 -0.3842
16366WAT     H267270  -3.271   3.902   8.879  0.3680 -0.6575  1.0217
16366WAT    EPW67271  -3.208   3.919   8.822 -0.5422  0.0782  0.1979
16367WAT      O67272   5.778   3.570   4.995 -0.0094 -0.4098  1.1218
16367WAT     H167273   5.852   3.546   4.940 -1.6791 -0.2197 -1.3496
16367WAT     H267274   5.708   3.512   4.967 -1.3686  0.7925  1.9362
16367WAT    EPW67275   5.779   3.560   4.984 -0.4089 -0.2261  0.9031
16368WAT      O67276   5.098   4.901   6.288  0.2787  0.8133 -0.2349
16368WAT     H167277   5.173   4.862   6.243  0.9652  1.6038  0.1984
16368WAT     H267278   5.026   4.891   6.227 -0.1915 -3.1905  0.7017
16368WAT    EPW67279   5.099   4.895   6.274  0.3073  0.3893 -0.0544
16369WAT      O67280  -3.637   7.313   3.333  1.1491 -0.3020 -0.7075
16369WAT     H167281  -3.702   7.260   3.380  2.0292  0.6920  1.8071
16369WAT     H267282  -3.630   7.270   3.248 -2.6515 -0.5400 -1.1064
16369WAT    EPW67283  -3.645   7.300   3.328  0.7639 -0.2022 -0.4284
16370WAT      O67284   3.785   8.173   6.847 -0.7809  0.2838 -0.0726
16370WAT     H167285   3.823   8.213   6.925  0.6151 -0.3277 -0.4070
16370WAT     H267286   3.731   8.101   6.881 -2.2456  1.5713  0.4430
16370WAT    EPW67287   3.783   8.169   6.862 -0.7900  0.3729 -0.0486
16371WAT      O67288   3.263   7.310   5.825  0.1253 -0.9300 -0.2287
16371WAT     H167289   3.187   7.280   5.775 -2.8228 -1.3497  3.9490
16371WAT     H267290   3.324   7.236   5.822 -0.8150 -1.7020 -1.5415
16371WAT    EPW67291   3.261   7.296   5.818 -0.3874 -1.0870  0.1493
16372WAT      O67292   4.744   1.174   1.884 -0.4422  0.4279  0.9506
16372WAT     H167293   4.803   1.165   1.809 -0.0650  1.6684  1.0748
16372WAT     H267294   4.767   1.259   1.922  0.3368 -0.7822  3.3295
16372WAT    EPW67295   4.755   1.184   1.879 -0.2897  0.4318  1.2807
16373WAT      O67296   0.297   5.589   2.297  0.8330  0.4477 -0.3836
16373WAT     H167297   0.290   5.637   2.379 -1.4447 -0.7862  0.2558
16373WAT     H267298   0.331   5.503   2.322  1.5909  0.5554 -0.9882
16373WAT    EPW67299   0.300   5.584   2.311  0.6326  0.2990 -0.3791
16374WAT      O67300   3.104   3.664   7.214  0.1903 -0.0845  0.2515
16374WAT     H167301   3.099   3.622   7.128  1.5748  1.7203 -0.8015
16374WAT     H267302   3.121   3.593   7.275  0.3416 -1.2897 -1.1410
16374WAT    EPW67303   3.105   3.649   7.210  0.3928 -0.0055 -0.0710
16375WAT      O67304   5.767   0.730   1.293 -1.0484 -0.0519 -0.1295
16375WAT     H167305   5.829   0.666   1.259 -0.3218  1.0114 -0.8567
16375WAT     H267306   5.766   0.714   1.388 -0.5405 -0.8424 -0.2514
16375WAT    EPW67307   5.775   0.720   1.301 -0.8855 -0.0159 -0.2415
16376WAT      O67308   1.214   3.489   3.671  0.0650 -0.1552 -0.3814
16376WAT     H167309   1.247   3.463   3.584  0.4647 -0.4879 -0.1322
16376WAT     H267310   1.228   3.583   3.675  1.1136 -0.3037 -0.2321
16376WAT    EPW67311   1.220   3.498   3.660  0.2560 -0.2187 -0.3288
16377WAT      O67312   5.551   0.055   5.939  0.8918 -0.3855 -0.0623
16377WAT     H167313   5.567  -0.018   5.879 -1.9466  0.3779 -1.9221
16377WAT     H267314   5.500   0.016   6.010  0.3494 -0.4304 -0.4746
16377WAT    EPW67315   5.547   0.040   5.940  0.4456 -0.2908 -0.3619
16378WAT      O67316   4.581   5.960   1.656  0.1652  0.3885  0.5955
16378WAT     H167317   4.568   6.031   1.593  1.9025 -0.6375 -1.0150
16378WAT     H267318   4.662   5.983   1.702  0.5099 -0.3138  0.3570
16378WAT    EPW67319   4.590   5.972   1.654  0.4396  0.1607  0.3517
16379WAT      O67320  -6.061   8.437   5.137  0.1624 -0.0439  0.5190
16379WAT     H167321  -6.128   8.393   5.190 -0.4924  0.1768 -0.1056
16379WAT     H267322  -6.004   8.478   5.201 -0.0588 -0.5873  1.0775
16379WAT    EPW67323  -6.062   8.437   5.152  0.0467 -0.0863  0.5102
16380WAT      O67324  -2.372   7.693   6.753  0.5712 -0.0046  0.0301
16380WAT     H167325  -2.441   7.739   6.801  0.2797 -0.4091  0.0021
16380WAT     H267326  -2.350   7.752   6.681 -0.4594 -0.3232 -0.5505
16380WAT    EPW67327  -2.378   7.707   6.750  0.3967 -0.0999 -0.0503
16381WAT      O67328   1.586  10.246   2.070  0.0828 -0.1954  0.1546
16381WAT     H167329   1.587  10.335   2.104  0.8935 -0.3475  0.5377
16381WAT     H267330   1.503  10.240   2.022  0.2941  0.9383 -0.3692
16381WAT    EPW67331   1.575  10.257   2.068  0.2176 -0.0663  0.1360
16382WAT      O67332   6.207   1.157   3.937 -0.1668  0.2260  0.8737
16382WAT     H167333   6.212   1.078   3.991 -0.1892 -0.8483 -0.6006
16382WAT     H267334   6.293   1.197   3.945  0.1370 -0.4312  0.9880
16382WAT    EPW67335   6.219   1.152   3.945 -0.1297 -0.0024  0.6944
16383WAT      O67336   6.297   4.706   2.199  0.3759  0.1314  0.0894
16383WAT     H167337   6.276   4.648   2.273  1.2360  2.1767  2.0519
16383WAT     H267338   6.213   4.738   2.169  0.0566  2.0347  2.6364
16383WAT    EPW67339   6.283   4.702   2.205  0.4473  0.6521  0.6841
16384WAT      O67340  -0.055   8.058   7.604 -0.1777 -0.6965 -0.1128
16384WAT     H167341  -0.144   8.070   7.571 -0.0244 -2.2477 -1.2033
16384WAT     H267342  -0.061   8.075   7.698 -1.1733  1.2713 -0.4749
16384WAT    EPW67343  -0.068   8.062   7.612 -0.2888 -0.6418 -0.3042
16385WAT      O67344   2.282   4.247   3.461  0.8401 -0.0770 -0.2931
16385WAT     H167345   2.320   4.163   3.488  0.8936 -0.6318 -1.9515
16385WAT     H267346   2.262   4.235   3.368 -1.6722  0.8068  0.0387
16385WAT    EPW67347   2.284   4.234   3.452  0.5158 -0.0336 -0.4680
16386WAT      O67348   5.846   2.199   3.031 -1.3607  0.1419 -1.1214
16386WAT     H167349   5.866   2.194   3.125 -1.0749  0.1631 -1.1826
16386WAT     H267350   5.896   2.274   3.000  1.8781 -2.2473 -2.1488
16386WAT    EPW67351   5.855   2.208   3.039 -0.8957 -0.1704 -1.2650
16387WAT      O67352  -2.512   6.644   0.839  0.9063 -0.3218  0.0821
16387WAT     H167353  -2.480   6.724   0.798  1.1891  0.1665  1.2175
16387WAT     H267354  -2.503   6.577   0.772 -0.8539  0.8865 -1.4479
16387WAT    EPW67355  -2.507   6.646   0.825  0.7114 -0.0978  0.0300
16388WAT      O67356  -2.563   7.628   5.442  0.1803 -0.2803 -0.8685
16388WAT     H167357  -2.468   7.616   5.436  0.2604  0.5267 -1.3544
16388WAT     H267358  -2.574   7.701   5.503 -0.1491 -0.5629 -0.5825
16388WAT    EPW67359  -2.552   7.636   5.449  0.1475 -0.2110 -0.8948
16389WAT      O67360   9.127   0.553   0.741 -0.1207  0.6842  0.8826
16389WAT     H167361   9.203   0.495   0.740  1.3517  2.5285 -0.6000
16389WAT     H267362   9.055   0.499   0.707  0.2856 -1.2865  2.9182
16389WAT    EPW67363   9.127   0.538   0.736  0.1268  0.6675  0.9556
16390WAT      O67364  -3.547   2.599   5.534 -0.4047  0.3129 -0.0196
16390WAT     H167365  -3.617   2.643   5.582  0.3676  1.9453 -0.3421
16390WAT     H267366  -3.490   2.669   5.503  2.3420 -0.9903  1.6526
16390WAT    EPW67367  -3.549   2.614   5.537  0.0595  0.3563  0.1583
16391WAT      O67368  -3.374   1.338   4.834 -0.2172 -0.3729 -0.1712
16391WAT     H167369  -3.435   1.367   4.902  1.5086 -0.6309  1.5470
16391WAT     H267370  -3.359   1.246   4.853 -0.8589 -0.8669 -1.8558
16391WAT    EPW67371  -3.380   1.330   4.846 -0.0741 -0.4721 -0.1667
16392WAT      O67372   4.733   8.826   4.177 -1.1790 -0.3262 -0.1600
16392WAT     H167373   4.710   8.910   4.139 -0.3525  0.6965  1.4646
16392WAT     H267374   4.649   8.785   4.199 -1.6795 -1.0065 -3.0335
16392WAT    EPW67375   4.719   8.832   4.175 -1.1358 -0.2813 -0.3247
16393WAT      O67376   5.284   2.384   1.408 -0.1273 -0.5168 -0.0400
16393WAT     H167377   5.273   2.479   1.400  1.6592 -0.3094 -0.3218
16393WAT     H267378   5.315   2.371   1.498  0.2241 -0.7793 -0.1986
16393WAT    EPW67379   5.286   2.395   1.419  0.1545 -0.5240 -0.0980
16394WAT      O67380   3.921   2.242   5.147  0.3705  0.4917  0.4832
16394WAT     H167381   3.872   2.320   5.172  2.0390  1.7440 -0.0096
16394WAT     H267382   3.963   2.213   5.228 -1.2795 -0.7477  0.9708
16394WAT    EPW67383   3.920   2.248   5.161  0.3730  0.4934  0.4826
16395WAT      O67384   1.752   3.087   7.312  0.3554 -0.8196 -0.3313
16395WAT     H167385   1.798   3.162   7.273 -0.8679 -0.9232 -2.1186
16395WAT     H267386   1.666   3.121   7.335  0.2858 -1.3428  0.2010
16395WAT    EPW67387   1.747   3.101   7.310  0.1849 -0.9023 -0.4969
16396WAT      O67388   2.581   2.671   6.475  0.6093  0.4198  0.0368
16396WAT     H167389   2.623   2.628   6.401  1.2709  0.4350  0.3985
16396WAT     H267390   2.601   2.764   6.463 -0.1481  0.5427 -0.3152
16396WAT    EPW67391   2.589   2.677   6.464  0.5968  0.4380  0.0379
16397WAT      O67392   9.488   0.966   0.026  0.0573  0.4954  0.3458
16397WAT     H167393   9.492   1.002  -0.062 -0.3737 -2.5983 -1.0517
16397WAT     H267394   9.397   0.939   0.037  0.5289 -0.9927  0.9018
16397WAT    EPW67395   9.476   0.967   0.016  0.0627 -0.1090  0.2351
16398WAT      O67396   0.731   2.728   5.304 -1.0349  0.0540  0.3389
16398WAT     H167397   0.739   2.786   5.380 -0.7257  0.8941 -0.3178
16398WAT     H267398   0.745   2.785   5.229 -1.7209 -0.6936 -0.3748
16398WAT    EPW67399   0.734   2.743   5.304 -1.0846  0.0662  0.1583
16399WAT      O67400  -2.833   8.322   3.693  0.2008  0.1537  0.4143
16399WAT     H167401  -2.878   8.250   3.738 -0.4205  0.6110  0.5425
16399WAT     H267402  -2.740   8.301   3.701  0.0091 -1.0441 -0.2348
16399WAT    EPW67403  -2.827   8.310   3.700  0.0936  0.0563  0.3456
16400WAT      O67404   5.358  10.066   0.211 -0.1406 -0.4051  0.2312
16400WAT     H167405   5.304  10.120   0.269  2.3861  0.2446  2.1430
16400WAT     H267406   5.338   9.976   0.237 -1.9772 -0.3181 -0.7338
16400WAT    EPW67407   5.348  10.061   0.222 -0.0494 -0.3080  0.3561
16401WAT      O67408   1.625   6.731   3.299 -0.1852 -0.1654 -0.5154
16401WAT     H167409   1.545   6.695   3.258  0.0590 -0.5748 -0.6434
16401WAT     H267410   1.666   6.783   3.229 -0.4978  0.3015 -0.3548
16401WAT    EPW67411   1.619   6.733   3.284 -0.1943 -0.1578 -0.5112
16402WAT      O67412  -2.546  10.105   8.520 -0.2574  1.0831 -0.0886
16402WAT     H167413  -2.577  10.015   8.514 -0.4423  0.8274  3.0141
16402WAT     H267414  -2.620  10.158   8.490  0.2045  0.2871 -2.9287
16402WAT    EPW67415  -2.560  10.100   8.515 -0.2209  0.9446 -0.0539
16403WAT      O67416  -4.746   6.734   5.977 -0.0284  0.4108  0.1198
16403WAT     H167417  -4.802   6.661   6.005 -0.3268  0.0206 -1.4319
16403WAT     H267418  -4.789   6.811   6.014 -1.7486  0.1387 -1.1919
16403WAT    EPW67419  -4.759   6.735   5.986 -0.2947  0.3235 -0.2577
16404WAT      O67420   6.070   5.554   4.733 -0.1375 -0.1363 -0.7055
16404WAT     H167421   6.094   5.541   4.825 -1.5073  1.6396 -0.0333
16404WAT     H267422   5.980   5.522   4.727  0.3923 -1.5081 -1.7994
16404WAT    EPW67423   6.061   5.548   4.745 -0.2482 -0.0832 -0.7610
16405WAT      O67424  -0.934   3.475   3.472  0.6466  0.2615 -0.7208
16405WAT     H167425  -0.995   3.456   3.543  0.8129  0.0920 -0.6248
16405WAT     H267426  -0.872   3.402   3.473  1.6624  1.1168  0.0516
16405WAT    EPW67427  -0.934   3.463   3.481  0.8025  0.3519 -0.6062
16406WAT      O67428   6.232   1.994   0.237 -0.2147  0.1783 -0.5180
16406WAT     H167429   6.212   1.987   0.144 -1.4960  0.2702 -0.2662
16406WAT     H267430   6.325   2.015   0.240 -0.0880 -0.1422 -1.7642
16406WAT    EPW67431   6.242   1.996   0.226 -0.3672  0.1481 -0.6492
16407WAT      O67432  -4.612   8.481   3.255 -0.2681 -0.3252  0.2731
16407WAT     H167433  -4.581   8.436   3.334  1.2776  2.3924  1.3586
16407WAT     H267434  -4.681   8.539   3.287 -1.6348 -1.2210 -0.9382
16407WAT    EPW67435  -4.617   8.482   3.270 -0.2444 -0.0849  0.2565
16408WAT      O67436  -0.999   0.194   8.378  0.0198 -0.5105 -0.1975
16408WAT     H167437  -1.040   0.249   8.311  1.1046  1.3732  0.6227
16408WAT     H267438  -0.926   0.152   8.333 -1.5862 -2.4211 -1.1763
16408WAT    EPW67439  -0.995   0.196   8.363 -0.0489 -0.5141 -0.2184
16409WAT      O67440   4.235   6.597   1.221  0.4349  0.2334  0.0817
16409WAT     H167441   4.214   6.570   1.311  0.1794  0.0476 -0.0306
16409WAT     H267442   4.268   6.686   1.230  1.3956 -0.1469  0.4733
16409WAT    EPW67443   4.236   6.605   1.234  0.5279  0.1588  0.1186
16410WAT      O67444  -1.846   8.927   7.961 -0.0853 -0.6792 -0.9757
16410WAT     H167445  -1.752   8.924   7.945 -0.1684 -0.5468 -1.5126
16410WAT     H267446  -1.865   9.020   7.975  0.4078 -0.9842  2.6569
16410WAT    EPW67447  -1.836   8.939   7.961 -0.0312 -0.7014 -0.5674
16411WAT      O67448  -0.387   3.518   1.200 -0.6068 -0.3976  0.2501
16411WAT     H167449  -0.323   3.588   1.220  0.5629 -1.0793 -0.9570
16411WAT     H267450  -0.341   3.437   1.222 -2.2414 -0.8320  2.4125
16411WAT    EPW67451  -0.372   3.517   1.206 -0.6682 -0.5448  0.3762
16412WAT      O67452  -5.691   9.189   4.049 -0.0745  0.0085 -0.1709
16412WAT     H167453  -5.783   9.184   4.075  0.3027 -1.8890  0.9982
16412WAT     H267454  -5.645   9.218   4.129  0.6236 -1.6905  0.0761
16412WAT    EPW67455  -5.697   9.192   4.063  0.0675 -0.4654  0.0160
16413WAT      O67456  -1.942   4.019   4.704  0.6665 -0.0773  0.2360
16413WAT     H167457  -1.953   4.097   4.758  2.8177  0.6007 -0.1889
16413WAT     H267458  -1.924   4.053   4.616  0.0358 -1.0935 -0.3014
16413WAT    EPW67459  -1.941   4.034   4.699  0.8671 -0.1218  0.1092
16414WAT      O67460   2.322   7.040   6.683 -0.3631 -0.7862  0.1270
16414WAT     H167461   2.235   7.011   6.657 -0.1984 -1.6325  0.5121
16414WAT     H267462   2.381   7.001   6.619 -0.3137  0.3517 -0.5505
16414WAT    EPW67463   2.319   7.031   6.671 -0.3350 -0.7477  0.0885
16415WAT      O67464  -2.520   9.178   4.990  0.1870 -0.3591  0.3671
16415WAT     H167465  -2.592   9.146   4.935  0.0613 -1.4266  1.1248
16415WAT     H267466  -2.492   9.101   5.039  3.1483 -0.4778 -1.2918
16415WAT    EPW67467  -2.526   9.163   4.989  0.5610 -0.5155  0.2482
16416WAT      O67468   1.558   7.024   0.493 -0.1011  0.0459  0.1974
16416WAT     H167469   1.519   6.939   0.513 -1.1227  0.5132  0.2422
16416WAT     H267470   1.487   7.074   0.454  0.4626  0.9318  0.2846
16416WAT    EPW67471   1.544   7.019   0.490 -0.1615  0.2244  0.2148
16417WAT      O67472   2.843   9.930   3.093  0.0047 -0.6610 -0.1892
16417WAT     H167473   2.810   9.901   3.008 -2.4584 -0.1236  0.4948
16417WAT     H267474   2.893  10.009   3.074 -0.2737 -0.7088 -1.1826
16417WAT    EPW67475   2.845   9.937   3.079 -0.3569 -0.5965 -0.2301
16418WAT      O67476  -1.341   9.865   5.536  0.3613 -0.1797 -0.7724
16418WAT     H167477  -1.275   9.923   5.499 -0.2672  1.2036  0.1625
16418WAT     H267478  -1.309   9.777   5.517  1.6702  0.4546 -1.6937
16418WAT    EPW67479  -1.328   9.861   5.529  0.4511  0.0863 -0.7706
16419WAT      O67480  -2.966   9.719   1.911 -0.4176 -0.2270  0.1106
16419WAT     H167481  -3.057   9.711   1.884 -0.3648  1.4232 -0.7272
16419WAT     H267482  -2.931   9.630   1.904 -1.4515 -0.5613 -1.5353
16419WAT    EPW67483  -2.973   9.706   1.906 -0.5469 -0.0534 -0.2170
16420WAT      O67484   2.502   3.602   0.590  0.4302 -0.4884  0.5149
16420WAT     H167485   2.427   3.544   0.605  0.1726  0.1741  1.9378
16420WAT     H267486   2.528   3.584   0.500 -0.6628 -1.6266  0.3945
16420WAT    EPW67487   2.496   3.592   0.580  0.2520 -0.5511  0.6867
16421WAT      O67488   2.084   1.308   3.626 -0.1830  0.3358  0.0853
16421WAT     H167489   2.167   1.261   3.631 -0.1015  0.6064  2.2575
16421WAT     H267490   2.107   1.400   3.637 -0.5296  0.7543 -2.2376
16421WAT    EPW67491   2.098   1.314   3.628 -0.2180  0.4267  0.0654
16422WAT      O67492   4.335   1.997   5.536  0.3454  0.5476 -0.4499
16422WAT     H167493   4.271   2.032   5.474 -2.0163  0.5087  1.7575
16422WAT     H267494   4.366   2.073   5.583  1.3751  0.4755 -0.9948
16422WAT    EPW67495   4.330   2.011   5.534  0.1698  0.5330 -0.2308
16423WAT      O67496  -0.510   6.337   7.347  0.0160 -0.0580 -0.2125
16423WAT     H167497  -0.532   6.330   7.254  0.6256 -0.2544 -0.3436
16423WAT     H267498  -0.567   6.406   7.380  0.6293  0.8275 -0.9836
16423WAT    EPW67499  -0.520   6.345   7.339  0.1773  0.0329 -0.3314
16424WAT      O67500  -0.960   3.061   7.205  0.2806 -0.2969  0.2578
16424WAT     H167501  -0.957   2.967   7.192 -0.9815 -0.5609  1.6646
16424WAT     H267502  -0.937   3.074   7.297 -1.8688  0.5329  0.7423
16424WAT    EPW67503  -0.956   3.051   7.215 -0.1694 -0.2222  0.5071
16425WAT      O67504   1.415   8.172   5.751 -0.0246  0.3469  0.2157
16425WAT     H167505   1.409   8.261   5.716  4.5479  0.2160 -1.7098
16425WAT     H267506   1.362   8.119   5.692  0.6086  1.3091 -1.2814
16425WAT    EPW67507   1.408   8.177   5.739  0.6620  0.4563 -0.2360
16426WAT      O67508   8.704   4.462   0.168 -0.1456 -0.1091 -0.3724
16426WAT     H167509   8.659   4.504   0.242  0.0871 -1.8392  0.8307
16426WAT     H267510   8.787   4.431   0.205  0.4951 -0.0108 -1.6697
16426WAT    EPW67511   8.709   4.463   0.183 -0.0305 -0.3242 -0.3848
16427WAT      O67512  -2.869   9.742   2.196  0.4414 -0.5474 -0.4801
16427WAT     H167513  -2.830   9.665   2.236  0.2961 -0.3740  0.0115
16427WAT     H267514  -2.882   9.718   2.104  3.8773  0.2077 -1.2823
16427WAT    EPW67515  -2.866   9.729   2.189  0.8755 -0.4249 -0.5211
16428WAT      O67516   1.638   1.085   6.383 -0.8364 -0.1755 -0.2812
16428WAT     H167517   1.595   1.016   6.433 -0.0102 -1.1471 -0.8560
16428WAT     H267518   1.731   1.073   6.401 -0.6354  0.3488 -0.9224
16428WAT    EPW67519   1.645   1.074   6.392 -0.7009 -0.2345 -0.4416
16429WAT      O67520   3.436   7.682   7.882  0.2926  0.4241 -0.3643
16429WAT     H167521   3.454   7.645   7.796 -1.7404  1.6094 -1.3407
16429WAT     H267522   3.500   7.639   7.939  0.9019 -1.2909 -2.2115
16429WAT    EPW67523   3.447   7.671   7.878  0.1049  0.3543 -0.7367
16430WAT      O67524  -1.156   7.346   5.121 -0.9280 -0.1892  0.5621
16430WAT     H167525  -1.069   7.332   5.158 -0.9906  0.0369  0.7988
16430WAT     H267526  -1.193   7.418   5.173 -0.6753  0.7608 -0.5175
16430WAT    EPW67527  -1.149   7.354   5.132 -0.9030 -0.0341  0.4511
16431WAT      O67528   0.258   5.543   4.419  0.1653  0.0687  0.3132
16431WAT     H167529   0.248   5.526   4.326  0.0509 -2.7713  0.7685
16431WAT     H267530   0.336   5.599   4.425  1.1929 -1.0824 -1.3969
16431WAT    EPW67531   0.267   5.548   4.408  0.2857 -0.4578  0.1476
16432WAT      O67532   5.591   0.725   2.282 -0.4254  0.0257 -0.3745
16432WAT     H167533   5.668   0.758   2.329  0.3051 -1.7160 -0.2865
16432WAT     H267534   5.611   0.741   2.190 -0.8420  1.3262 -0.2659
16432WAT    EPW67535   5.604   0.732   2.276 -0.3841 -0.0325 -0.3484
16433WAT      O67536  -7.367   7.378   8.530  0.0271  0.5968  0.0243
16433WAT     H167537  -7.275   7.379   8.556  0.2338 -0.0003 -0.6510
16433WAT     H267538  -7.415   7.398   8.611  0.6304 -1.4878  0.9748
16433WAT    EPW67539  -7.361   7.381   8.544  0.1340  0.2429  0.0606
16434WAT      O67540  -5.733   5.848   7.804  0.6877  0.4404 -0.4096
16434WAT     H167541  -5.722   5.817   7.714  0.1757 -0.2283 -0.2577
16434WAT     H267542  -5.805   5.911   7.799  3.4525  3.8296 -1.1837
16434WAT    EPW67543  -5.741   5.852   7.792  0.9849  0.7992 -0.4919
16435WAT      O67544   2.757   5.589   0.481  0.1616 -0.0886 -0.3675
16435WAT     H167545   2.759   5.651   0.554  1.6302  1.5199 -1.7082
16435WAT     H267546   2.676   5.609   0.435  0.3941  0.5186 -0.5212
16435WAT    EPW67547   2.747   5.600   0.485  0.3859  0.2036 -0.5646
16436WAT      O67548   0.477   4.554   8.771  0.2202  0.3266 -0.4114
16436WAT     H167549   0.484   4.649   8.756 -0.3327  0.4629  0.1574
16436WAT     H267550   0.432   4.521   8.693 -0.9559  0.7555  0.0715
16436WAT    EPW67551   0.472   4.562   8.758 -0.0078  0.4010 -0.2723
16437WAT      O67552  -3.748   9.989   7.688  0.0576 -0.3547 -0.2305
16437WAT     H167553  -3.657   9.963   7.702  0.1062  1.3147  3.7948
16437WAT     H267554  -3.750  10.022   7.598  2.7288 -2.7851 -1.3408
16437WAT    EPW67555  -3.737   9.990   7.678  0.4163 -0.4554  0.1543
16438WAT      O67556   1.980   9.992   1.436  0.4345  0.4607  1.2282
16438WAT     H167557   2.010  10.010   1.525 -1.8966 -0.6915  2.3490
16438WAT     H267558   1.914  10.059   1.418  0.7303  0.5554  0.4389
16438WAT    EPW67559   1.975  10.003   1.445  0.1661  0.3214  1.2719
16439WAT      O67560   6.613   1.620   4.325  0.3413 -0.3552 -0.7371
16439WAT     H167561   6.570   1.585   4.247 -0.8915 -1.9227  0.5953
16439WAT     H267562   6.636   1.543   4.377 -0.1566  0.6906  1.1150
16439WAT    EPW67563   6.611   1.605   4.321  0.1132 -0.4240 -0.3171
16440WAT      O67564   1.787   4.561   5.650 -0.2838 -0.2572  0.2593
16440WAT     H167565   1.692   4.564   5.646 -0.4137 -2.3709  0.6224
16440WAT     H267566   1.806   4.488   5.708  1.5800  0.3409  0.4705
16440WAT    EPW67567   1.777   4.552   5.658 -0.0551 -0.4570  0.3350
16441WAT      O67568   4.593   7.395   2.421  0.2654  0.2388 -0.0329
16441WAT     H167569   4.510   7.387   2.373 -0.6291 -0.9941  1.5971
16441WAT     H267570   4.586   7.329   2.490  2.1247  0.9319  0.8616
16441WAT    EPW67571   4.581   7.385   2.424  0.3927  0.1676  0.3000
16442WAT      O67572  -4.618   6.320   4.134  0.0126 -0.0521  0.1250
16442WAT     H167573  -4.606   6.381   4.062  0.9270 -1.2902 -0.8273
16442WAT     H267574  -4.602   6.372   4.213 -0.0693  1.1123 -0.6038
16442WAT    EPW67575  -4.614   6.335   4.135  0.1225 -0.0618 -0.0968
16443WAT      O67576  -4.684   6.236   5.239 -0.6309 -0.3493 -0.1315
16443WAT     H167577  -4.702   6.251   5.147 -2.2279  2.0652  0.4755
16443WAT     H267578  -4.640   6.151   5.242  1.0631  0.3015 -3.2354
16443WAT    EPW67579  -4.681   6.227   5.227 -0.6180  0.0551 -0.4611
16444WAT      O67580  -5.586   7.142   5.256  0.8426  0.1455 -0.8359
16444WAT     H167581  -5.522   7.207   5.226  0.7935  0.2866 -0.6363
16444WAT     H267582  -5.547   7.104   5.334  1.2862 -0.7204 -1.4620
16444WAT    EPW67583  -5.572   7.145   5.262  0.8948  0.0501 -0.8922
16445WAT      O67584   6.424   0.464   4.198  0.0842  0.2941 -0.0441
16445WAT     H167585   6.372   0.544   4.211 -1.6827 -0.6660 -0.8457
16445WAT     H267586   6.509   0.484   4.237 -0.8186  2.0030  1.1808
16445WAT    EPW67587   6.429   0.477   4.205 -0.2680  0.3929  0.0117
16446WAT      O67588   7.253   0.133   3.289  0.0779  0.0435  0.0600
16446WAT     H167589   7.198   0.088   3.225 -0.6594  1.5693 -0.4065
16446WAT     H267590   7.325   0.169   3.237 -0.1306  0.6660  0.2036
16446WAT    EPW67591   7.255   0.132   3.274 -0.0467  0.3269  0.0174
16447WAT      O67592   5.048   1.649   2.783 -0.1412  0.2036  0.3778
16447WAT     H167593   5.089   1.688   2.705  0.9790 -1.3273  0.1534
16447WAT     H267594   4.955   1.645   2.761 -0.0334  1.0214 -0.3248
16447WAT    EPW67595   5.041   1.654   2.770  0.0207  0.1096  0.2555
16448WAT      O67596  -0.555   3.061   7.783  0.0258  0.8389  0.5382
16448WAT     H167597  -0.562   3.156   7.782 -0.8783  0.7774  0.2102
16448WAT     H267598  -0.473   3.043   7.830  0.6184  1.7892 -0.1048
16448WAT    EPW67599  -0.545   3.071   7.789 -0.0153  0.9562  0.4101
16449WAT      O67600   7.322   0.041   2.485  0.3693  0.5398 -0.6794
16449WAT     H167601   7.226   0.046   2.484  0.2425 -1.3044 -1.9178
16449WAT     H267602   7.344   0.005   2.570 -0.0099  1.1103 -0.3319
16449WAT    EPW67603   7.312   0.037   2.496  0.3026  0.3719 -0.7969
16450WAT      O67604   0.122   2.289   3.527  0.6098 -0.1993 -0.2248
16450WAT     H167605   0.094   2.242   3.606  3.0533 -1.3585  0.0345
16450WAT     H267606   0.080   2.243   3.455  1.3608 -1.5419  0.1710
16450WAT    EPW67607   0.113   2.277   3.528  1.0311 -0.5293 -0.1384
16451WAT      O67608  -5.570   0.908   8.664 -0.1442  0.2443  0.5496
16451WAT     H167609  -5.662   0.911   8.639 -0.0611 -0.7675  0.1057
16451WAT     H267610  -5.531   0.843   8.606  0.7886  0.4461  0.9354
16451WAT    EPW67611  -5.577   0.900   8.653 -0.0103  0.1375  0.5422
16452WAT      O67612   3.467   7.146   6.076  0.7122 -0.4166  0.5203
16452WAT     H167613   3.399   7.213   6.068 -1.7704 -2.7895  0.5323
16452WAT     H267614   3.492   7.127   5.985 -0.3460 -1.1559  0.3755
16452WAT    EPW67615   3.461   7.153   6.063  0.2451 -0.8268  0.5026
16453WAT      O67616   0.252   4.384   2.670 -0.6213 -0.2078  0.7263
16453WAT     H167617   0.223   4.303   2.629 -1.4286 -1.5520  3.6411
16453WAT     H267618   0.328   4.412   2.619 -0.8820 -2.2969 -0.9200
16453WAT    EPW67619   0.258   4.377   2.658 -0.7621 -0.6607  0.8937
16454WAT      O67620   7.674   3.740   0.347  0.6866 -0.0918  0.2163
16454WAT     H167621   7.625   3.787   0.414  0.1794  2.4324 -1.7862
16454WAT     H267622   7.761   3.728   0.384  0.6487  1.9365  1.0804
16454WAT    EPW67623   7.679   3.744   0.360  0.6146  0.5087  0.0662
16455WAT      O67624  -3.111   7.814   5.939  0.0681  0.0721 -0.1841
16455WAT     H167625  -3.178   7.868   5.896  0.4005 -0.2613 -1.1500
16455WAT     H267626  -3.123   7.727   5.901 -0.9925 -0.7749  1.9513
16455WAT    EPW67627  -3.121   7.810   5.928 -0.0279 -0.0834 -0.0298
16456WAT      O67628  10.089   0.190   0.788  0.4022 -0.0513  0.1998
16456WAT     H167629  10.178   0.190   0.824  0.5419  0.3418 -0.1399
16456WAT     H267630  10.090   0.259   0.723 -0.6497  1.1493  1.4101
16456WAT    EPW67631  10.101   0.199   0.784  0.2823  0.1589  0.3146
16457WAT      O67632  -0.275   7.535   2.020 -0.8530  0.3923  0.0892
16457WAT     H167633  -0.371   7.533   2.023 -0.8829 -0.0308 -0.7096
16457WAT     H267634  -0.251   7.448   1.987 -0.2592  0.8722 -0.7920
16457WAT    EPW67635  -0.285   7.523   2.016 -0.7786  0.3998 -0.1323
16458WAT      O67636  -2.497   1.160   4.342 -0.7886  0.1731  0.1597
16458WAT     H167637  -2.510   1.078   4.293 -0.6898 -0.0116  0.4371
16458WAT     H267638  -2.543   1.226   4.290 -0.7658 -0.0347 -0.1330
16458WAT    EPW67639  -2.505   1.158   4.328 -0.7727  0.1214  0.1576
16459WAT      O67640   1.387  10.260   0.578  0.1246 -0.7912  0.4156
16459WAT     H167641   1.383  10.353   0.554 -1.6900 -0.2779  2.4174
16459WAT     H267642   1.480  10.245   0.595  0.3381  0.9916  1.1299
16459WAT    EPW67643   1.399  10.270   0.577 -0.0866 -0.4883  0.7739
16460WAT      O67644   2.290   5.660   3.680  0.5323 -0.7647 -0.4869
16460WAT     H167645   2.329   5.607   3.610  2.2331  0.5534 -0.5973
16460WAT     H267646   2.351   5.734   3.691 -0.4522 -0.1746  1.3906
16460WAT    EPW67647   2.303   5.663   3.672  0.6269 -0.5131 -0.2538
16461WAT      O67648   2.658   0.815   2.471 -0.2897 -0.0723  0.4343
16461WAT     H167649   2.666   0.829   2.565  1.0881  2.0792  0.0622
16461WAT     H267650   2.576   0.859   2.448 -0.5551 -0.4783  0.5836
16461WAT    EPW67651   2.648   0.822   2.480 -0.1429  0.1579  0.4048
16462WAT      O67652   2.042   2.398   4.947  0.1854 -0.4777  0.4357
16462WAT     H167653   2.042   2.446   5.030  1.2464 -1.2577  0.8958
16462WAT     H267654   2.130   2.362   4.940  0.5760  0.7454 -1.7232
16462WAT    EPW67655   2.054   2.400   4.957  0.3769 -0.4193  0.2117
16463WAT      O67656   1.196   9.454   4.776 -0.0423 -0.1420  0.2021
16463WAT     H167657   1.158   9.510   4.709  1.1042 -0.9950 -1.1937
16463WAT     H267658   1.241   9.385   4.728  0.7846 -0.8059  1.8508
16463WAT    EPW67659   1.197   9.452   4.761  0.2180 -0.3419  0.2356
16464WAT      O67660   2.404   5.575   1.409  0.4140 -0.0439  0.0049
16464WAT     H167661   2.414   5.589   1.503 -1.4440 -0.2683  0.2763
16464WAT     H267662   2.478   5.621   1.370  1.1752  0.1184  1.5674
16464WAT    EPW67663   2.415   5.583   1.416  0.2693 -0.0520  0.2468
16465WAT      O67664  -0.270   7.804   8.012 -0.3792 -0.2491 -0.1377
16465WAT     H167665  -0.264   7.882   7.957 -1.3443  0.0186  0.1159
16465WAT     H267666  -0.311   7.835   8.093 -1.3764 -1.1234 -0.2787
16465WAT    EPW67667  -0.275   7.818   8.016 -0.6380 -0.3293 -0.1230
16466WAT      O67668  -1.605   3.808   5.288  0.6155 -0.3997  0.0642
16466WAT     H167669  -1.682   3.773   5.243  0.1796  0.0284  0.4647
16466WAT     H267670  -1.562   3.862   5.222  2.1765 -2.8818 -1.0691
16466WAT    EPW67671  -1.610   3.811   5.273  0.7640 -0.6706 -0.0324
16467WAT      O67672   5.048   9.402   4.196  0.0938  0.3760 -0.6714
16467WAT     H167673   5.065   9.308   4.207 -0.0729  0.5959  2.1435
16467WAT     H267674   5.090   9.424   4.113  1.9645 -1.7816 -0.4069
16467WAT    EPW67675   5.056   9.392   4.187  0.3183  0.1202 -0.2654
16468WAT      O67676  -2.669   5.307   7.502 -0.2430 -0.3379  0.2417
16468WAT     H167677  -2.702   5.232   7.455  2.1449 -1.1673 -0.2607
16468WAT     H267678  -2.593   5.274   7.550  2.0235  2.0417 -1.4288
16468WAT    EPW67679  -2.663   5.293   7.502  0.3710 -0.1333 -0.0448
16469WAT      O67680  -0.075   7.742   0.974 -0.6157 -0.2321  0.5156
16469WAT     H167681  -0.017   7.668   0.956 -2.3932 -2.1536  2.1296
16469WAT     H267682  -0.089   7.783   0.889 -0.2434 -2.2777 -0.5977
16469WAT    EPW67683  -0.069   7.738   0.961 -0.8010 -0.7553  0.5816
16470WAT      O67684  -1.540   2.533   2.964 -0.2716 -0.3781  0.2487
16470WAT     H167685  -1.588   2.615   2.967  0.5882  0.1530 -0.0450
16470WAT     H267686  -1.492   2.535   2.881 -0.0361 -1.0571  0.3531
16470WAT    EPW67687  -1.540   2.544   2.953 -0.1271 -0.3977  0.2238
16471WAT      O67688   2.237   9.349   8.642 -0.4386  0.7998  0.3655
16471WAT     H167689   2.221   9.440   8.668 -1.8779  0.9618 -0.9359
16471WAT     H267690   2.314   9.353   8.586  0.8950  0.8539  2.1156
16471WAT    EPW67691   2.245   9.362   8.638 -0.4525  0.8287  0.4244
16472WAT      O67692  -0.699   5.693   7.164 -0.2060  0.3665 -0.2101
16472WAT     H167693  -0.625   5.753   7.168  1.1638 -1.2249 -0.5500
16472WAT     H267694  -0.730   5.687   7.254 -0.2702  1.4276 -0.1455
16472WAT    EPW67695  -0.693   5.700   7.176 -0.0338  0.2964 -0.2463
16473WAT      O67696  -4.493   4.951   5.220  0.1894 -0.2120  1.0043
16473WAT     H167697  -4.431   4.963   5.292  0.1484 -1.3148  1.2400
16473WAT     H267698  -4.563   4.898   5.257  0.7105 -1.7914 -0.1177
16473WAT    EPW67699  -4.494   4.945   5.234  0.2525 -0.5655  0.8874
16474WAT      O67700  -1.903   9.008   4.757 -0.1943  0.1511  0.5087
16474WAT     H167701  -1.884   9.098   4.733 -0.0944  0.3965  1.4698
16474WAT     H267702  -1.997   9.008   4.777 -0.1500  0.0962  0.7221
16474WAT    EPW67703  -1.913   9.020   4.756 -0.1752  0.1760  0.6633
16475WAT      O67704   2.623   3.002   4.079  0.2319 -0.1864  0.1085
16475WAT     H167705   2.554   2.977   4.141 -0.2954 -2.6078 -1.3247
16475WAT     H267706   2.577   3.052   4.011  0.5047  0.9169  0.6987
16475WAT    EPW67707   2.608   3.006   4.078  0.1982 -0.3601 -0.0026
16476WAT      O67708   0.346   9.278   6.238 -0.3970 -0.4128 -0.4844
16476WAT     H167709   0.297   9.233   6.169  0.4098 -0.7443 -0.8603
16476WAT     H267710   0.437   9.270   6.211  0.0378 -1.4546  1.1322
16476WAT    EPW67711   0.352   9.271   6.225 -0.2333 -0.5941 -0.3207
16477WAT      O67712  -1.714   5.955   3.265  0.6077  0.6731  0.1812
16477WAT     H167713  -1.775   6.020   3.298 -1.1981 -0.6324 -0.4037
16477WAT     H267714  -1.756   5.871   3.282  2.1278 -0.2852 -0.5016
16477WAT    EPW67715  -1.727   5.952   3.271  0.5700  0.3746  0.0139
16478WAT      O67716   1.933   2.198   0.289  0.4763 -0.6261  0.2541
16478WAT     H167717   1.918   2.113   0.248 -0.4158 -1.2915  1.8544
16478WAT     H267718   1.992   2.244   0.229  2.3056 -2.9701  0.1286
16478WAT    EPW67719   1.939   2.193   0.276  0.5999 -1.0229  0.4486
16479WAT      O67720  -1.137   6.382   6.753  0.1905 -0.2724 -0.2634
16479WAT     H167721  -1.231   6.395   6.737  0.2482 -0.9991 -1.2867
16479WAT     H267722  -1.104   6.348   6.670  1.7805  1.9843 -0.6576
16479WAT    EPW67723  -1.145   6.379   6.740  0.4078 -0.0703 -0.4504
16480WAT      O67724   2.898   0.159   1.263 -0.5064 -0.2487  0.2832
16480WAT     H167725   2.847   0.190   1.338 -1.0321 -1.7893  0.5998
16480WAT     H267726   2.838   0.165   1.188 -1.9221 -3.6977  0.9368
16480WAT    EPW67727   2.883   0.163   1.263 -0.7625 -0.9068  0.4112
16481WAT      O67728   5.977   2.004   1.162 -0.6801  0.1409  0.0526
16481WAT     H167729   5.882   1.991   1.162 -0.9688  1.5419  3.2240
16481WAT     H267730   5.989   2.096   1.183  1.4373  0.3882 -1.8660
16481WAT    EPW67731   5.966   2.014   1.165 -0.4389  0.3582  0.2178
16482WAT      O67732   4.785   1.192   1.440 -0.1178  0.6585 -1.0152
16482WAT     H167733   4.860   1.163   1.389  0.4842  0.4948 -0.0746
16482WAT     H267734   4.713   1.200   1.377  0.9236  1.7380 -2.1079
16482WAT    EPW67735   4.785   1.189   1.425  0.0989  0.7793 -1.0353
16483WAT      O67736  -4.184   4.334   4.546  0.0359 -0.7401 -0.2403
16483WAT     H167737  -4.174   4.425   4.572 -0.8273  0.0826 -2.5536
16483WAT     H267738  -4.268   4.331   4.499 -1.3454 -3.3268  2.1046
16483WAT    EPW67739  -4.194   4.345   4.543 -0.2604 -0.9727 -0.2363
16484WAT      O67740  -0.916   2.046   3.808  0.2223 -0.3148  0.8850
16484WAT     H167741  -0.916   2.141   3.791  2.2110 -0.5805 -1.0342
16484WAT     H267742  -0.849   2.034   3.875  0.5086 -0.4203  0.5839
16484WAT    EPW67743  -0.907   2.057   3.814  0.5224 -0.3638  0.5924
16485WAT      O67744   8.449   2.786   0.726  0.4630 -0.4093 -0.6447
16485WAT     H167745   8.386   2.793   0.655 -0.5685  0.2212  0.3072
16485WAT     H267746   8.528   2.828   0.692  0.0136 -0.1940 -1.4425
16485WAT    EPW67747   8.451   2.792   0.712  0.2675 -0.2977 -0.6244
16486WAT      O67748  -0.282   9.048   4.790 -0.0738 -0.5774  0.6647
16486WAT     H167749  -0.188   9.035   4.803  0.5740 -0.1889 -2.7473
16486WAT     H267750  -0.291   9.142   4.776 -0.6525 -0.8083 -0.7190
16486WAT    EPW67751  -0.271   9.059   4.790 -0.0646 -0.5565  0.0322
16487WAT      O67752   7.382   6.381   0.319  0.0155 -0.2166  0.0819
16487WAT     H167753   7.468   6.378   0.360 -0.1414 -0.8061  0.3805
16487WAT     H267754   7.328   6.323   0.372  1.2065 -6.3140 -4.2484
16487WAT    EPW67755   7.386   6.373   0.331  0.1519 -1.0986 -0.4499
16488WAT      O67756  -3.243   0.063   6.475 -0.2899  0.7015 -0.2100
16488WAT     H167757  -3.184   0.049   6.402  0.2169 -1.8882  0.5777
16488WAT     H267758  -3.311  -0.004   6.465 -0.5758  0.7104  1.3063
16488WAT    EPW67759  -3.244   0.052   6.464 -0.2608  0.3611  0.0937
16489WAT      O67760  -0.382   9.779   0.232 -0.6403 -0.0976  0.5779
16489WAT     H167761  -0.383   9.872   0.211 -1.8648 -0.3303 -0.5213
16489WAT     H267762  -0.294   9.764   0.267 -0.2577  1.3633  0.3299
16489WAT    EPW67763  -0.370   9.789   0.234 -0.7513  0.0644  0.4002
16490WAT      O67764   7.814   1.294   1.577 -0.2913 -0.0654 -0.7484
16490WAT     H167765   7.744   1.303   1.513  0.5916  2.4729 -1.4811
16490WAT     H267766   7.770   1.303   1.662 -1.1640 -1.0821 -1.0824
16490WAT    EPW67767   7.799   1.297   1.580 -0.2902  0.1352 -0.8891
16491WAT      O67768   7.510   7.477   0.503 -0.0602  0.0615 -0.2935
16491WAT     H167769   7.521   7.500   0.595  1.0806 -1.2692 -0.0789
16491WAT     H267770   7.532   7.384   0.498 -5.0737 -1.3749 -0.9947
16491WAT    EPW67771   7.514   7.468   0.514 -0.5710 -0.3033 -0.3577
16492WAT      O67772   5.460   1.043   1.131  0.6257 -0.0893 -0.2528
16492WAT     H167773   5.456   0.948   1.143  1.9344 -0.0292  0.9474
16492WAT     H267774   5.516   1.056   1.055  1.9560 -0.2608  0.6765
16492WAT    EPW67775   5.467   1.032   1.123  0.9737 -0.1040  0.0280
16493WAT      O67776  -4.895   9.241   5.224 -0.3085 -0.0515  0.3785
16493WAT     H167777  -4.857   9.280   5.303  0.8211 -2.8261  1.3502
16493WAT     H267778  -4.986   9.225   5.247 -0.4045  0.6642  0.5012
16493WAT    EPW67779  -4.902   9.244   5.238 -0.1721 -0.3233  0.5229
16494WAT      O67780   3.028   6.132   2.134 -0.5452  0.6583  0.0108
16494WAT     H167781   2.960   6.088   2.083 -0.1675  1.8464 -1.5862
16494WAT     H267782   2.984   6.209   2.171 -0.6278  0.2058  0.8602
16494WAT    EPW67783   3.013   6.137   2.132 -0.5062  0.7555 -0.0877
16495WAT      O67784   1.398   1.905   6.262 -0.4020  0.2086  0.4163
16495WAT     H167785   1.366   1.870   6.345 -1.4448 -2.0655 -0.8432
16495WAT     H267786   1.321   1.904   6.205  0.4198  1.1374 -0.7501
16495WAT    EPW67787   1.383   1.900   6.265 -0.4312  0.0311  0.0963
16496WAT      O67788   2.946   5.217   2.117  0.0886  0.1311  0.1675
16496WAT     H167789   3.010   5.257   2.177  1.2952  0.6350 -1.3858
16496WAT     H267790   2.909   5.291   2.069 -1.7187 -0.1557  1.0454
16496WAT    EPW67791   2.949   5.232   2.119  0.0093  0.1597  0.0783
16497WAT      O67792  -3.566   9.719   7.296 -0.2123  0.4708  0.8218
16497WAT     H167793  -3.537   9.632   7.323  1.7709  0.1331 -1.8684
16497WAT     H267794  -3.510   9.779   7.346  0.7833  0.0238  0.2829
16497WAT    EPW67795  -3.555   9.715   7.306  0.1806  0.3676  0.3960
16498WAT      O67796  -1.174   6.636   1.321 -0.4149  0.8559 -0.2287
16498WAT     H167797  -1.178   6.544   1.348 -1.1486  1.0569  0.3921
16498WAT     H267798  -1.208   6.637   1.231  1.6958  0.2275 -1.0748
16498WAT    EPW67799  -1.179   6.624   1.313 -0.2332  0.7994 -0.2584
16499WAT      O67800  -1.712   2.554   8.306  0.7172  0.5658  1.1926
16499WAT     H167801  -1.670   2.640   8.304 -0.6606  1.3165  2.5192
16499WAT     H267802  -1.652   2.500   8.357  2.0940  0.4056 -0.5114
16499WAT    EPW67803  -1.698   2.558   8.313  0.7170  0.6437  1.1425
16500WAT      O67804  -0.268   7.224   3.588  0.3468 -0.0940  1.2530
16500WAT     H167805  -0.202   7.173   3.636 -1.2030 -1.6476  1.8256
16500WAT     H267806  -0.287   7.298   3.644  1.8090  0.5711  0.9305
16500WAT    EPW67807  -0.262   7.227   3.601  0.3353 -0.2112  1.2859
16501WAT      O67808  -0.698   7.162   0.781  0.6791  0.0012  0.7323
16501WAT     H167809  -0.682   7.099   0.851 -0.5190  1.3617  2.2881
16501WAT     H267810  -0.662   7.120   0.703 -3.3769 -4.5004  0.7913
16501WAT    EPW67811  -0.691   7.148   0.780 -0.0139 -0.4129  0.9453
16502WAT      O67812  -1.947   4.261   2.053 -0.3040 -0.1192 -0.5319
16502WAT     H167813  -1.947   4.320   2.129  0.0261  0.9636 -1.3377
16502WAT     H267814  -1.993   4.183   2.083  0.4782 -0.0224  1.0071
16502WAT    EPW67815  -1.953   4.259   2.067 -0.1573  0.0362 -0.4352
16503WAT      O67816  -3.377   1.178   6.784 -0.0771  0.9060  0.3065
16503WAT     H167817  -3.470   1.197   6.782 -0.3162 -0.2613 -0.2943
16503WAT     H267818  -3.371   1.082   6.782  1.1292  0.9648 -0.0334
16503WAT    EPW67819  -3.388   1.168   6.783  0.0505  0.7598  0.1826
16504WAT      O67820   4.437   0.930   0.109 -0.5839 -0.0827  0.3515
16504WAT     H167821   4.373   0.920   0.039  0.6683 -1.6424 -0.6591
16504WAT     H267822   4.438   0.844   0.153 -2.3615  1.2531  3.2708
16504WAT    EPW67823   4.429   0.917   0.105 -0.6530 -0.1122  0.6033
16505WAT      O67824   5.420   1.088   4.319  0.5100  0.1388  0.1292
16505WAT     H167825   5.335   1.071   4.278  0.5780  0.9980 -0.3803
16505WAT     H267826   5.439   1.007   4.367 -1.6186  0.6708  2.1132
16505WAT    EPW67827   5.411   1.075   4.320  0.2382  0.3223  0.3238
16506WAT      O67828   0.043   9.208   3.026  0.4355 -0.1822  0.2285
16506WAT     H167829  -0.033   9.259   2.999  1.1120 -0.0493 -1.5915
16506WAT     H267830   0.026   9.119   2.993  0.2850 -0.6126  1.3987
16506WAT    EPW67831   0.031   9.203   3.018  0.5049 -0.2213  0.1428
16507WAT      O67832  -0.009   2.958   7.524  0.4117 -0.4174  0.2973
16507WAT     H167833   0.077   2.946   7.563  0.2177 -1.0599  0.5417
16507WAT     H267834  -0.018   3.053   7.514  1.1313 -0.3451  0.2899
16507WAT    EPW67835   0.001   2.969   7.527  0.4810 -0.4926  0.3285
16508WAT      O67836  -3.335   3.411   6.861  0.3016 -0.3968 -0.0062
16508WAT     H167837  -3.242   3.427   6.846 -0.0951 -0.1313 -2.6393
16508WAT     H267838  -3.342   3.396   6.955  3.0904 -1.0824  0.1681
16508WAT    EPW67839  -3.324   3.411   6.871  0.6170 -0.4523 -0.3304
16509WAT      O67840   3.040   2.629   7.317 -0.9704  0.5237  1.0761
16509WAT     H167841   3.022   2.680   7.396  0.0439 -0.4289  1.9515
16509WAT     H267842   3.122   2.665   7.283 -1.1992  0.6698  0.6670
16509WAT    EPW67843   3.048   2.640   7.323 -0.8668  0.4174  1.1375
16510WAT      O67844   3.963   6.977   7.254 -0.3265 -0.9427 -0.3246
16510WAT     H167845   3.898   6.915   7.220  1.1873 -3.4038  0.9376
16510WAT     H267846   4.047   6.936   7.234  0.7799  0.8269  0.4519
16510WAT    EPW67847   3.966   6.963   7.247  0.0191 -1.0340 -0.0558
16511WAT      O67848   1.783   4.297   5.806 -0.2946  0.1652  0.3575
16511WAT     H167849   1.751   4.352   5.877  1.1505  0.8582  0.4993
16511WAT     H267850   1.751   4.209   5.827  0.8560  0.1747  2.3634
16511WAT    EPW67851   1.774   4.293   5.818  0.0478  0.2580  0.6406
16512WAT      O67852  -7.286  10.258   6.864  0.9776 -0.0588  0.3410
16512WAT     H167853  -7.203  10.242   6.909  2.0598 -0.6876 -1.7497
16512WAT     H267854  -7.261  10.293   6.779 -0.9879  1.0037  0.1325
16512WAT    EPW67855  -7.272  10.260   6.859  0.8612 -0.0014  0.0377
16513WAT      O67856  -5.375   3.667   8.467 -0.2829 -0.5744  0.2049
16513WAT     H167857  -5.294   3.699   8.507  0.3786 -0.9854 -0.7645
16513WAT     H267858  -5.439   3.735   8.486  1.3108  1.9856 -2.7006
16513WAT    EPW67859  -5.373   3.680   8.475  0.0145 -0.2911 -0.3061
16514WAT      O67860   4.209   4.132   5.738  0.5426 -0.9597 -0.7121
16514WAT     H167861   4.185   4.052   5.785 -0.8123 -0.9788 -1.3837
16514WAT     H267862   4.216   4.199   5.806 -3.8563 -0.4046 -0.5503
16514WAT    EPW67863   4.207   4.130   5.753 -0.2162 -0.8891 -0.7794
16515WAT      O67864  -2.291   5.141   8.548  0.0430 -0.5757  0.5613
16515WAT     H167865  -2.224   5.089   8.503  0.5107 -1.1564  1.8997
16515WAT     H267866  -2.347   5.076   8.590 -1.0500 -0.0700 -0.0672
16515WAT    EPW67867  -2.290   5.126   8.547 -0.0396 -0.5856  0.6547
16516WAT      O67868  -0.425   2.359   4.266 -0.6530  0.4956  0.2137
16516WAT     H167869  -0.362   2.359   4.194 -1.1755 -0.7401 -0.2678
16516WAT     H267870  -0.511   2.360   4.223 -1.0202 -2.1932  0.6934
16516WAT    EPW67871  -0.428   2.359   4.250 -0.7703 -0.0219  0.2136
16517WAT      O67872  -2.183   1.414   7.865  0.0997  0.4202 -0.0339
16517WAT     H167873  -2.151   1.486   7.919  1.2266 -0.1704  0.0948
16517WAT     H267874  -2.264   1.386   7.908 -0.4556  1.7076 -0.1863
16517WAT    EPW67875  -2.190   1.420   7.877  0.1751  0.5121 -0.0372
16518WAT      O67876  -1.339   2.688   5.542 -0.4082  0.4513  0.1895
16518WAT     H167877  -1.299   2.602   5.558  2.1226  1.7323  1.4082
16518WAT     H267878  -1.425   2.668   5.505  0.3605 -2.5732 -0.2432
16518WAT    EPW67879  -1.345   2.674   5.540  0.0269  0.2214  0.2933
16519WAT      O67880   3.679   4.509   6.839 -0.0233  0.6623 -0.9096
16519WAT     H167881   3.616   4.474   6.901 -1.3714  0.5266 -2.2922
16519WAT     H267882   3.625   4.541   6.766  1.5248  0.1506 -2.3310
16519WAT    EPW67883   3.663   4.509   6.837  0.0031  0.5767 -1.2794
16520WAT      O67884   4.539   1.205   0.028 -0.1951  0.2237  0.2321
16520WAT     H167885   4.484   1.126   0.027  0.3694 -0.2317  1.8326
16520WAT     H267886   4.478   1.277   0.009 -0.6952 -0.5736 -1.3807
16520WAT    EPW67887   4.523   1.204   0.025 -0.1867  0.0585  0.2305
16521WAT      O67888   4.435   9.783   4.069  0.0572 -0.2760 -0.5731
16521WAT     H167889   4.376   9.857   4.063 -0.4165 -0.4315  1.2994
16521WAT     H267890   4.517   9.814   4.031  1.1060  2.6486  3.3419
16521WAT    EPW67891   4.438   9.797   4.063  0.1330  0.0892  0.1905
16522WAT      O67892  -1.164   2.658   7.243 -0.2702 -0.1902  0.0647
16522WAT     H167893  -1.257   2.647   7.262 -0.0192 -1.7227  0.6038
16522WAT     H267894  -1.127   2.570   7.253  1.3685  0.5098  0.5843
16522WAT    EPW67895  -1.171   2.645   7.247 -0.0210 -0.2999  0.2041
16523WAT      O67896   0.046   1.555   6.619  0.4111  0.2983  0.6984
16523WAT     H167897   0.090   1.613   6.556  0.3661  0.5322  0.8778
16523WAT     H267898  -0.045   1.586   6.620  0.6472  1.0574  1.7186
16523WAT    EPW67899   0.040   1.567   6.611  0.4363  0.4293  0.8569
16524WAT      O67900  -0.213   5.775   2.370 -0.6099  0.3371 -0.7439
16524WAT     H167901  -0.135   5.812   2.412 -0.1796 -2.2602  1.0047
16524WAT     H267902  -0.269   5.851   2.353  1.0171  1.9783  0.7308
16524WAT    EPW67903  -0.210   5.790   2.373 -0.3386  0.2110 -0.3188
16525WAT      O67904  -1.478   5.041   2.892 -0.8297 -0.3333  0.3404
16525WAT     H167905  -1.415   4.970   2.888 -0.2495  0.0535  1.8955
16525WAT     H267906  -1.493   5.066   2.800 -0.5028 -1.9545 -0.1775
16525WAT    EPW67907  -1.472   5.035   2.879 -0.7100 -0.4961  0.4772
16526WAT      O67908  -2.505   4.298   3.098  0.0498 -0.8611 -0.6775
16526WAT     H167909  -2.421   4.324   3.136  0.4134  0.8476 -2.5009
16526WAT     H267910  -2.556   4.379   3.097 -1.4054 -1.7480 -0.1913
16526WAT    EPW67911  -2.500   4.312   3.103 -0.0942 -0.7527 -0.8540
16527WAT      O67912   1.826   1.394   8.396 -0.1728  0.1041 -0.0422
16527WAT     H167913   1.803   1.480   8.361 -1.1650  0.0813  0.5224
16527WAT     H267914   1.868   1.413   8.481  0.8410  0.0858 -0.5268
16527WAT    EPW67915   1.828   1.408   8.403 -0.1699  0.0986 -0.0319
16528WAT      O67916   0.742   2.699   2.063  0.5294  0.0029 -0.8243
16528WAT     H167917   0.738   2.785   2.022 -0.0790  0.5728  0.3809
16528WAT     H267918   0.651   2.669   2.064  0.3224  0.5398  1.1363
16528WAT    EPW67919   0.729   2.706   2.058  0.4219  0.1489 -0.4067
16529WAT      O67920   0.467   8.828   0.951  0.1279 -0.7010  0.0971
16529WAT     H167921   0.435   8.877   1.026  1.1912 -1.1388  0.8701
16529WAT     H267922   0.390   8.780   0.919 -0.7372  0.8084 -0.1890
16529WAT    EPW67923   0.453   8.828   0.957  0.1540 -0.5598  0.1613
16530WAT      O67924   7.286   3.758   0.188  0.3120  0.2349  0.0089
16530WAT     H167925   7.345   3.682   0.194 -0.2793 -0.3497 -1.2638
16530WAT     H267926   7.228   3.737   0.116 -1.5220  0.7800  1.2649
16530WAT    EPW67927   7.286   3.745   0.180 -0.0079  0.2297  0.0067
16531WAT      O67928  -0.292   5.048   7.414  0.3336 -0.0489 -0.1052
16531WAT     H167929  -0.374   5.027   7.370 -0.7391  0.1672  1.6897
16531WAT     H267930  -0.310   5.129   7.461  1.8373  0.4183 -0.2804
16531WAT    EPW67931  -0.305   5.056   7.414  0.3905  0.0412  0.1085
16532WAT      O67932   2.707   4.129   8.312 -0.6253  0.3387  0.2133
16532WAT     H167933   2.645   4.150   8.242 -2.1760 -1.1255  1.0571
16532WAT     H267934   2.791   4.164   8.282 -1.0884 -0.7160 -2.6390
16532WAT    EPW67935   2.710   4.136   8.299 -0.8910  0.0067 -0.0520
16533WAT      O67936   0.404   8.993   8.829 -0.4489  1.0103  0.0181
16533WAT     H167937   0.406   9.056   8.757  2.3423  0.6717 -0.3195
16533WAT     H267938   0.311   8.973   8.841 -1.0779  1.7000 -2.9265
16533WAT    EPW67939   0.392   8.999   8.821 -0.1637  1.0567 -0.4153
16534WAT      O67940   0.801   0.316   1.687 -0.0595 -0.3198 -0.4547
16534WAT     H167941   0.723   0.367   1.664  0.0630 -0.4591 -1.2014
16534WAT     H267942   0.781   0.227   1.657  0.1716 -0.4772 -0.1532
16534WAT    EPW67943   0.788   0.311   1.680 -0.0129 -0.3589 -0.5134
16535WAT      O67944  -0.085   4.503   2.849  0.0802 -0.1587 -0.4516
16535WAT     H167945  -0.143   4.473   2.780  0.7900 -0.4322 -0.9450
16535WAT     H267946  -0.085   4.431   2.913  0.3351 -0.4108 -0.7352
16535WAT    EPW67947  -0.092   4.489   2.849  0.2074 -0.2282 -0.5541
16536WAT      O67948  -1.738   7.887   2.359 -0.9959 -0.3665 -0.5204
16536WAT     H167949  -1.794   7.860   2.432 -2.0338 -0.1191 -1.2034
16536WAT     H267950  -1.789   7.954   2.313  0.0793  0.2332 -0.8766
16536WAT    EPW67951  -1.753   7.892   2.362 -0.9910 -0.2549 -0.6574
16537WAT      O67952   5.961   8.893   2.704  0.2656 -0.1617  0.3481
16537WAT     H167953   5.942   8.881   2.798  2.1780 -2.2823  0.5630
16537WAT     H267954   5.913   8.822   2.661  1.9315 -1.2278  0.1470
16537WAT    EPW67955   5.952   8.882   2.711  0.7377 -0.5822  0.3499
16538WAT      O67956  -0.631   7.056   0.533  0.4386  0.3107 -0.5127
16538WAT     H167957  -0.557   7.085   0.480 -0.6164  0.8693 -1.7164
16538WAT     H267958  -0.709   7.081   0.483 -0.5778 -0.8224  0.4242
16538WAT    EPW67959  -0.632   7.064   0.520  0.1654  0.2348 -0.5479
16539WAT      O67960  -2.805   2.480   6.163 -0.3372 -0.3929 -0.1342
16539WAT     H167961  -2.747   2.413   6.201  1.4497  0.1541 -1.7306
16539WAT     H267962  -2.824   2.447   6.075 -0.3457  0.6607 -0.5339
16539WAT    EPW67963  -2.800   2.467   6.156 -0.1028 -0.1818 -0.3974
16540WAT      O67964  -2.874   6.757   6.509  0.5763  0.3557 -0.1126
16540WAT     H167965  -2.951   6.738   6.457 -1.1292  0.5676  2.1828
16540WAT     H267966  -2.858   6.678   6.560  0.8619  0.8811  0.6380
16540WAT    EPW67967  -2.882   6.744   6.509  0.3890  0.4530  0.2890
16541WAT      O67968  -5.153   3.670   6.578 -0.1891  0.2083 -0.1428
16541WAT     H167969  -5.243   3.705   6.581 -1.0491 -1.9050  0.3852
16541WAT     H267970  -5.143   3.623   6.660  0.7855 -1.0018 -0.9269
16541WAT    EPW67971  -5.164   3.668   6.589 -0.1738 -0.2300 -0.1764
16542WAT      O67972   1.162   1.239   8.492 -0.1978 -0.0558 -0.1926
16542WAT     H167973   1.196   1.319   8.533  2.1920 -0.5023 -1.1122
16542WAT     H267974   1.101   1.270   8.426 -1.3957  0.8276  1.2545
16542WAT    EPW67975   1.159   1.253   8.489 -0.0406  0.0018 -0.1230
16543WAT      O67976   0.212   1.607   4.790  0.3321 -0.6252 -0.1918
16543WAT     H167977   0.306   1.597   4.776  0.2746 -1.4615 -0.0392
16543WAT     H267978   0.205   1.646   4.877  0.5942  1.8334 -1.1936
16543WAT    EPW67979   0.223   1.611   4.800  0.3591 -0.4112 -0.3037
16544WAT      O67980   0.613   9.409   3.206 -0.3245 -0.1062 -0.0966
16544WAT     H167981   0.673   9.456   3.264  0.9458 -0.0158 -1.4215
16544WAT     H267982   0.613   9.320   3.239  1.4276 -0.3677 -0.6967
16544WAT    EPW67983   0.621   9.404   3.218  0.0741 -0.1287 -0.3505
16545WAT      O67984   4.180   0.401   1.153  0.6536  0.2327  0.3572
16545WAT     H167985   4.145   0.334   1.212  0.3991  0.1329  0.0907
16545WAT     H267986   4.144   0.483   1.187 -0.4278  0.0630 -0.3379
16545WAT    EPW67987   4.171   0.403   1.165  0.4773  0.1972  0.2304
16546WAT      O67988  -3.029   6.831   2.835 -0.5380  0.0721 -0.1830
16546WAT     H167989  -3.089   6.879   2.892 -2.2187  1.3904 -2.8509
16546WAT     H267990  -3.000   6.756   2.887 -2.2038  0.9867  2.2162
16546WAT    EPW67991  -3.033   6.828   2.850 -0.9793  0.3667 -0.2185
16547WAT      O67992   0.516   6.339   0.668  0.6103  0.1494  0.2211
16547WAT     H167993   0.583   6.272   0.665  0.0856 -0.4168  0.9647
16547WAT     H267994   0.565   6.422   0.671  1.2544 -0.1686 -0.8752
16547WAT    EPW67995   0.531   6.341   0.668  0.6260  0.0327  0.1746
16548WAT      O67996  -5.855   8.534   5.341  0.2286 -0.1457  0.4072
16548WAT     H167997  -5.820   8.447   5.359  0.5547  0.3305  2.2916
16548WAT     H267998  -5.798   8.568   5.272 -0.0270 -1.4666 -0.5024
16548WAT    EPW67999  -5.843   8.527   5.334  0.2379 -0.2575  0.5357
16549WAT      O68000   1.346   8.461   6.235 -0.4237 -0.0316  0.4057
16549WAT     H168001   1.400   8.398   6.186  0.6086  1.4268 -0.4109
16549WAT     H268002   1.404   8.491   6.306 -0.6700  0.4895  0.3864
16549WAT    EPW68003   1.361   8.456   6.238 -0.3200  0.2298  0.2956
16550WAT      O68004   3.459   2.065   0.262 -0.9277  0.5637  0.8247
16550WAT     H168005   3.470   2.131   0.193  1.2779  0.4222  0.9599
16550WAT     H268006   3.369   2.076   0.291 -1.1343  2.3767 -0.3105
16550WAT    EPW68007   3.449   2.075   0.257 -0.6641  0.7842  0.6928
16551WAT      O68008   0.532   6.529   6.052 -0.2694  0.3521  0.9607
16551WAT     H168009   0.538   6.577   6.135  1.1682  0.5557  0.7821
16551WAT     H268010   0.520   6.438   6.078  0.1205  0.4187  1.3976
16551WAT    EPW68011   0.532   6.523   6.067 -0.0284  0.3874  0.9947
16552WAT      O68012   3.056   6.982   7.099 -0.7487  0.2982  0.0505
16552WAT     H168013   2.972   7.023   7.119 -1.1339 -0.8892  0.9989
16552WAT     H268014   3.120   7.031   7.150 -1.4877 -1.5512  2.9777
16552WAT    EPW68015   3.053   6.994   7.108 -0.8969 -0.1025  0.5617
16553WAT      O68016   3.458   2.953   3.625 -0.2113  0.2264 -0.1108
16553WAT     H168017   3.445   2.858   3.627  0.1370  0.1857  0.3790
16553WAT     H268018   3.429   2.979   3.538  1.0330 -0.5180 -0.7755
16553WAT    EPW68019   3.452   2.944   3.614 -0.0013  0.1228 -0.1339
16554WAT      O68020  -3.908   0.952   7.854  0.3301  0.2676 -0.3769
16554WAT     H168021  -3.905   0.938   7.949 -0.9733 -1.4723 -0.5471
16554WAT     H268022  -3.894   0.865   7.816 -2.0019  0.3767 -1.6997
16554WAT    EPW68023  -3.906   0.939   7.861 -0.1494  0.0525 -0.5739
16555WAT      O68024  -2.972  10.023   7.522 -0.5606 -0.7515 -0.2334
16555WAT     H168025  -2.985   9.977   7.605  0.7908  0.2169  0.5566
16555WAT     H268026  -2.896   9.979   7.483 -1.5684 -1.6189 -1.2961
16555WAT    EPW68027  -2.963  10.011   7.528 -0.5152 -0.7381 -0.2694
16556WAT      O68028   7.348   6.622   1.403 -0.1082 -0.3433  0.1099
16556WAT     H168029   7.425   6.578   1.368 -0.4533 -0.5230 -0.4280
16556WAT     H268030   7.351   6.603   1.497  0.0948 -0.9775 -0.0206
16556WAT    EPW68031   7.358   6.614   1.411 -0.1271 -0.4506  0.0217
16557WAT      O68032  -0.031   5.357   6.468 -0.5943 -0.7966 -0.3921
16557WAT     H168033   0.014   5.339   6.551 -1.3291 -1.0583 -0.0388
16557WAT     H268034  -0.085   5.433   6.487 -0.2427 -0.4267 -0.8422
16557WAT    EPW68035  -0.032   5.365   6.482 -0.6449 -0.7825 -0.4048
16558WAT      O68036   6.842   2.003   0.201  0.2666 -0.1515  0.8372
16558WAT     H168037   6.909   2.070   0.213 -0.1913  0.8303 -1.6095
16558WAT     H268038   6.887   1.932   0.156  0.2336 -0.5812  1.4706
16558WAT    EPW68039   6.857   2.003   0.197  0.2019 -0.0788  0.5980
16559WAT      O68040  -2.828   4.759   7.950  0.0615  0.8266  0.0407
16559WAT     H168041  -2.838   4.724   7.861  0.1551  0.9912 -0.0353
16559WAT     H268042  -2.903   4.817   7.961 -0.0370  0.6823  0.1280
16559WAT    EPW68043  -2.839   4.762   7.939  0.0609  0.8295  0.0422
16560WAT      O68044   0.233   7.488   2.837 -0.2897 -0.2942  0.3232
16560WAT     H168045   0.170   7.482   2.909 -0.9969  1.0895 -0.1563
16560WAT     H268046   0.201   7.425   2.773 -2.1842  1.5198 -0.6224
16560WAT    EPW68047   0.220   7.479   2.838 -0.6329  0.1276  0.1352
16561WAT      O68048   0.437   7.381   5.702  0.3719  0.2452  0.7213
16561WAT     H168049   0.460   7.365   5.610 -1.1078 -0.5218  0.4400
16561WAT     H268050   0.404   7.297   5.733 -0.2623  0.7989  1.6023
16561WAT    EPW68051   0.436   7.368   5.694  0.0931  0.2170  0.8004
16562WAT      O68052  -3.778   9.832   0.772  0.2425  0.2329  0.3354
16562WAT     H168053  -3.862   9.793   0.747  0.1539  1.5417 -1.6199
16562WAT     H268054  -3.713   9.782   0.722  0.5097  0.0697  0.8402
16562WAT    EPW68055  -3.781   9.820   0.762  0.2660  0.3843  0.1441
16563WAT      O68056   0.714   4.936   3.589 -0.0460  0.6582 -0.2455
16563WAT     H168057   0.670   4.851   3.582 -1.3178  1.2645 -0.0783
16563WAT     H268058   0.721   4.951   3.684 -4.5427  2.9173  0.0428
16563WAT    EPW68059   0.709   4.927   3.601 -0.8068  1.0362 -0.1854
16564WAT      O68060   4.618   2.827   6.439 -0.1752  0.1034 -0.5753
16564WAT     H168061   4.688   2.788   6.386  1.9531  2.5519  0.2389
16564WAT     H268062   4.544   2.833   6.379 -0.0303 -3.1947 -1.2829
16564WAT    EPW68063   4.617   2.822   6.424  0.1247 -0.0087 -0.5612
16565WAT      O68064   1.522   3.005   6.431  0.5288  0.2560  0.2435
16565WAT     H168065   1.615   3.031   6.432  1.5135 -2.4318  4.4767
16565WAT     H268066   1.478   3.073   6.481  1.3455 -1.0439  2.9115
16565WAT    EPW68067   1.529   3.017   6.438  0.7664 -0.2700  1.1537
16566WAT      O68068  -4.183   8.253   6.340 -0.4294  0.1904 -0.3589
16566WAT     H168069  -4.150   8.242   6.429  0.1879  0.9379 -0.4889
16566WAT     H268070  -4.238   8.330   6.344 -0.2602  0.3281 -0.6620
16566WAT    EPW68071  -4.185   8.261   6.352 -0.3257  0.3076 -0.4160
16567WAT      O68072  -4.764   8.685   6.945  0.5402  0.0794 -0.4709
16567WAT     H168073  -4.773   8.597   6.909 -0.3791  0.2282 -0.6302
16567WAT     H268074  -4.799   8.679   7.034 -0.3915  0.4723 -0.7938
16567WAT    EPW68075  -4.770   8.673   6.952  0.2961  0.1507 -0.5345
16568WAT      O68076  -1.724   5.042   1.387 -0.7955  0.4677 -0.2954
16568WAT     H168077  -1.737   5.137   1.393  0.4713  0.7489 -1.4647
16568WAT     H268078  -1.778   5.006   1.458 -0.9511  2.0847  0.4571
16568WAT    EPW68079  -1.733   5.050   1.397 -0.6489  0.7181 -0.3504
16569WAT      O68080   2.270   5.159   1.103 -0.5746 -0.8931  0.5984
16569WAT     H168081   2.352   5.133   1.059 -0.7768 -1.4072  0.5167
16569WAT     H268082   2.217   5.079   1.102  0.0669 -1.4403  3.3199
16569WAT    EPW68083   2.274   5.145   1.097 -0.5167 -1.0331  0.9466
16570WAT      O68084  -5.175   5.337   8.388 -0.4557 -0.0599 -0.2398
16570WAT     H168085  -5.145   5.403   8.450 -3.3187  2.8888 -1.6345
16570WAT     H268086  -5.214   5.269   8.442  0.8232  0.3310  1.2387
16570WAT    EPW68087  -5.176   5.337   8.403 -0.6647  0.3805 -0.2289
16571WAT      O68088  -3.501   8.681   5.989 -0.3915 -0.0264 -0.2610
16571WAT     H168089  -3.431   8.660   5.926 -0.2711  0.4141 -0.2809
16571WAT     H268090  -3.491   8.616   6.059  1.1810  1.0971  0.6215
16571WAT    EPW68091  -3.490   8.670   5.990 -0.1682  0.1798 -0.1471
16572WAT      O68092   3.267   4.469   1.506  0.9040  0.1220 -0.0510
16572WAT     H168093   3.254   4.563   1.515  1.5469  0.0684  1.7534
16572WAT     H268094   3.185   4.438   1.465 -0.1446  1.1936  1.1377
16572WAT    EPW68095   3.254   4.477   1.501  0.8504  0.2563  0.3438
16573WAT      O68096   1.642   0.375   4.628 -0.2414  1.1867 -0.7051
16573WAT     H168097   1.722   0.364   4.576  1.2254  1.7235  1.3227
16573WAT     H268098   1.598   0.449   4.587 -0.0216  0.5515 -2.1881
16573WAT    EPW68099   1.647   0.383   4.616 -0.0189  1.1737 -0.6332
16574WAT      O68100  -6.010   8.971   5.415  0.1892 -0.5441 -0.3154
16574WAT     H168101  -6.024   8.878   5.436 -1.4356 -0.3107 -0.2061
16574WAT     H268102  -6.091   8.997   5.371 -1.1531  1.7881  3.1471
16574WAT    EPW68103  -6.023   8.962   5.412 -0.2022 -0.2055  0.1557
16575WAT      O68104   4.558   8.711   2.788 -0.3611 -0.2804 -0.8480
16575WAT     H168105   4.603   8.642   2.838 -1.3073 -0.0294  0.4046
16575WAT     H268106   4.628   8.774   2.768  0.0859 -0.4759  0.0237
16575WAT    EPW68107   4.573   8.710   2.792 -0.4268 -0.2732 -0.5678
16576WAT      O68108   0.308   7.115   0.055 -0.7632 -0.1196  0.9082
16576WAT     H168109   0.318   7.118   0.150  0.7333  0.1287  0.7605
16576WAT     H268110   0.302   7.021   0.034 -1.0182 -0.1770  1.2216
16576WAT    EPW68111   0.308   7.103   0.065 -0.5995 -0.0944  0.9301
16577WAT      O68112  -1.467  10.313   5.767  0.4321 -0.5838 -0.1939
16577WAT     H168113  -1.398  10.338   5.704  0.8828 -1.1667  0.0520
16577WAT     H268114  -1.430  10.334   5.852  0.4591 -1.2208 -0.0390
16577WAT    EPW68115  -1.453  10.319   5.770  0.4951 -0.7448 -0.1411
16578WAT      O68116  -3.831   7.824   3.858 -0.5277  0.4104 -0.6341
16578WAT     H168117  -3.773   7.796   3.787 -0.4303 -1.4693  0.1221
16578WAT     H268118  -3.826   7.753   3.922 -1.7724  1.3607  0.5700
16578WAT    EPW68119  -3.823   7.811   3.857 -0.6791  0.2880 -0.3757
16579WAT      O68120   5.233   6.518   2.140  0.4301  0.3631  0.7877
16579WAT     H168121   5.252   6.547   2.051 -1.2561 -3.6591 -1.1548
16579WAT     H268122   5.317   6.487   2.174  0.5705 -1.3714 -0.9410
16579WAT    EPW68123   5.246   6.518   2.133  0.2263 -0.3963  0.3035
16580WAT      O68124   5.426   1.709   1.228  0.5697 -0.8012  0.5865
16580WAT     H168125   5.397   1.670   1.146 -1.7241 -0.5176  1.1899
16580WAT     H268126   5.401   1.645   1.295  0.4604 -0.1100  1.2256
16580WAT    EPW68127   5.419   1.696   1.226  0.2530 -0.6726  0.7504
16581WAT      O68128   4.933   1.369   0.406  0.2531  0.4394 -0.5087
16581WAT     H168129   4.909   1.302   0.469  2.7429  0.3765  0.4983
16581WAT     H268130   4.855   1.381   0.353 -1.4390 -0.6461  1.5668
16581WAT    EPW68131   4.920   1.362   0.408  0.3583  0.2880 -0.1022
16582WAT      O68132  -4.569   3.955   7.376 -0.4915 -0.3325 -0.3605
16582WAT     H168133  -4.600   3.911   7.456 -0.5170  1.3661  0.5992
16582WAT     H268134  -4.641   3.944   7.314 -0.7825 -1.0195  0.0797
16582WAT    EPW68135  -4.582   3.948   7.378 -0.5336 -0.1992 -0.1760
16583WAT      O68136   2.144   1.025   8.649 -0.5946  0.1978  0.0955
16583WAT     H168137   2.089   1.024   8.570  1.0968 -2.3089 -1.2013
16583WAT     H268138   2.116   0.949   8.699 -0.3260  0.6568  0.9720
16583WAT    EPW68139   2.133   1.015   8.645 -0.3361 -0.0723  0.0401
16584WAT      O68140  -3.712   6.141   5.329  0.3423 -0.2805  0.3557
16584WAT     H168141  -3.789   6.092   5.359  0.0647  1.5090  2.9388
16584WAT     H268142  -3.740   6.182   5.247 -2.0037  1.3956  1.8935
16584WAT    EPW68143  -3.726   6.140   5.322 -0.0037  0.1767  0.8993
16585WAT      O68144   0.323   2.270   2.262 -0.2329 -0.7160  0.1906
16585WAT     H168145   0.399   2.298   2.212  0.3619 -0.8343  1.0076
16585WAT     H268146   0.306   2.343   2.322 -0.6834 -0.7465  0.1042
16585WAT    EPW68147   0.331   2.284   2.264 -0.2139 -0.7356  0.2871
16586WAT      O68148  -3.784   3.134   4.781  0.6576  0.3052 -0.0078
16586WAT     H168149  -3.837   3.172   4.710 -0.9342  1.1072  1.5253
16586WAT     H268150  -3.760   3.047   4.749 -2.3929 -0.4905 -0.5042
16586WAT    EPW68151  -3.788   3.127   4.767  0.0453  0.3060  0.1290
16587WAT      O68152  -0.764   6.862   6.147 -0.4725  0.7001 -0.2781
16587WAT     H168153  -0.822   6.833   6.217  0.8473 -0.8460  0.2469
16587WAT     H268154  -0.749   6.784   6.094  2.9081  0.3278  0.9466
16587WAT    EPW68155  -0.770   6.848   6.149  0.1475  0.4470 -0.0472
16588WAT      O68156  -3.627  10.215   6.871 -0.1437 -0.4211  0.0130
16588WAT     H168157  -3.645  10.295   6.921  0.4622 -0.3245  0.0765
16588WAT     H268158  -3.696  10.213   6.805 -0.6041 -0.2381  0.4764
16588WAT    EPW68159  -3.639  10.226   6.869 -0.1245 -0.3839  0.0825
16589WAT      O68160  -4.586  10.268   2.582 -0.6288  0.5968 -0.2998
16589WAT     H168161  -4.514  10.211   2.608 -1.9747 -2.4703 -2.6880
16589WAT     H268162  -4.543  10.340   2.535  1.0027 -0.3512 -0.3641
16589WAT    EPW68163  -4.571  10.270   2.579 -0.5910  0.0672 -0.6232
16590WAT      O68164   3.247   3.503   6.046 -0.4295 -0.1051 -0.1030
16590WAT     H168165   3.175   3.468   5.993 -2.3503  2.1645  0.8022
16590WAT     H268166   3.277   3.580   5.997 -1.0736  1.0188  1.1850
16590WAT    EPW68167   3.241   3.509   6.033 -0.7678  0.3426  0.1864
16591WAT      O68168   2.357   8.046   7.372 -0.4682 -0.0652  0.4094
16591WAT     H168169   2.302   8.029   7.448  2.7095 -0.8331  2.7305
16591WAT     H268170   2.372   7.959   7.334 -1.2903  0.2096 -0.5819
16591WAT    EPW68171   2.352   8.032   7.377 -0.1576 -0.1302  0.5846
16592WAT      O68172  -1.266   0.534   6.293 -0.1531 -0.4653  0.4187
16592WAT     H168173  -1.247   0.526   6.386 -1.1248  0.0663  0.6793
16592WAT     H268174  -1.295   0.446   6.267 -0.3730 -0.4868  0.7364
16592WAT    EPW68175  -1.268   0.521   6.302 -0.3102 -0.3980  0.4950
16593WAT      O68176   3.578   8.547   4.800 -0.1062 -0.7883 -0.3219
16593WAT     H168177   3.664   8.561   4.838 -0.4699 -0.0523  0.2597
16593WAT     H268178   3.576   8.604   4.723 -0.6008  0.3838  0.5190
16593WAT    EPW68179   3.589   8.556   4.795 -0.2193 -0.5369 -0.1345
16594WAT      O68180   1.747   2.643   6.681 -0.1114 -0.3959 -0.4454
16594WAT     H168181   1.822   2.695   6.711 -0.3172  0.7235 -1.7566
16594WAT     H268182   1.698   2.703   6.625  0.1682 -2.2439 -2.8299
16594WAT    EPW68183   1.751   2.658   6.677 -0.1017 -0.4921 -0.9329
16595WAT      O68184  -1.289   1.041   4.301  0.3705  0.1590  0.0020
16595WAT     H168185  -1.222   1.004   4.358  1.6610  1.2152 -0.7957
16595WAT     H268186  -1.365   1.052   4.359  0.9105 -0.8668  0.9643
16595WAT    EPW68187  -1.291   1.037   4.316  0.6119  0.1630  0.0236
16596WAT      O68188   3.764   2.441   5.244 -0.0399  0.1684 -0.2991
16596WAT     H168189   3.805   2.518   5.204 -0.4622  0.9321  0.6992
16596WAT     H268190   3.780   2.452   5.337  0.7481 -1.4836 -0.2081
16596WAT    EPW68191   3.772   2.453   5.251  0.0082  0.0511 -0.1554
16597WAT      O68192  -2.232   5.909   0.541 -0.1302  0.4642 -0.9215
16597WAT     H168193  -2.142   5.877   0.550  0.0923  0.5190 -2.7264
16597WAT     H268194  -2.249   5.956   0.623  1.0387 -0.5762 -0.0355
16597WAT    EPW68195  -2.223   5.911   0.553  0.0532  0.3343 -1.0427
16598WAT      O68196  -1.438   1.422   2.308 -0.1143  0.5492  0.1926
16598WAT     H168197  -1.345   1.431   2.286 -0.6492 -0.7219 -3.0405
16598WAT     H268198  -1.445   1.337   2.350  0.0904  0.3632 -0.1518
16598WAT    EPW68199  -1.427   1.412   2.311 -0.1580  0.3570 -0.2793
16599WAT      O68200   2.288   1.981   0.085  0.2252  0.3798  0.0798
16599WAT     H168201   2.199   1.978   0.049 -0.0158 -1.3814  0.7160
16599WAT     H268202   2.275   1.985   0.180  0.7966 -0.1916  0.1914
16599WAT    EPW68203   2.274   1.981   0.093  0.2688  0.0721  0.1785
16600WAT      O68204  -3.924   6.488   7.198 -0.6208  0.7726 -0.2022
16600WAT     H168205  -3.968   6.464   7.116 -0.6927  0.5741 -0.1045
16600WAT     H268206  -3.992   6.530   7.251 -0.2959  2.0031 -0.7164
16600WAT    EPW68207  -3.939   6.490   7.194 -0.5873  0.9086 -0.2573
16601WAT      O68208   2.489  10.280   4.521 -0.0431 -0.9698  0.4623
16601WAT     H168209   2.582  10.290   4.504  0.2970 -0.7172  2.3175
16601WAT     H268210   2.480  10.292   4.615 -2.1251  0.2694  0.1666
16601WAT    EPW68211   2.500  10.283   4.531 -0.2728 -0.7730  0.6678
16602WAT      O68212  -2.552   3.101   4.260  0.5812  0.4729  0.0454
16602WAT     H168213  -2.554   3.053   4.177 -0.5162 -0.1649  0.4253
16602WAT     H268214  -2.548   3.193   4.234 -1.2939  0.3661 -0.7624
16602WAT    EPW68215  -2.551   3.107   4.246  0.1891  0.3748 -0.0112
16603WAT      O68216  -3.159   2.500   8.811 -0.5697  0.1146  0.9007
16603WAT     H168217  -3.245   2.462   8.791 -0.0122 -1.0588  0.6092
16603WAT     H268218  -3.173   2.552   8.890 -1.4989 -0.2719  1.0033
16603WAT    EPW68219  -3.172   2.502   8.819 -0.6187 -0.0912  0.8759
16604WAT      O68220   3.341   1.382   6.405 -0.1486  0.0774  0.6417
16604WAT     H168221   3.280   1.316   6.372  0.5430 -1.1162  1.6636
16604WAT     H268222   3.300   1.414   6.485 -0.1106  0.3332  0.5597
16604WAT    EPW68223   3.328   1.378   6.411 -0.0525 -0.0463  0.7658
16605WAT      O68224  -6.591   7.886   7.932 -0.1865  0.0533  0.2009
16605WAT     H168225  -6.517   7.945   7.943 -2.0793  2.6146  0.3219
16605WAT     H268226  -6.656   7.938   7.885 -1.9312 -2.0611  0.0773
16605WAT    EPW68227  -6.590   7.901   7.927 -0.6661  0.1121  0.2005
16606WAT      O68228   0.779   3.342   5.413  0.2256  0.0082 -0.0274
16606WAT     H168229   0.734   3.306   5.336  1.4256 -1.8441  0.0677
16606WAT     H268230   0.709   3.380   5.466 -1.2489 -2.3653 -0.0870
16606WAT    EPW68231   0.764   3.342   5.410  0.1894 -0.5492 -0.0226
16607WAT      O68232   0.159   9.359   8.636 -0.1123  0.6922  0.5422
16607WAT     H168233   0.204   9.336   8.718 -0.4164 -2.3071 -0.0335
16607WAT     H268234   0.078   9.400   8.666 -0.9139 -1.6465  1.9158
16607WAT    EPW68235   0.154   9.361   8.651 -0.2581 -0.0124  0.6475
16608WAT      O68236   3.535   9.058   3.506  0.3238 -0.2770 -0.0300
16608WAT     H168237   3.620   9.015   3.500  0.0446 -1.0492  1.0993
16608WAT     H268238   3.499   9.028   3.590 -0.6028  0.8799  0.0132
16608WAT    EPW68239   3.541   9.048   3.517  0.1649 -0.2265  0.1247
16609WAT      O68240   2.102   3.470   8.747  1.1778 -0.1216  0.2988
16609WAT     H168241   2.160   3.468   8.671  0.6814  2.2103 -0.2117
16609WAT     H268242   2.133   3.545   8.798 -0.3519  0.1718  0.8465
16609WAT    EPW68243   2.114   3.480   8.744  0.9106  0.2246  0.3037
16610WAT      O68244   0.807   4.560   3.433 -0.4579 -0.5472  0.4592
16610WAT     H168245   0.713   4.554   3.453 -0.7348  0.1663 -0.5388
16610WAT     H268246   0.850   4.535   3.514 -1.5196  1.1164  1.6110
16610WAT    EPW68247   0.800   4.556   3.446 -0.6344 -0.2337  0.4795
16611WAT      O68248   7.439   4.515   2.376  0.4778 -0.5885  0.1257
16611WAT     H168249   7.429   4.553   2.464 -1.0650  1.5056 -0.8575
16611WAT     H268250   7.353   4.476   2.357  0.2993  0.2648 -0.9545
16611WAT    EPW68251   7.426   4.515   2.385  0.2508 -0.1996 -0.1465
16612WAT      O68252   2.270   2.341   3.868  0.2908  0.2574 -0.2748
16612WAT     H168253   2.202   2.373   3.809 -0.2995 -1.7637 -0.7851
16612WAT     H268254   2.324   2.417   3.886 -1.0798  1.5321 -1.2738
16612WAT    EPW68255   2.268   2.355   3.863  0.0322  0.1590 -0.4739
16613WAT      O68256   2.560   7.031   2.376 -0.4961 -0.0295 -0.3786
16613WAT     H168257   2.496   6.960   2.376 -0.8715  0.2827  0.8037
16613WAT     H268258   2.522   7.097   2.318 -1.4042  0.2594  0.5033
16613WAT    EPW68259   2.546   7.030   2.368 -0.6653  0.0498 -0.1063
16614WAT      O68260   0.883   8.485   2.784 -0.2903  0.1966 -0.2952
16614WAT     H168261   0.907   8.486   2.692 -2.2149  3.5638 -0.8914
16614WAT     H268262   0.802   8.535   2.790 -2.2806 -2.8657  2.8216
16614WAT    EPW68263   0.876   8.492   2.773 -0.8066  0.2370  0.0373
16615WAT      O68264   3.361   2.408   1.076  0.0311  0.8409  0.1819
16615WAT     H168265   3.273   2.382   1.104 -0.0398  2.0237  1.1575
16615WAT     H268266   3.395   2.332   1.029 -1.3592  0.2200  0.1326
16615WAT    EPW68267   3.354   2.395   1.073 -0.1616  0.9151  0.3041
16616WAT      O68268   0.187   7.157   7.516 -0.0944 -0.0679 -0.9867
16616WAT     H168269   0.092   7.164   7.505 -0.0377  1.5968 -0.6357
16616WAT     H268270   0.214   7.098   7.446 -1.4892 -1.4429 -0.4500
16616WAT    EPW68271   0.178   7.150   7.505 -0.2708 -0.0298 -0.8695
16617WAT      O68272   7.131   5.194   3.037 -1.5008  0.2954  0.1504
16617WAT     H168273   7.159   5.139   2.964 -0.1683  0.2189  0.6806
16617WAT     H268274   7.084   5.133   3.095 -0.2724 -0.2489  0.6029
16617WAT    EPW68275   7.128   5.179   3.035 -1.1630  0.2134  0.2800
16618WAT      O68276   6.457   4.973   0.612 -0.0074 -0.3054 -0.1685
16618WAT     H168277   6.545   4.937   0.615  1.0809  1.9590 -1.9623
16618WAT     H268278   6.444   5.013   0.699  1.5294  0.9511 -0.4703
16618WAT    EPW68279   6.467   4.974   0.624  0.3386  0.1590 -0.4449
16619WAT      O68280   3.787   8.937   2.887  0.2103  0.4858  0.1017
16619WAT     H168281   3.704   8.945   2.840  0.6267  0.9857 -0.5571
16619WAT     H268282   3.835   8.868   2.840 -0.4730 -1.0062  1.4733
16619WAT    EPW68283   3.782   8.929   2.875  0.1750  0.3548  0.1957
16620WAT      O68284   2.326   1.901   8.237 -0.3625 -0.2710 -0.3643
16620WAT     H168285   2.313   1.878   8.145  0.2717  1.0950 -0.8281
16620WAT     H268286   2.407   1.856   8.262 -0.4863 -0.5721 -0.5059
16620WAT    EPW68287   2.335   1.892   8.228 -0.2953 -0.1306 -0.4444
16621WAT      O68288   3.841   3.498   2.392  0.5771 -0.4906  0.2128
16621WAT     H168289   3.834   3.436   2.320 -1.1421 -1.3233  1.0341
16621WAT     H268290   3.758   3.490   2.439  0.2105  2.4962  0.3133
16621WAT    EPW68291   3.829   3.489   2.389  0.3020 -0.2065  0.3344
16622WAT      O68292   9.886   0.416   0.108  0.6312  0.0599 -0.2243
16622WAT     H168293   9.937   0.338   0.129  0.5334  0.3556  1.2581
16622WAT     H268294   9.895   0.426   0.014 -2.5803 -4.0475 -1.2677
16622WAT    EPW68295   9.894   0.407   0.099  0.1941 -0.4429 -0.1664
16623WAT      O68296   2.491   0.200   0.895  0.2460 -0.7977  0.1644
16623WAT     H168297   2.398   0.195   0.874  0.6815 -1.1435 -1.9910
16623WAT     H268298   2.520   0.283   0.857  1.2197 -1.7228 -1.2163
16623WAT    EPW68299   2.483   0.210   0.887  0.4319 -0.9653 -0.3020
16624WAT      O68300  -0.145   3.423   5.333 -0.4251 -0.0534  0.8082
16624WAT     H168301  -0.094   3.479   5.276 -1.8795  0.1762 -0.3172
16624WAT     H268302  -0.148   3.339   5.287  1.0396 -0.8602  2.0852
16624WAT    EPW68303  -0.139   3.419   5.320 -0.4237 -0.1295  0.8280
16625WAT      O68304   0.476   1.790   7.649  0.0463  0.0156 -0.4343
16625WAT     H168305   0.401   1.737   7.677 -0.9657  2.0606  0.9011
16625WAT     H268306   0.544   1.770   7.713 -0.2739  0.1827 -0.0351
16625WAT    EPW68307   0.475   1.780   7.661 -0.1294  0.3073 -0.2055
16626WAT      O68308  -5.893   5.342   8.032  0.2906  0.4200  0.1967
16626WAT     H168309  -5.851   5.332   8.118  0.8664  0.2235 -0.1018
16626WAT     H268310  -5.906   5.253   8.002 -0.1538  0.4869  0.1944
16626WAT    EPW68311  -5.889   5.329   8.040  0.3078  0.4029  0.1574
16627WAT      O68312  -5.860   8.037   6.400 -0.3093  0.1732 -0.7995
16627WAT     H168313  -5.900   8.081   6.325 -2.4322  1.4767  0.9553
16627WAT     H268314  -5.843   8.108   6.463 -0.7440 -1.0859  0.8115
16627WAT    EPW68315  -5.863   8.052   6.399 -0.6466  0.1788 -0.3555
16628WAT      O68316   6.474   2.704   2.014 -0.2214  0.0631  0.2293
16628WAT     H168317   6.437   2.658   1.938 -0.1024 -3.5214  2.1484
16628WAT     H268318   6.398   2.728   2.067 -0.4132  3.6827 -1.3652
16628WAT    EPW68319   6.459   2.701   2.011 -0.2310  0.0677  0.2722
16629WAT      O68320   1.257   8.836   3.923  0.3027  0.2103  0.5935
16629WAT     H168321   1.246   8.930   3.910 -0.7301  0.0198 -0.0815
16629WAT     H268322   1.215   8.796   3.846 -0.0403 -0.8240  1.2862
16629WAT    EPW68323   1.250   8.843   3.911  0.1212  0.0486  0.5958
16630WAT      O68324   5.583   9.143   0.064  0.2028  1.1155 -0.2235
16630WAT     H168325   5.621   9.055   0.068 -0.0636  0.9330 -1.4424
16630WAT     H268326   5.502   9.132   0.014  0.4854  2.1659 -0.9322
16630WAT    EPW68327   5.577   9.130   0.058  0.2050  1.2302 -0.4777
16631WAT      O68328   2.883   6.074   4.920 -0.3602  0.5325 -1.2531
16631WAT     H168329   2.808   6.071   4.979 -0.3214  0.0447 -1.2219
16631WAT     H268330   2.848   6.046   4.835  0.2949 -2.4997 -0.6604
16631WAT    EPW68331   2.869   6.070   4.916 -0.2688  0.0684 -1.1709
16632WAT      O68332  -2.971   0.199   5.221  0.3020  0.2345  0.1049
16632WAT     H168333  -3.056   0.181   5.182  1.1866 -0.7280 -1.5161
16632WAT     H268334  -2.927   0.114   5.223  0.8789  0.5394  1.8300
16632WAT    EPW68335  -2.976   0.185   5.216  0.4948  0.1478  0.1185
16633WAT      O68336   6.738   5.549   0.333 -0.0146  0.8507 -0.5849
16633WAT     H168337   6.793   5.604   0.277  1.1623  0.6681  0.3474
16633WAT     H268338   6.676   5.509   0.273  1.4029  0.4054 -1.8296
16633WAT    EPW68339   6.737   5.551   0.318  0.3276  0.7679 -0.6261
16634WAT      O68340   1.715   5.096   4.450  0.1894  0.2028 -0.8343
16634WAT     H168341   1.627   5.078   4.417 -0.1722 -0.4517  0.4292
16634WAT     H268342   1.707   5.091   4.545  1.4015  1.0904 -0.6545
16634WAT    EPW68343   1.703   5.093   4.458  0.3016  0.2337 -0.6440
16635WAT      O68344   0.622   5.917   6.435 -1.0519  0.3302 -0.1680
16635WAT     H168345   0.709   5.887   6.406 -1.8173 -0.5355 -1.6834
16635WAT     H268346   0.628   6.012   6.434 -0.4138  0.2948 -1.2196
16635WAT    EPW68347   0.634   5.925   6.431 -1.0687  0.2112 -0.5066
16636WAT      O68348   2.421   0.287   5.573  0.0426 -0.3323 -0.4533
16636WAT     H168349   2.367   0.287   5.494  0.7482  1.7212 -0.9870
16636WAT     H268350   2.358   0.303   5.644 -0.4587 -1.1729 -0.6947
16636WAT    EPW68351   2.405   0.289   5.572  0.0696 -0.1723 -0.5555
16637WAT      O68352   1.354   0.547   3.098  0.0803 -0.2862  0.8613
16637WAT     H168353   1.431   0.506   3.059  0.5158  2.0821 -1.0268
16637WAT     H268354   1.389   0.620   3.149 -0.8561  1.0721 -0.3493
16637WAT    EPW68355   1.369   0.552   3.100  0.0142  0.2053  0.4525
16638WAT      O68356   5.020   4.795   0.117 -0.3208 -0.2806  0.4130
16638WAT     H168357   4.962   4.815   0.191 -2.0552 -1.2301 -0.6214
16638WAT     H268358   5.097   4.756   0.157 -0.3506  1.0314  1.8522
16638WAT    EPW68359   5.022   4.793   0.132 -0.5536 -0.2329  0.4664
16639WAT      O68360   1.971   1.983   2.127 -0.4066  0.1438  0.3877
16639WAT     H168361   1.883   1.971   2.162  0.3223  1.0604  2.7160
16639WAT     H268362   2.020   2.026   2.197  1.8732 -0.1902 -0.8747
16639WAT    EPW68363   1.966   1.987   2.141 -0.0098  0.2207  0.5283
16640WAT      O68364   0.382   0.474   6.688 -0.0340  0.4875  0.0848
16640WAT     H168365   0.451   0.530   6.724 -0.0394 -0.9748  2.6009
16640WAT     H268366   0.310   0.535   6.669  1.4920  1.8934 -1.6372
16640WAT    EPW68367   0.382   0.490   6.690  0.1666  0.4801  0.1895
16641WAT      O68368   3.432   2.973   4.361 -0.1015 -0.6620  0.4156
16641WAT     H168369   3.417   2.879   4.352 -1.1615 -0.6478  1.6469
16641WAT     H268370   3.480   2.981   4.444  0.5404 -0.1601  0.0014
16641WAT    EPW68371   3.436   2.962   4.371 -0.1566 -0.5939  0.5233
16642WAT      O68372  -2.191   8.538   3.346  0.6636  0.6521 -0.4131
16642WAT     H168373  -2.241   8.555   3.426  1.0312 -0.0912 -0.0194
16642WAT     H268374  -2.099   8.536   3.375  0.7703 -0.0492 -0.7701
16642WAT    EPW68375  -2.185   8.540   3.360  0.7262  0.4616 -0.4083
16643WAT      O68376  -2.697   2.242   6.373 -0.4835  0.7878 -0.6448
16643WAT     H168377  -2.715   2.201   6.289 -0.6795  1.5237 -0.9680
16643WAT     H268378  -2.783   2.273   6.404 -0.6137 -0.5762  0.4189
16643WAT    EPW68379  -2.711   2.241   6.366 -0.5264  0.7050 -0.5472
16644WAT      O68380  -4.861   2.189   7.449  0.0452  0.4165 -0.0362
16644WAT     H168381  -4.817   2.107   7.470  2.3968  0.9700 -2.3431
16644WAT     H268382  -4.834   2.209   7.360 -3.1096  2.0759 -0.7565
16644WAT    EPW68383  -4.852   2.181   7.440 -0.0608  0.7085 -0.4356
16645WAT      O68384  -1.323   1.532   4.007  0.4782 -0.3244 -0.2432
16645WAT     H168385  -1.319   1.564   4.097  0.1098  2.3489 -1.0821
16645WAT     H268386  -1.384   1.458   4.011 -0.8742  0.7951  1.4455
16645WAT    EPW68387  -1.331   1.527   4.020  0.2512  0.1758 -0.1311
16646WAT      O68388  -0.670   5.176  -0.012 -0.1828 -0.3106 -0.0918
16646WAT     H168389  -0.661   5.179   0.083 -2.0522  1.9180  0.1273
16646WAT     H268390  -0.662   5.268  -0.039 -1.9636 -0.5718 -1.7660
16646WAT    EPW68391  -0.668   5.189  -0.003 -0.6642 -0.0513 -0.2837
16647WAT      O68392   9.004   3.061   0.019  0.2161 -0.6964 -0.3045
16647WAT     H168393   8.952   2.988   0.054 -1.0615  0.2770 -0.1013
16647WAT     H268394   8.973   3.138   0.067  0.8008  0.1498 -1.2427
16647WAT    EPW68395   8.993   3.061   0.030  0.1249 -0.4563 -0.4015
16648WAT      O68396   1.318   7.998   7.856 -0.2872  0.0015 -0.5553
16648WAT     H168397   1.222   7.998   7.850 -0.4740  4.9224 -2.9297
16648WAT     H268398   1.337   8.051   7.933  0.4870  0.2854 -0.9399
16648WAT    EPW68399   1.308   8.005   7.865 -0.2097  0.6881 -0.9191
16649WAT      O68400  -2.043   6.247   5.967 -0.1256  0.2837  0.0962
16649WAT     H168401  -2.053   6.190   6.043  1.1930 -0.7502 -0.4675
16649WAT     H268402  -2.093   6.204   5.898  1.9894 -1.0214 -0.7174
16649WAT    EPW68403  -2.051   6.234   5.968  0.3273 -0.0253 -0.0854
16650WAT      O68404   7.149   6.299   0.461 -0.4097  0.1917 -0.3055
16650WAT     H168405   7.146   6.375   0.402  1.1545 -0.4530 -1.2912
16650WAT     H268406   7.059   6.265   0.461 -0.6254  0.6994 -1.6968
16650WAT    EPW68407   7.136   6.304   0.453 -0.2317  0.1738 -0.6190
16651WAT      O68408  -1.797   1.531   2.101  0.9500  0.8505 -0.0102
16651WAT     H168409  -1.884   1.527   2.142 -0.0803  2.7807 -1.8143
16651WAT     H268410  -1.762   1.616   2.128  0.7911  1.5881 -1.9817
16651WAT    EPW68411  -1.804   1.541   2.110  0.7930  1.2023 -0.5081
16652WAT      O68412  -0.365   9.660   7.132 -0.6164  0.3676  0.2766
16652WAT     H168413  -0.371   9.645   7.037 -1.4131  0.6273  0.2860
16652WAT     H268414  -0.331   9.577   7.166 -1.1558 -0.0371 -0.1434
16652WAT    EPW68415  -0.361   9.647   7.124 -0.7927  0.3486  0.2224
16653WAT      O68416  -1.361   6.673   5.876  0.5262 -0.3294  0.3548
16653WAT     H168417  -1.415   6.670   5.797 -2.3533 -2.4370  2.1803
16653WAT     H268418  -1.407   6.733   5.934  1.6948 -0.0673  1.0424
16653WAT    EPW68419  -1.374   6.681   5.873  0.3006 -0.5727  0.6862
16654WAT      O68420   2.944   2.612   2.152  0.0165  0.0348  0.3997
16654WAT     H168421   3.009   2.545   2.130 -0.1017 -1.1226  3.2379
16654WAT     H268422   2.993   2.694   2.152  1.2143 -0.6547  1.2736
16654WAT    EPW68423   2.959   2.614   2.149  0.1589 -0.2087  0.8893
16655WAT      O68424   3.636   5.151   2.386  0.3482 -0.2618 -0.1670
16655WAT     H168425   3.670   5.115   2.468  0.6807  1.8964  0.7218
16655WAT     H268426   3.554   5.194   2.410  2.1383  3.5032 -0.0845
16655WAT    EPW68427   3.630   5.152   2.400  0.6281  0.5195 -0.0389
16656WAT      O68428  -3.555   7.700   2.343  0.2014  0.3218  0.8048
16656WAT     H168429  -3.645   7.711   2.374  0.6431 -0.0527  2.2880
16656WAT     H268430  -3.501   7.730   2.416  1.2864  0.8071 -0.1774
16656WAT    EPW68431  -3.560   7.706   2.357  0.4027  0.3366  0.8709
16657WAT      O68432   2.706   3.114   1.622  0.2218  0.4781  0.7425
16657WAT     H168433   2.733   3.134   1.712 -2.5227 -4.1788  2.9722
16657WAT     H268434   2.756   3.036   1.598 -0.1939  0.7608 -1.2199
16657WAT    EPW68435   2.716   3.106   1.631 -0.1950 -0.0989  0.7777
16658WAT      O68436   0.817   3.317   0.411  0.1699 -0.6833  0.2608
16658WAT     H168437   0.840   3.303   0.319  1.0126  0.1708  0.3169
16658WAT     H268438   0.745   3.257   0.428  0.3929 -1.2696 -0.7980
16658WAT    EPW68439   0.811   3.307   0.401  0.3105 -0.6480  0.1286
16659WAT      O68440  -1.821   5.625   0.229 -0.1260  0.3084 -0.9061
16659WAT     H168441  -1.773   5.691   0.278  0.4450 -0.4801 -0.3730
16659WAT     H268442  -1.860   5.569   0.296 -0.2805 -0.1135 -1.3412
16659WAT    EPW68443  -1.820   5.626   0.244 -0.0710  0.1488 -0.8932
16660WAT      O68444   2.815   4.680   4.516  0.7392 -0.5128  0.4976
16660WAT     H168445   2.865   4.665   4.436  2.1397 -2.0293  1.6080
16660WAT     H268446   2.726   4.652   4.494  0.8701  0.0128 -0.7960
16660WAT    EPW68447   2.810   4.674   4.503  0.9412 -0.6435  0.4735
16661WAT      O68448   4.066   4.825   4.758 -0.0415 -0.3177  0.1459
16661WAT     H168449   4.076   4.771   4.680  4.2496  0.8198 -0.3548
16661WAT     H268450   4.055   4.763   4.830  2.0770 -1.7894 -0.7098
16661WAT    EPW68451   4.066   4.810   4.757  0.8039 -0.3617 -0.0331
16662WAT      O68452  -1.500   4.955   8.205 -0.4169 -0.4709  0.4660
16662WAT     H168453  -1.525   5.028   8.261  2.7642 -1.7056  3.8591
16662WAT     H268454  -1.520   4.877   8.257 -1.7015 -2.0650 -2.1682
16662WAT    EPW68455  -1.506   4.954   8.219 -0.1667 -0.8440  0.5665
16663WAT      O68456   3.391   9.848   4.706 -0.0974  0.2479  0.1690
16663WAT     H168457   3.477   9.855   4.748 -0.4995 -0.9363  1.2433
16663WAT     H268458   3.349   9.774   4.750 -1.6473  0.7635 -0.3944
16663WAT    EPW68459   3.397   9.839   4.717 -0.3549  0.1597  0.2365
16664WAT      O68460  -1.805   7.068   5.042 -0.6473  0.2361  0.5551
16664WAT     H168461  -1.842   7.135   5.099  1.9101  2.4321 -0.1686
16664WAT     H268462  -1.777   7.116   4.964  0.1031 -1.9208 -0.5763
16664WAT    EPW68463  -1.806   7.083   5.039 -0.2111  0.2413  0.3104
16665WAT      O68464   1.571   1.380   7.116 -0.4369  0.1149 -1.0879
16665WAT     H168465   1.638   1.342   7.173  2.0590  0.5741 -3.5385
16665WAT     H268466   1.556   1.467   7.151  0.4130  0.0899 -0.6403
16665WAT    EPW68467   1.578   1.386   7.128  0.0044  0.1721 -1.3521
16666WAT      O68468   3.861  10.189   3.725 -0.5018  0.3932  0.4041
16666WAT     H168469   3.803  10.160   3.654  0.1849  0.6137 -0.2686
16666WAT     H268470   3.826  10.147   3.803 -1.8821  0.9259  0.1119
16666WAT    EPW68471   3.849  10.180   3.726 -0.5933  0.4926  0.2768
16667WAT      O68472   5.248   1.791   1.771 -0.2938  0.2767  0.1082
16667WAT     H168473   5.170   1.756   1.728  1.5065 -0.8707 -2.5134
16667WAT     H268474   5.233   1.885   1.778 -1.4961  0.2066 -1.2900
16667WAT    EPW68475   5.236   1.799   1.767 -0.2148  0.1161 -0.4220
16668WAT      O68476   3.363   9.935   3.452  0.1200 -0.4184  0.3315
16668WAT     H168477   3.440   9.913   3.400  0.2892  1.4566 -0.2864
16668WAT     H268478   3.298   9.869   3.428  1.0139 -1.0745 -0.3450
16668WAT    EPW68479   3.364   9.923   3.442  0.2604 -0.2570  0.1608
16669WAT      O68480   8.530   0.907   0.453 -0.0965 -0.2490  0.2892
16669WAT     H168481   8.581   0.986   0.469 -0.9671  0.6031 -0.9160
16669WAT     H268482   8.595   0.840   0.432  0.5618  0.7960 -1.1874
16669WAT    EPW68483   8.545   0.909   0.452 -0.1245  0.0012 -0.0645
16670WAT      O68484  -4.643   6.595   7.987  0.7182  0.4065 -0.1033
16670WAT     H168485  -4.646   6.581   7.893 -0.6838 -3.1838  0.2962
16670WAT     H268486  -4.557   6.564   8.014  0.6373  0.2069 -0.0732
16670WAT    EPW68487  -4.632   6.589   7.978  0.5226 -0.0935 -0.0467
16671WAT      O68488   3.358   9.240   1.349 -0.7139  0.1815  0.2269
16671WAT     H168489   3.441   9.219   1.306  0.2262  2.2827  0.8581
16671WAT     H268490   3.298   9.171   1.320  1.5522 -2.2056  0.8351
16671WAT    EPW68491   3.361   9.228   1.339 -0.2911  0.1435  0.3904
16672WAT      O68492   4.260  10.319   1.177 -0.1820 -0.3039 -0.0327
16672WAT     H168493   4.294  10.400   1.215  0.5451 -0.5364 -0.1770
16672WAT     H268494   4.335  10.279   1.134 -0.3432 -1.4660  0.7329
16672WAT    EPW68495   4.274  10.325   1.176 -0.1075 -0.4878  0.0493
16673WAT      O68496   5.623   0.838   2.740 -0.1264  0.1338  0.2146
16673WAT     H168497   5.687   0.839   2.669 -1.2018  2.0794 -0.8069
16673WAT     H268498   5.675   0.821   2.819  1.7933  2.2873 -0.4875
16673WAT    EPW68499   5.638   0.836   2.741 -0.0150  0.6745 -0.0128
16674WAT      O68500   7.845   0.524   2.946 -0.0640  0.6395 -0.1520
16674WAT     H168501   7.777   0.511   3.012 -0.2870 -1.6406 -0.7280
16674WAT     H268502   7.816   0.472   2.871  2.3782 -0.5778 -0.3520
16674WAT    EPW68503   7.833   0.515   2.945  0.2289  0.1782 -0.2543
16675WAT      O68504  -4.260  10.037   1.534 -0.4672 -0.4900 -0.4828
16675WAT     H168505  -4.204  10.112   1.512 -0.3156 -0.3979  0.1857
16675WAT     H268506  -4.261  10.036   1.630 -0.5246 -1.3010 -0.4858
16675WAT    EPW68507  -4.252  10.047   1.544 -0.4547 -0.5846 -0.3951
16676WAT      O68508  -4.785   3.208   8.280 -0.8528  0.1273  0.3900
16676WAT     H168509  -4.861   3.263   8.259 -1.0033 -0.3748 -0.4422
16676WAT     H268510  -4.767   3.225   8.372 -2.1277  0.0798  0.6660
16676WAT    EPW68511  -4.793   3.217   8.289 -1.0409  0.0548  0.3166
16677WAT      O68512   4.912   8.845   1.580 -0.3837 -0.1557  0.0867
16677WAT     H168513   4.824   8.880   1.572 -0.2535  0.3305  0.7521
16677WAT     H268514   4.920   8.783   1.507 -1.5201 -0.7413  0.4410
16677WAT    EPW68515   4.902   8.841   1.569 -0.5164 -0.1693  0.2212
16678WAT      O68516   0.620   6.383   0.370  0.3246  0.0049  0.4572
16678WAT     H168517   0.689   6.415   0.312 -2.0327  1.1786 -1.9036
16678WAT     H268518   0.642   6.419   0.456  2.9516 -0.2383 -0.0438
16678WAT    EPW68519   0.632   6.392   0.374  0.3602  0.1276  0.0797
16679WAT      O68520   2.306   9.313   4.520 -0.0909  0.6863  0.0011
16679WAT     H168521   2.299   9.230   4.474  1.2185  1.3930 -1.5736
16679WAT     H268522   2.234   9.311   4.584 -1.2429 -0.8531 -1.2572
16679WAT    EPW68523   2.295   9.302   4.522 -0.0701  0.5765 -0.3724
16680WAT      O68524   6.604   4.152   2.239  0.1551 -0.8155  0.5787
16680WAT     H168525   6.559   4.173   2.321  0.3847 -0.5521  0.6395
16680WAT     H268526   6.610   4.056   2.239 -1.7546 -0.9845 -0.1556
16680WAT    EPW68527   6.599   4.142   2.250 -0.0665 -0.8032  0.4900
16681WAT      O68528   4.906   8.256   1.424 -0.1371  0.9196  0.3692
16681WAT     H168529   4.833   8.221   1.476 -1.2987  1.0335 -1.1103
16681WAT     H268530   4.969   8.184   1.419 -1.2168 -0.0170 -0.2745
16681WAT    EPW68531   4.904   8.242   1.431 -0.4327  0.8116  0.0892
16682WAT      O68532  -3.415   7.522   1.472  0.0817  0.0373  0.3619
16682WAT     H168533  -3.328   7.557   1.455  0.5413  0.0784  2.5196
16682WAT     H268534  -3.462   7.533   1.389  1.2639  2.6301 -0.0674
16682WAT    EPW68535  -3.410   7.528   1.459  0.2983  0.3846  0.5898
16683WAT      O68536   0.899   6.436   4.296  0.2593  0.0340 -0.4710
16683WAT     H168537   0.829   6.411   4.236  0.2585  1.6401 -1.2208
16683WAT     H268538   0.859   6.499   4.355  1.3231  2.1766 -1.8739
16683WAT    EPW68539   0.885   6.441   4.296  0.3995  0.5283 -0.7551
16684WAT      O68540   0.228   2.634   5.809  0.7046 -0.6210  0.4765
16684WAT     H168541   0.255   2.542   5.816  0.1184 -0.9331 -0.9615
16684WAT     H268542   0.202   2.644   5.717 -1.7396  0.2651  1.1915
16684WAT    EPW68543   0.228   2.623   5.798  0.3049 -0.5453  0.3810
16685WAT      O68544   7.392   1.005   5.210  0.3377 -0.3229  0.2173
16685WAT     H168545   7.324   1.071   5.222 -0.4340 -1.1532  0.5638
16685WAT     H268546   7.457   1.047   5.153  0.2128  0.9658  0.9811
16685WAT    EPW68547   7.391   1.019   5.204  0.2196 -0.2625  0.3638
16686WAT      O68548   0.616   0.242   8.254  0.2192  0.1510  0.8024
16686WAT     H168549   0.630   0.311   8.190 -2.0520  0.2933  0.3617
16686WAT     H268550   0.569   0.285   8.325 -2.2339 -1.0634  0.0340
16686WAT    EPW68551   0.612   0.257   8.255 -0.4039  0.0096  0.6433
16687WAT      O68552  -6.339   9.444   8.286 -0.2119 -0.4729  0.0790
16687WAT     H168553  -6.359   9.367   8.339 -2.2685 -0.6941 -0.8860
16687WAT     H268554  -6.272   9.491   8.335 -0.1007 -2.0317  1.4990
16687WAT    EPW68555  -6.333   9.440   8.299 -0.4685 -0.7071  0.1388
16688WAT      O68556   0.574   5.554   8.901  0.5041 -0.6567  0.1096
16688WAT     H168557   0.610   5.517   8.821  0.0816 -0.1792 -0.3128
16688WAT     H268558   0.604   5.645   8.901 -0.0929 -0.4548  0.1182
16688WAT    EPW68559   0.583   5.561   8.891  0.3696 -0.5672  0.0548
16689WAT      O68560   3.604   7.327   7.653  0.7754 -0.2956  0.3510
16689WAT     H168561   3.657   7.400   7.622 -1.3930  0.4160 -1.9422
16689WAT     H268562   3.519   7.338   7.611  0.2250 -3.9870  0.0954
16689WAT    EPW68563   3.600   7.338   7.644  0.4169 -0.6888  0.0148
16690WAT      O68564   1.412   2.175   0.719 -0.6074 -0.0755  0.4566
16690WAT     H168565   1.406   2.081   0.734 -1.0848 -0.0313  0.5700
16690WAT     H268566   1.443   2.211   0.801 -0.4482 -0.1314  0.4210
16690WAT    EPW68567   1.415   2.167   0.732 -0.6493 -0.0770  0.4669
16691WAT      O68568  -0.547   6.822   8.606  0.1386 -0.2191 -0.7279
16691WAT     H168569  -0.501   6.802   8.524 -0.0698 -2.0177 -0.4430
16691WAT     H268570  -0.635   6.848   8.578 -0.4409 -2.3430 -1.0709
16691WAT    EPW68571  -0.552   6.823   8.591  0.0347 -0.7365 -0.7358
16692WAT      O68572   1.430   8.562   1.549  0.0085  0.2569 -0.2552
16692WAT     H168573   1.358   8.593   1.604 -0.0362 -0.3671  0.0408
16692WAT     H268574   1.486   8.639   1.539 -0.4204  0.6058 -0.0444
16692WAT    EPW68575   1.428   8.576   1.555 -0.0540  0.2208 -0.1884
16693WAT      O68576  -2.397   9.130   7.660 -0.7776  0.0150 -0.3798
16693WAT     H168577  -2.343   9.117   7.738  0.7462  0.8726 -1.2507
16693WAT     H268578  -2.421   9.042   7.633  2.2183 -0.6411 -1.3173
16693WAT    EPW68579  -2.393   9.117   7.667 -0.1813  0.0415 -0.6187
16694WAT      O68580   6.918   7.271   1.042  0.4949  0.4801  0.3312
16694WAT     H168581   6.837   7.281   0.993  0.8095  1.0693 -0.0702
16694WAT     H268582   6.890   7.241   1.129 -0.0471 -0.8534 -0.2749
16694WAT    EPW68583   6.904   7.268   1.047  0.4649  0.3819  0.1983
16695WAT      O68584   1.151   4.589   7.493  0.2009 -0.0167 -0.4409
16695WAT     H168585   1.109   4.520   7.544 -2.0020  3.2900  2.7777
16695WAT     H268586   1.222   4.619   7.549  0.4325  1.0225 -1.2663
16695WAT    EPW68587   1.155   4.584   7.507 -0.0592  0.5565 -0.1252
16696WAT      O68588  -3.241  10.313   3.516  0.1649  0.0894  0.3082
16696WAT     H168589  -3.177  10.242   3.516  0.6427  0.4972  1.5570
16696WAT     H268590  -3.319  10.276   3.558  0.6534  0.4826  1.6049
16696WAT    EPW68591  -3.243  10.299   3.521  0.2923  0.1950  0.6438
16697WAT      O68592  -1.938   8.130   3.846 -0.6168  0.5682 -0.9353
16697WAT     H168593  -1.909   8.053   3.896  2.1598  3.5424  2.6423
16697WAT     H268594  -1.858   8.164   3.807 -1.5241  2.3652 -1.2902
16697WAT    EPW68595  -1.923   8.124   3.848 -0.3703  1.1978 -0.5102
16698WAT      O68596   4.176   1.301   2.462  0.2373  0.2155  0.1217
16698WAT     H168597   4.089   1.271   2.434 -0.0754  1.1792  0.0331
16698WAT     H268598   4.236   1.249   2.409 -0.3370  1.7822 -2.2375
16698WAT    EPW68599   4.172   1.290   2.451  0.1204  0.5492 -0.2011
16699WAT      O68600  -3.900   8.903   1.682  0.5490  0.0204  1.2489
16699WAT     H168601  -3.855   8.913   1.598  0.5342 -1.3050  1.0653
16699WAT     H268602  -3.924   8.993   1.707  2.5154  0.6819  0.9361
16699WAT    EPW68603  -3.897   8.916   1.674  0.8066 -0.0672  1.1835
16700WAT      O68604   0.381   1.007   5.411  0.3992 -0.6357 -0.8134
16700WAT     H168605   0.379   0.916   5.380 -0.7181 -0.9752  0.1972
16700WAT     H268606   0.291   1.037   5.400  0.7459  0.3403 -1.0575
16700WAT    EPW68607   0.369   0.999   5.405  0.2975 -0.5517 -0.7122
16701WAT      O68608   4.659   2.268   0.113  0.0401 -0.3473 -0.2910
16701WAT     H168609   4.569   2.300   0.111  0.7028  1.6946 -2.7801
16701WAT     H268610   4.713   2.346   0.096  2.2281 -1.6640  0.1975
16701WAT    EPW68611   4.655   2.283   0.110  0.4160 -0.2517 -0.5549
16702WAT      O68612   3.178   7.667   6.218  0.4269  0.1619  0.2707
16702WAT     H168613   3.198   7.644   6.309  0.7580 -3.4800 -0.5632
16702WAT     H268614   3.089   7.635   6.203  1.3948 -2.0207 -1.3774
16702WAT    EPW68615   3.169   7.660   6.228  0.5982 -0.6063 -0.0567
16703WAT      O68616   3.176   8.615   3.230  0.4522 -0.1746 -0.5098
16703WAT     H168617   3.133   8.692   3.192 -1.6688 -1.1692 -0.2224
16703WAT     H268618   3.166   8.626   3.325 -0.1204 -0.9332 -0.4762
16703WAT    EPW68619   3.169   8.627   3.238  0.0969 -0.4058 -0.4674
16704WAT      O68620  -4.048   4.038   7.496 -0.5958  0.3120  0.0418
16704WAT     H168621  -4.010   4.065   7.413  1.5299  0.3559  0.9541
16704WAT     H268622  -4.068   3.945   7.484  0.0618  0.2186 -0.4125
16704WAT    EPW68623  -4.045   4.029   7.484 -0.2286  0.3057  0.1023
16705WAT      O68624   4.687   2.346   4.518 -0.1305 -0.0004  0.2321
16705WAT     H168625   4.658   2.326   4.428 -2.2194 -2.3756  1.3028
16705WAT     H268626   4.771   2.301   4.526  1.8044  3.0025 -1.4518
16705WAT    EPW68627   4.694   2.337   4.507 -0.1509  0.0825  0.1512
16706WAT      O68628   3.816   7.066   5.127  0.0851 -0.8117  0.6160
16706WAT     H168629   3.859   7.022   5.053  1.7363  1.3610  0.1900
16706WAT     H268630   3.879   7.058   5.199 -0.3320 -0.5906  1.0106
16706WAT    EPW68631   3.830   7.059   5.127  0.2478 -0.4959  0.6120
16707WAT      O68632   2.652   9.020   1.922  0.1115  0.5475  0.9896
16707WAT     H168633   2.641   9.033   1.828 -3.2904 -1.0440  1.0254
16707WAT     H268634   2.624   9.103   1.961 -0.9445  0.3572  0.6543
16707WAT    EPW68635   2.647   9.033   1.915 -0.4765  0.3123  0.9502
16708WAT      O68636   5.578   4.672   3.784 -0.2364  0.4013 -0.7678
16708WAT     H168637   5.579   4.754   3.835 -1.3828  0.2021 -0.4076
16708WAT     H268638   5.486   4.647   3.781 -0.0349 -0.2509 -1.9056
16708WAT    EPW68639   5.566   4.680   3.791 -0.3610  0.2890 -0.8703
16709WAT      O68640  -5.475   8.847   6.905 -0.6617 -0.3450  0.1320
16709WAT     H168641  -5.541   8.852   6.974  0.5767 -0.6130  1.3638
16709WAT     H268642  -5.414   8.917   6.924 -0.8669  0.2712 -1.3375
16709WAT    EPW68643  -5.476   8.857   6.916 -0.5252 -0.2990  0.1009
16710WAT      O68644   2.939   7.642   5.832  1.0384 -0.0244  0.6315
16710WAT     H168645   2.861   7.698   5.826  0.5924 -0.7549 -0.8573
16710WAT     H268646   2.956   7.634   5.926 -2.1402 -1.7931  1.1886
16710WAT    EPW68647   2.931   7.648   5.843  0.5603 -0.3543  0.5085
16711WAT      O68648  -7.531  10.207   8.867 -0.1315 -0.3045 -0.4726
16711WAT     H168649  -7.515  10.116   8.842  0.1306 -0.1638 -0.8208
16711WAT     H268650  -7.446  10.238   8.899 -0.2628 -0.2302 -0.1884
16711WAT    EPW68651  -7.518  10.199   8.868 -0.1144 -0.2766 -0.4811
16712WAT      O68652   2.177   8.639   0.823 -0.6211  0.0436 -0.2878
16712WAT     H168653   2.261   8.595   0.839 -0.4812  0.2024 -0.5844
16712WAT     H268654   2.113   8.568   0.822 -0.4452 -0.1149 -0.3916
16712WAT    EPW68655   2.180   8.624   0.825 -0.5795  0.0434 -0.3406
16713WAT      O68656  -5.423   9.478   4.145 -0.1624  0.1431 -0.4853
16713WAT     H168657  -5.444   9.532   4.068 -0.8373  0.8979  0.2152
16713WAT     H268658  -5.328   9.468   4.141  0.2386  2.8270  0.2551
16713WAT    EPW68659  -5.413   9.484   4.134 -0.1984  0.5965 -0.2954
16714WAT      O68660   4.674   0.166   2.886  0.4518  0.2349  0.7033
16714WAT     H168661   4.604   0.115   2.844 -1.1142  1.5511  1.6226
16714WAT     H268662   4.748   0.157   2.826 -0.9442 -0.0082 -1.0855
16714WAT    EPW68663   4.675   0.158   2.872  0.0610  0.3764  0.5887
16715WAT      O68664  -6.528   6.277   7.951  0.5563  0.4249 -0.0926
16715WAT     H168665  -6.601   6.299   8.008  1.6105 -0.0716  1.4925
16715WAT     H268666  -6.540   6.334   7.874 -0.9003  1.0738  0.5718
16715WAT    EPW68667  -6.540   6.287   7.948  0.5033  0.4451  0.2041
16716WAT      O68668   1.708   7.661   4.409  0.2388  0.2862 -0.7332
16716WAT     H168669   1.637   7.598   4.397 -0.9008  1.5144 -0.7047
16716WAT     H268670   1.745   7.640   4.495 -0.4073 -0.0731 -0.5369
16716WAT    EPW68671   1.703   7.650   4.419  0.0033  0.4008 -0.7036
16717WAT      O68672  -0.256   2.152   4.808 -0.4588 -0.3374 -0.4933
16717WAT     H168673  -0.248   2.099   4.729 -2.5437 -0.7027 -0.5254
16717WAT     H268674  -0.274   2.089   4.878  1.5905 -0.0395  0.3649
16717WAT    EPW68675  -0.257   2.137   4.807 -0.4635 -0.3463 -0.3843
16718WAT      O68676  -0.025   6.327   4.206  0.6274  0.4639  0.2514
16718WAT     H168677  -0.087   6.274   4.257  1.0368 -0.0200  0.2513
16718WAT     H268678   0.054   6.331   4.260  1.2898 -0.5823 -0.5980
16718WAT    EPW68679  -0.023   6.320   4.219  0.7688  0.2623  0.1395
16719WAT      O68680   3.197   8.828   1.575  1.1777 -0.2697 -0.5809
16719WAT     H168681   3.130   8.791   1.517  0.8702 -1.0739  0.2603
16719WAT     H268682   3.235   8.752   1.618  2.2206  0.2347 -0.5953
16719WAT    EPW68683   3.193   8.813   1.573  1.2747 -0.3095 -0.4718
16720WAT      O68684   4.320   2.877   3.824  0.0553  0.2678 -0.2100
16720WAT     H168685   4.397   2.872   3.880 -0.5284 -2.0620  0.4809
16720WAT     H268686   4.309   2.789   3.790 -2.2451  0.5441 -0.3540
16720WAT    EPW68687   4.329   2.865   3.827 -0.3252 -0.0031 -0.1379
16721WAT      O68688   2.108   4.148   6.076  0.8525  0.0417 -0.2208
16721WAT     H168689   2.087   4.119   5.987  0.0772 -0.6532  0.1784
16721WAT     H268690   2.155   4.230   6.064  1.7893 -0.6228 -1.3261
16721WAT    EPW68691   2.111   4.155   6.063  0.8738 -0.1378 -0.3140
16722WAT      O68692   1.360   3.177   5.155  0.0873 -0.1265 -0.4966
16722WAT     H168693   1.266   3.178   5.171 -0.0332  3.9589 -0.3938
16722WAT     H268694   1.373   3.239   5.083  2.7463 -0.1602 -0.1622
16722WAT    EPW68695   1.350   3.185   5.147  0.4221  0.4078 -0.4387
16723WAT      O68696   3.351   8.169   0.424 -0.1403 -0.3975  0.0377
16723WAT     H168697   3.263   8.132   0.424  0.2378 -1.3374  0.7406
16723WAT     H268698   3.359   8.213   0.509  0.6116 -1.7102  0.6721
16723WAT    EPW68699   3.340   8.170   0.435  0.0087 -0.6948  0.2141
16724WAT      O68700   2.351   0.248   3.803  0.0628 -0.5452 -0.5835
16724WAT     H168701   2.366   0.176   3.742 -1.7198  0.0224 -1.7970
16724WAT     H268702   2.312   0.317   3.749  0.0212  0.6498  0.8918
16724WAT    EPW68703   2.348   0.248   3.788 -0.1779 -0.3127 -0.5490
16725WAT      O68704  -3.268   8.228   1.962 -0.3372 -0.4491  0.0469
16725WAT     H168705  -3.346   8.282   1.953  0.5943  0.8125 -0.9234
16725WAT     H268706  -3.274   8.164   1.890 -0.4773 -0.3482 -0.0298
16725WAT    EPW68707  -3.279   8.226   1.951 -0.2328 -0.2694 -0.0912
16726WAT      O68708   5.402   4.140   0.136  0.7970  0.1883  0.2422
16726WAT     H168709   5.401   4.221   0.084  0.4229  0.1968  0.2606
16726WAT     H268710   5.491   4.135   0.170  1.1327  0.0380 -0.6335
16726WAT    EPW68711   5.413   4.150   0.133  0.7918  0.1695  0.1291
16727WAT      O68712  -5.583   4.476   6.854  0.1194  0.7370  0.6287
16727WAT     H168713  -5.493   4.482   6.887 -0.2022  0.3129  1.6129
16727WAT     H268714  -5.613   4.389   6.881 -0.2011  0.4238 -0.7043
16727WAT    EPW68715  -5.575   4.466   6.862  0.0348  0.6399  0.5827
16728WAT      O68716   6.293   5.058   1.679 -0.6773  0.0789  0.5078
16728WAT     H168717   6.379   5.090   1.705 -0.1968 -1.9929  1.6293
16728WAT     H268718   6.248   5.136   1.646  0.8227  1.6492  1.9686
16728WAT    EPW68719   6.298   5.072   1.678 -0.4160  0.0129  0.8484
16729WAT      O68720   5.921   4.059   2.174 -0.0339  0.2012 -0.1385
16729WAT     H168721   5.981   4.131   2.192  0.0699  0.2106 -0.5064
16729WAT     H268722   5.915   4.011   2.256  1.5690 -0.6189 -0.4613
16729WAT    EPW68723   5.928   4.062   2.187  0.1910  0.0944 -0.2296
16730WAT      O68724  -1.686   4.483   7.842 -0.4113  0.5823  0.0913
16730WAT     H168725  -1.768   4.493   7.890 -1.0601 -0.0025 -0.8612
16730WAT     H268726  -1.658   4.393   7.862 -1.7607 -0.4352 -2.1695
16730WAT    EPW68727  -1.693   4.472   7.851 -0.6749  0.3712 -0.3326
16731WAT      O68728   5.540   1.930   4.223 -0.2217 -0.4364 -0.0475
16731WAT     H168729   5.540   2.021   4.193 -0.3103 -0.0955  0.9433
16731WAT     H268730   5.631   1.914   4.247 -0.7140  0.4828  2.8490
16731WAT    EPW68731   5.552   1.940   4.222 -0.2983 -0.2702  0.4649
16732WAT      O68732   1.685   5.459   2.630  0.2122  0.3272 -0.0685
16732WAT     H168733   1.635   5.408   2.694  1.3479  0.7197  1.1899
16732WAT     H268734   1.761   5.490   2.679  2.1716 -0.9384 -2.1053
16732WAT    EPW68735   1.689   5.457   2.645  0.6205  0.2120 -0.1712
16733WAT      O68736  -3.817   6.887   7.423 -0.3808 -0.4952  0.3722
16733WAT     H168737  -3.821   6.858   7.332  0.7013 -0.6482  0.3670
16733WAT     H268738  -3.731   6.928   7.433 -0.4865 -0.4622  1.3177
16733WAT    EPW68739  -3.807   6.888   7.413 -0.2520 -0.5112  0.4961
16734WAT      O68740   1.694   8.995   3.705  0.0031 -0.5931  0.2521
16734WAT     H168741   1.744   9.037   3.776 -1.1251  1.0219  0.1408
16734WAT     H268742   1.660   8.914   3.745 -0.0274 -0.0610  1.3426
16734WAT    EPW68743   1.696   8.990   3.720 -0.1497 -0.3099  0.3812
16735WAT      O68744  -7.368   8.755   8.142  0.2762  0.3114  0.8073
16735WAT     H168745  -7.376   8.844   8.174 -1.9270  0.3529  0.3346
16735WAT     H268746  -7.396   8.700   8.215 -2.7823  0.3128 -0.2115
16735WAT    EPW68747  -7.373   8.759   8.156 -0.4177  0.3171  0.6108
16736WAT      O68748  -2.724   7.357   8.350 -0.4687  0.1147  0.0786
16736WAT     H168749  -2.665   7.289   8.319  0.4724  0.7812  0.3746
16736WAT     H268750  -2.806   7.341   8.303  0.0430 -0.6276 -0.5723
16736WAT    EPW68751  -2.727   7.346   8.340 -0.2770  0.1047  0.0319
16737WAT      O68752   7.202   1.894   2.723  0.3498 -0.3860 -0.3271
16737WAT     H168753   7.153   1.961   2.770 -0.4906 -1.0962 -0.1713
16737WAT     H268754   7.291   1.901   2.757 -0.0011 -0.1514  0.5634
16737WAT    EPW68755   7.207   1.904   2.734  0.1926 -0.4488 -0.1891
16738WAT      O68756  -2.137   9.708   8.895 -0.1762  0.3870  0.4466
16738WAT     H168757  -2.143   9.720   8.801  2.3023 -1.4476 -0.0379
16738WAT     H268758  -2.225   9.679   8.921 -1.0968  1.5816 -1.1271
16738WAT    EPW68759  -2.150   9.706   8.886  0.0292  0.3033  0.1755
16739WAT      O68760  -1.744   9.813   8.774  0.0878  1.3132  0.9532
16739WAT     H168761  -1.779   9.874   8.708  0.7546  0.4209 -0.2622
16739WAT     H268762  -1.777   9.727   8.746  1.7994  0.6914  0.7623
16739WAT    EPW68763  -1.753   9.810   8.761  0.4015  1.1139  0.7677
16740WAT      O68764   8.604   2.562   1.999  0.5511  0.3827 -0.0767
16740WAT     H168765   8.539   2.564   1.929 -0.1972  1.8542  0.6092
16740WAT     H268766   8.688   2.571   1.954  0.0337  2.1911 -0.7534
16740WAT    EPW68767   8.607   2.563   1.984  0.3843  0.8153 -0.0755
16741WAT      O68768   1.918   8.627   2.916  0.5188  0.0059 -0.5565
16741WAT     H168769   1.992   8.636   2.855  1.0394 -0.1994  0.0294
16741WAT     H268770   1.844   8.665   2.870  1.1885  1.0327 -0.8090
16741WAT    EPW68771   1.918   8.633   2.902  0.6759  0.1144 -0.5125
16742WAT      O68772   2.668   4.872   2.085  0.5458 -0.2909 -0.1902
16742WAT     H168773   2.659   4.936   2.014  2.1311 -0.3442 -0.4767
16742WAT     H268774   2.752   4.830   2.068 -0.3828 -2.3969  0.0533
16742WAT    EPW68775   2.678   4.875   2.073  0.6324 -0.5758 -0.1959
16743WAT      O68776   2.757  10.231   2.963  0.0633  0.2422 -0.2992
16743WAT     H168777   2.719  10.318   2.972 -0.5172 -0.0200 -0.1206
16743WAT     H268778   2.717  10.180   3.034  3.0148  0.6779  1.8543
16743WAT    EPW68779   2.746  10.236   2.973  0.3759  0.2646  0.0085
16744WAT      O68780  -1.618  10.196   6.512  0.0446 -0.1156 -0.4896
16744WAT     H168781  -1.550  10.135   6.543  0.0286 -0.9034 -1.9107
16744WAT     H268782  -1.692  10.140   6.491  0.2921  0.2699 -2.5650
16744WAT    EPW68783  -1.619  10.180   6.514  0.0751 -0.1688 -0.9508
16745WAT      O68784   2.678   0.466   8.958 -0.1302  0.0534  0.0421
16745WAT     H168785   2.586   0.442   8.970  0.0028 -1.5861 -1.6636
16745WAT     H268786   2.679   0.516   8.876  0.4807  0.2488  0.1659
16745WAT    EPW68787   2.666   0.469   8.949 -0.0321 -0.1371 -0.1669
16746WAT      O68788   5.117   5.376   2.674 -0.9302  0.2842  0.3992
16746WAT     H168789   5.163   5.453   2.708 -0.4562  0.3817 -0.4310
16746WAT     H268790   5.055   5.411   2.611  0.3749 -0.1039 -1.1521
16746WAT    EPW68791   5.115   5.391   2.670 -0.6955  0.2460  0.0852
16747WAT      O68792  -1.790   6.005   6.136 -0.1656  0.6297  0.0357
16747WAT     H168793  -1.718   6.039   6.190  0.5177 -0.3621 -0.2305
16747WAT     H268794  -1.774   6.043   6.050 -1.2436  2.1954  0.4830
16747WAT    EPW68795  -1.778   6.015   6.132 -0.2177  0.7055  0.0596
16748WAT      O68796   0.230   7.951   4.101 -0.0627 -0.3697  0.4483
16748WAT     H168797   0.277   7.876   4.137  0.8520  0.6027  1.3643
16748WAT     H268798   0.222   8.011   4.175 -1.1200  0.2719 -0.1712
16748WAT    EPW68799   0.235   7.949   4.116 -0.0816 -0.1566  0.4873
16749WAT      O68800   3.337   3.106   1.941 -0.2695 -0.3062  0.3283
16749WAT     H168801   3.324   3.095   2.035  0.4648 -1.3589  0.3280
16749WAT     H268802   3.296   3.029   1.902  2.4581 -1.7735  0.0813
16749WAT    EPW68803   3.330   3.095   1.948  0.1872 -0.6386  0.2958
16750WAT      O68804  -0.543  10.203   5.424 -0.0293 -0.3511 -0.3902
16750WAT     H168805  -0.508  10.119   5.393  1.0770 -0.4184  0.9217
16750WAT     H268806  -0.632  10.206   5.391 -0.0263 -1.9679 -0.6208
16750WAT    EPW68807  -0.550  10.192   5.416  0.1170 -0.5732 -0.2475
16751WAT      O68808   4.599   4.505   6.871 -0.3337 -0.1913 -0.0392
16751WAT     H168809   4.599   4.494   6.776  0.1706  0.2656 -0.0958
16751WAT     H268810   4.564   4.593   6.885  0.6650  0.1885  0.1339
16751WAT    EPW68811   4.595   4.515   6.860 -0.1354 -0.0808 -0.0238
16752WAT      O68812  -0.371   9.754   1.883 -0.2632 -0.4043  0.6330
16752WAT     H168813  -0.427   9.799   1.820  2.6529 -0.1573 -2.0229
16752WAT     H268814  -0.376   9.808   1.962 -3.7774 -0.5339  0.6558
16752WAT    EPW68815  -0.379   9.767   1.885 -0.3421 -0.3886  0.2857
16753WAT      O68816   4.806   8.971   2.234 -0.1712 -1.1579 -0.5734
16753WAT     H168817   4.833   9.051   2.278 -0.1500 -0.4570 -1.8252
16753WAT     H268818   4.799   8.995   2.142 -1.6893 -2.2082 -0.7600
16753WAT    EPW68819   4.809   8.984   2.228 -0.3686 -1.2040 -0.7631
16754WAT      O68820  -2.885   8.762   8.528 -0.3809 -0.4267 -0.3779
16754WAT     H168821  -2.893   8.734   8.436  0.9473  1.1018 -1.0151
16754WAT     H268822  -2.911   8.854   8.526 -0.4831 -0.4251  0.8346
16754WAT    EPW68823  -2.890   8.770   8.515 -0.2192 -0.2251 -0.3018
16755WAT      O68824   0.359   0.227   3.671  0.0934  0.6751 -0.5010
16755WAT     H168825   0.422   0.269   3.729 -0.5580 -0.5561  1.2035
16755WAT     H268826   0.412   0.174   3.612  0.7135  0.5076  0.1940
16755WAT    EPW68827   0.374   0.225   3.671  0.0893  0.4906 -0.1845
16756WAT      O68828   1.596   2.312   1.137  0.1353 -0.6281 -0.2757
16756WAT     H168829   1.691   2.312   1.144  0.1861 -0.4225 -0.8873
16756WAT     H268830   1.567   2.379   1.199  0.3962 -0.5692 -0.2176
16756WAT    EPW68831   1.604   2.321   1.146  0.1764 -0.5932 -0.3487
16757WAT      O68832  -2.748   6.011   4.918  0.4400  0.4617  0.1399
16757WAT     H168833  -2.811   6.082   4.906  1.3239  1.4093  0.9647
16757WAT     H268834  -2.714   5.993   4.830 -0.1062  0.7601 -0.1332
16757WAT    EPW68835  -2.752   6.018   4.905  0.4846  0.6258  0.2127
16758WAT      O68836  -3.970   3.769   5.143  0.3526 -0.2450 -0.1839
16758WAT     H168837  -4.007   3.844   5.096 -0.9262 -1.7745 -1.7380
16758WAT     H268838  -3.891   3.747   5.094  1.8408  1.2071  1.4180
16758WAT    EPW68839  -3.964   3.776   5.131  0.3803 -0.2551 -0.1776
16759WAT      O68840   2.138   8.493   1.548  0.2100  0.9300  0.0401
16759WAT     H168841   2.093   8.566   1.507  0.4603  0.4031 -1.2003
16759WAT     H268842   2.163   8.527   1.635 -1.6425  1.5466  0.3728
16759WAT    EPW68843   2.136   8.507   1.554 -0.0013  0.9422 -0.0796
16760WAT      O68844  -2.235   5.075   3.316 -0.2930  0.7582 -0.0930
16760WAT     H168845  -2.267   5.108   3.399  1.7600 -1.3265  1.6607
16760WAT     H268846  -2.292   5.001   3.295  0.2397  0.2003  0.3950
16760WAT    EPW68847  -2.247   5.070   3.324  0.0480  0.4096  0.2028
16761WAT      O68848   1.955   8.738   3.986 -0.0786  0.3701 -0.5107
16761WAT     H168849   2.039   8.732   4.030 -0.0344  0.1651 -0.6218
16761WAT     H268850   1.901   8.792   4.045  0.3424  1.1029 -0.7808
16761WAT    EPW68851   1.959   8.745   4.000 -0.0172  0.4396 -0.5608
16762WAT      O68852   7.070   2.024   3.299 -0.2687 -0.1475  0.0690
16762WAT     H168853   7.097   2.059   3.384  0.6336  1.9017 -0.9914
16762WAT     H268854   7.138   1.960   3.277  1.3878  1.7606 -0.5792
16762WAT    EPW68855   7.082   2.020   3.307  0.0684  0.3744 -0.1564
16763WAT      O68856  -0.613   8.101   6.556 -0.3170 -1.1931  0.2102
16763WAT     H168857  -0.641   8.070   6.642 -1.5182 -0.9347 -0.0774
16763WAT     H268858  -0.619   8.024   6.499 -0.1323 -1.2072  0.2063
16763WAT    EPW68859  -0.617   8.087   6.560 -0.4511 -1.1611  0.1719
16764WAT      O68860   8.233   3.943   0.091  0.2693  0.0596  0.4327
16764WAT     H168861   8.159   3.884   0.078 -1.5804  2.4990 -0.9739
16764WAT     H268862   8.302   3.888   0.127 -1.3991 -2.8449 -0.5351
16764WAT    EPW68863   8.232   3.928   0.094 -0.1950 -0.0018  0.1195
16765WAT      O68864  -1.283   3.614   3.941 -0.0725 -0.9297 -0.0183
16765WAT     H168865  -1.195   3.579   3.925 -0.5028 -1.2650 -1.8207
16765WAT     H268866  -1.268   3.705   3.967  0.9525 -1.7973  2.8293
16765WAT    EPW68867  -1.269   3.621   3.943  0.0060 -1.0884  0.1194
16766WAT      O68868   1.872   9.103   6.625  1.2045  0.4704 -0.6528
16766WAT     H168869   1.783   9.096   6.590  1.0215 -0.8735  0.0039
16766WAT     H268870   1.914   9.171   6.572 -0.6524  2.2201 -0.0101
16766WAT    EPW68871   1.866   9.111   6.613  0.9354  0.5236 -0.4816
16767WAT      O68872  -2.516   5.943   1.737 -0.0534  0.6325  0.2483
16767WAT     H168873  -2.575   6.014   1.762 -0.9117  0.4934 -1.2490
16767WAT     H268874  -2.566   5.863   1.756  0.5267  0.4387  1.0143
16767WAT    EPW68875  -2.531   5.942   1.743 -0.0901  0.5887  0.1519
16768WAT      O68876   3.106   1.870   4.032  0.5626 -0.6058  0.4643
16768WAT     H168877   3.090   1.823   3.950  1.8449 -1.5617  0.7256
16768WAT     H268878   3.018   1.889   4.066 -0.0061  0.4176 -1.4302
16768WAT    EPW68879   3.092   1.866   4.026  0.6567 -0.5969  0.2487
16769WAT      O68880  -5.100   2.534   8.159  0.3645 -0.5935  0.1502
16769WAT     H168881  -5.133   2.533   8.249  2.5504 -1.8763  1.0174
16769WAT     H268882  -5.154   2.469   8.114 -0.4385 -0.2937  0.6653
16769WAT    EPW68883  -5.111   2.525   8.165  0.5469 -0.7232  0.3328
16770WAT      O68884   0.435   5.398   1.332 -0.2953  0.1893  0.0381
16770WAT     H168885   0.353   5.350   1.325 -0.0431 -0.2866  0.3024
16770WAT     H268886   0.409   5.490   1.332 -0.7631  0.0719 -0.8206
16770WAT    EPW68887   0.421   5.403   1.331 -0.3238  0.1109 -0.0402
16771WAT      O68888  -0.587   9.253   6.837  0.0839  0.6473  0.8207
16771WAT     H168889  -0.630   9.309   6.901 -0.0097  1.3334  0.1707
16771WAT     H268890  -0.555   9.313   6.770 -0.6777 -0.1400 -0.2788
16771WAT    EPW68891  -0.588   9.268   6.837 -0.0290  0.6342  0.5901
16772WAT      O68892   8.423   1.918   0.700  0.1245  0.9201  0.5493
16772WAT     H168893   8.425   1.926   0.605 -0.7998 -1.1850  0.2983
16772WAT     H268894   8.508   1.878   0.722 -1.1431 -2.3541  0.0776
16772WAT    EPW68895   8.435   1.914   0.691 -0.1645  0.2106  0.4540
16773WAT      O68896   0.694   5.455   8.671  0.5905 -0.3793  0.5370
16773WAT     H168897   0.667   5.365   8.690  0.3538 -0.8711 -1.8340
16773WAT     H268898   0.780   5.446   8.632 -0.6182  0.0717 -2.4634
16773WAT    EPW68899   0.702   5.442   8.669  0.3999 -0.3846 -0.1717
16774WAT      O68900   0.814   6.215   1.351 -0.0527 -0.4927  0.3042
16774WAT     H168901   0.905   6.194   1.371  0.3174  0.4957 -0.2792
16774WAT     H268902   0.787   6.150   1.286  0.4756 -0.3616 -0.0535
16774WAT    EPW68903   0.822   6.204   1.345  0.0657 -0.3448  0.1801
16775WAT      O68904   5.051   9.130   4.145  0.0636  1.0741 -0.2510
16775WAT     H168905   5.055   9.042   4.106 -0.9285  0.7142  0.4154
16775WAT     H268906   4.980   9.124   4.209  0.9600  1.9370  0.8677
16775WAT    EPW68907   5.042   9.117   4.148  0.0510  1.1406 -0.0155
16776WAT      O68908   6.105   4.288   2.246 -0.8931 -0.2058 -0.0946
16776WAT     H168909   6.052   4.364   2.267  1.8741  1.1997  2.4802
16776WAT     H268910   6.192   4.323   2.227 -0.0284 -2.5919 -1.0076
16776WAT    EPW68911   6.109   4.303   2.246 -0.4141 -0.3350  0.1247
16777WAT      O68912   1.335   7.202   0.634 -0.0714  0.2004 -0.4362
16777WAT     H168913   1.412   7.174   0.682 -0.5689 -1.4129 -0.5156
16777WAT     H268914   1.290   7.262   0.693 -0.3167 -1.2251  0.8800
16777WAT    EPW68915   1.339   7.206   0.648 -0.1694 -0.2005 -0.2731
16778WAT      O68916   6.444   1.434   2.751  0.4609  0.6221  0.0936
16778WAT     H168917   6.364   1.391   2.782  1.0657  0.3194  1.2443
16778WAT     H268918   6.456   1.399   2.662 -1.4350  1.7144 -0.6769
16778WAT    EPW68919   6.435   1.424   2.743  0.2904  0.7262  0.1438
16779WAT      O68920   2.996   5.117   7.604 -0.2756  0.8102  0.7611
16779WAT     H168921   2.980   5.205   7.638  0.8771  1.3362  0.0093
16779WAT     H268922   3.033   5.131   7.517 -0.6267 -0.4402  0.3899
16779WAT    EPW68923   2.999   5.130   7.597 -0.1700  0.7145  0.6132
16780WAT      O68924  -5.183   7.243   8.160 -0.0927  0.0708 -0.0231
16780WAT     H168925  -5.259   7.298   8.178  0.6580  1.5222 -1.1011
16780WAT     H268926  -5.115   7.304   8.134  1.7412 -1.1002  1.7384
16780WAT    EPW68927  -5.184   7.258   8.159  0.2480  0.1078  0.0672
16781WAT      O68928   2.876   1.177   0.476 -0.4426  0.2067 -0.2804
16781WAT     H168929   2.928   1.098   0.492  0.7573  1.0799  0.3119
16781WAT     H268930   2.822   1.155   0.401  0.5477 -0.8765 -0.7159
16781WAT    EPW68931   2.876   1.163   0.468 -0.1537  0.1790 -0.2597
16782WAT      O68932  -4.315   7.343   7.811 -0.6521 -0.3554 -0.5518
16782WAT     H168933  -4.240   7.304   7.856 -0.9379 -0.1094  0.1499
16782WAT     H268934  -4.389   7.327   7.869 -0.8899  0.6514 -0.5623
16782WAT    EPW68935  -4.315   7.335   7.825 -0.7212 -0.1900 -0.4606
16783WAT      O68936   5.169   3.384   4.268  0.7956  0.0973  0.1166
16783WAT     H168937   5.156   3.343   4.354 -0.3684 -0.0852 -0.1209
16783WAT     H268938   5.168   3.310   4.207 -1.5622  0.4292 -0.3411
16783WAT    EPW68939   5.167   3.369   4.271  0.3309  0.1169  0.0248
16784WAT      O68940  -2.169   6.078   0.165  0.2788  0.3060 -0.1127
16784WAT     H168941  -2.147   6.145   0.229  0.7973  0.8859 -0.8699
16784WAT     H268942  -2.236   6.119   0.110 -2.4566 -1.2567  1.8422
16784WAT    EPW68943  -2.175   6.092   0.166 -0.0136  0.1762  0.0453
16785WAT      O68944   1.383   8.655   3.535 -0.4043 -0.1557 -0.4864
16785WAT     H168945   1.356   8.663   3.626  0.5971  0.2937 -0.2174
16785WAT     H268946   1.360   8.565   3.511 -1.0673 -0.1384  0.0723
16785WAT    EPW68947   1.377   8.644   3.544 -0.3597 -0.0939 -0.3772
16786WAT      O68948  -1.564   1.516   7.473  0.5064 -0.2122 -0.2984
16786WAT     H168949  -1.484   1.469   7.451  0.1904 -0.5492 -0.7748
16786WAT     H268950  -1.625   1.492   7.402  0.6873  1.8085 -1.2130
16786WAT    EPW68951  -1.562   1.506   7.461  0.4886  0.0098 -0.4818
16787WAT      O68952   6.030   0.635   4.458  0.3204 -0.0191 -0.5043
16787WAT     H168953   5.944   0.677   4.452  1.0758  1.5526 -0.9819
16787WAT     H268954   6.070   0.651   4.372  1.5773  0.4208  0.1359
16787WAT    EPW68955   6.024   0.643   4.446  0.5858  0.2462 -0.4828
16788WAT      O68956   0.749   3.542   8.051 -0.7521 -0.3495  0.5119
16788WAT     H168957   0.654   3.539   8.040 -0.6454 -1.7614 -0.3245
16788WAT     H268958   0.778   3.455   8.025  0.8820  0.3964 -0.3203
16788WAT    EPW68959   0.740   3.530   8.046 -0.5225 -0.4374  0.2918
16789WAT      O68960  -2.147   9.009   8.612  0.4694 -0.7442 -0.2188
16789WAT     H168961  -2.180   9.094   8.584 -1.7503 -1.6034 -0.4275
16789WAT     H268962  -2.054   9.010   8.588  0.7497  1.9344  0.6707
16789WAT    EPW68963  -2.139   9.020   8.605  0.2136 -0.5045 -0.1287
16790WAT      O68964   0.929   1.243   5.593 -0.3651 -0.0849  0.0902
16790WAT     H168965   0.934   1.338   5.585  1.7025 -0.0742  0.8668
16790WAT     H268966   0.977   1.224   5.674  2.6263 -2.0321 -1.9546
16790WAT    EPW68967   0.936   1.253   5.603  0.3022 -0.3403 -0.0772
16791WAT      O68968  -4.028   4.966   7.837 -0.0097  0.5307 -0.5348
16791WAT     H168969  -4.095   5.007   7.782 -1.7832 -0.7451  0.5332
16791WAT     H268970  -4.078   4.911   7.897  1.9553  0.4072  1.1031
16791WAT    EPW68971  -4.044   4.964   7.838  0.0155  0.3462 -0.1779
16792WAT      O68972  -0.495   6.804   2.478  1.0566  0.1693  0.4336
16792WAT     H168973  -0.458   6.726   2.436  1.5086  0.9127 -0.6195
16792WAT     H268974  -0.427   6.870   2.468  1.1959  0.3715  2.4594
16792WAT    EPW68975  -0.481   6.802   2.471  1.1346  0.2940  0.5621
16793WAT      O68976   5.072   1.944   2.023  0.1424  0.1005  0.4060
16793WAT     H168977   4.990   1.972   1.982 -0.5987 -3.1188 -0.6863
16793WAT     H268978   5.139   1.998   1.983 -1.2771  1.6884  0.0707
16793WAT    EPW68979   5.070   1.955   2.012 -0.1428 -0.1147  0.2178
16794WAT      O68980  -0.895   8.681   6.625  0.4179  0.7642 -0.4647
16794WAT     H168981  -0.923   8.650   6.538  3.5156  1.8310 -1.9647
16794WAT     H268982  -0.934   8.768   6.632 -1.2734  0.0174  0.0576
16794WAT    EPW68983  -0.904   8.688   6.614  0.6034  0.8068 -0.5937
16795WAT      O68984   0.508   2.767   8.620 -0.8199  0.2111  0.2165
16795WAT     H168985   0.548   2.711   8.554 -1.4309 -2.7455  2.1516
16795WAT     H268986   0.579   2.786   8.681 -1.1694 -0.6112  0.8891
16795WAT    EPW68987   0.523   2.762   8.619 -0.9466 -0.2873  0.5603
16796WAT      O68988  -1.549   8.909   6.302 -0.2173  0.1370 -0.0188
16796WAT     H168989  -1.613   8.853   6.257 -0.6096  0.9074 -0.4319
16796WAT     H268990  -1.489   8.937   6.233 -0.4520  0.8202  0.0520
16796WAT    EPW68991  -1.550   8.905   6.287 -0.3000  0.3285 -0.0639
16797WAT      O68992   5.423   6.801   2.626 -0.0235  0.1469 -0.2312
16797WAT     H168993   5.448   6.779   2.716 -1.8874 -1.7331 -0.0982
16797WAT     H268994   5.364   6.876   2.636  1.4972  1.3784 -0.1301
16797WAT    EPW68995   5.419   6.808   2.639 -0.0689  0.0613 -0.2003
16798WAT      O68996   1.419   8.422   2.863 -0.0878 -0.0929 -0.6491
16798WAT     H168997   1.503   8.461   2.839  0.9997 -1.9329 -0.0344
16798WAT     H268998   1.371   8.416   2.781  1.0376 -0.4758 -1.2976
16798WAT    EPW68999   1.424   8.426   2.849  0.2041 -0.3862 -0.6536
16799WAT      O69000   3.185   3.128   4.010 -0.2259  0.6057 -0.4949
16799WAT     H169001   3.277   3.122   3.987 -0.5577 -2.2698 -1.4927
16799WAT     H269002   3.175   3.067   4.084 -1.2957  1.0410 -0.2638
16799WAT    EPW69003   3.196   3.119   4.017 -0.4109  0.2840 -0.5958
16800WAT      O69004   4.845   5.366   1.741 -0.2534 -0.0030  0.0724
16800WAT     H169005   4.828   5.298   1.806 -1.7373  0.6461  0.3957
16800WAT     H269006   4.763   5.415   1.735  0.3446  0.9011 -1.1740
16800WAT    EPW69007   4.832   5.363   1.749 -0.3703  0.2019 -0.0494
16801WAT      O69008  -0.882   9.629   5.872  0.3884  0.1855 -0.2450
16801WAT     H169009  -0.792   9.616   5.901 -0.3352 -0.3287  2.0159
16801WAT     H269010  -0.916   9.540   5.858 -0.1621  0.2840  0.3736
16801WAT    EPW69011  -0.875   9.615   5.874  0.2203  0.1307  0.1347
16802WAT      O69012   4.054   8.550   1.655  0.3754  0.5721  0.1984
16802WAT     H169013   4.092   8.574   1.570  0.9982 -4.4943 -1.3297
16802WAT     H269014   4.128   8.552   1.716  0.8888  0.2749 -0.4043
16802WAT    EPW69015   4.069   8.553   1.652  0.5255 -0.1354 -0.0827
16803WAT      O69016   3.763   6.126   5.913  0.2850 -0.0402 -0.0542
16803WAT     H169017   3.726   6.051   5.960  0.5453 -0.1326  0.0088
16803WAT     H269018   3.838   6.153   5.967 -0.0769  0.5532  0.1574
16803WAT    EPW69019   3.768   6.119   5.926  0.2717  0.0260 -0.0181
16804WAT      O69020   4.276   1.948   8.126 -0.4882 -0.2750 -0.1555
16804WAT     H169021   4.340   2.018   8.143  0.6242 -1.3767  0.3018
16804WAT     H269022   4.320   1.891   8.063 -1.2217 -0.7946 -0.2052
16804WAT    EPW69023   4.290   1.950   8.120 -0.4385 -0.4888 -0.1016
16805WAT      O69024   7.875   1.923   1.869 -0.4277 -0.0239 -0.0300
16805WAT     H169025   7.918   1.887   1.946  0.1824  0.4769 -0.1293
16805WAT     H269026   7.815   1.989   1.904  0.0415  0.3888 -0.0013
16805WAT    EPW69027   7.873   1.927   1.884 -0.2854  0.0966 -0.0393
16806WAT      O69028  -0.827   4.115   7.923 -0.4068 -0.3182  0.6348
16806WAT     H169029  -0.807   4.056   7.996 -2.0564 -0.7081  0.8020
16806WAT     H269030  -0.920   4.135   7.933 -0.0160  1.9968  0.3515
16806WAT    EPW69031  -0.836   4.110   7.934 -0.5728 -0.0641  0.6194
16807WAT      O69032   5.003   8.737   2.562 -0.4659 -0.1055  0.2273
16807WAT     H169033   5.000   8.750   2.657 -1.8906  0.9976  0.0678
16807WAT     H269034   5.096   8.742   2.540 -0.3174  3.0240  1.1435
16807WAT    EPW69035   5.015   8.739   2.572 -0.6342  0.4525  0.3271
16808WAT      O69036   8.186   2.239   3.195  0.5797 -0.1800 -0.5032
16808WAT     H169037   8.164   2.332   3.188  1.0868 -0.0723 -0.6733
16808WAT     H269038   8.212   2.227   3.286  0.1101 -0.2449 -0.3762
16808WAT    EPW69039   8.186   2.250   3.206  0.5846 -0.1744 -0.5089
16809WAT      O69040   0.250   8.815   3.779  0.5528  0.2889 -0.0928
16809WAT     H169041   0.335   8.817   3.823  0.1459  0.6280  0.6920
16809WAT     H269042   0.226   8.722   3.778 -0.2661  0.4049  2.0914
16809WAT    EPW69043   0.258   8.803   3.785  0.3911  0.3490  0.2987
16810WAT      O69044  -4.155   0.896   6.714  0.7257 -0.5858 -0.0182
16810WAT     H169045  -4.220   0.829   6.696  2.0695 -1.5161 -1.5921
16810WAT     H269046  -4.161   0.956   6.640  2.6364 -1.4983 -0.9543
16810WAT    EPW69047  -4.165   0.895   6.702  1.1549 -0.8289 -0.3493
16811WAT      O69048   3.420   1.602   5.512  0.0928  0.5434  0.1898
16811WAT     H169049   3.340   1.588   5.460 -0.4898  0.0623  1.1932
16811WAT     H269050   3.479   1.533   5.485  0.0128  0.6434 -0.2487
16811WAT    EPW69051   3.417   1.591   5.501  0.0054  0.4931  0.2644
16812WAT      O69052   1.997   8.812   7.041  0.4078 -0.9167 -0.8184
16812WAT     H169053   2.021   8.837   6.951  0.4097  1.9560 -0.1330
16812WAT     H269054   1.901   8.815   7.041  0.3968  1.7729 -0.1946
16812WAT    EPW69055   1.987   8.816   7.029  0.4067 -0.1831 -0.6456
16813WAT      O69056  -0.438   9.694   6.562  0.0425 -0.4268  0.2126
16813WAT     H169057  -0.526   9.721   6.539 -0.0414  0.2543  1.3007
16813WAT     H269058  -0.433   9.702   6.657  1.7842  1.1772  0.0558
16813WAT    EPW69059  -0.449   9.698   6.571  0.2612 -0.1254  0.3355
16814WAT      O69060  -2.775  10.167   4.097  0.1551  0.3782 -0.1586
16814WAT     H169061  -2.815  10.086   4.066 -0.7034  1.3088 -1.5915
16814WAT     H269062  -2.845  10.232   4.090  2.2449  2.5968 -4.7353
16814WAT    EPW69063  -2.790  10.165   4.092  0.3175  0.7939 -0.9511
16815WAT      O69064  -4.697   8.376   7.479  0.3949 -0.0897  0.8798
16815WAT     H169065  -4.644   8.313   7.527  1.0351  0.9838  1.6420
16815WAT     H269066  -4.635   8.445   7.454 -0.3172  0.3385  0.2566
16815WAT    EPW69067  -4.682   8.377   7.482  0.3855  0.1087  0.8979
16816WAT      O69068  -4.856   9.469   4.227 -0.0323 -0.0591  0.3677
16816WAT     H169069  -4.908   9.389   4.239  1.1738 -0.5568  2.7900
16816WAT     H269070  -4.922   9.538   4.216 -1.1463 -1.0223  0.7579
16816WAT    EPW69071  -4.872   9.468   4.227 -0.0203 -0.2518  0.7386
16817WAT      O69072  -3.093   7.656   3.028  0.2332 -0.4547  0.1279
16817WAT     H169073  -3.172   7.704   3.005  0.2690 -1.0556 -1.3306
16817WAT     H269074  -3.056   7.628   2.945  1.1981 -1.4456  0.8528
16817WAT    EPW69075  -3.098   7.658   3.014  0.3651 -0.6645  0.0312
16818WAT      O69076  -0.462   9.960   5.325 -0.6419 -0.6091  0.0951
16818WAT     H169077  -0.373   9.983   5.352  0.2692 -1.2130 -2.1936
16818WAT     H269078  -0.454   9.871   5.291 -1.8525 -0.2103 -1.3295
16818WAT    EPW69079  -0.449   9.951   5.324 -0.6814 -0.6366 -0.3946
16819WAT      O69080   4.109   5.151   2.814 -0.1782 -0.2671 -0.2257
16819WAT     H169081   4.037   5.115   2.866  0.7490 -0.4368  1.0000
16819WAT     H269082   4.138   5.078   2.759  0.3025 -0.7873  0.6950
16819WAT    EPW69083   4.103   5.137   2.814  0.0074 -0.3579  0.0573
16820WAT      O69084   2.276   9.500   2.880 -0.0209 -0.2573  0.9629
16820WAT     H169085   2.189   9.464   2.901 -0.6601 -0.5566 -1.8254
16820WAT     H269086   2.274   9.589   2.916 -2.6256  0.7672 -1.3198
16820WAT    EPW69087   2.264   9.507   2.888 -0.4487 -0.1616  0.2941
16821WAT      O69088  -1.151   3.901   3.897 -0.1071  0.1211  0.7931
16821WAT     H169089  -1.107   3.931   3.818  1.1236 -2.4834  0.3706
16821WAT     H269090  -1.136   3.971   3.961  0.7400  1.2998 -0.6378
16821WAT    EPW69091  -1.143   3.914   3.895  0.1670 -0.0669  0.5487
16822WAT      O69092  -1.308   6.386   5.610 -0.4209 -0.0980  0.1469
16822WAT     H169093  -1.402   6.375   5.597 -0.4885  0.8993 -0.2896
16822WAT     H269094  -1.268   6.327   5.545 -0.7689  2.0567 -2.2009
16822WAT    EPW69095  -1.315   6.377   5.599 -0.4757  0.3176 -0.2203
16823WAT      O69096  -4.694   4.769   7.914  0.6052 -0.2946  0.5329
16823WAT     H169097  -4.721   4.750   8.004  0.9875  2.6923  1.3946
16823WAT     H269098  -4.615   4.823   7.924 -1.1036  2.8253 -1.3949
16823WAT    EPW69099  -4.687   4.774   7.927  0.4303  0.5109  0.3922
16824WAT      O69100   0.774   2.921   5.078  0.1267  0.1029 -0.2457
16824WAT     H169101   0.731   3.004   5.055  0.7751  0.4910 -0.0828
16824WAT     H269102   0.859   2.925   5.032  2.0181  1.4324  3.0442
16824WAT    EPW69103   0.780   2.932   5.069  0.4617  0.3294  0.2096
16825WAT      O69104  -4.265  10.305   4.676 -0.3506 -0.1736  0.2753
16825WAT     H169105  -4.195  10.354   4.632  0.8335 -1.2448  0.8835
16825WAT     H269106  -4.266  10.220   4.630 -0.9388 -0.3250  0.5695
16825WAT    EPW69107  -4.256  10.300   4.664 -0.2723 -0.3347  0.3943
16826WAT      O69108  -1.544   9.630   6.403  0.2400 -0.6804  0.1154
16826WAT     H169109  -1.628   9.619   6.447 -0.9507  3.7451 -0.6235
16826WAT     H269110  -1.480   9.600   6.467 -1.6737  0.1526  2.5987
16826WAT    EPW69111  -1.547   9.624   6.417 -0.1694  0.0134  0.3455
16827WAT      O69112  -0.751   0.681   3.982  0.0108 -0.0935 -0.5828
16827WAT     H169113  -0.753   0.591   4.012 -1.0787  0.3419  0.7572
16827WAT     H269114  -0.843   0.704   3.967 -0.0416  1.6291  1.8455
16827WAT    EPW69115  -0.763   0.672   3.984 -0.1398  0.1911 -0.0858
16828WAT      O69116  -3.682   3.033   6.167  0.6799  0.5694 -0.0671
16828WAT     H169117  -3.764   2.985   6.176  0.0849  1.3826 -1.0001
16828WAT     H269118  -3.707   3.125   6.169  1.8378  0.9065  2.0048
16828WAT    EPW69119  -3.696   3.039   6.169  0.7541  0.7210  0.0832
16829WAT      O69120  -0.831   9.150   1.178 -0.2190  0.2627 -0.1046
16829WAT     H169121  -0.923   9.149   1.151  0.0774 -1.5946 -1.2268
16829WAT     H269122  -0.784   9.182   1.102  0.1363  0.5372  0.2270
16829WAT    EPW69123  -0.837   9.154   1.165 -0.1331  0.0539 -0.2089
16830WAT      O69124  -2.643   0.700   4.098 -0.5354 -0.0556 -0.0867
16830WAT     H169125  -2.649   0.724   4.005  2.2670  0.7308 -0.1726
16830WAT     H269126  -2.664   0.607   4.101 -2.7780  0.3654 -1.1502
16830WAT    EPW69127  -2.646   0.691   4.086 -0.4617  0.1037 -0.2384
16831WAT      O69128   3.377   4.397   0.718  0.4985  0.1550 -0.3785
16831WAT     H169129   3.318   4.353   0.657  0.7369 -0.6393 -0.0493
16831WAT     H269130   3.342   4.485   0.726  0.1451  0.1042 -1.2372
16831WAT    EPW69131   3.365   4.403   0.711  0.4834  0.0436 -0.4483
16832WAT      O69132  -2.638   3.951   6.076 -0.5159  0.2632 -0.4388
16832WAT     H169133  -2.637   3.888   6.004  3.8422  1.5239 -1.7753
16832WAT     H269134  -2.660   3.899   6.153 -1.1696 -1.9922 -2.0308
16832WAT    EPW69135  -2.641   3.936   6.077 -0.0273  0.1321 -0.8249
16833WAT      O69136   4.294   0.256   5.412  0.0881  0.4329  0.7200
16833WAT     H169137   4.232   0.227   5.345 -0.6458  0.8586  1.2015
16833WAT     H269138   4.354   0.182   5.423 -0.3980 -0.0281  0.3246
16833WAT    EPW69139   4.294   0.243   5.405 -0.0727  0.4283  0.7312
16834WAT      O69140  -3.525   6.302   7.506 -0.1219  0.5099 -0.5204
16834WAT     H169141  -3.438   6.298   7.545  0.6826 -0.8105 -2.3026
16834WAT     H269142  -3.579   6.347   7.571  1.1245 -1.4882  2.0529
16834WAT    EPW69143  -3.520   6.308   7.520  0.1485  0.0720 -0.4160
16835WAT      O69144   0.522   6.968   5.440  0.1106  0.8287 -0.4976
16835WAT     H169145   0.533   7.048   5.492 -0.5847  0.3405  0.4246
16835WAT     H269146   0.428   6.955   5.435  0.2170 -1.3078  1.5649
16835WAT    EPW69147   0.511   6.977   5.446  0.0329  0.4826 -0.1040
16836WAT      O69148   1.965   3.785   5.634 -0.5711  0.4015  0.1787
16836WAT     H169149   1.959   3.693   5.609 -0.9336  0.4068  0.2385
16836WAT     H269150   1.979   3.783   5.729 -0.8979  0.4137  0.2277
16836WAT    EPW69151   1.966   3.773   5.644 -0.6620  0.4039  0.1931
16837WAT      O69152   5.615   2.210   1.015  0.2174 -0.3733  0.2190
16837WAT     H169153   5.628   2.147   1.086 -0.5906 -0.6245  0.1588
16837WAT     H269154   5.581   2.156   0.943  0.5642 -0.0419 -0.1928
16837WAT    EPW69155   5.612   2.194   1.015  0.1566 -0.3626  0.1567
16838WAT      O69156   4.626   4.577   0.615 -0.2855  0.2112 -0.4085
16838WAT     H169157   4.587   4.593   0.529 -0.5089 -0.0730 -0.3613
16838WAT     H269158   4.703   4.523   0.596 -1.1189 -1.0560 -0.3100
16838WAT    EPW69159   4.631   4.572   0.601 -0.4249  0.0064 -0.3893
16839WAT      O69160  -3.482   7.619   4.496 -0.4250 -0.4246  0.4220
16839WAT     H169161  -3.442   7.582   4.574  1.1560 -3.3909 -1.6043
16839WAT     H269162  -3.411   7.665   4.452 -1.2943  1.2114  0.6533
16839WAT    EPW69163  -3.467   7.620   4.500 -0.3312 -0.5999  0.1853
16840WAT      O69164  -1.255   0.432   3.759  0.3106 -0.0118 -1.1883
16840WAT     H169165  -1.328   0.427   3.697  2.5243  1.4170 -4.1506
16840WAT     H269166  -1.275   0.508   3.813 -0.5523  0.1788 -1.7479
16840WAT    EPW69167  -1.268   0.441   3.758  0.4888  0.2018 -1.6528
16841WAT      O69168   0.853   9.605   5.887  0.5789  0.2716 -0.1486
16841WAT     H169169   0.758   9.612   5.895  0.5386 -0.6989  0.4046
16841WAT     H269170   0.872   9.514   5.910  1.7500  0.7431  0.8401
16841WAT    EPW69171   0.843   9.594   5.891  0.7280  0.2060  0.0548
16842WAT      O69172   1.672   6.203   3.124  0.4509  0.3917  0.0326
16842WAT     H169173   1.671   6.194   3.220  1.2739  0.4696  0.0509
16842WAT     H269174   1.683   6.297   3.109 -0.0967  0.4329 -0.1495
16842WAT    EPW69175   1.673   6.214   3.135  0.4872  0.4075  0.0111
16843WAT      O69176   6.887   3.206   0.084 -0.1780  0.1922 -0.1793
16843WAT     H169177   6.933   3.157   0.152  0.1098  2.8012  1.6439
16843WAT     H269178   6.814   3.248   0.129  1.0913  3.5109 -0.9766
16843WAT    EPW69179   6.883   3.205   0.099  0.0274  0.9741 -0.0440
16844WAT      O69180   2.348   3.811   7.580 -0.3340  0.4510  0.4127
16844WAT     H169181   2.371   3.742   7.518 -0.3509  1.8981 -1.2706
16844WAT     H269182   2.253   3.819   7.574 -0.0685  3.2650 -2.4962
16844WAT    EPW69183   2.339   3.803   7.571 -0.3012  1.0130 -0.1929
16845WAT      O69184   0.897   7.051   1.567 -0.3913 -0.1648  0.4204
16845WAT     H169185   0.879   7.035   1.474 -3.2294 -1.0919  1.0328
16845WAT     H269186   0.933   6.969   1.599  0.4911  0.1217  0.1823
16845WAT    EPW69187   0.899   7.038   1.559 -0.6492 -0.2491  0.4698
16846WAT      O69188   0.250   3.328   0.881 -0.3324 -1.1014  0.0555
16846WAT     H169189   0.160   3.349   0.903 -1.1409 -3.4365 -0.7993
16846WAT     H269190   0.247   3.297   0.790  0.6386 -4.7941  1.1315
16846WAT    EPW69191   0.238   3.327   0.872 -0.3110 -1.8964  0.0846
16847WAT      O69192   0.814   8.130   5.337  0.6493 -0.4359  0.1198
16847WAT     H169193   0.817   8.163   5.427  2.3055 -0.3150  0.0492
16847WAT     H269194   0.800   8.036   5.346 -0.5044 -0.2493  0.4414
16847WAT    EPW69195   0.812   8.122   5.350  0.7156 -0.3953  0.1531
16848WAT      O69196   0.472   1.783   5.412  0.1937  0.0397 -0.0008
16848WAT     H169197   0.521   1.865   5.402  2.1030 -0.2683  4.4220
16848WAT     H269198   0.540   1.716   5.419 -0.9908 -1.0157  2.1823
16848WAT    EPW69199   0.488   1.785   5.412  0.2893 -0.1401  0.8707
16849WAT      O69200  -3.573   9.577   4.554 -0.0211  0.4057 -0.2360
16849WAT     H169201  -3.548   9.486   4.573 -5.1068 -1.3532 -0.4861
16849WAT     H269202  -3.552   9.589   4.462  0.8347 -0.4855 -0.1730
16849WAT    EPW69203  -3.567   9.566   4.544 -0.5790  0.0563 -0.2608
16850WAT      O69204  -7.152   9.560   7.363  0.0306 -0.4574 -0.0470
16850WAT     H169205  -7.079   9.569   7.302 -1.1579  1.2378 -1.3015
16850WAT     H269206  -7.179   9.650   7.382 -0.4012 -0.9769  2.0823
16850WAT    EPW69207  -7.146   9.573   7.358 -0.1833 -0.3023  0.0684
16851WAT      O69208   7.373   6.670   0.081  0.4295 -0.3601 -1.1050
16851WAT     H169209   7.312   6.658   0.153 -0.5359  0.2899 -1.7765
16851WAT     H269210   7.433   6.596   0.087  0.6171 -0.1110  0.5850
16851WAT    EPW69211   7.373   6.659   0.091  0.3269 -0.2415 -0.9707
16852WAT      O69212   3.105   4.851   2.220 -0.2123 -0.1077  0.2969
16852WAT     H169213   3.147   4.767   2.238  3.2049  1.2541 -0.5817
16852WAT     H269214   3.133   4.873   2.131 -2.0739  1.4133  0.0255
16852WAT    EPW69215   3.114   4.843   2.211 -0.0072  0.2725  0.1453
16853WAT      O69216  -0.481   7.398   4.632 -0.3160 -0.3461  0.5383
16853WAT     H169217  -0.407   7.341   4.655 -2.5040 -3.1520  1.2498
16853WAT     H269218  -0.487   7.393   4.537  1.7840  1.9531  0.1692
16853WAT    EPW69219  -0.472   7.390   4.623 -0.3276 -0.4129  0.5834
16854WAT      O69220  -1.782   0.890   5.220  0.1694 -0.0118  0.2783
16854WAT     H169221  -1.720   0.822   5.243  0.5617  0.9533  2.3199
16854WAT     H269222  -1.779   0.952   5.293 -0.9189  1.6740 -0.9969
16854WAT    EPW69223  -1.774   0.889   5.233  0.0776  0.3378  0.3793
16855WAT      O69224   8.489   2.146   2.695  0.4235  0.2904 -0.7025
16855WAT     H169225   8.432   2.084   2.741  2.9457 -1.6560  0.0931
16855WAT     H269226   8.436   2.224   2.684 -1.5028 -0.3916  2.4065
16855WAT    EPW69227   8.475   2.148   2.700  0.5021 -0.0563 -0.1875
16856WAT      O69228   4.837   3.579   3.267 -0.0317  0.5739  0.3904
16856WAT     H169229   4.931   3.592   3.277  0.3935 -1.7610 -0.0125
16856WAT     H269230   4.798   3.630   3.338  1.7971 -1.2319  2.8737
16856WAT    EPW69231   4.844   3.588   3.278  0.2656  0.0279  0.6648
16857WAT      O69232   5.716   3.878   2.554  0.2137  0.4882 -0.1902
16857WAT     H169233   5.711   3.787   2.584 -1.4977  0.9194  0.9804
16857WAT     H269234   5.693   3.873   2.461  0.8934 -0.3409 -0.3321
16857WAT    EPW69235   5.712   3.865   2.546  0.0775  0.4358 -0.0545
16858WAT      O69236  -2.849   4.259   8.483  0.2302 -0.2319  0.3613
16858WAT     H169237  -2.939   4.293   8.486  0.8482  1.7793 -1.2345
16858WAT     H269238  -2.837   4.234   8.391  0.7074 -2.3824  0.9604
16858WAT    EPW69239  -2.860   4.261   8.471  0.3748 -0.2503  0.2294
16859WAT      O69240   0.443   9.070   6.585 -0.4031  0.0482  0.2088
16859WAT     H169241   0.525   9.032   6.553  0.6868  2.0644  0.4350
16859WAT     H269242   0.448   9.162   6.560 -1.8985  0.5636  1.6124
16859WAT    EPW69243   0.454   9.077   6.577 -0.4566  0.3819  0.4239
16860WAT      O69244  -6.093   8.441   6.408 -0.5235 -0.3978 -0.3979
16860WAT     H169245  -6.091   8.479   6.496 -0.4991 -2.5939  0.6256
16860WAT     H269246  -6.008   8.398   6.399 -0.4394 -0.0167 -1.6087
16860WAT    EPW69247  -6.082   8.440   6.419 -0.5090 -0.6371 -0.4227
16861WAT      O69248   1.586   9.080   5.354 -0.1135 -0.0830 -0.1799
16861WAT     H169249   1.528   9.030   5.411 -0.9112  0.2456 -0.6900
16861WAT     H269250   1.575   9.039   5.268 -0.6736  0.8677 -0.5744
16861WAT    EPW69251   1.577   9.068   5.350 -0.2925  0.0854 -0.2992
16862WAT      O69252   1.045   3.948   1.416  0.1250  0.5281  0.1838
16862WAT     H169253   0.955   3.916   1.420  0.3169  0.0598  0.9420
16862WAT     H269254   1.045   4.028   1.468  0.3331  0.0510  0.9317
16862WAT    EPW69255   1.034   3.954   1.423  0.1777  0.4034  0.3824
16863WAT      O69256  -1.644   4.315   4.880  0.4000  0.4077  0.9027
16863WAT     H169257  -1.630   4.262   4.958  0.9049 -0.7184  0.0681
16863WAT     H269258  -1.568   4.373   4.877  0.3269  0.5283  1.2997
16863WAT    EPW69259  -1.632   4.316   4.890  0.4570  0.2751  0.8450
16864WAT      O69260   9.174   1.357   0.437  0.4213  0.0163  0.5144
16864WAT     H169261   9.149   1.335   0.347 -1.7958 -0.2926  1.1518
16864WAT     H269262   9.202   1.274   0.475  0.7909  0.0362  0.2899
16864WAT    EPW69263   9.174   1.343   0.430  0.1779 -0.0218  0.5689
16865WAT      O69264   4.952   6.385   4.369 -0.1363 -0.3291  0.3760
16865WAT     H169265   4.901   6.455   4.327 -0.9718 -1.3270 -0.3388
16865WAT     H269266   5.016   6.431   4.423 -1.4798  0.9931  0.9226
16865WAT    EPW69267   4.954   6.400   4.370 -0.4237 -0.2863  0.3538
16866WAT      O69268   1.248   3.866   1.013 -0.2992  0.1367 -0.1253
16866WAT     H169269   1.154   3.877   1.028 -0.2356  0.5434 -0.0205
16866WAT     H269270   1.264   3.773   1.031 -0.8866 -0.2065 -1.2693
16866WAT    EPW69271   1.238   3.855   1.018 -0.3682  0.1450 -0.2624
16867WAT      O69272  -1.172   9.146   6.585  0.6440 -0.4366  0.4643
16867WAT     H169273  -1.222   9.153   6.504  0.3556 -0.3959  0.6442
16867WAT     H269274  -1.149   9.237   6.606  3.4805 -0.6542 -1.2694
16867WAT    EPW69275  -1.176   9.159   6.577  0.9801 -0.4597  0.2592
16868WAT      O69276   4.415   1.739   1.672  0.0942 -0.1907 -0.4851
16868WAT     H169277   4.490   1.791   1.641  0.6564 -0.1794  0.8566
16868WAT     H269278   4.343   1.801   1.676  1.0322  0.8408  2.2249
16868WAT    EPW69279   4.416   1.754   1.668  0.2921 -0.0532  0.0492
16869WAT      O69280   7.351   1.292   1.585 -0.2066  0.3254 -0.1888
16869WAT     H169281   7.336   1.249   1.669 -4.5118 -1.5207 -1.6010
16869WAT     H269282   7.379   1.221   1.526 -2.9239  0.2382 -1.5096
16869WAT    EPW69283   7.353   1.277   1.588 -1.1327  0.0704 -0.5492
16870WAT      O69284  -2.304   7.459   7.260 -0.0694 -0.2260 -0.1389
16870WAT     H169285  -2.386   7.420   7.292  1.4943 -2.4674  1.3544
16870WAT     H269286  -2.321   7.554   7.263 -2.0717 -0.5602  1.6692
16870WAT    EPW69287  -2.317   7.467   7.264 -0.1272 -0.5658  0.2966
16871WAT      O69288   0.774   8.750   6.309  0.4986 -0.0575  0.4937
16871WAT     H169289   0.840   8.687   6.281 -0.5000 -0.8742 -0.1070
16871WAT     H269290   0.711   8.751   6.238 -1.0164 -0.5838  1.7662
16871WAT    EPW69291   0.774   8.742   6.296  0.1671 -0.2341  0.5825
16872WAT      O69292  -1.947   8.282   4.085 -0.0492 -0.3098 -0.8618
16872WAT     H169293  -2.014   8.228   4.043 -1.5627 -0.0356  1.0525
16872WAT     H269294  -1.996   8.339   4.145  1.8418  0.4925  0.0093
16872WAT    EPW69295  -1.962   8.283   4.087  0.0006 -0.1683 -0.4942
16873WAT      O69296  -0.039   4.029   2.556 -0.2384  0.1085 -0.6773
16873WAT     H169297  -0.086   4.038   2.473 -2.0405  0.5236  0.3293
16873WAT     H269298  -0.096   4.072   2.620 -0.0533 -2.2497  1.1869
16873WAT    EPW69299  -0.053   4.036   2.554 -0.4517 -0.1478 -0.2986
16874WAT      O69300  -0.314   0.399   3.105  0.0200  0.7408 -0.6159
16874WAT     H169301  -0.223   0.399   3.074  0.1120 -2.2040 -0.5758
16874WAT     H269302  -0.363   0.354   3.036 -0.8989 -0.1880  0.5966
16874WAT    EPW69303  -0.309   0.393   3.092 -0.0891  0.2299 -0.4507
16875WAT      O69304   2.013   1.722   0.637  0.5212  0.4538 -0.5983
16875WAT     H169305   1.998   1.801   0.689 -0.0425  0.1534 -0.2915
16875WAT     H269306   2.028   1.754   0.548 -1.3505  0.8444 -0.8169
16875WAT    EPW69307   2.013   1.736   0.632  0.1999  0.4656 -0.5866
16876WAT      O69308  -1.706   6.570   3.705  0.2577  0.7021  0.4662
16876WAT     H169309  -1.644   6.638   3.729  0.7636  0.2973  0.3280
16876WAT     H269310  -1.760   6.609   3.637  1.2157  0.6303 -0.3606
16876WAT    EPW69311  -1.705   6.584   3.699  0.4507  0.6392  0.3389
16877WAT      O69312  -6.510   6.636   7.899 -0.2823 -0.1936 -0.3251
16877WAT     H169313  -6.506   6.731   7.887  2.2310 -0.0427  1.2094
16877WAT     H269314  -6.557   6.625   7.982  1.3244 -0.1521  0.6122
16877WAT    EPW69315  -6.516   6.647   7.908  0.2613 -0.1683  0.0010
16878WAT      O69316   4.159   4.590   6.573 -1.8831  0.8200 -0.3935
16878WAT     H169317   4.130   4.614   6.661 -0.1176  1.3215  0.0955
16878WAT     H269318   4.196   4.670   6.538 -0.0672 -0.0298 -0.5120
16878WAT    EPW69319   4.160   4.604   6.580 -1.4107  0.7744 -0.3445
16879WAT      O69320  -2.788   8.313   5.451 -0.1922  0.2817 -0.2233
16879WAT     H169321  -2.742   8.277   5.375  1.0755  0.0521  0.6248
16879WAT     H269322  -2.763   8.254   5.523 -0.1901  1.3474  0.6616
16879WAT    EPW69323  -2.779   8.300   5.451 -0.0247  0.3920  0.0052
16880WAT      O69324   2.424   6.700   2.252 -0.1784 -0.7065 -0.3851
16880WAT     H169325   2.385   6.774   2.204  1.9554  0.6010 -0.2522
16880WAT     H269326   2.351   6.641   2.268 -1.7518  0.7923 -1.5927
16880WAT    EPW69327   2.409   6.702   2.248 -0.1044 -0.3366 -0.5268
16881WAT      O69328   0.381   9.036   0.747  0.2618 -0.3317  0.2438
16881WAT     H169329   0.455   9.094   0.764  0.4886  0.1887 -2.1603
16881WAT     H269330   0.402   8.956   0.796  2.1261  0.0253  0.1090
16881WAT    EPW69331   0.393   9.033   0.755  0.5376 -0.2160 -0.0910
16882WAT      O69332   4.298   2.472   7.509  0.3566 -0.0202  0.0955
16882WAT     H169333   4.275   2.460   7.601  0.6682 -0.1366  0.1611
16882WAT     H269334   4.223   2.517   7.470  0.0839 -0.2701  0.3321
16882WAT    EPW69335   4.285   2.476   7.516  0.3619 -0.0684  0.1354
16883WAT      O69336   6.579   6.068   1.429  0.7174  0.7354  0.3836
16883WAT     H169337   6.662   6.112   1.413  1.8197 -0.2820  2.6864
16883WAT     H269338   6.602   5.975   1.432 -0.9044  0.2393 -0.9084
16883WAT    EPW69339   6.593   6.061   1.427  0.6490  0.5355  0.5170
16884WAT      O69340  -7.142  10.069   8.109  0.4776  0.3903  0.0854
16884WAT     H169341  -7.141   9.974   8.115 -1.1583  0.1077 -2.5529
16884WAT     H269342  -7.229  10.091   8.076  1.3492  2.6368 -0.9927
16884WAT    EPW69343  -7.153  10.059   8.105  0.3767  0.6495 -0.4048
16885WAT      O69344  -0.040   0.277   3.772 -0.0673 -0.9240 -0.3813
16885WAT     H169345  -0.033   0.181   3.766  1.4230 -0.7864 -1.5599
16885WAT     H269346  -0.124   0.298   3.733  1.3987 -1.5183 -4.3338
16885WAT    EPW69347  -0.050   0.267   3.766  0.3227 -0.9843 -1.0581
16886WAT      O69348   1.654   7.690   3.751  0.2969  0.1878  0.0753
16886WAT     H169349   1.684   7.600   3.745  0.1171  0.1347 -0.0390
16886WAT     H269350   1.633   7.715   3.661 -2.9309 -0.7892  0.4411
16886WAT    EPW69351   1.655   7.682   3.738 -0.1525  0.0517  0.1086
16887WAT      O69352   6.167   4.940   3.456 -0.1772  0.1059 -0.6016
16887WAT     H169353   6.182   4.906   3.544 -0.6085  0.7536 -0.2738
16887WAT     H269354   6.100   5.007   3.467  0.2117  0.6230 -1.3323
16887WAT    EPW69355   6.160   4.944   3.469 -0.1829  0.2594 -0.6547
16888WAT      O69356  -5.228   7.901   7.892 -0.4126  0.1603  0.3812
16888WAT     H169357  -5.188   7.826   7.936 -0.8966  0.8335  2.0347
16888WAT     H269358  -5.179   7.910   7.810  0.6877 -0.9846  0.8871
16888WAT    EPW69359  -5.217   7.892   7.887 -0.3314  0.0980  0.6659
16889WAT      O69360   5.429   9.266   3.021 -0.5199  0.1359  0.4701
16889WAT     H169361   5.504   9.292   2.968  1.0388 -0.1582  2.3868
16889WAT     H269362   5.378   9.347   3.032  0.9867  1.0285  1.3193
16889WAT    EPW69363   5.432   9.280   3.016 -0.1156  0.2151  0.8349
16890WAT      O69364  -2.627  10.333   7.671 -0.0193 -0.4212  0.5185
16890WAT     H169365  -2.711  10.290   7.657 -1.7298  2.4818  1.0065
16890WAT     H269366  -2.607  10.318   7.764 -1.9502  1.8620  1.3921
16890WAT    EPW69367  -2.635  10.325   7.682 -0.4995  0.2623  0.6981
16891WAT      O69368   8.120   0.680   3.317  1.0730 -0.8575  0.3093
16891WAT     H169369   8.078   0.696   3.233  1.9792  0.4814  0.0845
16891WAT     H269370   8.205   0.724   3.311  0.8379 -0.0346  2.1981
16891WAT    EPW69371   8.126   0.688   3.305  1.1616 -0.5724  0.5288
16892WAT      O69372   2.674   3.675   7.002 -0.3430 -0.3352 -0.5191
16892WAT     H169373   2.668   3.675   6.907  3.4851  0.0430 -0.9200
16892WAT     H269374   2.678   3.767   7.026 -0.4127 -0.4444 -0.0748
16892WAT    EPW69375   2.674   3.687   6.993  0.1526 -0.2997 -0.5136
16893WAT      O69376   0.730   6.660   6.550 -0.0237 -0.2026 -0.1751
16893WAT     H169377   0.806   6.712   6.576 -0.4047 -0.1341  0.8173
16893WAT     H269378   0.744   6.643   6.457 -0.2142  2.2452 -0.7154
16893WAT    EPW69379   0.742   6.665   6.541 -0.0991  0.1292 -0.1154
16894WAT      O69380  -0.913   0.233   2.766 -0.0170  0.2970 -0.1764
16894WAT     H169381  -0.841   0.295   2.781  1.2364 -1.6221  2.5832
16894WAT     H269382  -0.895   0.196   2.680  2.3631 -0.1424  0.4398
16894WAT    EPW69383  -0.901   0.237   2.757  0.4622 -0.0141  0.2688
16895WAT      O69384  -0.569   2.513   6.718  0.3689 -0.4818  0.4373
16895WAT     H169385  -0.581   2.482   6.808  1.3186  0.7099  1.0000
16895WAT     H269386  -0.494   2.465   6.686  1.0352  0.2547  0.8592
16895WAT    EPW69387  -0.561   2.503   6.726  0.5821 -0.2275  0.5670
16896WAT      O69388  -0.429   4.596   5.736 -0.0837 -0.4840  0.1143
16896WAT     H169389  -0.471   4.523   5.690  1.1499 -0.6062 -0.8819
16896WAT     H269390  -0.490   4.669   5.727 -0.2438 -0.7429 -1.0035
16896WAT    EPW69391  -0.442   4.596   5.729  0.0579 -0.5343 -0.1645
16897WAT      O69392  -2.068   5.757   6.340  0.5606 -0.3344 -0.3617
16897WAT     H169393  -2.055   5.824   6.407 -2.6007 -0.9341  1.0037
16897WAT     H269394  -2.026   5.679   6.377 -0.6379 -0.5063  0.6745
16897WAT    EPW69395  -2.060   5.756   6.354 -0.0145 -0.4363 -0.0451
16898WAT      O69396   1.071   7.118   7.946 -0.6340 -0.1874 -0.6301
16898WAT     H169397   1.051   7.133   7.854  2.0169  1.2238 -1.0804
16898WAT     H269398   1.074   7.206   7.984 -1.0191 -0.7100  0.6810
16898WAT    EPW69399   1.069   7.132   7.939 -0.3352 -0.0701 -0.5167
16899WAT      O69400   1.313   2.503   5.524 -0.1497 -0.1236 -0.2546
16899WAT     H169401   1.363   2.423   5.544 -0.7143 -0.4322 -0.0419
16899WAT     H269402   1.341   2.527   5.436 -0.2221 -0.7547 -0.4576
16899WAT    EPW69403   1.323   2.495   5.515 -0.2337 -0.2476 -0.2532
16900WAT      O69404   3.753   9.899   1.581  0.6218 -0.3357 -0.3171
16900WAT     H169405   3.727   9.903   1.673  1.8221 -1.3049  0.0779
16900WAT     H269406   3.673   9.923   1.533 -0.0728 -0.0192  0.9552
16900WAT    EPW69407   3.739   9.903   1.587  0.6886 -0.4220 -0.0972
16901WAT      O69408   1.892   1.196   3.452 -0.2696  0.6794  0.4493
16901WAT     H169409   1.971   1.206   3.506  0.2254  0.6708 -0.2568
16901WAT     H269410   1.826   1.162   3.512  0.6263 -0.5441  0.7637
16901WAT    EPW69411   1.894   1.193   3.468 -0.0861  0.5169  0.3976
16902WAT      O69412  -6.519   7.987   8.475  0.3144 -0.6395  0.2791
16902WAT     H169413  -6.467   7.939   8.540  0.2412 -4.9072 -2.4324
16902WAT     H269414  -6.604   7.999   8.518  0.9713 -1.1764  1.8169
16902WAT    EPW69415  -6.523   7.982   8.489  0.3915 -1.2732  0.1240
16903WAT      O69416   2.639   1.784   5.098 -0.6638  0.2155  0.3821
16903WAT     H169417   2.700   1.784   5.172 -1.4164  1.7131  1.0467
16903WAT     H269418   2.689   1.744   5.026  1.1742  1.5146  0.8554
16903WAT    EPW69419   2.654   1.779   5.098 -0.5207  0.5844  0.5324
16904WAT      O69420   3.399   0.685   6.329 -0.1017  0.0628  0.2562
16904WAT     H169421   3.338   0.745   6.372  0.2799 -0.6640  1.8864
16904WAT     H269422   3.347   0.640   6.263 -1.1880 -0.1008  1.2013
16904WAT    EPW69423   3.384   0.687   6.326 -0.1947 -0.0546  0.5958
16905WAT      O69424   6.055   4.663   2.632 -0.5579 -0.1628 -0.4523
16905WAT     H169425   6.128   4.653   2.694  0.1669 -1.9743 -1.5474
16905WAT     H269426   6.096   4.689   2.550 -1.4540  1.4962 -0.4325
16905WAT    EPW69427   6.070   4.665   2.630 -0.5805 -0.1829 -0.5940
16906WAT      O69428  -2.510  10.292   8.925 -0.3999 -0.4183 -0.0730
16906WAT     H169429  -2.451  10.341   8.868 -0.6935  1.2802  1.0075
16906WAT     H269430  -2.477  10.202   8.922  0.3037 -0.1431 -1.9424
16906WAT    EPW69431  -2.498  10.286   8.917 -0.3458 -0.1578 -0.1769
16907WAT      O69432   1.739   3.540   8.535  0.5292  0.2043  0.0978
16907WAT     H169433   1.719   3.559   8.626  0.0128 -0.6634  0.1742
16907WAT     H269434   1.782   3.619   8.503 -0.5265  1.0445  0.7060
16907WAT    EPW69435   1.742   3.553   8.543  0.3219  0.2006  0.1884
16908WAT      O69436   5.861   2.361   1.032  0.0748  0.1612  0.2802
16908WAT     H169437   5.881   2.299   0.962 -1.5705  0.2878 -0.3548
16908WAT     H269438   5.767   2.349   1.048 -0.4397  2.9251 -0.3042
16908WAT    EPW69439   5.851   2.351   1.025 -0.2100  0.5424  0.1193
16909WAT      O69440   7.239   5.854   1.549 -0.0477 -0.3326 -0.4071
16909WAT     H169441   7.260   5.900   1.467  1.4684 -1.3632 -0.6426
16909WAT     H269442   7.324   5.840   1.590 -0.8623  1.5884  2.1911
16909WAT    EPW69443   7.253   5.858   1.543  0.0451 -0.2153 -0.0955
16910WAT      O69444   6.540   8.479   1.739  0.2162  0.2455 -0.0008
16910WAT     H169445   6.510   8.462   1.650 -0.1890  0.3448  0.1165
16910WAT     H269446   6.567   8.571   1.738 -0.0870  0.3351  0.0633
16910WAT    EPW69447   6.540   8.489   1.727  0.1225  0.2704  0.0231
16911WAT      O69448  -2.826   9.439   7.904  0.5661  0.5356  0.1065
16911WAT     H169449  -2.873   9.362   7.874 -0.0605  0.1187  2.0182
16911WAT     H269450  -2.818   9.494   7.827 -0.2969 -0.7786 -0.9548
16911WAT    EPW69451  -2.831   9.436   7.890  0.3698  0.3071  0.2189
16912WAT      O69452  -4.350   7.096   5.020 -0.2411 -0.7089 -0.5785
16912WAT     H169453  -4.327   7.178   4.978  0.4430 -0.7152 -0.2277
16912WAT     H269454  -4.340   7.030   4.952  1.5301 -0.8121 -0.2493
16912WAT    EPW69455  -4.346   7.098   5.006  0.0827 -0.7234 -0.4888
16913WAT      O69456   4.894   0.175   3.057  0.1920 -0.6018  0.4720
16913WAT     H169457   4.857   0.176   3.146  0.1888 -0.8165  0.4720
16913WAT     H269458   4.818   0.184   3.000  0.2258 -0.1038  0.5010
16913WAT    EPW69459   4.879   0.177   3.062  0.1960 -0.5645  0.4758
16914WAT      O69460  -4.085   8.286   7.615  0.8022  0.0168 -0.0268
16914WAT     H169461  -4.142   8.360   7.595 -1.2392 -1.1562  1.1565
16914WAT     H269462  -4.003   8.308   7.571 -1.4706  0.2542 -4.9257
16914WAT    EPW69463  -4.082   8.299   7.606  0.2332 -0.1068 -0.5169
16915WAT      O69464   4.068   7.317   6.297  0.4351 -0.5161  0.2021
16915WAT     H169465   4.051   7.404   6.333  0.5940 -0.5948  0.4695
16915WAT     H269466   4.154   7.293   6.332  1.4409  0.1461 -1.6178
16915WAT    EPW69467   4.077   7.325   6.306  0.5889 -0.4392 -0.0026
16916WAT      O69468   3.305   6.930   1.357  0.1953  0.5033 -0.0614
16916WAT     H169469   3.216   6.963   1.372  0.0264 -0.5525  1.4311
16916WAT     H269470   3.294   6.836   1.349  1.0230  0.4921 -1.4168
16916WAT    EPW69471   3.292   6.922   1.358  0.2822  0.3626 -0.0433
16917WAT      O69472   3.648   1.725   5.168 -0.0074 -0.5696  0.1840
16917WAT     H169473   3.659   1.815   5.197 -0.4639 -0.5495  0.3106
16917WAT     H269474   3.617   1.732   5.078  1.7598 -0.6367 -0.4744
16917WAT    EPW69475   3.645   1.737   5.160  0.1655 -0.5758  0.1140
16918WAT      O69476  -2.288   5.651   4.594  0.4165 -0.6940  0.1358
16918WAT     H169477  -2.260   5.617   4.509  1.0594 -1.5598  0.6790
16918WAT     H269478  -2.343   5.727   4.572  0.8123 -0.7190 -1.0395
16918WAT    EPW69479  -2.292   5.657   4.580  0.5535 -0.8116  0.0522
16919WAT      O69480   9.012   0.174   0.097 -0.2215  0.4685  0.7383
16919WAT     H169481   9.084   0.114   0.078 -1.7214 -1.1008 -0.2389
16919WAT     H269482   9.019   0.242   0.029 -0.4295 -0.4063 -0.1780
16919WAT    EPW69483   9.022   0.175   0.085 -0.4468  0.1462  0.4886
16920WAT      O69484   0.248   0.029   5.303  0.4183 -0.5687  0.0564
16920WAT     H169485   0.187   0.016   5.376  0.8531  0.2022  0.5706
16920WAT     H269486   0.210   0.100   5.252 -0.8190 -2.2575 -1.5215
16920WAT    EPW69487   0.235   0.037   5.306  0.3124 -0.6898 -0.0839
16921WAT      O69488  -2.773   5.784   8.911 -0.4053  0.1873 -0.0599
16921WAT     H169489  -2.695   5.730   8.896 -0.7021 -0.0544 -0.8231
16921WAT     H269490  -2.792   5.773   9.004  1.8098  2.1091  0.7057
16921WAT    EPW69491  -2.765   5.775   8.921 -0.1522  0.4089 -0.0591
16922WAT      O69492   4.292   1.605   4.408  0.1848 -0.5098 -0.5944
16922WAT     H169493   4.209   1.599   4.454 -1.0114 -3.0269 -2.7853
16922WAT     H269494   4.303   1.519   4.368  2.9664  0.3284 -1.8795
16922WAT    EPW69495   4.283   1.593   4.409  0.3939 -0.7312 -1.0529
16923WAT      O69496  -0.935   8.421   8.293  0.4538 -0.6215  0.0375
16923WAT     H169497  -0.861   8.452   8.240  0.4375 -1.1034 -0.2766
16923WAT     H269498  -0.979   8.357   8.237  0.1933 -0.8344  0.4823
16923WAT    EPW69499  -0.931   8.416   8.279  0.4173 -0.7129  0.0548
16924WAT      O69500  -2.914  10.108   6.981  0.0195  0.0224 -0.0887
16924WAT     H169501  -2.938  10.139   7.069  0.5107 -0.9565  0.4112
16924WAT     H269502  -2.994  10.066   6.948 -0.5496  1.4779 -0.6406
16924WAT    EPW69503  -2.928  10.107   6.988  0.0093  0.0854 -0.0956
16925WAT      O69504   2.649   2.641   5.578  0.6983 -0.0123  0.1426
16925WAT     H169505   2.654   2.703   5.650  3.0237  0.3320 -0.2349
16925WAT     H269506   2.641   2.695   5.499 -1.3791 -0.3711  0.0598
16925WAT    EPW69507   2.649   2.656   5.577  0.7310 -0.0142  0.0818
16926WAT      O69508   3.934   7.539   5.053 -0.5712  0.3380  0.5487
16926WAT     H169509   3.931   7.497   4.968 -3.7102 -0.5757  1.0023
16926WAT     H269510   3.922   7.632   5.034  2.1766  0.6399 -0.1492
16926WAT    EPW69511   3.932   7.546   5.039 -0.6227  0.2575  0.5167
16927WAT      O69512  -3.290   6.643   6.789 -0.5360  0.2639 -0.4224
16927WAT     H169513  -3.253   6.730   6.803  0.1399 -0.3289  1.9616
16927WAT     H269514  -3.229   6.600   6.730 -1.2480  1.5801 -2.2032
16927WAT    EPW69515  -3.277   6.649   6.783 -0.5409  0.3593 -0.3428
16928WAT      O69516  -3.512   9.030   2.805 -0.1764 -0.1979  0.2448
16928WAT     H169517  -3.591   8.980   2.783  0.2316 -0.3786 -0.8423
16928WAT     H269518  -3.472   9.050   2.721  1.8351 -1.5469  0.8060
16928WAT    EPW69519  -3.517   9.026   2.791  0.1427 -0.3996  0.1755
16929WAT      O69520  -3.080   6.740   8.843  0.1619 -0.9547  0.0506
16929WAT     H169521  -3.100   6.809   8.780  1.2494 -1.5441 -0.9847
16929WAT     H269522  -3.006   6.693   8.804  0.9631 -1.2580  1.8309
16929WAT    EPW69523  -3.073   6.743   8.829  0.4109 -1.0726  0.1488
16930WAT      O69524  -2.399   0.924   6.451 -0.5111 -0.3803  1.2321
16930WAT     H169525  -2.349   0.844   6.434  0.4235 -0.4941  4.0639
16930WAT     H269526  -2.377   0.948   6.541 -0.5744  3.2282  0.4372
16930WAT    EPW69527  -2.390   0.916   6.460 -0.3963  0.0807  1.5008
16931WAT      O69528  -0.026   0.915   6.058  0.6238 -0.6082  0.5535
16931WAT     H169529   0.009   0.928   5.970 -0.6339 -2.0370 -0.2031
16931WAT     H269530  -0.036   0.820   6.067 -2.6695 -0.3703  0.8051
16931WAT    EPW69531  -0.023   0.904   6.048  0.0236 -0.7653  0.4869
16932WAT      O69532   3.549   7.980   3.741 -0.6825  0.9766  0.6148
16932WAT     H169533   3.501   7.901   3.763 -1.6694  1.6758  1.0161
16932WAT     H269534   3.551   7.981   3.645  0.0647  0.0503  0.6089
16932WAT    EPW69535   3.543   7.970   3.731 -0.7142  0.9465  0.6670
16933WAT      O69536   4.143   9.440   0.563 -0.9669 -0.6976 -0.0799
16933WAT     H169537   4.218   9.383   0.547 -0.1520 -0.3819  2.2537
16933WAT     H269538   4.073   9.382   0.593 -0.2007 -0.5835  2.0962
16933WAT    EPW69539   4.143   9.425   0.565 -0.7584 -0.6409  0.5149
16934WAT      O69540  -0.542   3.272   1.748 -0.0670  0.2000  0.1718
16934WAT     H169541  -0.486   3.345   1.776  1.6484  0.2548 -2.9020
16934WAT     H269542  -0.541   3.211   1.822  3.4539  0.5873  0.6160
16934WAT    EPW69543  -0.535   3.274   1.762  0.6236  0.2583 -0.1750
16935WAT      O69544   4.719   0.717   4.819  0.2483  0.5006  0.6198
16935WAT     H169545   4.753   0.629   4.805 -0.3217  0.4942 -0.8658
16935WAT     H269546   4.724   0.730   4.914  2.6462 -0.1910  0.6460
16935WAT    EPW69547   4.724   0.707   4.829  0.4895  0.4086  0.4272
16936WAT      O69548   1.848   8.234   2.391 -0.4040 -0.2321  0.3303
16936WAT     H169549   1.878   8.310   2.441  2.3270 -1.6909  1.0790
16936WAT     H269550   1.793   8.272   2.322  0.6473  2.3994  0.8074
16936WAT    EPW69551   1.844   8.249   2.388  0.0949 -0.0777  0.4919
16937WAT      O69552   5.995   5.135   2.827  0.0305  0.0605 -0.1371
16937WAT     H169553   6.041   5.068   2.776  0.2509  0.3062 -0.2611
16937WAT     H269554   5.990   5.098   2.915 -0.4747 -0.4253 -0.3641
16937WAT    EPW69555   6.000   5.121   2.832 -0.0072  0.0288 -0.1832
16938WAT      O69556  -0.136   3.157   7.064  0.6290  0.8553  0.2250
16938WAT     H169557  -0.055   3.205   7.078  1.2970 -0.8079  2.6413
16938WAT     H269558  -0.197   3.192   7.129  0.8121 -0.7740  1.3265
16938WAT    EPW69559  -0.133   3.168   7.074  0.7413  0.4209  0.6888
16939WAT      O69560   5.036   7.992   1.372 -0.2988 -0.2492 -0.2287
16939WAT     H169561   4.967   7.979   1.437 -0.8012  0.8114 -0.5336
16939WAT     H269562   5.089   7.913   1.379 -2.1012 -1.5797 -0.6769
16939WAT    EPW69563   5.034   7.980   1.382 -0.6030 -0.2847 -0.3281
16940WAT      O69564  -0.299   5.734   5.269  0.2064 -0.6493  0.3479
16940WAT     H169565  -0.238   5.793   5.313  0.5754  0.1103 -1.1344
16940WAT     H269566  -0.378   5.787   5.256  1.0653  0.1221 -2.3749
16940WAT    EPW69567  -0.301   5.749   5.273  0.3683 -0.4475 -0.2067
16941WAT      O69568   4.326   7.392   1.767  0.2221 -0.1583  0.1168
16941WAT     H169569   4.305   7.485   1.769  1.0939  0.1244 -1.6440
16941WAT     H269570   4.368   7.374   1.851 -1.5460  0.6084  1.2027
16941WAT    EPW69571   4.329   7.402   1.778  0.1040 -0.0200  0.0278
16942WAT      O69572   1.435   6.372   3.552 -0.6680  0.5889  0.1393
16942WAT     H169573   1.383   6.418   3.485 -1.5673  0.3953  0.6831
16942WAT     H269574   1.489   6.310   3.502  0.5887  2.2199 -0.6045
16942WAT    EPW69575   1.435   6.370   3.536 -0.6208  0.7787  0.1130
16943WAT      O69576  -1.032   5.135   7.777  0.0662 -0.2099 -0.4995
16943WAT     H169577  -1.059   5.090   7.858  1.7797 -1.3043 -0.4743
16943WAT     H269578  -1.010   5.223   7.805 -0.8035 -0.1089 -0.0681
16943WAT    EPW69579  -1.033   5.140   7.791  0.1774 -0.3409 -0.4392
16944WAT      O69580   6.558   0.010   5.592  0.3064  0.1876 -0.7355
16944WAT     H169581   6.557   0.105   5.583 -0.1260  0.1662 -0.9299
16944WAT     H269582   6.484  -0.010   5.648  0.0258 -0.0818 -1.1913
16944WAT    EPW69583   6.548   0.020   5.598  0.2124  0.1493 -0.8214
16945WAT      O69584  -1.681   3.822   6.974  0.6055  0.5553  0.3628
16945WAT     H169585  -1.668   3.888   6.906 -2.4919  1.5803  0.6070
16945WAT     H269586  -1.741   3.759   6.935 -1.1375  1.0896  2.0390
16945WAT    EPW69587  -1.687   3.822   6.960 -0.0330  0.7609  0.6161
16946WAT      O69588   5.786   7.634   1.761 -0.1300 -0.0241 -0.8408
16946WAT     H169589   5.799   7.687   1.840 -1.0035  0.5720 -1.0755
16946WAT     H269590   5.754   7.550   1.795  1.9101 -0.6988 -0.4232
16946WAT    EPW69591   5.783   7.630   1.776  0.0236 -0.0343 -0.8167
16947WAT      O69592   2.679   9.843   4.190  0.1397 -0.6455 -0.2374
16947WAT     H169593   2.625   9.921   4.187 -0.8737 -1.3482 -0.7990
16947WAT     H269594   2.653   9.798   4.271  2.5653  0.8406  1.4898
16947WAT    EPW69595   2.669   9.847   4.201  0.3260 -0.5426 -0.0837
16948WAT      O69596   1.967   3.452   6.366  0.2874 -0.0672  0.0980
16948WAT     H169597   2.028   3.507   6.415 -0.5071  0.2346  0.7793
16948WAT     H269598   2.022   3.398   6.311  1.1726  0.1665  0.7346
16948WAT    EPW69599   1.982   3.453   6.365  0.2993  0.0033  0.2718
16949WAT      O69600   1.770   3.292   8.947  0.1369  0.0398 -0.2621
16949WAT     H169601   1.788   3.330   8.860 -0.9159  2.1750  0.3847
16949WAT     H269602   1.853   3.303   8.995 -0.2144  1.8657 -0.0092
16949WAT    EPW69603   1.784   3.299   8.942 -0.0483  0.5622 -0.1435
16950WAT      O69604   1.731   6.468   1.308 -0.2865 -0.2196 -0.4711
16950WAT     H169605   1.683   6.414   1.371 -1.7929  1.4835 -0.0730
16950WAT     H269606   1.802   6.412   1.277 -1.1838 -2.0578  0.6517
16950WAT    EPW69607   1.734   6.453   1.312 -0.6035 -0.2375 -0.2705
16951WAT      O69608   2.586   0.563   5.621  0.5958 -0.4743 -0.2762
16951WAT     H169609   2.552   0.479   5.655 -0.3613 -0.4617 -1.1610
16951WAT     H269610   2.531   0.629   5.663  1.1236 -0.3036  0.1508
16951WAT    EPW69611   2.574   0.560   5.631  0.5392 -0.4501 -0.3366
16952WAT      O69612   1.184   9.599   8.243  0.8446 -0.1502  0.1905
16952WAT     H169613   1.123   9.529   8.218  0.5830  0.3003 -0.4810
16952WAT     H269614   1.201   9.585   8.336 -1.8305  0.8582  0.9224
16952WAT    EPW69615   1.178   9.588   8.252  0.4572  0.0424  0.1984
16953WAT      O69616   0.353   5.899   7.755 -0.2277 -0.9084 -0.7724
16953WAT     H169617   0.272   5.848   7.760 -2.4253  2.1018 -2.3538
16953WAT     H269618   0.368   5.910   7.661  0.4993  0.7742 -0.4950
16953WAT    EPW69619   0.344   5.894   7.743 -0.4216 -0.2894 -0.9446
16954WAT      O69620   2.505   8.792   3.647 -0.3473 -0.6633 -0.6721
16954WAT     H169621   2.449   8.820   3.720 -2.7144 -1.8257 -1.9398
16954WAT     H269622   2.464   8.711   3.616  1.9291 -1.4191 -1.8674
16954WAT    EPW69623   2.492   8.785   3.653 -0.3593 -0.9160 -0.9969
16955WAT      O69624  -3.188   7.916   4.861  0.2559  0.3849  0.5321
16955WAT     H169625  -3.282   7.916   4.844  0.2326  2.0379  0.4856
16955WAT     H269626  -3.167   7.826   4.884 -0.8355 -0.6458 -2.1900
16955WAT    EPW69627  -3.197   7.904   4.862  0.1088  0.4671  0.1669
16956WAT      O69628   7.045   4.980   3.171 -0.2006  0.5479 -0.0965
16956WAT     H169629   7.045   4.971   3.266  0.0530  0.2237 -0.1257
16956WAT     H269630   6.957   4.953   3.144 -0.3933  0.9940  0.0775
16956WAT    EPW69631   7.033   4.975   3.180 -0.1924  0.5639 -0.0774
16957WAT      O69632  -1.090   4.283   6.682  0.2995  0.0579  0.9713
16957WAT     H169633  -1.112   4.216   6.618  0.0629  0.0443  1.0642
16957WAT     H269634  -1.006   4.318   6.653  0.4599 -0.3270  0.9629
16957WAT    EPW69635  -1.082   4.279   6.670  0.2895  0.0052  0.9825
16958WAT      O69636   5.682   0.376   4.660  0.3110 -0.4362 -0.2717
16958WAT     H169637   5.639   0.343   4.581 -0.4224 -0.5321  0.1522
16958WAT     H269638   5.609   0.399   4.718  0.7897  1.7130 -0.4574
16958WAT    EPW69639   5.667   0.374   4.657  0.2775 -0.1654 -0.2403
16959WAT      O69640  -0.251   5.062   1.487  0.5796 -0.7809  0.0311
16959WAT     H169641  -0.243   5.154   1.512 -1.8672 -0.0017 -1.6743
16959WAT     H269642  -0.243   5.014   1.569  4.7545  0.6174  0.6917
16959WAT    EPW69643  -0.249   5.068   1.501  0.8075 -0.4938 -0.1067
16960WAT      O69644  -1.419   6.021   8.914 -0.1760 -0.1894 -0.0284
16960WAT     H169645  -1.439   5.958   8.844 -0.0197 -1.2568  0.8568
16960WAT     H269646  -1.337   6.062   8.886 -2.0234  2.3014 -2.3685
16960WAT    EPW69647  -1.411   6.018   8.901 -0.3991 -0.0017 -0.2203
16961WAT      O69648   4.542   4.280   0.388  0.8022  0.0119  0.1734
16961WAT     H169649   4.531   4.375   0.385 -1.1768 -0.1742 -0.5571
16961WAT     H269650   4.453   4.247   0.405  1.0680 -1.7575 -1.5229
16961WAT    EPW69651   4.529   4.288   0.390  0.5763 -0.2460 -0.1467
16962WAT      O69652  -2.501   9.098   6.139  0.6063 -0.1159  0.3781
16962WAT     H169653  -2.512   9.036   6.211  2.1211  0.1937  0.9251
16962WAT     H269654  -2.424   9.065   6.092 -1.9755 -2.0134 -2.9509
16962WAT    EPW69655  -2.492   9.085   6.142  0.4655 -0.3257  0.0112
16963WAT      O69656   0.665   1.758   7.856  0.1807 -0.0237  0.0052
16963WAT     H169657   0.683   1.809   7.935 -1.5453 -0.1622  0.5283
16963WAT     H269658   0.632   1.674   7.889 -1.9688  0.4424 -0.8190
16963WAT    EPW69659   0.663   1.753   7.871 -0.3305  0.0195 -0.0346
16964WAT      O69660  -3.734  10.201   5.376 -0.5801  0.0159  0.3793
16964WAT     H169661  -3.678  10.206   5.299 -1.4180 -0.5188 -0.2784
16964WAT     H269662  -3.690  10.256   5.441 -2.0431  4.2576 -1.8127
16964WAT    EPW69663  -3.721  10.209   5.374 -0.8836  0.5050  0.0033
16965WAT      O69664  -0.922   8.216   8.949 -0.0245  0.5684 -0.2872
16965WAT     H169665  -0.917   8.302   8.908 -2.2454 -0.6381 -3.5190
16965WAT     H269666  -0.883   8.157   8.886 -1.0632 -1.1250  0.5761
16965WAT    EPW69667  -0.916   8.220   8.935 -0.4544  0.1860 -0.5994
16966WAT      O69668  -1.396   5.691   5.877  0.3306 -0.7130 -0.0669
16966WAT     H169669  -1.432   5.603   5.893 -0.5512 -0.7338 -1.9537
16966WAT     H269670  -1.390   5.697   5.782 -2.0012  2.1873 -0.1655
16966WAT    EPW69671  -1.400   5.680   5.867 -0.0933 -0.3333 -0.3290
16967WAT      O69672   4.592   1.730   2.110  0.2315  0.2998  0.0026
16967WAT     H169673   4.627   1.818   2.098 -0.6620  0.6941  0.2351
16967WAT     H269674   4.577   1.723   2.204 -1.3295  0.5443 -0.2022
16967WAT    EPW69675   4.595   1.741   2.121 -0.0923  0.3840  0.0062
16968WAT      O69676  -0.393   8.347   3.291  0.1623  0.7071 -0.4535
16968WAT     H169677  -0.429   8.287   3.226  2.0780 -0.9944 -0.0267
16968WAT     H269678  -0.306   8.312   3.312  0.4501  2.3676  1.5048
16968WAT    EPW69679  -0.386   8.335   3.285  0.4529  0.7019 -0.1390
16969WAT      O69680  -0.006   9.464   7.142 -0.0579 -0.0194  0.6787
16969WAT     H169681   0.036   9.455   7.056  0.2892  0.6196  0.7693
16969WAT     H269682   0.067   9.465   7.204 -0.1374  1.7112  0.7928
16969WAT    EPW69683   0.010   9.463   7.139 -0.0226  0.2933  0.7057
16970WAT      O69684  -0.733   0.071   5.538  0.0290  0.3044 -0.3972
16970WAT     H169685  -0.811   0.098   5.489 -0.8908  0.1122  0.8929
16970WAT     H269686  -0.747   0.109   5.625  1.8624  1.0888 -0.4140
16970WAT    EPW69687  -0.745   0.080   5.543  0.1495  0.3825 -0.2291
16971WAT      O69688   3.048   8.552   3.975 -0.4081  0.1960  0.2993
16971WAT     H169689   2.954   8.570   3.979 -0.4523 -0.0673  0.4558
16971WAT     H269690   3.065   8.542   3.881 -0.1755  2.0958  0.0908
16971WAT    EPW69691   3.038   8.553   3.963 -0.3833  0.4120  0.2925
16972WAT      O69692  -1.354   0.815   2.114 -0.0619  0.4029 -0.0960
16972WAT     H169693  -1.296   0.767   2.054  0.8311 -0.3294  1.3029
16972WAT     H269694  -1.330   0.906   2.102 -0.0797  0.2966 -1.0301
16972WAT    EPW69695  -1.343   0.820   2.104  0.0535  0.2922 -0.0347
16973WAT      O69696   0.528   3.630   1.646 -0.3654 -0.2072  0.3826
16973WAT     H169697   0.489   3.633   1.734  0.0290 -1.8179  0.6405
16973WAT     H269698   0.484   3.557   1.603 -0.3389  0.3792 -0.6719
16973WAT    EPW69699   0.517   3.621   1.652 -0.3099 -0.3422  0.2775
16974WAT      O69700   5.695   4.185   1.318 -0.1906  0.4298  0.2265
16974WAT     H169701   5.718   4.260   1.373 -0.1218 -0.1326  0.9743
16974WAT     H269702   5.718   4.109   1.370  0.7239 -0.1252 -0.9456
16974WAT    EPW69703   5.701   4.185   1.332 -0.0608  0.2825  0.1705
16975WAT      O69704   0.705   1.982   8.004 -0.0659 -0.1045  0.2568
16975WAT     H169705   0.699   2.023   7.918  0.4772  2.3450  1.2980
16975WAT     H269706   0.628   2.016   8.052 -0.4547 -1.5602  0.7098
16975WAT    EPW69707   0.694   1.992   7.999 -0.0456  0.0266  0.4542
16976WAT      O69708   0.741  10.282   3.033 -0.7099  0.3502  0.2803
16976WAT     H169709   0.701  10.368   3.033  0.6841  1.0391  0.7308
16976WAT     H269710   0.807  10.287   3.102 -0.6188 -1.0890  0.3265
16976WAT    EPW69711   0.745  10.294   3.042 -0.5140  0.2518  0.3457
16977WAT      O69712   4.033   1.091   6.538  0.0913 -0.2703 -1.1480
16977WAT     H169713   4.122   1.055   6.544 -0.2164 -0.8110  1.5988
16977WAT     H269714   4.021   1.111   6.446  3.4741  0.8769 -1.4519
16977WAT    EPW69715   4.043   1.089   6.527  0.4969 -0.1903 -0.8256
16978WAT      O69716  -0.977   9.985   0.408 -0.1208  0.6984  0.0485
16978WAT     H169717  -0.909   9.995   0.341  1.4617  0.5145  1.5633
16978WAT     H269718  -0.944  10.034   0.483 -2.1435  1.4213  0.5481
16978WAT    EPW69719  -0.964   9.993   0.409 -0.1789  0.7696  0.3142
16979WAT      O69720   3.238   9.212   4.851 -0.6919 -0.5237  0.0283
16979WAT     H169721   3.226   9.240   4.761 -0.2625  3.5687  1.0233
16979WAT     H269722   3.309   9.148   4.847  0.6130  0.9309 -2.4212
16979WAT    EPW69723   3.246   9.207   4.839 -0.4631  0.2079 -0.1633
16980WAT      O69724   6.160   0.611   0.205  0.3679  0.4859 -0.2903
16980WAT     H169725   6.187   0.519   0.207 -1.9117 -0.2236 -0.0045
16980WAT     H269726   6.193   0.643   0.122  0.9137 -0.6842 -0.5506
16980WAT    EPW69727   6.168   0.603   0.195  0.1390  0.2380 -0.2869
16981WAT      O69728  -0.646   1.280   7.093  0.0597  0.1777 -0.5003
16981WAT     H169729  -0.616   1.277   7.184 -0.1941 -1.4146 -0.4428
16981WAT     H269730  -0.585   1.224   7.045  0.1577  0.9609 -1.3211
16981WAT    EPW69731  -0.634   1.272   7.099  0.0392  0.0710 -0.6011
16982WAT      O69732   3.554   5.808   4.737 -0.0972 -0.0963  0.1946
16982WAT     H169733   3.616   5.785   4.668 -2.2649 -2.6712 -1.0891
16982WAT     H269734   3.543   5.903   4.728  0.9201 -0.1109 -1.9241
16982WAT    EPW69735   3.560   5.817   4.727 -0.2489 -0.4380 -0.2542
16983WAT      O69736  -3.364   2.454   4.732  0.3409  0.2840 -0.3776
16983WAT     H169737  -3.376   2.521   4.664 -1.2011  2.6413  2.0573
16983WAT     H269738  -3.403   2.375   4.694 -1.0429  1.6705 -2.0269
16983WAT    EPW69739  -3.371   2.452   4.718 -0.0449  0.7777 -0.2739
16984WAT      O69740   3.529   6.479   5.790  0.2066  0.2593  0.3579
16984WAT     H169741   3.487   6.401   5.827 -2.4544  0.4800 -1.8647
16984WAT     H269742   3.504   6.550   5.849 -1.8510  0.2168 -0.3973
16984WAT    EPW69743   3.520   6.478   5.803 -0.4158  0.2825 -0.0346
16985WAT      O69744   3.020   4.833   8.023 -0.6728  0.2572 -0.4765
16985WAT     H169745   3.096   4.782   7.994 -2.9601 -2.5772 -2.0675
16985WAT     H269746   3.018   4.908   7.964  0.7123  0.2298 -0.6015
16985WAT    EPW69747   3.030   4.836   8.011 -0.7919 -0.1204 -0.7029
16986WAT      O69748  -6.270   5.578   7.428 -0.2156  0.6833 -0.3382
16986WAT     H169749  -6.242   5.607   7.515  0.0485  0.0267 -0.1968
16986WAT     H269750  -6.249   5.484   7.427 -1.0610  0.4952 -0.7718
16986WAT    EPW69751  -6.263   5.569   7.440 -0.2921  0.5720 -0.3769
16987WAT      O69752  -1.526   4.982   0.636  0.1877 -0.4270 -0.2066
16987WAT     H169753  -1.517   4.956   0.728  1.5230  0.1683 -0.1558
16987WAT     H269754  -1.438   4.979   0.601 -0.4881 -2.1949 -1.9399
16987WAT    EPW69755  -1.513   4.978   0.644  0.2747 -0.5817 -0.4286
16988WAT      O69756   3.620   3.640   2.199 -0.6186  0.3038  0.1799
16988WAT     H169757   3.656   3.563   2.242 -0.9142 -0.1606 -0.3870
16988WAT     H269758   3.684   3.709   2.214 -0.0643 -0.2101  0.1764
16988WAT    EPW69759   3.633   3.639   2.207 -0.5845  0.1749  0.1048
16989WAT      O69760   1.533   9.411   0.356 -0.4834 -0.0239 -0.2265
16989WAT     H169761   1.563   9.401   0.447  0.5433  0.4814 -0.4859
16989WAT     H269762   1.442   9.440   0.363 -0.5673 -0.4747  0.6340
16989WAT    EPW69763   1.525   9.414   0.369 -0.3591 -0.0167 -0.1472
16990WAT      O69764   1.451   6.934   0.082 -0.7904  0.2266  0.4789
16990WAT     H169765   1.408   6.916   0.166  0.0003  0.9505  1.0623
16990WAT     H269766   1.387   6.984   0.032 -0.7678  1.0049  1.2073
16990WAT    EPW69767   1.437   6.939   0.087 -0.6831  0.4249  0.6519
16991WAT      O69768  -6.812   6.636   8.353  0.2389 -0.5860  0.8795
16991WAT     H169769  -6.829   6.542   8.363  0.9940 -0.5772  2.6360
16991WAT     H269770  -6.855   6.677   8.428 -0.4057  0.5387 -0.0671
16991WAT    EPW69771  -6.820   6.629   8.365  0.2534 -0.4365  0.9861
16992WAT      O69772   8.611   3.590   0.534 -0.2954 -0.2403 -0.3080
16992WAT     H169773   8.662   3.513   0.511 -0.8681 -0.3714 -1.1631
16992WAT     H269774   8.650   3.661   0.484  0.8238  0.2491  1.1717
16992WAT    EPW69775   8.623   3.589   0.525 -0.2232 -0.1930 -0.2256
16993WAT      O69776  -3.568   9.813   1.049  0.0762 -0.2530  0.2452
16993WAT     H169777  -3.620   9.780   0.976  0.3628 -1.2839  0.4759
16993WAT     H269778  -3.566   9.740   1.112  2.6731 -0.7023 -0.2305
16993WAT    EPW69779  -3.574   9.799   1.048  0.4565 -0.4487  0.2129
16994WAT      O69780  -3.049   4.056   4.664  0.4102  0.3876 -0.1446
16994WAT     H169781  -2.955   4.042   4.680  0.4496  1.1663  0.3091
16994WAT     H269782  -3.052   4.096   4.577  0.6102  1.7531  0.4610
16994WAT    EPW69783  -3.037   4.059   4.655  0.4418  0.6702 -0.0050
16995WAT      O69784  -2.084   7.629   6.448  0.5757 -0.0071  0.6497
16995WAT     H169785  -2.058   7.644   6.540 -4.1341 -0.8319  2.3849
16995WAT     H269786  -2.066   7.536   6.434 -1.4806 -0.6665  1.9480
16995WAT    EPW69787  -2.078   7.618   6.459 -0.3167 -0.2029  1.0498
16996WAT      O69788  -4.284   6.267   7.792 -0.6085  0.4759  0.2081
16996WAT     H169789  -4.281   6.215   7.711  1.0520 -1.2968  1.3139
16996WAT     H269790  -4.376   6.269   7.815 -0.7577 -2.2643  0.2050
16996WAT    EPW69791  -4.296   6.260   7.784 -0.4091 -0.1192  0.3533
16997WAT      O69792   5.383   4.410   1.264 -0.0551 -0.3763 -0.6570
16997WAT     H169793   5.337   4.332   1.294  0.1521  0.2603  1.5300
16997WAT     H269794   5.470   4.403   1.304  0.6689 -0.0024 -2.1001
16997WAT    EPW69795   5.389   4.399   1.274  0.0677 -0.2432 -0.5589
16998WAT      O69796   4.676   1.955   1.584  0.1614  0.3821  0.2303
16998WAT     H169797   4.615   2.008   1.637  1.2488  0.1444  1.7931
16998WAT     H269798   4.652   1.975   1.494  0.0875  3.0702  0.7452
16998WAT    EPW69799   4.664   1.965   1.579  0.2952  0.7052  0.5044
16999WAT      O69800  -1.840   0.974   7.367 -0.0128  0.1816 -0.5573
16999WAT     H169801  -1.924   0.947   7.404 -0.0001 -0.8535 -1.2334
16999WAT     H269802  -1.863   1.018   7.285  0.1249 -0.7508 -1.1091
16999WAT    EPW69803  -1.854   0.976   7.361  0.0070 -0.0779 -0.7193
17000WAT      O69804   2.900   1.150   6.880 -0.2749 -0.4095 -0.1442
17000WAT     H169805   2.866   1.083   6.939 -3.2386  2.2567  1.5076
17000WAT     H269806   2.952   1.207   6.936 -2.4354  1.6882 -0.1159
17000WAT    EPW69807   2.903   1.148   6.895 -0.9508  0.2188  0.0775
17001WAT      O69808   2.385   3.848   0.632 -0.1303  0.0303 -0.4753
17001WAT     H169809   2.448   3.787   0.593  1.1521  0.8255  0.2906
17001WAT     H269810   2.438   3.922   0.661 -1.0234 -0.3830  2.5109
17001WAT    EPW69811   2.400   3.849   0.630 -0.0790  0.0807  0.0196
17002WAT      O69812   4.367   0.910   3.787 -0.7206 -0.1490  0.7531
17002WAT     H169813   4.354   0.823   3.825  3.8644 -0.3959  2.3767
17002WAT     H269814   4.401   0.893   3.699 -1.4504  0.0920  0.4182
17002WAT    EPW69815   4.370   0.896   3.780 -0.2122 -0.1498  0.9230
17003WAT      O69816  -1.324   7.340   2.321  0.0032  0.6259 -0.5607
17003WAT     H169817  -1.362   7.384   2.396 -2.6763  0.2409 -1.5863
17003WAT     H269818  -1.262   7.404   2.285 -1.1265  2.1342  0.0617
17003WAT    EPW69819  -1.321   7.354   2.326 -0.4992  0.7741 -0.6139
17004WAT      O69820   0.767   2.686   2.612  0.4634 -0.3587 -0.5815
17004WAT     H169821   0.782   2.724   2.699  2.2835 -1.2897 -0.4298
17004WAT     H269822   0.673   2.697   2.597  0.3437  1.0821  0.8921
17004WAT    EPW69823   0.757   2.692   2.622  0.6877 -0.2915 -0.3672
17005WAT      O69824   2.583   5.305   5.566 -0.0697  0.2609 -1.0190
17005WAT     H169825   2.547   5.235   5.511  0.3967 -0.9581  0.1793
17005WAT     H269826   2.668   5.272   5.595 -0.7257  0.3968  1.2363
17005WAT    EPW69827   2.589   5.291   5.562 -0.0948  0.1180 -0.5634
17006WAT      O69828   4.178   6.510   6.027 -0.2231  0.9560  0.0014
17006WAT     H169829   4.121   6.506   5.951  0.5015  2.3452 -0.6481
17006WAT     H269830   4.225   6.593   6.019 -0.0340  1.0956  1.9035
17006WAT    EPW69831   4.177   6.520   6.016 -0.1028  1.1575  0.1667
17007WAT      O69832   0.033   7.768   7.699  0.1711 -0.0292 -0.7338
17007WAT     H169833  -0.062   7.776   7.696  0.3050  2.0305 -1.1490
17007WAT     H269834   0.065   7.845   7.652  2.0682  0.9815  1.9576
17007WAT    EPW69835   0.025   7.779   7.692  0.4390  0.3757 -0.4337
17008WAT      O69836  -2.716   3.949   7.980  0.8237 -0.3929 -0.2757
17008WAT     H169837  -2.629   3.932   8.016  0.9947  0.9595  0.0260
17008WAT     H269838  -2.699   3.983   7.892  0.9063  3.1443  0.9331
17008WAT    EPW69839  -2.702   3.951   7.973  0.8572  0.2520 -0.0765
17009WAT      O69840  -1.221   8.637   3.489 -0.3437  0.4438 -0.8606
17009WAT     H169841  -1.236   8.731   3.481 -1.1536  0.5023  0.7816
17009WAT     H269842  -1.128   8.626   3.471 -0.5700  1.2999 -2.7719
17009WAT    EPW69843  -1.211   8.648   3.486 -0.4804  0.5646 -0.8960
17010WAT      O69844   4.593   3.568   3.866  0.3682 -0.2449  0.1070
17010WAT     H169845   4.564   3.658   3.877  1.0755 -0.1635  1.6371
17010WAT     H269846   4.628   3.544   3.952  1.3637 -1.5466 -0.6212
17010WAT    EPW69847   4.594   3.577   3.879  0.5929 -0.4059  0.2128
17011WAT      O69848  -6.059   8.091   6.783  0.2982  0.8838 -0.1870
17011WAT     H169849  -6.123   8.157   6.809 -0.8201  0.9881 -2.8599
17011WAT     H269850  -6.103   8.008   6.798  0.8802  0.7961  1.1477
17011WAT    EPW69851  -6.073   8.089   6.788  0.2275  0.8860 -0.3638
17012WAT      O69852  -3.568   5.317   8.751 -0.2751 -0.0799  0.2258
17012WAT     H169853  -3.495   5.295   8.809  1.6688  1.8814 -1.3140
17012WAT     H269854  -3.537   5.295   8.663 -2.4692 -1.3048 -0.3230
17012WAT    EPW69855  -3.554   5.311   8.747 -0.3080  0.0172 -0.0496
17013WAT      O69856   0.126  10.300   7.602 -0.2506 -0.5666  0.6737
17013WAT     H169857   0.122  10.292   7.507 -3.3756  0.3010  0.5919
17013WAT     H269858   0.090  10.217   7.635  1.2408 -1.0516  1.1637
17013WAT    EPW69859   0.120  10.288   7.594 -0.4661 -0.5159  0.7277
17014WAT      O69860   2.654   0.592   6.315 -0.5018 -0.5661  0.1984
17014WAT     H169861   2.644   0.577   6.409 -0.5381 -1.1927  0.0996
17014WAT     H269862   2.735   0.546   6.292  0.4623  1.0409  0.2344
17014WAT    EPW69863   2.664   0.584   6.325 -0.3794 -0.4368  0.1900
17015WAT      O69864  -2.531   5.352   7.256  0.4142 -0.1459 -0.0331
17015WAT     H169865  -2.566   5.279   7.206  0.3943 -1.9120  2.3630
17015WAT     H269866  -2.594   5.365   7.327  1.3864  0.9060  0.6757
17015WAT    EPW69867  -2.544   5.344   7.259  0.5399 -0.2401  0.3767
17016WAT      O69868   1.604   4.725   7.317  0.1547  0.3494  0.2205
17016WAT     H169869   1.540   4.662   7.285 -0.4321  1.2243 -0.3617
17016WAT     H269870   1.589   4.804   7.265  1.4393  0.7039  0.3443
17016WAT    EPW69871   1.594   4.727   7.306  0.2468  0.5114  0.1602
17017WAT      O69872   0.203   0.091   8.735 -0.0028 -0.1006  0.3916
17017WAT     H169873   0.228   0.119   8.647  0.3310 -2.2355 -0.2507
17017WAT     H269874   0.126   0.144   8.755 -1.1800 -0.7529 -1.9534
17017WAT    EPW69875   0.196   0.102   8.726 -0.1140 -0.4682 -0.0029
17018WAT      O69876  -2.689   7.498   7.742 -0.2355 -0.4548  0.2558
17018WAT     H169877  -2.603   7.456   7.751  0.4812  0.8338 -0.2564
17018WAT     H269878  -2.743   7.432   7.699  1.4244 -0.2419 -2.4015
17018WAT    EPW69879  -2.685   7.484   7.737  0.0778 -0.2565 -0.1624
17019WAT      O69880  -3.633   9.461   8.595  0.0719 -0.2859  0.7636
17019WAT     H169881  -3.724   9.464   8.566  0.8340  2.4284 -1.7974
17019WAT     H269882  -3.632   9.512   8.676 -0.5156  0.7345  0.1466
17019WAT    EPW69883  -3.645   9.468   8.602  0.0949  0.2065  0.3443
17020WAT      O69884  -4.266   0.664   8.100  0.2513 -0.1133  0.0968
17020WAT     H169885  -4.175   0.668   8.071  0.3035 -0.2387  0.2404
17020WAT     H269886  -4.311   0.731   8.049  0.1956 -0.8262 -0.8062
17020WAT    EPW69887  -4.260   0.673   8.090  0.2508 -0.2239 -0.0033
17021WAT      O69888   0.240   0.931   7.815 -0.6028 -0.0773  0.5190
17021WAT     H169889   0.326   0.944   7.775 -1.2525 -0.6742 -1.1867
17021WAT     H269890   0.205   1.020   7.827 -0.7451  0.1272 -1.1612
17021WAT    EPW69891   0.247   0.945   7.811 -0.7073 -0.1291  0.0725
17022WAT      O69892  -0.972   8.640   4.731 -0.4875  0.4410 -0.3539
17022WAT     H169893  -0.951   8.671   4.643 -0.4407 -1.8831 -1.2230
17022WAT     H269894  -1.056   8.596   4.721 -1.5488  1.9797  1.2569
17022WAT    EPW69895  -0.980   8.639   4.718 -0.6213  0.3371 -0.2558
17023WAT      O69896   3.256   4.702   7.650 -0.3647 -0.4432 -0.2036
17023WAT     H169897   3.172   4.748   7.660 -0.3017 -0.4892  0.6210
17023WAT     H269898   3.234   4.623   7.600 -1.2049 -1.4585  1.6555
17023WAT    EPW69899   3.242   4.698   7.645 -0.4672 -0.5832  0.1502
17024WAT      O69900   2.725   4.963   3.323 -0.0555 -0.5460  0.1317
17024WAT     H169901   2.787   5.029   3.355 -0.4687 -0.9969  1.9275
17024WAT     H269902   2.733   4.968   3.228 -0.7130  2.7470  0.1310
17024WAT    EPW69903   2.735   4.973   3.315 -0.1968 -0.1712  0.3685
17025WAT      O69904   0.751   9.678   4.172 -0.5902 -0.8613  0.1856
17025WAT     H169905   0.754   9.624   4.093 -1.1251 -0.3372 -0.1996
17025WAT     H269906   0.708   9.759   4.144  0.5012 -0.0974  0.6786
17025WAT    EPW69907   0.745   9.682   4.158 -0.5168 -0.6909  0.2000
17026WAT      O69908   5.842   7.589   3.956  0.2404  0.0233 -0.2233
17026WAT     H169909   5.883   7.521   3.903  1.7785 -0.1286  1.0771
17026WAT     H269910   5.853   7.559   4.046  0.8768  1.9137  0.3858
17026WAT    EPW69911   5.849   7.576   3.961  0.5271  0.2525  0.0286
17027WAT      O69912   2.884   6.640   7.510  0.5411 -0.0489  0.6561
17027WAT     H169913   2.946   6.700   7.550 -1.1778  1.8534  0.6439
17027WAT     H269914   2.905   6.641   7.416 -0.2091  1.5214  0.4823
17027WAT    EPW69915   2.895   6.648   7.503  0.2154  0.4091  0.6316
17028WAT      O69916  -1.221   0.294   3.341 -0.7802 -0.1031 -1.1616
17028WAT     H169917  -1.173   0.296   3.258 -0.2560  0.6005 -0.8539
17028WAT     H269918  -1.163   0.247   3.402 -1.4624 -1.2313 -1.3607
17028WAT    EPW69919  -1.207   0.288   3.338 -0.8011 -0.1591 -1.1473
17029WAT      O69920  -1.061   2.321   1.178  0.7593  0.5563  0.0258
17029WAT     H169921  -1.072   2.317   1.083  0.3760  1.6542  0.0033
17029WAT     H269922  -1.084   2.233   1.208 -0.6940  0.6346 -0.7547
17029WAT    EPW69923  -1.066   2.309   1.169  0.5171  0.7114 -0.0801
17030WAT      O69924  -3.309   3.974   3.620 -0.1208  0.0846 -0.1742
17030WAT     H169925  -3.354   4.030   3.556 -2.1967 -2.5254 -1.1794
17030WAT     H269926  -3.287   3.895   3.571 -0.9766 -1.6467  2.0728
17030WAT    EPW69927  -3.312   3.971   3.605 -0.5076 -0.4880 -0.0105
17031WAT      O69928   4.291   4.601   7.649  0.2221  0.6413  0.0298
17031WAT     H169929   4.218   4.564   7.600 -0.3253 -0.7125  1.7269
17031WAT     H269930   4.251   4.668   7.705  0.4145  0.5264  0.3093
17031WAT    EPW69931   4.276   4.605   7.650  0.1755  0.4475  0.2906
17032WAT      O69932  -1.336   9.496   7.114 -0.1518 -0.3786 -0.7893
17032WAT     H169933  -1.248   9.515   7.148  0.1431 -2.6341 -0.0965
17032WAT     H269934  -1.381   9.580   7.115  1.3825  0.4891  0.7143
17032WAT    EPW69935  -1.330   9.509   7.118  0.0894 -0.5612 -0.4995
17033WAT      O69936  -0.950   8.812   5.952 -0.1981 -0.2289 -0.6724
17033WAT     H169937  -0.911   8.736   5.908 -0.8757 -0.4048 -0.9736
17033WAT     H269938  -0.994   8.860   5.882  0.1463  0.4020 -0.4693
17033WAT    EPW69939  -0.950   8.808   5.937 -0.2421 -0.1688 -0.6852
17034WAT      O69940  -4.319   4.667   8.487  0.1840 -0.0160 -0.5216
17034WAT     H169941  -4.341   4.607   8.558 -3.2636 -1.1366 -2.2908
17034WAT     H269942  -4.300   4.610   8.413 -0.4749  1.0667 -1.5508
17034WAT    EPW69943  -4.320   4.651   8.487 -0.3576 -0.0210 -0.8907
17035WAT      O69944   2.403   8.750   8.550  0.2198 -0.4567 -0.0269
17035WAT     H169945   2.450   8.833   8.556 -0.1081  0.1578 -3.5900
17035WAT     H269946   2.470   8.683   8.563  0.9047  0.3601  0.7693
17035WAT    EPW69947   2.418   8.752   8.553  0.2668 -0.2680 -0.3920
17036WAT      O69948   3.513   4.519   1.980  0.9820  0.8073 -0.1058
17036WAT     H169949   3.426   4.481   1.966  0.5766  1.6650 -0.0105
17036WAT     H269950   3.560   4.504   1.898  0.6470  0.5847 -0.2565
17036WAT    EPW69951   3.508   4.512   1.967  0.8844  0.8912 -0.1131
17037WAT      O69952   2.491   8.127   6.432  0.5378 -0.6969 -0.1069
17037WAT     H169953   2.519   8.218   6.435 -0.7678 -0.2913  1.0423
17037WAT     H269954   2.550   8.082   6.493  0.7466 -0.4944 -0.1570
17037WAT    EPW69955   2.503   8.133   6.441  0.3933 -0.6170  0.0381
17038WAT      O69956  -2.986   0.706   7.316 -0.3534 -0.4582 -0.1789
17038WAT     H169957  -3.064   0.651   7.316 -0.0940 -0.8889 -1.7421
17038WAT     H269958  -2.988   0.752   7.400 -0.6959 -2.6735  1.0995
17038WAT    EPW69959  -2.996   0.705   7.327 -0.3644 -0.8072 -0.2167
17039WAT      O69960  -1.864   4.786   2.699  0.3726 -0.6118  0.0077
17039WAT     H169961  -1.919   4.716   2.665 -0.6248  0.5049 -0.7512
17039WAT     H269962  -1.922   4.837   2.756  0.9166 -0.0498  0.0785
17039WAT    EPW69963  -1.879   4.783   2.702  0.3128 -0.3903 -0.0831
17040WAT      O69964  -0.981   0.272   6.858  0.2107  0.2417 -0.5393
17040WAT     H169965  -0.937   0.357   6.863 -1.2157  1.0556 -1.1915
17040WAT     H269966  -0.958   0.238   6.772  2.3102 -0.9694  0.4057
17040WAT    EPW69967  -0.972   0.279   6.847  0.2995  0.1893 -0.5007
17041WAT      O69968  -4.625   7.064   4.966  0.9023  0.2091  0.4023
17041WAT     H169969  -4.538   7.088   4.999  1.0958 -1.1604  0.9681
17041WAT     H269970  -4.608   7.011   4.888  0.5315  0.8718 -0.1371
17041WAT    EPW69971  -4.611   7.060   4.960  0.8790  0.1159  0.4060
17042WAT      O69972  -5.314   4.058   6.973 -0.5392  0.1684 -0.6604
17042WAT     H169973  -5.310   4.144   6.932  1.0524  0.3598 -0.1755
17042WAT     H269974  -5.366   4.005   6.913  0.6508  0.7847 -2.2943
17042WAT    EPW69975  -5.320   4.062   6.960 -0.1724  0.2751 -0.8123
17043WAT      O69976  -3.359   2.796   5.451  0.1288 -0.4349  0.0576
17043WAT     H169977  -3.367   2.874   5.397 -2.1528 -1.9711 -2.0071
17043WAT     H269978  -3.270   2.763   5.433  0.7554  1.0913  0.2167
17043WAT    EPW69979  -3.348   2.802   5.442 -0.0894 -0.4362 -0.1936
17044WAT      O69980   4.703   4.566   7.494 -0.4256 -0.0754 -0.1699
17044WAT     H169981   4.685   4.570   7.400 -3.5015  1.4206  0.3280
17044WAT     H269982   4.660   4.644   7.530  0.0449 -0.9530  2.5746
17044WAT    EPW69983   4.695   4.577   7.486 -0.7691  0.0060  0.2577
17045WAT      O69984   8.315   2.281   0.313 -0.0672 -0.3773  0.1882
17045WAT     H169985   8.337   2.193   0.341  0.5420 -0.3742 -0.2503
17045WAT     H269986   8.266   2.269   0.231 -2.2574 -0.4097  1.4317
17045WAT    EPW69987   8.311   2.268   0.306 -0.2756 -0.3811  0.2944
17046WAT      O69988   2.437   4.414   5.085 -0.1176  0.2497 -0.1321
17046WAT     H169989   2.394   4.357   5.148 -0.4669 -1.5156 -1.8561
17046WAT     H269990   2.475   4.354   5.021  1.7434  1.8928 -0.6617
17046WAT    EPW69991   2.436   4.399   5.085  0.0818  0.2334 -0.4294
17047WAT      O69992   4.786   6.703   0.058 -0.1343  0.1833  0.4569
17047WAT     H169993   4.764   6.693   0.151 -2.1987  1.9679  0.2521
17047WAT     H269994   4.750   6.789   0.035 -1.3644 -0.9947 -2.4311
17047WAT    EPW69995   4.778   6.713   0.067 -0.5689  0.2632  0.0490
17048WAT      O69996  -0.661   4.653   0.022  0.3824  0.4120  0.1991
17048WAT     H169997  -0.651   4.738   0.066 -0.9548  0.2953  0.7651
17048WAT     H269998  -0.646   4.672  -0.070  2.5315  0.7997  0.5623
17048WAT    EPW69999  -0.657   4.667   0.016  0.4895  0.4478  0.3217
17049WAT      O70000  -5.034   7.455   5.066 -0.8759 -0.5752  0.8093
17049WAT     H170001  -5.055   7.403   4.988 -1.7453 -0.2507  0.8172
17049WAT     H270002  -4.992   7.393   5.125  0.0237 -0.7735 -0.0123
17049WAT    EPW70003  -5.031   7.440   5.063 -0.8719 -0.5584  0.7019
17050WAT      O70004   3.181   3.276   6.920 -0.9127 -0.0438  0.2871
17050WAT     H170005   3.104   3.248   6.969 -0.1332  0.8767  2.1645
17050WAT     H270006   3.254   3.262   6.981 -0.2438  4.2230  0.8125
17050WAT    EPW70007   3.181   3.270   6.935 -0.7216  0.6404  0.6042
17051WAT      O70008   0.567  10.024   6.429 -0.0733  0.5136 -0.5526
17051WAT     H170009   0.648   9.991   6.390 -0.6446  0.9934 -2.2748
17051WAT     H270010   0.499   9.997   6.366 -0.8328  2.9825 -0.8730
17051WAT    EPW70011   0.568  10.016   6.415 -0.2488  0.9022 -0.8221
17052WAT      O70012  -1.805   8.851   0.121 -0.2820  0.4473 -0.2266
17052WAT     H170013  -1.888   8.833   0.077 -0.6300  3.6223 -1.1177
17052WAT     H270014  -1.830   8.884   0.207  0.1924 -0.2820  0.2112
17052WAT    EPW70015  -1.819   8.853   0.126 -0.2654  0.7701 -0.2864
17053WAT      O70016   5.346   1.529   1.890  0.3127  0.8140  0.1461
17053WAT     H170017   5.305   1.610   1.859  1.8771  1.6541  0.1895
17053WAT     H270018   5.406   1.504   1.820  0.1372 -0.1020  0.3082
17053WAT    EPW70019   5.349   1.537   1.877  0.4957  0.8039  0.1732
17054WAT      O70020   5.387   7.614   0.081 -0.0966 -0.8926  0.1570
17054WAT     H170021   5.334   7.588   0.006 -1.3063  1.7565  0.0031
17054WAT     H270022   5.463   7.658   0.043  0.5147 -1.6445  0.4711
17054WAT    EPW70023   5.390   7.616   0.066 -0.1755 -0.6423  0.1781
17055WAT      O70024   7.278   1.317   2.490  0.3759  0.0236  0.1538
17055WAT     H170025   7.188   1.347   2.504 -0.1265 -0.2488 -2.1716
17055WAT     H270026   7.278   1.226   2.521 -1.1911 -1.1716 -2.9490
17055WAT    EPW70027   7.266   1.309   2.496  0.1030 -0.1700 -0.5622
17056WAT      O70028  -0.280   0.600   5.068  0.2534 -0.4428 -0.5587
17056WAT     H170029  -0.364   0.565   5.100  0.6532 -1.0196 -0.1273
17056WAT     H270030  -0.282   0.692   5.095 -0.4113 -0.3461 -0.9012
17056WAT    EPW70031  -0.291   0.607   5.076  0.2185 -0.5061 -0.5469
17057WAT      O70032   5.940   1.537   0.256  0.7297 -1.0296  0.1994
17057WAT     H170033   5.987   1.620   0.263  1.5922 -1.5094  0.1905
17057WAT     H270034   5.861   1.558   0.207  0.3115  0.0494  1.2884
17057WAT    EPW70035   5.936   1.551   0.251  0.7882 -0.9505  0.3418
17058WAT      O70036  -4.290   2.185   7.093  0.9450 -0.1126 -0.2767
17058WAT     H170037  -4.208   2.150   7.127  1.2507  0.1894 -0.6855
17058WAT     H270038  -4.265   2.269   7.054  0.8569 -0.9804 -2.3385
17058WAT    EPW70039  -4.276   2.192   7.092  0.9737 -0.1873 -0.6025
17059WAT      O70040   0.989   2.958   4.493 -0.3515 -0.1860 -0.6649
17059WAT     H170041   1.038   3.040   4.508 -2.0518  1.2175 -2.3072
17059WAT     H270042   1.057   2.892   4.480  1.1126  1.3138 -1.0402
17059WAT    EPW70043   1.005   2.960   4.493 -0.3827  0.1969 -0.9310
17060WAT      O70044   2.690  10.185   2.447  0.0340 -0.8779  0.0254
17060WAT     H170045   2.784  10.203   2.454  0.2732 -1.6944 -0.9004
17060WAT     H270046   2.650  10.270   2.428  0.6038 -0.5536  0.2565
17060WAT    EPW70047   2.697  10.198   2.446  0.1408 -0.9427 -0.0663
17061WAT      O70048   0.033   4.776   5.368 -0.9107  0.0900  0.3693
17061WAT     H170049  -0.031   4.838   5.333 -0.5462  0.6411  0.6610
17061WAT     H270050   0.094   4.830   5.419 -0.5322 -0.4953  0.5545
17061WAT    EPW70051   0.033   4.791   5.370 -0.8127  0.0858  0.4323
17062WAT      O70052  -1.663   7.023   8.704  0.3741 -0.0424 -0.0909
17062WAT     H170053  -1.580   7.069   8.701  0.0146  0.6107 -0.1304
17062WAT     H270054  -1.727   7.090   8.726 -0.4120 -0.1414 -1.8781
17062WAT    EPW70055  -1.661   7.038   8.707  0.2230  0.0308 -0.3319
17063WAT      O70056   1.732   3.906   8.225  0.5650 -0.3564  0.6081
17063WAT     H170057   1.752   3.887   8.134 -0.1952 -2.8550  0.8827
17063WAT     H270058   1.744   4.000   8.233  1.4789 -0.1915 -1.8435
17063WAT    EPW70059   1.736   3.916   8.214  0.5853 -0.6641  0.3209
17064WAT      O70060  -0.316   2.987   0.576 -0.2689  0.0282 -0.2949
17064WAT     H170061  -0.287   2.958   0.489 -2.0130 -0.9160 -0.5910
17064WAT     H270062  -0.396   3.036   0.559 -1.4585 -1.4263  0.8736
17064WAT    EPW70063  -0.323   2.990   0.562 -0.6558 -0.2882 -0.1799
17065WAT      O70064  -5.568   7.876   5.536  0.4280  0.2337 -0.5480
17065WAT     H170065  -5.522   7.813   5.592  0.5974  0.0469 -0.8981
17065WAT     H270066  -5.509   7.890   5.462  0.2498  0.5622 -0.6314
17065WAT    EPW70067  -5.554   7.870   5.534  0.4268  0.2525 -0.6051
17066WAT      O70068   4.864   2.683   3.911 -0.8223  0.2355 -0.0180
17066WAT     H170069   4.807   2.671   3.835 -2.9091  0.4949  1.4326
17066WAT     H270070   4.822   2.633   3.981 -0.0157  1.5455  1.4637
17066WAT    EPW70071   4.851   2.675   3.910 -0.9911  0.4426  0.3687
17067WAT      O70072   4.705   1.156   8.590 -0.1179  0.0060 -0.6142
17067WAT     H170073   4.684   1.198   8.673 -0.0794 -0.4257 -0.3855
17067WAT     H270074   4.623   1.117   8.561 -0.5996  1.6904 -1.6902
17067WAT    EPW70075   4.691   1.156   8.597 -0.1764  0.1712 -0.7262
17068WAT      O70076  -2.205   6.522   3.892  0.3598 -0.5877 -0.5454
17068WAT     H170077  -2.289   6.496   3.856 -0.4957 -4.0784  3.2115
17068WAT     H270078  -2.211   6.617   3.902 -4.1061 -0.8477  1.4364
17068WAT    EPW70079  -2.217   6.531   3.889 -0.3420 -1.0824  0.2116
17069WAT      O70080   2.153   9.867   8.220  0.2839 -0.6378 -0.2630
17069WAT     H170081   2.084   9.810   8.186  0.5093 -0.3418 -1.2482
17069WAT     H270082   2.106   9.944   8.253  0.1127 -0.6102 -0.5673
17069WAT    EPW70083   2.137   9.870   8.220  0.2911 -0.5951 -0.4330
17070WAT      O70084   3.317   7.645   4.992 -1.0783  0.0731  0.4595
17070WAT     H170085   3.357   7.699   5.060  1.2518 -0.3101 -0.5123
17070WAT     H270086   3.314   7.557   5.030  4.0243 -1.0825 -1.0901
17070WAT    EPW70087   3.322   7.640   5.006 -0.0980 -0.1299  0.1271
17071WAT      O70088  -0.773   7.081   7.696  1.1835  0.3478  0.1566
17071WAT     H170089  -0.742   7.005   7.647  2.1402  0.2426  0.8987
17071WAT     H270090  -0.866   7.063   7.712  0.9388  0.2138 -1.2521
17071WAT    EPW70091  -0.781   7.069   7.692  1.2774  0.3164  0.0684
17072WAT      O70092   3.098   2.169   2.440  0.1621 -0.0061 -0.7380
17072WAT     H170093   3.078   2.085   2.481  2.6220 -0.0742  0.5142
17072WAT     H270094   3.127   2.225   2.512 -0.4911  1.6457 -1.6823
17072WAT    EPW70095   3.099   2.166   2.455  0.4004  0.2028 -0.6974
17073WAT      O70096  -1.281   7.758   5.047 -0.2883 -0.7330 -0.1360
17073WAT     H170097  -1.342   7.796   4.983  0.0315  0.0960  0.0546
17073WAT     H270098  -1.259   7.830   5.105  2.7455 -0.3489 -1.5852
17073WAT    EPW70099  -1.286   7.772   5.046  0.1540 -0.5732 -0.3021
17074WAT      O70100  -1.367   5.910   2.868 -0.3113 -0.3329  0.5005
17074WAT     H170101  -1.448   5.862   2.883  0.3607 -1.2371  1.4215
17074WAT     H270102  -1.349   5.899   2.774 -0.5116 -1.3483  0.5727
17074WAT    EPW70103  -1.375   5.902   2.857 -0.2491 -0.5860  0.6315
17075WAT      O70104  -0.295   4.962   6.937 -0.5511  0.0141  0.7565
17075WAT     H170105  -0.238   4.904   6.886 -0.5964  0.1511  0.5486
17075WAT     H270106  -0.329   5.024   6.873 -1.3663 -0.3976  0.7886
17075WAT    EPW70107  -0.292   4.963   6.922 -0.6646 -0.0219  0.7334
17076WAT      O70108  -0.040   0.572   6.737 -0.7086  0.4346  0.4639
17076WAT     H170109  -0.100   0.632   6.781  0.7537  1.8170  0.6642
17076WAT     H270110   0.024   0.629   6.694  0.7149 -0.9670  0.6110
17076WAT    EPW70111  -0.039   0.588   6.737 -0.3280  0.4321  0.5100
17077WAT      O70112   5.883   1.640   3.850  0.5399 -0.5895 -0.2069
17077WAT     H170113   5.938   1.587   3.793 -0.1247 -1.2164 -0.2822
17077WAT     H270114   5.944   1.680   3.912  1.2364 -0.1064 -1.1842
17077WAT    EPW70115   5.898   1.638   3.851  0.5443 -0.6084 -0.3458
17078WAT      O70116   5.312   9.067   1.911 -0.2538 -0.0990 -0.5961
17078WAT     H170117   5.289   9.126   1.839 -2.2021 -0.8391 -0.6368
17078WAT     H270118   5.281   9.112   1.990 -1.7185 -0.9934 -0.6242
17078WAT    EPW70119   5.305   9.081   1.912 -0.7038 -0.3147 -0.6052
17079WAT      O70120  -4.281   8.387   7.447  0.0054  0.0852 -0.1484
17079WAT     H170121  -4.341   8.459   7.425  0.0643 -0.1003 -0.9465
17079WAT     H270122  -4.338   8.322   7.489 -0.3447 -0.0643 -0.8449
17079WAT    EPW70123  -4.297   8.388   7.450 -0.0331  0.0405 -0.3455
17080WAT      O70124   2.394   6.193   6.830 -0.2409  0.2634  0.2266
17080WAT     H170125   2.449   6.247   6.886  0.8912 -1.4046  0.8060
17080WAT     H270126   2.346   6.255   6.776 -0.2127  1.8857  1.9636
17080WAT    EPW70127   2.395   6.208   6.831 -0.0879  0.2575  0.5322
17081WAT      O70128  -4.448   7.933   4.623  0.3002 -0.2697  0.7452
17081WAT     H170129  -4.469   7.891   4.706 -1.6204 -2.3283 -0.6442
17081WAT     H270130  -4.520   7.994   4.607  1.3886  1.1813  1.2065
17081WAT    EPW70131  -4.460   7.935   4.632  0.1900 -0.3498  0.6227
17082WAT      O70132   5.990   0.656   3.620  0.3171  0.3268 -0.4941
17082WAT     H170133   5.919   0.605   3.581  0.2774 -0.2467  0.3145
17082WAT     H270134   5.952   0.693   3.699  0.9694 -0.1284  0.0389
17082WAT    EPW70135   5.975   0.654   3.625  0.3979  0.1912 -0.3172
17083WAT      O70136   2.362   5.840   0.665 -0.2953  0.3432 -0.1540
17083WAT     H170137   2.303   5.790   0.721 -3.3367  2.0780 -1.5244
17083WAT     H270138   2.440   5.855   0.719  0.5118 -4.8377  0.6459
17083WAT    EPW70139   2.364   5.836   0.679 -0.5901 -0.1113 -0.2293
17084WAT      O70140  -1.358   8.703   4.018 -0.6938 -1.0165  0.5141
17084WAT     H170141  -1.291   8.672   3.957  0.5456  0.5406  1.0332
17084WAT     H270142  -1.314   8.707   4.102 -1.8392 -1.2532  1.1408
17084WAT    EPW70143  -1.344   8.700   4.021 -0.6814 -0.8426  0.6652
17085WAT      O70144  -1.816   1.013   8.986  0.2488  0.3131  0.4404
17085WAT     H170145  -1.833   1.083   8.923  1.8871  0.8669  0.5541
17085WAT     H270146  -1.787   0.939   8.932 -1.8860 -0.4632  0.2862
17085WAT    EPW70147  -1.814   1.013   8.970  0.1834  0.2837  0.4354
17086WAT      O70148   7.226   6.038   1.773 -0.0988  0.1676 -0.2108
17086WAT     H170149   7.184   5.963   1.730 -0.5481 -1.0504  2.1996
17086WAT     H270150   7.319   6.016   1.774 -0.2285 -0.3640  0.4831
17086WAT    EPW70151   7.232   6.025   1.767 -0.1752 -0.0632  0.1987
17087WAT      O70152  -0.252   0.412   3.668 -0.1829 -0.6304 -0.3686
17087WAT     H170153  -0.258   0.450   3.756 -0.3070 -0.7066 -0.3449
17087WAT     H270154  -0.287   0.481   3.610  0.8936 -0.1495 -0.4728
17087WAT    EPW70155  -0.257   0.426   3.672 -0.0573 -0.5770 -0.3793
17088WAT      O70156  -8.556  10.125   8.627 -0.5978 -0.8167 -0.0106
17088WAT     H170157  -8.626  10.185   8.600  0.1415  0.2422  0.3548
17088WAT     H270158  -8.492  10.181   8.670 -0.5821 -2.0929  1.7243
17088WAT    EPW70159  -8.557  10.140   8.629 -0.4983 -0.8454  0.2666
17089WAT      O70160  -4.922   7.431   8.304  0.0161  0.1452 -0.0863
17089WAT     H170161  -4.888   7.499   8.363  0.0789 -0.4735  0.5997
17089WAT     H270162  -4.976   7.375   8.360 -0.6233  0.0308 -0.7899
17089WAT    EPW70163  -4.925   7.433   8.319 -0.0598  0.0484 -0.0887
17090WAT      O70164   6.643   1.030   0.095  0.4130 -0.5272  1.1440
17090WAT     H170165   6.632   0.998   0.005 -0.6570  0.8978  0.7312
17090WAT     H270166   6.737   1.046   0.103  0.2632  1.7548 -0.6409
17090WAT    EPW70167   6.654   1.028   0.084  0.2520 -0.0383  0.8541
17091WAT      O70168   6.099   1.822   2.850  0.0727  0.1908 -0.9843
17091WAT     H170169   6.114   1.871   2.931  2.2050 -2.9601  0.7346
17091WAT     H270170   6.003   1.816   2.844 -0.1997  2.2486  0.1008
17091WAT    EPW70171   6.088   1.828   2.860  0.3178  0.0467 -0.6144
17092WAT      O70172   6.410   7.478   1.604 -0.4709 -0.8373 -0.0433
17092WAT     H170173   6.328   7.447   1.642 -1.5186  0.3038 -1.2597
17092WAT     H270174   6.466   7.497   1.679 -0.6735 -3.1740  0.7956
17092WAT    EPW70175   6.406   7.476   1.619 -0.6356 -0.9952 -0.0932
17093WAT      O70176  -2.733   8.590   2.802  0.0734  0.4243  0.1147
17093WAT     H170177  -2.812   8.594   2.855  1.2468 -0.2362  2.0603
17093WAT     H270178  -2.726   8.498   2.776 -0.1438  0.6148 -0.6402
17093WAT    EPW70179  -2.742   8.578   2.806  0.1996  0.3624  0.2717
17094WAT      O70180  -4.304   6.745   6.091 -0.1079 -0.1056  1.6074
17094WAT     H170181  -4.310   6.651   6.073 -0.0482 -0.0122  1.0822
17094WAT     H270182  -4.260   6.750   6.175  0.8676 -0.5187  1.1404
17094WAT    EPW70183  -4.299   6.733   6.099  0.0288 -0.1476  1.4765
17095WAT      O70184   3.276   1.444   5.997 -0.1685 -0.6935  0.1522
17095WAT     H170185   3.291   1.417   5.907 -0.7810  0.1106 -0.2039
17095WAT     H270186   3.192   1.402   6.020 -1.1605  0.8799 -0.4268
17095WAT    EPW70187   3.267   1.435   5.988 -0.3800 -0.3800  0.0288
17096WAT      O70188   1.670   6.069   6.970 -0.4649  0.3468  0.7821
17096WAT     H170189   1.697   6.065   6.878 -0.2570  0.2065  0.8469
17096WAT     H270190   1.642   5.980   6.990  0.0386  0.2337  1.0135
17096WAT    EPW70191   1.670   6.057   6.960 -0.3711  0.3135  0.8211
17097WAT      O70192  -7.821   9.575   8.461  0.4537  0.2286 -0.7084
17097WAT     H170193  -7.889   9.643   8.456  0.9595  0.6830 -1.7950
17097WAT     H270194  -7.869   9.493   8.472 -0.1461  0.8055  1.4657
17097WAT    EPW70195  -7.836   9.573   8.462  0.4413  0.3648 -0.5651
17098WAT      O70196   2.299  10.080   1.164 -0.3012 -0.0974 -0.4229
17098WAT     H170197   2.216  10.035   1.146 -0.0960 -0.7582  0.2036
17098WAT     H270198   2.312  10.068   1.258  0.2712  0.4153 -0.4323
17098WAT    EPW70199   2.290  10.072   1.174 -0.1986 -0.1168 -0.3415
17099WAT      O70200  -3.933   7.295   7.318 -0.2923 -0.7630  0.4086
17099WAT     H170201  -4.011   7.325   7.272 -0.0428 -1.5968 -0.5804
17099WAT     H270202  -3.880   7.253   7.250  0.7315 -0.7558  1.1858
17099WAT    EPW70203  -3.936   7.294   7.303 -0.1245 -0.8721  0.3808
17100WAT      O70204   2.251   3.471   8.505 -0.5314 -0.0253  0.2416
17100WAT     H170205   2.340   3.439   8.487 -0.5356 -0.1890  0.5052
17100WAT     H270206   2.207   3.468   8.420 -0.8935 -1.8303  0.4521
17100WAT    EPW70207   2.257   3.466   8.491 -0.5797 -0.2849  0.3042
17101WAT      O70208   2.797   6.045   8.280  1.4275 -0.2053  0.1517
17101WAT     H170209   2.770   5.965   8.324 -0.3338  0.5822  0.5935
17101WAT     H270210   2.822   6.017   8.192  0.7145 -1.2223  0.2614
17101WAT    EPW70211   2.797   6.031   8.274  1.1013 -0.2358  0.2246
17102WAT      O70212  -1.064   7.676   3.039  0.4536 -0.1451 -0.7019
17102WAT     H170213  -1.026   7.592   3.064  0.2720  0.3944  1.6001
17102WAT     H270214  -1.002   7.741   3.071  0.0618  0.6450 -1.4877
17102WAT    EPW70215  -1.051   7.673   3.046  0.3779  0.0303 -0.5020
17103WAT      O70216   2.313   6.361   7.144 -0.4814  0.4556 -0.4874
17103WAT     H170217   2.324   6.333   7.053 -0.7994 -0.5490 -0.2292
17103WAT     H270218   2.274   6.285   7.188 -0.0059  0.8016  0.5636
17103WAT    EPW70219   2.309   6.347   7.138 -0.4607  0.3686 -0.3147
17104WAT      O70220   3.356   2.014   3.095 -0.2817 -0.2897  0.4582
17104WAT     H170221   3.435   1.980   3.138  0.8677 -0.1963 -1.4413
17104WAT     H270222   3.312   1.936   3.061  1.1490 -0.1677 -1.9085
17104WAT    EPW70223   3.361   1.999   3.096  0.0587 -0.2613 -0.1044
17105WAT      O70224  -5.982   3.411   8.061  0.5555  0.3856 -0.8289
17105WAT     H170225  -5.957   3.328   8.101  1.8264  1.1475  0.0253
17105WAT     H270226  -6.065   3.392   8.016 -0.9620 -0.5260  2.1012
17105WAT    EPW70227  -5.990   3.398   8.060  0.5229  0.3659 -0.3295
17106WAT      O70228  -3.684   3.197   7.715  0.3408  0.4062  0.3818
17106WAT     H170229  -3.680   3.134   7.644 -0.3126 -2.0192  2.3470
17106WAT     H270230  -3.777   3.205   7.736  0.5212  0.9789  1.0411
17106WAT    EPW70231  -3.696   3.190   7.709  0.2785  0.1619  0.7281
17107WAT      O70232  -3.772   5.672   3.122  0.2139  0.0920 -0.2513
17107WAT     H170233  -3.726   5.748   3.157 -1.5828  0.2238  2.0285
17107WAT     H270234  -3.862   5.683   3.149 -0.5880 -1.7206 -1.8938
17107WAT    EPW70235  -3.778   5.684   3.130 -0.1287 -0.1297 -0.1673
17108WAT      O70236   2.161   3.704   7.249  0.0365  0.3536  0.1568
17108WAT     H170237   2.241   3.726   7.200  0.0738 -1.5579 -0.7416
17108WAT     H270238   2.157   3.769   7.319  1.5450  1.4259 -0.6933
17108WAT    EPW70239   2.171   3.715   7.252  0.2403  0.2429 -0.0741
17109WAT      O70240   4.382   3.773   7.929 -0.4737  0.1254  0.4466
17109WAT     H170241   4.366   3.852   7.981  1.1163  0.9010 -0.1641
17109WAT     H270242   4.457   3.731   7.973 -0.6950 -0.5342  0.2023
17109WAT    EPW70243   4.390   3.778   7.942 -0.2933  0.1408  0.3338
17110WAT      O70244  -1.637  10.109   2.075  0.1206 -0.2576 -0.6446
17110WAT     H170245  -1.604  10.127   1.987  1.6653 -0.5266 -0.1512
17110WAT     H270246  -1.630  10.192   2.121 -0.7539 -0.1004 -0.7701
17110WAT    EPW70247  -1.632  10.122   2.069  0.2090 -0.2728 -0.5962
17111WAT      O70248   2.220  10.309   0.755  0.4887  0.2093 -0.0529
17111WAT     H170249   2.153  10.373   0.735  0.7435 -0.2771 -2.7591
17111WAT     H270250   2.173  10.236   0.797 -0.0845  1.2615  1.2018
17111WAT    EPW70251   2.205  10.308   0.758  0.4467  0.2837 -0.2444
17112WAT      O70252   5.583   7.437   1.787  0.6211 -0.3986 -0.8946
17112WAT     H170253   5.568   7.442   1.693 -0.6674  0.2314 -0.6749
17112WAT     H270254   5.646   7.365   1.798 -0.0031 -1.1612 -2.1380
17112WAT    EPW70255   5.590   7.428   1.776  0.3688 -0.4158 -1.0297
17113WAT      O70256  -5.057   4.390   7.231 -0.0712 -0.2975 -0.0809
17113WAT     H170257  -5.114   4.317   7.258  0.0768 -0.8361 -1.1563
17113WAT     H270258  -5.064   4.391   7.136  0.8796  0.3373 -0.1522
17113WAT    EPW70259  -5.066   4.380   7.222  0.0737 -0.2849 -0.2320
17114WAT      O70260   1.292   0.197   0.386  0.0338 -0.0180 -0.5371
17114WAT     H170261   1.327   0.125   0.437 -1.4054  0.2047  0.8680
17114WAT     H270262   1.353   0.208   0.313  3.1009  0.6740  1.9422
17114WAT    EPW70263   1.304   0.189   0.383  0.2484  0.1026 -0.0247
17115WAT      O70264   4.934   2.231   3.369 -0.0474 -0.2701 -0.3267
17115WAT     H170265   4.883   2.157   3.402  2.0343 -1.8056 -0.3664
17115WAT     H270266   4.910   2.238   3.277 -1.6572  0.3792  0.1020
17115WAT    EPW70267   4.924   2.222   3.361  0.0148 -0.3870 -0.2755
17116WAT      O70268   2.410   5.990   6.325  0.3145  0.4539  0.3241
17116WAT     H170269   2.365   5.924   6.377 -1.0819  0.4589 -0.8103
17116WAT     H270270   2.427   6.062   6.387 -3.9873  1.7624  0.2992
17116WAT    EPW70271   2.407   5.991   6.340 -0.4370  0.6270  0.1712
17117WAT      O70272   2.429   7.253   7.024 -0.0200  0.2000  0.2149
17117WAT     H170273   2.483   7.316   6.978  1.2881 -1.6147 -0.8721
17117WAT     H270274   2.346   7.254   6.976  0.7230 -0.3922 -1.1524
17117WAT    EPW70275   2.425   7.261   7.011  0.2505 -0.1173 -0.1090
17118WAT      O70276  -2.394   9.322   1.698  0.7093  0.3289  0.1048
17118WAT     H170277  -2.311   9.276   1.685 -0.9649 -2.8302 -0.5775
17118WAT     H270278  -2.417   9.353   1.610  0.1003 -0.9676 -0.2296
17118WAT    EPW70279  -2.386   9.320   1.684  0.4082 -0.2589 -0.0293
17119WAT      O70280  -0.138   3.264   0.485  0.2530  0.8974 -0.3018
17119WAT     H170281  -0.167   3.332   0.546 -3.3025 -0.3210 -0.4412
17119WAT     H270282  -0.179   3.184   0.516  1.4764 -0.5440 -2.1470
17119WAT    EPW70283  -0.147   3.262   0.497 -0.0546  0.5466 -0.5636
17120WAT      O70284  -0.306   1.507   6.487 -0.3459 -0.2239  0.6829
17120WAT     H170285  -0.368   1.482   6.555 -1.0795  0.7726  0.3921
17120WAT     H270286  -0.343   1.586   6.447  0.7216 -0.0439 -0.0058
17120WAT    EPW70287  -0.319   1.514   6.491 -0.3019 -0.0687  0.5538
17121WAT      O70288   5.206   6.923   1.334 -0.0121  0.5900  0.3164
17121WAT     H170289   5.179   6.985   1.402 -1.8380 -0.4632  0.6001
17121WAT     H270290   5.190   6.837   1.372  1.9599 -0.0967 -0.2837
17121WAT    EPW70291   5.201   6.920   1.348  0.0074  0.3605  0.2747
17122WAT      O70292   9.609   2.079   0.045 -0.3331  0.0142  0.9408
17122WAT     H170293   9.527   2.095   0.092 -1.3904 -0.6956 -0.5502
17122WAT     H270294   9.618   1.983   0.046  0.6515  0.1033  1.3482
17122WAT    EPW70295   9.599   2.068   0.051 -0.3428 -0.0676  0.7979
17123WAT      O70296   6.947   8.861   0.497 -0.1088  0.1224  0.5001
17123WAT     H170297   6.930   8.791   0.560  2.3368  0.0100  1.1469
17123WAT     H270298   7.014   8.824   0.439  0.3440  1.5081  0.1116
17123WAT    EPW70299   6.954   8.847   0.498  0.2735  0.2904  0.5342
17124WAT      O70300   2.367   4.826   4.144  0.0682  0.2782  0.0609
17124WAT     H170301   2.277   4.843   4.170 -1.9897 -1.1782 -5.0257
17124WAT     H270302   2.366   4.738   4.107  3.2853  0.7083 -1.3989
17124WAT    EPW70303   2.355   4.817   4.143  0.2210  0.1426 -0.8025
17125WAT      O70304   1.233   8.970   3.551  0.1681 -0.2388  0.1285
17125WAT     H170305   1.202   8.980   3.461 -1.6820 -0.7797  0.6584
17125WAT     H270306   1.170   9.018   3.603 -0.8416 -2.7686  1.4249
17125WAT    EPW70307   1.221   8.978   3.546 -0.2092 -0.6433  0.3694
17126WAT      O70308   1.661   3.110   4.742 -0.7269  0.3313  0.8296
17126WAT     H170309   1.716   3.186   4.761  1.3291 -0.1978 -2.2267
17126WAT     H270310   1.717   3.035   4.761 -1.5908 -0.3452  0.7714
17126WAT    EPW70311   1.676   3.110   4.747 -0.5696  0.1723  0.4187
17127WAT      O70312   8.705   0.233   1.776 -0.2731  0.0547 -0.2673
17127WAT     H170313   8.736   0.146   1.800 -1.6042 -0.7014 -1.1548
17127WAT     H270314   8.632   0.250   1.835 -0.6528  0.1303 -0.7512
17127WAT    EPW70315   8.700   0.224   1.787 -0.4988 -0.0351 -0.4482
17128WAT      O70316   5.099   3.317   4.570  0.4533 -0.0356  0.0453
17128WAT     H170317   5.128   3.231   4.599 -0.8683 -0.2422  0.8462
17128WAT     H270318   5.136   3.379   4.633  1.3304 -0.0120 -0.4804
17128WAT    EPW70319   5.108   3.314   4.582  0.3946 -0.0598  0.0818
17129WAT      O70320  -5.550   5.450   7.126 -0.2815 -0.2128 -0.0600
17129WAT     H170321  -5.514   5.391   7.059  1.9240  0.8807  0.0528
17129WAT     H270322  -5.486   5.447   7.197 -1.6799  0.0199  1.2576
17129WAT    EPW70323  -5.537   5.442   7.127 -0.1750 -0.0381  0.1285
17130WAT      O70324   0.427   1.642   5.838 -0.3668 -0.0596  0.4689
17130WAT     H170325   0.481   1.570   5.805  1.4154  1.3815  0.0714
17130WAT     H270326   0.488   1.715   5.850 -2.2912  1.8622 -0.5459
17130WAT    EPW70327   0.442   1.642   5.835 -0.3856  0.3839  0.2825
17131WAT      O70328   2.072   1.332   2.784  0.5325 -0.0779 -0.2310
17131WAT     H170329   2.063   1.427   2.777 -0.2182 -0.1981 -5.2772
17131WAT     H270330   1.983   1.300   2.803  0.2596  0.2207 -0.9615
17131WAT    EPW70331   2.059   1.340   2.785  0.3974 -0.0544 -0.9929
17132WAT      O70332  -3.111   5.220   2.308 -0.8636  0.1942  0.0351
17132WAT     H170333  -3.033   5.164   2.309 -0.5776  0.5891  1.0224
17132WAT     H270334  -3.184   5.158   2.306 -0.5384 -0.2135  0.4592
17132WAT    EPW70335  -3.110   5.204   2.308 -0.7831  0.1926  0.2213
17133WAT      O70336  -3.377   1.054   8.197 -0.5962  0.1240  0.2296
17133WAT     H170337  -3.394   0.981   8.138  0.3088 -0.8591  1.1518
17133WAT     H270338  -3.438   1.122   8.169 -3.0369 -1.7167  0.7535
17133WAT    EPW70339  -3.387   1.054   8.185 -0.7987 -0.2484  0.4206
17134WAT      O70340   2.708   7.608   2.104  0.2912 -0.4028 -0.4289
17134WAT     H170341   2.784   7.553   2.085  1.8541  0.7689  1.9221
17134WAT     H270342   2.672   7.572   2.185 -0.4914  0.2219 -0.4913
17134WAT    EPW70343   2.713   7.596   2.112  0.3941 -0.1659 -0.1271
17135WAT      O70344  -3.234   1.162   5.984 -0.3464  0.2942 -0.3636
17135WAT     H170345  -3.151   1.120   6.005 -0.7874 -0.8758 -0.8407
17135WAT     H270346  -3.276   1.101   5.923 -2.3309 -0.0147  1.2266
17135WAT    EPW70347  -3.229   1.149   5.978 -0.6664  0.0992 -0.2170
17136WAT      O70348   4.190   3.267   3.780 -0.5259  0.7507 -0.8145
17136WAT     H170349   4.120   3.227   3.832 -0.5896 -1.4099 -2.4192
17136WAT     H270350   4.251   3.302   3.844 -0.3496 -2.2269  0.8083
17136WAT    EPW70351   4.189   3.267   3.795 -0.5112  0.0730 -0.8121
17137WAT      O70352   1.637   3.529   0.862 -0.1860 -0.4140 -0.0828
17137WAT     H170353   1.547   3.496   0.872 -0.8233  0.4444 -2.3907
17137WAT     H270354   1.655   3.574   0.945 -1.3190 -1.8302  0.9890
17137WAT    EPW70355   1.627   3.531   0.874 -0.4195 -0.4876 -0.2459
17138WAT      O70356   6.649   3.820   3.536  0.0505 -0.2796 -0.1577
17138WAT     H170357   6.613   3.908   3.520 -1.9756 -1.1963 -0.9417
17138WAT     H270358   6.684   3.793   3.451  2.5041  0.4747  0.5203
17138WAT    EPW70359   6.649   3.828   3.523  0.1068 -0.3010 -0.1718
17139WAT      O70360   3.440   1.580   4.924  0.2678 -0.5861  0.0607
17139WAT     H170361   3.524   1.580   4.877  0.6052  0.1195  0.6334
17139WAT     H270362   3.418   1.673   4.933 -1.2857 -0.7934 -1.3013
17139WAT    EPW70363   3.448   1.592   4.919  0.1074 -0.5204 -0.0434
17140WAT      O70364   2.740   2.144   4.899 -0.1969 -0.7296  0.8532
17140WAT     H170365   2.786   2.212   4.948  0.2094 -2.0898  2.4527
17140WAT     H270366   2.808   2.099   4.850 -0.0499 -1.6138  1.8361
17140WAT    EPW70367   2.755   2.147   4.899 -0.1240 -1.0256  1.1940
17141WAT      O70368   8.592   1.496   2.113 -0.5716 -0.4619  0.1775
17141WAT     H170369   8.555   1.535   2.192 -2.4525 -0.6759 -0.5559
17141WAT     H270370   8.521   1.498   2.050 -0.2652 -3.5836 -0.4196
17141WAT    EPW70371   8.578   1.502   2.115 -0.7796 -0.9019  0.0020
17142WAT      O70372  -3.148   8.262   8.029 -0.0927 -0.2435 -0.3636
17142WAT     H170373  -3.129   8.265   7.936  1.8918  2.0004  0.0218
17142WAT     H270374  -3.130   8.171   8.054  0.1223 -0.6862 -2.0053
17142WAT    EPW70375  -3.143   8.251   8.020  0.1973 -0.0057 -0.5293
17143WAT      O70376   1.089   6.028   7.896  0.0160 -0.5026  0.9190
17143WAT     H170377   1.001   6.040   7.930 -1.1920 -0.2847 -1.9579
17143WAT     H270378   1.147   6.055   7.967 -2.1994 -0.7895  2.9518
17143WAT    EPW70379   1.085   6.033   7.910 -0.4355 -0.5119  0.8078
17144WAT      O70380   1.473   3.394   6.129  0.4643 -0.1036  0.2427
17144WAT     H170381   1.384   3.401   6.161  0.1044 -0.2439 -0.7004
17144WAT     H270382   1.525   3.370   6.206 -0.0791  1.3393  1.0864
17144WAT    EPW70383   1.468   3.391   6.143  0.3452  0.0683  0.2296
17145WAT      O70384   2.572   8.927   4.782 -0.6124  0.2389  0.0305
17145WAT     H170385   2.640   8.877   4.826 -0.9664 -1.0359 -0.8251
17145WAT     H270386   2.490   8.888   4.812 -0.8972  0.3600 -0.5823
17145WAT    EPW70387   2.570   8.915   4.792 -0.6967  0.0868 -0.1633
17146WAT      O70388   5.480   8.641   2.994  0.2318  0.0035  0.1313
17146WAT     H170389   5.470   8.549   3.018 -0.8921  0.2287  0.5493
17146WAT     H270390   5.406   8.685   3.034  0.8180  1.1226  0.0265
17146WAT    EPW70391   5.469   8.635   3.002  0.1609  0.1812  0.1726
17147WAT      O70392   1.190   4.450   8.535 -0.1005 -0.7645  0.9050
17147WAT     H170393   1.203   4.514   8.465  0.6726  0.0029  1.7128
17147WAT     H270394   1.108   4.406   8.514 -0.2418 -0.0446 -0.0889
17147WAT    EPW70395   1.181   4.452   8.523 -0.0172 -0.5682  0.8802
17148WAT      O70396   1.271   2.834   7.093  0.6893 -0.4433 -0.2216
17148WAT     H170397   1.265   2.757   7.150  0.4421  0.0245  0.3945
17148WAT     H270398   1.359   2.829   7.055  1.1667 -0.3083  0.8459
17148WAT    EPW70399   1.282   2.823   7.095  0.7197 -0.3638  0.0007
17149WAT      O70400   3.898   7.410   4.435  0.7103  0.3040 -0.0123
17149WAT     H170401   3.884   7.462   4.514 -1.7999  0.1670 -0.2766
17149WAT     H270402   3.810   7.384   4.407  1.5274 -0.0541 -2.5955
17149WAT    EPW70403   3.885   7.413   4.441  0.4870  0.2387 -0.3879
17150WAT      O70404   9.809   0.925   0.440 -0.3576 -0.5065 -0.6846
17150WAT     H170405   9.740   0.965   0.388 -1.3328 -2.9448 -1.3920
17150WAT     H270406   9.770   0.909   0.526  0.2949  0.7418 -0.1252
17150WAT    EPW70407   9.795   0.928   0.444 -0.4001 -0.6635 -0.7041
17151WAT      O70408   2.189   3.543   6.857 -0.4056 -0.1553  0.1312
17151WAT     H170409   2.117   3.483   6.876 -0.6360 -0.2206 -0.8824
17151WAT     H270410   2.147   3.629   6.852 -0.2333 -0.0425  0.6286
17151WAT    EPW70411   2.174   3.546   6.859 -0.4133 -0.1489  0.0629
17152WAT      O70412   0.509   0.783   7.816  0.1041  0.7066  0.4014
17152WAT     H170413   0.490   0.813   7.727 -1.6049  3.0728  1.4392
17152WAT     H270414   0.440   0.720   7.836  0.9477 -0.4205 -0.1927
17152WAT    EPW70415   0.498   0.779   7.807 -0.0100  0.8700  0.4597
17153WAT      O70416   6.177   9.925   0.853  0.7727  0.4585  0.7196
17153WAT     H170417   6.117   9.934   0.927  1.0848 -3.0612  1.5943
17153WAT     H270418   6.157  10.000   0.796 -0.2447  2.6788  3.7621
17153WAT    EPW70419   6.166   9.936   0.855  0.6797  0.2866  1.2362
17154WAT      O70420  -2.416   9.682   3.807 -0.4310  0.1107  0.0783
17154WAT     H170421  -2.331   9.643   3.827 -0.4215 -0.1062 -0.3711
17154WAT     H270422  -2.419   9.762   3.860 -0.1398 -0.1135  0.4408
17154WAT    EPW70423  -2.405   9.687   3.817 -0.3912  0.0525  0.0668
17155WAT      O70424  -2.440   3.408   5.156 -0.4147 -0.1842 -0.4393
17155WAT     H170425  -2.464   3.500   5.160  0.5425  0.1120 -1.0987
17155WAT     H270426  -2.368   3.405   5.094 -0.7256 -1.4462 -0.7635
17155WAT    EPW70427  -2.434   3.420   5.149 -0.3295 -0.3115 -0.5691
17156WAT      O70428  -8.162   8.032   8.798 -0.1609  0.3306 -0.2403
17156WAT     H170429  -8.178   7.944   8.832  1.2421  0.3976  0.6823
17156WAT     H270430  -8.218   8.038   8.721 -1.7809 -0.6375  0.8022
17156WAT    EPW70431  -8.171   8.021   8.792 -0.1893  0.2117  0.0191
17157WAT      O70432  -0.214   8.034   8.821 -0.4020  0.0067  0.5584
17157WAT     H170433  -0.171   8.098   8.877 -0.4324  0.1903  0.3742
17157WAT     H270434  -0.285   7.999   8.874 -0.6373  0.4192  0.5177
17157WAT    EPW70435  -0.217   8.038   8.835 -0.4370  0.0854  0.5288
17158WAT      O70436   3.250   1.953   0.593  0.4418  0.2081  0.2125
17158WAT     H170437   3.217   2.015   0.658  1.1958 -0.2584  1.0541
17158WAT     H270438   3.248   1.868   0.636 -3.2202 -0.9575 -1.8119
17158WAT    EPW70439   3.246   1.950   0.607  0.0583 -0.0072  0.0565
17159WAT      O70440   6.917   1.937   1.354  0.0307  0.3117 -0.2464
17159WAT     H170441   6.948   1.955   1.443  0.4152  0.4590 -0.4087
17159WAT     H270442   6.939   2.016   1.305 -0.4237  0.3383 -0.4126
17159WAT    EPW70443   6.924   1.950   1.360  0.0217  0.3347 -0.2897
17160WAT      O70444  -0.109   0.304   2.274 -0.4315 -0.4734 -0.2629
17160WAT     H170445  -0.043   0.347   2.219 -0.9513 -0.9147 -1.2622
17160WAT     H270446  -0.136   0.228   2.223 -0.9038 -0.9197  0.6375
17160WAT    EPW70447  -0.104   0.300   2.260 -0.5624 -0.5905 -0.2760
17161WAT      O70448  -0.611   3.335   7.690  0.4999  0.1087 -1.1356
17161WAT     H170449  -0.534   3.294   7.650 -0.0077 -0.4366 -1.5794
17161WAT     H270450  -0.644   3.395   7.623  2.2097  2.6229  0.1004
17161WAT    EPW70451  -0.605   3.337   7.676  0.6585  0.3684 -1.0309
17162WAT      O70452   0.391   5.791   6.380  0.4204  0.3670  0.6270
17162WAT     H170453   0.343   5.851   6.323  1.5087 -1.0011 -1.9174
17162WAT     H270454   0.471   5.838   6.402 -0.3861  1.2377  1.8100
17162WAT    EPW70455   0.395   5.805   6.375  0.4576  0.3014  0.4475
17163WAT      O70456   0.895   6.704   6.303  0.2447  0.6941 -0.0643
17163WAT     H170457   0.944   6.691   6.222 -1.7993 -0.1506 -1.2437
17163WAT     H270458   0.845   6.784   6.289  0.9213  1.3167  0.9478
17163WAT    EPW70459   0.895   6.713   6.291  0.0644  0.6649 -0.0863
17164WAT      O70460  -1.673   2.342   5.839 -0.1587  0.0930  0.1671
17164WAT     H170461  -1.691   2.338   5.745  2.6812 -1.4345 -0.4246
17164WAT     H270462  -1.643   2.431   5.854 -1.0183  0.4638 -0.2901
17164WAT    EPW70463  -1.671   2.353   5.829  0.1025 -0.0596  0.0286
17165WAT      O70464   6.950   3.695   4.450 -1.0703 -0.5101  0.3267
17165WAT     H170465   6.895   3.746   4.391  0.6382  2.4849  1.1602
17165WAT     H270466   6.979   3.757   4.516  0.6249 -2.7527  1.8461
17165WAT    EPW70467   6.946   3.710   4.451 -0.6213 -0.4108  0.6368
17166WAT      O70468  -0.941   2.795   7.128  0.1851 -0.2318  0.7413
17166WAT     H170469  -0.877   2.788   7.198  0.3350 -0.3221  0.5956
17166WAT     H270470  -1.016   2.744   7.158 -0.4076  1.0660  1.5639
17166WAT    EPW70471  -0.943   2.787   7.141  0.1267 -0.0726  0.8304
17167WAT      O70472  -0.831   2.334   3.007  0.5264 -0.1946 -0.0930
17167WAT     H170473  -0.797   2.418   3.040 -0.4670  0.0728  0.2794
17167WAT     H270474  -0.754   2.278   3.003  0.6363 -0.6383  3.8921
17167WAT    EPW70475  -0.816   2.338   3.011  0.4098 -0.2178  0.4817
17168WAT      O70476  -2.228   6.087   5.883  0.9244 -0.4406  0.0313
17168WAT     H170477  -2.235   6.081   5.788 -3.2267 -2.0295  0.2081
17168WAT     H270478  -2.214   5.997   5.913  3.1707  0.1612  0.9737
17168WAT    EPW70479  -2.227   6.074   5.875  0.6731 -0.5710  0.1791
17169WAT      O70480  -2.512   4.831   7.890  0.0118  0.2685 -0.8374
17169WAT     H170481  -2.542   4.917   7.860  0.2767  1.1287  1.1968
17169WAT     H270482  -2.577   4.805   7.956  1.9421  0.7092  1.3473
17169WAT    EPW70483  -2.525   4.839   7.894  0.3014  0.4401 -0.2811
17170WAT      O70484   7.149   3.713   0.446 -0.3078  0.0502  0.3820
17170WAT     H170485   7.202   3.663   0.507 -0.8341  0.6314  1.3348
17170WAT     H270486   7.212   3.747   0.382  0.1521 -1.1598  0.1730
17170WAT    EPW70487   7.164   3.711   0.445 -0.3164 -0.0325  0.4801
17171WAT      O70488  -5.941   6.994   7.853 -0.7528 -0.8776 -0.6830
17171WAT     H170489  -5.898   6.996   7.768 -1.5486  1.8719 -1.1261
17171WAT     H270490  -5.879   7.036   7.912 -0.7041 -1.6740 -0.1557
17171WAT    EPW70491  -5.928   7.000   7.850 -0.8514 -0.6199 -0.6721
17172WAT      O70492   7.507   0.086   1.226  0.2014  0.5681  0.0216
17172WAT     H170493   7.438   0.102   1.291 -0.0190 -0.4533  0.0503
17172WAT     H270494   7.557   0.013   1.261  1.9524  1.9272  0.4929
17172WAT    EPW70495   7.504   0.079   1.239  0.4032  0.6127  0.0876
17173WAT      O70496  -0.471   5.438   4.003 -0.2406 -0.5178  0.7233
17173WAT     H170497  -0.391   5.415   3.957 -0.8911 -2.4433  0.4721
17173WAT     H270498  -0.475   5.376   4.076 -1.7243 -0.7697  0.4527
17173WAT    EPW70499  -0.461   5.427   4.007 -0.5221 -0.8051  0.6547
17174WAT      O70500   7.718   4.643   1.645  0.1635  0.2014 -0.3521
17174WAT     H170501   7.773   4.570   1.615 -1.7532 -3.1195  3.2694
17174WAT     H270502   7.774   4.692   1.706 -0.0888 -1.9376  1.7396
17174WAT    EPW70503   7.732   4.640   1.649 -0.1225 -0.5186  0.4014
17175WAT      O70504   1.216   3.186   4.085  0.1821  0.9169 -0.6728
17175WAT     H170505   1.209   3.228   4.171  0.6745  0.9924 -0.6627
17175WAT     H270506   1.128   3.156   4.065  0.2554  0.0387  0.2869
17175WAT    EPW70507   1.204   3.188   4.093  0.2567  0.8110 -0.5450
17176WAT      O70508  -0.701  10.342   2.129  0.0655  0.1211 -0.4720
17176WAT     H170509  -0.785  10.308   2.097 -0.2480  1.1066 -0.7539
17176WAT     H270510  -0.664  10.271   2.180 -3.2795  1.1623  4.0451
17176WAT    EPW70511  -0.707  10.328   2.131 -0.4171  0.3886  0.0864
17177WAT      O70512   1.322   8.926   1.176  0.2805  0.9523 -0.1240
17177WAT     H170513   1.266   8.979   1.119 -1.3462 -1.2772 -0.7250
17177WAT     H270514   1.261   8.883   1.236  1.5709  0.0948  0.6093
17177WAT    EPW70515   1.307   8.927   1.176  0.2361  0.5450 -0.1066
17178WAT      O70516  -4.105   8.757   5.379 -0.0060 -0.4116 -0.0480
17178WAT     H170517  -4.154   8.730   5.456 -1.2692 -0.9290 -1.0013
17178WAT     H270518  -4.108   8.853   5.380 -0.5636 -0.4287  0.2139
17178WAT    EPW70519  -4.112   8.766   5.389 -0.2463 -0.4826 -0.1390
17179WAT      O70520  -7.747   8.943   7.940 -0.2647 -0.3577  0.5834
17179WAT     H170521  -7.741   8.909   8.029  0.6617  1.6274  1.3538
17179WAT     H270522  -7.694   8.884   7.888  2.1697  0.3863  2.0434
17179WAT    EPW70523  -7.740   8.931   7.945  0.1786  0.0024  0.8776
17180WAT      O70524  -0.606   6.008   5.973  0.4970 -0.0346  0.4032
17180WAT     H170525  -0.603   6.060   5.892 -2.7252  1.8176  1.3209
17180WAT     H270526  -0.560   6.063   6.037  1.4707 -0.6847  0.2839
17180WAT    EPW70527  -0.599   6.022   5.971  0.2005  0.1237  0.5083
17181WAT      O70528  -0.660   5.022   0.565 -0.6846 -0.2083 -0.2293
17181WAT     H170529  -0.602   5.054   0.497 -2.0716  0.3155 -1.1973
17181WAT     H270530  -0.661   4.927   0.553  1.3822 -0.4585  0.9950
17181WAT    EPW70531  -0.652   5.013   0.555 -0.5950 -0.1724 -0.1955
17182WAT      O70532   1.345   9.801   5.769  0.2648 -0.7318  0.2253
17182WAT     H170533   1.325   9.836   5.682  0.8255 -0.8127  0.0587
17182WAT     H270534   1.259   9.790   5.811  0.0755  1.8559  0.6889
17182WAT    EPW70535   1.331   9.804   5.763  0.3138 -0.4010  0.2644
17183WAT      O70536   1.559   4.520   7.509 -0.0324 -0.0584 -0.4452
17183WAT     H170537   1.515   4.577   7.572 -0.6369  0.5368 -1.3842
17183WAT     H270538   1.595   4.449   7.562  0.7286  1.1779  0.7560
17183WAT    EPW70539   1.558   4.518   7.524 -0.0117  0.1831 -0.4106
17184WAT      O70540   5.111   3.926   1.493 -0.1641  0.0189 -0.2025
17184WAT     H170541   5.110   3.889   1.405 -0.3876 -0.0170 -0.1857
17184WAT     H270542   5.126   3.850   1.550 -0.8622 -0.0891 -0.1504
17184WAT    EPW70543   5.113   3.911   1.489 -0.2856 -0.0001 -0.1934
17185WAT      O70544  -2.178   9.894   5.355  0.4565  0.6472 -0.9995
17185WAT     H170545  -2.134   9.823   5.308  0.5066 -0.3934  0.5544
17185WAT     H270546  -2.107   9.954   5.379  0.6499  0.3668 -0.8678
17185WAT    EPW70547  -2.163   9.893   5.352  0.4886  0.4725 -0.7775
17186WAT      O70548   6.299   3.830   4.950  0.2707  0.0316 -0.1028
17186WAT     H170549   6.379   3.782   4.973 -0.7488 -1.1351  1.2127
17186WAT     H270550   6.248   3.768   4.898 -0.5159  0.1218  0.5436
17186WAT    EPW70551   6.303   3.815   4.946  0.0327 -0.1105  0.1559
17187WAT      O70552  -0.816   3.639   7.207  0.1547 -0.3086 -0.1099
17187WAT     H170553  -0.805   3.704   7.276 -2.2361  0.2718 -0.1805
17187WAT     H270554  -0.820   3.555   7.253 -1.1344  0.0511  0.4957
17187WAT    EPW70555  -0.815   3.637   7.222 -0.3306 -0.1847 -0.0393
17188WAT      O70556   0.238   7.742   0.935  0.8179  0.0966 -0.1379
17188WAT     H170557   0.262   7.656   0.969 -1.6980 -0.3574  0.6734
17188WAT     H270558   0.236   7.731   0.840 -0.4107 -1.0602 -0.0016
17188WAT    EPW70559   0.241   7.730   0.927  0.3240 -0.1159 -0.0129
17189WAT      O70560  -2.165   2.018   6.676  0.2657 -0.2959  0.7236
17189WAT     H170561  -2.204   2.059   6.753 -0.1866 -2.0541  1.5019
17189WAT     H270562  -2.241   1.986   6.625  0.5666 -2.2357  1.3845
17189WAT    EPW70563  -2.180   2.019   6.679  0.2457 -0.7837  0.9136
17190WAT      O70564   1.918   7.661   2.857  0.3866  0.2387 -0.3133
17190WAT     H170565   1.917   7.755   2.840  0.4305  0.0825 -1.2864
17190WAT     H270566   1.976   7.626   2.789 -0.3654 -0.5798 -0.5488
17190WAT    EPW70567   1.925   7.669   2.846  0.2932  0.1101 -0.4727
17191WAT      O70568  -3.628   6.565   5.531 -0.2500 -0.2724  0.4907
17191WAT     H170569  -3.682   6.595   5.458 -2.5021 -2.9174  0.8755
17191WAT     H270570  -3.588   6.484   5.500  1.9297  0.5731  0.9476
17191WAT    EPW70571  -3.630   6.559   5.517 -0.2595 -0.5097  0.6020
17192WAT      O70572   8.976   1.220   1.107 -0.1519  0.3784 -0.1016
17192WAT     H170573   8.961   1.276   1.183 -2.2533  0.8604 -0.8071
17192WAT     H270574   8.910   1.248   1.043  1.8523  0.3521 -2.3400
17192WAT    EPW70575   8.965   1.231   1.109 -0.1650  0.4385 -0.4899
17193WAT      O70576  -5.251   9.420   6.852  0.4462 -0.1844  0.0025
17193WAT     H170577  -5.228   9.512   6.841 -3.8381  1.3685  2.0385
17193WAT     H270578  -5.282   9.392   6.766 -1.6896  1.5010  0.1617
17193WAT    EPW70579  -5.252   9.428   6.839 -0.4008  0.2427  0.2923
17194WAT      O70580   4.376   0.405   2.788  0.6139 -0.3081 -0.7506
17194WAT     H170581   4.455   0.353   2.800  0.5999 -0.2996 -0.6265
17194WAT     H270582   4.408   0.492   2.766  0.7129  0.4486  2.0299
17194WAT    EPW70583   4.391   0.410   2.787  0.6254 -0.2072 -0.3676
17195WAT      O70584   1.243   6.261   5.983  0.4573  0.1807  0.0783
17195WAT     H170585   1.191   6.308   5.919 -0.1218 -0.8084 -0.1845
17195WAT     H270586   1.313   6.323   6.007 -0.4765  1.2953  0.0008
17195WAT    EPW70587   1.246   6.275   5.978  0.2578  0.1972  0.0331
17196WAT      O70588  -0.524   3.309   6.921 -0.3117  0.0688  0.6876
17196WAT     H170589  -0.549   3.342   6.835  0.1208 -0.5218  0.3223
17196WAT     H270590  -0.429   3.293   6.913 -0.4933 -1.2146  0.8426
17196WAT    EPW70591  -0.515   3.311   6.908 -0.2786 -0.1783  0.6599
17197WAT      O70592   7.749   1.251   0.661  0.2959 -0.3564  0.1925
17197WAT     H170593   7.760   1.322   0.725  0.4134  1.6016 -1.8772
17197WAT     H270594   7.682   1.283   0.601  0.5186 -1.9345 -0.9561
17197WAT    EPW70595   7.741   1.265   0.662  0.3405 -0.3063 -0.2320
17198WAT      O70596   2.423   5.454   0.981 -0.1412 -0.1337  0.6328
17198WAT     H170597   2.351   5.477   1.039  1.3446 -0.4973  2.7349
17198WAT     H270598   2.473   5.389   1.030  0.2032 -1.8851 -1.8325
17198WAT    EPW70599   2.420   5.448   0.995  0.1001 -0.4127  0.5849
17199WAT      O70600  -1.857   2.396   8.119 -0.1414  0.4396  1.1866
17199WAT     H170601  -1.807   2.440   8.187  0.2467  1.2243  0.4161
17199WAT     H270602  -1.792   2.372   8.053 -0.5799  0.1205  0.8645
17199WAT    EPW70603  -1.842   2.398   8.119 -0.1481  0.5010  1.0428
17200WAT      O70604   0.541   0.388   3.822 -0.0730 -0.6047 -0.0166
17200WAT     H170605   0.624   0.434   3.833 -0.2912 -0.3462  0.6324
17200WAT     H270606   0.477   0.446   3.864 -0.5886 -0.7736 -0.5582
17200WAT    EPW70607   0.543   0.402   3.829 -0.1698 -0.5929 -0.0024
17201WAT      O70608   7.695   3.207   2.553 -0.2849 -0.8580 -0.0738
17201WAT     H170609   7.613   3.232   2.511 -0.8917 -1.2673  0.8422
17201WAT     H270610   7.724   3.129   2.506 -1.4085 -1.8285  0.7868
17201WAT    EPW70611   7.688   3.200   2.542 -0.5133 -1.0400  0.1605
17202WAT      O70612  -6.188   3.572   8.990  0.5747 -0.0879  0.2815
17202WAT     H170613  -6.138   3.497   9.024  0.0017 -0.7975 -0.3984
17202WAT     H270614  -6.163   3.577   8.897  0.9652  0.8730  0.4234
17202WAT    EPW70615  -6.178   3.562   8.982  0.5507 -0.0547  0.2103
17203WAT      O70616  -0.287   4.030   3.785  0.3485 -0.0450 -0.1900
17203WAT     H170617  -0.252   4.036   3.873 -1.7467 -1.4015  0.8149
17203WAT     H270618  -0.352   3.959   3.789 -0.8440  0.7932 -2.4536
17203WAT    EPW70619  -0.291   4.021   3.797 -0.0851 -0.1132 -0.3560
17204WAT      O70620  -2.388   9.248   4.737 -0.4865 -0.2500 -0.9825
17204WAT     H170621  -2.466   9.294   4.707 -0.2048 -0.4583 -2.0703
17204WAT     H270622  -2.407   9.227   4.829 -0.5546  2.1442 -0.3751
17204WAT    EPW70623  -2.401   9.251   4.745 -0.4584  0.0377 -1.0459
17205WAT      O70624  -0.452   1.849   5.911  0.4624  0.5344  0.5118
17205WAT     H170625  -0.507   1.884   5.981  1.4177 -0.6160  1.9009
17205WAT     H270626  -0.467   1.907   5.837  0.1130  2.3580  1.9540
17205WAT    EPW70627  -0.461   1.861   5.911  0.5423  0.6231  0.8852
17206WAT      O70628  -0.025   6.087   1.045 -0.4520 -0.2986  0.0338
17206WAT     H170629   0.043   6.154   1.055 -0.7039 -0.2583  1.7501
17206WAT     H270630  -0.057   6.098   0.955  2.5962 -1.1175 -1.2674
17206WAT    EPW70631  -0.020   6.097   1.034 -0.0832 -0.4013  0.0886
17207WAT      O70632  -5.294   3.038   7.380  0.3991 -0.0499  0.0512
17207WAT     H170633  -5.354   3.110   7.361 -0.5198 -1.1722 -1.5078
17207WAT     H270634  -5.211   3.065   7.339  0.8617  1.2306  1.7004
17207WAT    EPW70635  -5.291   3.051   7.372  0.3388 -0.0291  0.0632
17208WAT      O70636   4.863   7.111   3.844 -0.3413  0.7151 -0.1439
17208WAT     H170637   4.887   7.039   3.786 -0.8305  1.0315 -0.7515
17208WAT     H270638   4.777   7.086   3.879  0.2427  0.2181  0.9655
17208WAT    EPW70639   4.855   7.099   3.841 -0.3285  0.6912 -0.0777
17209WAT      O70640  -4.887  10.268   5.894 -0.5009 -0.1432  0.1856
17209WAT     H170641  -4.834  10.198   5.930 -0.3004 -0.5494 -0.8767
17209WAT     H270642  -4.830  10.312   5.831 -0.3251  1.5381  1.4319
17209WAT    EPW70643  -4.873  10.265   5.891 -0.4513  0.0253  0.2096
17210WAT      O70644   3.182   6.064   3.811 -0.3626 -0.1519 -0.6774
17210WAT     H170645   3.145   5.979   3.786  0.9003 -0.7717 -0.5319
17210WAT     H270646   3.254   6.078   3.750  0.1567  0.2555  0.0087
17210WAT    EPW70647   3.186   6.054   3.800 -0.1277 -0.1798 -0.5678
17211WAT      O70648   1.636   3.608   0.116  0.3270 -0.3484 -0.5658
17211WAT     H170649   1.581   3.535   0.144 -0.2828  1.2515  2.8738
17211WAT     H270650   1.688   3.572   0.044 -0.5109 -3.8814  0.3939
17211WAT    EPW70651   1.635   3.594   0.110  0.1361 -0.6033  0.0144
17212WAT      O70652   2.808   3.756   0.160  0.1372 -0.5016 -0.2038
17212WAT     H170653   2.745   3.792   0.223  1.8320  1.0935  0.6829
17212WAT     H270654   2.812   3.822   0.091 -0.5640 -1.5241 -1.2485
17212WAT    EPW70655   2.800   3.769   0.159  0.2682 -0.4262 -0.2246
17213WAT      O70656   4.585   7.068   1.856  0.4354  0.7777  0.3196
17213WAT     H170657   4.661   7.017   1.829 -0.2186 -0.0984  0.0970
17213WAT     H270658   4.621   7.136   1.914  1.2821 -0.1015  0.8488
17213WAT    EPW70659   4.600   7.070   1.860  0.4606  0.5460  0.3600
17214WAT      O70660  -5.630   7.140   8.533  0.5322 -0.3097 -0.3840
17214WAT     H170661  -5.607   7.108   8.620  0.6771 -0.7445 -0.5820
17214WAT     H270662  -5.703   7.084   8.505  0.2910  0.0184 -0.4249
17214WAT    EPW70663  -5.637   7.128   8.540  0.5193 -0.3238 -0.4153
17215WAT      O70664   1.222   8.067   8.305  0.3442  0.6695 -0.3730
17215WAT     H170665   1.189   7.995   8.358  0.9081 -0.3047 -1.3112
17215WAT     H270666   1.275   8.119   8.366 -2.2316  1.8740  0.9688
17215WAT    EPW70667   1.225   8.065   8.320  0.0788  0.7000 -0.3200
17216WAT      O70668  -4.813   5.200   7.844  0.2441  0.5646  0.2426
17216WAT     H170669  -4.825   5.293   7.827 -0.6783  0.0440 -2.4087
17216WAT     H270670  -4.786   5.163   7.760 -2.5755 -2.0519  0.3154
17216WAT    EPW70671  -4.811   5.207   7.831 -0.2494  0.1509 -0.0975
17217WAT      O70672  -0.998   7.914   1.083 -0.9413  0.2103 -0.7063
17217WAT     H170673  -1.011   8.005   1.056  0.0490  0.5807  0.0250
17217WAT     H270674  -0.945   7.919   1.162  1.0675 -1.0556 -1.8677
17217WAT    EPW70675  -0.993   7.927   1.090 -0.5457  0.0920 -0.7630
17218WAT      O70676   6.882   4.335   1.403  0.2786  0.3269 -0.3108
17218WAT     H170677   6.856   4.415   1.449 -1.7019 -1.0089  1.0512
17218WAT     H270678   6.967   4.313   1.440 -0.5927  0.1299  1.7066
17218WAT    EPW70679   6.890   4.343   1.414 -0.0975  0.1247  0.1349
17219WAT      O70680   6.472   8.410   2.163 -0.8084  0.1063  0.0296
17219WAT     H170681   6.536   8.392   2.094  1.1707 -0.3992  1.9120
17219WAT     H270682   6.438   8.323   2.187 -1.1804  0.2406  0.0074
17219WAT    EPW70683   6.476   8.396   2.157 -0.5963  0.0577  0.2749
17220WAT      O70684   3.145   9.864   6.375 -0.2056  0.2981 -0.7332
17220WAT     H170685   3.220   9.854   6.434 -0.9969 -2.1623  0.0187
17220WAT     H270686   3.183   9.891   6.292  1.4124  0.0270 -0.1215
17220WAT    EPW70687   3.159   9.866   6.372 -0.0967 -0.0620 -0.5534
17221WAT      O70688   1.303   8.865   6.696  0.5614  0.4912  0.4862
17221WAT     H170689   1.370   8.816   6.647  1.0694  0.4992  1.1550
17221WAT     H270690   1.312   8.833   6.786 -1.6382 -0.9339  0.2669
17221WAT    EPW70691   1.313   8.854   6.702  0.3383  0.3042  0.5453
17222WAT      O70692   7.700   0.915   3.948 -0.9274 -0.6890  0.1450
17222WAT     H170693   7.755   0.991   3.967 -0.5280 -0.6153 -1.1819
17222WAT     H270694   7.673   0.883   4.034  0.6451 -0.3285  0.8110
17222WAT    EPW70695   7.703   0.921   3.962 -0.6673 -0.6317  0.0579
17223WAT      O70696  -2.767   0.894   7.113  0.2499  0.2634 -0.6780
17223WAT     H170697  -2.760   0.891   7.017  2.8393  0.7978 -0.5680
17223WAT     H270698  -2.734   0.980   7.137 -1.8693  0.7769  0.6666
17223WAT    EPW70699  -2.762   0.905   7.103  0.3119  0.4016 -0.4861
17224WAT      O70700  -1.862   3.000   2.461  0.1436  0.6451  0.2082
17224WAT     H170701  -1.944   3.039   2.430  1.5156  5.0795  1.4295
17224WAT     H270702  -1.803   3.006   2.387  0.8234  2.6452  0.8559
17224WAT    EPW70703  -1.865   3.006   2.447  0.4143  1.4937  0.4547
17225WAT      O70704   2.536   3.782   1.476  0.3185 -0.1560  0.3238
17225WAT     H170705   2.451   3.741   1.467  1.7309 -3.0720 -1.2793
17225WAT     H270706   2.590   3.718   1.522  1.6579  1.6799  1.4860
17225WAT    EPW70707   2.532   3.768   1.480  0.6814 -0.2984  0.2657
17226WAT      O70708  -4.265   8.753   4.815  0.1396 -0.2440  0.6493
17226WAT     H170709  -4.355   8.756   4.847  0.6202  0.9342  2.0150
17226WAT     H270710  -4.217   8.815   4.871  1.1088  1.7952 -2.1939
17226WAT    EPW70711  -4.270   8.762   4.826  0.3312  0.1802  0.4544
17227WAT      O70712   6.776   1.043   2.712 -0.1600 -0.6384 -0.0169
17227WAT     H170713   6.735   0.959   2.733 -1.0699 -0.4911 -1.0868
17227WAT     H270714   6.806   1.077   2.796 -1.2047 -1.3039  0.6478
17227WAT    EPW70715   6.775   1.036   2.726 -0.4177 -0.7068 -0.0703
17228WAT      O70716   4.432   5.680   3.216  0.6557 -0.0944 -0.2464
17228WAT     H170717   4.399   5.757   3.171  2.4205  0.3964 -0.7903
17228WAT     H270718   4.359   5.618   3.215  0.3939  0.1154 -3.2291
17228WAT    EPW70719   4.418   5.682   3.210  0.8540 -0.0021 -0.7114
17229WAT      O70720   0.901   6.659   0.715 -0.0700  0.5999 -0.0854
17229WAT     H170721   0.892   6.705   0.799 -1.4596  0.2880 -0.0403
17229WAT     H270722   0.900   6.567   0.739 -0.9101  0.5006 -0.4638
17229WAT    EPW70723   0.899   6.653   0.729 -0.3641  0.5457 -0.1294
17230WAT      O70724   6.482   7.958  -0.023  0.2931  0.1999 -0.2032
17230WAT     H170725   6.446   7.946   0.065 -2.3678  2.4081 -0.8319
17230WAT     H270726   6.572   7.988  -0.009  0.8852 -2.2019  1.6098
17230WAT    EPW70727   6.489   7.961  -0.010  0.0200  0.1743 -0.0470
17231WAT      O70728   6.832   9.146   1.272 -0.7152  0.4827  0.5996
17231WAT     H170729   6.792   9.185   1.194  0.5702  0.3798 -0.1402
17231WAT     H270730   6.763   9.091   1.309 -1.4246  0.7095 -0.3346
17231WAT    EPW70731   6.818   9.144   1.267 -0.6392  0.4992  0.3788
17232WAT      O70732   4.394   6.746   0.252 -1.0658  0.1862  0.3418
17232WAT     H170733   4.405   6.665   0.203  1.4066 -0.4118  1.7345
17232WAT     H270734   4.300   6.751   0.270 -1.1774 -2.9515  1.1289
17232WAT    EPW70735   4.383   6.736   0.248 -0.7546 -0.3066  0.6293
17233WAT      O70736  -0.352   7.862   1.248  0.5287  0.9218  0.4798
17233WAT     H170737  -0.309   7.799   1.190  0.1139  3.5966 -3.0710
17233WAT     H270738  -0.281   7.904   1.296  1.0179 -0.2886  0.8585
17233WAT    EPW70739  -0.337   7.859   1.247  0.5385  1.1148  0.0615
17234WAT      O70740   1.014   0.484   2.368  0.1895 -0.3393  0.1102
17234WAT     H170741   1.020   0.511   2.277  2.9655 -2.8931 -0.6336
17234WAT     H270742   1.105   0.476   2.397 -0.5844  0.9857  3.3790
17234WAT    EPW70743   1.027   0.486   2.360  0.4536 -0.5014  0.4431
17235WAT      O70744   0.164   7.916   0.406  0.1876 -0.9772  0.5123
17235WAT     H170745   0.115   7.978   0.459 -0.0367 -1.0729  0.4176
17235WAT     H270746   0.132   7.928   0.317  1.9727  0.6017  0.0160
17235WAT    EPW70747   0.154   7.926   0.402  0.3935 -0.7815  0.4344
17236WAT      O70748  -4.727   5.926   8.773 -0.3665 -0.0408  0.2895
17236WAT     H170749  -4.677   5.877   8.707  1.1170 -0.3413  1.5961
17236WAT     H270750  -4.730   6.016   8.739  1.6300  0.1279  0.4618
17236WAT    EPW70751  -4.721   5.931   8.759  0.0925 -0.0582  0.4845
17237WAT      O70752   2.347   3.745   3.990  0.3845  1.1549 -0.9856
17237WAT     H170753   2.314   3.763   4.078  0.8523  0.5109 -0.6657
17237WAT     H270754   2.442   3.739   4.002  0.3226 -0.9536 -1.1394
17237WAT    EPW70755   2.355   3.747   4.003  0.4382  0.7919 -0.9637
17238WAT      O70756   0.697   5.685   3.959  0.0020  0.0169  0.2898
17238WAT     H170757   0.710   5.607   4.013 -2.7795 -0.2690  0.7091
17238WAT     H270758   0.654   5.652   3.879 -1.7612  1.1099  0.7277
17238WAT    EPW70759   0.693   5.670   3.955 -0.5974  0.1233  0.4029
17239WAT      O70760   5.429   7.720   4.111  0.0826 -0.0010  0.0985
17239WAT     H170761   5.384   7.803   4.126 -0.2383 -0.0243 -0.6889
17239WAT     H270762   5.486   7.736   4.036  1.0569 -0.1105  0.7885
17239WAT    EPW70763   5.430   7.733   4.103  0.1688 -0.0184  0.0856
17240WAT      O70764   4.188   5.744   1.289 -0.2891  0.2358 -0.2058
17240WAT     H170765   4.248   5.671   1.274  0.3666  0.7594 -0.1692
17240WAT     H270766   4.149   5.761   1.203  0.9424  1.0350 -0.6397
17240WAT    EPW70767   4.191   5.737   1.276 -0.0401  0.4103 -0.2581
17241WAT      O70768  -1.914   8.877   0.455 -0.1125  1.2404  0.1477
17241WAT     H170769  -1.852   8.948   0.473 -0.5711  1.2530  1.8578
17241WAT     H270770  -1.885   8.805   0.511 -0.5796  0.6370 -0.3774
17241WAT    EPW70771  -1.902   8.877   0.465 -0.2345  1.1630  0.3040
17242WAT      O70772   3.245   2.049   7.888 -0.0993 -0.0467  0.1296
17242WAT     H170773   3.225   1.967   7.932  2.2504 -0.4683  0.5344
17242WAT     H270774   3.200   2.043   7.804  2.1616 -3.0346 -1.0246
17242WAT    EPW70775   3.237   2.038   7.882  0.5089 -0.4965  0.0308
17243WAT      O70776   5.575   3.719   1.484 -0.0079 -0.2428 -0.6301
17243WAT     H170777   5.549   3.635   1.447 -0.0734 -0.6298  0.2752
17243WAT     H270778   5.656   3.741   1.438  0.7353 -1.4537  0.0628
17243WAT    EPW70779   5.582   3.711   1.473  0.0815 -0.4535 -0.4193
17244WAT      O70780   7.287   1.647   2.547 -1.0860  0.0936  0.3446
17244WAT     H170781   7.324   1.615   2.464 -0.5375 -0.9490  0.9750
17244WAT     H270782   7.197   1.615   2.546 -1.2745  0.6140 -0.1180
17244WAT    EPW70783   7.280   1.639   2.536 -1.0386  0.0247  0.3667
17245WAT      O70784   4.130   0.987   5.714  0.7596 -0.6112 -0.1596
17245WAT     H170785   4.122   1.078   5.686 -1.2080 -0.6272  0.2098
17245WAT     H270786   4.156   0.993   5.806  0.5267 -0.4212 -0.1061
17245WAT    EPW70787   4.133   1.000   5.723  0.4692 -0.5883 -0.1037
17246WAT      O70788  -0.249   2.878   5.444 -0.1038  0.2205  0.2511
17246WAT     H170789  -0.218   2.801   5.396  1.4705  0.6352  0.5316
17246WAT     H270790  -0.264   2.944   5.376  0.9797  0.4338  0.1959
17246WAT    EPW70791  -0.247   2.876   5.428  0.2468  0.3033  0.2806
17247WAT      O70792   4.672   5.456   3.644 -0.2700 -0.8927  0.1591
17247WAT     H170793   4.628   5.433   3.726 -1.1416 -2.8162 -0.7933
17247WAT     H270794   4.610   5.430   3.576  0.8753 -0.2896 -1.1557
17247WAT    EPW70795   4.658   5.450   3.646 -0.2339 -1.0667 -0.1401
17248WAT      O70796   3.461   3.589   1.384 -0.7730  0.6273  0.3460
17248WAT     H170797   3.479   3.671   1.337  0.2203 -0.3050 -0.9852
17248WAT     H270798   3.419   3.617   1.465  2.3690  2.7296  1.4569
17248WAT    EPW70799   3.458   3.604   1.388 -0.2277  0.7818  0.3170
17249WAT      O70800  -0.719   4.929   3.612  0.4895  0.3262 -0.4177
17249WAT     H170801  -0.748   4.873   3.541 -2.7601  1.9002 -0.5134
17249WAT     H270802  -0.707   5.015   3.572 -3.6616  1.8369  1.0468
17249WAT    EPW70803  -0.722   4.933   3.598 -0.4866  0.7331 -0.2372
17250WAT      O70804   5.786   0.475   6.781  0.6201  0.2486  0.1841
17250WAT     H170805   5.746   0.562   6.786 -0.5817 -0.3291  1.2357
17250WAT     H270806   5.761   0.441   6.695  1.9065  1.2876 -0.6353
17250WAT    EPW70807   5.778   0.482   6.770  0.6313  0.3094  0.2146
17251WAT      O70808   4.561   9.033   3.488  1.0421  0.3691 -0.1285
17251WAT     H170809   4.509   9.007   3.411  0.1378 -0.7730  0.8248
17251WAT     H270810   4.501   9.087   3.540  2.5500  3.6071 -1.5345
17251WAT    EPW70811   4.546   9.036   3.485  1.1218  0.6456 -0.1881
17252WAT      O70812   3.459   9.963   2.841  0.1429 -0.5504 -0.1734
17252WAT     H170813   3.375  10.004   2.862  0.3936  1.0427 -2.0677
17252WAT     H270814   3.437   9.893   2.780  0.3055  1.3637 -2.5773
17252WAT    EPW70815   3.445   9.959   2.836  0.1974 -0.0877 -0.7403
17253WAT      O70816  -0.530   7.928   3.377  0.1074 -1.0114 -0.2161
17253WAT     H170817  -0.458   7.933   3.440  0.2384 -1.6820 -0.3037
17253WAT     H270818  -0.509   7.995   3.311  0.4314 -0.9171 -0.0181
17253WAT    EPW70819  -0.517   7.937   3.376  0.1673 -1.0874 -0.2015
17254WAT      O70820  -2.847   8.609   7.632  0.3121  0.0912  0.0519
17254WAT     H170821  -2.873   8.699   7.648  0.8655  0.0433  1.3715
17254WAT     H270822  -2.753   8.608   7.648 -0.2276 -1.5179  4.4228
17254WAT    EPW70823  -2.838   8.620   7.636  0.3139 -0.1273  0.8025
17255WAT      O70824   0.632   3.445   4.024  0.5842  0.7047  0.0880
17255WAT     H170825   0.585   3.381   4.076  1.2511  0.0446 -0.0960
17255WAT     H270826   0.613   3.420   3.933  0.5000  1.0303  0.0157
17255WAT    EPW70827   0.623   3.433   4.019  0.6610  0.6605  0.0544
17256WAT      O70828  -2.054   8.170   3.379 -0.3789 -0.1210 -0.0918
17256WAT     H170829  -2.108   8.184   3.301 -0.1789  0.0172 -0.2078
17256WAT     H270830  -2.073   8.246   3.435 -0.1790  0.0142 -0.2062
17256WAT    EPW70831  -2.064   8.182   3.376 -0.3262 -0.0849 -0.1222
17257WAT      O70832   7.367   0.871   0.513 -0.1961 -0.4773  0.4937
17257WAT     H170833   7.346   0.785   0.476 -1.4756 -1.4103  3.1744
17257WAT     H270834   7.348   0.932   0.442  0.5136 -2.3360 -1.4139
17257WAT    EPW70835   7.361   0.868   0.498 -0.2713 -0.8455  0.5957
17258WAT      O70836  -3.780   8.567   4.790 -0.1291 -0.3915 -0.1306
17258WAT     H170837  -3.764   8.644   4.844 -2.0205  0.2789 -0.4508
17258WAT     H270838  -3.694   8.544   4.754  0.8583  0.1583  1.7806
17258WAT    EPW70839  -3.767   8.574   4.792 -0.2483 -0.2303  0.0794
17259WAT      O70840   5.652   1.154   7.903 -0.1601 -0.1561  0.8711
17259WAT     H170841   5.571   1.187   7.941  0.8848  2.3504  1.0565
17259WAT     H270842   5.708   1.133   7.978  1.3400  3.3896  0.9585
17259WAT    EPW70843   5.649   1.155   7.918  0.1755  0.6422  0.9069
17260WAT      O70844   4.351   7.321   4.379 -0.2220 -0.5045 -0.0886
17260WAT     H170845   4.397   7.306   4.296  0.1244  0.2452 -0.0335
17260WAT     H270846   4.261   7.293   4.362  0.3463 -2.6043 -0.0180
17260WAT    EPW70847   4.345   7.315   4.366 -0.1013 -0.6824 -0.0720
17261WAT      O70848   5.882   0.089   1.735 -0.5843 -0.8377 -0.1134
17261WAT     H170849   5.951   0.023   1.729 -2.2417 -2.8542  1.3281
17261WAT     H270850   5.842   0.089   1.648  1.5564  0.8757 -1.1940
17261WAT    EPW70851   5.886   0.080   1.723 -0.5205 -0.8777 -0.0658
17262WAT      O70852   0.828   4.886   7.172  0.4147 -0.2327 -0.0758
17262WAT     H170853   0.844   4.816   7.235  1.7837  0.1974  0.0978
17262WAT     H270854   0.907   4.888   7.118  0.8354  1.7369  0.5050
17262WAT    EPW70855   0.841   4.877   7.174  0.6507  0.0839  0.0236
17263WAT      O70856  -0.950   6.021   3.830 -0.2472  0.0378 -0.9274
17263WAT     H170857  -1.034   6.067   3.825  1.1102  2.6489 -1.2776
17263WAT     H270858  -0.901   6.066   3.899  1.6674  0.0357 -2.2090
17263WAT    EPW70859  -0.955   6.033   3.838  0.1844  0.3822 -1.1426
17264WAT      O70860   3.841   0.670   7.899  0.1795  0.2078 -0.5584
17264WAT     H170861   3.820   0.607   7.830 -1.7744  0.5702 -0.3568
17264WAT     H270862   3.762   0.723   7.908  0.5320  0.4612  1.6427
17264WAT    EPW70863   3.828   0.669   7.891 -0.0317  0.2890 -0.2415
17265WAT      O70864   5.922   6.861   3.538 -0.9139  0.1621  0.6356
17265WAT     H170865   5.968   6.849   3.455 -2.9368 -1.0851 -0.3759
17265WAT     H270866   5.923   6.774   3.578 -2.5060  0.0500  0.4882
17265WAT    EPW70867   5.929   6.848   3.533 -1.3907 -0.0172  0.4828
17266WAT      O70868   3.563   2.914   6.399  0.4702 -0.8362 -0.3143
17266WAT     H170869   3.488   2.876   6.446 -1.1325  2.2825 -0.0773
17266WAT     H270870   3.632   2.848   6.407 -2.2315 -4.0111 -0.7061
17266WAT    EPW70871   3.562   2.900   6.406 -0.0975 -0.8436 -0.3347
17267WAT      O70872  -2.373   4.829   7.437 -0.2736  0.0319  0.3514
17267WAT     H170873  -2.320   4.790   7.367 -1.2160  0.9000 -0.8892
17267WAT     H270874  -2.455   4.780   7.434 -0.8775  1.0519 -0.1764
17267WAT    EPW70875  -2.377   4.817   7.427 -0.4776  0.2809  0.1183
17268WAT      O70876   4.304   6.839   2.285  0.0901 -0.0279 -0.1606
17268WAT     H170877   4.369   6.859   2.218 -0.4250 -1.5134 -1.1581
17268WAT     H270878   4.223   6.880   2.253  0.3454  1.2883  0.7722
17268WAT    EPW70879   4.302   6.847   2.272  0.0558 -0.0501 -0.1692
17269WAT      O70880   0.356   3.115   4.310  0.0522  0.1763 -0.0013
17269WAT     H170881   0.432   3.131   4.366  1.2935  0.6066 -1.7310
17269WAT     H270882   0.294   3.069   4.367  2.7196 -2.8588  0.7479
17269WAT    EPW70883   0.358   3.111   4.325  0.5677 -0.1673 -0.1307
17270WAT      O70884   6.701   0.198   0.386  0.3973  0.6943  0.0821
17270WAT     H170885   6.664   0.113   0.409  0.5211  0.6212  0.0152
17270WAT     H270886   6.735   0.186   0.297  0.1717  0.8915 -0.0310
17270WAT    EPW70887   6.701   0.185   0.377  0.3839  0.7107  0.0583
17271WAT      O70888   0.867   7.096   8.522  0.1459 -0.0879  0.2443
17271WAT     H170889   0.939   7.038   8.496 -0.4685 -1.0944  0.7494
17271WAT     H270890   0.910   7.176   8.552  1.0024 -0.2363 -0.5417
17271WAT    EPW70891   0.882   7.099   8.522  0.1778 -0.2401  0.2069
17272WAT      O70892  -0.821   4.197   0.390 -0.0316  0.4001  0.0545
17272WAT     H170893  -0.795   4.228   0.304  0.4975  1.8756  0.7229
17272WAT     H270894  -0.898   4.249   0.412  0.4290  0.7340  0.8934
17272WAT    EPW70895  -0.828   4.208   0.382  0.0989  0.6387  0.2533
17273WAT      O70896   2.133   6.249   5.298  0.2331  0.7678  0.1083
17273WAT     H170897   2.200   6.232   5.364 -1.2926 -1.7942  1.1440
17273WAT     H270898   2.084   6.167   5.291 -0.6575  1.4151 -3.1339
17273WAT    EPW70899   2.135   6.236   5.305 -0.0855  0.5155 -0.1829
17274WAT      O70900   4.488   1.874   0.350 -0.0947  0.2585 -0.1975
17274WAT     H170901   4.509   1.967   0.357  0.0691  0.0939  1.8610
17274WAT     H270902   4.545   1.830   0.412 -1.1654 -1.0660 -0.0803
17274WAT    EPW70903   4.498   1.880   0.359 -0.2143  0.0622  0.0895
17275WAT      O70904   5.747   1.954   5.258 -0.1159 -0.7161 -0.1429
17275WAT     H170905   5.833   1.968   5.218 -0.1292  0.2460  0.1439
17275WAT     H270906   5.749   1.862   5.286  1.7629 -0.1190  2.0114
17275WAT    EPW70907   5.759   1.944   5.256  0.1299 -0.5105  0.1793
17276WAT      O70908   0.001   7.470   4.661 -0.2036  0.4693  0.4637
17276WAT     H170909  -0.079   7.522   4.661 -0.2601  0.5490 -2.1907
17276WAT     H270910   0.048   7.498   4.739 -2.5798  0.6498  1.9339
17276WAT    EPW70911  -0.004   7.481   4.671 -0.5244  0.5035  0.3076
17277WAT      O70912   1.784   7.931   3.282  0.2569 -0.2132  0.1628
17277WAT     H170913   1.876   7.955   3.271  0.3903 -1.2907 -1.4710
17277WAT     H270914   1.737   8.015   3.284  1.3399  0.3926  2.1478
17277WAT    EPW70915   1.790   7.945   3.281  0.4174 -0.2754  0.2091
17278WAT      O70916   3.201   9.225   3.306 -0.0708 -0.3230 -0.1515
17278WAT     H170917   3.135   9.293   3.321 -0.0079 -0.5649  1.4562
17278WAT     H270918   3.203   9.213   3.211 -2.0953 -0.0793 -0.2593
17278WAT    EPW70919   3.193   9.233   3.296 -0.3295 -0.3228  0.0464
17279WAT      O70920   0.602  10.319   8.601 -0.2843  0.1739 -0.1115
17279WAT     H170921   0.686  10.281   8.574  0.0125  0.1739  0.7678
17279WAT     H270922   0.606  10.318   8.697 -0.7826  1.3010 -0.0749
17279WAT    EPW70923   0.614  10.314   8.610 -0.3108  0.3223  0.0091
17280WAT      O70924  -1.038   5.069   8.569 -0.2667  0.1519 -0.3975
17280WAT     H170925  -1.069   4.983   8.540 -0.8855 -0.3952  1.7022
17280WAT     H270926  -0.966   5.090   8.510  0.4649 -2.2043 -0.4383
17280WAT    EPW70927  -1.033   5.061   8.558 -0.2518 -0.2308 -0.1259
17281WAT      O70928  -1.159   5.627   2.646 -0.2772  0.2870 -0.2018
17281WAT     H170929  -1.184   5.599   2.558  2.1223 -0.1789 -0.8111
17281WAT     H270930  -1.234   5.604   2.701 -0.8032 -1.8163 -1.6898
17281WAT    EPW70931  -1.172   5.621   2.642 -0.0300 -0.0520 -0.4784
17282WAT      O70932   4.763   9.146   0.193 -0.0009 -0.4735 -1.1519
17282WAT     H170933   4.668   9.151   0.185 -0.3346 -3.2776 -0.0956
17282WAT     H270934   4.790   9.083   0.125  0.7257 -1.7235  0.2347
17282WAT    EPW70935   4.754   9.138   0.183  0.0510 -1.0080 -0.8297
17283WAT      O70936  -4.577   5.153   4.598  0.2315 -0.2462  0.0080
17283WAT     H170937  -4.497   5.200   4.579  0.0774 -0.8456 -2.5173
17283WAT     H270938  -4.557   5.062   4.576 -0.2981 -0.9432  2.1689
17283WAT    EPW70939  -4.564   5.147   4.593  0.1414 -0.4170 -0.0403
17284WAT      O70940   3.609   9.643   5.795  0.0118 -0.0326  0.2535
17284WAT     H170941   3.670   9.716   5.800  1.5523 -1.2773  0.0804
17284WAT     H270942   3.522   9.685   5.798  0.8294  1.6986  1.4794
17284WAT    EPW70943   3.605   9.659   5.796  0.3228  0.0319  0.3924
17285WAT      O70944  -3.794   4.974   5.629  0.4842  0.8306  0.1461
17285WAT     H170945  -3.785   5.032   5.553  0.3332  0.2742 -0.3078
17285WAT     H270946  -3.711   4.983   5.677  0.4118  1.5123  0.1549
17285WAT    EPW70947  -3.782   4.983   5.625  0.4548  0.8471  0.0875
17286WAT      O70948  -2.879   5.453   8.916 -0.1371 -0.2219  0.3455
17286WAT     H170949  -2.917   5.375   8.956 -1.0628 -0.6295 -1.2346
17286WAT     H270950  -2.797   5.467   8.964 -0.0779 -2.0165  0.8519
17286WAT    EPW70951  -2.873   5.444   8.927 -0.2514 -0.5121  0.2041
17287WAT      O70952  -0.016   1.202   1.511  0.3112  0.3130 -0.3184
17287WAT     H170953  -0.088   1.139   1.505  0.0128  0.6236 -0.0528
17287WAT     H270954   0.009   1.219   1.420 -0.5059  0.8351 -0.4514
17287WAT    EPW70955  -0.022   1.196   1.498  0.1641  0.4228 -0.3009
17288WAT      O70956   5.629   5.263   0.717 -0.0137  0.0520 -0.8115
17288WAT     H170957   5.642   5.346   0.764 -1.3030  2.2673 -4.0167
17288WAT     H270958   5.551   5.225   0.757  0.5163  0.4245  0.6318
17288WAT    EPW70959   5.621   5.269   0.729 -0.1140  0.3932 -1.0439
17289WAT      O70960   1.105   7.687   6.588 -0.3905 -0.0876 -0.2355
17289WAT     H170961   1.197   7.713   6.587 -0.4209  0.3922  2.2103
17289WAT     H270962   1.056   7.769   6.583 -0.6618 -0.2533 -0.3291
17289WAT    EPW70963   1.111   7.701   6.587 -0.4303 -0.0463  0.0746
17290WAT      O70964  -2.496   7.494   7.016 -0.4465  0.5036 -0.2946
17290WAT     H170965  -2.425   7.470   7.075 -0.6113  1.0937  0.1535
17290WAT     H270966  -2.461   7.478   6.929 -1.0676 -2.8216 -0.0441
17290WAT    EPW70967  -2.482   7.489   7.012 -0.5503  0.1428 -0.2024
17291WAT      O70968  -3.565   7.505   2.016 -0.2284  0.6674  0.3971
17291WAT     H170969  -3.495   7.518   1.952 -0.0660 -0.9760  0.2016
17291WAT     H270970  -3.524   7.523   2.100  0.1754  0.6137  0.2157
17291WAT    EPW70971  -3.550   7.509   2.018 -0.1538  0.4435  0.3475
17292WAT      O70972  -3.465   3.242   8.210 -0.2036  0.4711 -0.1056
17292WAT     H170973  -3.403   3.314   8.221  0.9547 -0.3471 -0.9924
17292WAT     H270974  -3.438   3.177   8.275 -1.8443  1.1754  1.3633
17292WAT    EPW70975  -3.453   3.242   8.220 -0.2673  0.4561 -0.0286
17293WAT      O70976   3.295   8.077   6.797 -0.1924 -0.5712  0.2908
17293WAT     H170977   3.306   7.999   6.743  0.1830  0.5289 -1.3244
17293WAT     H270978   3.374   8.128   6.781 -1.4710  1.2285 -0.6497
17293WAT    EPW70979   3.307   8.074   6.787 -0.3116 -0.1888 -0.0463
17294WAT      O70980  -0.740   7.932   7.969  0.7899 -0.2428  0.8432
17294WAT     H170981  -0.818   7.878   7.970  0.3360  0.2556 -1.6008
17294WAT     H270982  -0.687   7.898   7.897 -0.4436  3.5887 -2.2456
17294WAT    EPW70983  -0.743   7.920   7.960  0.5673  0.3283  0.1132
17295WAT      O70984  -0.074   7.752   6.067 -0.3624 -0.2571 -0.0520
17295WAT     H170985  -0.159   7.747   6.024  0.3764  1.3746 -1.9088
17295WAT     H270986  -0.069   7.842   6.099  1.2298  0.1970 -1.4051
17295WAT    EPW70987  -0.085   7.763   6.065 -0.0550  0.0179 -0.4754
17296WAT      O70988   3.213   7.603   5.383 -0.2567 -0.8171 -0.5400
17296WAT     H170989   3.225   7.626   5.475 -3.0139 -0.2710 -0.2262
17296WAT     H270990   3.173   7.517   5.385 -1.2449 -0.3861 -1.1659
17296WAT    EPW70991   3.210   7.595   5.395 -0.7508 -0.6881 -0.5813
17297WAT      O70992   5.514   4.583   0.660  0.0382  0.1951  0.4809
17297WAT     H170993   5.578   4.519   0.628 -0.2326  0.6030 -0.9417
17297WAT     H270994   5.565   4.661   0.679  0.2851 -0.2357  1.6488
17297WAT    EPW70995   5.529   4.585   0.658  0.0353  0.1919  0.4473
17298WAT      O70996   0.213   4.905   7.704  0.3234 -0.0875  0.4815
17298WAT     H170997   0.166   4.830   7.667 -1.1102 -0.0108  2.0071
17298WAT     H270998   0.144   4.970   7.722  1.5204  1.6184 -0.7735
17298WAT    EPW70999   0.197   4.904   7.702  0.2922  0.1476  0.5171
17299WAT      O71000   4.387   2.556   2.863 -0.6824  0.1388 -0.9743
17299WAT     H171001   4.418   2.638   2.823 -0.9826  0.2047 -1.0758
17299WAT     H271002   4.408   2.566   2.955  0.0636 -0.0353 -1.1187
17299WAT    EPW71003   4.394   2.568   2.870 -0.6237  0.1245 -1.0067
17300WAT      O71004  -1.812   7.904   3.652 -0.3830  0.3667  0.5759
17300WAT     H171005  -1.799   7.955   3.731  1.0452 -0.1132  0.6670
17300WAT     H271006  -1.787   7.815   3.676 -1.0117 -0.0159 -0.1181
17300WAT    EPW71007  -1.807   7.899   3.665 -0.2776  0.2530  0.4964
17301WAT      O71008   0.124   5.595   1.498 -0.2674  0.3001 -0.2413
17301WAT     H171009   0.072   5.563   1.572  0.1825  1.5686  0.6633
17301WAT     H271010   0.214   5.589   1.528  0.3396 -3.0691 -2.2540
17301WAT    EPW71011   0.129   5.590   1.512 -0.1280  0.0231 -0.3874
17302WAT      O71012   7.035   5.122   1.084 -0.1368  0.3703  0.7721
17302WAT     H171013   7.114   5.177   1.086  0.7937 -0.8836  0.2866
17302WAT     H271014   7.068   5.035   1.060 -1.2946 -0.8481  3.2118
17302WAT    EPW71015   7.050   5.118   1.081 -0.1667  0.0441  1.0298
17303WAT      O71016   1.968   1.651   1.841 -0.1336 -0.2505  0.4466
17303WAT     H171017   1.999   1.574   1.889 -0.7173 -0.8262 -0.0767
17303WAT     H271018   1.898   1.687   1.895  0.4234  0.1746  0.8996
17303WAT    EPW71019   1.963   1.645   1.854 -0.1371 -0.2704  0.4373
17304WAT      O71020   4.544   6.666   4.450  0.5468  0.2535 -1.3846
17304WAT     H171021   4.491   6.618   4.515  1.3005  1.2187 -0.0214
17304WAT     H271022   4.568   6.747   4.494  1.7633  0.5817 -2.6042
17304WAT    EPW71023   4.540   6.670   4.465  0.8066  0.4241 -1.3657
17305WAT      O71024  -6.676   8.262   8.507  0.1881  0.0835 -0.3096
17305WAT     H171025  -6.719   8.310   8.437  1.3937  1.1409 -0.3409
17305WAT     H271026  -6.588   8.297   8.511  1.1640 -2.1783 -0.3645
17305WAT    EPW71027  -6.670   8.273   8.499  0.4756 -0.0753 -0.3209
17306WAT      O71028   2.161   3.735   3.765  0.0485  0.1824  0.6610
17306WAT     H171029   2.229   3.715   3.830  0.2262 -4.4476 -0.5906
17306WAT     H271030   2.105   3.658   3.766 -1.2663  0.9054 -3.0926
17306WAT    EPW71031   2.163   3.722   3.774 -0.1014 -0.3330  0.0010
17307WAT      O71032   3.402   4.269   0.027 -0.0638  0.7946  0.0894
17307WAT     H171033   3.363   4.232   0.106  2.1926  1.1000  1.4368
17307WAT     H271034   3.372   4.360   0.026  1.7008  1.4673  1.9630
17307WAT    EPW71035   3.393   4.276   0.037  0.4665  0.9236  0.5143
17308WAT      O71036  -0.845   4.406   1.277  0.5147 -0.0855 -0.7407
17308WAT     H171037  -0.767   4.387   1.330  0.9268  0.5284 -1.1134
17308WAT     H271038  -0.818   4.386   1.188  0.0761 -0.3430 -0.8206
17308WAT    EPW71039  -0.831   4.401   1.273  0.5112 -0.0384 -0.8004
17309WAT      O71040  -2.405   0.576   6.778 -0.2856 -0.4246  0.6965
17309WAT     H171041  -2.465   0.553   6.850 -0.5101 -2.5208 -0.0789
17309WAT     H271042  -2.326   0.524   6.796  0.9541  1.5284  1.1461
17309WAT    EPW71043  -2.403   0.566   6.790 -0.1516 -0.4435  0.6535
17310WAT      O71044   0.918   4.500   6.585  0.7551 -0.4871  0.4959
17310WAT     H171045   0.928   4.424   6.642  0.5286 -1.3061 -0.5343
17310WAT     H271046   0.824   4.506   6.570  1.0107 -2.8021 -3.0564
17310WAT    EPW71047   0.907   4.491   6.591  0.7589 -0.9007 -0.1085
17311WAT      O71048   0.344   7.698   8.314  0.2921 -0.5620  0.3864
17311WAT     H171049   0.354   7.650   8.231 -2.4925 -2.1255  0.8377
17311WAT     H271050   0.386   7.642   8.379  1.7791  0.2828  0.1830
17311WAT    EPW71051   0.351   7.684   8.311  0.1210 -0.6568  0.4187
17312WAT      O71052   4.036   4.059   4.758 -0.7138  0.2791 -0.8718
17312WAT     H171053   4.090   4.133   4.786 -1.4762  0.5311 -0.0053
17312WAT     H271054   4.002   4.086   4.672  1.5348 -0.4435 -2.0826
17312WAT    EPW71055   4.038   4.072   4.750 -0.5176  0.2170 -0.9172
17313WAT      O71056  -3.029   8.436   4.426 -0.5505 -0.1030  0.2175
17313WAT     H171057  -3.076   8.416   4.345 -3.8409  1.1139  1.6392
17313WAT     H271058  -3.036   8.356   4.478  0.2515 -0.3910 -0.1068
17313WAT    EPW71059  -3.036   8.423   4.422 -0.8787  0.0196  0.3622
17314WAT      O71060   2.978   9.318   3.118  0.5247 -0.0437 -0.2901
17314WAT     H171061   2.947   9.270   3.042 -0.4381 -0.1908  0.1766
17314WAT     H271062   3.020   9.396   3.082  2.0131 -1.1524 -1.0522
17314WAT    EPW71063   2.979   9.322   3.104  0.5940 -0.2093 -0.3290
17315WAT      O71064  -0.498   8.663   6.628  0.0030 -0.4511 -0.7332
17315WAT     H171065  -0.452   8.601   6.571 -1.2291 -1.9384 -0.1679
17315WAT     H271066  -0.568   8.612   6.668 -0.7931  1.2139  0.1070
17315WAT    EPW71067  -0.501   8.648   6.626 -0.2645 -0.4282 -0.5479
17316WAT      O71068   7.592   0.366   1.597  0.0170  0.3995  0.3620
17316WAT     H171069   7.541   0.418   1.535  0.8535  0.2267 -0.4845
17316WAT     H271070   7.629   0.295   1.545  1.0961  0.5001  0.9479
17316WAT    EPW71071   7.590   0.364   1.582  0.2699  0.3900  0.3276
17317WAT      O71072  -3.456   5.200   6.143 -0.4670  0.1596 -0.2051
17317WAT     H171073  -3.443   5.282   6.097  0.3855 -0.0054 -0.2692
17317WAT     H271074  -3.368   5.167   6.161 -0.7752 -1.2943 -1.1513
17317WAT    EPW71075  -3.443   5.206   6.140 -0.3952 -0.0539 -0.3383
17318WAT      O71076  -1.170   1.171   6.209 -0.8215 -0.7548  0.1257
17318WAT     H171077  -1.134   1.091   6.172 -1.5440 -1.1353  0.2324
17318WAT     H271078  -1.098   1.207   6.262 -0.0114 -0.5640 -1.0622
17318WAT    EPW71079  -1.155   1.165   6.211 -0.8100 -0.7798 -0.0169
17319WAT      O71080  -0.467   1.774   0.455  0.4190  0.5662  0.0137
17319WAT     H171081  -0.387   1.813   0.421 -0.1085  1.0271 -0.7294
17319WAT     H271082  -0.438   1.691   0.495  1.3036  0.9018  0.0880
17319WAT    EPW71083  -0.453   1.768   0.456  0.4661  0.6712 -0.0745
17320WAT      O71084  -3.502   5.398   3.105  0.0059 -0.3457 -0.0695
17320WAT     H171085  -3.486   5.308   3.133 -2.4006 -0.9353 -0.3864
17320WAT     H271086  -3.578   5.392   3.048 -3.0341  2.3284  3.2197
17320WAT    EPW71087  -3.510   5.386   3.101 -0.7124 -0.0710  0.3227
17321WAT      O71088   0.076   1.231   8.611 -0.2229 -0.1726 -0.5861
17321WAT     H171089   0.014   1.163   8.638  2.6286 -2.8981 -0.3119
17321WAT     H271090   0.110   1.267   8.693  0.5716 -0.7159 -0.6684
17321WAT    EPW71091   0.073   1.227   8.625  0.2580 -0.6037 -0.5608
17322WAT      O71092  -2.290   6.577   7.566 -0.1305  0.0110  0.1182
17322WAT     H171093  -2.196   6.568   7.548  0.2153  0.1916  1.6551
17322WAT     H271094  -2.320   6.487   7.579 -1.0530 -0.4611 -4.0149
17322WAT    EPW71095  -2.282   6.564   7.565 -0.2065 -0.0274 -0.2241
17323WAT      O71096  -3.100   5.804   3.292 -0.4445 -0.0790 -0.1678
17323WAT     H171097  -3.069   5.879   3.241 -2.1616 -1.3447 -3.3496
17323WAT     H271098  -3.027   5.742   3.290  0.4650  0.8667  1.3025
17323WAT    EPW71099  -3.086   5.806   3.285 -0.5511 -0.1211 -0.3935
17324WAT      O71100   8.002   6.291   0.428  0.2147 -0.3784  0.5040
17324WAT     H171101   8.034   6.345   0.356  1.0753  0.9853  1.8559
17324WAT     H271102   8.025   6.201   0.402  0.3536  0.0484 -0.9691
17324WAT    EPW71103   8.010   6.286   0.415  0.3467 -0.1421  0.4880
17325WAT      O71104  -1.252   2.644   6.348  0.1931 -0.0799 -0.6598
17325WAT     H171105  -1.294   2.616   6.430  0.0410 -0.6391 -0.9198
17325WAT     H271106  -1.160   2.656   6.370 -0.0111  0.6451 -0.1995
17325WAT    EPW71107  -1.246   2.642   6.362  0.1461 -0.0581 -0.6335
17326WAT      O71108  -3.527   6.037   6.048  0.0140 -0.1519  0.2531
17326WAT     H171109  -3.538   6.074   6.136  2.1104  2.2516 -0.3804
17326WAT     H271110  -3.577   6.094   5.991  1.4402  0.4233 -0.4804
17326WAT    EPW71111  -3.535   6.049   6.052  0.4786  0.2410  0.0727
17327WAT      O71112   1.952   6.510   7.873  0.1480  0.2509  0.0590
17327WAT     H171113   1.976   6.593   7.831  0.0128  0.1022 -0.3141
17327WAT     H271114   1.860   6.520   7.895  0.1806  0.2726  0.1822
17327WAT    EPW71115   1.943   6.523   7.870  0.1345  0.2341  0.0260
17328WAT      O71116  -1.602   6.387   6.970  0.5051 -0.4416  0.1280
17328WAT     H171117  -1.520   6.339   6.977  0.7986 -0.2760 -1.6729
17328WAT     H271118  -1.580   6.465   6.918 -0.8572 -0.6339 -0.7996
17328WAT    EPW71119  -1.588   6.391   6.964  0.3641 -0.4451 -0.2320
17329WAT      O71120   3.347   3.674   1.604 -0.2065 -0.4787  0.0132
17329WAT     H171121   3.372   3.660   1.695  0.9966  0.1023 -0.2049
17329WAT     H271122   3.255   3.700   1.608 -0.2881 -0.8760  1.0227
17329WAT    EPW71123   3.338   3.676   1.616 -0.0585 -0.4544  0.1175
17330WAT      O71124   6.622   2.000   4.214  0.2982 -0.2392 -0.2406
17330WAT     H171125   6.626   1.906   4.195  2.4855 -0.0523 -1.0302
17330WAT     H271126   6.702   2.036   4.174  0.2283  1.7358  1.2398
17330WAT    EPW71127   6.633   1.993   4.206  0.5774  0.0460 -0.1495
17331WAT      O71128   6.877   2.152   4.129  0.8602  0.1976 -0.0155
17331WAT     H171129   6.826   2.193   4.058 -0.1008  1.6480  1.4338
17331WAT     H271130   6.960   2.200   4.129  0.6022  0.6518  0.2481
17331WAT    EPW71131   6.881   2.164   4.119  0.6995  0.4488  0.2105
17332WAT      O71132  -4.060   5.193   6.614 -0.1379 -0.1098 -0.3945
17332WAT     H171133  -4.146   5.193   6.572 -0.3412  0.9186  0.0114
17332WAT     H271134  -4.042   5.100   6.630 -0.7183 -0.4111 -1.3828
17332WAT    EPW71135  -4.069   5.180   6.610 -0.2413 -0.0141 -0.4714
17333WAT      O71136  -1.186   6.039   6.571  0.1355  0.0851 -0.8959
17333WAT     H171137  -1.264   6.082   6.606 -0.7154 -2.3063  0.4011
17333WAT     H271138  -1.202   6.033   6.477 -2.0445 -1.7003 -0.4996
17333WAT    EPW71139  -1.198   6.044   6.563 -0.2643 -0.4659 -0.6723
17334WAT      O71140  -5.549  10.193   6.563 -0.5409  0.1899 -0.0472
17334WAT     H171141  -5.464  10.237   6.554 -0.4843  0.3007  0.9228
17334WAT     H271142  -5.612  10.255   6.526 -0.0956 -0.3839 -1.8754
17334WAT    EPW71143  -5.546  10.207   6.557 -0.4747  0.1292 -0.1605
17335WAT      O71144  -2.331   0.820   3.543 -0.0934 -0.3386  0.0322
17335WAT     H171145  -2.358   0.749   3.485  3.6521 -0.4750 -1.8832
17335WAT     H271146  -2.264   0.781   3.599  1.3368  1.3306 -0.4007
17335WAT    EPW71147  -2.325   0.805   3.542  0.5893 -0.1365 -0.2775
17336WAT      O71148   6.593   3.917   0.188 -0.5269  0.3304  0.0480
17336WAT     H171149   6.578   3.845   0.249 -0.8375  1.1287  0.9416
17336WAT     H271150   6.571   3.995   0.238  2.0149  1.2395 -0.1324
17336WAT    EPW71151   6.588   3.918   0.202 -0.2327  0.5556  0.1421
17337WAT      O71152  -4.680  10.343   4.526  0.2627  0.0385  0.2096
17337WAT     H171153  -4.751  10.294   4.567  0.1023 -0.9976 -1.2341
17337WAT     H271154  -4.602  10.290   4.541  0.5742  0.6801  0.9302
17337WAT    EPW71155  -4.679  10.330   4.533  0.2825 -0.0138  0.1142
17338WAT      O71156  -6.024   8.708   4.793  0.0101 -0.2544 -0.7124
17338WAT     H171157  -5.997   8.769   4.862 -0.8524 -0.6451 -0.0129
17338WAT     H271158  -5.948   8.651   4.779 -0.3540 -1.2411  1.1117
17338WAT    EPW71159  -6.010   8.709   4.800 -0.1519 -0.4363 -0.3796
17339WAT      O71160   4.030   8.947   0.105  0.1223 -0.0136  0.0758
17339WAT     H171161   4.004   9.037   0.123 -1.4984 -0.2145 -1.0557
17339WAT     H271162   4.097   8.955   0.037 -0.1598  0.3331 -0.1633
17339WAT    EPW71163   4.036   8.960   0.098 -0.1287  0.0057 -0.1050
17340WAT      O71164  -5.240  10.255   7.580  0.0999  0.4101 -0.2919
17340WAT     H171165  -5.275  10.202   7.508 -0.7426 -0.6927  0.8913
17340WAT     H271166  -5.227  10.193   7.652 -0.1284  1.6616  0.8742
17340WAT    EPW71167  -5.243  10.240   7.580 -0.0415  0.4301  0.0179
17341WAT      O71168  -8.133  10.067   8.655 -0.5253  0.2219 -0.0753
17341WAT     H171169  -8.211  10.068   8.710  0.1418 -0.5858  0.9309
17341WAT     H271170  -8.138   9.986   8.606 -0.1764  0.0120  0.2271
17341WAT    EPW71171  -8.144  10.057   8.656 -0.3915  0.0882  0.0973
17342WAT      O71172  -0.868   2.981   1.595 -0.0512  0.0569 -0.2810
17342WAT     H171173  -0.877   3.033   1.515  0.0587 -0.9618 -0.9717
17342WAT     H271174  -0.870   3.046   1.665 -1.1986  0.8899 -1.0387
17342WAT    EPW71175  -0.869   2.997   1.593 -0.1881  0.0323 -0.4721
17343WAT      O71176  -0.077   2.178   0.719  0.7340 -0.4563 -0.0007
17343WAT     H171177  -0.118   2.130   0.647 -0.6547 -0.5432  0.8051
17343WAT     H271178  -0.140   2.171   0.791  2.1686 -0.5630  1.3029
17343WAT    EPW71179  -0.091   2.171   0.719  0.7400 -0.4820  0.2775
17344WAT      O71180   4.554   9.271   2.514 -0.2713  0.4349 -0.4156
17344WAT     H171181   4.639   9.262   2.557 -1.3263 -1.1207  1.5191
17344WAT     H271182   4.515   9.348   2.556 -0.3290  0.3889 -0.3867
17344WAT    EPW71183   4.560   9.280   2.525 -0.4182  0.2236 -0.1566
17345WAT      O71184  -6.417   9.977   8.086  0.5965 -0.2080  0.6267
17345WAT     H171185  -6.355  10.009   8.020 -0.9846  3.0162  0.5106
17345WAT     H271186  -6.485   9.934   8.035  1.1569 -0.9592  0.4958
17345WAT    EPW71187  -6.417   9.975   8.071  0.4618  0.1183  0.5946
17346WAT      O71188   4.735   0.727   3.762 -0.0078 -0.0478 -0.3410
17346WAT     H171189   4.669   0.698   3.699  0.2667 -1.0014 -0.2194
17346WAT     H271190   4.794   0.782   3.711 -0.9443  0.8970 -0.4264
17346WAT    EPW71191   4.734   0.730   3.747 -0.0951 -0.0490 -0.3362
17347WAT      O71192  -2.211   4.347   3.701  0.4776 -0.3471 -0.3061
17347WAT     H171193  -2.297   4.321   3.733  0.7619  0.7445  1.5637
17347WAT     H271194  -2.216   4.442   3.693  1.8205 -0.1109  1.0452
17347WAT    EPW71195  -2.223   4.356   3.705  0.6922 -0.1721  0.1186
17348WAT      O71196   4.238   7.907   4.320 -0.0250 -0.3849 -0.3313
17348WAT     H171197   4.260   7.825   4.365  1.5501 -0.3251 -0.9590
17348WAT     H271198   4.221   7.881   4.230  2.9274  0.2205 -1.1492
17348WAT    EPW71199   4.239   7.893   4.314  0.5720 -0.2971 -0.5219
17349WAT      O71200   5.885   5.193   0.854  0.4810  0.1798 -0.3436
17349WAT     H171201   5.850   5.231   0.773 -1.0750 -2.2646 -0.9312
17349WAT     H271202   5.811   5.144   0.890  2.3113 -2.2369  0.3363
17349WAT    EPW71203   5.870   5.192   0.848  0.5171 -0.4613 -0.3314
17350WAT      O71204  -2.203   7.565   2.759  0.2847  0.4993  0.1064
17350WAT     H171205  -2.142   7.502   2.720  1.7272  0.4684  2.1805
17350WAT     H271206  -2.182   7.648   2.716  3.0930  0.8461  1.8310
17350WAT    EPW71207  -2.192   7.567   2.748  0.8454  0.5412  0.6074
17351WAT      O71208   3.804   9.890   5.064  0.6810  0.3462 -0.1983
17351WAT     H171209   3.801   9.873   5.158  0.0144  1.9849  0.1099
17351WAT     H271210   3.896   9.908   5.047  0.6054  1.4361  0.4355
17351WAT    EPW71211   3.816   9.890   5.074  0.5832  0.7062 -0.0739
17352WAT      O71212  -0.474   1.025   1.029  0.1618 -0.2817 -0.7849
17352WAT     H171213  -0.449   0.979   0.949  0.5831  0.8358 -1.3229
17352WAT     H271214  -0.566   1.004   1.042  0.5415 -1.9607 -0.5147
17352WAT    EPW71215  -0.483   1.016   1.020  0.2674 -0.3558 -0.8202
17353WAT      O71216  -3.002   1.422   7.017 -0.4642 -0.0710  0.0342
17353WAT     H171217  -2.931   1.371   6.979 -0.5042 -1.3226  1.5550
17353WAT     H271218  -2.968   1.512   7.020  0.7365 -0.5066 -0.0204
17353WAT    EPW71219  -2.988   1.427   7.013 -0.3111 -0.2936  0.2277
17354WAT      O71220   3.690   7.190   5.405 -0.0058 -0.9641  0.4506
17354WAT     H171221   3.760   7.253   5.422 -1.1331  0.3588  0.3381
17354WAT     H271222   3.690   7.179   5.310 -1.3161  0.7317  0.2029
17354WAT    EPW71223   3.699   7.197   5.394 -0.3273 -0.5660  0.4032
17355WAT      O71224  -4.526   8.168   6.589  0.3675  0.1281 -0.5082
17355WAT     H171225  -4.530   8.121   6.672 -1.5061  0.3073 -0.4563
17355WAT     H271226  -4.493   8.104   6.526  0.7710 -0.3279  0.1554
17355WAT    EPW71227  -4.522   8.154   6.591  0.1738  0.0911 -0.4139
17356WAT      O71228  -1.791   8.172   5.317 -0.8152  0.3939 -0.0196
17356WAT     H171229  -1.871   8.212   5.351 -0.8200  2.0806 -1.7960
17356WAT     H271230  -1.782   8.208   5.229  0.5725 -1.7216 -0.8106
17356WAT    EPW71231  -1.800   8.182   5.310 -0.6328  0.3376 -0.3583
17357WAT      O71232   3.338   8.211   3.045 -0.0296  0.0349 -0.0686
17357WAT     H171233   3.327   8.306   3.045 -0.5350 -0.0019  1.1530
17357WAT     H271234   3.253   8.178   3.016 -0.2651 -0.0508  0.6812
17357WAT    EPW71235   3.325   8.219   3.041 -0.1274  0.0191  0.1913
17358WAT      O71236  -1.050   2.862   0.604  0.1606 -0.3522  0.5704
17358WAT     H171237  -1.054   2.823   0.516 -0.6058  2.4004 -0.7268
17358WAT     H271238  -0.977   2.923   0.599 -0.5268  0.5800  1.5095
17358WAT    EPW71239  -1.041   2.865   0.592 -0.0312  0.1338  0.5231
17359WAT      O71240   6.459   8.452   0.969  0.3592 -0.1028  0.1919
17359WAT     H171241   6.493   8.368   0.939 -0.4521 -1.5377  2.9718
17359WAT     H271242   6.382   8.430   1.021 -1.6001  2.6248 -1.2487
17359WAT    EPW71243   6.454   8.438   0.972 -0.0062  0.0677  0.3685
17360WAT      O71244   4.776   6.442   0.861 -0.4461  0.0829  0.2308
17360WAT     H171245   4.824   6.516   0.898  0.1798 -0.3038  0.2166
17360WAT     H271246   4.808   6.366   0.910 -0.6831 -0.2469 -0.1179
17360WAT    EPW71247   4.786   6.442   0.872 -0.3948 -0.0117  0.1829
17361WAT      O71248   1.977   3.660   8.178  0.4997  0.2006  0.0981
17361WAT     H171249   1.932   3.685   8.259  3.1682  0.9515  1.4615
17361WAT     H271250   2.019   3.577   8.197  0.7810  0.1526 -0.6667
17361WAT    EPW71251   1.977   3.653   8.191  0.8888  0.2933  0.1769
17362WAT      O71252  -1.560   2.503   4.966 -0.3845  0.3589  0.3694
17362WAT     H171253  -1.520   2.545   4.890  1.8252 -0.8892  0.7881
17362WAT     H271254  -1.594   2.420   4.932  0.3932 -0.0931  0.6901
17362WAT    EPW71255  -1.559   2.497   4.951  0.0095  0.1347  0.4668
17363WAT      O71256   4.974   4.725   3.298  0.5233 -0.6798  0.2300
17363WAT     H171257   4.881   4.742   3.285  0.1956  1.6722  4.0228
17363WAT     H271258   4.977   4.638   3.339 -0.0219 -0.7312  0.1631
17363WAT    EPW71259   4.962   4.716   3.302  0.4082 -0.3765  0.7215
17364WAT      O71260   1.599   8.735   2.154  0.3928 -0.2394  0.4342
17364WAT     H171261   1.615   8.682   2.076  1.1293  0.3527  0.1669
17364WAT     H271262   1.520   8.785   2.133 -0.3313 -1.2305  0.7030
17364WAT    EPW71263   1.591   8.734   2.141  0.3945 -0.2918  0.4344
17365WAT      O71264   1.537   3.748   7.775  0.5131  0.6514 -0.1775
17365WAT     H171265   1.484   3.702   7.710 -0.3761  3.0868 -1.2869
17365WAT     H271266   1.620   3.766   7.731  1.0434 -0.2378  0.4176
17365WAT    EPW71267   1.541   3.744   7.761  0.4657  0.8553 -0.2453
17366WAT      O71268  -1.851   8.961   1.948  0.5376 -0.6270 -0.3296
17366WAT     H171269  -1.929   8.942   1.896 -2.0056 -1.1615  3.3300
17366WAT     H271270  -1.857   9.055   1.967  0.2150 -0.8556  0.7460
17366WAT    EPW71271  -1.862   8.971   1.944  0.1596 -0.7272  0.2949
17367WAT      O71272  -0.151   5.353   7.888  0.3183 -0.5723  0.3035
17367WAT     H171273  -0.131   5.411   7.815  1.0038 -1.9729 -0.6585
17367WAT     H271274  -0.202   5.282   7.849 -1.2503 -0.2471  1.6108
17367WAT    EPW71275  -0.155   5.352   7.874  0.2019 -0.7141  0.3490
17368WAT      O71276  -0.629   1.473   7.624  0.2331 -0.0265  0.4380
17368WAT     H171277  -0.724   1.485   7.620  0.3437  1.9032  2.0578
17368WAT     H271278  -0.596   1.516   7.544 -0.3248 -2.7657 -1.3826
17368WAT    EPW71279  -0.637   1.481   7.613  0.1741 -0.1333  0.4115
17369WAT      O71280  -0.760   0.899   5.009  0.9521 -0.2906  0.3179
17369WAT     H171281  -0.740   0.828   5.071 -1.0241  0.6004  2.1390
17369WAT     H271282  -0.722   0.977   5.050 -1.5274  0.5426  1.2484
17369WAT    EPW71283  -0.753   0.900   5.023  0.3644 -0.0632  0.6809
17370WAT      O71284  -3.727   2.314   8.570 -0.1135 -0.1838  0.3456
17370WAT     H171285  -3.714   2.311   8.664 -0.2746  0.4042  0.3927
17370WAT     H271286  -3.735   2.408   8.550  2.0340 -0.1483 -0.5548
17370WAT    EPW71287  -3.726   2.326   8.579  0.1485 -0.1016  0.2327
17371WAT      O71288   6.276   2.626   2.586  0.1616 -0.3490  0.3686
17371WAT     H171289   6.203   2.633   2.525  0.8692 -0.7472 -0.5284
17371WAT     H271290   6.244   2.569   2.656 -0.0062 -1.4742 -0.6016
17371WAT    EPW71291   6.262   2.619   2.587  0.2327 -0.5498  0.1224
17372WAT      O71292   0.293   2.449   2.633 -0.2965  0.8391 -0.0306
17372WAT     H171293   0.342   2.493   2.565 -0.0420  0.2361 -0.2475
17372WAT     H271294   0.360   2.414   2.693 -0.4229 -0.2520 -0.4925
17372WAT    EPW71295   0.308   2.450   2.632 -0.2796  0.6157 -0.1202
17373WAT      O71296  -2.620   3.444   6.972  0.1698  0.2451  0.0292
17373WAT     H171297  -2.651   3.492   7.048  0.8550  1.1344 -0.2312
17373WAT     H271298  -2.698   3.431   6.918  0.0473  1.4763 -0.1083
17373WAT    EPW71299  -2.634   3.448   6.975  0.2440  0.5249 -0.0234
17374WAT      O71300  -0.337   4.232   1.769 -0.3819  0.2487  0.0309
17374WAT     H171301  -0.291   4.234   1.685 -0.1821 -0.4531  0.1202
17374WAT     H271302  -0.270   4.255   1.833 -0.0907 -0.9840  0.1841
17374WAT    EPW71303  -0.322   4.235   1.766 -0.3171 -0.0064  0.0629
17375WAT      O71304   3.804   4.189   7.058 -0.3348  0.6387 -0.7387
17375WAT     H171305   3.712   4.213   7.044  0.0040  2.2679 -0.3221
17375WAT     H271306   3.853   4.255   7.010  0.6497 -1.5281 -2.9569
17375WAT    EPW71307   3.798   4.200   7.049 -0.1602  0.5677 -0.9761
17376WAT      O71308   0.244   6.328   6.806  0.0421  0.2889  0.0765
17376WAT     H171309   0.166   6.272   6.808 -0.1522  0.4993 -0.8226
17376WAT     H271310   0.304   6.282   6.747  0.4356  0.3266  0.4525
17376WAT    EPW71311   0.242   6.315   6.798  0.0683  0.3214  0.0072
17377WAT      O71312   2.865   4.999   2.273 -0.6306  0.2173 -0.1111
17377WAT     H171313   2.925   4.928   2.250 -0.7311  0.3994 -0.9747
17377WAT     H271314   2.880   5.066   2.206 -1.3514  0.5353  0.0295
17377WAT    EPW71315   2.875   4.999   2.261 -0.7389  0.2835 -0.2065
17378WAT      O71316   5.967   0.375   6.118  0.1689  0.1945 -0.3256
17378WAT     H171317   5.923   0.342   6.197  0.4815 -2.9804 -1.3219
17378WAT     H271318   5.920   0.335   6.046  2.1397  0.0092 -1.5948
17378WAT    EPW71319   5.955   0.365   6.119  0.4702 -0.2487 -0.6244
17379WAT      O71320  -2.519   2.518   5.654  0.9104  0.1505  0.7565
17379WAT     H171321  -2.499   2.610   5.675  0.3137  0.4292  0.1645
17379WAT     H271322  -2.476   2.503   5.570 -2.1143  1.1097 -1.1271
17379WAT    EPW71323  -2.510   2.528   5.645  0.4326  0.3139  0.4301
17380WAT      O71324   4.021   3.161   3.374 -0.6169 -0.0825 -0.3927
17380WAT     H171325   3.984   3.246   3.351 -1.8811 -0.6436 -0.4786
17380WAT     H271326   4.110   3.181   3.404 -0.9806  1.2939 -0.1814
17380WAT    EPW71327   4.028   3.175   3.375 -0.8316  0.0250 -0.3761
17381WAT      O71328  -2.764   6.539   2.501  0.1903  0.2813 -0.1346
17381WAT     H171329  -2.760   6.621   2.550  1.4790 -0.5602  1.2237
17381WAT     H271330  -2.744   6.565   2.410 -0.0935  1.5456  0.1410
17381WAT    EPW71331  -2.761   6.553   2.495  0.3228  0.3371  0.0809
17382WAT      O71332  -1.114   4.750   4.667  0.2478  0.9255  0.2250
17382WAT     H171333  -1.156   4.664   4.672 -0.3629  1.1654 -0.4901
17382WAT     H271334  -1.129   4.777   4.576  2.0888  0.9576 -0.1050
17382WAT    EPW71335  -1.122   4.742   4.655  0.4101  0.9615  0.0873
17383WAT      O71336   3.388   4.710   5.021 -0.2543  0.5151 -0.7643
17383WAT     H171337   3.405   4.717   5.115  2.6918  0.9091 -1.2289
17383WAT     H271338   3.306   4.660   5.015 -1.0390  1.2834  1.9768
17383WAT    EPW71339   3.379   4.705   5.032  0.0308  0.6683 -0.4642
17384WAT      O71340  -0.145   4.591   1.741 -1.1832  0.3962  0.5699
17384WAT     H171341  -0.061   4.637   1.732 -0.8573  0.3282  2.8077
17384WAT     H271342  -0.152   4.540   1.660  1.9037 -1.0995  1.0782
17384WAT    EPW71343  -0.135   4.590   1.729 -0.7330  0.1900  0.9322
17385WAT      O71344   6.440   0.552   2.672  0.8235 -0.1335 -0.1040
17385WAT     H171345   6.502   0.524   2.604 -0.8560  0.0769 -1.8130
17385WAT     H271346   6.453   0.489   2.743  3.0915  0.0244 -0.2946
17385WAT    EPW71347   6.450   0.540   2.672  0.9010 -0.0849 -0.3545
17386WAT      O71348   4.694   0.848   2.389  0.1537  0.6479 -0.1513
17386WAT     H171349   4.683   0.876   2.480 -0.0887  1.5448 -0.4372
17386WAT     H271350   4.704   0.753   2.393  2.9426  0.8999  1.0592
17386WAT    EPW71351   4.694   0.839   2.402  0.4895  0.7994 -0.0293
17387WAT      O71352   3.051   4.121   6.361  0.0851  0.2036  0.6811
17387WAT     H171353   3.133   4.076   6.386 -0.5124 -0.3580  1.6979
17387WAT     H271354   3.067   4.213   6.383  1.2665  0.5256 -1.2739
17387WAT    EPW71355   3.064   4.127   6.367  0.1621  0.1721  0.5574
17388WAT      O71356  -1.007   3.568   1.264  0.2839  0.2564  0.5129
17388WAT     H171357  -0.926   3.587   1.312  0.9520  0.0481 -0.5109
17388WAT     H271358  -1.028   3.478   1.288  2.0497 -0.7979 -1.5118
17388WAT    EPW71359  -0.999   3.559   1.274  0.6049  0.0899  0.1107
17389WAT      O71360   0.172   5.730   7.840 -0.5176 -0.2405 -0.2468
17389WAT     H171361   0.133   5.711   7.925  0.7132 -0.7203  0.2361
17389WAT     H271362   0.204   5.645   7.808  0.0766  0.1185 -0.6352
17389WAT    EPW71363   0.171   5.716   7.847 -0.2769 -0.2565 -0.2344
17390WAT      O71364   2.113   4.831   3.998  0.5116  0.1569 -0.0057
17390WAT     H171365   2.169   4.755   3.982 -1.5115 -0.7712 -4.0666
17390WAT     H271366   2.026   4.793   4.011 -0.0586  1.7041  0.8302
17390WAT    EPW71367   2.109   4.816   3.997  0.1695  0.2387 -0.4309
17391WAT      O71368   3.885   4.125   5.612 -0.3795 -0.3496  0.4958
17391WAT     H171369   3.835   4.101   5.534 -0.0668  0.2952  0.0835
17391WAT     H271370   3.944   4.194   5.581  0.8121 -1.1326  0.9533
17391WAT    EPW71371   3.886   4.131   5.597 -0.1812 -0.3679  0.5016
17392WAT      O71372   2.348  10.222   0.530 -0.5321 -0.4948  0.2193
17392WAT     H171373   2.302  10.252   0.609 -1.6521 -2.7919  0.5091
17392WAT     H271374   2.286  10.163   0.487  1.2182 -1.7380 -0.7214
17392WAT    EPW71375   2.334  10.218   0.535 -0.4489 -0.9618  0.1335
17393WAT      O71376   6.439   0.204   4.168 -0.8776 -0.2872  0.3650
17393WAT     H171377   6.437   0.295   4.197  0.0685  0.5876 -2.0578
17393WAT     H271378   6.382   0.203   4.091  0.1871 -1.4092 -0.4433
17393WAT    EPW71379   6.431   0.216   4.162 -0.6123 -0.3198 -0.0613
17394WAT      O71380   1.387   7.757   6.586  0.2504 -0.4125  0.0164
17394WAT     H171381   1.420   7.666   6.586 -1.1230 -1.0718 -3.9042
17394WAT     H271382   1.465   7.810   6.604  0.8927 -2.2192  3.6933
17394WAT    EPW71383   1.402   7.752   6.588  0.1540 -0.7377 -0.0157
17395WAT      O71384   0.996   5.648   7.978  0.2420  0.3279  0.5794
17395WAT     H171385   0.995   5.735   8.018 -0.3606  0.3030  0.6336
17395WAT     H271386   0.930   5.653   7.909  1.4453  0.4431 -0.6004
17395WAT    EPW71387   0.987   5.660   7.974  0.3212  0.3397  0.4308
17396WAT      O71388  -2.812   4.043   3.239  0.5236 -0.6648 -1.0648
17396WAT     H171389  -2.804   4.067   3.147  3.5322 -0.5469 -0.8573
17396WAT     H271390  -2.796   4.125   3.286  1.3847 -1.1853 -0.4320
17396WAT    EPW71391  -2.809   4.057   3.233  1.0339 -0.7179 -0.9539
17397WAT      O71392  -3.271   5.574   4.697 -0.1884  0.1046  0.4555
17397WAT     H171393  -3.209   5.501   4.705 -0.7336 -0.6285 -1.4644
17397WAT     H271394  -3.218   5.652   4.714  0.4512 -0.6672  2.3668
17397WAT    EPW71395  -3.256   5.575   4.700 -0.1758 -0.0937  0.4544
17398WAT      O71396  -0.925   9.324   4.940 -0.0558  0.0295 -0.3726
17398WAT     H171397  -0.994   9.259   4.952 -0.4692  0.7856  1.8295
17398WAT     H271398  -0.947   9.394   5.002  0.4201  2.2670 -2.5478
17398WAT    EPW71399  -0.937   9.325   4.950 -0.0476  0.4244 -0.3691
17399WAT      O71400  -6.290   9.730   6.090  0.0433 -0.2052  0.5249
17399WAT     H171401  -6.355   9.801   6.088 -1.4399 -1.5057  0.5951
17399WAT     H271402  -6.334   9.659   6.138  1.3440 -1.3107  0.1308
17399WAT    EPW71403  -6.305   9.730   6.096  0.0191 -0.5221  0.4818
17400WAT      O71404   1.111   9.539   2.697  0.1590 -1.0222 -0.8339
17400WAT     H171405   1.150   9.587   2.623  0.8534 -0.7042 -0.2735
17400WAT     H271406   1.183   9.487   2.732 -0.2073 -1.2924 -0.4775
17400WAT    EPW71407   1.126   9.539   2.691  0.2022 -1.0161 -0.7130
17401WAT      O71408   0.329   2.607   7.901  0.2047 -0.5141  0.7386
17401WAT     H171409   0.267   2.535   7.889  0.9111 -1.0147  0.0759
17401WAT     H271410   0.415   2.566   7.900  0.5928  0.2782  0.8726
17401WAT    EPW71411   0.332   2.592   7.899  0.3491 -0.4755  0.6690
17402WAT      O71412   7.423   2.195   4.088 -0.2472 -0.7417 -0.4583
17402WAT     H171413   7.427   2.136   4.013  2.0769 -2.4843  0.8750
17402WAT     H271414   7.340   2.175   4.130 -1.0191 -0.6137 -1.8690
17402WAT    EPW71415   7.413   2.185   4.084 -0.0424 -0.9546 -0.4685
17403WAT      O71416  -0.434   8.527   8.202  0.2349  0.0913  0.0398
17403WAT     H171417  -0.433   8.587   8.127  2.7203 -1.6877 -1.4961
17403WAT     H271418  -0.492   8.456   8.174  0.0917  0.0663  0.3963
17403WAT    EPW71419  -0.442   8.526   8.188  0.5438 -0.1464 -0.1154
17404WAT      O71420  -1.211   3.049   5.216 -0.6760 -0.5371 -0.6020
17404WAT     H171421  -1.242   2.987   5.150 -1.5197 -0.0382 -0.6962
17404WAT     H271422  -1.268   3.125   5.205 -0.6140 -0.3208  0.4801
17404WAT    EPW71423  -1.223   3.051   5.206 -0.7790 -0.4427 -0.4718
17405WAT      O71424   1.511   2.133   0.295 -0.2754  0.4316 -0.4712
17405WAT     H171425   1.553   2.214   0.267 -3.2526  1.9763 -0.8947
17405WAT     H271426   1.449   2.160   0.362 -0.1808 -1.7939  0.6134
17405WAT    EPW71427   1.509   2.147   0.300 -0.6557  0.3418 -0.3840
17406WAT      O71428   0.682   4.611   6.332  0.4977 -0.2316 -0.1350
17406WAT     H171429   0.733   4.692   6.343  1.4405 -0.7411 -0.5834
17406WAT     H271430   0.748   4.544   6.317 -0.2095 -1.2922  1.3220
17406WAT    EPW71431   0.698   4.613   6.331  0.5287 -0.4389 -0.0021
17407WAT      O71432  -3.958   7.285   6.907  0.3191  0.1045  0.1898
17407WAT     H171433  -4.011   7.212   6.876 -1.0335  0.9386  0.4264
17407WAT     H271434  -4.008   7.321   6.981  1.9214  0.0725  1.3285
17407WAT    EPW71435  -3.972   7.280   6.913  0.3519  0.2103  0.3712
17408WAT      O71436  -0.749   2.136   3.583 -0.4028  0.5786  0.3112
17408WAT     H171437  -0.835   2.129   3.624 -1.0296  1.5080 -0.7754
17408WAT     H271438  -0.727   2.046   3.556 -1.3629  0.4356 -0.0287
17408WAT    EPW71439  -0.757   2.123   3.584 -0.6121  0.6822  0.1230
17409WAT      O71440  -0.450   8.310   6.607  0.7327  0.0440  0.1522
17409WAT     H171441  -0.416   8.265   6.685 -0.1287  0.8127  0.9877
17409WAT     H271442  -0.500   8.242   6.561  0.6192 -0.2224  0.6622
17409WAT    EPW71443  -0.452   8.295   6.611  0.6041  0.1101  0.3297
17410WAT      O71444   5.342  10.308   0.830  0.4194  0.0252  0.0709
17410WAT     H171445   5.336  10.312   0.925 -1.3754 -1.3289  0.0616
17410WAT     H271446   5.354  10.215   0.811 -2.7665 -0.2819 -1.0960
17410WAT    EPW71447   5.343  10.296   0.840 -0.2377 -0.1941 -0.0842
17411WAT      O71448   1.400   5.250   8.256  0.6014 -0.1372  0.6045
17411WAT     H171449   1.463   5.224   8.188 -0.0694  0.7870 -0.4170
17411WAT     H271450   1.453   5.288   8.325  1.1639  1.2758 -0.5439
17411WAT    EPW71451   1.415   5.252   8.256  0.5871  0.1712  0.3185
17412WAT      O71452  -5.783   9.147   8.786 -0.3896  0.3345  0.2331
17412WAT     H171453  -5.720   9.085   8.750 -2.0007  0.0960 -2.4058
17412WAT     H271454  -5.740   9.233   8.778 -0.0444  0.0840 -0.6977
17412WAT    EPW71455  -5.769   9.150   8.781 -0.5565  0.2699 -0.2379
17413WAT      O71456   1.948   6.493   0.809  0.3175  0.7045 -0.0090
17413WAT     H171457   2.035   6.521   0.780  0.1438  2.2586  0.8273
17413WAT     H271458   1.952   6.501   0.905  1.0395 -4.6463  0.6973
17413WAT    EPW71459   1.960   6.498   0.818  0.3898  0.2038  0.1945
17414WAT      O71460   5.140   9.637   1.009  0.4963  0.7139 -0.4559
17414WAT     H171461   5.228   9.649   0.974  0.4941 -0.0540 -0.7329
17414WAT     H271462   5.154   9.619   1.102  0.6169  0.8108 -0.4550
17414WAT    EPW71463   5.153   9.636   1.017  0.5119  0.6256 -0.4923
17415WAT      O71464   2.977   6.868   2.081 -0.8338 -0.5956 -0.5052
17415WAT     H171465   3.029   6.932   2.129 -1.8651 -0.8695  1.0691
17415WAT     H271466   3.015   6.783   2.104 -1.8348 -0.7841  0.5183
17415WAT    EPW71467   2.989   6.865   2.090 -1.1019 -0.6566 -0.1626
17416WAT      O71468  -0.643   9.587   6.016  0.3604 -0.3434 -0.1917
17416WAT     H171469  -0.637   9.596   6.111 -0.2379  0.1674 -0.1955
17416WAT     H271470  -0.597   9.506   5.996 -0.8991 -1.3224  0.7120
17416WAT    EPW71471  -0.636   9.578   6.026  0.1154 -0.4053 -0.0730
17417WAT      O71472  -4.452   3.616   6.361  0.2962 -0.3940  0.5540
17417WAT     H171473  -4.421   3.595   6.273 -2.4592  0.7765 -0.8244
17417WAT     H271474  -4.378   3.660   6.402  1.1342  0.5560 -1.7919
17417WAT    EPW71475  -4.438   3.619   6.355  0.0432 -0.1143  0.0629
17418WAT      O71476   1.853   7.309   5.989  0.3751 -0.3997 -0.0912
17418WAT     H171477   1.807   7.307   5.905 -0.2085  0.4902  0.2010
17418WAT     H271478   1.932   7.360   5.971  0.6178 -0.8329 -0.2739
17418WAT    EPW71479   1.858   7.315   5.976  0.3301 -0.3395 -0.0765
17419WAT      O71480   1.718   3.367   1.941  0.5016 -0.7374  0.0185
17419WAT     H171481   1.698   3.273   1.946  2.4894 -1.1913  0.0763
17419WAT     H271482   1.804   3.371   1.899  0.2762  1.0947 -0.3494
17419WAT    EPW71483   1.727   3.355   1.936  0.7341 -0.5555 -0.0224
17420WAT      O71484  -0.629   2.392   1.939  0.2791 -0.0178  0.7198
17420WAT     H171485  -0.723   2.411   1.942  0.4012  1.7877 -2.3748
17420WAT     H271486  -0.587   2.478   1.940  1.7593 -0.6782 -0.4096
17420WAT    EPW71487  -0.636   2.406   1.940  0.4904  0.1333  0.1627
17421WAT      O71488   8.382   1.056   2.106  0.0074 -0.4065  0.4390
17421WAT     H171489   8.395   0.962   2.117  1.5575 -0.2031  0.5790
17421WAT     H271490   8.430   1.095   2.179  0.8660  0.5456 -0.6125
17421WAT    EPW71491   8.390   1.049   2.117  0.3252 -0.2540  0.3189
17422WAT      O71492   2.461   8.813   1.984  0.0113 -0.8429  0.1285
17422WAT     H171493   2.468   8.744   1.918 -2.9748  0.3362 -1.5999
17422WAT     H271494   2.534   8.872   1.963 -0.2351 -1.0505 -1.4628
17422WAT    EPW71495   2.472   8.812   1.972 -0.4151 -0.7148 -0.3093
17423WAT      O71496   2.093   3.869   4.942  0.3636 -0.1750  0.2322
17423WAT     H171497   2.079   3.831   5.029 -2.3116 -0.9154 -0.4358
17423WAT     H271498   2.028   3.939   4.935  0.2715 -0.3709 -1.2927
17423WAT    EPW71499   2.083   3.873   4.953 -0.0014 -0.2985 -0.0570
17424WAT      O71500  -1.207   3.924   7.737  0.2393  0.3231 -0.5146
17424WAT     H171501  -1.266   3.852   7.716 -0.3919  1.2183 -1.9755
17424WAT     H271502  -1.258   4.003   7.718  1.1715  1.1617  0.3087
17424WAT    EPW71503  -1.221   3.925   7.732  0.2790  0.5517 -0.5984
17425WAT      O71504   4.362   5.284   4.270 -0.4241  0.1101 -0.8140
17425WAT     H171505   4.350   5.220   4.341  1.7541 -0.9932 -1.3476
17425WAT     H271506   4.277   5.290   4.228 -0.6415 -2.8370 -1.0161
17425WAT    EPW71507   4.350   5.277   4.274 -0.1655 -0.4241 -0.9112
17426WAT      O71508   1.998   4.949   1.594  0.1072 -0.5089  0.1892
17426WAT     H171509   1.981   4.973   1.503  1.9859  0.7164  0.0924
17426WAT     H271510   2.071   4.887   1.589 -0.1416 -0.8555  0.8274
17426WAT    EPW71511   2.006   4.944   1.581  0.3221 -0.3932  0.2606
17427WAT      O71512   5.106   1.394   3.133 -0.5258  0.4946  0.4290
17427WAT     H171513   5.088   1.478   3.174  0.5769  1.5083 -1.0857
17427WAT     H271514   5.138   1.415   3.046 -4.0171 -1.6133 -1.5924
17427WAT    EPW71515   5.108   1.408   3.127 -0.8407  0.3502 -0.0373
17428WAT      O71516  -2.906   9.205   7.803  0.2335 -0.1640  0.0140
17428WAT     H171517  -2.972   9.204   7.733  0.0246 -1.9526  0.1929
17428WAT     H271518  -2.854   9.126   7.788  1.4016  0.4351  0.7652
17428WAT    EPW71519  -2.908   9.195   7.792  0.3600 -0.3209  0.1369
17429WAT      O71520   1.757   3.966   3.870 -0.0182  0.1821 -0.0782
17429WAT     H171521   1.844   3.951   3.907  0.2164  0.0587 -0.6628
17429WAT     H271522   1.768   3.948   3.776 -0.9960 -1.2449  0.0438
17429WAT    EPW71523   1.770   3.961   3.862 -0.1163 -0.0225 -0.1394
17430WAT      O71524   2.818   2.003   4.457 -0.4441 -0.8286  0.3029
17430WAT     H171525   2.796   2.065   4.526 -3.0231 -1.1569 -0.1402
17430WAT     H271526   2.909   2.024   4.434 -1.0356  2.4791  0.4888
17430WAT    EPW71527   2.827   2.014   4.463 -0.8622 -0.4356  0.2692
17431WAT      O71528   1.427   4.852   2.701 -0.6939 -0.3220 -0.4738
17431WAT     H171529   1.504   4.827   2.649 -0.6774 -0.0941 -0.5612
17431WAT     H271530   1.360   4.874   2.637 -0.1019  1.7733 -0.4587
17431WAT    EPW71531   1.429   4.852   2.686 -0.6136 -0.0157 -0.4833
17432WAT      O71532   5.245   6.686   3.412 -0.4222  0.9425 -0.3461
17432WAT     H171533   5.180   6.673   3.342 -0.9520  3.0399 -0.3204
17432WAT     H271534   5.194   6.724   3.484  0.8137  2.8289 -0.3963
17432WAT    EPW71535   5.230   6.689   3.412 -0.3293  1.4679 -0.3494
17433WAT      O71536  -0.040   7.596   0.284 -0.7373  0.2044 -0.5075
17433WAT     H171537   0.044   7.604   0.239  0.1429 -1.1247  0.8234
17433WAT     H271538  -0.046   7.504   0.309 -2.2926  0.4125  0.0088
17433WAT    EPW71539  -0.030   7.585   0.281 -0.8264  0.0565 -0.2639
17434WAT      O71540   2.571   8.282   5.939  0.7001  0.8636 -0.0634
17434WAT     H171541   2.630   8.247   6.005 -0.3022 -0.5956  0.1111
17434WAT     H271542   2.504   8.329   5.989 -2.8593 -4.1929  0.6729
17434WAT    EPW71543   2.570   8.284   5.954  0.0985  0.0043  0.0567
17435WAT      O71544  -1.942   2.963   3.858  0.6941  0.0756  0.3479
17435WAT     H171545  -1.939   3.035   3.795 -0.7288 -0.2776 -0.1694
17435WAT     H271546  -1.991   2.998   3.933 -3.0318 -1.2202 -1.2454
17435WAT    EPW71547  -1.948   2.977   3.860  0.0150 -0.1420  0.0695
17436WAT      O71548  -1.134   3.340   2.101  0.4179 -0.1815  0.3747
17436WAT     H171549  -1.133   3.411   2.037 -0.6370  0.1258  0.6954
17436WAT     H271550  -1.106   3.381   2.183 -0.3804 -0.0826  0.6041
17436WAT    EPW71551  -1.130   3.355   2.103  0.1734 -0.1279  0.4473
17437WAT      O71552   1.054   5.868   8.508 -0.0884 -0.2361  0.0497
17437WAT     H171553   1.021   5.821   8.585 -1.5193  0.0488 -0.3501
17437WAT     H271554   1.050   5.960   8.532  0.0639 -0.1781 -0.1398
17437WAT    EPW71555   1.049   5.874   8.521 -0.2570 -0.1910 -0.0277
17438WAT      O71556   7.473   5.053   1.292  0.4689  0.0367  0.0319
17438WAT     H171557   7.537   5.024   1.357 -0.6187 -2.8097  0.0022
17438WAT     H271558   7.522   5.055   1.210  0.7846 -1.2059  0.1647
17438WAT    EPW71559   7.488   5.049   1.290  0.3672 -0.5026  0.0455
17439WAT      O71560  -2.561   4.886   8.201  0.0033 -0.2638  0.2702
17439WAT     H171561  -2.592   4.855   8.286 -1.8945 -1.1082 -0.6657
17439WAT     H271562  -2.607   4.969   8.188  0.7249  0.1468  0.2974
17439WAT    EPW71563  -2.571   4.893   8.211 -0.1519 -0.3209  0.1502
17440WAT      O71564   3.769   6.005   0.127 -0.0845  0.1724  0.2686
17440WAT     H171565   3.834   5.979   0.192  1.6440  1.2148 -0.9744
17440WAT     H271566   3.698   5.941   0.137  0.5622 -0.2796  2.4746
17440WAT    EPW71567   3.768   5.993   0.137  0.2288  0.2503  0.3956
17441WAT      O71568  -0.031   0.980   0.263  0.3263 -0.2360  0.1396
17441WAT     H171569  -0.127   0.978   0.271  0.3575  0.2180  0.6176
17441WAT     H271570  -0.004   0.890   0.283  0.2217  0.2588  2.8713
17441WAT    EPW71571  -0.040   0.968   0.266  0.3166 -0.1109  0.5629
17442WAT      O71572   5.704   3.928   4.445 -0.2001 -0.6846 -0.4456
17442WAT     H171573   5.678   3.975   4.365  0.2248 -0.5238 -0.4971
17442WAT     H271574   5.739   3.997   4.502 -0.4390 -0.8101 -0.1477
17442WAT    EPW71575   5.706   3.944   4.442 -0.1757 -0.6800 -0.4129
17443WAT      O71576  -2.809   9.658   5.856 -0.6013 -0.1284  0.0842
17443WAT     H171577  -2.791   9.752   5.866  0.5048 -0.4079  0.9474
17443WAT     H271578  -2.724   9.619   5.835 -0.5024 -1.2322  2.1822
17443WAT    EPW71579  -2.795   9.665   5.855 -0.4423 -0.3109  0.4749
17444WAT      O71580  -2.730  10.050   1.147  0.5188 -0.1675  0.4902
17444WAT     H171581  -2.672  10.119   1.116  0.7855 -0.7914 -0.4556
17444WAT     H271582  -2.711  10.043   1.240  0.3071  1.1945  0.6604
17444WAT    EPW71583  -2.720  10.058   1.155  0.5261 -0.0701  0.3878
17445WAT      O71584   1.190   2.082   7.724  0.5776  1.2492 -0.2451
17445WAT     H171585   1.205   2.176   7.737 -1.8387  1.7491 -0.6514
17445WAT     H271586   1.097   2.070   7.742  0.9311 -1.1975  0.3183
17445WAT    EPW71587   1.180   2.093   7.728  0.3055  0.9924 -0.2244
17446WAT      O71588  -0.963   7.250   2.483 -0.8190  0.1857 -0.0861
17446WAT     H171589  -1.022   7.196   2.537  1.3343 -1.0050  1.2006
17446WAT     H271590  -0.992   7.340   2.498 -3.3899 -0.4187 -0.8918
17446WAT    EPW71591  -0.975   7.254   2.492 -0.8741 -0.0510 -0.0226
17447WAT      O71592  -1.718   4.280   3.093 -0.2433  0.2131 -0.4216
17447WAT     H171593  -1.654   4.347   3.114  0.5320 -1.2048  2.3494
17447WAT     H271594  -1.803   4.321   3.110  0.1170  0.9900 -0.4679
17447WAT    EPW71595  -1.721   4.294   3.098 -0.0935  0.1287 -0.0622
17448WAT      O71596  -2.377   7.721   8.739 -0.0129  0.5047 -0.1895
17448WAT     H171597  -2.293   7.684   8.711  0.2055 -0.4627  1.6031
17448WAT     H271598  -2.437   7.646   8.740 -1.4154  1.4415 -2.9989
17448WAT    EPW71599  -2.374   7.706   8.735 -0.1690  0.5007 -0.3238
17449WAT      O71600   3.687   3.270   3.517 -0.2761  0.8006 -0.0193
17449WAT     H171601   3.710   3.255   3.608 -0.9687 -1.2877 -0.1303
17449WAT     H271602   3.746   3.340   3.488  4.3665 -2.5106  0.3579
17449WAT    EPW71603   3.698   3.277   3.525  0.2449  0.0885  0.0159
17450WAT      O71604  -2.329   0.019   6.269  0.1580  0.1971  0.0553
17450WAT     H171605  -2.380   0.081   6.218 -1.0760  1.4974  2.6838
17450WAT     H271606  -2.394  -0.035   6.315  1.1942 -1.1210  0.0619
17450WAT    EPW71607  -2.344   0.020   6.269  0.1318  0.1945  0.4029
17451WAT      O71608   5.522   1.968   2.715 -0.2165  0.5924  0.5683
17451WAT     H171609   5.550   1.912   2.788  1.3244 -0.7244 -0.9591
17451WAT     H271610   5.426   1.973   2.724 -0.2047 -0.7533  1.8115
17451WAT    EPW71611   5.513   1.962   2.726 -0.0117  0.2413  0.5308
17452WAT      O71612  -0.520   0.359   5.646  0.6290 -0.0923 -0.3043
17452WAT     H171613  -0.547   0.276   5.684  0.1939 -0.6413 -1.7536
17452WAT     H271614  -0.554   0.425   5.706  0.0989 -0.9252  0.3286
17452WAT    EPW71615  -0.528   0.357   5.659  0.5017 -0.2746 -0.4120
17453WAT      O71616   5.584   1.678   7.586  0.4140  0.4783  0.3341
17453WAT     H171617   5.501   1.638   7.611 -0.4035  2.7459  1.5302
17453WAT     H271618   5.634   1.681   7.668  1.4565 -0.3156 -0.2525
17453WAT    EPW71619   5.580   1.673   7.600  0.4437  0.6727  0.4146
17454WAT      O71620   7.844   1.011   3.341 -0.1207 -0.0075 -0.0740
17454WAT     H171621   7.824   1.100   3.313 -0.5567 -0.3539 -0.8683
17454WAT     H271622   7.939   1.011   3.353 -0.1133  0.5511 -0.1159
17454WAT    EPW71623   7.854   1.022   3.339 -0.1771  0.0205 -0.1843
17455WAT      O71624  -4.770   3.589   8.587  0.5330  0.6395  0.3616
17455WAT     H171625  -4.819   3.634   8.519  0.5551 -1.4970 -1.1682
17455WAT     H271626  -4.695   3.646   8.605  0.3320  1.4152 -1.1455
17455WAT    EPW71627  -4.767   3.602   8.580  0.5095  0.4600 -0.0391
17456WAT      O71628   6.216   0.847   4.623  0.2476  0.0850 -0.3892
17456WAT     H171629   6.166   0.778   4.580  0.2236  0.4906 -1.0095
17456WAT     H271630   6.176   0.929   4.594 -0.5860  0.3548  1.3789
17456WAT    EPW71631   6.204   0.849   4.614  0.1345  0.1741 -0.2379
17457WAT      O71632  -1.460   7.108   1.497  0.1729 -0.4469 -0.4409
17457WAT     H171633  -1.399   7.046   1.456 -1.5299 -1.7003 -1.2129
17457WAT     H271634  -1.542   7.058   1.506 -0.9692  1.4068 -0.1388
17457WAT    EPW71635  -1.463   7.093   1.493 -0.2023 -0.3674 -0.5029
17458WAT      O71636   0.127   2.324   1.857  0.3839 -0.1272 -0.5670
17458WAT     H171637   0.072   2.294   1.930 -0.5891 -1.7977 -1.9117
17458WAT     H271638   0.103   2.416   1.846 -2.2376 -0.7938 -1.0907
17458WAT    EPW71639   0.116   2.332   1.866 -0.0902 -0.4355 -0.8134
17459WAT      O71640  -2.287   1.277   7.648 -0.0472  0.1246 -0.3280
17459WAT     H171641  -2.239   1.329   7.712 -0.6548  1.4454 -0.9226
17459WAT     H271642  -2.378   1.305   7.657 -0.1786  0.1787 -1.6122
17459WAT    EPW71643  -2.293   1.287   7.658 -0.1447  0.3059 -0.5758
17460WAT      O71644  -5.332   4.583   8.577 -0.3265 -0.0315  0.1836
17460WAT     H171645  -5.380   4.506   8.548 -1.0386  0.1027  0.9492
17460WAT     H271646  -5.263   4.595   8.512 -0.6449 -0.8932 -0.3257
17460WAT    EPW71647  -5.329   4.575   8.565 -0.4625 -0.1273  0.2174
17461WAT      O71648  -5.210   7.105   8.530 -0.5505 -0.3520 -0.3456
17461WAT     H171649  -5.182   7.025   8.485  2.9827 -0.1019  1.1429
17461WAT     H271650  -5.175   7.096   8.619 -1.0191  2.3847  0.2026
17461WAT    EPW71651  -5.202   7.093   8.536 -0.1462  0.0420 -0.0772
17462WAT      O71652   0.338   3.407   2.623  0.3239 -0.1625 -0.7644
17462WAT     H171653   0.324   3.480   2.562 -0.5567 -1.3055 -1.9650
17462WAT     H271654   0.329   3.329   2.570  1.0473 -1.1861  0.5488
17462WAT    EPW71655   0.335   3.406   2.608  0.3032 -0.4482 -0.7497
17463WAT      O71656  -0.429   7.956   5.879  0.4665  0.0401  0.1035
17463WAT     H171657  -0.389   8.012   5.813  0.6867  1.8586  1.7129
17463WAT     H271658  -0.516   7.936   5.843  0.2129  1.7793 -0.3406
17463WAT    EPW71659  -0.436   7.961   5.866  0.4621  0.5093  0.2575
17464WAT      O71660  -0.971   2.828   7.848 -0.8694  0.5475  0.3546
17464WAT     H171661  -0.968   2.868   7.934 -0.1587  2.4989 -0.5196
17464WAT     H271662  -0.896   2.864   7.801 -0.9133 -0.8913 -0.9045
17464WAT    EPW71663  -0.961   2.838   7.853 -0.7815  0.6151  0.0732
17465WAT      O71664   5.879   4.605   3.546  0.0838 -0.2981  0.0283
17465WAT     H171665   5.940   4.677   3.561  0.7158 -0.6380 -0.7860
17465WAT     H271666   5.866   4.566   3.632  0.9373 -0.1381  0.2401
17465WAT    EPW71667   5.885   4.609   3.559  0.2797 -0.3219 -0.0513
17466WAT      O71668   3.410   1.148   3.198  0.3891 -0.1938  0.5340
17466WAT     H171669   3.452   1.062   3.188  2.1183  0.7846 -1.4408
17466WAT     H271670   3.474   1.210   3.164 -1.2427  1.8052  0.8898
17466WAT    EPW71671   3.424   1.145   3.192  0.4019  0.1990  0.3204
17467WAT      O71672   2.559   3.756   6.535 -0.0403  0.2191  0.7764
17467WAT     H171673   2.616   3.794   6.601  0.6272 -1.6427  1.3337
17467WAT     H271674   2.541   3.828   6.474 -0.0388  1.7743  2.5178
17467WAT    EPW71675   2.564   3.771   6.535  0.0479  0.1787  1.0798
17468WAT      O71676   4.130   8.950   4.750 -0.3905  1.0318 -0.1559
17468WAT     H171677   4.160   8.937   4.840  0.4857  0.7915 -0.4680
17468WAT     H271678   4.172   9.033   4.723 -1.2183  1.4717 -0.1118
17468WAT    EPW71679   4.140   8.959   4.758 -0.3841  1.0581 -0.1912
17469WAT      O71680  -3.160   6.803   1.692 -0.4712 -0.7332  0.2545
17469WAT     H171681  -3.157   6.895   1.666 -1.7252 -0.7260  0.0524
17469WAT     H271682  -3.228   6.764   1.635  0.1485 -1.8182  0.2222
17469WAT    EPW71683  -3.169   6.810   1.681 -0.5548 -0.8752  0.2235
17470WAT      O71684   6.382   6.908   0.223  0.4377  0.8822 -0.2621
17470WAT     H171685   6.386   6.849   0.147  1.4957  0.7427 -0.1109
17470WAT     H271686   6.430   6.862   0.291 -2.5917 -0.1636  1.3594
17470WAT    EPW71687   6.389   6.894   0.222  0.1776  0.7257 -0.0283
17471WAT      O71688   4.077   0.697   5.329  0.2925  0.2880 -0.5338
17471WAT     H171689   4.153   0.711   5.386 -0.2618  2.2588 -0.1777
17471WAT     H271690   4.010   0.661   5.387  0.0394  1.3731 -0.1206
17471WAT    EPW71691   4.078   0.694   5.344  0.1860  0.6911 -0.4325
17472WAT      O71692   8.603   4.576   0.790 -0.2198  0.5553 -0.1344
17472WAT     H171693   8.592   4.653   0.846 -0.5437  1.4468 -1.3708
17472WAT     H271694   8.694   4.579   0.762  0.1580 -0.3285  0.9269
17472WAT    EPW71695   8.613   4.586   0.794 -0.2127  0.5562 -0.1575
17473WAT      O71696   2.588  10.244   6.836  0.4229  0.5653  0.0281
17473WAT     H171697   2.511  10.229   6.891  0.4844 -0.1848 -0.0840
17473WAT     H271698   2.661  10.211   6.888  0.4512 -0.3854 -0.6079
17473WAT    EPW71699   2.588  10.238   6.850  0.4349  0.3409 -0.0706
17474WAT      O71700  -3.083   8.312   5.082 -0.7781 -0.1207  0.2543
17474WAT     H171701  -3.077   8.333   5.175 -2.4245  1.9931 -0.0369
17474WAT     H271702  -3.031   8.380   5.038  3.2616 -3.2516 -0.3177
17474WAT    EPW71703  -3.075   8.324   5.088 -0.4624 -0.2546  0.1404
17475WAT      O71704  -0.682   5.440   1.602 -0.1779  0.4334 -0.2875
17475WAT     H171705  -0.674   5.421   1.509 -1.0393  1.0170 -0.4895
17475WAT     H271706  -0.745   5.376   1.634  2.5549 -2.0009  0.6256
17475WAT    EPW71707  -0.689   5.429   1.594  0.0689  0.1893 -0.1937
17476WAT      O71708   3.008   3.534   8.490 -0.6364  0.3404  0.8599
17476WAT     H171709   2.999   3.471   8.562 -0.8872  0.4001  0.8821
17476WAT     H271710   2.995   3.619   8.531 -0.3062  0.4077  0.8282
17476WAT    EPW71711   3.005   3.537   8.505 -0.6260  0.3573  0.8583
17477WAT      O71712   1.327   6.363   8.952 -0.2244  0.1835  0.1555
17477WAT     H171713   1.369   6.449   8.945  0.0502  0.0091 -0.3452
17477WAT     H271714   1.381   6.315   9.015  0.3636 -0.0600 -0.5316
17477WAT    EPW71715   1.339   6.368   8.960 -0.1106  0.1283 -0.0012
17478WAT      O71716   4.530   1.208   2.703  0.6515 -0.0663  0.3758
17478WAT     H171717   4.531   1.267   2.779 -0.7510  0.2028  0.2100
17478WAT     H271718   4.604   1.236   2.650  0.2620  1.2709  0.5087
17478WAT    EPW71719   4.540   1.219   2.706  0.4151  0.1456  0.3715
17479WAT      O71720  -0.188   8.190   4.249 -0.2306 -0.5841  1.1434
17479WAT     H171721  -0.113   8.147   4.289 -0.0188  0.1816  1.6032
17479WAT     H271722  -0.216   8.254   4.315 -0.6873 -0.1999  0.5831
17479WAT    EPW71723  -0.182   8.193   4.263 -0.2629 -0.4320  1.1301
17480WAT      O71724   0.889   3.971   3.707 -0.0340 -0.2800 -0.2235
17480WAT     H171725   0.803   3.939   3.682 -0.4841 -0.6855  1.7105
17480WAT     H271726   0.922   3.906   3.770  0.0677  1.7404  1.9410
17480WAT    EPW71727   0.882   3.958   3.712 -0.0799 -0.0670  0.3171
17481WAT      O71728   0.725   7.579   3.107  0.0990 -0.5299  0.6583
17481WAT     H171729   0.729   7.526   3.027 -0.3919 -2.9570  2.1292
17481WAT     H271730   0.686   7.521   3.173 -4.8251  2.9526  1.4592
17481WAT    EPW71731   0.720   7.564   3.105 -0.6152 -0.3905  0.9580
17482WAT      O71732   0.715   5.720   1.843 -0.6831  0.1731  0.1139
17482WAT     H171733   0.639   5.778   1.837 -0.9374 -0.1076  0.5542
17482WAT     H271734   0.722   5.680   1.757  0.2505  1.7882 -0.6047
17482WAT    EPW71735   0.706   5.723   1.831 -0.5935  0.3493  0.0772
17483WAT      O71736   2.741   9.701   5.849 -0.4107  0.6010 -0.5885
17483WAT     H171737   2.740   9.777   5.907  1.2226  0.4913 -0.3483
17483WAT     H271738   2.721   9.627   5.906  2.4710  0.3264  0.2112
17483WAT    EPW71739   2.738   9.701   5.864  0.1848  0.5503 -0.4513
17484WAT      O71740   4.080   1.560   8.147 -0.9272  0.2802 -0.4483
17484WAT     H171741   4.070   1.560   8.242 -1.6062  2.0989 -0.4824
17484WAT     H271742   4.098   1.469   8.125 -0.3275 -0.1099  1.4556
17484WAT    EPW71743   4.081   1.548   8.157 -0.9375  0.4686 -0.2017
17485WAT      O71744   4.023   1.468   4.183 -0.4256 -0.2664  0.0578
17485WAT     H171745   4.021   1.543   4.242  3.0741  4.3814 -4.7535
17485WAT     H271746   4.110   1.431   4.194 -0.3547 -0.4078 -0.8500
17485WAT    EPW71747   4.034   1.473   4.192  0.0453  0.3279 -0.6967
17486WAT      O71748   3.824   2.943   1.399  0.5061  0.1379 -0.1524
17486WAT     H171749   3.780   3.009   1.452 -1.0964 -1.3476  0.4404
17486WAT     H271750   3.767   2.932   1.323  0.4676 -0.9552  0.0310
17486WAT    EPW71751   3.811   2.951   1.396  0.2896 -0.2022 -0.0500
17487WAT      O71752   3.095   0.463   7.560  0.2158  0.1961  0.4683
17487WAT     H171753   3.100   0.558   7.568 -1.3142  0.4495 -0.8961
17487WAT     H271754   3.062   0.433   7.645 -1.8832  1.1972  0.0579
17487WAT    EPW71755   3.091   0.471   7.572 -0.2629  0.3616  0.2341
17488WAT      O71756  -2.059   2.886   5.738 -0.2196 -0.4162  0.1633
17488WAT     H171757  -2.123   2.951   5.710  1.6154  0.1549 -3.3970
17488WAT     H271758  -1.985   2.938   5.770  0.0119 -0.8640  0.3622
17488WAT    EPW71759  -2.058   2.901   5.738  0.0529 -0.3999 -0.2801
17489WAT      O71760  -0.583   9.574   6.792 -0.1747 -0.1059  0.0413
17489WAT     H171761  -0.614   9.549   6.705  1.1680 -1.1634 -0.1712
17489WAT     H271762  -0.648   9.637   6.823 -0.9439 -0.0632 -1.5222
17489WAT    EPW71763  -0.596   9.579   6.784 -0.0991 -0.2394 -0.1931
17490WAT      O71764   2.429   2.288   6.566  0.1144 -0.4619 -0.0201
17490WAT     H171765   2.471   2.228   6.627 -0.6460 -1.5823 -0.5571
17490WAT     H271766   2.399   2.231   6.494  0.5277  0.7375 -1.1803
17490WAT    EPW71767   2.431   2.272   6.564  0.0685 -0.4514 -0.2439
17491WAT      O71768   1.764   7.130   0.693 -0.0227  0.2219  0.4009
17491WAT     H171769   1.850   7.089   0.682 -1.2103 -2.2298 -0.4937
17491WAT     H271770   1.711   7.093   0.622 -1.7746  1.8459  0.7796
17491WAT    EPW71771   1.768   7.120   0.682 -0.4104  0.1130  0.3328
17492WAT      O71772   0.195   4.371   5.737 -0.3694 -0.0672 -0.2721
17492WAT     H171773   0.143   4.444   5.703 -0.6850  0.0018  0.3389
17492WAT     H271774   0.246   4.410   5.809  0.1614 -0.2426 -0.5508
17492WAT    EPW71775   0.195   4.386   5.742 -0.3410 -0.0813 -0.2282
17493WAT      O71776  -0.509   5.837   6.524 -0.0526  0.0659 -0.5619
17493WAT     H171777  -0.524   5.838   6.430  0.0688 -0.4523 -0.5907
17493WAT     H271778  -0.598   5.837   6.562 -0.1677 -1.6888 -0.7173
17493WAT    EPW71779  -0.523   5.837   6.517 -0.0518 -0.2339 -0.5863
17494WAT      O71780  -1.545   8.085   1.903 -0.4901  0.0304 -0.0765
17494WAT     H171781  -1.599   8.157   1.936 -1.4171 -1.7617  2.6882
17494WAT     H271782  -1.515   8.039   1.982  3.6868 -0.1828 -1.5099
17494WAT    EPW71783  -1.548   8.089   1.918 -0.0615 -0.2341  0.0991
17495WAT      O71784   7.206   0.455   4.036  0.2998 -0.0949 -0.6101
17495WAT     H171785   7.271   0.482   3.971 -0.2803  0.7791 -0.8427
17495WAT     H271786   7.143   0.403   3.987 -1.2929  2.2921 -1.2621
17495WAT    EPW71787   7.207   0.452   4.021  0.0131  0.3352 -0.7267
17496WAT      O71788   0.576   9.794   4.454  0.3222 -0.6562 -1.0443
17496WAT     H171789   0.521   9.737   4.400  0.2087  0.2359 -1.8993
17496WAT     H271790   0.640   9.831   4.393  0.9217 -0.5148 -0.3440
17496WAT    EPW71791   0.577   9.792   4.439  0.3863 -0.5198 -1.0648
17497WAT      O71792  -6.928   6.408   8.418 -0.4901  0.3742  0.3437
17497WAT     H171793  -7.020   6.389   8.398 -0.2154 -0.8474  0.1204
17497WAT     H271794  -6.886   6.322   8.418  0.6727  0.9234  0.3448
17497WAT    EPW71795  -6.935   6.394   8.415 -0.3002  0.2856  0.3142
17498WAT      O71796   2.136   1.707   6.511 -0.1154  0.1487  0.1597
17498WAT     H171797   2.133   1.767   6.437  2.3766 -0.8806 -0.8852
17498WAT     H271798   2.143   1.764   6.588 -2.3831  1.2157 -0.3491
17498WAT    EPW71799   2.137   1.722   6.512 -0.0858  0.1537 -0.0451
17499WAT      O71800   4.233   1.579   2.476  0.1025 -0.5850  0.2432
17499WAT     H171801   4.221   1.487   2.453  0.6087 -0.3278 -1.0959
17499WAT     H271802   4.230   1.626   2.393 -0.8689  0.7057  0.9560
17499WAT    EPW71803   4.231   1.573   2.462  0.0412 -0.3808  0.1606
17500WAT      O71804   5.680   7.446   0.631 -0.0906 -0.2792 -0.1107
17500WAT     H171805   5.586   7.433   0.623 -0.3295  1.3829 -0.1639
17500WAT     H271806   5.690   7.534   0.665  1.4759  0.3233 -1.9239
17500WAT    EPW71807   5.669   7.456   0.634  0.0846  0.0196 -0.3568
17501WAT      O71808  -1.345  10.329   4.846 -0.0807 -0.3885 -0.0563
17501WAT     H171809  -1.314  10.416   4.873  1.4608 -0.5769 -1.0776
17501WAT     H271810  -1.440  10.334   4.856  0.1395  0.5602  2.3038
17501WAT    EPW71811  -1.354  10.341   4.851  0.1516 -0.2882  0.1202
17502WAT      O71812   3.925   3.223   8.050 -0.4041 -0.1765 -1.1078
17502WAT     H171813   3.880   3.143   8.077 -0.4244 -0.0028 -0.6080
17502WAT     H271814   3.934   3.274   8.131 -0.2114  0.2372 -1.3838
17502WAT    EPW71815   3.920   3.219   8.064 -0.3814 -0.0991 -1.0781
17503WAT      O71816  -2.320  10.255   5.352 -0.4040 -0.2102  0.0337
17503WAT     H171817  -2.268  10.267   5.273 -0.5380 -0.3345 -0.0735
17503WAT     H271818  -2.298  10.330   5.407 -0.3736 -0.0827 -0.1541
17503WAT    EPW71819  -2.310  10.266   5.349 -0.4177 -0.2098 -0.0052
17504WAT      O71820  -2.889   8.862   3.045  0.0226  0.3537  0.2095
17504WAT     H171821  -2.942   8.847   2.967  0.2973  1.4388 -0.2030
17504WAT     H271822  -2.835   8.938   3.023 -1.1775  1.8302  2.0802
17504WAT    EPW71823  -2.889   8.870   3.032 -0.0994  0.6914  0.4020
17505WAT      O71824  -0.947   5.781   5.562 -0.1857 -0.5126 -0.7322
17505WAT     H171825  -0.947   5.724   5.639  0.1447 -2.3727 -2.0367
17505WAT     H271826  -0.979   5.726   5.491  1.3580  0.5178 -2.3338
17505WAT    EPW71827  -0.951   5.766   5.563  0.0615 -0.6220 -1.1156
17506WAT      O71828   5.741   3.618   2.626 -0.1485 -0.0784  0.0683
17506WAT     H171829   5.764   3.608   2.533  0.0792  1.0399 -0.0151
17506WAT     H271830   5.817   3.585   2.674 -0.6407 -1.5447 -0.1081
17506WAT    EPW71831   5.754   3.612   2.620 -0.1833 -0.1243  0.0341
17507WAT      O71832   0.027   2.514   8.609  0.4146  0.0469  0.6905
17507WAT     H171833   0.093   2.507   8.540  0.8719 -0.7178  1.1901
17507WAT     H271834  -0.056   2.514   8.563  0.7566  1.0214  0.0496
17507WAT    EPW71835   0.025   2.513   8.594  0.5200  0.0745  0.6719
17508WAT      O71836  -1.062   0.912   4.494  0.0725 -0.7779  0.2147
17508WAT     H171837  -1.071   0.839   4.555  1.8430 -1.0428  0.2112
17508WAT     H271838  -0.995   0.884   4.432  1.2744  1.0620  0.5864
17508WAT    EPW71839  -1.055   0.899   4.494  0.4646 -0.5701  0.2635
17509WAT      O71840  -5.844   5.605   7.009  1.0575  0.2505 -0.7265
17509WAT     H171841  -5.923   5.554   6.990  0.4845  0.2809  1.2646
17509WAT     H271842  -5.805   5.623   6.924 -0.4864 -0.7269 -1.6840
17509WAT    EPW71843  -5.849   5.601   6.995  0.7782  0.1256 -0.5901
17510WAT      O71844   6.394   4.806   4.035 -0.1460 -0.2657 -0.3727
17510WAT     H171845   6.329   4.742   4.006  0.2525  0.4162 -3.0925
17510WAT     H271846   6.343   4.884   4.057 -0.3675  0.7224 -3.7580
17510WAT    EPW71847   6.379   4.808   4.034 -0.1225 -0.0455 -1.1780
17511WAT      O71848   0.700   4.651   2.359 -0.3540 -0.3652 -0.9276
17511WAT     H171849   0.672   4.568   2.318 -1.0469 -1.6369  1.8643
17511WAT     H271850   0.768   4.685   2.301 -0.8501 -2.3079 -2.7719
17511WAT    EPW71851   0.705   4.644   2.346 -0.5108 -0.7892 -0.8026
17512WAT      O71852   2.722   4.433   0.734  0.7719  0.0152  0.2616
17512WAT     H171853   2.688   4.355   0.691  1.5981  0.3730 -1.1239
17512WAT     H271854   2.674   4.438   0.817  0.7116 -1.9443  0.3915
17512WAT    EPW71855   2.711   4.424   0.739  0.8730 -0.1960  0.0960
17513WAT      O71856   4.064   2.810   0.774 -0.1963 -0.6096 -0.0768
17513WAT     H171857   4.073   2.715   0.774  0.3571 -0.5666 -0.9014
17513WAT     H271858   4.144   2.842   0.816  0.0651 -0.4868 -0.6493
17513WAT    EPW71859   4.076   2.802   0.779 -0.0889 -0.5877 -0.2611
17514WAT      O71860  -6.333   5.512   7.957  0.4203  0.6121  0.4643
17514WAT     H171861  -6.341   5.587   7.898  2.5792  0.9607  0.5487
17514WAT     H271862  -6.290   5.445   7.905  1.2085  0.4875  1.2627
17514WAT    EPW71863  -6.328   5.513   7.943  0.8092  0.6416  0.5808
17515WAT      O71864   2.772   4.725   4.082  0.5675  0.7060  0.5651
17515WAT     H171865   2.726   4.799   4.123  0.5981  0.7380  0.5420
17515WAT     H271866   2.864   4.738   4.106  0.5363  0.5333  0.7770
17515WAT    EPW71867   2.778   4.737   4.091  0.5676  0.6876  0.5901
17516WAT      O71868   2.503   5.688   5.986  0.0634 -0.5320 -0.5340
17516WAT     H171869   2.582   5.677   6.039 -0.1374 -0.4711 -0.2211
17516WAT     H271870   2.529   5.659   5.898  0.4669 -0.3969 -0.4614
17516WAT    EPW71871   2.517   5.682   5.981  0.0901 -0.5062 -0.4830
17517WAT      O71872   2.989  10.175   3.067 -0.1740 -0.0495 -0.6727
17517WAT     H171873   2.997  10.213   3.154  0.3232  1.9613 -1.5631
17517WAT     H271874   2.911  10.216   3.029  1.0480  1.0714 -2.0974
17517WAT    EPW71875   2.980  10.185   3.073  0.0528  0.3633 -0.9780
17518WAT      O71876   5.421   8.937   0.422 -0.1866  0.6934 -0.1167
17518WAT     H171877   5.337   8.982   0.413 -0.5800 -0.3692 -3.1977
17518WAT     H271878   5.399   8.850   0.454 -0.2520  0.4939 -0.6932
17518WAT    EPW71879   5.407   8.931   0.425 -0.2472  0.5269 -0.5991
17519WAT      O71880  -1.666   8.659   3.071 -0.3975 -0.4245  0.0751
17519WAT     H171881  -1.680   8.740   3.120  0.5742 -0.8781  1.1663
17519WAT     H271882  -1.696   8.679   2.982  0.3377  1.3134  0.1681
17519WAT    EPW71883  -1.672   8.672   3.066 -0.1723 -0.2551  0.2313
17520WAT      O71884   0.599   7.412   0.576 -0.0562  0.2742 -0.4010
17520WAT     H171885   0.693   7.390   0.575 -0.4717 -1.6442 -1.1264
17520WAT     H271886   0.596   7.504   0.548  1.5790  0.2372 -0.8282
17520WAT    EPW71887   0.611   7.421   0.572  0.1047  0.0165 -0.5530
17521WAT      O71888  -1.051   7.677   5.813  0.7567  0.1934  0.4600
17521WAT     H171889  -1.099   7.671   5.730  2.1277 -1.4091 -0.3060
17521WAT     H271890  -1.040   7.586   5.840 -1.4091  0.7321  3.5406
17521WAT    EPW71891  -1.056   7.664   5.805  0.6519  0.0532  0.7656
17522WAT      O71892   1.810   5.222   2.872  0.1666  0.9516  0.3831
17522WAT     H171893   1.772   5.232   2.959  1.4196 -0.1138  1.0964
17522WAT     H271894   1.743   5.177   2.821 -0.4834  1.3642  0.8562
17522WAT    EPW71895   1.796   5.217   2.877  0.2462  0.8655  0.5394
17523WAT      O71896   1.765   3.736   2.826 -0.4854 -0.6651 -0.6299
17523WAT     H171897   1.827   3.675   2.865 -1.2307 -2.6068 -2.3054
17523WAT     H271898   1.770   3.814   2.881  2.7088 -1.0753 -0.1444
17523WAT    EPW71899   1.774   3.739   2.838 -0.1624 -0.9753 -0.7870
17524WAT      O71900   6.366   1.759   1.698 -0.4396 -0.0280  0.1910
17524WAT     H171901   6.398   1.763   1.608  1.0400  1.6853  0.7458
17524WAT     H271902   6.271   1.770   1.690 -0.3897 -0.4099 -1.1724
17524WAT    EPW71903   6.358   1.761   1.685 -0.2379  0.1476  0.0844
17525WAT      O71904   1.617   2.395   0.236  0.2976  1.0365 -0.0696
17525WAT     H171905   1.660   2.441   0.164 -1.0968  2.0319 -0.2958
17525WAT     H271906   1.613   2.459   0.307 -1.2923  1.1623 -0.2442
17525WAT    EPW71907   1.622   2.409   0.236 -0.0960  1.1843 -0.1225
17526WAT      O71908   1.587   9.772   2.737 -0.0847  0.1607 -0.1357
17526WAT     H171909   1.511   9.802   2.787  0.3263  1.9293 -0.4877
17526WAT     H271910   1.662   9.805   2.786  0.3811  0.1665 -0.8371
17526WAT    EPW71911   1.587   9.780   2.750  0.0309  0.3948 -0.2747
17527WAT      O71912   3.573   3.232   6.855  0.1993  0.5081  0.1478
17527WAT     H171913   3.558   3.143   6.824  2.0364  0.0581  0.4589
17527WAT     H271914   3.616   3.276   6.781 -0.6954  1.1568 -0.0033
17527WAT    EPW71915   3.577   3.226   6.841  0.3235  0.5343  0.1690
17528WAT      O71916  -1.793   2.926   5.408 -0.2630 -0.1937 -0.2063
17528WAT     H171917  -1.780   2.978   5.487  2.3334 -1.1976  0.1074
17528WAT     H271918  -1.850   2.980   5.353 -2.8498  0.1924  2.6002
17528WAT    EPW71919  -1.799   2.940   5.411 -0.2617 -0.2753  0.2055
17529WAT      O71920  -0.601   7.886   0.734 -0.0900 -0.1757 -0.4459
17529WAT     H171921  -0.593   7.851   0.823 -1.0410 -0.8291 -0.6038
17529WAT     H271922  -0.692   7.913   0.727  0.5846  2.3579 -0.3639
17529WAT    EPW71923  -0.612   7.885   0.745 -0.1265  0.0722 -0.4559
17530WAT      O71924  -0.967   5.851   0.972  0.2738  0.7181  0.4478
17530WAT     H171925  -1.012   5.934   0.990  0.0019  0.5062  0.7665
17530WAT     H271926  -0.899   5.873   0.908 -0.4974  0.9870 -0.2946
17530WAT    EPW71927  -0.964   5.865   0.966  0.1362  0.7257  0.3919
17531WAT      O71928   4.513   8.085   4.466  0.6571  0.4455  0.2374
17531WAT     H171929   4.456   8.155   4.498 -1.4979 -0.5810 -1.1399
17531WAT     H271930   4.470   8.005   4.495  1.5448 -0.3675 -0.6397
17531WAT    EPW71931   4.500   8.084   4.474  0.4900  0.2027 -0.0598
17532WAT      O71932   1.029   1.545   4.249 -0.4681 -0.6204 -0.2294
17532WAT     H171933   0.956   1.505   4.202 -0.8719 -1.0710  0.7368
17532WAT     H271934   0.989   1.616   4.300 -0.5234 -1.7778  1.4235
17532WAT    EPW71935   1.014   1.549   4.250 -0.5287 -0.8324  0.1161
17533WAT      O71936   1.921   5.408   4.940 -0.0244 -0.7738  0.3878
17533WAT     H171937   1.839   5.457   4.930  0.7662  0.5586  0.1223
17533WAT     H271938   1.937   5.408   5.034  0.2850  0.0561  0.3455
17533WAT    EPW71939   1.912   5.415   4.951  0.1207 -0.4885  0.3471
17534WAT      O71940  -2.172   9.235   2.008  0.3216  0.6678  0.1082
17534WAT     H171941  -2.195   9.315   1.961  1.8153 -0.8787 -3.7086
17534WAT     H271942  -2.256   9.191   2.022 -0.2712  1.5275 -0.5915
17534WAT    EPW71943  -2.186   9.240   2.003  0.4405  0.5770 -0.4876
17535WAT      O71944   4.909   9.219   2.317 -0.0900 -0.6377 -0.2334
17535WAT     H171945   4.905   9.298   2.263 -2.0666  1.4832  2.6810
17535WAT     H271946   5.000   9.213   2.344  0.7993 -1.3726 -3.1009
17535WAT    EPW71947   4.920   9.229   2.314 -0.2332 -0.4549 -0.2272
17536WAT      O71948   0.288   6.001   6.211 -0.2172 -0.9930  0.2453
17536WAT     H171949   0.207   6.020   6.164 -0.7925 -0.4761  1.3970
17536WAT     H271950   0.271   6.029   6.301  2.1807  1.9495 -0.0365
17536WAT    EPW71951   0.275   6.008   6.216  0.0232 -0.5367  0.3600
17537WAT      O71952   5.117   4.843   4.798  0.1959  0.2946 -0.2281
17537WAT     H171953   5.122   4.882   4.886 -1.7788 -1.5067  0.7663
17537WAT     H271954   5.205   4.857   4.762  1.2264  0.7449  2.1866
17537WAT    EPW71955   5.130   4.850   4.805  0.0713  0.1163  0.2217
17538WAT      O71956   2.605   7.224   7.266  0.4063 -0.0233  0.6154
17538WAT     H171957   2.649   7.140   7.273 -1.3405 -0.9235  1.5257
17538WAT     H271958   2.566   7.225   7.179  1.1006  0.1978  0.3064
17538WAT    EPW71959   2.605   7.213   7.256  0.2674 -0.1128  0.6948
17539WAT      O71960   0.517   3.800   2.462 -0.5379 -0.6911 -0.0734
17539WAT     H171961   0.580   3.766   2.525 -0.4338 -0.1323  0.1327
17539WAT     H271962   0.431   3.778   2.499 -0.5418  1.4707  1.3686
17539WAT    EPW71963   0.514   3.793   2.475 -0.5247 -0.3322  0.1440
17540WAT      O71964  -3.635   8.578   7.142 -0.7298 -0.1112 -0.0185
17540WAT     H171965  -3.730   8.576   7.139 -0.7336 -2.9849 -1.7763
17540WAT     H271966  -3.612   8.542   7.228 -1.1403  2.2256  1.1396
17540WAT    EPW71967  -3.644   8.573   7.153 -0.7844 -0.1817 -0.0978
17541WAT      O71968  -3.160   1.072   5.471 -0.0648  0.4384  0.7864
17541WAT     H171969  -3.118   1.142   5.422  2.8421 -1.3016  0.5404
17541WAT     H271970  -3.253   1.097   5.474  0.4944  3.2169 -0.9835
17541WAT    EPW71971  -3.167   1.085   5.465  0.3923  0.5754  0.5207
17542WAT      O71972  -3.596   2.747   8.070  0.6333 -0.7919  0.3788
17542WAT     H171973  -3.622   2.820   8.014  1.0138 -1.4378 -0.6739
17542WAT     H271974  -3.568   2.788   8.152  1.1383  0.2662 -0.3044
17542WAT    EPW71975  -3.595   2.762   8.074  0.7501 -0.7375  0.1497
17543WAT      O71976   3.300   2.587   4.041  0.2355  0.0057  0.0539
17543WAT     H171977   3.265   2.502   4.070 -0.7829  0.6270  0.7326
17543WAT     H271978   3.268   2.596   3.951  0.5925 -0.4561 -0.1234
17543WAT    EPW71979   3.291   2.577   4.033  0.1483  0.0268  0.1199
17544WAT      O71980  -6.796   9.919   5.666  0.2566 -0.1955 -0.2965
17544WAT     H171981  -6.889   9.901   5.650 -0.1929  2.7987 -1.8792
17544WAT     H271982  -6.757   9.833   5.681 -2.3518 -1.7860 -1.8016
17544WAT    EPW71983  -6.803   9.906   5.666 -0.1464 -0.0105 -0.7038
17545WAT      O71984   3.383   4.141   0.858 -0.0220 -0.3990 -0.2402
17545WAT     H171985   3.414   4.224   0.819 -0.0625  0.1363  0.8423
17545WAT     H271986   3.324   4.105   0.792 -0.4107  0.6989 -0.5148
17545WAT    EPW71987   3.380   4.147   0.844 -0.0786 -0.1836 -0.1336
17546WAT      O71988  -1.154   5.038   8.816 -0.5350  0.2868 -0.5762
17546WAT     H171989  -1.093   5.071   8.750 -0.4490  1.2864 -0.0175
17546WAT     H271990  -1.157   4.943   8.801  3.3792 -0.3114  1.1494
17546WAT    EPW71991  -1.146   5.029   8.805 -0.0074  0.3397 -0.2747
17547WAT      O71992   3.530   3.066   3.952 -1.0578 -0.3400 -0.7770
17547WAT     H171993   3.517   3.109   3.867  0.0934  1.6528 -0.0262
17547WAT     H271994   3.528   3.138   4.015 -1.9832 -1.7915  0.9202
17547WAT    EPW71995   3.528   3.081   3.949 -1.0282 -0.2686 -0.4541
17548WAT      O71996   3.843   3.712   0.278  0.0654  0.5015 -0.0412
17548WAT     H171997   3.807   3.755   0.200 -3.4096 -1.3545  0.3385
17548WAT     H271998   3.825   3.772   0.349 -1.3587  0.1296 -0.0454
17548WAT    EPW71999   3.836   3.725   0.277 -0.5808  0.2077  0.0084
17549WAT      O72000   6.020   9.462   0.235 -0.4690 -0.3792  0.3067
17549WAT     H172001   5.998   9.466   0.142  2.3731 -0.7660 -0.4664
17549WAT     H272002   5.970   9.534   0.274  0.1054  1.3926 -1.9693
17549WAT    EPW72003   6.011   9.472   0.228 -0.0184 -0.1965 -0.0955
17550WAT      O72004   3.328   7.383   6.227  0.6306 -0.1941  0.6833
17550WAT     H172005   3.271   7.459   6.216 -0.6969 -1.2652 -0.1400
17550WAT     H272006   3.404   7.402   6.171 -0.0056  0.2259 -0.0486
17550WAT    EPW72007   3.331   7.396   6.218  0.3717 -0.2799  0.4783
17551WAT      O72008   2.239   3.456   5.514  0.4441  0.2777  0.1413
17551WAT     H172009   2.153   3.488   5.489  1.6325  1.8711 -2.4213
17551WAT     H272010   2.266   3.399   5.441  1.4821 -0.3479  0.9764
17551WAT    EPW72011   2.231   3.453   5.501  0.7378  0.4054 -0.0863
17552WAT      O72012  -2.145   3.569   1.874 -0.1233  0.6528  0.7161
17552WAT     H172013  -2.076   3.633   1.855 -0.1956  0.0222 -2.2269
17552WAT     H272014  -2.220   3.599   1.822 -1.3307  0.0861  2.0783
17552WAT    EPW72015  -2.145   3.581   1.864 -0.2921  0.4948  0.5075
17553WAT      O72016  -5.114   5.876   8.889 -0.6035  0.3756  0.5506
17553WAT     H172017  -5.087   5.918   8.808 -1.6532  2.3869  1.1889
17553WAT     H272018  -5.172   5.939   8.931 -3.2746 -2.1599  1.0297
17553WAT    EPW72019  -5.118   5.890   8.884 -1.0941  0.3066  0.6976
17554WAT      O72020  -3.691   9.390   1.994 -0.0840  0.5292 -0.9040
17554WAT     H172021  -3.705   9.381   1.900 -3.0435 -0.5818 -0.4614
17554WAT     H272022  -3.777   9.411   2.030  1.0823  1.6110  1.5214
17554WAT    EPW72023  -3.704   9.392   1.986 -0.3206  0.5255 -0.5257
17555WAT      O72024   3.050   5.705   4.057  0.4526 -0.5673  0.5674
17555WAT     H172025   3.001   5.787   4.066  2.6647  1.0222 -0.8061
17555WAT     H272026   2.983   5.637   4.062 -2.2981  1.4757 -3.1289
17555WAT    EPW72027   3.035   5.707   4.059  0.3816 -0.0882 -0.1013
17556WAT      O72028  -1.445   5.504   6.648 -0.5740 -0.1953 -0.2378
17556WAT     H172029  -1.481   5.585   6.684 -1.0242 -0.4456 -0.1196
17556WAT     H272030  -1.361   5.494   6.693 -1.9685 -1.5423  2.3149
17556WAT    EPW72031  -1.438   5.513   6.659 -0.8173 -0.4060  0.1142
17557WAT      O72032  -4.701   2.334   8.446 -0.1599  0.1148  0.1984
17557WAT     H172033  -4.776   2.338   8.504 -0.0181 -0.6020  0.4463
17557WAT     H272034  -4.724   2.390   8.372 -0.0494  1.5942  1.2594
17557WAT    EPW72035  -4.714   2.342   8.444 -0.1266  0.2154  0.3710
17558WAT      O72036   2.252   7.523   5.690 -0.4627 -0.0614 -0.3660
17558WAT     H172037   2.278   7.615   5.693  1.2349 -0.4933  2.4799
17558WAT     H272038   2.259   7.499   5.598  1.2102  2.1010 -0.8853
17558WAT    EPW72039   2.257   7.532   5.678 -0.0181  0.1669 -0.0591
17559WAT      O72040   2.677   6.343   4.679 -0.1877 -0.2494 -0.2199
17559WAT     H172041   2.619   6.407   4.721  0.4464 -0.6848  1.4148
17559WAT     H272042   2.745   6.396   4.637  0.6560  0.2086  1.5961
17559WAT    EPW72043   2.678   6.358   4.679  0.0073 -0.2465  0.2353
17560WAT      O72044   2.252   7.759   2.694 -0.5797  0.0881 -0.3451
17560WAT     H172045   2.183   7.718   2.640 -1.0147  0.0755  0.2131
17560WAT     H272046   2.325   7.772   2.633 -0.5120 -1.3061 -0.5998
17560WAT    EPW72047   2.252   7.755   2.679 -0.6282 -0.0975 -0.3051
17561WAT      O72048   3.601   1.723   0.308 -0.2981 -0.2735  0.7215
17561WAT     H172049   3.693   1.733   0.282  0.2964 -1.3959  2.2542
17561WAT     H272050   3.552   1.760   0.235  1.3333 -0.9061 -0.7824
17561WAT    EPW72051   3.607   1.729   0.295 -0.0045 -0.5050  0.7253
17562WAT      O72052  -1.721   5.331   3.675  0.0916  0.1988 -1.0867
17562WAT     H172053  -1.732   5.339   3.581  1.4225  1.0870 -1.1819
17562WAT     H272054  -1.715   5.236   3.691  1.8686  0.0890 -2.1618
17562WAT    EPW72055  -1.722   5.319   3.665  0.5015  0.3016 -1.2411
17563WAT      O72056   1.224   6.395   7.308  0.2559 -0.3541  0.1545
17563WAT     H172057   1.138   6.394   7.265  0.6683  0.6401 -0.7366
17563WAT     H272058   1.287   6.397   7.236  0.9547  2.3998  0.7083
17563WAT    EPW72059   1.221   6.395   7.293  0.4025  0.1404  0.1099
17564WAT      O72060  -4.663   4.449   5.791  0.1641  0.8474  0.2227
17564WAT     H172061  -4.598   4.513   5.820  1.4240 -0.1118 -0.3614
17564WAT     H272062  -4.611   4.376   5.756 -1.1980 -0.6043  1.0660
17564WAT    EPW72063  -4.648   4.448   5.790  0.1507  0.5293  0.2570
17565WAT      O72064  -2.433   5.179   7.646  0.2350 -1.1325 -0.4462
17565WAT     H172065  -2.384   5.192   7.727  0.2314 -0.6760 -0.5130
17565WAT     H272066  -2.368   5.147   7.584  0.8572  1.0678 -1.0130
17565WAT    EPW72067  -2.418   5.177   7.649  0.3166 -0.7820 -0.5298
17566WAT      O72068  -2.146   6.759   8.474  0.3971 -0.3767 -0.0235
17566WAT     H172069  -2.075   6.725   8.528  1.3850  0.0480 -1.0117
17566WAT     H272070  -2.207   6.686   8.466 -0.0249 -0.3071  2.0181
17566WAT    EPW72071  -2.145   6.745   8.480  0.4717 -0.3116  0.1149
17567WAT      O72072   7.673   3.491   2.123 -0.2998  0.6034  0.0039
17567WAT     H172073   7.722   3.410   2.136 -1.9398 -0.6296 -1.0235
17567WAT     H272074   7.613   3.495   2.197 -1.1893  0.0996 -0.6712
17567WAT    EPW72075   7.671   3.481   2.134 -0.6335  0.3743 -0.2207
17568WAT      O72076  -1.175   7.858   1.571  0.4466 -0.2354  0.2402
17568WAT     H172077  -1.138   7.946   1.565  0.5167 -0.0619  2.4148
17568WAT     H272078  -1.269   7.872   1.564  0.5137 -0.1314 -0.5442
17568WAT    EPW72079  -1.182   7.872   1.569  0.4647 -0.1988  0.4235
17569WAT      O72080  -4.569   8.777   6.494  0.3431  0.4852 -0.2075
17569WAT     H172081  -4.474   8.760   6.495  0.5934  1.5022  2.8380
17569WAT     H272082  -4.581   8.838   6.421  1.7649 -0.6864 -1.5059
17569WAT    EPW72083  -4.558   8.783   6.485  0.5636  0.4649  0.0231
17570WAT      O72084   3.084   3.649   2.896 -0.4095 -0.0379 -0.3082
17570WAT     H172085   3.059   3.738   2.872  0.6492  0.2759 -0.3113
17570WAT     H272086   3.076   3.646   2.991  0.5630  0.4112 -0.1938
17570WAT    EPW72087   3.080   3.660   2.906 -0.1416  0.0627 -0.2935
17571WAT      O72088  -0.310   1.676   8.301 -0.9639  0.5854 -0.1360
17571WAT     H172089  -0.362   1.746   8.263 -1.1211  1.1987  1.1380
17571WAT     H272090  -0.330   1.599   8.248 -3.1622  0.8138  0.2779
17571WAT    EPW72091  -0.320   1.675   8.289 -1.2746  0.6964  0.0868
17572WAT      O72092   2.775   5.580   8.880 -0.3663  0.2169 -0.1528
17572WAT     H172093   2.809   5.636   8.811  2.5875 -0.0391  0.9491
17572WAT     H272094   2.747   5.500   8.835  1.2757  0.1423 -1.1213
17572WAT    EPW72095   2.775   5.577   8.865  0.2398  0.1731 -0.1354
17573WAT      O72096  -1.929   5.231   3.431 -0.4368  1.0804  0.2778
17573WAT     H172097  -1.932   5.299   3.363 -0.5734 -0.5449 -1.4355
17573WAT     H272098  -1.983   5.265   3.502  1.6361  3.9277  0.6914
17573WAT    EPW72099  -1.936   5.245   3.431 -0.1814  1.2417  0.1063
17574WAT      O72100  -2.287   8.254   6.016 -0.0535  0.2247 -0.4442
17574WAT     H172101  -2.321   8.269   6.105 -2.1398  0.1399 -1.1666
17574WAT     H272102  -2.278   8.341   5.979 -2.0267  0.2114 -1.0868
17574WAT    EPW72103  -2.290   8.267   6.023 -0.5890  0.2117 -0.6244
17575WAT      O72104   0.407  10.338   1.541  0.0303  0.3063 -0.3846
17575WAT     H172105   0.349  10.280   1.592  0.0248  0.5122 -0.1519
17575WAT     H272106   0.478  10.359   1.602 -0.0555  0.6772 -0.4136
17575WAT    EPW72107   0.408  10.333   1.556  0.0183  0.3824 -0.3577
17576WAT      O72108  -1.230   4.572   5.854 -0.5030 -0.6014  0.0385
17576WAT     H172109  -1.317   4.532   5.846 -0.3254 -0.8693 -0.6756
17576WAT     H272110  -1.175   4.521   5.794 -0.0436  0.0826 -0.1377
17576WAT    EPW72111  -1.234   4.560   5.845 -0.4190 -0.5465 -0.0792
17577WAT      O72112   0.414   4.840   0.698  0.1154  0.4175  0.1876
17577WAT     H172113   0.439   4.872   0.612  0.0136  0.1553  0.0591
17577WAT     H272114   0.497   4.827   0.744  0.1524  1.0331  0.3060
17577WAT    EPW72115   0.428   4.842   0.693  0.1069  0.4640  0.1862
17578WAT      O72116   7.302   0.209   2.720 -1.1428 -0.6348  0.3462
17578WAT     H172117   7.254   0.250   2.648 -1.0741 -1.0917  0.0333
17578WAT     H272118   7.235   0.179   2.781 -1.2262 -0.6972  0.2239
17578WAT    EPW72119   7.287   0.210   2.719 -1.1446 -0.7033  0.2888
17579WAT      O72120  -1.935   4.266   6.880  0.1502 -0.1071 -0.3121
17579WAT     H172121  -2.001   4.223   6.825 -1.5407 -0.8634  2.0897
17579WAT     H272122  -1.986   4.322   6.939  2.0910  2.9329 -1.3067
17579WAT    EPW72123  -1.951   4.267   6.881  0.1832  0.1941 -0.1268
17580WAT      O72124  -2.114   2.323   2.122 -0.1121  0.0408  0.4897
17580WAT     H172125  -2.110   2.271   2.042 -2.6063  1.2847 -0.5592
17580WAT     H272126  -2.025   2.356   2.133  0.1898  0.3739 -2.1782
17580WAT    EPW72127  -2.102   2.320   2.113 -0.4014  0.2489 -0.0005
17581WAT      O72128   4.795   7.686   2.949 -0.8282  0.5966  1.4102
17581WAT     H172129   4.731   7.758   2.945 -0.2477  1.0850 -0.7131
17581WAT     H272130   4.770   7.629   2.876 -1.7508 -1.8668  3.5231
17581WAT    EPW72131   4.783   7.688   2.939 -0.8733  0.3359  1.4088
17582WAT      O72132   4.679   0.553   3.065 -0.0950 -0.4812  0.3667
17582WAT     H172133   4.616   0.615   3.028  0.7174 -0.8612 -1.8421
17582WAT     H272134   4.629   0.473   3.081 -0.3363 -0.5954 -0.8205
17582WAT    EPW72135   4.664   0.551   3.062 -0.0196 -0.5464 -0.0813
17583WAT      O72136  -3.104   7.344   7.786 -0.0822 -0.7108 -0.3437
17583WAT     H172137  -3.138   7.289   7.715 -0.3643  1.2824 -1.8313
17583WAT     H272138  -3.145   7.308   7.865  0.5279 -3.2235 -1.0815
17583WAT    EPW72139  -3.114   7.332   7.787 -0.0390 -0.7794 -0.6371
17584WAT      O72140   5.318   5.711   0.228 -0.2717 -0.3319 -0.2299
17584WAT     H172141   5.226   5.699   0.204  0.4126  0.0672 -3.7174
17584WAT     H272142   5.366   5.682   0.150  2.3196  3.6601 -0.3919
17584WAT    EPW72143   5.312   5.706   0.214  0.1602  0.2472 -0.7112
17585WAT      O72144   6.501   9.516   1.317 -0.7676 -0.1162  0.4351
17585WAT     H172145   6.410   9.514   1.347 -1.5552  1.5245 -1.5817
17585WAT     H272146   6.498   9.484   1.227  0.4062  1.1747 -0.1102
17585WAT    EPW72147   6.489   9.512   1.309 -0.7167  0.2704  0.0972
17586WAT      O72148   6.740   0.516   4.347  0.4652 -0.1805 -0.7583
17586WAT     H172149   6.811   0.493   4.408  0.2761  2.4358  0.6024
17586WAT     H272150   6.754   0.609   4.328 -2.1433  0.2199 -1.0620
17586WAT    EPW72151   6.751   0.525   4.353  0.0961  0.2174 -0.6192
17587WAT      O72152  -2.498   6.879   7.093 -0.0898 -0.9258 -0.1422
17587WAT     H172153  -2.503   6.797   7.143 -0.8126 -1.7577 -1.5157
17587WAT     H272154  -2.526   6.947   7.155 -1.6219 -2.0058  0.4083
17587WAT    EPW72155  -2.502   6.877   7.108 -0.3873 -1.1780 -0.2508
17588WAT      O72156   2.873   8.246   4.166  0.6995 -0.0214  0.1382
17588WAT     H172157   2.966   8.225   4.159  0.9747  1.0686  0.3833
17588WAT     H272158   2.833   8.168   4.203  1.7721  0.0709  1.5446
17588WAT    EPW72159   2.880   8.233   4.170  0.8774  0.1349  0.3557
17589WAT      O72160   0.497   9.448   8.059  0.5479 -0.2631 -0.2911
17589WAT     H172161   0.468   9.515   7.997  2.0186 -0.2717 -1.0398
17589WAT     H272162   0.588   9.472   8.079  0.9095 -1.6882 -0.0998
17589WAT    EPW72163   0.506   9.460   8.054  0.7896 -0.4520 -0.3648
17590WAT      O72164   0.489   4.297   4.450 -0.3364  0.3592 -0.6160
17590WAT     H172165   0.538   4.344   4.518 -1.9865  1.8191 -0.3811
17590WAT     H272166   0.442   4.229   4.498 -0.9720  0.9610 -0.3714
17590WAT    EPW72167   0.490   4.294   4.466 -0.6379  0.6311 -0.5527
17591WAT      O72168  -6.532   8.294   7.593  0.2343  0.4241  0.3518
17591WAT     H172169  -6.452   8.251   7.565  0.3557  1.1175 -0.4138
17591WAT     H272170  -6.546   8.364   7.528 -2.0101 -0.8651 -0.6725
17591WAT    EPW72171  -6.524   8.298   7.581 -0.0458  0.3457  0.1156
17592WAT      O72172   3.750   0.872   2.767  0.7907  0.0650 -0.2584
17592WAT     H172173   3.743   0.777   2.755  0.6089  0.0895 -0.3498
17592WAT     H272174   3.681   0.893   2.829  1.6472 -0.0451  0.7694
17592WAT    EPW72175   3.740   0.862   2.774  0.8798  0.0538 -0.1349
17593WAT      O72176   4.231   4.535   3.028 -0.3168  0.6202 -0.0335
17593WAT     H172177   4.315   4.558   3.067  0.3215 -0.1363 -0.9102
17593WAT     H272178   4.253   4.503   2.941 -1.3690 -0.9546  0.2345
17593WAT    EPW72179   4.245   4.534   3.022 -0.3715  0.3128 -0.1137
17594WAT      O72180   0.337   6.827   4.031 -0.6277 -0.1195 -0.6704
17594WAT     H172181   0.298   6.748   4.067  1.0806 -0.5399  0.3369
17594WAT     H272182   0.424   6.801   4.001 -0.1429  1.2988 -0.6065
17594WAT    EPW72183   0.343   6.813   4.031 -0.3385  0.0119 -0.5291
17595WAT      O72184   3.255   6.858   6.857  0.0489  0.3342  0.0798
17595WAT     H172185   3.189   6.906   6.808  1.1183  0.4484 -1.3114
17595WAT     H272186   3.309   6.925   6.898  0.2354  0.2784 -0.0717
17595WAT    EPW72187   3.253   6.873   6.856  0.2146  0.3419 -0.1237
17596WAT      O72188  -1.481   4.162   1.664  0.2400  0.6602 -0.1121
17596WAT     H172189  -1.525   4.110   1.732 -0.0081  0.7398 -0.2098
17596WAT     H272190  -1.510   4.252   1.681  0.0601  0.6587 -0.4152
17596WAT    EPW72191  -1.491   4.167   1.676  0.1835  0.6707 -0.1649
17597WAT      O72192   1.964   8.437   7.617  0.1178 -0.4383  0.0811
17597WAT     H172193   2.012   8.416   7.697  0.4027  0.3274  0.1158
17597WAT     H272194   2.022   8.496   7.569 -0.7694  0.4568  0.0878
17597WAT    EPW72195   1.978   8.442   7.621  0.0384 -0.2193  0.0865
17598WAT      O72196   4.065   5.460   2.839 -0.0789  0.3612  0.1643
17598WAT     H172197   3.980   5.467   2.882 -2.0618 -0.5246 -3.3078
17598WAT     H272198   4.079   5.367   2.826  0.5943  0.5826 -0.8291
17598WAT    EPW72199   4.056   5.449   2.843 -0.2518  0.2735 -0.4246
17599WAT      O72200  -3.972   9.552   5.500 -0.8502 -0.0870 -0.4470
17599WAT     H172201  -3.895   9.568   5.446  0.7398  0.1005  1.7412
17599WAT     H272202  -4.046   9.572   5.443  0.6814 -0.7020 -2.7628
17599WAT    EPW72203  -3.972   9.557   5.485 -0.4385 -0.1431 -0.4637
17600WAT      O72204   2.185   1.793   7.773  0.1019 -0.1308  0.4480
17600WAT     H172205   2.169   1.732   7.701 -0.6918  2.1073 -1.4135
17600WAT     H272206   2.255   1.850   7.740 -1.2008  1.7792  0.8537
17600WAT    EPW72207   2.192   1.793   7.759 -0.1746  0.4163  0.2561
17601WAT      O72208  -5.136   8.946   5.433  0.2597  0.1712 -0.0795
17601WAT     H172209  -5.077   8.893   5.486  0.7843  0.7415 -0.0754
17601WAT     H272210  -5.189   8.994   5.496  2.8333  3.0829  0.1204
17601WAT    EPW72211  -5.135   8.946   5.448  0.6683  0.6309 -0.0529
17602WAT      O72212   1.925   1.448   5.214  0.3237 -0.2956 -0.6597
17602WAT     H172213   1.936   1.537   5.250  0.9008  0.3999 -2.4590
17602WAT     H272214   1.831   1.432   5.218  0.3321 -0.1192  0.8103
17602WAT    EPW72215   1.914   1.458   5.219  0.4009 -0.1806 -0.7033
17603WAT      O72216   1.801   8.973   4.731 -0.6196  0.5480  0.4144
17603WAT     H172217   1.863   8.917   4.778 -0.7798 -0.8974 -0.9960
17603WAT     H272218   1.820   9.061   4.762  0.3030 -0.1583  2.0115
17603WAT    EPW72219   1.811   8.977   4.741 -0.5191  0.2642  0.4392
17604WAT      O72220   0.717   7.646   6.127 -0.0488  0.5248 -0.0091
17604WAT     H172221   0.667   7.727   6.133 -0.2538  0.3546  0.6188
17604WAT     H272222   0.741   7.626   6.218 -3.7819 -2.4993  0.5529
17604WAT    EPW72223   0.714   7.654   6.140 -0.5682  0.1035  0.1478
17605WAT      O72224  -0.804   6.506   5.974  0.0249 -0.0729  0.8290
17605WAT     H172225  -0.861   6.457   5.914 -0.1290 -1.0842  1.7672
17605WAT     H272226  -0.843   6.493   6.060  2.7727 -2.7038  1.8878
17605WAT    EPW72227  -0.817   6.498   5.977  0.3670 -0.5531  1.0924
17606WAT      O72228   0.254   3.229   2.935 -0.7244 -0.2329 -0.9297
17606WAT     H172229   0.169   3.252   2.897 -1.2861 -1.2645 -0.3293
17606WAT     H272230   0.233   3.173   3.010  0.3240  1.7832  1.0177
17606WAT    EPW72231   0.240   3.225   2.940 -0.6602 -0.1031 -0.5937
17607WAT      O72232  -0.406   2.619   7.061  0.5344  0.3392  0.0121
17607WAT     H172233  -0.416   2.536   7.013 -1.3586  0.7017 -0.2862
17607WAT     H272234  -0.369   2.679   6.997  2.1647 -0.3211  0.3015
17607WAT    EPW72235  -0.403   2.616   7.046  0.4997  0.3000  0.0110
17608WAT      O72236  -2.897  10.258   7.644 -0.1629  0.1169 -0.8283
17608WAT     H172237  -2.943  10.184   7.605 -1.3274  0.6032 -0.4011
17608WAT     H272238  -2.942  10.335   7.609 -0.0466  0.5904  0.0541
17608WAT    EPW72239  -2.909  10.258   7.634 -0.3012  0.2432 -0.6557
17609WAT      O72240   3.849   6.627   6.948  0.2597 -0.0412  0.0632
17609WAT     H172241   3.870   6.544   6.992 -0.8780 -0.3206  0.1071
17609WAT     H272242   3.934   6.667   6.931  0.7563  0.2203  2.7719
17609WAT    EPW72243   3.863   6.621   6.952  0.1751 -0.0436  0.4263
17610WAT      O72244   3.623   1.473   8.279  0.1560  0.8837 -0.3002
17610WAT     H172245   3.668   1.479   8.195  0.7053  2.3466  0.0722
17610WAT     H272246   3.669   1.535   8.336  0.4125 -0.7481  1.3784
17610WAT    EPW72247   3.635   1.482   8.276  0.2623  0.8614 -0.0291
17611WAT      O72248   4.867   4.322   1.693 -0.4692  0.1680 -0.0622
17611WAT     H172249   4.934   4.270   1.738  0.5120 -0.6550 -2.3444
17611WAT     H272250   4.805   4.258   1.658  0.9206  0.3375 -3.1725
17611WAT    EPW72251   4.868   4.307   1.695 -0.1564  0.0820 -0.7734
17612WAT      O72252  -1.169   2.382   8.472 -0.1801 -0.0051 -0.6193
17612WAT     H172253  -1.122   2.465   8.467 -1.7220  1.0364  1.0908
17612WAT     H272254  -1.242   2.392   8.411 -1.1010  0.4311  0.5276
17612WAT    EPW72255  -1.173   2.394   8.463 -0.5050  0.1899 -0.2427
17613WAT      O72256   2.257   0.368   3.555 -0.0604 -0.1953  0.5267
17613WAT     H172257   2.248   0.455   3.517 -1.8917 -0.3412  0.5616
17613WAT     H272258   2.204   0.311   3.498  0.0638 -1.0548  1.2458
17613WAT    EPW72259   2.249   0.372   3.542 -0.2855 -0.3279  0.6262
17614WAT      O72260   4.216   8.104   3.271  0.4552  0.3248 -0.5481
17614WAT     H172261   4.227   8.014   3.239 -0.8011  0.7591 -2.3972
17614WAT     H272262   4.157   8.095   3.346 -1.7752 -0.2593 -2.2397
17614WAT    EPW72263   4.209   8.091   3.277 -0.0045  0.3052 -1.0152
17615WAT      O72264  -0.650   5.231   7.935  0.1109 -0.6853 -0.3058
17615WAT     H172265  -0.569   5.222   7.985  0.7071 -2.2779 -1.4822
17615WAT     H272266  -0.700   5.297   7.983  0.4728 -2.3620  2.6156
17615WAT    EPW72267  -0.646   5.238   7.948  0.2373 -1.1165 -0.0758
17616WAT      O72268   0.964  10.084   7.042 -0.2233 -0.0635  0.2533
17616WAT     H172269   0.934   9.994   7.051 -0.1732 -0.4466 -2.6927
17616WAT     H272270   0.886  10.134   7.019  0.2811 -0.0270 -1.5629
17616WAT    EPW72271   0.950  10.079   7.040 -0.1501 -0.1092 -0.3750
17617WAT      O72272   3.554   2.113   8.812  0.2922 -0.6203 -0.0278
17617WAT     H172273   3.611   2.040   8.791  0.6449 -0.4628  0.3724
17617WAT     H272274   3.601   2.191   8.783  0.5928 -0.4357  0.9231
17617WAT    EPW72275   3.567   2.114   8.805  0.3784 -0.5751  0.1502
17618WAT      O72276   5.110   0.092   3.404  0.0959 -0.6524  0.6490
17618WAT     H172277   5.021   0.081   3.438 -0.7789  0.8056 -1.0017
17618WAT     H272278   5.114   0.184   3.378  0.8898 -1.4670 -2.4938
17618WAT    EPW72279   5.099   0.103   3.405  0.0851 -0.5675  0.0167
17619WAT      O72280   3.042   0.975   2.820 -0.3471 -0.5462  0.2659
17619WAT     H172281   3.018   1.021   2.901 -1.3145  1.9715 -1.3179
17619WAT     H272282   3.004   0.888   2.830 -1.2094 -0.0086  2.1457
17619WAT    EPW72283   3.034   0.970   2.832 -0.5883 -0.1432  0.3049
17620WAT      O72284   1.078   5.443   5.458  0.1428 -0.0144 -0.0450
17620WAT     H172285   1.115   5.385   5.392 -0.1963 -1.3591  0.9102
17620WAT     H272286   1.131   5.523   5.452 -0.2538  0.1244 -2.2997
17620WAT    EPW72287   1.090   5.446   5.449  0.0458 -0.1733 -0.2165
17621WAT      O72288   1.449   5.402   5.396 -0.0592  0.3823 -0.6852
17621WAT     H172289   1.372   5.349   5.374 -1.1856  1.5544  0.2208
17621WAT     H272290   1.470   5.377   5.486  0.2722  0.4741 -0.7371
17621WAT    EPW72291   1.441   5.392   5.405 -0.1641  0.5488 -0.5724
17622WAT      O72292  -0.910   9.504   8.563 -0.8443  0.1343 -0.5216
17622WAT     H172293  -0.934   9.553   8.642 -0.4503 -0.2326 -0.1619
17622WAT     H272294  -0.857   9.431   8.596  1.8135  1.5468 -1.3424
17622WAT    EPW72295  -0.906   9.500   8.578 -0.4418  0.2723 -0.5822
17623WAT      O72296  -1.332   5.862   7.307  0.1955 -0.1560 -0.2134
17623WAT     H172297  -1.330   5.933   7.372 -0.4923  0.0630 -0.4176
17623WAT     H272298  -1.368   5.787   7.355 -0.4192  0.0377 -0.3647
17623WAT    EPW72299  -1.337   5.861   7.322  0.0237 -0.1016 -0.2604
17624WAT      O72300   7.458   1.332   4.306 -0.0652 -0.4503 -0.3461
17624WAT     H172301   7.413   1.253   4.276 -2.3061  0.2346  0.9932
17624WAT     H272302   7.440   1.336   4.400 -0.9341  2.1654 -0.5255
17624WAT    EPW72303   7.450   1.322   4.314 -0.4754 -0.0150 -0.1931
17625WAT      O72304   6.456   2.017   0.561 -0.5632 -0.6240 -0.9494
17625WAT     H172305   6.551   2.025   0.569 -0.5708 -1.7132  1.0155
17625WAT     H272306   6.439   1.923   0.572 -1.9913 -0.1835  1.3667
17625WAT    EPW72307   6.466   2.005   0.564 -0.7524 -0.7097 -0.3847
17626WAT      O72308   7.097   1.621   2.777  0.5317 -0.0778 -0.3654
17626WAT     H172309   7.168   1.680   2.755 -0.6997  1.6860  0.2040
17626WAT     H272310   7.068   1.649   2.864  0.2033 -1.8309  0.1352
17626WAT    EPW72311   7.103   1.632   2.786  0.3262 -0.0764 -0.2244
17627WAT      O72312  -2.438   2.190   3.909 -0.4201  0.0671  0.1124
17627WAT     H172313  -2.455   2.232   3.993 -0.4620  0.5250 -0.1225
17627WAT     H272314  -2.393   2.257   3.857 -1.6705  0.2875 -0.7372
17627WAT    EPW72315  -2.434   2.205   3.913 -0.5904  0.1566 -0.0306
17628WAT      O72316   6.857   1.344   0.395 -0.2399 -0.0655 -0.1074
17628WAT     H172317   6.914   1.303   0.459  0.5105  0.9090 -0.1277
17628WAT     H272318   6.768   1.327   0.427  0.1259  1.0433  1.6284
17628WAT    EPW72319   6.853   1.337   0.407 -0.0927  0.2093  0.1189
17629WAT      O72320  -0.389   7.010   1.261 -0.4975 -0.3754  0.0277
17629WAT     H172321  -0.310   7.050   1.298 -0.4033 -2.2905  2.1439
17629WAT     H272322  -0.358   6.969   1.179  0.2067  0.6555 -0.2409
17629WAT    EPW72323  -0.374   7.010   1.255 -0.3922 -0.4921  0.2714
17630WAT      O72324   3.360   6.149   0.639 -0.2732 -0.1799  0.2634
17630WAT     H172325   3.442   6.174   0.681 -0.0263 -1.6366  0.7033
17630WAT     H272326   3.293   6.166   0.705 -0.1332 -0.4425  0.4767
17630WAT    EPW72327   3.362   6.154   0.653 -0.2222 -0.4067  0.3495
17631WAT      O72328   4.582   6.413   4.014  0.0078 -0.0811  0.0285
17631WAT     H172329   4.540   6.339   3.969  1.2378 -1.9691  1.7634
17631WAT     H272330   4.676   6.395   4.004  0.4682  2.6958 -1.6699
17631WAT    EPW72331   4.589   6.401   4.007  0.2308  0.0360  0.0334
17632WAT      O72332  -0.159   7.362   6.360  0.1506 -1.0954 -0.8847
17632WAT     H172333  -0.140   7.446   6.320  1.4271 -0.9265 -0.0090
17632WAT     H272334  -0.254   7.356   6.361  0.0541  0.1219 -1.3716
17632WAT    EPW72335  -0.169   7.372   6.355  0.3063 -0.9127 -0.8335
17633WAT      O72336   4.275   3.957   3.299  0.1279  0.9177  0.6602
17633WAT     H172337   4.368   3.937   3.302  0.2208  1.4141  1.1476
17633WAT     H272338   4.267   4.044   3.337 -0.7143  0.2138  2.2216
17633WAT    EPW72339   4.286   3.966   3.304  0.0288  0.8905  0.9303
17634WAT      O72340   1.403   0.867   1.327 -0.6065  0.6867 -0.0590
17634WAT     H172341   1.468   0.810   1.285 -2.2732 -3.2208  2.1353
17634WAT     H272342   1.344   0.892   1.255  1.5323  1.8719 -1.5265
17634WAT    EPW72343   1.404   0.863   1.312 -0.5442  0.3276  0.0368
17635WAT      O72344  -3.968   5.304   7.392  0.0934  0.4596 -0.5541
17635WAT     H172345  -3.901   5.310   7.323  0.8611  1.0118  0.2078
17635WAT     H272346  -4.005   5.216   7.382 -0.3159  0.7768 -2.1046
17635WAT    EPW72347  -3.964   5.293   7.381  0.1407  0.5741 -0.6580
17636WAT      O72348  -0.295   3.298   5.618 -0.7177 -0.1116  0.5456
17636WAT     H172349  -0.349   3.304   5.539 -1.1852  0.5143  0.9081
17636WAT     H272350  -0.257   3.385   5.628  0.4312 -0.5575  0.2605
17636WAT    EPW72351  -0.297   3.310   5.609 -0.6278 -0.0879  0.5558
17637WAT      O72352   1.072   0.022   8.443  0.2014 -0.1739  0.6796
17637WAT     H172353   1.059   0.086   8.513  2.5781  2.3694 -0.9847
17637WAT     H272354   1.146  -0.031   8.471  0.6307  0.3079  0.4702
17637WAT    EPW72355   1.080   0.024   8.456  0.5716  0.2251  0.4320
17638WAT      O72356   2.173  10.306   4.517  0.1785 -0.6735  0.5200
17638WAT     H172357   2.196  10.231   4.572 -0.0880 -2.2094 -1.3742
17638WAT     H272358   2.078  10.302   4.510  0.3348 -1.9634 -1.9098
17638WAT    EPW72359   2.164  10.296   4.524  0.1639 -1.0462 -0.0503
17639WAT      O72360  -1.482   9.100   1.816  0.4458 -0.2833 -0.3881
17639WAT     H172361  -1.517   9.011   1.817  2.4160 -1.1325  1.3563
17639WAT     H272362  -1.387   9.089   1.815  0.7784  1.7320  1.0663
17639WAT    EPW72363  -1.474   9.087   1.816  0.7495 -0.1297  0.0338
17640WAT      O72364   2.574   6.094   1.302  0.1557  0.6277 -0.6950
17640WAT     H172365   2.624   6.157   1.250  1.8639  1.0908  1.3660
17640WAT     H272366   2.502   6.067   1.245  0.2491  3.2833 -2.2088
17640WAT    EPW72367   2.571   6.099   1.288  0.3933  1.0390 -0.6228
17641WAT      O72368  -1.224   8.788   4.511 -0.4466 -0.3652 -0.6329
17641WAT     H172369  -1.258   8.875   4.532 -2.0858 -0.8583 -1.1083
17641WAT     H272370  -1.129   8.799   4.512 -0.5493  2.1533 -3.4603
17641WAT    EPW72371  -1.216   8.801   4.513 -0.6763 -0.0982 -1.0684
17642WAT      O72372   1.118   5.754   6.956 -0.5142 -0.1061  0.3349
17642WAT     H172373   1.092   5.819   7.022  1.1122 -0.4160  1.3586
17642WAT     H272374   1.214   5.758   6.956 -0.4655 -0.3405 -1.8251
17642WAT    EPW72375   1.127   5.763   6.965 -0.2933 -0.1781  0.1850
17643WAT      O72376   1.596   2.395   7.482  0.0519 -0.1226 -0.9849
17643WAT     H172377   1.534   2.346   7.428 -1.8171  2.0965 -0.9926
17643WAT     H272378   1.558   2.392   7.570 -0.3625  1.6428 -1.0755
17643WAT    EPW72379   1.583   2.388   7.487 -0.2493  0.4029 -0.9980
17644WAT      O72380  -7.578   9.537   8.091 -0.0817 -0.4672 -0.2622
17644WAT     H172381  -7.595   9.463   8.033 -0.1605  0.2630 -1.2048
17644WAT     H272382  -7.663   9.558   8.128 -0.4993  0.4724 -1.6499
17644WAT    EPW72383  -7.591   9.530   8.088 -0.1471 -0.2470 -0.5693
17645WAT      O72384  -4.282   8.512   6.945  0.0021  0.3138 -0.2887
17645WAT     H172385  -4.190   8.496   6.923  0.2813 -0.0741  1.1042
17645WAT     H272386  -4.281   8.595   6.992 -0.4266  0.5124 -0.6152
17645WAT    EPW72387  -4.270   8.521   6.948 -0.0176  0.2885 -0.1481
17646WAT      O72388   0.726   1.457   4.475 -0.4567 -0.5804  0.2359
17646WAT     H172389   0.759   1.459   4.385 -2.1729 -1.4459 -0.4441
17646WAT     H272390   0.663   1.386   4.476 -3.1039  1.6102  1.1914
17646WAT    EPW72391   0.722   1.448   4.463 -1.0322 -0.4056  0.2723
17647WAT      O72392   0.023   5.449   4.667 -0.3475  0.7182  0.3779
17647WAT     H172393   0.048   5.374   4.721 -0.1096 -0.7739 -1.6869
17647WAT     H272394   0.096   5.510   4.676  0.1940  0.0171  0.8746
17647WAT    EPW72395   0.036   5.447   4.675 -0.2447  0.4289  0.1712
17648WAT      O72396   4.263   3.911   4.949  0.4371 -0.8084 -0.1299
17648WAT     H172397   4.257   3.940   5.040  1.2776 -0.3175 -0.2257
17648WAT     H272398   4.187   3.951   4.906  0.3807 -0.5377  0.2175
17648WAT    EPW72399   4.252   3.920   4.956  0.5405 -0.7079 -0.0966
17649WAT      O72400   4.146   1.676   7.133 -0.4654 -0.6051 -0.4763
17649WAT     H172401   4.151   1.770   7.151 -1.5199 -0.6791  0.2570
17649WAT     H272402   4.111   1.671   7.044 -0.9808 -0.3030 -0.2947
17649WAT    EPW72403   4.142   1.688   7.124 -0.6726 -0.5751 -0.3557
17650WAT      O72404   5.899   0.800   4.730  0.5254  0.1377  0.4842
17650WAT     H172405   5.957   0.870   4.700 -2.3377  1.5267 -2.4869
17650WAT     H272406   5.826   0.846   4.771 -0.2505 -1.2965  0.7696
17650WAT    EPW72407   5.897   0.816   4.731  0.0455  0.1317  0.1299
17651WAT      O72408   1.806   6.919   5.804  0.1714 -0.3230  0.2339
17651WAT     H172409   1.768   7.003   5.778  1.3653  0.2452  0.2889
17651WAT     H272410   1.900   6.931   5.793  0.2981 -2.0172 -0.8218
17651WAT    EPW72411   1.813   6.932   5.799  0.3456 -0.4714  0.1020
17652WAT      O72412  -1.828   4.394   5.822  0.0193  0.0621 -0.2814
17652WAT     H172413  -1.902   4.334   5.826  1.5647 -2.1268 -2.1351
17652WAT     H272414  -1.751   4.338   5.831  1.5686  1.6353 -2.5568
17652WAT    EPW72415  -1.827   4.379   5.824  0.4275 -0.0191 -0.8259
17653WAT      O72416   0.865   5.912   7.024  0.2648  0.0362 -0.2195
17653WAT     H172417   0.835   5.888   6.936 -0.9252  1.0363 -0.0981
17653WAT     H272418   0.920   5.989   7.011  1.4819 -0.7997 -0.2466
17653WAT    EPW72419   0.868   5.919   7.011  0.2684  0.0579 -0.2069
17654WAT      O72420  -0.000   6.887   5.139 -0.2310  0.1031  0.7549
17654WAT     H172421   0.063   6.822   5.110 -1.0531  0.0674 -1.0821
17654WAT     H272422  -0.072   6.835   5.175 -0.9971 -0.0853 -0.9342
17654WAT    EPW72423  -0.001   6.871   5.140 -0.4405  0.0734  0.2899
17655WAT      O72424   3.834   9.117   4.095 -0.4064 -0.2320  0.2438
17655WAT     H172425   3.796   9.109   4.183  2.3652  0.8616  1.6513
17655WAT     H272426   3.777   9.180   4.051 -1.5629 -0.3852  1.4447
17655WAT    EPW72427   3.821   9.125   4.101 -0.1934 -0.1078  0.5877
17656WAT      O72428  -3.139   2.092   4.436  0.3880  0.3510  0.7132
17656WAT     H172429  -3.139   2.099   4.531 -0.8892  0.3270  0.7287
17656WAT     H272430  -3.151   1.999   4.418  2.6661  0.0350  0.4943
17656WAT    EPW72431  -3.141   2.081   4.446  0.5200  0.3062  0.6864
17657WAT      O72432  -6.076   3.864   7.988 -0.5988  0.0846  0.4689
17657WAT     H172433  -6.115   3.778   8.001 -2.1797  0.7352  0.1772
17657WAT     H272434  -5.991   3.859   8.033 -0.5176 -1.7095  0.1695
17657WAT    EPW72435  -6.070   3.852   7.996 -0.7966 -0.0663  0.3912
17658WAT      O72436  -5.428   7.304   8.464  0.6215 -0.6124 -0.0362
17658WAT     H172437  -5.498   7.239   8.460  1.0196 -1.2527  1.9096
17658WAT     H272438  -5.350   7.253   8.488  1.2305  0.3879  0.1665
17658WAT    EPW72439  -5.427   7.288   8.467  0.7544 -0.5651  0.2470
17659WAT      O72440  -2.937   6.824   6.976  0.6397  0.3476  0.1013
17659WAT     H172441  -2.862   6.868   6.937  0.3675 -1.2050 -2.3818
17659WAT     H272442  -3.006   6.890   6.976  1.8354  1.7267  2.2218
17659WAT    EPW72443  -2.936   6.839   6.971  0.7615  0.3247  0.0536
17660WAT      O72444   3.021   8.660   2.265  0.1133 -0.2234  0.2272
17660WAT     H172445   2.961   8.726   2.230  1.9405  0.7619 -1.2880
17660WAT     H272446   2.969   8.610   2.327 -1.9318  1.2896 -0.1635
17660WAT    EPW72447   3.006   8.662   2.269  0.0846  0.1059 -0.0242
17661WAT      O72448   1.915   7.737   0.265  0.3565  0.8249 -0.5113
17661WAT     H172449   1.885   7.719   0.176  3.0123  0.6872 -1.4630
17661WAT     H272450   1.928   7.651   0.303 -0.1339  0.8841 -0.1972
17661WAT    EPW72451   1.913   7.723   0.258  0.6421  0.8144 -0.5954
17662WAT      O72452   1.160   3.590   7.136  0.0075  0.2166 -0.0252
17662WAT     H172453   1.212   3.520   7.096  1.6549  0.6028  1.3329
17662WAT     H272454   1.074   3.582   7.095  1.1746 -0.2856 -2.5828
17662WAT    EPW72455   1.155   3.580   7.125  0.3787  0.2012 -0.1836
17663WAT      O72456   2.246   2.401   8.812  0.6517  0.1541  1.1816
17663WAT     H172457   2.300   2.342   8.865 -0.5489 -0.3480  1.8917
17663WAT     H272458   2.244   2.483   8.862  2.8679  1.0892 -0.1282
17663WAT    EPW72459   2.253   2.404   8.826  0.7857  0.2112  1.1024
17664WAT      O72460  -0.636   1.362   8.176  0.5652 -0.4203  0.0701
17664WAT     H172461  -0.628   1.396   8.087 -0.2772 -1.6274 -0.4887
17664WAT     H272462  -0.547   1.365   8.211  0.6627  1.5746 -0.2121
17664WAT    EPW72463  -0.623   1.367   8.169  0.4670 -0.3164 -0.0405
17665WAT      O72464  -2.217   4.326   3.157  0.0836  0.1477 -0.3825
17665WAT     H172465  -2.165   4.304   3.234  1.5476  1.2613 -1.0094
17665WAT     H272466  -2.215   4.246   3.104  2.6066  0.6307 -1.1482
17665WAT    EPW72467  -2.210   4.312   3.160  0.6095  0.3581 -0.5662
17666WAT      O72468  -2.273   7.814   0.884  0.9691 -0.0882 -0.5926
17666WAT     H172469  -2.214   7.753   0.929  1.6607  0.6034 -0.5360
17666WAT     H272470  -2.317   7.760   0.818 -0.1987 -1.1691  0.9923
17666WAT    EPW72471  -2.271   7.799   0.882  0.9062 -0.1397 -0.3761
17667WAT      O72472   8.081   3.617   0.217  0.3068  0.3672 -0.8647
17667WAT     H172473   8.018   3.545   0.210  1.0981 -0.3598 -0.5756
17667WAT     H272474   8.029   3.690   0.251  0.2706 -1.1629  2.8402
17667WAT    EPW72475   8.066   3.617   0.220  0.4063  0.0695 -0.3379
17668WAT      O72476  -0.292   1.880   3.107 -0.2514  0.4313  0.5399
17668WAT     H172477  -0.249   1.949   3.157  1.7326 -1.2499  1.2921
17668WAT     H272478  -0.353   1.840   3.169  0.9202 -0.4981  1.1399
17668WAT    EPW72479  -0.295   1.883   3.122  0.1648  0.0870  0.7182
17669WAT      O72480   6.297   0.905   1.995  0.3230 -0.2111  0.3663
17669WAT     H172481   6.278   0.856   2.075 -1.6279  1.8716  1.2813
17669WAT     H272482   6.238   0.980   1.998 -0.1394 -0.2492 -3.2682
17669WAT    EPW72483   6.287   0.908   2.006  0.0048  0.0586  0.0076
17670WAT      O72484  -0.801   4.804   1.062  0.3997 -0.8552  0.3721
17670WAT     H172485  -0.767   4.861   0.993 -0.0766 -0.3073  0.5862
17670WAT     H272486  -0.754   4.721   1.049  0.0397 -0.8943 -0.8595
17670WAT    EPW72487  -0.791   4.800   1.051  0.2894 -0.7880  0.2379
17671WAT      O72488  -1.608   4.342   0.314 -0.4510 -0.0334  0.8825
17671WAT     H172489  -1.581   4.286   0.241 -1.6802  0.4320  0.0431
17671WAT     H272490  -1.610   4.430   0.278 -0.8993  0.2285  1.5208
17671WAT    EPW72491  -1.605   4.346   0.299 -0.6722  0.0627  0.8559
17672WAT      O72492   2.286   9.897   7.731 -0.5825  0.2268  0.1823
17672WAT     H172493   2.368   9.858   7.703 -1.8025 -0.6739 -2.3581
17672WAT     H272494   2.304   9.991   7.732  0.6271  0.0125  0.2863
17672WAT    EPW72495   2.299   9.905   7.728 -0.5838  0.0796 -0.1390
17673WAT      O72496   1.330   6.527   7.547 -0.0629  0.8380  0.0899
17673WAT     H172497   1.298   6.476   7.472 -1.7659  1.0690  0.6052
17673WAT     H272498   1.364   6.462   7.608 -0.5527  0.4544 -0.0330
17673WAT    EPW72499   1.330   6.512   7.545 -0.3521  0.8178  0.1416
17674WAT      O72500   2.846  10.261   1.899  0.3456 -0.2818 -0.5858
17674WAT     H172501   2.936  10.228   1.893  0.8833  1.2807 -1.6244
17674WAT     H272502   2.807  10.241   1.814 -0.6595 -1.8391  0.1889
17674WAT    EPW72503   2.853  10.254   1.887  0.2838 -0.2809 -0.6205
17675WAT      O72504  -1.861   6.901   3.879  0.3826  0.9162  0.4144
17675WAT     H172505  -1.922   6.854   3.935  0.6170  0.8586  0.6235
17675WAT     H272506  -1.846   6.984   3.924 -3.5158  3.2676 -2.0561
17675WAT    EPW72507  -1.867   6.906   3.892 -0.1006  1.2188  0.1162
17676WAT      O72508  -1.667   8.592   5.244  0.5019 -0.3670  0.0046
17676WAT     H172509  -1.583   8.632   5.221 -0.1735  0.8237 -0.5160
17676WAT     H272510  -1.689   8.537   5.168  0.9735 -0.9585  0.2957
17676WAT    EPW72511  -1.659   8.590   5.231  0.4750 -0.2875 -0.0255
17677WAT      O72512  -3.032   3.561   3.298  0.2975 -1.1181 -0.4114
17677WAT     H172513  -2.937   3.553   3.303  0.2407 -1.2338  0.7310
17677WAT     H272514  -3.046   3.642   3.249  0.9531 -1.9143 -1.9718
17677WAT    EPW72515  -3.021   3.571   3.293  0.3765 -1.2385 -0.4666
17678WAT      O72516  -4.635   9.388   4.916  0.7745 -0.0356 -0.5405
17678WAT     H172517  -4.691   9.311   4.922  1.3145 -0.5508 -1.6714
17678WAT     H272518  -4.630   9.422   5.005  1.8030 -2.2308  0.3137
17678WAT    EPW72519  -4.642   9.383   4.928  0.9813 -0.3929 -0.5770
17679WAT      O72520  -1.658   3.438   7.052  1.1497 -0.4336  0.1722
17679WAT     H172521  -1.676   3.344   7.060 -4.4877  0.0790 -1.9449
17679WAT     H272522  -1.648   3.453   6.958 -1.6407  1.3701  0.0572
17679WAT    EPW72523  -1.659   3.428   7.041  0.0381 -0.1281 -0.1221
17680WAT      O72524  -0.585   6.855   2.738  0.0574  0.4109  0.0177
17680WAT     H172525  -0.597   6.773   2.786  2.3737 -0.7403 -1.2132
17680WAT     H272526  -0.546   6.829   2.655 -2.2042  2.4951 -1.8359
17680WAT    EPW72527  -0.581   6.841   2.734  0.0646  0.5338 -0.3892
17681WAT      O72528  -2.667   0.926   6.244  0.4327 -0.1492 -0.2715
17681WAT     H172529  -2.684   1.019   6.263  0.1241  0.2082 -2.1087
17681WAT     H272530  -2.572   0.922   6.231  0.3229  0.1640 -1.2910
17681WAT    EPW72531  -2.657   0.938   6.244  0.3775 -0.0607 -0.6485
17682WAT      O72532  -5.348   9.424   5.514 -0.0710  0.1131 -0.1553
17682WAT     H172533  -5.440   9.447   5.500  0.5249  2.0147 -1.2581
17682WAT     H272534  -5.304   9.450   5.433  1.7983  1.4039  1.1772
17682WAT    EPW72535  -5.354   9.430   5.501  0.2542  0.5341 -0.1249
17683WAT      O72536  -1.186   4.124   4.051 -0.8591  0.2805 -0.1501
17683WAT     H172537  -1.118   4.191   4.059 -0.9841  0.1776  2.7462
17683WAT     H272538  -1.233   4.148   3.971  0.7148  2.0899 -0.6235
17683WAT    EPW72539  -1.183   4.136   4.041 -0.6679  0.5054  0.1695
17684WAT      O72540  -0.301   3.701   6.589 -0.0847  0.4462 -0.2686
17684WAT     H172541  -0.342   3.711   6.503  1.3749 -0.5142 -1.1093
17684WAT     H272542  -0.353   3.759   6.647 -1.2327  0.9296 -1.7144
17684WAT    EPW72543  -0.313   3.710   6.586 -0.0436  0.3833 -0.5701
17685WAT      O72544   5.952   0.112   6.561  0.0757 -0.4342  0.4920
17685WAT     H172545   5.980   0.181   6.621 -1.4575  1.2181 -0.5807
17685WAT     H272546   6.023   0.048   6.563  2.6329  2.1560 -0.0048
17685WAT    EPW72547   5.965   0.113   6.569  0.2110  0.1254  0.2851
17686WAT      O72548  -2.800   8.135   4.513 -0.2109  0.1198 -0.3665
17686WAT     H172549  -2.772   8.058   4.464  1.9406 -0.3638  1.4548
17686WAT     H272550  -2.768   8.209   4.462 -0.0203 -0.2871 -0.8465
17686WAT    EPW72551  -2.792   8.135   4.500  0.0980  0.0024 -0.1895
17687WAT      O72552   9.653   0.934   1.207 -0.1639  0.1586  0.1220
17687WAT     H172553   9.609   1.017   1.187  1.1657  0.3636 -2.2191
17687WAT     H272554   9.746   0.953   1.202  0.2535 -1.8823 -2.9527
17687WAT    EPW72555   9.659   0.947   1.204  0.0668 -0.0835 -0.5923
17688WAT      O72556   0.939   5.370   0.307  0.0413 -0.2518  0.2596
17688WAT     H172557   0.993   5.293   0.290 -0.9410 -0.8244 -0.3571
17688WAT     H272558   0.850   5.336   0.316 -0.1854  0.6230  1.6700
17688WAT    EPW72559   0.934   5.356   0.306 -0.1181 -0.2120  0.3643
17689WAT      O72560  -0.249   2.769   6.117 -0.2040 -0.2784 -0.0114
17689WAT     H172561  -0.160   2.734   6.112 -1.1733 -3.1119  0.5529
17689WAT     H272562  -0.264   2.782   6.211 -0.4470  0.0865 -0.0971
17689WAT    EPW72563  -0.239   2.766   6.129 -0.3639 -0.6040  0.0517
17690WAT      O72564   5.427   9.917   1.231  0.1003  0.1929 -0.0325
17690WAT     H172565   5.503   9.974   1.224  0.7508 -0.7652 -1.3058
17690WAT     H272566   5.464   9.828   1.235 -0.9220 -0.2349  0.3374
17690WAT    EPW72567   5.442   9.913   1.231  0.0513  0.0105 -0.1516
17691WAT      O72568  -1.602   8.879   2.194 -0.5001  0.0501  0.7247
17691WAT     H172569  -1.678   8.820   2.201 -0.2713 -0.8340 -2.5600
17691WAT     H272570  -1.528   8.826   2.223 -0.8576  0.3139  2.1940
17691WAT    EPW72571  -1.602   8.864   2.199 -0.5171 -0.0319  0.4853
17692WAT      O72572   3.337   7.819   1.275  0.2566 -0.1518  0.3952
17692WAT     H172573   3.418   7.857   1.310 -1.3087  1.9204  2.0446
17692WAT     H272574   3.311   7.755   1.341  0.0914 -0.1573  0.3243
17692WAT    EPW72575   3.345   7.816   1.288  0.0284  0.1209  0.6034
17693WAT      O72576  -4.813   9.184   4.972  1.0824 -0.7284  0.1392
17693WAT     H172577  -4.880   9.224   4.915  0.6480 -1.6125  0.0105
17693WAT     H272578  -4.859   9.168   5.054  1.3965 -0.5027  0.3583
17693WAT    EPW72579  -4.828   9.187   4.975  1.0664 -0.8149  0.1512
17694WAT      O72580   3.424   7.804   2.803  0.2022 -0.0983  0.1309
17694WAT     H172581   3.448   7.893   2.778 -0.7551  0.1691  0.1184
17694WAT     H272582   3.420   7.756   2.720 -0.7233  0.2187 -0.0156
17694WAT    EPW72583   3.426   7.809   2.789 -0.0461 -0.0212  0.1099
17695WAT      O72584  -4.620   9.777   4.920  0.1519 -0.1113 -0.0400
17695WAT     H172585  -4.603   9.852   4.863 -2.1404  0.8840  0.4435
17695WAT     H272586  -4.545   9.719   4.908  0.8935  1.1930 -2.1980
17695WAT    EPW72587  -4.608   9.779   4.911 -0.0527  0.1922 -0.2606
17696WAT      O72588   1.804   2.483   8.072  0.0694  0.1224  0.0949
17696WAT     H172589   1.830   2.562   8.119  2.6295 -1.2197  1.0815
17696WAT     H272590   1.750   2.434   8.134  0.5585 -0.0512  0.3812
17696WAT    EPW72591   1.800   2.487   8.086  0.4715 -0.0775  0.2627
17697WAT      O72592  -5.651   8.875   7.131 -0.0254  0.0787 -0.2868
17697WAT     H172593  -5.745   8.874   7.153 -0.3065 -1.3958 -1.4365
17697WAT     H272594  -5.617   8.795   7.171  0.4723 -0.0691 -1.0004
17697WAT    EPW72595  -5.659   8.865   7.139  0.0033 -0.1354 -0.5326
17698WAT      O72596  -1.849  10.056   8.152 -0.2917  0.2625 -0.3373
17698WAT     H172597  -1.886  10.037   8.238 -0.8128  1.6019 -0.2383
17698WAT     H272598  -1.808  10.142   8.162 -2.7782  1.7956 -2.0786
17698WAT    EPW72599  -1.849  10.065   8.165 -0.6884  0.6418 -0.5541
17699WAT      O72600  -1.590   9.907   0.625  0.1716  0.4509 -0.2814
17699WAT     H172601  -1.685   9.906   0.625  0.1518 -1.0541 -0.0665
17699WAT     H272602  -1.565   9.814   0.622  1.6511  0.8363 -2.2389
17699WAT    EPW72603  -1.599   9.894   0.625  0.3641  0.3037 -0.5113
17700WAT      O72604  -1.057   8.186   0.996  0.0801  0.5337 -0.3211
17700WAT     H172605  -0.968   8.216   0.978  0.2322  0.1797 -0.1753
17700WAT     H272606  -1.113   8.260   0.972  0.3382  0.4015 -1.3946
17700WAT    EPW72607  -1.053   8.200   0.990  0.1342  0.4702 -0.4435
17701WAT      O72608  -0.261   2.349   1.372 -0.2361 -0.1947  0.1426
17701WAT     H172609  -0.263   2.408   1.296 -0.5226 -1.3632 -0.7895
17701WAT     H272610  -0.174   2.361   1.409 -0.4268  1.0899  0.1979
17701WAT    EPW72611  -0.250   2.358   1.367 -0.2990 -0.1794  0.0270
17702WAT      O72612   2.164   8.795   6.443  0.0817 -0.2567 -0.0408
17702WAT     H172613   2.240   8.852   6.434 -0.0171 -0.1774 -0.3971
17702WAT     H272614   2.162   8.744   6.363  0.1128 -0.6969  0.2381
17702WAT    EPW72615   2.174   8.796   6.431  0.0728 -0.3037 -0.0510
17703WAT      O72616   2.043   6.587   0.459 -0.2345 -0.2710 -0.4700
17703WAT     H172617   2.092   6.550   0.533 -1.5379 -3.9034 -1.2101
17703WAT     H272618   2.101   6.576   0.384  0.0630  0.9679 -0.4381
17703WAT    EPW72619   2.057   6.581   0.459 -0.3672 -0.5867 -0.5634
17704WAT      O72620  10.307   0.760   0.478  0.0148  0.1437  0.1050
17704WAT     H172621  10.272   0.716   0.555  0.8496 -0.2938  0.2421
17704WAT     H272622  10.239   0.823   0.454 -0.0040  0.7048  1.5411
17704WAT    EPW72623  10.293   0.762   0.485  0.1225  0.1600  0.3125
17705WAT      O72624   3.716   4.009   3.948 -0.1554 -0.2234  0.4289
17705WAT     H172625   3.650   4.065   3.988  1.8821  1.7526  1.2080
17705WAT     H272626   3.665   3.944   3.899 -2.6327  1.5466  0.4694
17705WAT    EPW72627   3.700   4.008   3.947 -0.2135  0.2708  0.5370
17706WAT      O72628   3.435   8.565   3.576 -0.2703 -0.1026  0.3005
17706WAT     H172629   3.466   8.547   3.487  0.2426 -1.6277  0.7677
17706WAT     H272630   3.506   8.537   3.633 -1.7600 -1.9891  1.3094
17706WAT    EPW72631   3.448   8.559   3.572 -0.3992 -0.5527  0.4952
17707WAT      O72632  -1.173   5.363   0.592 -0.0342  0.3368  0.5993
17707WAT     H172633  -1.208   5.276   0.612 -0.3175  0.3812  0.3063
17707WAT     H272634  -1.210   5.420   0.660 -1.3882  0.5789 -0.3040
17707WAT    EPW72635  -1.182   5.359   0.603 -0.2502  0.3743  0.4416
17708WAT      O72636  -1.650   0.620   6.830 -0.3217  0.2919 -0.4160
17708WAT     H172637  -1.642   0.558   6.902 -0.3549  0.2311 -0.4649
17708WAT     H272638  -1.744   0.628   6.815 -0.3566  0.9027  0.0656
17708WAT    EPW72639  -1.661   0.613   6.838 -0.3307  0.3644 -0.3588
17709WAT      O72640  -3.295   9.967   1.232  0.3403 -0.0921  0.2894
17709WAT     H172641  -3.326   9.884   1.267  0.1253  0.5276  1.6116
17709WAT     H272642  -3.202   9.954   1.216  0.4970 -0.3308  1.3250
17709WAT    EPW72643  -3.287   9.954   1.234  0.3326 -0.0415  0.6003
17710WAT      O72644  -0.862   2.865   6.624 -0.5594  0.4332 -0.3334
17710WAT     H172645  -0.770   2.854   6.647  0.3287 -3.4305 -4.3277
17710WAT     H272646  -0.910   2.820   6.694  0.9478 -0.7606 -0.0127
17710WAT    EPW72647  -0.856   2.858   6.636 -0.2435 -0.2339 -0.8180
17711WAT      O72648  -0.284   1.305   6.801  0.3257 -0.4460  0.4716
17711WAT     H172649  -0.365   1.350   6.779  0.0953 -1.0582  0.0496
17711WAT     H272650  -0.271   1.242   6.730  0.5925 -1.1042  1.0896
17711WAT    EPW72651  -0.293   1.302   6.789  0.3305 -0.6135  0.4973
17712WAT      O72652  -2.086   9.966   1.858  0.3255  0.0780 -0.5664
17712WAT     H172653  -2.150   9.909   1.901 -1.3248  1.9598 -0.3398
17712WAT     H272654  -2.008   9.960   1.913 -0.3329 -0.7523  0.3123
17712WAT    EPW72655  -2.084   9.958   1.871  0.0210  0.2165 -0.4206
17713WAT      O72656   3.563   8.250   0.700  0.5015 -0.1722  1.1329
17713WAT     H172657   3.626   8.316   0.669 -0.0434 -0.1682 -0.0180
17713WAT     H272658   3.617   8.176   0.726  0.9589 -0.7039 -1.1408
17713WAT    EPW72659   3.579   8.249   0.699  0.4900 -0.2418  0.6813
17714WAT      O72660  -1.971   7.127   0.271  0.5848 -0.2135  0.1667
17714WAT     H172661  -1.966   7.043   0.316  1.0677  0.6337  1.7768
17714WAT     H272662  -1.936   7.190   0.334 -0.0089  1.2368 -0.8987
17714WAT    EPW72663  -1.966   7.124   0.285  0.5702  0.0894  0.2385
17715WAT      O72664   3.185   0.298   3.532 -0.5663  0.7715 -0.3579
17715WAT     H172665   3.200   0.344   3.615  0.7880 -0.6025  0.1928
17715WAT     H272666   3.270   0.260   3.510 -1.5069 -1.0083 -1.0621
17715WAT    EPW72667   3.198   0.299   3.540 -0.5118  0.3555 -0.3781
17716WAT      O72668   7.811   0.520   2.631  1.0677 -0.2211 -0.1503
17716WAT     H172669   7.819   0.482   2.544  1.1989 -0.8354  0.1268
17716WAT     H272670   7.886   0.580   2.638  0.4485  0.6492 -0.8581
17716WAT    EPW72671   7.822   0.523   2.621  1.0035 -0.1873 -0.2072
17717WAT      O72672  -2.137   7.493   3.968 -0.9771  0.0471 -0.0433
17717WAT     H172673  -2.123   7.520   3.877 -0.3924 -0.1212 -0.0095
17717WAT     H272674  -2.231   7.478   3.974 -0.9329 -0.5989 -0.8080
17717WAT    EPW72675  -2.147   7.495   3.957 -0.8943 -0.0603 -0.1397
17718WAT      O72676   0.707   9.245   8.369 -0.0507 -0.7207 -0.5642
17718WAT     H172677   0.642   9.315   8.370 -0.5013 -1.1247 -1.3246
17718WAT     H272678   0.714   9.219   8.461 -1.6083 -1.2700 -0.5727
17718WAT    EPW72679   0.699   9.251   8.381 -0.3155 -0.8469 -0.6657
17719WAT      O72680  -2.097   9.903   4.129 -0.8672 -0.4147  0.0307
17719WAT     H172681  -2.048   9.887   4.048 -1.5468  4.0453 -1.5072
17719WAT     H272682  -2.187   9.917   4.100 -1.7230 -1.5227  1.9907
17719WAT    EPW72683  -2.102   9.903   4.114 -1.0698  0.0272  0.0863
17720WAT      O72684   5.257   1.765   6.061  0.9550  0.0677  0.0382
17720WAT     H172685   5.327   1.763   5.996 -0.2207 -1.2039 -1.2655
17720WAT     H272686   5.295   1.810   6.136  2.7600  0.4915 -1.0697
17720WAT    EPW72687   5.271   1.771   6.062  1.0378 -0.0441 -0.2799
17721WAT      O72688  -1.452   6.672   6.998  0.0090 -0.3682  0.7529
17721WAT     H172689  -1.407   6.628   7.071  0.9978  0.2454  0.5266
17721WAT     H272690  -1.402   6.752   6.984 -1.0291  0.2191  0.3248
17721WAT    EPW72691  -1.439   6.677   7.006  0.0024 -0.2098  0.6669
17722WAT      O72692  -0.094   6.653   7.609  0.0272  0.4388 -0.3093
17722WAT     H172693  -0.016   6.705   7.627  1.3477 -1.1049 -1.3058
17722WAT     H272694  -0.061   6.567   7.584 -2.0659 -1.0125  1.4899
17722WAT    EPW72695  -0.080   6.649   7.608 -0.0747  0.0439 -0.2031
17723WAT      O72696  -2.465   3.873   7.793  0.9442 -0.7477 -0.5164
17723WAT     H172697  -2.490   3.915   7.710  1.8805 -0.9453 -0.9131
17723WAT     H272698  -2.539   3.817   7.814  0.1532  0.2549 -0.5587
17723WAT    EPW72699  -2.478   3.871   7.785  0.9633 -0.6415 -0.5744
17724WAT      O72700  -2.004   9.543   2.523 -0.4123  0.2832 -0.0841
17724WAT     H172701  -1.945   9.494   2.581  0.3979  1.9106  0.5278
17724WAT     H272702  -2.007   9.491   2.443 -0.3701 -1.2591  0.8791
17724WAT    EPW72703  -1.997   9.530   2.520 -0.2999  0.2947  0.1236
17725WAT      O72704   5.841   0.879   4.285  0.0356 -0.5440 -0.0216
17725WAT     H172705   5.802   0.817   4.347 -1.0611 -0.7162 -0.8494
17725WAT     H272706   5.838   0.963   4.330  1.2889 -1.0221  1.0063
17725WAT    EPW72707   5.835   0.882   4.299  0.0560 -0.6298  0.0048
17726WAT      O72708  -3.337   6.571   2.265  0.3229 -0.0631  0.3315
17726WAT     H172709  -3.400   6.555   2.195  0.9727  0.5130 -0.3979
17726WAT     H272710  -3.298   6.485   2.283 -3.0301 -1.1966  3.1919
17726WAT    EPW72711  -3.340   6.558   2.258 -0.0336 -0.1364  0.6125
17727WAT      O72712   0.351   0.901   3.496  0.3168 -0.1723 -0.1098
17727WAT     H172713   0.308   0.987   3.494  0.5590 -0.0332  0.6179
17727WAT     H272714   0.298   0.849   3.556  1.0490 -0.0502  0.6698
17727WAT    EPW72715   0.338   0.906   3.503  0.4453 -0.1379  0.0890
17728WAT      O72716  -0.218  10.188   2.295  0.6679  0.2713  0.3279
17728WAT     H172717  -0.162  10.133   2.241  0.8375  1.0507 -0.3171
17728WAT     H272718  -0.162  10.216   2.367  0.5168 -0.5648  0.7757
17728WAT    EPW72719  -0.203  10.185   2.297  0.6703  0.2637  0.3021
17729WAT      O72720  -4.199   7.254   5.537  0.1974  0.3553  0.6612
17729WAT     H172721  -4.290   7.281   5.545  0.0585  1.2637 -2.4813
17729WAT     H272722  -4.198   7.162   5.565 -1.5526  0.4954  1.2646
17729WAT    EPW72723  -4.211   7.245   5.542 -0.0520  0.4938  0.3262
17730WAT      O72724   0.706   2.855   6.019 -0.2660  0.6258  0.0434
17730WAT     H172725   0.723   2.948   6.036  2.9461  0.8206 -2.9947
17730WAT     H272726   0.612   2.851   6.000 -0.7496  2.9704  1.5845
17730WAT    EPW72727   0.696   2.867   6.018  0.0939  0.9607 -0.1540
17731WAT      O72728  -1.976   0.906   3.270 -0.0072  0.3733  0.2694
17731WAT     H172729  -1.989   0.980   3.329  2.2206  1.6857 -0.7384
17731WAT     H272730  -1.897   0.864   3.302 -0.3264 -0.5683 -0.1649
17731WAT    EPW72731  -1.967   0.911   3.282  0.2446  0.4222  0.0793
17732WAT      O72732  -1.754   9.380   2.338  0.4901  0.0301  0.0576
17732WAT     H172733  -1.821   9.431   2.292  0.4560 -1.7676 -2.0944
17732WAT     H272734  -1.804   9.320   2.393  0.4448  0.4610  0.4944
17732WAT    EPW72735  -1.769   9.379   2.339  0.4796 -0.1497 -0.1687
17733WAT      O72736  -4.767   7.721   7.080 -0.4149  0.5929 -0.0221
17733WAT     H172737  -4.856   7.687   7.088  0.0576 -0.6881 -0.0701
17733WAT     H272738  -4.779   7.810   7.045 -1.5654 -0.4113 -2.3641
17733WAT    EPW72739  -4.780   7.729   7.076 -0.5043  0.2916 -0.3371
17734WAT      O72740  -1.694   1.306   5.634 -0.0205  0.0916 -0.1340
17734WAT     H172741  -1.723   1.393   5.660 -0.5048 -0.1370  0.0904
17734WAT     H272742  -1.599   1.315   5.624  0.1080  0.3290  1.1626
17734WAT    EPW72743  -1.685   1.319   5.636 -0.0674  0.0927  0.0668
17735WAT      O72744  -3.304   8.914   4.839  0.3025  0.5248  0.2674
17735WAT     H172745  -3.368   8.980   4.812 -1.7192 -0.6342  1.8925
17735WAT     H272746  -3.357   8.835   4.855  2.5869 -1.5035 -1.4943
17735WAT    EPW72747  -3.320   8.912   4.838  0.3372  0.1040  0.2496
17736WAT      O72748   1.911   2.946   5.492  0.0291 -0.2325  0.6896
17736WAT     H172749   1.878   2.984   5.410  0.3064 -0.4291  0.4867
17736WAT     H272750   1.949   2.862   5.466  2.0189  0.6047  0.6663
17736WAT    EPW72751   1.912   2.940   5.478  0.3280 -0.1479  0.6595
17737WAT      O72752   1.853   8.933   5.836 -0.2524  0.2694  0.1464
17737WAT     H172753   1.849   9.016   5.787  0.0510 -0.2940 -0.8578
17737WAT     H272754   1.784   8.941   5.901 -0.5612  1.1174 -0.2674
17737WAT    EPW72755   1.843   8.945   5.838 -0.2531  0.3066 -0.0408
17738WAT      O72756  -1.753   1.910   8.459  0.5769 -0.2436  0.3064
17738WAT     H172757  -1.752   1.816   8.477  1.7566 -0.5274 -0.9522
17738WAT     H272758  -1.845   1.936   8.465  0.5254 -0.8638  3.4036
17738WAT    EPW72759  -1.765   1.901   8.462  0.7257 -0.3628  0.5488
17739WAT      O72760  -5.346   2.176   8.504  0.1954 -0.2389 -0.2040
17739WAT     H172761  -5.379   2.214   8.585  2.2708  1.0470  0.1009
17739WAT     H272762  -5.396   2.220   8.435 -1.8419 -1.6008  0.3025
17739WAT    EPW72763  -5.357   2.187   8.505  0.2005 -0.2489 -0.0968
17740WAT      O72764  -1.327   3.330   0.719 -0.0504 -0.0645  0.2920
17740WAT     H172765  -1.383   3.375   0.782 -0.6302 -3.1133  2.1477
17740WAT     H272766  -1.361   3.356   0.634 -3.3430 -0.5756  1.3229
17740WAT    EPW72767  -1.339   3.340   0.716 -0.5612 -0.5341  0.6727
17741WAT      O72768   1.027   5.831   8.227 -0.6710 -0.4243  0.5930
17741WAT     H172769   1.023   5.860   8.318  0.1543 -1.5860  1.0155
17741WAT     H272770   0.947   5.866   8.187  0.9832  3.9617  0.5676
17741WAT    EPW72771   1.016   5.840   8.234 -0.3440  0.0007  0.6452
17742WAT      O72772  -0.570   2.416   5.978 -0.2409  0.0702 -0.0462
17742WAT     H172773  -0.651   2.460   6.004 -0.9092 -0.7127 -0.7285
17742WAT     H272774  -0.508   2.487   5.963 -0.6565  0.6633  0.9457
17742WAT    EPW72775  -0.573   2.431   5.979 -0.3839  0.0452 -0.0052
17743WAT      O72776  -0.531   2.707   0.702 -0.4168  1.1397 -0.1118
17743WAT     H172777  -0.567   2.754   0.627 -0.0226  1.4977 -0.0788
17743WAT     H272778  -0.437   2.725   0.700 -0.3544  0.8881  0.2797
17743WAT    EPW72779  -0.523   2.716   0.692 -0.3566  1.1537 -0.0558
17744WAT      O72780  -1.303   0.619   8.527  0.3366  0.2912 -0.4326
17744WAT     H172781  -1.257   0.593   8.607  0.9596 -1.8892 -1.4214
17744WAT     H272782  -1.390   0.581   8.536  0.2717  0.3969 -0.6133
17744WAT    EPW72783  -1.309   0.610   8.539  0.4102  0.0176 -0.5875
17745WAT      O72784  -0.872   5.699   3.584  0.3051  0.1033 -0.4548
17745WAT     H172785  -0.891   5.792   3.576 -3.1352 -0.4945 -0.7918
17745WAT     H272786  -0.855   5.685   3.677 -1.9086  0.7125  0.0885
17745WAT    EPW72787  -0.872   5.709   3.595 -0.4406  0.1047 -0.4277
17746WAT      O72788  -3.859   2.627   7.002 -0.3529 -0.0161  0.0600
17746WAT     H172789  -3.893   2.715   6.984  0.9627  0.2170 -1.5491
17746WAT     H272790  -3.825   2.632   7.091  0.2057  1.3008 -0.1975
17746WAT    EPW72791  -3.859   2.640   7.011 -0.1056  0.1882 -0.1860
17747WAT      O72792  -3.235   9.872   7.811  0.0561  0.1828  0.1503
17747WAT     H172793  -3.242   9.955   7.858  0.8392  1.1394 -1.3446
17747WAT     H272794  -3.220   9.807   7.880  1.9719  1.6311  1.2049
17747WAT    EPW72795  -3.234   9.874   7.827  0.4121  0.5002  0.0923
17748WAT      O72796   1.887   5.686   7.736  0.7125 -0.3022  0.1483
17748WAT     H172797   1.910   5.770   7.695  2.7116 -2.2705 -3.1900
17748WAT     H272798   1.863   5.710   7.826 -0.9576  4.0360 -1.1814
17748WAT    EPW72799   1.887   5.700   7.742  0.7558  0.0103 -0.4673
17749WAT      O72800  -4.457   0.885   6.879  0.2771  0.5648  0.1543
17749WAT     H172801  -4.422   0.959   6.831  0.5419 -2.1774 -4.5312
17749WAT     H272802  -4.391   0.865   6.945  3.8267  0.4185 -3.0939
17749WAT    EPW72803  -4.444   0.892   6.881  0.7801  0.1839 -0.8922
17750WAT      O72804   9.245   0.798   2.334  0.1534  0.2364 -0.0798
17750WAT     H172805   9.317   0.802   2.395  1.6448 -2.8177 -1.4298
17750WAT     H272806   9.248   0.882   2.287  2.6627  0.3174  0.1103
17750WAT    EPW72807   9.255   0.810   2.336  0.6811 -0.1557 -0.2328
17751WAT      O72808   4.852   3.264   7.287  0.4213  0.0468 -0.2702
17751WAT     H172809   4.891   3.311   7.361 -1.8678 -0.4873  1.4196
17751WAT     H272810   4.790   3.203   7.329 -0.6343 -0.6008 -2.6271
17751WAT    EPW72811   4.849   3.262   7.303 -0.0198 -0.1090 -0.3581
17752WAT      O72812   6.110   2.821   6.234  0.2586 -0.1630 -0.0564
17752WAT     H172813   6.083   2.826   6.326  0.6018 -2.3026  0.2042
17752WAT     H272814   6.051   2.881   6.189 -1.0755 -0.3721  1.3218
17752WAT    EPW72815   6.099   2.830   6.240  0.1280 -0.4727  0.1597
17753WAT      O72816  -0.293   4.115   3.222  0.3855 -0.1687  0.5835
17753WAT     H172817  -0.338   4.086   3.143  0.6069 -0.1756  0.4606
17753WAT     H272818  -0.271   4.034   3.268 -0.4740 -0.1507  1.0670
17753WAT    EPW72819  -0.296   4.100   3.218  0.3013 -0.1671  0.6311
17754WAT      O72820  -7.767   7.411   8.978  0.3898  0.6096 -0.5894
17754WAT     H172821  -7.774   7.379   8.889  0.7781 -1.2980  0.0310
17754WAT     H272822  -7.826   7.486   8.981 -2.3806 -1.3812 -1.5315
17754WAT    EPW72823  -7.776   7.417   8.967  0.0756  0.0956 -0.6323
17755WAT      O72824  -3.453   8.383   5.979  0.2442 -0.0333 -0.3531
17755WAT     H172825  -3.486   8.297   5.952  3.8065 -1.2880 -1.2381
17755WAT     H272826  -3.424   8.369   6.070 -0.4625  0.6919 -0.0013
17755WAT    EPW72827  -3.453   8.370   5.988  0.6208 -0.1030 -0.4234
17756WAT      O72828   2.456   7.574   0.849 -0.1632 -0.7744  0.0333
17756WAT     H172829   2.520   7.503   0.844  2.1123  1.0828  0.9302
17756WAT     H272830   2.439   7.583   0.943 -2.2425 -1.5839 -0.2162
17756WAT    EPW72831   2.462   7.566   0.861 -0.1372 -0.6363  0.1187
17757WAT      O72832  -2.743   7.114   4.940 -0.2642  0.1199 -0.2749
17757WAT     H172833  -2.660   7.106   4.988 -0.0020  0.1022 -0.7255
17757WAT     H272834  -2.735   7.051   4.869 -0.2830  0.7660 -0.8563
17757WAT    EPW72835  -2.731   7.105   4.937 -0.2321  0.2029 -0.4110
17758WAT      O72836   1.141  10.024   3.180 -0.2414  0.2910  0.7197
17758WAT     H172837   1.087  10.103   3.172 -1.5528 -0.5610  0.7790
17758WAT     H272838   1.132   9.999   3.272 -0.5912 -0.4307  0.4976
17758WAT    EPW72839   1.132  10.031   3.191 -0.4605  0.0834  0.6983
17759WAT      O72840   0.663   7.800   6.659  0.3051  0.2485 -0.0718
17759WAT     H172841   0.619   7.860   6.720 -0.1335 -2.1157  2.1257
17759WAT     H272842   0.620   7.815   6.575 -2.0721  0.7486  1.1447
17759WAT    EPW72843   0.651   7.810   6.656 -0.0663  0.0026  0.3786
17760WAT      O72844  -2.475   6.846   6.348 -0.0551 -0.0275  0.1662
17760WAT     H172845  -2.529   6.892   6.412 -3.4372  0.1281 -2.5093
17760WAT     H272846  -2.471   6.756   6.381 -3.0418 -0.3231  0.0336
17760WAT    EPW72847  -2.482   6.840   6.361 -0.8950 -0.0460 -0.2041
17761WAT      O72848   4.675   7.208   2.927 -0.5972 -0.0421 -0.1483
17761WAT     H172849   4.605   7.262   2.889 -0.9717 -0.7588 -0.4969
17761WAT     H272850   4.751   7.227   2.871 -0.9183 -0.4272 -0.7245
17761WAT    EPW72851   4.676   7.218   2.914 -0.6890 -0.1874 -0.2701
17762WAT      O72852  -3.209   3.372   7.118  0.6213  0.0464 -0.1991
17762WAT     H172853  -3.174   3.296   7.070 -0.3881 -0.0993 -0.7404
17762WAT     H272854  -3.191   3.352   7.210 -1.6220 -2.0036 -0.0912
17762WAT    EPW72855  -3.202   3.359   7.124  0.1923 -0.2432 -0.2563
17763WAT      O72856  -0.329   4.207   2.448  0.5098 -0.3284  0.0329
17763WAT     H172857  -0.365   4.296   2.443  0.1043 -0.5195 -0.7809
17763WAT     H272858  -0.393   4.153   2.400  1.2292 -0.8985 -0.3171
17763WAT    EPW72859  -0.343   4.211   2.441  0.5512 -0.4287 -0.1205
17764WAT      O72860  -2.801   7.072   5.636 -0.3125 -0.1759  0.2924
17764WAT     H172861  -2.804   7.114   5.722  2.8803  0.2351  0.3482
17764WAT     H272862  -2.752   6.991   5.650  2.6070  1.1159 -1.4180
17764WAT    EPW72863  -2.795   7.067   5.649  0.4936  0.0486  0.0741
17765WAT      O72864   2.510   2.827   6.138 -0.3697  0.4475 -0.4633
17765WAT     H172865   2.483   2.742   6.172  0.9295  0.1310 -0.1843
17765WAT     H272866   2.473   2.891   6.199 -3.7208  0.3256 -2.1379
17765WAT    EPW72867   2.501   2.824   6.150 -0.6404  0.3897 -0.6473
17766WAT      O72868   5.159   1.739   2.539 -0.0838  0.2968 -0.0528
17766WAT     H172869   5.201   1.668   2.490 -0.5966 -0.4868  0.6241
17766WAT     H272870   5.221   1.812   2.532  0.2545 -0.0747 -1.1114
17766WAT    EPW72871   5.173   1.739   2.531 -0.1070  0.1445 -0.1032
17767WAT      O72872   0.855   6.235   6.699 -0.2873 -0.1476 -0.4258
17767WAT     H172873   0.786   6.290   6.736 -1.0328 -0.0022 -1.9712
17767WAT     H272874   0.824   6.145   6.713 -0.1609 -0.1263  0.0252
17767WAT    EPW72875   0.842   6.230   6.706 -0.3690 -0.1256 -0.5703
17768WAT      O72876  -0.829   8.196   0.349  0.1764 -0.3177 -0.3793
17768WAT     H172877  -0.871   8.206   0.263 -0.3956  0.4074 -0.0261
17768WAT     H272878  -0.901   8.177   0.409  0.6590 -1.5196 -0.1687
17768WAT    EPW72879  -0.844   8.195   0.345  0.1646 -0.3805 -0.3050
17769WAT      O72880  -0.543   5.201   4.991  0.2672  0.7332  0.0041
17769WAT     H172881  -0.529   5.252   4.911  0.5810 -0.8970 -1.0288
17769WAT     H272882  -0.607   5.134   4.966  0.2645  0.2877  1.1501
17769WAT    EPW72883  -0.549   5.199   4.977  0.3082  0.4594  0.0191
17770WAT      O72884   3.443   0.008   6.868  0.2709  0.0046 -0.0810
17770WAT     H172885   3.409   0.074   6.808  0.8777 -0.8167 -1.3701
17770WAT     H272886   3.507   0.056   6.921 -1.8306  1.2521  1.4901
17770WAT    EPW72887   3.447   0.023   6.867  0.0738  0.0608 -0.0436
17771WAT      O72888   1.935   3.422   2.203  0.0045 -0.3466 -0.1523
17771WAT     H172889   1.940   3.517   2.208  2.9441 -0.4548  3.2733
17771WAT     H272890   1.851   3.400   2.245 -0.5313  0.7040 -0.6485
17771WAT    EPW72891   1.924   3.431   2.209  0.3215 -0.2223  0.2341
17772WAT      O72892   1.809   4.104   7.389 -0.1884 -0.2330 -0.9908
17772WAT     H172893   1.853   4.062   7.315 -0.9644  0.5163 -1.9062
17772WAT     H272894   1.827   4.197   7.378 -1.9395  0.0895 -1.3737
17772WAT    EPW72895   1.817   4.110   7.378 -0.5217 -0.0918 -1.1618
17773WAT      O72896  -1.763   6.935   0.361  0.1540 -0.6622  0.3140
17773WAT     H172897  -1.751   6.891   0.278  0.9830 -2.2160  1.2136
17773WAT     H272898  -1.696   6.897   0.419  0.9650  1.8462  1.1399
17773WAT    EPW72899  -1.753   6.924   0.358  0.3703 -0.5362  0.5416
17774WAT      O72900  -5.114   9.975   7.633 -0.1853  0.3835  0.4544
17774WAT     H172901  -5.120  10.044   7.566 -1.9420  0.3346  0.5075
17774WAT     H272902  -5.069  10.017   7.706 -1.6880  1.6852  0.6897
17774WAT    EPW72903  -5.109   9.990   7.634 -0.6154  0.5484  0.4926
17775WAT      O72904  -5.317   4.110   8.430 -0.2000  0.9373 -0.0923
17775WAT     H172905  -5.385   4.169   8.464 -0.2503  0.2650  1.0175
17775WAT     H272906  -5.239   4.132   8.481  0.2315  1.1946 -0.8533
17775WAT    EPW72907  -5.316   4.121   8.441 -0.1495  0.8826 -0.0463
17776WAT      O72908  -0.984   4.875   4.415  0.8265 -0.0319 -0.2509
17776WAT     H172909  -0.898   4.848   4.384  1.3904  0.8896  0.4529
17776WAT     H272910  -0.969   4.960   4.456 -0.4578  0.2293 -0.2813
17776WAT    EPW72911  -0.971   4.883   4.417  0.7314  0.1240 -0.1619
17777WAT      O72912  -1.179   9.979   3.677 -0.7447 -0.0579  0.4161
17777WAT     H172913  -1.130  10.034   3.615 -0.0422  0.9342  1.8119
17777WAT     H272914  -1.263  10.025   3.688 -1.5842 -1.1310 -1.0510
17777WAT    EPW72915  -1.184   9.993   3.670 -0.7628 -0.0687  0.4067
17778WAT      O72916   4.400   4.126   7.140 -0.8068 -0.0325  0.4178
17778WAT     H172917   4.305   4.129   7.157 -1.2487 -1.6265 -1.4045
17778WAT     H272918   4.423   4.217   7.120 -1.3726  0.8595  3.2757
17778WAT    EPW72919   4.390   4.139   7.140 -0.9398 -0.1249  0.5543
17779WAT      O72920  -4.064   8.207   4.883  0.0302 -0.3039 -0.1798
17779WAT     H172921  -4.133   8.158   4.837  0.7865 -0.7612 -0.8487
17779WAT     H272922  -4.093   8.298   4.877  0.4643 -0.2397 -2.2819
17779WAT    EPW72923  -4.077   8.213   4.876  0.1874 -0.3557 -0.5455
17780WAT      O72924   4.027   7.976   0.668 -0.0440  0.2341  0.1545
17780WAT     H172925   4.017   7.880   0.664  0.8027  0.1478 -3.2728
17780WAT     H272926   3.939   8.009   0.684 -0.3902 -1.1098  1.1668
17780WAT    EPW72927   4.014   7.967   0.669  0.0219  0.0455 -0.1640
17781WAT      O72928   4.459   9.064   5.299 -0.3547 -0.8426 -0.5198
17781WAT     H172929   4.413   8.980   5.295 -1.2442 -0.3277 -1.9206
17781WAT     H272930   4.390   9.130   5.293  0.3679 -0.0154  0.0363
17781WAT    EPW72931   4.444   9.062   5.297 -0.3769 -0.6657 -0.6311
17782WAT      O72932  -0.448   2.711   1.396 -0.2068 -0.4582 -0.1806
17782WAT     H172933  -0.520   2.715   1.459 -0.2489  0.2290 -0.2634
17782WAT     H272934  -0.425   2.803   1.380  0.8263 -0.6741 -0.0004
17782WAT    EPW72935  -0.455   2.724   1.402 -0.0761 -0.3960 -0.1678
17783WAT      O72936   4.302   6.665   0.713  0.4014  0.0837 -0.5489
17783WAT     H172937   4.372   6.600   0.705 -0.8185 -1.0013 -5.1485
17783WAT     H272938   4.225   6.614   0.741  0.3305  0.3238 -0.3014
17783WAT    EPW72939   4.301   6.650   0.716  0.2313 -0.0277 -1.1229
17784WAT      O72940   5.649   6.026   3.547  0.4720  0.4455 -0.0627
17784WAT     H172941   5.623   6.108   3.504 -1.7989 -0.8063 -1.3027
17784WAT     H272942   5.567   5.976   3.554  1.0414 -0.2539  4.0964
17784WAT    EPW72943   5.635   6.030   3.542  0.2475  0.1881  0.3222
17785WAT      O72944   0.603   7.680   5.623 -0.2563  0.8383  0.2620
17785WAT     H172945   0.531   7.732   5.589  0.2604  0.2999 -1.7704
17785WAT     H272946   0.564   7.629   5.695 -0.8524  3.6485  2.0646
17785WAT    EPW72947   0.588   7.680   5.628 -0.2668  1.1380  0.2317
17786WAT      O72948  -2.429   1.472   3.538 -0.5573 -0.2255 -0.3442
17786WAT     H172949  -2.393   1.547   3.585  1.2932 -0.9790 -0.5008
17786WAT     H272950  -2.358   1.441   3.483 -1.7212 -1.2697 -1.3272
17786WAT    EPW72951  -2.415   1.478   3.537 -0.4667 -0.4626 -0.4945
17787WAT      O72952   1.606   7.334   2.668  0.0819 -0.0324  0.9735
17787WAT     H172953   1.620   7.362   2.578  2.4435 -1.0776  0.9635
17787WAT     H272954   1.519   7.369   2.690 -0.6772  0.0472 -1.7484
17787WAT    EPW72955   1.596   7.343   2.659  0.2933 -0.1595  0.6132
17788WAT      O72956  -1.884   7.215   7.135  0.0299  0.6394  0.5757
17788WAT     H172957  -1.922   7.278   7.196 -1.0942  1.7948 -1.2305
17788WAT     H272958  -1.826   7.161   7.190 -0.5975  1.8611  2.5602
17788WAT    EPW72959  -1.881   7.216   7.151 -0.2012  0.9530  0.5994
17789WAT      O72960  -1.229   9.865   8.191 -0.2043  0.4369  0.1517
17789WAT     H172961  -1.218   9.824   8.105 -1.1258  1.2757 -0.3869
17789WAT     H272962  -1.299   9.815   8.232 -0.6837  0.8735 -0.1280
17789WAT    EPW72963  -1.237   9.853   8.185 -0.3891  0.6051  0.0439
17790WAT      O72964   3.729   5.007   8.158 -0.0304  0.5431 -0.0215
17790WAT     H172965   3.703   4.959   8.236  0.8181  0.0406 -0.0402
17790WAT     H272966   3.821   5.029   8.173  0.3896 -0.2811 -1.2273
17790WAT    EPW72967   3.738   5.004   8.170  0.1370  0.3681 -0.1826
17791WAT      O72968   3.656   1.883   8.691  0.2807  0.4708  0.9325
17791WAT     H172969   3.628   1.817   8.628  0.8082  0.4208  0.7478
17791WAT     H272970   3.705   1.835   8.757 -0.3162  0.5148  1.4236
17791WAT    EPW72971   3.659   1.868   8.692  0.2716  0.4699  0.9732
17792WAT      O72972   3.469   1.312   8.443  0.4916  0.6734  0.0887
17792WAT     H172973   3.435   1.251   8.377  1.9646 -1.8035  1.4240
17792WAT     H272974   3.523   1.374   8.394 -0.4413  0.4393 -1.2707
17792WAT    EPW72975   3.472   1.312   8.428  0.5627  0.3158  0.0858
17793WAT      O72976  -4.985   7.733   6.233  0.0555 -0.0469 -0.6033
17793WAT     H172977  -4.942   7.787   6.166  0.5402  0.7803  0.3444
17793WAT     H272978  -5.012   7.654   6.186 -0.2115  0.7874 -1.9230
17793WAT    EPW72979  -4.983   7.730   6.218  0.0842  0.1724 -0.6526
17794WAT      O72980  -3.928   9.457   1.417  0.1568 -0.9656 -0.3958
17794WAT     H172981  -3.885   9.542   1.406 -0.4614 -0.9085 -3.3063
17794WAT     H272982  -3.863   9.394   1.386 -0.7281 -1.1455 -1.9921
17794WAT    EPW72983  -3.914   9.460   1.411 -0.0414 -0.9818 -0.9902
17795WAT      O72984   4.997   3.392   3.955  1.0228 -0.3475  0.1604
17795WAT     H172985   5.077   3.381   3.903  0.7738  1.7363 -0.7305
17795WAT     H272986   5.029   3.401   4.045  1.5427 -2.5388  0.2685
17795WAT    EPW72987   5.012   3.392   3.960  1.0586 -0.3617  0.0572
17796WAT      O72988   7.332   5.920   0.540 -0.1539 -0.7818 -0.0064
17796WAT     H172989   7.242   5.890   0.529  0.0800 -1.0502 -1.3733
17796WAT     H272990   7.324   6.004   0.586 -0.9209 -2.0163  2.2696
17796WAT    EPW72991   7.319   5.927   0.544 -0.2244 -0.9801  0.1135
17797WAT      O72992   4.111   2.933   4.285 -0.0208  0.2041  0.7168
17797WAT     H172993   4.063   2.886   4.354 -0.3692 -1.4019 -0.5526
17797WAT     H272994   4.096   2.881   4.206  1.8016  1.0324 -0.2317
17797WAT    EPW72995   4.103   2.920   4.284  0.1738  0.1016  0.4241
17798WAT      O72996   8.769  -0.003   0.066 -0.3639  0.1119  0.4201
17798WAT     H172997   8.844   0.054   0.085 -1.9596  1.7931  2.0121
17798WAT     H272998   8.710   0.009   0.140 -0.9709 -3.4071  0.6720
17798WAT    EPW72999   8.771   0.006   0.078 -0.6547 -0.1305  0.6633
17799WAT      O73000   2.856   9.784   4.534  0.2060  0.4337  0.1475
17799WAT     H173001   2.940   9.744   4.513  0.1208  1.7307 -3.2138
17799WAT     H273002   2.878   9.864   4.583  0.7631 -0.1687  0.9033
17799WAT    EPW73003   2.870   9.789   4.538  0.2682  0.5250 -0.1960
17800WAT      O73004  -1.739   2.695   3.341  0.3823  0.7449  0.6694
17800WAT     H173005  -1.645   2.676   3.338  0.4415  1.0443  0.6349
17800WAT     H273006  -1.748   2.767   3.404  0.1559  0.6048  0.8019
17800WAT    EPW73007  -1.728   2.702   3.349  0.3603  0.7659  0.6824
17801WAT      O73008  -2.233   5.363   8.139  0.4027  0.3165  0.1358
17801WAT     H173009  -2.271   5.333   8.057 -2.7532 -1.7705  2.1489
17801WAT     H273010  -2.140   5.375   8.119  0.3575 -2.8794 -3.0072
17801WAT    EPW73011  -2.226   5.361   8.126 -0.0194 -0.3805 -0.0134
17802WAT      O73012   5.146   6.395   5.405  0.5944  0.2038 -0.0490
17802WAT     H173013   5.059   6.364   5.431 -0.2746  1.8820 -0.8034
17802WAT     H273014   5.158   6.477   5.453  0.1183  1.9439 -2.6945
17802WAT    EPW73015   5.136   6.402   5.415  0.4168  0.6545 -0.4973
17803WAT      O73016   0.307   1.248   7.859  0.4419 -0.3279 -1.0931
17803WAT     H173017   0.320   1.340   7.882  3.0132  0.0607 -3.5044
17803WAT     H273018   0.314   1.247   7.763 -1.6430 -2.7924 -1.3213
17803WAT    EPW73019   0.309   1.260   7.849  0.5061 -0.6017 -1.4412
17804WAT      O73020  -1.832   4.850   3.859  0.5451 -0.1144 -0.1581
17804WAT     H173021  -1.811   4.888   3.945  2.7076  0.8471 -1.0224
17804WAT     H273022  -1.927   4.837   3.861  0.5794 -0.5627  2.5241
17804WAT    EPW73023  -1.842   4.854   3.871  0.8349 -0.0467  0.0815
17805WAT      O73024  -2.402   8.535   5.619  0.4327  0.2266  0.1972
17805WAT     H173025  -2.419   8.473   5.689  2.0720  0.7217  1.0897
17805WAT     H273026  -2.343   8.489   5.560 -1.9716 -0.6776 -1.6642
17805WAT    EPW73027  -2.396   8.521   5.621  0.3318  0.1726  0.0694
17806WAT      O73028   3.869   7.393   5.539 -0.3576  0.3558  0.8085
17806WAT     H173029   3.936   7.330   5.564 -2.8680 -3.1199 -0.4492
17806WAT     H273030   3.911   7.447   5.472  1.3585 -1.3855  0.3852
17806WAT    EPW73031   3.884   7.392   5.533 -0.4624 -0.3321  0.5867
17807WAT      O73032   1.602   2.639   3.551 -0.0266 -0.3606  0.4732
17807WAT     H173033   1.677   2.620   3.493 -1.4066  3.1363 -2.9448
17807WAT     H273034   1.642   2.679   3.628  1.7497 -0.7168 -0.1998
17807WAT    EPW73035   1.617   2.642   3.553  0.0256  0.0536 -0.0664
17808WAT      O73036  -0.658   4.632   3.985  0.0357 -0.0431  0.1617
17808WAT     H173037  -0.702   4.566   3.932 -3.5131  1.1019  1.4053
17808WAT     H273038  -0.683   4.610   4.075  0.6737  1.6759  0.7933
17808WAT    EPW73039  -0.667   4.620   3.990 -0.3482  0.3347  0.4090
17809WAT      O73040   2.962   6.159   3.104  0.2109 -0.7533 -0.2726
17809WAT     H173041   2.908   6.171   3.026 -0.0923 -0.3225 -0.0060
17809WAT     H273042   3.050   6.140   3.070  0.1613 -0.2128 -0.7273
17809WAT    EPW73043   2.967   6.158   3.089  0.1643 -0.6251 -0.2974
17810WAT      O73044   3.406   4.847   1.827 -0.0399  0.9278 -0.2227
17810WAT     H173045   3.363   4.910   1.770 -2.2386  0.9223  1.2931
17810WAT     H273046   3.382   4.762   1.792  1.0581  0.8892 -0.9443
17810WAT    EPW73047   3.397   4.844   1.815 -0.1850  0.9220 -0.1180
17811WAT      O73048  -1.217   5.777   0.795  0.1719 -0.2327  0.3452
17811WAT     H173049  -1.181   5.846   0.851  1.5168  0.6439 -1.5180
17811WAT     H273050  -1.182   5.795   0.708 -2.7101 -0.9219 -1.0807
17811WAT    EPW73051  -1.207   5.788   0.791 -0.0309 -0.2079 -0.0886
17812WAT      O73052   0.364   0.049   8.946  0.5600  0.1994  0.8845
17812WAT     H173053   0.366  -0.046   8.940  1.7352  0.2172  0.8266
17812WAT     H273054   0.315   0.077   8.869 -2.4645 -0.4521  2.4326
17812WAT    EPW73055   0.358   0.040   8.935  0.3161  0.1158  1.0810
17813WAT      O73056   2.371   0.554   8.368  0.1020 -0.1439  0.2131
17813WAT     H173057   2.401   0.469   8.336  0.8248  0.4360 -0.6844
17813WAT     H273058   2.362   0.542   8.463  2.4019 -0.5984  0.4313
17813WAT    EPW73059   2.373   0.541   8.376  0.5008 -0.1273  0.1235
17814WAT      O73060   1.451   6.471   3.959 -0.4617  0.7913  0.1785
17814WAT     H173061   1.500   6.406   4.009 -2.3020 -0.4821  0.4377
17814WAT     H273062   1.493   6.471   3.872 -1.6243 -2.3684 -0.5365
17814WAT    EPW73063   1.463   6.462   3.954 -0.8578  0.2065  0.1183
17815WAT      O73064  -0.576   6.576   8.802  0.1988  0.1662 -0.8333
17815WAT     H173065  -0.610   6.617   8.882  0.7673  0.5784 -0.7963
17815WAT     H273066  -0.585   6.643   8.735 -1.7353 -0.6947 -1.5037
17815WAT    EPW73067  -0.582   6.590   8.804  0.0187  0.1070 -0.9170
17816WAT      O73068  -1.886   0.358   6.380 -0.2196 -0.1982 -0.3146
17816WAT     H173069  -1.840   0.338   6.299 -0.3184 -2.0833  0.0487
17816WAT     H273070  -1.873   0.281   6.435 -1.6841  0.2752  0.7629
17816WAT    EPW73071  -1.878   0.345   6.377 -0.4258 -0.3844 -0.1245
17817WAT      O73072  -4.099   7.145   5.296  0.5451  0.4323  0.1187
17817WAT     H173073  -4.140   7.193   5.367 -2.2311 -2.1150  0.4351
17817WAT     H273074  -4.023   7.103   5.335 -0.0849  0.2863  1.2114
17817WAT    EPW73075  -4.095   7.146   5.310  0.0958  0.0770  0.3047
17818WAT      O73076   2.986   7.006   6.005 -0.5403  0.0919  0.2220
17818WAT     H173077   2.908   6.987   6.056 -1.8386 -1.3658 -2.1229
17818WAT     H273078   3.036   6.924   6.006 -0.6042  0.0327 -0.8394
17818WAT    EPW73079   2.982   6.993   6.012 -0.7199 -0.1082 -0.2272
17819WAT      O73080  -6.321  10.303   7.011  0.3654  0.3022  0.8165
17819WAT     H173081  -6.375  10.273   7.085 -1.8083  1.2485 -0.3029
17819WAT     H273082  -6.355  10.254   6.936  0.4582  1.5699 -0.0760
17819WAT    EPW73083  -6.333  10.292   7.011  0.0908  0.5941  0.5512
17820WAT      O73084   2.751   9.414   5.630 -0.4736 -0.5480  0.4081
17820WAT     H173085   2.757   9.497   5.583 -2.3381 -0.2380  0.6160
17820WAT     H273086   2.826   9.415   5.690 -0.3508  0.8941  0.2649
17820WAT    EPW73087   2.762   9.425   5.632 -0.7033 -0.3166  0.4165
17821WAT      O73088   7.115   0.030   3.077  0.0174  0.0216  0.2212
17821WAT     H173089   7.110  -0.066   3.073  0.3543 -0.0388  1.0224
17821WAT     H273090   7.026   0.057   3.100  0.4106 -0.2728  2.3394
17821WAT    EPW73091   7.102   0.021   3.080  0.1137 -0.0248  0.6063
17822WAT      O73092  -0.210   6.380   0.232 -0.1074  0.1981 -0.4725
17822WAT     H173093  -0.303   6.376   0.253 -0.4773  0.3661 -1.9146
17822WAT     H273094  -0.165   6.369   0.315 -1.3341 -3.5073 -0.1562
17822WAT    EPW73095  -0.216   6.378   0.246 -0.3180 -0.2685 -0.6210
17823WAT      O73096  -4.635   0.538   8.657 -0.4428 -0.4050  0.2311
17823WAT     H173097  -4.546   0.553   8.690 -0.1222  2.3164 -1.5116
17823WAT     H273098  -4.623   0.514   8.566 -1.4797  0.6607 -0.2121
17823WAT    EPW73099  -4.622   0.537   8.650 -0.5374  0.0945 -0.0572
17824WAT      O73100   6.520   7.834   1.356  1.2405 -0.0381 -0.0923
17824WAT     H173101   6.457   7.811   1.288  0.3962  0.2583  0.5701
17824WAT     H273102   6.480   7.803   1.437  1.9751  0.1184  0.3440
17824WAT    EPW73103   6.507   7.827   1.358  1.2259  0.0215  0.0526
17825WAT      O73104   0.908   2.217   0.016 -0.0487  0.0281 -0.4520
17825WAT     H173105   0.932   2.210   0.108  1.5726 -0.4075 -0.8669
17825WAT     H273106   0.961   2.289  -0.017  0.7075 -0.9218 -1.4030
17825WAT    EPW73107   0.918   2.225   0.024  0.2649 -0.1545 -0.6322
17826WAT      O73108  -0.232   2.976   0.324  0.2970 -0.7317  0.7621
17826WAT     H173109  -0.177   2.920   0.269 -0.4501 -0.3900 -0.3495
17826WAT     H273110  -0.215   3.065   0.294 -1.9041 -0.7008 -0.6199
17826WAT    EPW73111  -0.223   2.980   0.313 -0.0919 -0.6826  0.4332
17827WAT      O73112   0.314   5.369   8.043 -0.2086 -0.3210 -0.8371
17827WAT     H173113   0.265   5.325   7.973  0.8494  1.0431 -2.4990
17827WAT     H273114   0.254   5.435   8.077 -1.4427 -2.2582  0.9849
17827WAT    EPW73115   0.300   5.372   8.039 -0.2318 -0.3967 -0.8159
17828WAT      O73116  -1.067   6.744   3.851  0.5927 -0.0988  0.1300
17828WAT     H173117  -1.136   6.810   3.854  0.2280 -0.4876  0.3925
17828WAT     H273118  -0.986   6.793   3.863  0.2588  0.2037  1.2488
17828WAT    EPW73119  -1.065   6.759   3.853  0.5006 -0.1101  0.3123
17829WAT      O73120  -0.620   4.186   0.602 -0.7448 -0.1327 -0.0751
17829WAT     H173121  -0.628   4.275   0.567 -0.4481 -0.0500  0.0651
17829WAT     H273122  -0.651   4.130   0.531  5.7631 -0.5041 -3.3603
17829WAT    EPW73123  -0.625   4.191   0.588  0.1527 -0.1707 -0.4899
17830WAT      O73124   0.750   8.535   5.918  0.8193  0.3545  0.1166
17830WAT     H173125   0.799   8.615   5.898 -1.7973  2.0122 -0.0418
17830WAT     H273126   0.818   8.468   5.930  3.1312  1.0486 -5.6275
17830WAT    EPW73127   0.766   8.536   5.917  0.7791  0.6647 -0.6618
17831WAT      O73128  -3.469   7.319   6.016  0.6317 -0.5953 -0.1888
17831WAT     H173129  -3.436   7.393   5.964  0.6673 -1.7204 -1.8487
17831WAT     H273130  -3.419   7.323   6.097 -1.4800  3.0160  1.1837
17831WAT    EPW73131  -3.458   7.329   6.020  0.3579 -0.2675 -0.2267
17832WAT      O73132   3.093   9.182   7.274  0.0065 -0.6508 -0.3706
17832WAT     H173133   3.144   9.112   7.314 -0.7493 -0.9882  0.0232
17832WAT     H273134   3.005   9.171   7.309  0.1876  1.4437  0.9673
17832WAT    EPW73135   3.088   9.171   7.284 -0.0691 -0.4191 -0.1421
17833WAT      O73136   7.050   5.400   2.530 -0.2233  0.0322  0.2548
17833WAT     H173137   7.084   5.466   2.591  2.2126 -0.6407 -0.2695
17833WAT     H273138   7.126   5.346   2.509 -2.4716 -4.4953  2.4169
17833WAT    EPW73139   7.065   5.402   2.535 -0.1986 -0.6537  0.4708
17834WAT      O73140   1.230   7.374   3.367 -0.0653  0.2488 -0.4480
17834WAT     H173141   1.209   7.309   3.434  2.4240 -0.3521 -0.1321
17834WAT     H273142   1.233   7.324   3.286  0.7752  0.1614 -0.3729
17834WAT    EPW73143   1.228   7.359   3.365  0.3740  0.1581 -0.3964
17835WAT      O73144   2.783   5.388   3.086  0.3994 -0.6598 -0.0000
17835WAT     H173145   2.735   5.413   3.007 -0.2216 -1.1812  0.2074
17835WAT     H273146   2.799   5.295   3.076 -1.1090 -1.0800  1.2253
17835WAT    EPW73147   2.779   5.379   3.074  0.1185 -0.7842  0.1889
17836WAT      O73148   0.083   2.781   4.091 -0.3588  0.2188  0.1554
17836WAT     H173149   0.169   2.819   4.075  2.0039 -3.3292  2.6963
17836WAT     H273150   0.048   2.831   4.165  0.3465  0.6300  0.2195
17836WAT    EPW73151   0.090   2.792   4.099  0.0459 -0.1950  0.4990
17837WAT      O73152   2.370   1.497   0.913 -0.1262 -0.0606 -0.7457
17837WAT     H173153   2.409   1.410   0.906 -0.8958 -0.4211 -0.6337
17837WAT     H273154   2.314   1.505   0.835  1.6489  1.2298 -1.9675
17837WAT    EPW73155   2.367   1.487   0.902  0.0066  0.0621 -0.8920
17838WAT      O73156  -2.916   4.146   3.568 -0.0540  0.1410 -0.0705
17838WAT     H173157  -2.865   4.161   3.647  0.2249  0.1975 -0.2625
17838WAT     H273158  -3.005   4.170   3.593 -0.0726 -0.3675  0.3958
17838WAT    EPW73159  -2.921   4.151   3.582 -0.0196  0.0815 -0.0343
17839WAT      O73160   2.869   5.437   3.805  0.5999  0.0306  0.1441
17839WAT     H173161   2.851   5.531   3.800 -0.1244 -0.0828  0.3991
17839WAT     H273162   2.964   5.430   3.805  0.7721  0.5708 -3.6111
17839WAT    EPW73163   2.879   5.448   3.804  0.5271  0.0870 -0.3176
17840WAT      O73164   5.307   0.706   0.539  0.3176 -0.2159 -0.4403
17840WAT     H173165   5.255   0.779   0.507  1.3083 -0.4828 -2.8395
17840WAT     H273166   5.246   0.655   0.592 -0.9404  1.2348 -0.4184
17840WAT    EPW73167   5.292   0.709   0.542  0.2825 -0.0598 -0.7538
17841WAT      O73168   2.025   5.117   4.977 -0.2560 -0.3963  0.9465
17841WAT     H173169   1.967   5.192   4.962  1.2200  0.8197  1.0112
17841WAT     H273170   2.012   5.061   4.901  0.6359  1.3391 -0.5649
17841WAT    EPW73171   2.016   5.120   4.965  0.0563 -0.0069  0.7558
17842WAT      O73172   1.245   2.407   1.657  0.6299  0.1777 -0.4168
17842WAT     H173173   1.280   2.468   1.723  0.4608 -0.3577  0.1784
17842WAT     H273174   1.158   2.383   1.691 -0.1544  1.1430 -1.6460
17842WAT    EPW73175   1.238   2.412   1.670  0.5042  0.2345 -0.5004
17843WAT      O73176   1.091   1.305   3.405 -0.5651  0.5423  0.8224
17843WAT     H173177   1.100   1.296   3.499 -2.8575  0.8419  1.1287
17843WAT     H273178   1.045   1.226   3.377  0.7272  0.1071 -0.1918
17843WAT    EPW73179   1.086   1.294   3.413 -0.6970  0.5244  0.7290
17844WAT      O73180   1.424   9.573   4.882  0.2025  1.1542  0.3642
17844WAT     H173181   1.487   9.506   4.856  0.1342  1.7297 -1.4284
17844WAT     H273182   1.343   9.550   4.836  0.2760  2.6242 -0.5841
17844WAT    EPW73183   1.422   9.561   4.872  0.2032  1.4238  0.0026
17845WAT      O73184   1.736   2.227   3.891 -0.1128  0.3605 -0.1659
17845WAT     H173185   1.731   2.316   3.926 -1.0487 -0.0306  0.7161
17845WAT     H273186   1.709   2.171   3.963 -1.6202 -0.5032 -1.3539
17845WAT    EPW73187   1.732   2.232   3.905 -0.4350  0.1950 -0.2064
17846WAT      O73188   0.496   1.235   0.796 -0.1834 -0.1377 -0.6345
17846WAT     H173189   0.407   1.268   0.805 -0.2463 -0.3084 -0.6359
17846WAT     H273190   0.549   1.313   0.778  0.1271  0.4604  2.3321
17846WAT    EPW73191   0.491   1.250   0.795 -0.1507 -0.0813 -0.2435
17847WAT      O73192   0.036   6.355   6.242 -0.0849  0.6654  0.1261
17847WAT     H173193   0.100   6.402   6.188  1.4489 -2.4688 -0.9962
17847WAT     H273194   0.089   6.314   6.311 -1.4467  1.0089  1.4231
17847WAT    EPW73195   0.052   6.356   6.244 -0.0622  0.2975  0.1493
17848WAT      O73196   6.181   5.018   0.514 -0.2790  0.4720  0.2651
17848WAT     H173197   6.263   5.014   0.562 -1.7953 -0.2901  2.9698
17848WAT     H273198   6.123   4.956   0.559 -2.1870  0.5551 -1.8886
17848WAT    EPW73199   6.184   5.009   0.526 -0.7305  0.3824  0.3378
17849WAT      O73200   2.411   5.034   8.571 -0.4997  0.2352 -0.3659
17849WAT     H173201   2.380   4.946   8.553 -0.0438 -0.0006 -0.0156
17849WAT     H273202   2.389   5.049   8.664  1.1473 -0.2494  0.1268
17849WAT    EPW73203   2.404   5.025   8.581 -0.2223  0.1402 -0.2546
17850WAT      O73204   4.240   2.402   6.798 -0.1559 -0.8054 -0.4466
17850WAT     H173205   4.180   2.381   6.726 -2.3128 -1.7496  1.4571
17850WAT     H273206   4.206   2.351   6.872  1.2703  0.9407  1.5342
17850WAT    EPW73207   4.227   2.392   6.798 -0.2522 -0.6996  0.0658
17851WAT      O73208  -5.790   7.477   8.806  0.4841  0.1748 -1.1966
17851WAT     H173209  -5.751   7.525   8.879 -2.6630  0.5015  0.4120
17851WAT     H273210  -5.833   7.543   8.753 -1.0396 -0.4883 -0.8312
17851WAT    EPW73211  -5.791   7.492   8.808 -0.1321  0.1304 -0.9360
17852WAT      O73212   4.059   7.863   1.925 -0.4345 -0.6208 -0.1716
17852WAT     H173213   4.055   7.768   1.915  0.6146 -0.6984  0.0051
17852WAT     H273214   4.066   7.877   2.019  1.0058 -0.4724 -0.2704
17852WAT    EPW73215   4.059   7.853   1.936 -0.1063 -0.6115 -0.1613
17853WAT      O73216  -1.588   8.122   0.919  0.1735  0.2027 -1.2534
17853WAT     H173217  -1.508   8.079   0.889 -0.1618 -0.3386 -1.3913
17853WAT     H273218  -1.566   8.215   0.921  0.8848  0.0373 -1.0399
17853WAT    EPW73219  -1.575   8.128   0.915  0.2230  0.1092 -1.2434
17854WAT      O73220  -0.298   2.243   5.382 -0.1533  0.1573 -0.1754
17854WAT     H173221  -0.381   2.277   5.417  0.1497 -0.7257  1.4790
17854WAT     H273222  -0.301   2.265   5.289 -2.8898 -1.0968 -0.4849
17854WAT    EPW73223  -0.309   2.251   5.374 -0.4743 -0.1246  0.0019
17855WAT      O73224   4.779   2.340   1.377 -0.0518  0.0896  0.3671
17855WAT     H173225   4.725   2.399   1.430 -2.2319  0.4349 -2.0485
17855WAT     H273226   4.764   2.254   1.416  0.4258  0.6319  1.8255
17855WAT    EPW73227   4.770   2.336   1.389 -0.2763  0.2066  0.2409
17856WAT      O73228   4.410   4.984   6.638 -0.4072 -0.2155  0.1814
17856WAT     H173229   4.397   4.995   6.544 -1.2900 -1.7583  0.1007
17856WAT     H273230   4.362   5.056   6.677 -1.2542 -0.3958 -0.4965
17856WAT    EPW73231   4.402   4.995   6.630 -0.6354 -0.4427  0.0815
17857WAT      O73232   5.553   6.181   4.785 -0.3026 -0.3705 -0.1098
17857WAT     H173233   5.504   6.129   4.848 -1.7588  0.6570 -0.3390
17857WAT     H273234   5.558   6.127   4.706 -0.9879 -0.5275 -0.0466
17857WAT    EPW73235   5.547   6.167   4.783 -0.5851 -0.2556 -0.1316
17858WAT      O73236  -1.991   4.337   4.262  0.5356  0.2036 -0.2760
17858WAT     H173237  -2.027   4.414   4.305  1.8925  0.4943  0.3902
17858WAT     H273238  -1.904   4.364   4.231 -0.0145 -0.2652 -2.4362
17858WAT    EPW73239  -1.984   4.351   4.263  0.6421  0.1800 -0.4730
17859WAT      O73240   7.512   2.735   1.213 -0.3855  0.2932 -0.0498
17859WAT     H173241   7.562   2.794   1.157  0.5169 -0.6260 -0.2398
17859WAT     H273242   7.539   2.648   1.186 -2.2382 -0.2483 -0.2819
17859WAT    EPW73243   7.522   2.731   1.202 -0.5109  0.1006 -0.1054
17860WAT      O73244  -3.406  10.387   7.397  0.0620  0.3649 -0.7663
17860WAT     H173245  -3.346  10.345   7.335  1.7518  1.2208  0.2061
17860WAT     H273246  -3.492  10.354   7.373  0.6433  0.6030 -3.5131
17860WAT    EPW73247  -3.409  10.377   7.386  0.3615  0.5092 -1.0004
17861WAT      O73248  -4.544   9.240   3.690  0.2987 -0.4390 -0.8144
17861WAT     H173249  -4.639   9.231   3.677 -0.0304 -0.7645  1.3305
17861WAT     H273250  -4.506   9.224   3.604 -1.5026 -2.1579 -1.3759
17861WAT    EPW73251  -4.552   9.236   3.677  0.0176 -0.7086 -0.6053
17862WAT      O73252   4.146   3.520   3.123  0.5677  0.4360  0.1628
17862WAT     H173253   4.163   3.453   3.057  0.3497  1.5714 -1.0675
17862WAT     H273254   4.100   3.473   3.193 -0.3738 -0.5164 -1.0690
17862WAT    EPW73255   4.142   3.505   3.124  0.4148  0.4601 -0.1620
17863WAT      O73256  -1.394   8.161   6.053 -0.3090  0.3702  0.2548
17863WAT     H173257  -1.416   8.188   6.142 -1.2605  1.4307 -0.2812
17863WAT     H273258  -1.305   8.194   6.039 -0.5526  1.1170  0.4444
17863WAT    EPW73259  -1.385   8.169   6.063 -0.4666  0.6089  0.2091
17864WAT      O73260   0.447   0.984   4.426 -0.0888 -0.0450 -0.5775
17864WAT     H173261   0.442   0.896   4.389 -1.1212 -1.0031  1.6619
17864WAT     H273262   0.366   1.026   4.398  1.4559  1.2280 -3.7544
17864WAT    EPW73263   0.436   0.978   4.417 -0.0212 -0.0035 -0.7012
17865WAT      O73264  -6.965   9.500   6.698 -0.5320 -0.2206  0.1132
17865WAT     H173265  -6.996   9.590   6.705  0.4251  0.2740 -1.5391
17865WAT     H273266  -7.037   9.447   6.732 -1.8672  1.0594 -0.6274
17865WAT    EPW73267  -6.979   9.505   6.704 -0.5820  0.0129 -0.2027
17866WAT      O73268  -0.308   6.359   8.327 -0.0828  0.0517 -0.0279
17866WAT     H173269  -0.331   6.442   8.369 -3.6879 -0.5869 -0.4287
17866WAT     H273270  -0.305   6.296   8.400 -1.4088 -0.1577 -0.1329
17866WAT    EPW73271  -0.311   6.362   8.342 -0.7332 -0.0603 -0.0944
17867WAT      O73272  -0.601   4.741   0.474  0.2036  0.6328  0.1582
17867WAT     H173273  -0.536   4.700   0.532 -0.4564 -2.7715 -1.2319
17867WAT     H273274  -0.549   4.773   0.400  0.6407  1.2723  0.7339
17867WAT    EPW73275  -0.585   4.740   0.472  0.1742  0.2682  0.0508
17868WAT      O73276   4.016   6.187   4.243  0.7708  0.0226  0.5508
17868WAT     H173277   3.953   6.219   4.308  0.0933  2.5163 -1.1757
17868WAT     H273278   4.056   6.110   4.283 -1.2938  0.0763  2.9067
17868WAT    EPW73279   4.013   6.181   4.257  0.4091  0.3586  0.6337
17869WAT      O73280  -1.743   7.995   4.315 -0.1051  0.2753 -0.0586
17869WAT     H173281  -1.678   8.039   4.369 -3.4217  1.7419  3.1441
17869WAT     H273282  -1.748   8.048   4.236  1.7555  0.7294  0.0768
17869WAT    EPW73283  -1.735   8.008   4.312 -0.2971  0.5288  0.3817
17870WAT      O73284   4.171   1.281   8.610  0.5110 -0.9791 -0.2408
17870WAT     H173285   4.245   1.279   8.549 -0.6273  1.0391 -1.8274
17870WAT     H273286   4.212   1.284   8.697  2.4019  1.9822 -1.0980
17870WAT    EPW73287   4.187   1.281   8.613  0.6104 -0.3223 -0.5631
17871WAT      O73288  -3.325   1.039   7.316  0.2530  0.6303 -0.0984
17871WAT     H173289  -3.236   1.074   7.319  0.6280 -0.2698 -0.4971
17871WAT     H273290  -3.318   0.958   7.265 -0.6943  0.2746  0.3034
17871WAT    EPW73291  -3.312   1.033   7.310  0.1776  0.4647 -0.0978
17872WAT      O73292  -2.871   7.554   6.913 -0.3795  0.1886 -0.4288
17872WAT     H173293  -2.796   7.495   6.906  1.0139  1.3701  2.6247
17872WAT     H273294  -2.910   7.533   6.998 -1.9358  1.3665 -0.8096
17872WAT    EPW73295  -2.866   7.543   6.923 -0.4011  0.4997 -0.0763
17873WAT      O73296   2.314   3.558   2.209 -0.2602 -0.0589 -0.4091
17873WAT     H173297   2.258   3.528   2.137 -0.7180 -0.1469 -0.0211
17873WAT     H273298   2.261   3.547   2.288  1.2257 -2.8170  0.3502
17873WAT    EPW73299   2.300   3.552   2.210 -0.1245 -0.4342 -0.2577
17874WAT      O73300  -5.712   8.075   8.658 -0.5302  0.4009 -0.2256
17874WAT     H173301  -5.630   8.051   8.615  0.4384  0.3782  1.5543
17874WAT     H273302  -5.742   8.153   8.611  0.0258 -0.0989 -1.4488
17874WAT    EPW73303  -5.705   8.082   8.646 -0.3293  0.3319 -0.1521
17875WAT      O73304   2.306   5.251   1.719 -0.0457  0.1091 -0.1526
17875WAT     H173305   2.236   5.273   1.658 -0.8298 -1.7489 -0.0100
17875WAT     H273306   2.332   5.162   1.694 -0.2795 -0.6446  2.0806
17875WAT    EPW73307   2.300   5.242   1.708 -0.1799 -0.2356  0.1608
17876WAT      O73308   0.988   4.448   2.401  0.1678 -0.3631  0.9903
17876WAT     H173309   0.960   4.475   2.314  0.3682  2.5096  1.6862
17876WAT     H273310   0.922   4.385   2.430 -2.6620  2.1303  0.5111
17876WAT    EPW73311   0.976   4.444   2.393 -0.1791  0.3448  1.0189
17877WAT      O73312   6.425   1.391   3.256  0.0789 -0.1856 -0.4900
17877WAT     H173313   6.471   1.323   3.208 -0.7356 -1.3474  0.3291
17877WAT     H273314   6.356   1.420   3.196  0.3666 -0.1422 -0.8019
17877WAT    EPW73315   6.422   1.386   3.242  0.0093 -0.3331 -0.4231
17878WAT      O73316   7.535   2.096   2.789 -0.1864 -0.1515  0.4148
17878WAT     H173317   7.508   2.004   2.798 -2.3125  0.3499 -0.1970
17878WAT     H273318   7.509   2.136   2.872 -2.3179  0.5310 -0.5149
17878WAT    EPW73319   7.528   2.089   2.801 -0.7479  0.0048  0.2115
17879WAT      O73320   3.948   0.093   2.456 -0.1637 -0.4017  0.5735
17879WAT     H173321   3.964   0.121   2.547 -0.6654  0.5605  0.3842
17879WAT     H273322   4.024   0.127   2.408  0.4451 -1.5027  0.7319
17879WAT    EPW73323   3.960   0.101   2.462 -0.1496 -0.4200  0.5693
17880WAT      O73324   4.236   2.327   1.198  0.2098 -0.2873  0.1774
17880WAT     H173325   4.175   2.268   1.153 -1.7204  2.2608 -0.8035
17880WAT     H273326   4.191   2.350   1.279  0.6659  0.2699  0.2764
17880WAT    EPW73327   4.222   2.322   1.203  0.0153  0.1223  0.0611
17881WAT      O73328   7.562   6.133   1.408 -0.6913 -0.5683  0.8073
17881WAT     H173329   7.578   6.148   1.501  2.3360 -1.0307  0.4482
17881WAT     H273330   7.542   6.220   1.373 -0.8295 -0.2287  1.6912
17881WAT    EPW73331   7.561   6.146   1.416 -0.3102 -0.5844  0.8765
17882WAT      O73332   1.825   6.093   4.042 -0.8053  0.3828  0.4151
17882WAT     H173333   1.785   6.179   4.050 -1.3448  0.0894  0.9107
17882WAT     H273334   1.813   6.052   4.128 -1.5923 -0.6271 -0.1537
17882WAT    EPW73335   1.818   6.099   4.054 -0.9802  0.2108  0.4055
17883WAT      O73336   1.300   6.455   4.758 -0.3255  0.7746 -0.7254
17883WAT     H173337   1.375   6.438   4.815 -2.7842 -1.8543  2.0643
17883WAT     H273338   1.315   6.400   4.681 -1.2840 -3.4811  1.8233
17883WAT    EPW73339   1.312   6.446   4.755 -0.7762 -0.1333 -0.0212
17884WAT      O73340   3.472  10.218   2.275 -0.2115  0.7584 -0.1260
17884WAT     H173341   3.504  10.154   2.338  0.4339  0.9485 -0.2518
17884WAT     H273342   3.392  10.253   2.314  0.1309  0.8065  0.5409
17884WAT    EPW73343   3.466  10.214   2.288 -0.0812  0.7896 -0.0546
17885WAT      O73344   0.970  10.038   2.533  0.3862 -0.8607  0.0143
17885WAT     H173345   0.932   9.995   2.609 -1.4575 -1.7887 -1.3646
17885WAT     H273346   0.905  10.026   2.463  2.2087 -0.4649 -1.8440
17885WAT    EPW73347   0.956  10.031   2.533  0.3834 -0.9313 -0.4126
17886WAT      O73348  -0.574   5.834   2.102 -0.7599  0.5188  0.4891
17886WAT     H173349  -0.667   5.839   2.084 -1.2945  0.0666  2.7436
17886WAT     H273350  -0.559   5.742   2.125  0.7989 -0.0188 -2.2488
17886WAT    EPW73351  -0.584   5.822   2.103 -0.6248  0.3884  0.4252
17887WAT      O73352   6.487   0.819   4.445 -0.4959 -0.0586  0.5362
17887WAT     H173353   6.545   0.780   4.510 -1.2531 -0.0613  1.2336
17887WAT     H273354   6.405   0.834   4.492 -0.2748  2.3099  0.2575
17887WAT    EPW73355   6.484   0.816   4.459 -0.5667  0.2534  0.5915
17888WAT      O73356   2.530   3.728   8.110  0.4896  0.2139  0.7140
17888WAT     H173357   2.622   3.705   8.107  0.5677  0.5394  0.5745
17888WAT     H273358   2.518   3.790   8.038  0.0444 -0.2549  0.3652
17888WAT    EPW73359   2.540   3.733   8.100  0.4412  0.1950  0.6495
17889WAT      O73360  -0.172   8.591   8.263  0.2831  0.4783  0.1394
17889WAT     H173361  -0.133   8.510   8.230 -0.2810  0.5013 -0.6157
17889WAT     H273362  -0.263   8.568   8.281  1.0430 -0.1707  4.0044
17889WAT    EPW73363  -0.179   8.577   8.261  0.3089  0.3958  0.5498
17890WAT      O73364   6.653   4.773   2.602  0.0336  1.0700  0.5641
17890WAT     H173365   6.560   4.780   2.579 -0.9035  1.5354  3.9617
17890WAT     H273366   6.675   4.858   2.640  1.9918  1.0688 -0.4258
17890WAT    EPW73367   6.644   4.785   2.604  0.1683  1.1313  0.8818
17891WAT      O73368   0.130   3.260   0.595  0.0897 -0.5934 -0.2502
17891WAT     H173369   0.035   3.261   0.585  0.1662 -1.0330 -1.0283
17891WAT     H273370   0.157   3.172   0.570  0.8609 -0.0117 -1.5770
17891WAT    EPW73371   0.121   3.249   0.590  0.2015 -0.5747 -0.5278
17892WAT      O73372   3.793   2.733   2.225  0.1043  0.5917  0.3695
17892WAT     H173373   3.880   2.772   2.214  1.3435 -1.1053  3.0451
17892WAT     H273374   3.805   2.640   2.204 -0.7313  0.1079  1.8496
17892WAT    EPW73375   3.806   2.726   2.221  0.1576  0.3041  0.9177
17893WAT      O73376  -1.029   4.232   4.442  0.2147  0.2248 -0.1821
17893WAT     H173377  -0.992   4.289   4.374 -1.5988 -1.0739 -2.4087
17893WAT     H273378  -1.028   4.144   4.403  0.3642 -0.8462  2.0483
17893WAT    EPW73379  -1.024   4.228   4.428 -0.0048 -0.0877 -0.1817
17894WAT      O73380   2.394   4.465   2.724 -0.1500  0.0817 -0.2564
17894WAT     H173381   2.425   4.442   2.637  0.4633 -0.3859  0.0822
17894WAT     H273382   2.456   4.423   2.784 -0.0076  1.1800  0.3925
17894WAT    EPW73383   2.406   4.457   2.720 -0.0503  0.1647 -0.1261
17895WAT      O73384   3.902   0.562   0.362 -0.6164  0.4044 -0.1623
17895WAT     H173385   3.842   0.541   0.433  0.1320 -1.3988 -0.0162
17895WAT     H273386   3.985   0.583   0.406 -0.4777  0.4791 -0.4542
17895WAT    EPW73387   3.905   0.562   0.377 -0.4994  0.1765 -0.1816
17896WAT      O73388   1.306   8.138   3.227 -0.0899 -0.5824 -0.3038
17896WAT     H173389   1.363   8.215   3.216  1.1190 -1.3040  0.5967
17896WAT     H273390   1.285   8.137   3.320  0.4845 -1.7114 -0.1655
17896WAT    EPW73391   1.311   8.148   3.238  0.1453 -0.8259 -0.1668
17897WAT      O73392   4.354   2.744   3.540 -0.3901 -0.0566  0.0541
17897WAT     H173393   4.312   2.808   3.482 -0.6427 -0.5140 -0.2768
17897WAT     H273394   4.302   2.665   3.529  1.9617 -1.4792 -2.3500
17897WAT    EPW73395   4.342   2.742   3.531 -0.1132 -0.3046 -0.3066
17898WAT      O73396   4.429   2.736   5.337  0.0026 -0.5978 -0.5152
17898WAT     H173397   4.354   2.791   5.316  0.9299  0.6810 -0.5489
17898WAT     H273398   4.482   2.788   5.398  0.7518 -1.5678 -0.3034
17898WAT    EPW73399   4.426   2.750   5.343  0.2236 -0.5571 -0.4919
17899WAT      O73400   0.810  10.305   1.940 -0.1732  0.2743 -0.2129
17899WAT     H173401   0.754  10.368   1.895 -1.0519 -0.0766  0.3712
17899WAT     H273402   0.752  10.261   2.002  0.3552 -1.2840 -0.7754
17899WAT    EPW73403   0.795  10.307   1.942 -0.2194  0.0224 -0.2100
17900WAT      O73404   3.044   8.722   7.309  0.0046 -0.2553 -1.2049
17900WAT     H173405   2.955   8.701   7.279 -1.8426  1.6809  2.2616
17900WAT     H273406   3.067   8.650   7.368 -0.2144  0.2439 -0.4882
17900WAT    EPW73407   3.035   8.710   7.313 -0.2680  0.0663 -0.6530
17901WAT      O73408   3.758   2.045   8.487  0.4844  0.8416 -0.3205
17901WAT     H173409   3.736   1.993   8.565  1.3060  0.8272 -0.0892
17901WAT     H273410   3.801   1.983   8.428 -0.0449  0.8772 -0.7509
17901WAT    EPW73411   3.761   2.030   8.490  0.5229  0.8445 -0.3467
17902WAT      O73412   4.481   4.360   5.143  0.2146 -0.3362  0.2242
17902WAT     H173413   4.522   4.377   5.228  0.5072 -0.3591  0.0910
17902WAT     H273414   4.515   4.428   5.085 -1.8279  1.1481  0.6816
17902WAT    EPW73415   4.491   4.371   5.146 -0.0162 -0.1433  0.2668
17903WAT      O73416  -3.917   6.018   5.465 -0.2382  0.2476 -0.3653
17903WAT     H173417  -3.942   5.931   5.497 -0.0347  0.0677 -0.6953
17903WAT     H273418  -3.972   6.078   5.515  0.1624 -0.0218  0.4269
17903WAT    EPW73419  -3.928   6.014   5.476 -0.1584  0.1884 -0.3042
17904WAT      O73420   2.417   6.903   8.353  0.5675 -0.4582  0.4880
17904WAT     H173421   2.497   6.943   8.386 -1.0184  2.3256  1.2806
17904WAT     H273422   2.409   6.935   8.263  0.0878 -0.2701  0.5924
17904WAT    EPW73423   2.426   6.913   8.346  0.2952 -0.0663  0.6065
17905WAT      O73424   8.259   0.611   1.247 -0.3184 -0.3831  0.0026
17905WAT     H173425   8.354   0.606   1.242 -0.0691 -1.0321  3.2076
17905WAT     H273426   8.231   0.519   1.250 -0.9589 -0.1935 -0.0485
17905WAT    EPW73427   8.268   0.598   1.247 -0.3705 -0.4437  0.4186
17906WAT      O73428  -3.485   5.662   8.917  0.2383 -0.1851 -0.9488
17906WAT     H173429  -3.528   5.714   8.985  1.0886 -3.0709  2.0389
17906WAT     H273430  -3.557   5.624   8.867 -0.4943  0.4154 -0.3694
17906WAT    EPW73431  -3.500   5.664   8.920  0.2538 -0.4866 -0.4783
17907WAT      O73432   2.962   3.592   4.968 -0.4885 -0.1764  0.3507
17907WAT     H173433   2.961   3.534   5.044 -1.5506  0.5810  0.9500
17907WAT     H273434   2.911   3.668   4.996  0.5219  0.8616 -0.5565
17907WAT    EPW73435   2.955   3.594   4.982 -0.4953  0.0604  0.3102
17908WAT      O73436  -4.741   1.702   6.746 -0.6517 -0.3891  0.2524
17908WAT     H173437  -4.709   1.621   6.785 -0.2078 -1.0851 -1.5079
17908WAT     H273438  -4.664   1.742   6.706 -1.4111 -0.6666 -1.5785
17908WAT    EPW73439  -4.726   1.697   6.746 -0.6933 -0.5175 -0.2213
17909WAT      O73440   1.099   9.185   0.766 -0.2023 -0.3349 -0.2146
17909WAT     H173441   1.107   9.262   0.709  1.2328 -1.4481 -1.5958
17909WAT     H273442   1.006   9.163   0.764 -0.5165  0.8961 -0.4040
17909WAT    EPW73443   1.088   9.193   0.759 -0.0545 -0.3195 -0.4217
17910WAT      O73444  -0.651   1.559   5.006  0.2504  0.2627  0.2488
17910WAT     H173445  -0.615   1.645   5.028 -0.6601  0.5729  0.5567
17910WAT     H273446  -0.670   1.519   5.091 -0.5057  0.2681  0.0851
17910WAT    EPW73447  -0.649   1.565   5.020  0.0306  0.3043  0.2677
17911WAT      O73448   2.961   9.757   1.413 -0.3373 -1.0756 -0.4857
17911WAT     H173449   2.935   9.703   1.488 -0.8313 -1.2426 -0.7683
17911WAT     H273450   2.888   9.820   1.403  1.5234  1.6745  1.7108
17911WAT    EPW73451   2.948   9.758   1.421 -0.1570 -0.7348 -0.2333
17912WAT      O73452   2.867   8.829   4.469 -0.2126 -0.3091  0.1087
17912WAT     H173453   2.946   8.791   4.432 -1.3563  0.4431 -3.5744
17912WAT     H273454   2.795   8.781   4.428 -1.7283  0.0127  2.1834
17912WAT    EPW73455   2.868   8.818   4.459 -0.5634 -0.1678 -0.1035
17913WAT      O73456   0.043   6.455   1.376 -0.0724  0.5078 -0.1458
17913WAT     H173457   0.020   6.412   1.458  1.0617 -1.3972 -0.7719
17913WAT     H273458  -0.039   6.459   1.327  0.0783 -3.1159 -0.9822
17913WAT    EPW73459   0.029   6.450   1.380  0.0970 -0.2215 -0.3387
17914WAT      O73460  -1.395   4.734   7.316 -0.0827  0.0352 -0.3928
17914WAT     H173461  -1.370   4.783   7.237  0.5544  1.6088  0.7223
17914WAT     H273462  -1.489   4.721   7.307 -0.0146  0.1880 -1.4254
17914WAT    EPW73463  -1.404   4.739   7.304  0.0103  0.2630 -0.3819
17915WAT      O73464   0.061   4.396   4.215 -0.4584 -0.2822  0.3886
17915WAT     H173465   0.143   4.426   4.253  0.7106  0.3284 -2.3292
17915WAT     H273466   0.019   4.475   4.181 -2.5812 -0.4853  2.2895
17915WAT    EPW73467   0.066   4.410   4.215 -0.5842 -0.2286  0.2809
17916WAT      O73468   2.397   0.745   1.611  0.3024  0.0513  0.5136
17916WAT     H173469   2.364   0.807   1.676  1.4402  2.4417 -1.0571
17916WAT     H273470   2.326   0.738   1.547  0.5218  0.4825  0.2181
17916WAT    EPW73471   2.383   0.753   1.611  0.4814  0.4234  0.2676
17917WAT      O73472   2.624   5.996   1.818  0.7191  0.2907  0.2437
17917WAT     H173473   2.633   6.054   1.742 -0.0951  0.0372 -0.0645
17917WAT     H273474   2.710   5.995   1.858  1.4981 -0.4928 -1.3555
17917WAT    EPW73475   2.636   6.003   1.813  0.7144  0.1538 -0.0079
17918WAT      O73476   4.286   2.470   7.795 -0.4134  0.3393 -0.0798
17918WAT     H173477   4.319   2.558   7.816 -1.2018  0.5411  0.3639
17918WAT     H273478   4.193   2.474   7.817 -0.4704 -0.5945 -0.1199
17918WAT    EPW73479   4.278   2.482   7.800 -0.5248  0.2428 -0.0267
17919WAT      O73480  -4.529   1.486   8.541 -0.2012  0.2470  0.5600
17919WAT     H173481  -4.475   1.487   8.462 -3.9257  1.5968 -2.2451
17919WAT     H273482  -4.566   1.574   8.547 -2.6820 -0.7779  1.7848
17919WAT    EPW73483  -4.527   1.498   8.531 -1.0197  0.2899  0.3514
17920WAT      O73484   3.184   9.635   2.634 -1.0311 -0.0621 -0.6622
17920WAT     H173485   3.114   9.682   2.587 -0.6896  0.8521 -0.2853
17920WAT     H273486   3.252   9.701   2.647 -0.5742 -0.6492 -0.0171
17920WAT    EPW73487   3.184   9.650   2.630 -0.9258 -0.0186 -0.5273
17921WAT      O73488   3.894   3.670   7.651  0.6819  0.1511  0.4374
17921WAT     H173489   3.891   3.742   7.588 -1.2618 -0.9886 -0.8893
17921WAT     H273490   3.919   3.594   7.599  0.4857 -0.5512  1.3562
17921WAT    EPW73491   3.897   3.670   7.636  0.3996 -0.0918  0.3836
17922WAT      O73492   1.975   9.644   0.795 -0.0863  0.5303 -0.9897
17922WAT     H173493   1.978   9.554   0.763 -0.0939 -0.1578  0.8199
17922WAT     H273494   2.060   9.657   0.837  0.2518  1.6926 -1.9784
17922WAT    EPW73495   1.987   9.634   0.796 -0.0427  0.5932 -0.8815
17923WAT      O73496   1.825   2.492   4.778  0.1141  0.2500 -0.7143
17923WAT     H173497   1.864   2.458   4.697 -0.0441  1.7091 -1.4489
17923WAT     H273498   1.896   2.489   4.842  0.6944  0.4854 -1.3303
17923WAT    EPW73499   1.840   2.487   4.776  0.1698  0.4735 -0.8924
17924WAT      O73500  -4.311   2.774   8.192 -0.0993  0.7246 -0.5418
17924WAT     H173501  -4.240   2.751   8.132 -1.3827 -0.9945 -1.4901
17924WAT     H273502  -4.268   2.820   8.264  1.8535  0.4273 -1.4644
17924WAT    EPW73503  -4.296   2.777   8.193 -0.0110  0.4586 -0.7887
17925WAT      O73504   5.733   6.486   3.424  0.1483  0.0454  0.3570
17925WAT     H173505   5.741   6.530   3.339 -0.4309 -0.6821 -0.0814
17925WAT     H273506   5.641   6.495   3.448  0.2367 -0.0558  0.7516
17925WAT    EPW73507   5.722   6.493   3.416  0.0839 -0.0639  0.3513
17926WAT      O73508   5.956   6.477   1.380  0.2427  0.2235 -0.3487
17926WAT     H173509   5.956   6.560   1.428  2.4865  0.0243  0.0845
17926WAT     H273510   5.947   6.410   1.449 -2.9230  0.0299 -0.7801
17926WAT    EPW73511   5.955   6.479   1.396  0.1211  0.1717 -0.3485
17927WAT      O73512  -0.081   6.604   7.901  0.3212  0.7663 -0.4165
17927WAT     H173513  -0.077   6.653   7.819 -0.2383 -0.4901 -1.2168
17927WAT     H273514  -0.032   6.658   7.963  3.0685  0.5320 -2.1970
17927WAT    EPW73515  -0.074   6.618   7.898  0.6098  0.5698 -0.7567
17928WAT      O73516   4.398   1.251   0.328  0.4595 -0.6943  0.9701
17928WAT     H173517   4.332   1.235   0.260  2.2564 -0.3685 -0.9752
17928WAT     H273518   4.348   1.275   0.405 -1.7134 -1.3795 -0.1438
17928WAT    EPW73519   4.383   1.252   0.329  0.4098 -0.7417  0.5666
17929WAT      O73520  -6.443   9.352   7.585 -0.4492 -0.7806 -0.1784
17929WAT     H173521  -6.532   9.351   7.620  0.0850  1.5738  1.4895
17929WAT     H273522  -6.394   9.291   7.641 -0.5972 -0.5750  0.1757
17929WAT    EPW73523  -6.448   9.343   7.597 -0.3984 -0.4430  0.0885
17930WAT      O73524  -4.363   3.752   7.385 -0.0765 -0.1725 -0.0886
17930WAT     H173525  -4.420   3.721   7.455 -1.6017 -0.5663 -1.4344
17930WAT     H273526  -4.397   3.839   7.362 -0.7877 -0.8050 -1.5497
17930WAT    EPW73527  -4.375   3.760   7.391 -0.3715 -0.3078 -0.4590
17931WAT      O73528   0.595   8.765   6.071  0.3188 -0.0905  0.4391
17931WAT     H173529   0.524   8.725   6.122 -1.3114  0.5153 -1.2453
17931WAT     H273530   0.638   8.691   6.028 -0.2840 -0.3479  0.2666
17931WAT    EPW73531   0.591   8.750   6.072  0.0243 -0.0448  0.1941
17932WAT      O73532   3.134   1.807   0.337 -0.2872 -0.3894  0.3839
17932WAT     H173533   3.208   1.751   0.361  0.4494  0.7761  0.9048
17932WAT     H273534   3.142   1.883   0.394 -1.1866  0.3208 -0.4030
17932WAT    EPW73535   3.145   1.810   0.347 -0.3088 -0.1420  0.3489
17933WAT      O73536   7.327   4.326   1.102 -0.5271 -0.5510  0.3267
17933WAT     H173537   7.283   4.407   1.130  0.7294  0.3839 -0.3037
17933WAT     H273538   7.299   4.315   1.011  2.6190  1.6417 -1.0587
17933WAT    EPW73539   7.317   4.336   1.093  0.0536 -0.1388  0.0609
17934WAT      O73540  -7.449   7.753   8.941  0.2736 -0.3200  0.3539
17934WAT     H173541  -7.539   7.780   8.960  0.1948  0.4763 -1.0555
17934WAT     H273542  -7.403   7.834   8.921  0.4180 -1.0082 -2.4627
17934WAT    EPW73543  -7.454   7.767   8.941  0.2823 -0.3059 -0.2036
17935WAT      O73544  -8.223   9.679   8.444  0.2092 -0.2270 -0.7334
17935WAT     H173545  -8.291   9.707   8.383  0.6427 -0.8243 -1.5140
17935WAT     H273546  -8.270   9.627   8.509 -0.3134  0.7274 -0.3281
17935WAT    EPW73547  -8.238   9.676   8.444  0.1974 -0.1798 -0.7830
17936WAT      O73548   7.712   5.763   0.159 -0.0171  0.0434  0.3104
17936WAT     H173549   7.747   5.765   0.248  0.0847  0.4502  0.2660
17936WAT     H273550   7.777   5.714   0.109 -1.5942 -3.0741  1.0688
17936WAT    EPW73551   7.725   5.757   0.164 -0.2117 -0.3140  0.4046
17937WAT      O73552   0.473   7.102   0.951  0.0151 -0.7172  0.2407
17937WAT     H173553   0.491   7.184   0.905  2.7485 -0.0960  2.1686
17937WAT     H273554   0.540   7.042   0.919 -1.3048 -1.9228 -0.3552
17937WAT    EPW73555   0.484   7.105   0.941  0.2015 -0.7942  0.4164
17938WAT      O73556   6.713   3.194   1.244  0.0900 -0.5438  0.1119
17938WAT     H173557   6.619   3.215   1.242  0.1745 -0.1902 -0.1817
17938WAT     H273558   6.742   3.222   1.331 -0.5722 -2.8377  1.1386
17938WAT    EPW73559   6.704   3.200   1.256  0.0136 -0.7998  0.2086
17939WAT      O73560  -3.374   5.308   4.325  0.3375  0.6110  0.7779
17939WAT     H173561  -3.452   5.345   4.283  0.4285 -0.2311 -0.1536
17939WAT     H273562  -3.317   5.383   4.339  0.1719  0.9549 -0.3124
17939WAT    EPW73563  -3.377   5.323   4.321  0.3276  0.5453  0.5112
17940WAT      O73564  -2.257   6.181   8.039  0.4182  0.5330 -0.3968
17940WAT     H173565  -2.211   6.180   8.123  0.4282  0.3961 -0.4036
17940WAT     H273566  -2.338   6.229   8.056  0.6746  0.9948 -0.4430
17940WAT    EPW73567  -2.262   6.187   8.052  0.4534  0.5758 -0.4034
17941WAT      O73568  -0.651   8.759   4.708  0.0380 -0.6175 -0.5528
17941WAT     H173569  -0.567   8.803   4.692  0.6187 -1.3925  0.3370
17941WAT     H273570  -0.699   8.771   4.626  0.2340  1.5181 -0.4218
17941WAT    EPW73571  -0.646   8.767   4.695  0.1404 -0.4382 -0.4182
17942WAT      O73572   3.264   2.719   7.162  0.5487  0.0277 -0.0241
17942WAT     H173573   3.329   2.671   7.211 -1.0630 -0.5036  1.7057
17942WAT     H273574   3.314   2.771   7.099  2.5587 -0.7667  0.8599
17942WAT    EPW73575   3.279   2.720   7.160  0.6013 -0.1471  0.3207
17943WAT      O73576  -0.997   0.516   4.943 -0.2144  0.3959  0.1295
17943WAT     H173577  -0.995   0.466   5.024 -0.8263  0.6776  0.3232
17943WAT     H273578  -1.090   0.524   4.921 -0.0919  0.8757 -0.2526
17943WAT    EPW73579  -1.009   0.511   4.951 -0.2790  0.4963  0.1044
17944WAT      O73580   3.072   4.347   8.784 -0.5381 -0.1065  0.2836
17944WAT     H173581   3.156   4.392   8.777 -1.2078  1.4927  1.6964
17944WAT     H273582   3.066   4.320   8.875 -1.9938  0.7618  0.4846
17944WAT    EPW73583   3.082   4.349   8.795 -0.8185  0.2191  0.4964
17945WAT      O73584  -0.199   4.194   1.119 -0.6018 -0.8988  1.0377
17945WAT     H173585  -0.287   4.178   1.087  0.6253 -0.4157 -3.2161
17945WAT     H273586  -0.182   4.286   1.100  0.4485 -0.6723  2.8637
17945WAT    EPW73587  -0.208   4.204   1.112 -0.3015 -0.8051  0.7175
17946WAT      O73588  -2.365   1.855   2.831 -0.5260 -0.6805  0.2717
17946WAT     H173589  -2.409   1.836   2.748 -0.3555 -0.3292  0.0963
17946WAT     H273590  -2.297   1.787   2.838 -0.4879 -0.6629  0.0830
17946WAT    EPW73591  -2.362   1.843   2.821 -0.4985 -0.6318  0.2238
17947WAT      O73592  -2.446   1.163   6.181 -0.0005  0.0583  0.4583
17947WAT     H173593  -2.375   1.105   6.154  0.3057 -0.3933  2.1187
17947WAT     H273594  -2.439   1.167   6.277 -1.8349  0.4972  0.6140
17947WAT    EPW73595  -2.435   1.156   6.190 -0.2021  0.0566  0.6979
17948WAT      O73596   0.463   7.965   2.356 -0.6469 -0.6898  0.1747
17948WAT     H173597   0.427   7.887   2.314 -2.4153  0.3875 -0.3880
17948WAT     H273598   0.398   8.033   2.340  0.0937  0.5191  2.0197
17948WAT    EPW73599   0.449   7.963   2.349 -0.7824 -0.3886  0.3438
17949WAT      O73600   1.254   8.243   1.235  0.1512 -0.3027 -0.6771
17949WAT     H173601   1.249   8.150   1.256 -0.0986  0.0320  0.7963
17949WAT     H273602   1.316   8.278   1.299 -1.3444  0.9189  0.1404
17949WAT    EPW73603   1.262   8.235   1.246 -0.0790 -0.0978 -0.3749
17950WAT      O73604   8.403   1.530   0.032  0.3530 -0.2159 -0.0732
17950WAT     H173605   8.332   1.588   0.060 -0.1394 -0.6914 -0.3314
17950WAT     H273606   8.359   1.449   0.005  0.7953  0.2845 -2.4463
17950WAT    EPW73607   8.388   1.527   0.032  0.3467 -0.2126 -0.4202
17951WAT      O73608   2.968   7.138   3.400  0.0039 -1.1148 -0.3922
17951WAT     H173609   2.968   7.207   3.466 -3.9082  0.2584 -1.5365
17951WAT     H273610   3.051   7.149   3.354  1.2577  0.1839  1.9710
17951WAT    EPW73611   2.979   7.148   3.403 -0.3468 -0.7622 -0.2315
17952WAT      O73612  -0.400   9.753   8.344  0.1821  0.3872 -0.2476
17952WAT     H173613  -0.322   9.801   8.319  0.5440 -0.9352 -1.7930
17952WAT     H273614  -0.391   9.667   8.302 -0.9603 -0.6648  1.4954
17952WAT    EPW73615  -0.389   9.748   8.335  0.0791  0.0739 -0.2213
17953WAT      O73616  -0.012   1.877   3.265  0.0601 -1.2771 -1.0831
17953WAT     H173617  -0.054   1.845   3.185 -1.3126  1.3676 -1.5409
17953WAT     H273618   0.054   1.940   3.234 -0.5468 -0.1477 -0.1778
17953WAT    EPW73619  -0.009   1.881   3.250 -0.2010 -0.7793 -1.0240
17954WAT      O73620   2.457   3.609   5.605 -0.0878  0.0577 -0.0366
17954WAT     H173621   2.470   3.666   5.529 -1.2011 -0.2444 -0.4763
17954WAT     H273622   2.381   3.556   5.582  0.8989 -1.6112  0.3720
17954WAT    EPW73623   2.449   3.610   5.592 -0.1044 -0.2023 -0.0410
17955WAT      O73624  -5.801   7.262   7.422 -0.2662 -1.0915 -0.0797
17955WAT     H173625  -5.771   7.323   7.489 -1.8820 -0.1847 -0.1233
17955WAT     H273626  -5.836   7.187   7.470 -0.0526 -1.1124  0.0413
17955WAT    EPW73627  -5.802   7.260   7.437 -0.4513 -0.9749 -0.0694
17956WAT      O73628  -0.499   1.242   0.327 -0.0883  0.5036  0.0983
17956WAT     H173629  -0.415   1.271   0.364 -0.2777  0.1198  0.8431
17956WAT     H273630  -0.475   1.208   0.241  0.8222 -1.2662  1.0004
17956WAT    EPW73631  -0.485   1.241   0.321  0.0068  0.2196  0.3155
17957WAT      O73632   5.386   2.575   2.113 -0.1813  0.3931  0.0166
17957WAT     H173633   5.422   2.495   2.153 -4.1206 -2.9594 -2.3317
17957WAT     H273634   5.360   2.629   2.186  0.8682 -1.3393  1.7856
17957WAT    EPW73635   5.388   2.571   2.128 -0.5624 -0.2775 -0.0597
17958WAT      O73636  -0.935  10.207   3.055 -0.0616 -0.0633  0.5123
17958WAT     H173637  -0.976  10.289   3.083 -1.9583 -0.3603 -1.1362
17958WAT     H273638  -1.008  10.144   3.051  0.8764 -1.1197 -0.7715
17958WAT    EPW73639  -0.950  10.209   3.058 -0.1881 -0.2418  0.1256
17959WAT      O73640   1.556  10.026   7.093  0.4977 -0.0182  0.9894
17959WAT     H173641   1.551  10.040   6.999 -0.0956 -0.0861  1.0040
17959WAT     H273642   1.620   9.955   7.104 -0.4783 -1.0082  0.5257
17959WAT    EPW73643   1.564  10.018   7.082  0.2908 -0.1578  0.9301
17960WAT      O73644   2.132   3.207   7.373 -0.4310 -0.6532 -0.2168
17960WAT     H173645   2.146   3.227   7.280  1.3782 -0.9606 -0.0360
17960WAT     H273646   2.126   3.292   7.415  0.2205 -0.5022 -0.4196
17960WAT    EPW73647   2.133   3.220   7.366 -0.1065 -0.6738 -0.2196
17961WAT      O73648  -6.570   7.856   8.972 -0.0631 -0.3312  0.2001
17961WAT     H173649  -6.648   7.872   9.025  0.5944 -0.1870  1.1591
17961WAT     H273650  -6.560   7.935   8.919  0.1501  0.2005  1.0145
17961WAT    EPW73651  -6.579   7.868   8.972  0.0518 -0.2420  0.4340
17962WAT      O73652  -3.185   2.788   7.877 -0.0430  0.4504  0.2379
17962WAT     H173653  -3.228   2.714   7.921 -1.4354 -1.2280 -3.4428
17962WAT     H273654  -3.221   2.785   7.788  2.5483  3.4552 -1.0651
17962WAT    EPW73655  -3.196   2.778   7.871  0.1152  0.6254 -0.4194
17963WAT      O73656  -2.292   5.871   7.418 -0.0680 -0.3092 -0.6023
17963WAT     H173657  -2.264   5.824   7.339  1.1714  2.2665 -1.8276
17963WAT     H273658  -2.215   5.923   7.443 -0.9598  0.1250  1.3733
17963WAT    EPW73659  -2.278   5.872   7.411 -0.0222  0.0877 -0.5031
17964WAT      O73660   3.672   0.225   5.625  0.3603 -0.4760 -0.1695
17964WAT     H173661   3.681   0.134   5.596 -0.7546  0.0553 -2.4274
17964WAT     H273662   3.752   0.268   5.596  0.1233 -0.3831 -0.7041
17964WAT    EPW73663   3.684   0.219   5.617  0.1820 -0.3937 -0.5379
17965WAT      O73664   0.935   5.123   2.842 -0.5586 -0.1257 -0.5847
17965WAT     H173665   0.976   5.041   2.813 -0.5974  0.7438 -3.4486
17965WAT     H273666   1.002   5.166   2.894  0.3243 -0.9717 -0.9848
17965WAT    EPW73667   0.949   5.118   2.845 -0.4472 -0.1225 -1.0152
17966WAT      O73668   6.119   3.742   4.122  0.2109  0.6011 -0.4781
17966WAT     H173669   6.138   3.836   4.118 -0.9285  0.8525 -0.6032
17966WAT     H273670   6.191   3.701   4.075 -0.6356  1.6593 -2.9216
17966WAT    EPW73671   6.131   3.749   4.115 -0.0510  0.7738 -0.8166
17967WAT      O73672  -3.677  10.322   7.321  0.5074 -0.7664  0.2960
17967WAT     H173673  -3.685  10.236   7.278  0.9510 -0.8707  0.4194
17967WAT     H273674  -3.763  10.336   7.361  0.5792 -1.3725  0.6777
17967WAT    EPW73675  -3.689  10.312   7.321  0.5754 -0.8602  0.3626
17968WAT      O73676   6.354   0.835   5.201  0.0665  0.1941  0.0442
17968WAT     H173677   6.445   0.861   5.186  0.3651 -1.6203 -1.7961
17968WAT     H273678   6.320   0.899   5.263  2.1151  1.9037 -0.4999
17968WAT    EPW73679   6.361   0.847   5.207  0.3760  0.1803 -0.2704
17969WAT      O73680   4.277   0.502   6.516 -0.4562 -0.3563 -0.2249
17969WAT     H173681   4.291   0.425   6.460 -0.7895 -1.3148  0.9584
17969WAT     H273682   4.232   0.467   6.593 -0.9733  1.1075  0.1670
17969WAT    EPW73683   4.273   0.487   6.519 -0.5684 -0.2897 -0.0174
17970WAT      O73684   2.520   8.215   3.837 -0.3597  0.4572  0.4645
17970WAT     H173685   2.461   8.203   3.911  0.1637  1.5782  1.0989
17970WAT     H273686   2.471   8.186   3.761 -2.3131  2.7088  0.7541
17970WAT    EPW73687   2.506   8.210   3.837 -0.5482  0.9022  0.5865
17971WAT      O73688   4.466   1.212   7.963  0.1164  0.5503  0.7169
17971WAT     H173689   4.448   1.279   7.897  0.3819  0.1659  0.2400
17971WAT     H273690   4.401   1.226   8.031  1.1276  2.2822  1.3926
17971WAT    EPW73691   4.455   1.223   7.963  0.2847  0.7280  0.7432
17972WAT      O73692   3.196   5.590   5.802  0.1769 -0.4025  0.3232
17972WAT     H173693   3.196   5.534   5.724  0.2793  1.1240 -0.8279
17972WAT     H273694   3.227   5.534   5.873  1.7184 -1.4065 -1.0790
17972WAT    EPW73695   3.200   5.576   5.801  0.3937 -0.3335 -0.0138
17973WAT      O73696  -0.682   5.881   5.539 -0.5311  0.4542 -0.5230
17973WAT     H173697  -0.636   5.807   5.577  1.0722  0.3186 -2.5801
17973WAT     H273698  -0.773   5.869   5.565  0.5627  1.4911  4.9056
17973WAT    EPW73699  -0.688   5.870   5.547 -0.1754  0.5732 -0.0782
17974WAT      O73700   5.142  10.206   2.825  0.7638 -0.2307 -0.1402
17974WAT     H173701   5.088  10.248   2.758 -0.4343  0.2083  1.0597
17974WAT     H273702   5.117  10.113   2.821 -2.4694  0.3453  2.3915
17974WAT    EPW73703   5.132  10.199   2.816  0.1793 -0.0968  0.3519
17975WAT      O73704   5.976   1.304   4.237 -0.1304 -0.6061  0.0288
17975WAT     H173705   6.057   1.350   4.261  0.6483 -0.8556 -1.9291
17975WAT     H273706   5.953   1.339   4.151 -1.3848 -1.4943 -0.0295
17975WAT    EPW73707   5.984   1.315   4.229 -0.1931 -0.7561 -0.2372
17976WAT      O73708  -5.781   5.326   7.560  0.0738  0.4621 -0.6096
17976WAT     H173709  -5.721   5.287   7.624  0.7049 -0.3067 -1.6419
17976WAT     H273710  -5.749   5.416   7.550  0.9586  0.1179 -1.0079
17976WAT    EPW73711  -5.768   5.332   7.567  0.2737  0.3154 -0.7985
17977WAT      O73712  -2.593   8.647   7.050 -0.2691  0.5397 -0.1315
17977WAT     H173713  -2.526   8.698   7.004 -0.4198  0.7956 -0.0667
17977WAT     H273714  -2.566   8.555   7.036 -1.2631  0.5117 -2.2114
17977WAT    EPW73715  -2.580   8.641   7.042 -0.4201  0.5703 -0.3972
17978WAT      O73716  -2.807   3.542   4.202  0.2551  0.8456  0.9632
17978WAT     H173717  -2.725   3.591   4.200 -0.2475  1.6801  0.4967
17978WAT     H273718  -2.852   3.566   4.121  0.7668 -1.7492 -0.1845
17978WAT    EPW73719  -2.802   3.551   4.191  0.2563  0.6133  0.7503
17979WAT      O73720  -3.866   1.952   5.900 -0.0811  0.3427  0.3781
17979WAT     H173721  -3.800   1.959   5.968  1.2498 -0.0137 -0.8351
17979WAT     H273722  -3.945   1.923   5.945  1.0846 -1.0558  1.5811
17979WAT    EPW73723  -3.868   1.949   5.915  0.2482  0.1113  0.3767
17980WAT      O73724   6.757   7.563   2.186 -0.4623  0.3349 -1.1587
17980WAT     H173725   6.756   7.602   2.098  0.8935  2.5358 -0.2689
17980WAT     H273726   6.839   7.514   2.189 -0.1687  0.8432 -0.8859
17980WAT    EPW73727   6.768   7.562   2.174 -0.2446  0.6921 -1.0054
17981WAT      O73728   5.435   4.052   5.653  0.1755 -0.1369  0.2994
17981WAT     H173729   5.412   4.000   5.730 -1.7000  1.9598  1.2704
17981WAT     H273730   5.360   4.110   5.640  2.5211  3.1417  0.0639
17981WAT    EPW73731   5.422   4.053   5.661  0.2375  0.5720  0.3965
17982WAT      O73732   1.370   6.062   5.243 -0.4542 -0.4281 -0.4097
17982WAT     H173733   1.347   6.119   5.169  0.3451 -0.1594 -0.4634
17982WAT     H273734   1.289   6.018   5.265 -0.6869 -0.5922 -1.5252
17982WAT    EPW73735   1.356   6.064   5.236 -0.3794 -0.4144 -0.5641
17983WAT      O73736  -0.645   4.852   1.700  0.0100 -0.5828  0.0324
17983WAT     H173737  -0.692   4.771   1.718  0.6148 -0.9660 -0.0863
17983WAT     H273738  -0.558   4.838   1.737  0.6869 -0.6690 -1.5251
17983WAT    EPW73739  -0.640   4.839   1.707  0.1791 -0.6447 -0.1887
17984WAT      O73740  -4.018   3.910   6.456  0.0552 -0.0507 -0.0863
17984WAT     H173741  -3.965   3.964   6.398 -2.2013  1.9246 -0.4564
17984WAT     H273742  -4.006   3.950   6.542  0.1079 -0.3615  0.0514
17984WAT    EPW73743  -4.009   3.922   6.460 -0.2356  0.1689 -0.1168
17985WAT      O73744  -1.001   9.605   3.947 -0.6056 -0.6336  0.0550
17985WAT     H173745  -0.923   9.613   3.893 -0.3102 -3.2367 -0.0100
17985WAT     H273746  -1.033   9.516   3.931 -2.7361 -0.1552  1.2245
17985WAT    EPW73747  -0.995   9.594   3.938 -0.8477 -0.9136  0.2007
17986WAT      O73748  -0.471   2.565   5.587 -0.8770  0.1217  0.0544
17986WAT     H173749  -0.472   2.587   5.494  1.5189  2.6072  0.4774
17986WAT     H273750  -0.531   2.628   5.627 -0.5841  0.1981  0.3745
17986WAT    EPW73751  -0.479   2.576   5.580 -0.5223  0.4596  0.1523
17987WAT      O73752  -3.458   6.525   6.153  0.0216 -0.6385  0.1869
17987WAT     H173753  -3.539   6.510   6.103 -0.3782  0.9714  0.2976
17987WAT     H273754  -3.473   6.480   6.236 -1.7897  1.5189  1.1426
17987WAT    EPW73755  -3.471   6.517   6.157 -0.2700 -0.1416  0.3278
17988WAT      O73756   2.777   0.654   5.146  0.6769 -0.2468  0.0004
17988WAT     H173757   2.748   0.570   5.111  0.7677 -0.0166 -0.6393
17988WAT     H273758   2.850   0.679   5.089  1.5046 -0.3527  0.9840
17988WAT    EPW73759   2.783   0.646   5.134  0.7981 -0.2304  0.0455
17989WAT      O73760  -0.655   9.604   6.291 -0.4421  0.3211 -0.2647
17989WAT     H173761  -0.567   9.609   6.328 -0.0824 -0.5162 -0.9855
17989WAT     H273762  -0.706   9.667   6.342  0.6489  1.0548 -0.0623
17989WAT    EPW73763  -0.650   9.613   6.303 -0.2508  0.3071 -0.3331
17990WAT      O73764   3.713   8.127   5.262  0.0321 -0.1794 -0.0953
17990WAT     H173765   3.621   8.154   5.261 -0.0316 -0.3637 -1.7926
17990WAT     H273766   3.712   8.039   5.224  0.4986 -1.8128  3.2998
17990WAT    EPW73767   3.701   8.119   5.257  0.0852 -0.4187  0.1287
17991WAT      O73768  -2.296   9.599   0.263  0.1286 -1.2063 -0.2351
17991WAT     H173769  -2.254   9.559   0.339  0.2905 -1.8722 -0.6734
17991WAT     H273770  -2.324   9.685   0.295 -0.3260 -1.6976  0.7449
17991WAT    EPW73771  -2.294   9.605   0.278  0.0900 -1.3585 -0.1636
17992WAT      O73772  -2.947   8.879   3.794  0.1756  0.5020  0.2809
17992WAT     H173773  -2.904   8.913   3.873 -0.6976 -1.5813  1.7692
17992WAT     H273774  -2.891   8.806   3.767 -0.3489  0.2215 -0.0680
17992WAT    EPW73775  -2.934   8.874   3.801 -0.0087  0.1903  0.4312
17993WAT      O73776   3.456   6.865   2.223 -0.4201  0.5210 -0.1459
17993WAT     H173777   3.444   6.959   2.237 -0.1404  0.8893 -2.1358
17993WAT     H273778   3.385   6.824   2.272  0.6521  1.5844  2.5049
17993WAT    EPW73779   3.445   6.872   2.232 -0.2418  0.7098 -0.0587
17994WAT      O73780   4.572   6.769   4.836 -0.5203  0.3577 -0.5793
17994WAT     H173781   4.574   6.675   4.818 -1.8809  0.1966 -0.0516
17994WAT     H273782   4.566   6.775   4.932 -0.0875  0.9933 -0.5883
17994WAT    EPW73783   4.571   6.758   4.846 -0.6428  0.4203 -0.5109
17995WAT      O73784   6.731   3.892   4.072 -0.1233 -0.6666 -0.3125
17995WAT     H173785   6.713   3.862   3.984  1.0384  2.5571 -1.8148
17995WAT     H273786   6.650   3.936   4.100  0.4797  1.0885 -1.1580
17995WAT    EPW73787   6.718   3.894   4.064  0.1094 -0.0099 -0.6223
17996WAT      O73788   3.211   5.661   8.220 -0.1011 -0.5331 -0.0675
17996WAT     H173789   3.297   5.619   8.215  0.0778 -0.5709  2.2675
17996WAT     H273790   3.229   5.750   8.249 -0.8262 -0.4914  0.2778
17996WAT    EPW73791   3.225   5.667   8.223 -0.1732 -0.5324  0.2856
17997WAT      O73792   2.438   8.157   0.245  0.4921 -0.9484  0.4910
17997WAT     H173793   2.513   8.134   0.190 -0.8148  1.4622 -2.5812
17997WAT     H273794   2.378   8.083   0.235 -0.0251 -0.2678 -2.0634
17997WAT    EPW73795   2.440   8.144   0.236  0.2515 -0.5407 -0.2511
17998WAT      O73796   3.804   6.000   7.680 -0.0312  0.5205 -0.7370
17998WAT     H173797   3.736   5.945   7.643 -1.2106  2.1067 -1.0512
17998WAT     H273798   3.763   6.086   7.689  0.8918  0.7614  2.2127
17998WAT    EPW73799   3.790   6.004   7.676 -0.0650  0.7615 -0.3893
17999WAT      O73800   3.121   5.317   8.162  0.2751  0.3363  0.1117
17999WAT     H173801   3.187   5.363   8.111 -0.0303  1.9047  1.0734
17999WAT     H273802   3.082   5.384   8.218 -3.0752 -0.1663 -1.3279
17999WAT    EPW73803   3.124   5.331   8.162 -0.2071  0.4766  0.0491
18000WAT      O73804  -5.227   0.377   8.482  0.2540 -0.1526 -0.3411
18000WAT     H173805  -5.240   0.390   8.576  1.1041 -0.5035 -0.1681
18000WAT     H273806  -5.206   0.464   8.449  0.3044 -0.0928 -0.1525
18000WAT    EPW73807  -5.226   0.390   8.490  0.3729 -0.1910 -0.2933
18001WAT      O73808   1.261   0.465   3.543  1.2688 -0.5785  0.3606
18001WAT     H173809   1.226   0.474   3.455 -0.6063 -0.7953  1.0335
18001WAT     H273810   1.198   0.511   3.599  2.4757 -0.3383  1.5784
18001WAT    EPW73811   1.248   0.472   3.539  1.1806 -0.5754  0.6100
18002WAT      O73812  -3.103   1.729   4.833 -0.0385 -0.7371 -0.0724
18002WAT     H173813  -3.155   1.683   4.899  0.7153 -1.1158  0.2706
18002WAT     H273814  -3.048   1.661   4.794  2.2462  0.0527  1.5318
18002WAT    EPW73815  -3.102   1.714   4.837  0.3624 -0.6829  0.1845
18003WAT      O73816   5.443   7.824   3.783 -0.6696 -0.2605  1.0776
18003WAT     H173817   5.478   7.899   3.736 -1.8243 -0.7161 -0.5882
18003WAT     H273818   5.505   7.753   3.767 -1.7755 -0.8204 -1.1135
18003WAT    EPW73819   5.455   7.824   3.775 -0.9675 -0.3943  0.5689
18004WAT      O73820   0.835  10.356   2.770 -0.1000  0.8533 -0.1976
18004WAT     H173821   0.796  10.323   2.851 -1.7867  2.6944 -0.2018
18004WAT     H273822   0.772  10.334   2.702  1.4369 -0.9337 -1.1526
18004WAT    EPW73823   0.822  10.349   2.772 -0.1197  0.8602 -0.3240
18005WAT      O73824  -6.452   8.241   7.931  0.8328 -0.4336  0.0871
18005WAT     H173825  -6.428   8.152   7.902 -2.6821 -0.9479 -1.9162
18005WAT     H273826  -6.533   8.228   7.980 -0.1602  1.6768 -0.8871
18005WAT    EPW73827  -6.460   8.227   7.933  0.2382 -0.2232 -0.3057
18006WAT      O73828  -5.143   2.367   7.691  0.5227  0.6819  0.4101
18006WAT     H173829  -5.160   2.387   7.599  2.2026 -0.2228 -0.1319
18006WAT     H273830  -5.229   2.342   7.726  0.2483 -1.5046 -1.5768
18006WAT    EPW73831  -5.157   2.367   7.683  0.7081  0.2742  0.0768
18007WAT      O73832   4.036   1.382   5.201 -0.4124  0.2039  0.0235
18007WAT     H173833   4.023   1.410   5.292  0.4466  2.4717 -0.4827
18007WAT     H273834   4.000   1.453   5.149  1.6759  0.3098 -1.3763
18007WAT    EPW73835   4.030   1.395   5.206 -0.0236  0.5170 -0.2277
18008WAT      O73836   5.857   3.813   0.814  0.0611 -0.3287  0.3509
18008WAT     H173837   5.923   3.752   0.848  0.9930 -0.5835 -1.7420
18008WAT     H273838   5.778   3.794   0.865  0.5576 -2.6956  0.3650
18008WAT    EPW73839   5.856   3.802   0.825  0.2496 -0.6745  0.0767
18009WAT      O73840   3.323   7.262   3.540 -0.5578 -0.3824 -0.0251
18009WAT     H173841   3.357   7.340   3.582 -0.2583  0.2149 -1.3263
18009WAT     H273842   3.391   7.237   3.477 -1.0298 -1.1758 -0.2377
18009WAT    EPW73843   3.337   7.269   3.537 -0.5805 -0.4082 -0.2248
18010WAT      O73844   1.094   9.788   6.625  0.4662 -0.0107 -0.6713
18010WAT     H173845   1.056   9.826   6.546 -1.8726 -0.9463 -0.0780
18010WAT     H273846   1.052   9.835   6.697 -0.5423 -1.8868  0.0305
18010WAT    EPW73847   1.083   9.799   6.624  0.0247 -0.3815 -0.5004
18011WAT      O73848  -3.061   2.500   8.395 -0.5058 -0.2599  0.4360
18011WAT     H173849  -3.100   2.559   8.331 -1.3212 -1.2777 -0.0385
18011WAT     H273850  -3.127   2.492   8.464 -0.2258 -0.2793  0.7061
18011WAT    EPW73851  -3.075   2.506   8.396 -0.5763 -0.3967  0.4091
18012WAT      O73852   0.298   0.177   2.552  0.1643  0.5181 -1.1588
18012WAT     H173853   0.268   0.221   2.632 -2.1836  0.1683 -1.7595
18012WAT     H273854   0.393   0.177   2.559  0.3103 -3.7989  4.0937
18012WAT    EPW73855   0.307   0.183   2.564 -0.1261 -0.0974 -0.5453
18013WAT      O73856   6.329   0.123   6.737 -0.1406  0.3109 -0.1409
18013WAT     H173857   6.299   0.032   6.744 -0.6232  0.5849  2.0716
18013WAT     H273858   6.422   0.118   6.758 -0.4576  0.4706  1.3795
18013WAT    EPW73859   6.337   0.110   6.741 -0.2463  0.3681  0.3514
18014WAT      O73860   3.027   0.863   5.151  0.4042 -0.3473 -1.0804
18014WAT     H173861   2.933   0.852   5.160  0.3764  0.8259  0.4286
18014WAT     H273862   3.042   0.866   5.056 -1.4298  1.9694 -1.4000
18014WAT    EPW73863   3.017   0.862   5.139  0.1585  0.1130 -0.9236
18015WAT      O73864   0.661   3.327   4.691 -0.4415  0.0318  0.2062
18015WAT     H173865   0.721   3.402   4.696  0.6111 -0.6157 -1.8694
18015WAT     H273866   0.694   3.266   4.757  0.1323  0.4057  0.2727
18015WAT    EPW73867   0.673   3.329   4.701 -0.2270 -0.0044 -0.0587
18016WAT      O73868   1.271   2.347   7.743  0.7802 -0.3202 -0.6597
18016WAT     H173869   1.355   2.319   7.779  0.1846  0.8226  1.9018
18016WAT     H273870   1.235   2.404   7.811 -2.7230 -1.9185 -0.9598
18016WAT    EPW73871   1.277   2.351   7.757  0.2396 -0.3804 -0.3617
18017WAT      O73872  -3.120   7.269   5.804  0.3335  0.3694 -0.1763
18017WAT     H173873  -3.066   7.296   5.730 -1.8203  0.6538 -1.7717
18017WAT     H273874  -3.063   7.278   5.881  1.0288  6.0594 -0.8932
18017WAT    EPW73875  -3.106   7.274   5.804  0.1411  1.1575 -0.4814
18018WAT      O73876  -1.600   5.598   3.994  0.1556  0.2539 -0.9021
18018WAT     H173877  -1.591   5.681   4.041  0.2734 -0.2691  0.0003
18018WAT     H273878  -1.681   5.560   4.028 -1.0711  0.9597 -2.8411
18018WAT    EPW73879  -1.610   5.604   4.004  0.0094  0.2780 -1.0390
18019WAT      O73880   0.511   9.752   1.262  0.6675 -0.8675 -0.0839
18019WAT     H173881   0.459   9.830   1.282 -0.3374 -1.3017 -0.8877
18019WAT     H273882   0.541   9.721   1.347 -0.6768 -0.7790  0.4484
18019WAT    EPW73883   0.508   9.758   1.275  0.3577 -0.9127 -0.1197
18020WAT      O73884   0.457   8.463   4.026 -0.1942  0.0130 -0.0851
18020WAT     H173885   0.539   8.463   3.976 -0.1250  2.0066 -0.0502
18020WAT     H273886   0.436   8.370   4.036  2.7458 -0.6716  1.0480
18020WAT    EPW73887   0.465   8.450   4.020  0.2027  0.1855  0.0689
18021WAT      O73888   3.275   5.315   2.743  0.0891 -0.3720 -0.4633
18021WAT     H173889   3.307   5.401   2.772 -0.1794 -0.1393 -0.8562
18021WAT     H273890   3.339   5.253   2.778 -0.0524 -0.0669  0.3572
18021WAT    EPW73891   3.288   5.318   2.752  0.0350 -0.3011 -0.4070
18022WAT      O73892   8.200   0.203   0.275 -0.5159  0.3566 -0.2844
18022WAT     H173893   8.112   0.241   0.283 -0.6759 -0.4395  2.2655
18022WAT     H273894   8.249   0.239   0.349 -0.3283 -3.3509  1.5897
18022WAT    EPW73895   8.195   0.213   0.285 -0.5126 -0.2374  0.2991
18023WAT      O73896   0.136   1.539   1.381 -0.1838  0.2298  0.2556
18023WAT     H173897   0.196   1.539   1.456  0.3319  0.0521 -0.1421
18023WAT     H273898   0.077   1.612   1.397  0.4042  0.6714  0.4543
18023WAT    EPW73899   0.136   1.548   1.393 -0.0382  0.2646  0.2294
18024WAT      O73900   0.156  10.008   6.756 -0.5667  0.3243 -0.1980
18024WAT     H173901   0.099  10.063   6.810 -0.3129  0.6500 -0.2618
18024WAT     H273902   0.212  10.069   6.709 -1.9600  0.1478 -2.2003
18024WAT    EPW73903   0.156  10.023   6.757 -0.7170  0.3438 -0.4704
18025WAT      O73904   6.558   0.619   5.629 -0.0455  0.1713 -0.1543
18025WAT     H173905   6.597   0.705   5.613 -0.2629  0.4915  0.9742
18025WAT     H273906   6.555   0.611   5.724 -0.5023 -0.8722 -0.2426
18025WAT    EPW73907   6.563   0.629   5.639 -0.1347  0.0759 -0.0169
18026WAT      O73908  -0.812   2.691   2.451 -0.3859  1.0979  0.5105
18026WAT     H173909  -0.854   2.776   2.458 -1.9143  0.3021  1.4210
18026WAT     H273910  -0.882   2.628   2.467  0.9339 -0.3129  0.9919
18026WAT    EPW73911  -0.827   2.694   2.454 -0.4134  0.8069  0.6942
18027WAT      O73912   3.765   7.876   2.315 -0.2589  0.2398 -0.2032
18027WAT     H173913   3.837   7.930   2.348  3.7642 -2.9706 -2.7882
18027WAT     H273914   3.736   7.919   2.235 -0.5277  0.9823  0.2820
18027WAT    EPW73915   3.770   7.889   2.309  0.2363 -0.0858 -0.4801
18028WAT      O73916   1.584   7.661   5.296  0.1411  0.6564  0.1078
18028WAT     H173917   1.638   7.738   5.312 -0.0822  0.8342  0.0230
18028WAT     H273918   1.540   7.681   5.213  0.3977  0.2586 -0.1239
18028WAT    EPW73919   1.585   7.674   5.287  0.1456  0.6273  0.0663
18029WAT      O73920   2.761   7.437   6.363 -0.1526  0.3313  0.1155
18029WAT     H173921   2.852   7.426   6.390 -0.4262  0.0614  0.9346
18029WAT     H273922   2.715   7.362   6.400 -0.7943  0.7047  0.0974
18029WAT    EPW73923   2.767   7.426   6.371 -0.2732  0.3448  0.2213
18030WAT      O73924   4.288   3.099   8.126 -0.5160 -0.2683 -0.9864
18030WAT     H173925   4.302   3.010   8.157  1.1050  0.6532  1.1198
18030WAT     H273926   4.292   3.154   8.205  0.2744  1.8584 -2.3962
18030WAT    EPW73927   4.290   3.095   8.140 -0.1979  0.1339 -0.8945
18031WAT      O73928  -2.075  10.179   8.149  0.6195 -0.2884 -0.0669
18031WAT     H173929  -1.995  10.127   8.141  0.6385 -0.1936 -0.4741
18031WAT     H273930  -2.141  10.128   8.102  0.7557  0.3133 -0.9156
18031WAT    EPW73931  -2.073  10.165   8.142  0.6399 -0.1965 -0.2332
18032WAT      O73932  -5.638   6.779   5.724  0.9286 -0.8371  0.1174
18032WAT     H173933  -5.720   6.742   5.690  1.0563  0.1882 -1.4202
18032WAT     H273934  -5.656   6.872   5.732  1.0123 -0.9811  2.7257
18032WAT    EPW73935  -5.651   6.786   5.720  0.9565 -0.7207  0.2584
18033WAT      O73936   2.770   0.095   4.919  0.5983 -0.1400 -0.2747
18033WAT     H173937   2.826   0.116   4.994  0.1532  0.9954 -0.2447
18033WAT     H273938   2.731   0.011   4.941  0.2461  0.3053  0.9133
18033WAT    EPW73939   2.773   0.087   4.932  0.4932  0.0685 -0.1140
18034WAT      O73940   2.446   8.858   4.230 -0.0199  0.0969  0.2372
18034WAT     H173941   2.419   8.874   4.321  1.5099 -0.0040  0.7344
18034WAT     H273942   2.441   8.943   4.188 -0.4726  0.1968  0.4931
18034WAT    EPW73943   2.442   8.871   4.237  0.1222  0.0968  0.3364
18035WAT      O73944   0.830   0.142   0.690 -0.3344 -0.6023  0.1152
18035WAT     H173945   0.793   0.055   0.702 -0.5510 -0.2438  2.5588
18035WAT     H273946   0.923   0.132   0.706 -0.1872 -0.5615 -0.6855
18035WAT    EPW73947   0.837   0.129   0.694 -0.3435 -0.5496  0.3319
18036WAT      O73948   3.471   5.023   3.765 -0.5796  0.0205 -0.6344
18036WAT     H173949   3.501   4.947   3.815 -1.3309 -0.9436 -1.6198
18036WAT     H273950   3.475   4.995   3.674 -1.3972  0.9772 -0.9730
18036WAT    EPW73951   3.476   5.009   3.760 -0.7864  0.0196 -0.8091
18037WAT      O73952   5.160   3.675   2.730  0.1361 -0.1709 -0.2981
18037WAT     H173953   5.240   3.658   2.781  1.1008  2.6711 -0.6814
18037WAT     H273954   5.176   3.632   2.646 -0.0182 -2.0292  0.5766
18037WAT    EPW73955   5.173   3.667   2.726  0.2429 -0.0410 -0.2333
18038WAT      O73956  -5.697   9.003   5.812  0.0205  0.6936  0.9149
18038WAT     H173957  -5.659   9.090   5.807  1.5885 -0.0075 -2.8404
18038WAT     H273958  -5.641   8.955   5.873  1.9631  1.1714 -0.4085
18038WAT    EPW73959  -5.685   9.008   5.819  0.4833  0.6638  0.2451
18039WAT      O73960  -0.634   0.671   1.655 -0.0988 -0.3194  0.1738
18039WAT     H173961  -0.631   0.766   1.663 -0.8800 -0.3874  1.5573
18039WAT     H273962  -0.600   0.653   1.567  0.8724  1.1742  0.2100
18039WAT    EPW73963  -0.629   0.681   1.645 -0.0738 -0.1314  0.3611
18040WAT      O73964   8.092   3.507   2.692 -0.0930 -0.0102  0.1979
18040WAT     H173965   8.047   3.423   2.683  1.3546 -0.8029  0.1327
18040WAT     H273966   8.133   3.521   2.607 -0.5892  0.9498  0.0995
18040WAT    EPW73967   8.091   3.498   2.679  0.0325  0.0118  0.1763
18041WAT      O73968  -1.287   5.315   5.062 -0.5535  0.3448  0.2424
18041WAT     H173969  -1.353   5.293   4.995 -1.6343 -0.2879  1.4781
18041WAT     H273970  -1.225   5.372   5.016 -0.1658 -1.6187 -1.8510
18041WAT    EPW73971  -1.288   5.319   5.047 -0.6449  0.0024  0.1292
18042WAT      O73972   1.216   2.494   1.372 -0.1685  0.5805 -0.2173
18042WAT     H173973   1.232   2.581   1.409 -3.8918  0.1365  3.3082
18042WAT     H273974   1.236   2.434   1.444 -0.9627 -1.1364 -1.3634
18042WAT    EPW73975   1.220   2.498   1.387 -0.7644  0.2954  0.0966
18043WAT      O73976   0.719   0.607   7.830 -0.3940 -0.3168 -0.1707
18043WAT     H173977   0.652   0.674   7.838  0.3545  0.4986 -0.5813
18043WAT     H273978   0.675   0.534   7.787  0.2028  2.2312 -6.0088
18043WAT    EPW73979   0.705   0.606   7.826 -0.2166  0.1268 -0.9947
18044WAT      O73980  -1.261   3.375   5.581 -0.4879  0.3096 -0.5644
18044WAT     H173981  -1.257   3.438   5.508 -1.0409 -1.3733 -2.1291
18044WAT     H273982  -1.174   3.336   5.583 -0.6796 -0.1384 -0.8020
18044WAT    EPW73983  -1.249   3.378   5.571 -0.5861  0.0285 -0.8020
18045WAT      O73984  -3.477   2.270   7.961 -0.1847  0.4810  0.0042
18045WAT     H173985  -3.448   2.198   8.018  0.6828  1.3461  0.6955
18045WAT     H273986  -3.506   2.226   7.881  0.0305 -0.6595  0.5200
18045WAT    EPW73987  -3.477   2.254   7.958 -0.0420  0.4447  0.1633
18046WAT      O73988  -0.884   6.285   0.184 -0.2334 -0.1036  0.2445
18046WAT     H173989  -0.901   6.357   0.123  2.7351 -1.1056 -1.9482
18046WAT     H273990  -0.805   6.311   0.231 -2.0617  0.3298  3.4020
18046WAT    EPW73991  -0.876   6.298   0.182 -0.0831 -0.1783  0.3717
18047WAT      O73992  -2.297   7.243   3.032 -0.5236  0.2300  0.2629
18047WAT     H173993  -2.284   7.179   3.102 -0.5772 -3.2288 -2.6524
18047WAT     H273994  -2.388   7.232   3.005 -0.3538  1.0717 -0.7315
18047WAT    EPW73995  -2.307   7.233   3.038 -0.5082 -0.1152 -0.2528
18048WAT      O73996   1.160   9.532   0.685 -0.5168 -0.9397 -0.1874
18048WAT     H173997   1.102   9.573   0.749 -2.5218 -3.0285 -0.5391
18048WAT     H273998   1.246   9.568   0.705 -1.6300  1.0413  1.4509
18048WAT    EPW73999   1.164   9.542   0.696 -0.9281 -0.9542 -0.0177
18049WAT      O74000   5.057   8.524   1.608  0.5029  0.1055  0.5257
18049WAT     H174001   5.116   8.546   1.536  0.3606  2.0234  0.9480
18049WAT     H274002   4.970   8.525   1.568  0.6383 -2.4826 -0.0415
18049WAT    EPW74003   5.053   8.527   1.593  0.5021  0.0167  0.5066
18050WAT      O74004   0.803   2.125   1.320 -0.0906 -0.5973 -0.3617
18050WAT     H174005   0.843   2.040   1.306  0.4746 -0.1954 -1.2130
18050WAT     H274006   0.832   2.179   1.247 -0.7740  0.2147 -0.0614
18050WAT    EPW74007   0.812   2.121   1.309 -0.1062 -0.4371 -0.4344
18051WAT      O74008  -4.433   2.639   6.631 -0.4439 -0.3076  0.7462
18051WAT     H174009  -4.470   2.709   6.686  0.4372 -0.1935  1.2124
18051WAT     H274010  -4.486   2.641   6.552 -0.6909  0.6284  0.9163
18051WAT    EPW74011  -4.445   2.649   6.628 -0.3603 -0.1692  0.8302
18052WAT      O74012   1.553   1.404   4.285 -0.2447 -0.0232  0.0182
18052WAT     H174013   1.595   1.419   4.201  0.3792  0.2750  0.3755
18052WAT     H274014   1.459   1.399   4.265 -0.1618  0.7545 -0.5976
18052WAT    EPW74015   1.546   1.406   4.271 -0.1515  0.1187 -0.0160
18053WAT      O74016  -4.800   1.288   8.784 -0.6211  0.0708  0.0112
18053WAT     H174017  -4.814   1.378   8.754 -0.0240  1.0423  2.3572
18053WAT     H274018  -4.877   1.269   8.838 -1.3832 -1.3832 -1.4917
18053WAT    EPW74019  -4.812   1.297   8.787 -0.6430  0.0072  0.1225
18054WAT      O74020   2.146   5.800   5.520 -0.7514 -0.1507 -0.4038
18054WAT     H174021   2.195   5.785   5.601 -0.4170  2.4550 -0.0454
18054WAT     H274022   2.193   5.748   5.455  0.0800 -0.8566  0.7048
18054WAT    EPW74023   2.159   5.791   5.522 -0.5976  0.0999 -0.2103
18055WAT      O74024   2.244   5.854   0.373 -0.3694  0.0058 -0.0513
18055WAT     H174025   2.256   5.851   0.468 -1.7793  2.8459  0.3495
18055WAT     H274026   2.183   5.927   0.360 -1.1857 -1.0927 -3.0769
18055WAT    EPW74027   2.238   5.863   0.384 -0.6629  0.2356 -0.3975
18056WAT      O74028   3.324   2.294   5.494 -0.0823  0.3699  0.3017
18056WAT     H174029   3.357   2.375   5.533  1.2194 -0.4920  1.0788
18056WAT     H274030   3.302   2.239   5.569 -1.8725  0.3258 -0.2127
18056WAT    EPW74031   3.326   2.298   5.509 -0.1467  0.2503  0.3362
18057WAT      O74032   6.960   5.351   0.218  0.2720  0.3057 -0.5764
18057WAT     H174033   6.918   5.294   0.153  0.4949 -1.9213  1.1398
18057WAT     H274034   6.888   5.397   0.260 -0.1737 -0.7388 -0.1690
18057WAT    EPW74035   6.945   5.350   0.215  0.2427 -0.1256 -0.2963
18058WAT      O74036   0.525   0.427   3.376 -0.5844 -0.2215 -0.3468
18058WAT     H174037   0.491   0.338   3.381 -1.1296  0.0037  0.1704
18058WAT     H274038   0.450   0.482   3.401 -0.3195  0.3916 -0.8797
18058WAT    EPW74039   0.510   0.423   3.380 -0.6214 -0.1110 -0.3488
18059WAT      O74040  -0.448   0.953   2.424  0.2715  0.0623  0.1594
18059WAT     H174041  -0.415   0.887   2.362 -0.1789 -0.0770  0.0568
18059WAT     H274042  -0.541   0.930   2.435  0.2020  0.4562  0.4150
18059WAT    EPW74043  -0.456   0.941   2.417  0.2029  0.0959  0.1795
18060WAT      O74044  -0.178   4.279   7.741  0.3818  0.0987 -0.0351
18060WAT     H174045  -0.247   4.301   7.679 -0.5339  1.4197  1.3650
18060WAT     H274046  -0.224   4.236   7.814  1.0700  0.6298  0.7352
18060WAT    EPW74047  -0.193   4.277   7.743  0.3518  0.3428  0.2511
18061WAT      O74048  -3.221   1.764   5.531 -0.3584 -0.1398  0.0318
18061WAT     H174049  -3.254   1.851   5.506  1.3585  0.9329  1.2525
18061WAT     H274050  -3.176   1.779   5.615  3.3928 -1.3508 -1.5547
18061WAT    EPW74051  -3.219   1.778   5.539  0.3629 -0.1580 -0.0165
18062WAT      O74052   0.735   2.056   5.994 -0.5692 -0.3506 -0.1547
18062WAT     H174053   0.713   2.112   5.920 -2.7804 -1.2083 -0.2230
18062WAT     H274054   0.697   2.100   6.070  1.0817  0.1656  0.4323
18062WAT    EPW74055   0.727   2.069   5.994 -0.6431 -0.3957 -0.0863
18063WAT      O74056   0.540   0.481   1.358 -0.5811 -0.1490 -0.4548
18063WAT     H174057   0.601   0.548   1.390 -1.8480 -1.0751  5.0369
18063WAT     H274058   0.590   0.400   1.364 -0.4796 -0.2614 -2.4277
18063WAT    EPW74059   0.555   0.479   1.363 -0.7348 -0.2860  0.0093
18064WAT      O74060  -4.106   6.758   3.701  0.8458  0.5667 -0.5661
18064WAT     H174061  -4.198   6.756   3.673  0.8606 -0.6562 -0.5769
18064WAT     H274062  -4.088   6.668   3.728  2.3599  0.5321 -1.5914
18064WAT    EPW74063  -4.116   6.746   3.701  1.0476  0.4008 -0.7027
18065WAT      O74064  -0.660   9.275   4.938 -0.4328 -0.0506  0.0745
18065WAT     H174065  -0.749   9.312   4.940  0.0192  1.1897 -1.0748
18065WAT     H274066  -0.611   9.327   5.001 -0.1779  0.2532 -0.3700
18065WAT    EPW74067  -0.666   9.287   4.947 -0.3395  0.1531 -0.1357
18066WAT      O74068   6.312   1.303   1.059 -0.2272  0.1371  0.3812
18066WAT     H174069   6.315   1.332   1.150 -1.2435  0.3867  0.3467
18066WAT     H274070   6.265   1.372   1.013 -1.3315 -0.8127  0.0153
18066WAT    EPW74071   6.306   1.316   1.065 -0.5069  0.0447  0.3284
18067WAT      O74072   7.116   2.050   2.339 -0.3327 -0.0013 -0.1885
18067WAT     H174073   7.081   2.120   2.394 -2.5110 -0.6410 -0.6526
18067WAT     H274074   7.038   2.004   2.307  0.9968 -2.0965 -0.6032
18067WAT    EPW74075   7.101   2.053   2.342 -0.4449 -0.3620 -0.3043
18068WAT      O74076   1.244   1.749   1.307  0.2244 -0.1534  0.2683
18068WAT     H174077   1.159   1.710   1.326  0.0710  0.9193  2.0316
18068WAT     H274078   1.248   1.826   1.364  2.1548  0.1194 -0.1646
18068WAT    EPW74079   1.234   1.754   1.317  0.4588  0.0240  0.4438
18069WAT      O74080   6.382   8.315   2.665  0.0051 -0.2899  0.5004
18069WAT     H174081   6.305   8.360   2.630 -2.0190 -2.4204  1.9156
18069WAT     H274082   6.436   8.385   2.702 -0.4461  1.4144 -1.8130
18069WAT    EPW74083   6.379   8.330   2.665 -0.3214 -0.3462  0.3819
18070WAT      O74084   4.811   0.467   6.103 -0.2326  0.2192 -0.1673
18070WAT     H174085   4.901   0.432   6.101  0.3003  1.3543  1.8644
18070WAT     H274086   4.756   0.389   6.102  0.8580 -0.6149  0.9819
18070WAT    EPW74087   4.816   0.452   6.102 -0.0186  0.2589  0.2522
18071WAT      O74088  -1.294   6.846   7.569 -0.0898  0.2281 -0.2874
18071WAT     H174089  -1.271   6.927   7.523 -2.0206  1.0034  0.0099
18071WAT     H274090  -1.347   6.797   7.505 -2.4628  1.1353  0.9028
18071WAT    EPW74091  -1.298   6.850   7.554 -0.6574  0.4499 -0.0913
18072WAT      O74092   5.563   1.013   1.983  0.0434 -0.3871 -0.2735
18072WAT     H174093   5.604   0.939   1.938  1.3336  1.2698 -1.9786
18072WAT     H274094   5.633   1.078   1.992 -0.1977 -0.4243  3.9362
18072WAT    EPW74095   5.578   1.012   1.978  0.1819 -0.1734  0.0569
18073WAT      O74096  -0.288   0.916   7.735  0.4671  0.1480  0.3303
18073WAT     H174097  -0.309   0.867   7.656  0.8939  0.5357 -0.0316
18073WAT     H274098  -0.219   0.864   7.777  1.5266  0.8504 -0.4915
18073WAT    EPW74099  -0.282   0.903   7.730  0.6632  0.2918  0.1740
18074WAT      O74100  -3.971   0.795   7.070  0.5804  0.3201  0.2881
18074WAT     H174101  -4.034   0.755   7.130 -1.1668  0.3228 -1.4476
18074WAT     H274102  -3.930   0.864   7.122 -2.1223  1.4951  1.0795
18074WAT    EPW74103  -3.974   0.799   7.085 -0.0066  0.4755  0.1636
18075WAT      O74104   1.620   7.744   0.990 -0.3699  0.1414 -0.0540
18075WAT     H174105   1.651   7.689   1.062 -1.6652 -0.2776  0.2188
18075WAT     H274106   1.674   7.718   0.916 -0.2119 -0.7228  0.3428
18075WAT    EPW74107   1.631   7.733   0.990 -0.5199 -0.0279  0.0343
18076WAT      O74108   3.899   3.446   5.582 -0.0381 -0.1946  0.3395
18076WAT     H174109   3.980   3.442   5.632  1.2262 -0.9589 -1.6511
18076WAT     H274110   3.865   3.356   5.584 -1.5992  0.3706  2.2466
18076WAT    EPW74111   3.905   3.434   5.589 -0.0772 -0.2209  0.3288
18077WAT      O74112  -3.483   7.828   5.143 -0.1440 -0.7633  0.2055
18077WAT     H174113  -3.396   7.812   5.107  0.1963 -0.1653  0.7421
18077WAT     H274114  -3.468   7.887   5.216 -0.6387 -3.1488  2.3708
18077WAT    EPW74115  -3.470   7.834   5.148 -0.1643 -0.9990  0.5620
18078WAT      O74116   4.825   3.691   7.020  0.5346  0.3145 -0.0524
18078WAT     H174117   4.746   3.638   7.029  0.3422  0.5850 -0.1297
18078WAT     H274118   4.895   3.637   7.057  1.2600 -2.0503 -4.1919
18078WAT    EPW74119   4.824   3.677   7.026  0.6046  0.0383 -0.6087
18079WAT      O74120   7.333   1.042   2.516  0.5794  0.8031  0.4699
18079WAT     H174121   7.239   1.030   2.532  0.6017 -0.3713 -0.2110
18079WAT     H274122   7.344   1.026   2.423  1.4162  1.2959  0.4740
18079WAT    EPW74123   7.322   1.038   2.506  0.6926  0.7132  0.3806
18080WAT      O74124  -1.390   8.718   5.178 -0.2960 -0.1671 -0.8990
18080WAT     H174125  -1.402   8.626   5.154 -0.1741 -0.5001  0.2265
18080WAT     H274126  -1.326   8.716   5.249 -1.7128  0.5789  0.4694
18080WAT    EPW74127  -1.383   8.706   5.184 -0.4668 -0.1125 -0.5703
18081WAT      O74128   1.087   0.409   6.527 -0.1144  0.5089 -0.3607
18081WAT     H174129   1.016   0.395   6.589  0.1836  0.1761 -0.0872
18081WAT     H274130   1.058   0.365   6.447 -1.0688  2.0368 -0.8970
18081WAT    EPW74131   1.074   0.401   6.525 -0.2009  0.6665 -0.3953
18082WAT      O74132   5.516   5.191   2.440  0.1075 -0.5050  0.1986
18082WAT     H174133   5.442   5.206   2.499 -0.3198 -1.0958 -0.1717
18082WAT     H274134   5.592   5.224   2.488 -0.7025  2.6900 -0.4945
18082WAT    EPW74135   5.516   5.197   2.454 -0.0558 -0.1614  0.0583
18083WAT      O74136   4.921   3.943   0.418 -0.0136 -0.4669  0.0531
18083WAT     H174137   4.836   3.911   0.387 -1.9141  3.1415  0.9941
18083WAT     H274138   4.921   3.922   0.511  1.0760 -2.1322 -0.2763
18083WAT    EPW74139   4.910   3.936   0.426 -0.1206 -0.2106  0.1338
18084WAT      O74140   3.482   3.670   4.187 -0.0317  0.1735 -0.5616
18084WAT     H174141   3.420   3.599   4.171 -1.4488  0.8559  1.5506
18084WAT     H274142   3.432   3.750   4.173  1.0643  0.7784 -1.1864
18084WAT    EPW74143   3.467   3.671   4.183 -0.0739  0.3433 -0.3655
18085WAT      O74144   5.697   1.546   2.467  0.6108 -0.1367 -0.3248
18085WAT     H174145   5.753   1.571   2.393 -1.8376  1.5508 -1.7702
18085WAT     H274146   5.752   1.490   2.521  2.6732 -1.1218 -3.2081
18085WAT    EPW74147   5.712   1.542   2.464  0.5596 -0.0440 -0.8957
18086WAT      O74148   1.192   3.405   5.189 -0.0383  0.8294 -0.4068
18086WAT     H174149   1.187   3.381   5.096  0.4935 -1.2446  0.0440
18086WAT     H274150   1.249   3.482   5.191  1.1535  0.0365 -1.7007
18086WAT    EPW74151   1.199   3.412   5.177  0.1891  0.4512 -0.5181
18087WAT      O74152  -2.621   8.096   7.993  0.7020  0.5718 -0.1266
18087WAT     H174153  -2.703   8.053   7.971 -0.3326  0.8281  2.7545
18087WAT     H274154  -2.590   8.050   8.071  2.3110  1.7148 -0.0357
18087WAT    EPW74155  -2.628   8.084   8.000  0.7778  0.7563  0.2651
18088WAT      O74156   5.199   4.416   5.929  0.0840 -0.4172 -0.4140
18088WAT     H174157   5.294   4.421   5.938  0.1520  2.4555 -1.7093
18088WAT     H274158   5.165   4.486   5.985 -1.1494 -0.4321 -1.1038
18088WAT    EPW74159   5.207   4.426   5.938 -0.0699 -0.0403 -0.6759
18089WAT      O74160  -1.386   6.296   3.470  0.0231  0.2956  0.5146
18089WAT     H174161  -1.333   6.248   3.534  0.9802  0.4375 -0.1353
18089WAT     H274162  -1.378   6.388   3.496 -0.4207  0.2588  0.7800
18089WAT    EPW74163  -1.378   6.302   3.482  0.0908  0.3095  0.4638
18090WAT      O74164  -1.737   1.807   2.156 -0.4308  0.5459 -0.4471
18090WAT     H174165  -1.758   1.857   2.078 -1.8708  1.2264  0.3412
18090WAT     H274166  -1.768   1.861   2.229  0.7632 -0.1200  0.6084
18090WAT    EPW74167  -1.744   1.820   2.155 -0.4632  0.5478 -0.2040
18091WAT      O74168   0.450   7.520   3.713  0.1840 -0.0407  0.2873
18091WAT     H174169   0.497   7.463   3.651 -2.0819  0.0783 -1.6920
18091WAT     H274170   0.403   7.459   3.770 -0.0181 -0.1666 -0.0097
18091WAT    EPW74171   0.450   7.504   3.712 -0.1415 -0.0417 -0.0129
18092WAT      O74172   3.974   0.799   1.523  0.0239 -0.2636 -0.2257
18092WAT     H174173   4.005   0.880   1.564  0.3196 -0.2835 -0.4021
18092WAT     H274174   3.969   0.736   1.596 -0.3976 -0.0347 -0.0561
18092WAT    EPW74175   3.978   0.801   1.538  0.0073 -0.2361 -0.2266
18093WAT      O74176  -1.365   3.834   0.902 -0.6178  0.5535 -0.3624
18093WAT     H174177  -1.456   3.859   0.917 -0.9050  0.0998 -1.2687
18093WAT     H274178  -1.323   3.913   0.869 -0.5208  0.9352  0.6428
18093WAT    EPW74179  -1.371   3.847   0.899 -0.6429  0.5440 -0.3493
18094WAT      O74180   4.530   2.441   0.584 -0.1177 -0.4021  0.4290
18094WAT     H174181   4.521   2.385   0.661  1.5208  0.9831  1.7076
18094WAT     H274182   4.459   2.504   0.591  0.0458 -0.2620  0.8252
18094WAT    EPW74183   4.519   2.442   0.595  0.1199 -0.2009  0.6499
18095WAT      O74184  -1.280   2.800   0.763 -0.0540 -0.4686  0.0828
18095WAT     H174185  -1.189   2.821   0.787 -0.7377  5.5737 -0.9419
18095WAT     H274186  -1.277   2.790   0.668 -0.5156  1.5009 -0.1897
18095WAT    EPW74187  -1.267   2.802   0.753 -0.2050  0.5882 -0.0883
18096WAT      O74188  -4.448   9.823   3.042  0.4205  0.8746 -0.5446
18096WAT     H174189  -4.373   9.878   3.018  0.2847  1.4178  0.2278
18096WAT     H274190  -4.431   9.739   2.998  1.6292  0.8900 -0.1634
18096WAT    EPW74191  -4.436   9.819   3.033  0.5620  0.9484 -0.3923
18097WAT      O74192  -0.305   4.728   0.060 -0.3079 -0.1611  0.2101
18097WAT     H174193  -0.369   4.657   0.069 -1.3363  0.9611  2.2368
18097WAT     H274194  -0.356   4.802   0.029  0.4207  0.2172 -0.1084
18097WAT    EPW74195  -0.320   4.728   0.057 -0.3474  0.0367  0.4354
18098WAT      O74196  -4.728   9.088   6.640 -0.3233  0.0014 -0.4118
18098WAT     H174197  -4.655   9.138   6.603  0.5247  0.0582  1.2714
18098WAT     H274198  -4.687   9.010   6.677 -1.2562 -0.4325 -0.2684
18098WAT    EPW74199  -4.713   9.085   6.640 -0.3345 -0.0482 -0.1709
18099WAT      O74200   4.563   2.479   1.567  0.1992  1.1782  0.3788
18099WAT     H174201   4.571   2.385   1.586 -1.0479  0.7328 -1.0075
18099WAT     H274202   4.473   2.500   1.590 -0.6604  1.1380 -2.4898
18099WAT    EPW74203   4.552   2.469   1.572 -0.0787  1.1141 -0.1824
18100WAT      O74204   1.763   4.149   7.874  0.0470  0.4638 -0.4532
18100WAT     H174205   1.827   4.137   7.804  1.1481 -0.5362  0.6855
18100WAT     H274206   1.779   4.077   7.935  1.0515  2.8228  2.3071
18100WAT    EPW74207   1.773   4.138   7.873  0.3247  0.6430  0.0610
18101WAT      O74208   3.472   3.556   3.718  0.1979  0.9543  0.1410
18101WAT     H174209   3.506   3.554   3.629  1.2750  0.4038  0.5540
18101WAT     H274210   3.378   3.574   3.707 -0.1821 -1.4070 -1.2458
18101WAT    EPW74211   3.464   3.558   3.705  0.2899  0.5702  0.0126
18102WAT      O74212   3.395   7.137   2.217 -0.5188 -0.0785  0.3006
18102WAT     H174213   3.304   7.154   2.192 -1.0679 -2.0274  0.8165
18102WAT     H274214   3.408   7.188   2.297 -1.3204 -0.2153  0.5236
18102WAT    EPW74215   3.385   7.146   2.224 -0.6970 -0.3536  0.3980
18103WAT      O74216   1.490   4.235   3.350 -0.0785  0.2929  0.6491
18103WAT     H174217   1.444   4.297   3.293 -1.5905 -1.2423  0.1156
18103WAT     H274218   1.425   4.211   3.416 -0.1064 -1.9019 -0.0900
18103WAT    EPW74219   1.476   4.240   3.351 -0.2816 -0.1991  0.4812
18104WAT      O74220  -3.334   4.853   3.974 -0.2747 -0.7275  0.0972
18104WAT     H174221  -3.361   4.762   3.960  1.4976 -1.2891  0.0458
18104WAT     H274222  -3.398   4.888   4.036  1.0553 -3.1633  3.0879
18104WAT    EPW74223  -3.346   4.846   3.980  0.1346 -1.1227  0.4848
18105WAT      O74224   3.877   8.603   1.325 -0.7006 -0.4256 -0.1241
18105WAT     H174225   3.889   8.518   1.368 -3.1529 -0.9934 -0.4185
18105WAT     H274226   3.908   8.590   1.236 -0.1927 -0.7179  0.0901
18105WAT    EPW74227   3.882   8.590   1.319 -0.9571 -0.5393 -0.1347
18106WAT      O74228  -3.734  10.107   3.614  0.2926  0.1417 -0.3803
18106WAT     H174229  -3.674  10.037   3.589  0.9334  1.4565 -2.8631
18106WAT     H274230  -3.688  10.187   3.590 -2.8044  1.2173 -3.5227
18106WAT    EPW74231  -3.720  10.108   3.608 -0.0314  0.4568 -1.1221
18107WAT      O74232   1.827   5.346   6.811  0.1130 -0.3426  0.1296
18107WAT     H174233   1.868   5.381   6.731 -0.7259 -0.0952 -0.2101
18107WAT     H274234   1.733   5.346   6.791 -0.0044 -1.5685  0.6192
18107WAT    EPW74235   1.820   5.351   6.797 -0.0131 -0.4716  0.1495
18108WAT      O74236  -3.333   9.955   0.953 -0.9122  0.0546 -0.2033
18108WAT     H174237  -3.332  10.024   1.019 -0.0437  0.0335 -0.1833
18108WAT     H274238  -3.402   9.895   0.983  0.2555 -0.5858  1.3579
18108WAT    EPW74239  -3.342   9.956   0.966 -0.6436 -0.0324  0.0052
18109WAT      O74240  -0.844   5.899   4.421  0.2684 -0.4843  0.0015
18109WAT     H174241  -0.929   5.862   4.396 -0.6808  0.0571  2.2348
18109WAT     H274242  -0.856   5.928   4.511  2.2648  1.4048 -0.2680
18109WAT    EPW74243  -0.857   5.898   4.429  0.4065 -0.1636  0.2604
18110WAT      O74244   2.779   4.218   4.720  0.1303  0.1074 -0.1680
18110WAT     H174245   2.855   4.203   4.776  0.8489 -0.8690 -1.3570
18110WAT     H274246   2.811   4.201   4.631 -1.5525 -0.6880 -0.6650
18110WAT    EPW74247   2.793   4.214   4.716  0.0031 -0.1261 -0.3905
18111WAT      O74248   4.017   3.390   8.299  0.7184 -0.1289 -0.0551
18111WAT     H174249   3.953   3.446   8.342  1.5404  1.1086 -0.3772
18111WAT     H274250   4.051   3.333   8.369  1.1669  1.0234  0.6962
18111WAT    EPW74251   4.013   3.390   8.314  0.8860  0.1864  0.0014
18112WAT      O74252   2.259   1.640   0.266 -0.0428 -0.1501 -0.2107
18112WAT     H174253   2.241   1.656   0.173 -1.3301 -2.0294 -0.3435
18112WAT     H274254   2.209   1.707   0.312 -1.6329 -0.8499 -0.8385
18112WAT    EPW74255   2.250   1.651   0.260 -0.4224 -0.4903 -0.3110
18113WAT      O74256   6.596   3.489   2.307 -0.4286  0.4962 -0.4253
18113WAT     H174257   6.510   3.500   2.348  0.6618  2.7596  1.5141
18113WAT     H274258   6.654   3.545   2.358  2.0448 -0.2164 -2.2574
18113WAT    EPW74259   6.593   3.498   2.319  0.0415  0.7006 -0.4112
18114WAT      O74260   8.871   0.403   2.065  0.1734 -0.5515  0.2270
18114WAT     H174261   8.965   0.410   2.081  0.0847 -2.4620  1.8774
18114WAT     H274262   8.831   0.455   2.135 -0.0939  3.6907 -2.6881
18114WAT    EPW74263   8.878   0.411   2.076  0.1264 -0.2440  0.0602
18115WAT      O74264   7.795   6.258   1.177  0.3429 -0.1575 -0.0617
18115WAT     H174265   7.783   6.164   1.192 -2.6841  0.0866 -0.2884
18115WAT     H274266   7.794   6.268   1.082 -1.5788  0.2532 -0.0369
18115WAT    EPW74267   7.793   6.247   1.167 -0.3097 -0.0710 -0.0883
18116WAT      O74268  -2.988   9.417   1.825  0.0551 -0.1893 -0.3727
18116WAT     H174269  -2.948   9.386   1.906  0.2615  0.3857 -0.2514
18116WAT     H274270  -3.076   9.381   1.826 -0.4008  0.8976  0.7535
18116WAT    EPW74271  -2.994   9.408   1.835  0.0222  0.0300 -0.2081
18117WAT      O74272   2.307   9.100   8.741 -0.0217 -0.1574  0.5081
18117WAT     H174273   2.368   9.082   8.669 -3.2007 -4.7084 -1.5339
18117WAT     H274274   2.269   9.185   8.721  1.0393 -0.1627 -1.7726
18117WAT    EPW74275   2.310   9.109   8.729 -0.3010 -0.7582 -0.0620
18118WAT      O74276  -1.325   8.827   6.667  0.0390 -0.1740 -0.6119
18118WAT     H174277  -1.232   8.847   6.676 -0.4296  2.5515 -1.0675
18118WAT     H274278  -1.333   8.793   6.578  0.6837 -1.3741 -0.2466
18118WAT    EPW74279  -1.314   8.825   6.657  0.0623  0.0272 -0.6237
18119WAT      O74280   7.155   1.690   2.224 -0.6457 -0.2531 -0.1830
18119WAT     H174281   7.191   1.602   2.232  0.6873  0.1327 -1.5439
18119WAT     H274282   7.142   1.703   2.130  1.4286  1.8317 -0.2626
18119WAT    EPW74283   7.158   1.680   2.213 -0.1962  0.0727 -0.3730
18120WAT      O74284  -1.302   1.384   6.424  0.2220  1.0749  0.1194
18120WAT     H174285  -1.246   1.359   6.497 -0.8153  0.3393  0.6831
18120WAT     H274286  -1.352   1.305   6.404 -0.5365  1.6802 -0.4457
18120WAT    EPW74287  -1.301   1.370   6.431 -0.0148  1.0577  0.1192
18121WAT      O74288   0.288   6.172   7.499 -0.3501  0.3450  0.1840
18121WAT     H174289   0.252   6.084   7.491  2.2396 -0.6155 -2.5205
18121WAT     H274290   0.285   6.208   7.411  2.5620  1.2483  0.3426
18121WAT    EPW74291   0.283   6.165   7.487  0.3755  0.3374 -0.1516
18122WAT      O74292  -3.916   9.887   8.029  0.3938 -0.3994  0.4204
18122WAT     H174293  -3.968   9.818   7.986 -0.9430  0.4989  0.5507
18122WAT     H274294  -3.934   9.966   7.978 -0.2283  0.4214  1.8538
18122WAT    EPW74295  -3.925   9.888   8.016  0.1355 -0.1721  0.6266
18123WAT      O74296  -3.836   3.260   4.520  0.4311 -0.0816 -0.9674
18123WAT     H174297  -3.816   3.332   4.461  2.1407 -0.0609 -0.4269
18123WAT     H274298  -3.844   3.184   4.462  2.4162 -0.1244 -1.2715
18123WAT    EPW74299  -3.835   3.259   4.504  0.9185 -0.0844 -0.9363
18124WAT      O74300   2.448   8.952   2.296  0.6420 -0.0852 -0.3579
18124WAT     H174301   2.369   8.989   2.258  0.3722 -0.6322 -0.3363
18124WAT     H274302   2.481   8.892   2.228  0.8234 -0.1511 -0.2133
18124WAT    EPW74303   2.442   8.949   2.282  0.6304 -0.1659 -0.3359
18125WAT      O74304  -2.135   0.280   4.241 -0.5633 -0.5712  1.0457
18125WAT     H174305  -2.075   0.330   4.296  0.2529 -1.0494  0.6076
18125WAT     H274306  -2.080   0.211   4.202 -1.4744 -1.2679  0.9545
18125WAT    EPW74307  -2.120   0.277   4.243 -0.5759 -0.7261  0.9761
18126WAT      O74308   1.078   7.846   0.429 -0.2725  0.1909 -0.4826
18126WAT     H174309   1.003   7.794   0.458 -0.8028  0.6411 -1.0176
18126WAT     H274310   1.043   7.901   0.358  0.9031 -0.6368 -1.7423
18126WAT    EPW74311   1.064   7.847   0.423 -0.1874  0.1411 -0.7193
18127WAT      O74312   3.238   4.553   3.573 -0.5480 -0.1197  0.2707
18127WAT     H174313   3.237   4.638   3.617  0.5315  1.3952 -2.3675
18127WAT     H274314   3.331   4.539   3.552 -0.8800 -1.2832 -0.4961
18127WAT    EPW74315   3.250   4.563   3.576 -0.4495 -0.0734 -0.1783
18128WAT      O74316   0.004   6.294   2.401  0.0210  0.0840 -0.1552
18128WAT     H174317  -0.042   6.231   2.346 -0.2471 -0.4574  0.6662
18128WAT     H274318   0.085   6.312   2.354 -0.3389 -0.1432 -0.8653
18128WAT    EPW74319   0.009   6.288   2.388 -0.0619 -0.0174 -0.1405
18129WAT      O74320  -2.818   2.748   8.297 -0.8999  0.3354 -0.4673
18129WAT     H174321  -2.726   2.758   8.325 -0.5131 -3.2617 -0.0270
18129WAT     H274322  -2.865   2.731   8.378 -1.7077  0.5321 -0.8911
18129WAT    EPW74323  -2.812   2.747   8.311 -0.9555 -0.1131 -0.4649
18130WAT      O74324  -1.929   2.276   3.016 -0.2020 -0.2797 -0.2046
18130WAT     H174325  -1.944   2.357   3.063  0.2226  0.1967 -0.8657
18130WAT     H274326  -2.015   2.253   2.979 -0.4164 -0.3745  0.3365
18130WAT    EPW74327  -1.943   2.283   3.017 -0.1743 -0.2294 -0.2204
18131WAT      O74328   7.533   6.281   0.797 -0.4424  0.7102  0.0271
18131WAT     H174329   7.501   6.207   0.745 -1.2998 -0.4112  2.0117
18131WAT     H274330   7.453   6.325   0.826  0.0558  2.1977 -0.7671
18131WAT    EPW74331   7.518   6.277   0.794 -0.4897  0.7584  0.1841
18132WAT      O74332  -1.869   9.590   8.637  0.3990 -0.1167  0.5368
18132WAT     H174333  -1.954   9.622   8.609  0.0625 -1.1865  0.3078
18132WAT     H274334  -1.885   9.500   8.665  1.9045 -1.3406 -2.1384
18132WAT    EPW74335  -1.882   9.582   8.637  0.5531 -0.4191  0.1535
18133WAT      O74336   4.243   4.908   7.518  0.2567 -0.1594  0.1488
18133WAT     H174337   4.175   4.846   7.490 -0.4090 -0.2012  1.7274
18133WAT     H274338   4.295   4.925   7.439 -1.1826 -0.6476 -0.9435
18133WAT    EPW74339   4.241   4.902   7.504 -0.0212 -0.2294  0.2129
18134WAT      O74340  -1.700   1.766   3.669  0.0037  0.0502 -0.4139
18134WAT     H174341  -1.683   1.726   3.754 -0.7084  0.1345 -0.2253
18134WAT     H274342  -1.672   1.701   3.605  1.2691  0.2932 -0.1290
18134WAT    EPW74343  -1.694   1.752   3.672  0.0767  0.0933 -0.3515
18135WAT      O74344   8.085   2.248   1.577  0.2898 -0.4159  0.0848
18135WAT     H174345   8.006   2.301   1.587  0.5469 -0.4095  3.3776
18135WAT     H274346   8.054   2.160   1.556 -0.5282 -0.1548  0.1865
18135WAT    EPW74347   8.071   2.243   1.576  0.2155 -0.3806  0.5325
18136WAT      O74348   3.457   7.527   3.614 -0.1227 -0.0619 -0.0132
18136WAT     H174349   3.527   7.521   3.549 -1.7909 -0.6922 -1.8778
18136WAT     H274350   3.387   7.576   3.569 -1.3725 -0.6226  1.2543
18136WAT    EPW74351   3.457   7.532   3.599 -0.5075 -0.2189 -0.0920
18137WAT      O74352  -4.531   8.852   3.283  0.5266  0.5960 -0.7872
18137WAT     H174353  -4.476   8.795   3.337  0.0839  0.6627 -0.2630
18137WAT     H274354  -4.526   8.814   3.195  0.2315 -0.2599 -0.4434
18137WAT    EPW74355  -4.523   8.840   3.278  0.4292  0.4921 -0.6727
18138WAT      O74356  -3.468   9.107   1.522  0.0609 -0.5019 -0.5294
18138WAT     H174357  -3.517   9.033   1.486 -0.2533 -0.5403 -0.0389
18138WAT     H274358  -3.404   9.067   1.581  1.6343 -0.5469 -2.2011
18138WAT    EPW74359  -3.466   9.092   1.525  0.2270 -0.5131 -0.6852
18139WAT      O74360  -2.774   8.709   2.008 -0.2369 -0.3583 -0.2288
18139WAT     H174361  -2.799   8.733   1.919  0.8068  1.1814 -0.1340
18139WAT     H274362  -2.684   8.677   2.000 -0.5084 -1.2627  0.1371
18139WAT    EPW74363  -2.765   8.708   1.995 -0.1351 -0.2747 -0.1680
18140WAT      O74364  -6.090   5.871   7.013 -0.5290  0.1264 -0.4200
18140WAT     H174365  -6.050   5.823   7.086 -1.9106 -0.6792 -0.1557
18140WAT     H274366  -6.064   5.822   6.935  0.3014  0.5412 -0.4217
18140WAT    EPW74367  -6.081   5.858   7.013 -0.6018  0.0749 -0.3855
18141WAT      O74368   6.896   4.658   0.737 -0.5545 -0.0072  0.5680
18141WAT     H174369   6.979   4.696   0.708 -0.4317 -0.2392  0.6163
18141WAT     H274370   6.899   4.667   0.833 -0.8491  0.5313  0.5289
18141WAT    EPW74371   6.907   4.664   0.746 -0.5772  0.0334  0.5692
18142WAT      O74372  -4.541   9.880   8.610 -0.1427  0.5009  0.3816
18142WAT     H174373  -4.616   9.824   8.628 -0.9896  1.1708 -0.8823
18142WAT     H274374  -4.580   9.965   8.589  0.8275  0.4456 -1.9082
18142WAT    EPW74375  -4.556   9.884   8.610 -0.1264  0.5817 -0.0873
18143WAT      O74376   0.240   1.418   5.670 -0.0884  0.0661 -0.0797
18143WAT     H174377   0.230   1.381   5.582 -1.1598 -1.4817  0.6312
18143WAT     H274378   0.166   1.479   5.679 -0.9548 -0.9925  0.2780
18143WAT    EPW74379   0.229   1.421   5.660 -0.3440 -0.2776  0.0613
18144WAT      O74380  -5.132   9.188   5.807  0.2929 -0.1508  0.4244
18144WAT     H174381  -5.204   9.220   5.862  1.8347 -0.1519  2.5428
18144WAT     H274382  -5.117   9.258   5.744 -0.1701  0.7926  1.3290
18144WAT    EPW74383  -5.140   9.201   5.806  0.4351 -0.0262  0.8233
18145WAT      O74384   2.455   5.752   8.312  0.7140 -0.2873 -0.1099
18145WAT     H174385   2.414   5.801   8.240  1.9238 -0.0184 -0.6496
18145WAT     H274386   2.509   5.687   8.269  0.9858 -0.5255  0.5780
18145WAT    EPW74387   2.457   5.750   8.297  0.9094 -0.2832 -0.0906
18146WAT      O74388   2.782   9.688   0.069  0.1060  0.1297  0.5391
18146WAT     H174389   2.802   9.767   0.120  0.7583  0.6646 -0.5135
18146WAT     H274390   2.863   9.637   0.070  1.0914  1.4476 -2.2216
18146WAT    EPW74391   2.795   9.692   0.076  0.3220  0.3738  0.0362
18147WAT      O74392   2.403   5.706   2.451 -0.1814  0.1229 -0.9867
18147WAT     H174393   2.344   5.634   2.475 -0.1478  1.0517  2.4867
18147WAT     H274394   2.447   5.676   2.372 -0.6289 -3.3870 -0.0668
18147WAT    EPW74395   2.401   5.692   2.444 -0.2360 -0.2177 -0.4073
18148WAT      O74396  -4.366   3.123   7.811 -0.3371 -1.1053 -0.2200
18148WAT     H174397  -4.367   3.069   7.732 -1.4514 -3.1173  1.1008
18148WAT     H274398  -4.386   3.063   7.882  0.7925  0.6071  1.6647
18148WAT    EPW74399  -4.369   3.108   7.810 -0.3350 -1.1448  0.2029
18149WAT      O74400   1.876   7.580   5.778  0.4581 -0.3047 -0.1107
18149WAT     H174401   1.785   7.575   5.805  1.1641  1.8360  3.3507
18149WAT     H274402   1.887   7.669   5.745  1.0419 -1.0060 -1.9446
18149WAT    EPW74403   1.866   7.591   5.777  0.6282 -0.1147  0.1037
18150WAT      O74404   2.643   0.363   8.528 -0.1180 -0.4129  0.5665
18150WAT     H174405   2.672   0.272   8.535 -2.7008 -1.5770 -1.8140
18150WAT     H274406   2.681   0.395   8.447  1.8098  1.1953  1.9887
18150WAT    EPW74407   2.652   0.355   8.518 -0.2043 -0.3543  0.4401
18151WAT      O74408  -1.602  10.125   0.242  0.6401 -0.4635 -0.4287
18151WAT     H174409  -1.547  10.107   0.319  0.3733  2.1956  0.4858
18151WAT     H274410  -1.540  10.139   0.171  1.0922  0.6897  0.1735
18151WAT    EPW74411  -1.586  10.124   0.243  0.6645  0.0391 -0.2287
18152WAT      O74412   3.261   3.665   6.958  0.2848  0.6580  0.2044
18152WAT     H174413   3.281   3.596   7.021  0.6489  1.1363  0.6307
18152WAT     H274414   3.271   3.746   7.008  1.2574  1.0834 -0.6312
18152WAT    EPW74415   3.265   3.667   6.973  0.4612  0.7772  0.1507
18153WAT      O74416   4.889   0.306   7.642  0.0436 -0.4574 -0.3792
18153WAT     H174417   4.865   0.339   7.728  0.2924 -3.0063  0.7732
18153WAT     H274418   4.807   0.307   7.592 -1.0351 -2.4989  1.2006
18153WAT    EPW74419   4.875   0.310   7.647 -0.0660 -1.0628 -0.0186
18154WAT      O74420  -0.729   6.777   5.841 -0.6169 -0.2647 -0.3231
18154WAT     H174421  -0.780   6.801   5.763 -1.1564  1.0646  0.4101
18154WAT     H274422  -0.775   6.701   5.876 -1.6454  0.4299 -0.1227
18154WAT    EPW74423  -0.742   6.770   5.835 -0.8237  0.0021 -0.2000
18155WAT      O74424  -2.221   0.154   4.812  0.8805  0.9793  1.0287
18155WAT     H174425  -2.209   0.060   4.820  0.7367  0.8218 -0.3485
18155WAT     H274426  -2.132   0.190   4.812  1.1176  0.5512 -1.2316
18155WAT    EPW74427  -2.207   0.147   4.813  0.8930  0.9021  0.5488
18156WAT      O74428   1.756   3.393   0.491 -0.4423 -0.5397 -0.7139
18156WAT     H174429   1.723   3.365   0.575 -0.7932 -1.4767 -1.1569
18156WAT     H274430   1.699   3.351   0.427  0.0248 -0.1149 -1.4281
18156WAT    EPW74431   1.744   3.384   0.493 -0.4270 -0.6073 -0.8665
18157WAT      O74432   5.799   1.147   2.253 -0.3005 -0.4683 -0.1886
18157WAT     H174433   5.797   1.056   2.223 -0.5742 -0.1131 -1.3108
18157WAT     H274434   5.890   1.163   2.274 -0.2438 -0.9968 -0.0099
18157WAT    EPW74435   5.811   1.137   2.252 -0.3290 -0.4912 -0.3130
18158WAT      O74436   5.815   9.133   2.237  0.6578  0.1234 -0.4803
18158WAT     H174437   5.730   9.089   2.227 -0.0757  1.5007 -0.5319
18158WAT     H274438   5.856   9.090   2.312 -0.9147  0.6690  0.7570
18158WAT    EPW74439   5.809   9.121   2.246  0.3536  0.3772 -0.3238
18159WAT      O74440   1.262   8.188   2.428  0.2665  0.4547  0.0286
18159WAT     H174441   1.265   8.093   2.439 -1.2362  0.4819  1.0624
18159WAT     H274442   1.257   8.221   2.518 -1.9022  1.3461 -0.3704
18159WAT    EPW74443   1.262   8.180   2.442 -0.2177  0.5755  0.1123
18160WAT      O74444  -4.212   2.996   6.483  0.7236  0.1439 -0.6732
18160WAT     H174445  -4.273   3.011   6.411  1.2170  2.1264 -0.7607
18160WAT     H274446  -4.227   3.070   6.542  0.0857 -1.5994  1.4860
18160WAT    EPW74447  -4.222   3.008   6.481  0.7045  0.1755 -0.4001
18161WAT      O74448  -4.860   0.850   7.872 -0.2363  0.0704 -0.0762
18161WAT     H174449  -4.811   0.828   7.952  0.9262  2.2088 -0.1381
18161WAT     H274450  -4.942   0.889   7.904  0.0320  0.5154  0.0802
18161WAT    EPW74451  -4.864   0.852   7.887 -0.0474  0.4112 -0.0637
18162WAT      O74452  -3.031   8.195   1.183  0.1899 -0.3162 -0.0070
18162WAT     H174453  -3.003   8.189   1.092  1.3662  0.3267  0.2792
18162WAT     H274454  -3.126   8.199   1.180  0.1294 -1.8539 -1.0981
18162WAT    EPW74455  -3.040   8.195   1.171  0.3371 -0.4344 -0.1132
18163WAT      O74456   4.876   8.276   4.359  0.2666  0.5869 -0.5132
18163WAT     H174457   4.881   8.212   4.289 -2.6794  0.7924 -1.0424
18163WAT     H274458   4.857   8.225   4.438 -4.0694  0.6783 -1.2411
18163WAT    EPW74459   4.874   8.261   4.360 -0.6938  0.6261 -0.6790
18164WAT      O74460   2.538   0.465   7.908 -0.1046 -0.2804 -0.6872
18164WAT     H174461   2.445   0.488   7.907 -1.6271 -5.2104 -2.6287
18164WAT     H274462   2.543   0.389   7.966  3.0132  0.3213  0.0325
18164WAT    EPW74463   2.526   0.458   7.916  0.1057 -0.8513 -0.8485
18165WAT      O74464   2.625   4.534   6.213  0.8667  0.4828  0.1278
18165WAT     H174465   2.618   4.496   6.125  1.5652 -0.4682  0.4695
18165WAT     H274466   2.601   4.626   6.201 -2.0952 -0.2726 -0.5311
18165WAT    EPW74467   2.621   4.541   6.200  0.5683  0.2577  0.0858
18166WAT      O74468   3.040   0.085   5.099 -0.0375 -0.2077 -0.1955
18166WAT     H174469   3.065   0.124   5.015  1.8165  0.2148  0.4992
18166WAT     H274470   2.967   0.139   5.129 -1.6471 -1.1915 -2.1002
18166WAT    EPW74471   3.033   0.098   5.092 -0.0052 -0.2817 -0.3550
18167WAT      O74472   3.699   1.958   2.162  0.2293  1.1606  0.3837
18167WAT     H174473   3.781   1.915   2.188  0.4101  2.3248  1.8545
18167WAT     H274474   3.631   1.901   2.198  0.4370  1.1646  0.8001
18167WAT    EPW74475   3.701   1.945   2.170  0.2805  1.3148  0.6326
18168WAT      O74476   5.747  -0.015   3.789 -0.1466  0.2865 -0.4156
18168WAT     H174477   5.695  -0.043   3.864 -0.4442  0.2735 -0.6239
18168WAT     H274478   5.760   0.079   3.803 -3.0178  1.0399 -1.9743
18168WAT    EPW74479   5.742  -0.006   3.801 -0.5646  0.3843 -0.6486
18169WAT      O74480  -6.811   9.558   8.683 -0.4914 -0.2205 -0.1994
18169WAT     H174481  -6.722   9.527   8.668 -0.4054  0.4730 -1.3075
18169WAT     H274482  -6.834   9.603   8.601 -2.2060 -1.2001 -0.3098
18169WAT    EPW74483  -6.802   9.560   8.670 -0.7062 -0.2584 -0.3600
18170WAT      O74484  -1.595   7.075   6.146 -0.4311  0.6843  0.6071
18170WAT     H174485  -1.616   7.048   6.236  2.1855 -1.0228  0.7971
18170WAT     H274486  -1.563   7.165   6.155 -0.2921  0.5625  1.3609
18170WAT    EPW74487  -1.594   7.083   6.159 -0.0677  0.4430  0.7315
18171WAT      O74488  -2.429   2.908   4.411  0.4432  0.0775 -0.0067
18171WAT     H174489  -2.478   2.937   4.488  1.0535 -0.0813  0.4492
18171WAT     H274490  -2.440   2.978   4.348  1.5538  1.1470  0.9322
18171WAT    EPW74491  -2.437   2.921   4.413  0.6701  0.1976  0.1769
18172WAT      O74492   4.022   9.393   1.812 -0.8770  1.2104 -0.1682
18172WAT     H174493   4.036   9.380   1.719 -2.6239  1.4246 -0.4974
18172WAT     H274494   4.099   9.441   1.842  0.5186 -0.3679 -1.1291
18172WAT    EPW74495   4.034   9.398   1.804 -0.9236  1.0300 -0.3384
18173WAT      O74496   1.482   7.191   4.286 -0.4082  0.1681  0.1495
18173WAT     H174497   1.566   7.161   4.319 -0.7216 -3.2121 -1.6860
18173WAT     H274498   1.496   7.198   4.191 -1.6912  1.5025  0.0336
18173WAT    EPW74499   1.495   7.188   4.278 -0.6188 -0.1016 -0.1078
18174WAT      O74500   0.561   5.255   6.733 -0.5295 -0.4307  0.3749
18174WAT     H174501   0.533   5.341   6.765 -0.0173 -1.1190  2.8774
18174WAT     H274502   0.480   5.204   6.727 -0.6895 -0.1453  0.0774
18174WAT    EPW74503   0.547   5.259   6.737 -0.4830 -0.4840  0.6657
18175WAT      O74504  -1.068  -0.007   4.951 -0.1573 -0.0615 -0.3087
18175WAT     H174505  -0.982  -0.021   4.911  0.8743  2.9033  0.5896
18175WAT     H274506  -1.053   0.063   5.015 -2.6167 -1.6091  2.1811
18175WAT    EPW74507  -1.055   0.000   4.954 -0.3457  0.1249  0.1380
18176WAT      O74508   5.253   3.326   5.183  0.0493 -0.0019  0.1020
18176WAT     H174509   5.324   3.386   5.160 -1.2886  0.8332 -2.1482
18176WAT     H274510   5.177   3.359   5.136 -0.5967 -3.8811 -1.9663
18176WAT    EPW74511   5.252   3.338   5.174 -0.2122 -0.4034 -0.4675
18177WAT      O74512   4.772   1.651   7.261  0.3232 -0.2017  0.5504
18177WAT     H174513   4.842   1.648   7.326 -0.8124  2.6445  2.0471
18177WAT     H274514   4.791   1.728   7.208  0.1483 -1.3753 -1.3298
18177WAT    EPW74515   4.784   1.661   7.263  0.1504  0.0189  0.4997
18178WAT      O74516   3.487   9.815   2.321  0.4752 -0.4836 -0.0470
18178WAT     H174517   3.406   9.802   2.369 -0.4442  0.6900 -1.1925
18178WAT     H274518   3.542   9.866   2.380 -0.7983  1.3105 -0.3307
18178WAT    EPW74519   3.484   9.820   2.335  0.1860 -0.0920 -0.2354
18179WAT      O74520  -7.599   8.696   7.835  0.3386 -0.5357 -0.1176
18179WAT     H174521  -7.599   8.622   7.775 -2.3527 -0.1988 -0.6764
18179WAT     H274522  -7.581   8.658   7.921 -0.7275 -1.8349 -0.4307
18179WAT    EPW74523  -7.597   8.682   7.839 -0.1569 -0.6623 -0.2327
18180WAT      O74524  -6.579   6.581   8.752 -0.3332  0.2001 -0.2592
18180WAT     H174525  -6.616   6.501   8.715  0.0566 -1.0167  1.8829
18180WAT     H274526  -6.504   6.552   8.803  0.0472  1.9856  0.2705
18180WAT    EPW74527  -6.574   6.567   8.754 -0.2315  0.2751  0.0930
18181WAT      O74528  -2.650   1.602   8.246  0.0411 -0.2747  0.3877
18181WAT     H174529  -2.700   1.678   8.214 -0.4420  0.0941  1.9428
18181WAT     H274530  -2.656   1.538   8.175 -1.1275  0.4429 -0.1947
18181WAT    EPW74531  -2.657   1.604   8.232 -0.1767 -0.1314  0.5159
18182WAT      O74532  -1.721   5.570   5.642  0.1495 -0.4989  0.2977
18182WAT     H174533  -1.709   5.640   5.578 -0.3337 -0.0679  0.6815
18182WAT     H274534  -1.786   5.512   5.601 -1.5530  0.7208  1.1507
18182WAT    EPW74535  -1.728   5.571   5.628 -0.1388 -0.2811  0.4609
18183WAT      O74536   0.930   4.711   8.759  0.3646 -0.2262  0.1192
18183WAT     H174537   0.891   4.797   8.746 -2.0747 -1.2085  0.5058
18183WAT     H274538   0.859   4.657   8.794  2.3068 -1.9364  1.7009
18183WAT    EPW74539   0.916   4.715   8.762  0.2990 -0.5813  0.3786
18184WAT      O74540   6.071   2.141   0.576 -0.0902  0.6230 -0.2383
18184WAT     H174541   6.145   2.122   0.633 -0.7620  1.2268  0.8720
18184WAT     H274542   5.998   2.157   0.636 -1.5965 -1.7082 -1.2903
18184WAT    EPW74543   6.071   2.141   0.592 -0.3777  0.3951 -0.2306
18185WAT      O74544   3.864   2.835   3.101 -0.0115 -0.3242  0.0823
18185WAT     H174545   3.869   2.860   3.193  1.4327  0.8089 -0.2659
18185WAT     H274546   3.799   2.765   3.099 -0.4915  0.0168  1.8675
18185WAT    EPW74547   3.856   2.829   3.113  0.1158 -0.1298  0.2718
18186WAT      O74548  -5.199   0.067   8.821 -0.6464 -0.9353  0.5232
18186WAT     H174549  -5.238   0.143   8.865  0.2985  0.2993 -0.6570
18186WAT     H274550  -5.110   0.062   8.855 -0.1553 -0.4373 -0.6280
18186WAT    EPW74551  -5.192   0.077   8.831 -0.4568 -0.7068  0.2160
18187WAT      O74552  -5.538   2.466   8.833  0.4920  0.7145 -0.1949
18187WAT     H174553  -5.608   2.460   8.898 -0.3140 -0.5739 -1.1463
18187WAT     H274554  -5.566   2.409   8.762  2.0286  0.9863 -1.0616
18187WAT    EPW74555  -5.551   2.458   8.832  0.5882  0.5804 -0.4344
18188WAT      O74556   3.356   7.053   0.631  0.1223  0.2551 -0.3472
18188WAT     H174557   3.262   7.052   0.650  0.1305 -0.7098 -0.2967
18188WAT     H274558   3.396   7.090   0.710 -0.1024 -0.7679  0.2602
18188WAT    EPW74559   3.349   7.058   0.644  0.0938 -0.0072 -0.2604
18189WAT      O74560   6.570   1.905   3.490 -0.4129 -0.8790 -0.6736
18189WAT     H174561   6.544   1.818   3.458  0.6020 -3.0848  3.7982
18189WAT     H274562   6.653   1.890   3.534  0.0876  2.5597 -0.2304
18189WAT    EPW74563   6.577   1.891   3.491 -0.2131 -0.7164 -0.0254
18190WAT      O74564   0.272   6.076   8.266  0.2565  0.2367  0.2480
18190WAT     H174565   0.298   6.030   8.187 -0.9284  0.3619 -0.2406
18190WAT     H274566   0.184   6.043   8.285  1.5891 -2.0178  3.2344
18190WAT    EPW74567   0.264   6.066   8.258  0.2760 -0.0441  0.5774
18191WAT      O74568   6.797   0.392   1.628  0.3927 -0.2664 -0.0079
18191WAT     H174569   6.767   0.482   1.631  0.5856  0.0381 -3.2672
18191WAT     H274570   6.740   0.345   1.688 -0.1514  1.8655  1.2492
18191WAT    EPW74571   6.786   0.398   1.636  0.3464  0.0549 -0.2720
18192WAT      O74572   4.324   4.593   5.749 -0.3529  0.3136 -0.0017
18192WAT     H174573   4.275   4.593   5.831  0.1794 -0.0009  0.3250
18192WAT     H274574   4.271   4.539   5.690 -1.1376  1.1950 -0.1252
18192WAT    EPW74575   4.310   4.586   5.752 -0.3862  0.3886  0.0253
18193WAT      O74576   4.083   9.460   0.200  0.4035  0.0753 -0.5074
18193WAT     H174577   4.173   9.487   0.217 -0.5522  1.7797  2.4746
18193WAT     H274578   4.042   9.536   0.158 -0.0810 -0.0416 -0.2616
18193WAT    EPW74579   4.089   9.473   0.197  0.2136  0.2847 -0.0817
18194WAT      O74580  -1.832   5.958   1.694  0.8245  0.0013 -0.5296
18194WAT     H174581  -1.891   6.022   1.654  0.6240  0.8750  1.0932
18194WAT     H274582  -1.766   6.011   1.739  1.8442 -0.9579 -0.8549
18194WAT    EPW74583  -1.831   5.973   1.695  0.9326 -0.0100 -0.3584
18195WAT      O74584   1.815   4.970   5.726 -0.7601  0.0230 -0.4785
18195WAT     H174585   1.817   4.910   5.800 -1.4256 -0.2921 -0.7068
18195WAT     H274586   1.759   4.927   5.662  2.0134 -1.0390 -2.3360
18195WAT    EPW74587   1.808   4.956   5.727 -0.4821 -0.1585 -0.7534
18196WAT      O74588  -1.939   4.340   1.801 -0.2891 -0.4504 -0.0369
18196WAT     H174589  -1.861   4.392   1.784  2.2997 -4.4774 -1.8054
18196WAT     H274590  -1.931   4.315   1.893 -1.7134  2.1971  0.9217
18196WAT    EPW74591  -1.928   4.343   1.811 -0.1355 -0.6323 -0.1437
18197WAT      O74592   0.706  10.362   7.203  0.4180 -0.6155 -0.0382
18197WAT     H174593   0.677  10.306   7.275 -0.0367  0.2320  0.4612
18197WAT     H274594   0.789  10.399   7.233 -1.7638  3.2325  2.1447
18197WAT    EPW74595   0.713  10.359   7.217  0.0701  0.0038  0.3157
18198WAT      O74596   5.293   9.659   3.713  0.1580  0.3261 -0.0528
18198WAT     H174597   5.234   9.734   3.713 -1.0970 -0.6125 -1.2394
18198WAT     H274598   5.241   9.587   3.676  2.3618 -0.2588 -2.3442
18198WAT    EPW74599   5.279   9.659   3.708  0.2832  0.1249 -0.5114
18199WAT      O74600   1.747   9.243   2.128 -0.1769 -0.6235 -0.0716
18199WAT     H174601   1.796   9.321   2.101 -0.5291 -0.4557 -0.2318
18199WAT     H274602   1.748   9.186   2.051 -1.9094  0.2144 -0.7552
18199WAT    EPW74603   1.753   9.246   2.114 -0.4519 -0.4911 -0.1830
18200WAT      O74604  -0.671   5.891   0.978 -0.5369  0.7664  0.0082
18200WAT     H174605  -0.651   5.813   1.031  0.0968 -0.3339 -1.7858
18200WAT     H274606  -0.683   5.858   0.889  0.5375  2.8101 -0.9659
18200WAT    EPW74607  -0.670   5.876   0.974 -0.3116  0.8910 -0.3569
18201WAT      O74608  -1.325   1.002   4.036  0.6981 -0.4080 -0.5710
18201WAT     H174609  -1.242   1.020   3.994  0.8989  0.5565  0.1903
18201WAT     H274610  -1.315   1.036   4.125 -0.2345 -0.9857 -0.2248
18201WAT    EPW74611  -1.313   1.009   4.043  0.6016 -0.3570 -0.4246
18202WAT      O74612   4.384   1.258   5.713  0.7946 -1.0699 -0.4801
18202WAT     H174613   4.325   1.271   5.639 -0.3727 -1.4592  0.3522
18202WAT     H274614   4.467   1.296   5.684 -0.3455  1.1945 -0.9911
18202WAT    EPW74615   4.388   1.265   5.699  0.4904 -0.8226 -0.4380
18203WAT      O74616   4.649   4.666   1.493  0.5739  0.1130  0.4914
18203WAT     H174617   4.712   4.594   1.496 -0.9457 -1.2337  1.4448
18203WAT     H274618   4.665   4.715   1.573 -0.5341 -1.1268  1.5271
18203WAT    EPW74619   4.660   4.663   1.504  0.2272 -0.2282  0.7537
18204WAT      O74620  -1.281   1.284   5.178  0.6819 -0.2974 -0.4874
18204WAT     H174621  -1.217   1.324   5.120  1.9895 -0.9483  0.4494
18204WAT     H274622  -1.338   1.233   5.120  0.5975  0.8136 -1.4031
18204WAT    EPW74623  -1.280   1.282   5.163  0.8432 -0.2367 -0.4845
18205WAT      O74624   0.436   0.105   7.916  0.1441 -0.3837  0.0179
18205WAT     H174625   0.498   0.032   7.918 -0.0455 -0.5667 -0.5749
18205WAT     H274626   0.371   0.083   7.983  1.7707  0.7904  2.1343
18205WAT    EPW74627   0.436   0.092   7.925  0.3337 -0.2530  0.2186
18206WAT      O74628  -0.185   6.950   6.134 -0.5532  0.8489 -0.1312
18206WAT     H174629  -0.258   6.892   6.158  0.8746 -1.9416 -2.0006
18206WAT     H274630  -0.161   6.992   6.217 -1.9803 -0.9096  1.2860
18206WAT    EPW74631  -0.191   6.948   6.148 -0.5531  0.2489 -0.1907
18207WAT      O74632   1.275   0.278   4.955 -0.6177  0.0653 -0.1087
18207WAT     H174633   1.327   0.355   4.932  1.3917 -1.7541 -2.3581
18207WAT     H274634   1.290   0.265   5.049 -1.1385  2.4213  0.3511
18207WAT    EPW74635   1.284   0.286   4.964 -0.4214  0.1361 -0.3448
18208WAT      O74636  -4.206   2.489   7.235  0.3265  0.8237  0.0028
18208WAT     H174637  -4.181   2.477   7.144 -0.5078  1.0413 -0.2675
18208WAT     H274638  -4.184   2.581   7.254 -0.0899  0.9676 -0.1857
18208WAT    EPW74639  -4.200   2.500   7.225  0.1616  0.8714 -0.0577
18209WAT      O74640   0.591   0.431   5.024 -0.0922  0.3764  0.0244
18209WAT     H174641   0.664   0.485   5.054  0.8721 -1.1499  0.5644
18209WAT     H274642   0.607   0.345   5.064 -0.3271 -0.9559 -2.5104
18209WAT    EPW74643   0.603   0.426   5.033  0.0041 -0.0006 -0.2389
18210WAT      O74644   3.843   6.071   2.973  0.0968 -0.3246  0.0887
18210WAT     H174645   3.765   6.025   3.002  0.5067 -0.7811  0.4904
18210WAT     H274646   3.827   6.162   2.996 -1.7378  0.2056 -2.8153
18210WAT    EPW74647   3.831   6.077   2.980 -0.0912 -0.3147 -0.2414
18211WAT      O74648   2.058   7.575   4.456 -0.1019  0.5788  0.6960
18211WAT     H174649   2.117   7.589   4.529  3.6007  0.9390 -2.0640
18211WAT     H274650   2.046   7.662   4.418 -0.8752  0.2293  0.1131
18211WAT    EPW74651   2.064   7.588   4.460  0.2844  0.5803  0.2551
18212WAT      O74652   3.118   0.948   1.578  0.6853 -0.3352 -0.2070
18212WAT     H174653   3.166   0.875   1.615  1.3342 -0.2436 -0.8539
18212WAT     H274654   3.183   1.017   1.567  0.2122  0.1185 -0.2003
18212WAT    EPW74655   3.133   0.948   1.581  0.7086 -0.2633 -0.2914
18213WAT      O74656  -4.125   8.208   7.915  0.1673  0.0688 -0.0771
18213WAT     H174657  -4.030   8.208   7.902  0.0507 -0.7354 -1.0384
18213WAT     H274658  -4.160   8.176   7.832 -0.8606 -1.5889  0.9419
18213WAT    EPW74659  -4.117   8.204   7.902  0.0162 -0.2561 -0.0694
18214WAT      O74660   5.608   7.318   4.192 -0.6562 -0.1599  0.4541
18214WAT     H174661   5.572   7.297   4.106 -1.6777  1.3109  0.4844
18214WAT     H274662   5.666   7.392   4.176 -2.2093  1.2944  1.2309
18214WAT    EPW74663   5.611   7.325   4.178 -0.9959  0.2260  0.5605
18215WAT      O74664   2.254   3.491   2.988  0.3162 -0.1182  0.0147
18215WAT     H174665   2.250   3.473   2.894  1.2326 -0.7891  0.0935
18215WAT     H274666   2.241   3.405   3.029 -0.2536  0.1963  0.5134
18215WAT    EPW74667   2.252   3.477   2.981  0.3619 -0.1651  0.0910
18216WAT      O74668   3.533   4.914   2.634  0.4905 -0.4826 -0.2382
18216WAT     H174669   3.459   4.853   2.631  0.7244 -0.8272  0.7446
18216WAT     H274670   3.608   4.863   2.604  1.0112 -1.2049  2.1127
18216WAT    EPW74671   3.533   4.899   2.630  0.5901 -0.6232  0.2016
18217WAT      O74672   3.639   1.119   8.094  0.6402  0.5495  0.5705
18217WAT     H174673   3.570   1.182   8.117  1.2059  2.0216 -1.4610
18217WAT     H274674   3.632   1.111   7.999  3.0027  0.4353  0.3615
18217WAT    EPW74675   3.629   1.127   8.084  1.0264  0.7285  0.2751
18218WAT      O74676  -1.233   7.126   1.067 -0.2055  0.6227  0.2504
18218WAT     H174677  -1.192   7.199   1.021 -0.7385  2.0665  1.9446
18218WAT     H274678  -1.261   7.163   1.151 -0.5909 -1.5164  1.1376
18218WAT    EPW74679  -1.231   7.140   1.072 -0.3266  0.5310  0.5909
18219WAT      O74680  -5.136   7.569   8.153  0.0322 -0.1206  0.5389
18219WAT     H174681  -5.073   7.549   8.222  1.0059  1.5594  0.1911
18219WAT     H274682  -5.126   7.663   8.139 -2.0562  0.0585 -0.0414
18219WAT    EPW74683  -5.127   7.579   8.161 -0.1147  0.1247  0.4168
18220WAT      O74684  -3.760   2.580   7.283  0.0234  0.0916 -0.1048
18220WAT     H174685  -3.721   2.667   7.289 -1.5849  0.8466  0.1110
18220WAT     H274686  -3.686   2.521   7.271  1.0461  1.6711 -2.3399
18220WAT    EPW74687  -3.745   2.584   7.282 -0.0539  0.3995 -0.3712
18221WAT      O74688  -2.087   6.793   7.941 -0.5649  0.2416  0.3277
18221WAT     H174689  -2.137   6.759   8.015  0.0999  2.4709  1.9027
18221WAT     H274690  -2.116   6.883   7.931 -2.6516 -0.6143 -4.0268
18221WAT    EPW74691  -2.097   6.800   7.949 -0.7523  0.4227 -0.0386
18222WAT      O74692  -1.380   6.642   6.477 -0.8734 -0.2158  0.3707
18222WAT     H174693  -1.448   6.710   6.482 -1.1389 -0.2678 -1.5350
18222WAT     H274694  -1.379   6.617   6.384  1.8775 -0.1161  0.3078
18222WAT    EPW74695  -1.389   6.647   6.465 -0.5456 -0.2096  0.1109
18223WAT      O74696   3.746   7.263   6.093 -0.4531 -0.0419  1.1750
18223WAT     H174697   3.668   7.212   6.114 -2.2098  2.4837  1.1976
18223WAT     H274698   3.747   7.266   5.998  1.1396 -2.1410  1.0473
18223WAT    EPW74699   3.736   7.257   6.083 -0.4747  0.0145  1.1611
18224WAT      O74700   5.610   5.079   5.216  0.3708  0.4395 -0.1007
18224WAT     H174701   5.603   5.042   5.304 -1.3467  0.6892 -0.0943
18224WAT     H274702   5.583   5.007   5.158  0.8898  0.4692 -0.3820
18224WAT    EPW74703   5.606   5.064   5.220  0.2127  0.4764 -0.1369
18225WAT      O74704   4.245   1.726   3.350 -0.0542 -0.0116 -0.6541
18225WAT     H174705   4.232   1.773   3.433  1.0754 -1.3757  0.3438
18225WAT     H274706   4.258   1.795   3.286 -3.1280  1.1785 -0.1875
18225WAT    EPW74707   4.245   1.741   3.353 -0.3107 -0.0346 -0.4610
18226WAT      O74708   4.213   3.549   0.789 -0.1414 -0.1571 -0.5030
18226WAT     H174709   4.121   3.547   0.813  0.6491 -3.5177  3.4475
18226WAT     H274710   4.221   3.487   0.716 -0.7268 -2.3505  1.1994
18226WAT    EPW74711   4.202   3.541   0.782 -0.1142 -0.8897  0.2426
18227WAT      O74712   2.470   7.032   3.565 -0.3371 -0.1515  0.3809
18227WAT     H174713   2.431   6.953   3.602 -2.9296  1.6943  1.9017
18227WAT     H274714   2.448   7.102   3.627  0.7182  1.9979 -1.5057
18227WAT    EPW74715   2.462   7.031   3.578 -0.5398  0.3755  0.3326
18228WAT      O74716   0.853   4.080   6.885 -0.1848  0.2196  0.3202
18228WAT     H174717   0.802   4.042   6.813 -1.4514  0.7041  0.9429
18228WAT     H274718   0.809   4.050   6.964 -1.9811  3.7766  0.8703
18228WAT    EPW74719   0.841   4.071   6.886 -0.5888  0.7527  0.4749
18229WAT      O74720  -6.137   8.924   6.675  0.7830 -0.1589 -0.3888
18229WAT     H174721  -6.204   8.871   6.718  1.3582  0.2957  1.1630
18229WAT     H274722  -6.075   8.945   6.745  2.3035 -0.1602 -1.6588
18229WAT    EPW74723  -6.137   8.919   6.690  1.0593 -0.0997 -0.3517
18230WAT      O74724   5.336   6.546   0.127  0.1182  0.2903  0.8508
18230WAT     H174725   5.369   6.581   0.044 -0.2145 -0.3071  0.4561
18230WAT     H274726   5.284   6.617   0.164 -2.0106 -0.3100 -0.7687
18230WAT    EPW74727   5.334   6.560   0.121 -0.2065  0.1326  0.5851
18231WAT      O74728   8.310   0.419   3.115  0.8224  0.1768  1.0498
18231WAT     H174729   8.296   0.513   3.127 -1.5905  0.0473 -0.1654
18231WAT     H274730   8.374   0.395   3.182  3.4441  3.0963 -0.1737
18231WAT    EPW74731   8.317   0.428   3.125  0.8497  0.5448  0.7281
18232WAT      O74732   3.430   5.913   6.493  0.6372  0.2287  0.5480
18232WAT     H174733   3.442   5.821   6.514 -3.4771 -1.2201 -2.2096
18232WAT     H274734   3.450   5.919   6.400  1.2248  2.2907  0.7549
18232WAT    EPW74735   3.435   5.902   6.484  0.1720  0.3095  0.2115
18233WAT      O74736   4.701   2.789   2.203 -1.0197 -0.4321  0.4684
18233WAT     H174737   4.792   2.814   2.219 -1.6241  1.2816  1.3761
18233WAT     H274738   4.707   2.696   2.178  0.9014 -0.5567  1.1818
18233WAT    EPW74739   4.714   2.780   2.201 -0.8461 -0.2224  0.6822
18234WAT      O74740   6.640   5.389   2.146  0.2533  0.4420  0.7866
18234WAT     H174741   6.678   5.388   2.058 -0.3778 -3.0431  0.4081
18234WAT     H274742   6.670   5.472   2.184  2.4285  1.0333 -1.8877
18234WAT    EPW74743   6.649   5.400   2.139  0.4570  0.0603  0.3840
18235WAT      O74744  -6.703   7.152   7.031  0.8407 -0.4497 -0.2198
18235WAT     H174745  -6.693   7.152   7.126  0.0760 -0.0469 -0.1303
18235WAT     H274746  -6.797   7.139   7.017  0.9386 -0.4453 -0.9213
18235WAT    EPW74747  -6.714   7.150   7.042  0.7527 -0.3960 -0.3006
18236WAT      O74748  -6.057   6.794   8.035 -0.2628  0.3990 -0.9408
18236WAT     H174749  -6.065   6.837   8.120 -1.2938  1.3949 -1.4960
18236WAT     H274750  -6.007   6.856   7.982  2.9283 -1.4681 -0.3165
18236WAT    EPW74751  -6.052   6.808   8.039  0.0222  0.2840 -0.9317
18237WAT      O74752   1.377   9.303   7.739  0.5024 -0.1490  0.1341
18237WAT     H174753   1.382   9.397   7.758  0.4414 -0.6825  3.3239
18237WAT     H274754   1.469   9.274   7.737  0.5484 -0.0030 -1.3735
18237WAT    EPW74755   1.390   9.312   7.741  0.5004 -0.2003  0.3560
18238WAT      O74756  -2.317  10.119   2.690  0.2401 -0.4403 -0.2601
18238WAT     H174757  -2.227  10.141   2.665  0.7031 -2.8628 -1.0509
18238WAT     H274758  -2.371  10.185   2.646  1.6085  1.2332  0.4714
18238WAT    EPW74759  -2.312  10.130   2.681  0.4816 -0.5393 -0.2679
18239WAT      O74760  -1.289   2.597   6.624 -0.3144 -0.3207  0.1071
18239WAT     H174761  -1.207   2.642   6.603 -0.7254  1.0858  1.3575
18239WAT     H274762  -1.269   2.548   6.703 -0.9524  0.9622  1.1023
18239WAT    EPW74763  -1.276   2.597   6.631 -0.4527  0.0341  0.4032
18240WAT      O74764   4.520   1.532   1.157 -0.0114 -0.2612 -0.1039
18240WAT     H174765   4.544   1.566   1.243  2.2678 -0.4758 -0.5801
18240WAT     H274766   4.425   1.546   1.151 -0.4514 -1.2779  2.8646
18240WAT    EPW74767   4.511   1.539   1.167  0.2313 -0.4237  0.2248
18241WAT      O74768   6.999   3.110   0.332 -0.5717 -0.0475  0.3897
18241WAT     H174769   7.045   3.176   0.384  0.0067  1.3683 -1.7810
18241WAT     H274770   6.936   3.072   0.393 -0.0289  1.5848  2.0818
18241WAT    EPW74771   6.997   3.114   0.347 -0.4239  0.3545  0.3266
18242WAT      O74772   0.396   4.781   3.197  0.0062  0.1969  0.0581
18242WAT     H174773   0.305   4.810   3.200 -1.0791 -2.8661 -0.0835
18242WAT     H274774   0.406   4.741   3.110  1.4804  0.4420  0.0879
18242WAT    EPW74775   0.385   4.779   3.186  0.0575 -0.1748  0.0434
18243WAT      O74776   3.068   0.558   6.064 -0.0771 -0.7533  0.2481
18243WAT     H174777   3.159   0.540   6.089 -0.5095 -1.5153  1.3152
18243WAT     H274778   3.073   0.640   6.014  0.8347  0.9185  2.8600
18243WAT    EPW74779   3.081   0.567   6.060 -0.0138 -0.6333  0.7331
18244WAT      O74780  -3.058   7.356   3.436 -0.1595  0.2105  0.1489
18244WAT     H174781  -3.129   7.402   3.480  0.1598  0.4471  0.4246
18244WAT     H274782  -3.063   7.385   3.345 -0.6411 -0.0525  0.0920
18244WAT    EPW74783  -3.068   7.366   3.430 -0.1810  0.2069  0.1777
18245WAT      O74784  -6.358   6.208   6.821 -0.5765 -0.7191 -0.2606
18245WAT     H174785  -6.430   6.213   6.759  2.0113  0.5220 -3.4734
18245WAT     H274786  -6.297   6.277   6.792  1.7337 -1.4305  2.4665
18245WAT    EPW74787  -6.360   6.218   6.809  0.0696 -0.6492 -0.3247
18246WAT      O74788   4.669   8.220   1.992 -0.1586 -0.6001  0.2156
18246WAT     H174789   4.760   8.250   1.989 -0.7884  1.5310  0.5272
18246WAT     H274790   4.629   8.272   2.061 -1.9717 -0.4140 -0.9072
18246WAT    EPW74791   4.676   8.231   2.000 -0.4809 -0.2947  0.1086
18247WAT      O74792   9.056   1.162   0.720 -0.0382  0.4960  0.4960
18247WAT     H174793   8.996   1.096   0.754 -1.5060 -0.0958 -2.8229
18247WAT     H274794   9.014   1.245   0.740 -1.0555  0.1567 -0.1505
18247WAT    EPW74795   9.043   1.164   0.727 -0.3657  0.3731 -0.0270
18248WAT      O74796  -1.562   7.473   3.309  0.5939  0.1627  0.7087
18248WAT     H174797  -1.515   7.419   3.373  0.3726 -2.7743 -1.4176
18248WAT     H274798  -1.579   7.415   3.235 -4.5468  1.5181  0.3867
18248WAT    EPW74799  -1.558   7.458   3.308 -0.1132 -0.0460  0.3856
18249WAT      O74800  -1.979  10.162   6.180 -1.0145 -0.1252  0.2031
18249WAT     H174801  -1.961  10.134   6.270  1.7974 -1.7763 -0.7480
18249WAT     H274802  -1.957  10.085   6.127 -1.4002  1.2139 -1.9902
18249WAT    EPW74803  -1.974  10.148   6.185 -0.6945 -0.1664 -0.2115
18250WAT      O74804   4.461  10.095   2.274  0.2413 -0.0016  0.6889
18250WAT     H174805   4.425  10.108   2.362 -0.8107 -1.2544  0.4796
18250WAT     H274806   4.503  10.009   2.278 -2.5738 -1.5920 -0.8142
18250WAT    EPW74807   4.461  10.085   2.286 -0.2685 -0.3762  0.4630
18251WAT      O74808  -2.787   0.184   4.996 -0.2558 -0.1075  0.1539
18251WAT     H174809  -2.811   0.124   4.925 -0.8918  1.5622 -1.1007
18251WAT     H274810  -2.868   0.230   5.018  0.5275  1.5174 -0.1510
18251WAT    EPW74811  -2.801   0.182   4.990 -0.2364  0.3271 -0.0517
18252WAT      O74812  -3.499   6.852   6.761 -0.3690  0.0943 -0.8262
18252WAT     H174813  -3.540   6.872   6.846  1.3571  1.2105 -0.1978
18252WAT     H274814  -3.485   6.757   6.763  3.2134  0.4387  1.9989
18252WAT    EPW74815  -3.502   6.842   6.773  0.3312  0.2871 -0.3707
18253WAT      O74816   4.878   4.387   2.958  0.1089  0.7241 -0.4870
18253WAT     H174817   4.957   4.434   2.931  0.0134  1.2173  0.0773
18253WAT     H274818   4.833   4.447   3.017 -0.8313  0.5561 -1.0157
18253WAT    EPW74819   4.883   4.401   2.963 -0.0277  0.7670 -0.4824
18254WAT      O74820   0.941   7.389   3.544  0.0666  0.0512  0.2659
18254WAT     H174821   0.971   7.477   3.521  1.0271 -0.2078  0.4897
18254WAT     H274822   0.931   7.345   3.459  0.3526  0.1327  0.1890
18254WAT    EPW74823   0.944   7.395   3.529  0.2310  0.0279  0.2853
18255WAT      O74824  -0.693   6.719   0.580 -0.0078  0.5888  0.4784
18255WAT     H174825  -0.743   6.797   0.553  0.6388  1.5967  2.0754
18255WAT     H274826  -0.628   6.752   0.641  1.9434 -0.8572 -0.6892
18255WAT    EPW74827  -0.691   6.734   0.584  0.3348  0.5310  0.5351
18256WAT      O74828  -3.803   2.365   6.993 -0.7276  0.2115 -0.4089
18256WAT     H174829  -3.841   2.453   6.993  0.6042  0.8146  0.5834
18256WAT     H274830  -3.835   2.326   7.074 -1.0739 -0.1334 -0.7049
18256WAT    EPW74831  -3.813   2.372   7.003 -0.5976  0.2457 -0.3171
18257WAT      O74832   5.456   5.996   4.366 -0.5308  0.3605  0.6123
18257WAT     H174833   5.535   6.024   4.321 -1.3282 -0.2252 -1.2290
18257WAT     H274834   5.400   6.073   4.368  0.5738  1.2227  3.2594
18257WAT    EPW74835   5.459   6.010   4.360 -0.4904  0.3967  0.7184
18258WAT      O74836   3.041   9.546   0.112  0.4622 -0.0726 -0.0013
18258WAT     H174837   3.122   9.540   0.061  0.0825 -2.9701 -0.4599
18258WAT     H274838   3.015   9.455   0.125 -2.9808  0.7408 -0.2529
18258WAT    EPW74839   3.048   9.533   0.107 -0.0422 -0.3476 -0.0950
18259WAT      O74840   4.022   9.901   1.479  0.3579  0.1135 -0.8514
18259WAT     H174841   3.936   9.883   1.517  0.3450  0.2126 -0.8317
18259WAT     H274842   4.046   9.821   1.434  1.5677 -1.0428  1.6207
18259WAT    EPW74843   4.014   9.888   1.478  0.5157 -0.0262 -0.5227
18260WAT      O74844  -0.123   7.674   4.402  0.7302 -0.3269  0.1830
18260WAT     H174845  -0.065   7.598   4.402  0.2597 -0.7690  2.2431
18260WAT     H274846  -0.210   7.637   4.414  0.0923  0.3866 -1.9437
18260WAT    EPW74847  -0.127   7.659   4.404  0.5840 -0.2911  0.1745
18261WAT      O74848  -4.510   4.361   7.479  0.2907 -0.1128  0.1425
18261WAT     H174849  -4.567   4.428   7.516  2.0272  0.9036  1.0984
18261WAT     H274850  -4.456   4.408   7.415 -0.5172 -1.2394 -1.4579
18261WAT    EPW74851  -4.510   4.376   7.475  0.4134 -0.1273  0.0572
18262WAT      O74852  -3.015   3.120   7.689  0.5421  0.3719 -0.0759
18262WAT     H174853  -3.051   3.169   7.762 -0.1288  0.4904 -0.4788
18262WAT     H274854  -2.958   3.183   7.644 -0.2347  0.7578 -0.5294
18262WAT    EPW74855  -3.012   3.135   7.692  0.3511  0.4383 -0.1891
18263WAT      O74856  -2.199   1.036   5.836 -0.2156  0.3073  0.0668
18263WAT     H174857  -2.187   1.131   5.825 -0.2146  0.2914 -0.0807
18263WAT     H274858  -2.144   0.998   5.767 -0.1519  0.1978  0.1797
18263WAT    EPW74859  -2.190   1.044   5.825 -0.2071  0.2907  0.0622
18264WAT      O74860   2.521   4.235   8.108 -0.6452 -0.1010 -0.7115
18264WAT     H174861   2.465   4.309   8.129 -2.5267 -2.1883  2.3514
18264WAT     H274862   2.462   4.159   8.106  1.7329 -2.1588  0.6999
18264WAT    EPW74863   2.506   4.235   8.110 -0.5796 -0.6478 -0.1211
18265WAT      O74864   5.156   9.181   3.799  0.1328  0.0304 -0.4893
18265WAT     H174865   5.089   9.193   3.866 -2.9806  2.5462 -3.6510
18265WAT     H274866   5.232   9.148   3.847 -2.3698 -0.2034  3.8678
18265WAT    EPW74867   5.157   9.179   3.814 -0.6080  0.3314 -0.3316
18266WAT      O74868  -1.399   8.678   2.277  0.1885 -0.0523 -0.0085
18266WAT     H174869  -1.319   8.626   2.273 -1.1315 -2.2481  0.4013
18266WAT     H274870  -1.371   8.763   2.311  1.9749 -1.6703  3.0187
18266WAT    EPW74871  -1.385   8.683   2.281  0.2500 -0.5555  0.4448
18267WAT      O74872  -1.400   5.518   2.731  0.2210 -0.6436 -0.4332
18267WAT     H174873  -1.384   5.491   2.822 -1.0297 -0.3318 -0.1029
18267WAT     H274874  -1.474   5.465   2.703 -0.2935  0.2500 -0.8046
18267WAT    EPW74875  -1.407   5.507   2.739 -0.0118 -0.4847 -0.4386
18268WAT      O74876   4.933  10.231   2.176 -0.8071  0.4411 -0.2863
18268WAT     H174877   4.838  10.230   2.161 -1.0113 -0.4602  0.9423
18268WAT     H274878   4.948  10.313   2.224 -1.0077  0.4476 -0.2331
18268WAT    EPW74879   4.922  10.242   2.180 -0.8605  0.3233 -0.1172
18269WAT      O74880   3.228   6.364   4.471 -0.2015 -0.4209  0.2780
18269WAT     H174881   3.252   6.454   4.451 -1.3747  0.1088  1.1654
18269WAT     H274882   3.141   6.370   4.512  0.6171 -1.7443  2.3682
18269WAT    EPW74883   3.219   6.377   4.474 -0.2484 -0.5257  0.6707
18270WAT      O74884  -3.028   5.812   1.748  0.0075  0.1091  0.5234
18270WAT     H174885  -3.111   5.797   1.702 -0.6320  1.5329  1.1649
18270WAT     H274886  -3.053   5.831   1.838  0.9386  1.5541  0.5080
18270WAT    EPW74887  -3.042   5.813   1.754  0.0459  0.4873  0.6059
18271WAT      O74888  -0.203   1.026   4.815 -0.4916 -0.2041 -0.3233
18271WAT     H174889  -0.209   1.075   4.733  1.8804  0.6645 -0.0643
18271WAT     H274890  -0.227   1.089   4.883 -3.2301 -1.1402 -0.3276
18271WAT    EPW74891  -0.207   1.041   4.813 -0.5400 -0.2130 -0.2899
18272WAT      O74892   0.862   1.933   4.657  0.4366  0.8974  0.8977
18272WAT     H174893   0.816   1.991   4.717  1.7431  2.9641  0.0195
18272WAT     H274894   0.868   1.850   4.704 -2.3533  1.1105  1.8130
18272WAT    EPW74895   0.857   1.930   4.671  0.2409  1.1981  0.9027
18273WAT      O74896  -1.608   7.960   3.867  0.1135 -0.2738  0.6684
18273WAT     H174897  -1.547   7.914   3.924  0.5797 -0.2182  0.2272
18273WAT     H274898  -1.628   8.041   3.914  0.6907 -0.1113  0.6467
18273WAT    EPW74899  -1.602   7.965   3.881  0.2512 -0.2451  0.6073
18274WAT      O74900   1.081   3.703   2.964  0.5898  0.7921 -0.2854
18274WAT     H174901   1.069   3.751   3.046 -0.3304 -0.7320  0.5113
18274WAT     H274902   1.169   3.727   2.935  0.3207  2.6196  0.2664
18274WAT    EPW74903   1.091   3.712   2.971  0.4329  0.8322 -0.1075
18275WAT      O74904   3.167   9.379   6.773  0.4982  0.5229 -0.0501
18275WAT     H174905   3.214   9.297   6.759 -1.9523 -1.3854  1.8808
18275WAT     H274906   3.109   9.388   6.697 -0.6254 -0.6683  0.6201
18275WAT    EPW74907   3.166   9.369   6.761  0.0268  0.1144  0.2930
18276WAT      O74908   7.542   0.179   2.321  0.8796 -0.7632 -0.5605
18276WAT     H174909   7.543   0.231   2.402 -2.4498  1.0868 -1.5090
18276WAT     H274910   7.458   0.134   2.322  1.4223 -1.9121 -2.3136
18276WAT    EPW74911   7.531   0.180   2.331  0.5121 -0.6708 -0.9168
18277WAT      O74912   2.189   8.712   5.250  0.2507 -0.5753 -0.3073
18277WAT     H174913   2.198   8.796   5.206 -1.3168 -0.0785  0.2341
18277WAT     H274914   2.102   8.716   5.291  0.8755 -1.7310  1.2478
18277WAT    EPW74915   2.179   8.724   5.250  0.1264 -0.6623 -0.0310
18278WAT      O74916  -1.127   2.907   2.021 -0.0214 -0.1680  0.3013
18278WAT     H174917  -1.189   2.849   1.976 -0.0105 -0.6492  0.8831
18278WAT     H274918  -1.183   2.964   2.074  0.0095 -0.3498  0.5334
18278WAT    EPW74919  -1.143   2.907   2.022 -0.0159 -0.2555  0.4088
18279WAT      O74920   3.345   1.712   1.114 -0.3575 -0.4328  0.6905
18279WAT     H174921   3.335   1.618   1.095  2.4891 -0.3720 -1.9945
18279WAT     H274922   3.413   1.714   1.181 -1.3942 -0.2894  1.7539
18279WAT    EPW74923   3.353   1.700   1.120 -0.1189 -0.4058  0.4766
18280WAT      O74924   6.107   8.654   2.212 -0.7074 -0.2578 -1.1189
18280WAT     H174925   6.028   8.601   2.223 -0.1742 -1.0960 -1.2423
18280WAT     H274926   6.170   8.595   2.171  0.3178  0.0924 -0.1013
18280WAT    EPW74927   6.105   8.639   2.208 -0.5016 -0.3223 -1.0010
18281WAT      O74928   4.168   0.947   0.354 -0.5228  0.9575  0.4327
18281WAT     H174929   4.203   0.993   0.278 -2.5190 -2.0963 -2.6775
18281WAT     H274930   4.245   0.907   0.395  0.8688  4.3940  1.5415
18281WAT    EPW74931   4.183   0.948   0.350 -0.6025  1.0080  0.1687
18282WAT      O74932   4.763   9.401   3.348 -0.1997 -0.2693 -0.5695
18282WAT     H174933   4.723   9.439   3.270 -3.4998 -0.4438  0.8671
18282WAT     H274934   4.760   9.306   3.331  0.2123 -0.2564 -0.7184
18282WAT    EPW74935   4.757   9.393   3.335 -0.5805 -0.2899 -0.3997
18283WAT      O74936   5.311   0.575   1.743  0.0012  0.6607  0.3595
18283WAT     H174937   5.335   0.537   1.658 -0.3859  0.6147  0.2655
18283WAT     H274938   5.369   0.532   1.806 -0.8470 -0.5851  0.3442
18283WAT    EPW74939   5.322   0.564   1.740 -0.1616  0.4903  0.3451
18284WAT      O74940   6.184   0.680   1.380 -0.6075 -0.0521  0.6491
18284WAT     H174941   6.252   0.630   1.424 -1.5910 -0.8242  1.3347
18284WAT     H274942   6.229   0.757   1.346  0.5819 -0.5037  1.1602
18284WAT    EPW74943   6.199   0.684   1.381 -0.5803 -0.2134  0.8069
18285WAT      O74944  -3.695   6.853   6.513 -0.0792 -0.7232  0.0345
18285WAT     H174945  -3.641   6.882   6.587 -2.6610  0.4471  1.5915
18285WAT     H274946  -3.716   6.762   6.533  2.3818 -1.6673 -1.3261
18285WAT    EPW74947  -3.691   6.845   6.526 -0.0951 -0.6936  0.0603
18286WAT      O74948  -2.030   6.518   5.714 -0.6340  0.2117 -0.2181
18286WAT     H174949  -2.003   6.610   5.712  0.2380 -0.0318 -2.5593
18286WAT     H274950  -2.121   6.521   5.744 -0.7323  1.8827 -0.5902
18286WAT    EPW74951  -2.039   6.531   5.718 -0.5320  0.4001 -0.5760
18287WAT      O74952   1.714   8.233   0.502  1.1182  0.5847 -0.0744
18287WAT     H174953   1.720   8.320   0.542 -1.5603 -0.1083  2.0863
18287WAT     H274954   1.638   8.238   0.444  0.4898 -0.4474  0.6114
18287WAT    EPW74955   1.705   8.245   0.500  0.6821  0.3572  0.3010
18288WAT      O74956  -3.386   7.514   4.035 -0.5895  0.7516 -0.2319
18288WAT     H174957  -3.370   7.572   4.109 -2.3812  1.4987 -0.3710
18288WAT     H274958  -3.301   7.476   4.014 -0.0108  0.6916  2.0468
18288WAT    EPW74959  -3.373   7.517   4.042 -0.7495  0.8423  0.0501
18289WAT      O74960   0.892   8.693   4.408  0.2362 -0.5575  0.7252
18289WAT     H174961   0.919   8.658   4.324 -2.1982 -0.8598 -0.0115
18289WAT     H274962   0.879   8.615   4.463  0.6982 -0.4359  1.0035
18289WAT    EPW74963   0.894   8.678   4.404 -0.0239 -0.5813  0.6645
18290WAT      O74964   4.251   6.496   4.436  0.8163  0.0126  0.1985
18290WAT     H174965   4.211   6.578   4.407  0.2132  0.8028  2.9450
18290WAT     H274966   4.271   6.449   4.355 -0.9154  1.8632 -1.4196
18290WAT    EPW74967   4.248   6.501   4.421  0.5081  0.3610  0.3474
18291WAT      O74968   0.754   8.703   1.148  0.1946 -0.3881  0.0895
18291WAT     H174969   0.718   8.792   1.146 -0.5056 -0.6647 -2.0261
18291WAT     H274970   0.681   8.647   1.122  1.6271 -1.1416 -2.6588
18291WAT    EPW74971   0.739   8.707   1.145  0.2912 -0.5240 -0.5520
18292WAT      O74972  -1.662   6.128   1.833  0.2806 -0.4227 -0.0257
18292WAT     H174973  -1.575   6.096   1.808  1.2355  1.8687  0.0820
18292WAT     H274974  -1.676   6.092   1.920  1.2322 -0.6231  0.0607
18292WAT    EPW74975  -1.652   6.119   1.841  0.5320 -0.1469 -0.0001
18293WAT      O74976  -3.101   3.262   8.524 -0.2585 -0.7442  0.4126
18293WAT     H174977  -3.086   3.296   8.435 -2.7074 -0.3645  0.0493
18293WAT     H274978  -3.106   3.341   8.578 -2.0719 -0.6992  0.2494
18293WAT    EPW74979  -3.100   3.277   8.519 -0.8208 -0.6882  0.3433
18294WAT      O74980   0.484   6.755   2.486 -0.4966 -0.0773 -0.1903
18294WAT     H174981   0.399   6.752   2.530 -0.6301 -0.1670 -0.4507
18294WAT     H274982   0.542   6.705   2.543 -0.7115 -0.3512 -0.2064
18294WAT    EPW74983   0.480   6.748   2.500 -0.5426 -0.1252 -0.2267
18295WAT      O74984   9.159   0.716   1.178  0.1928  0.1795 -0.1079
18295WAT     H174985   9.249   0.745   1.160  0.3754 -0.8464 -0.9072
18295WAT     H274986   9.143   0.646   1.115  0.3577 -2.6840  2.8005
18295WAT    EPW74987   9.169   0.711   1.167  0.2389 -0.3335  0.1703
18296WAT      O74988  -0.868   4.136   6.052  0.1386 -0.1246  0.5626
18296WAT     H174989  -0.794   4.110   6.107  0.8286  0.1422 -0.2201
18296WAT     H274990  -0.889   4.058   6.001  2.8430  0.9308 -2.5038
18296WAT    EPW74991  -0.861   4.122   6.052  0.5863  0.0496  0.0551
18297WAT      O74992   6.539   0.031   1.347 -0.1405  0.1062 -0.0667
18297WAT     H174993   6.527   0.111   1.399  1.4826 -0.5585  1.4445
18297WAT     H274994   6.577   0.061   1.265 -2.5182  1.1629 -0.8575
18297WAT    EPW74995   6.543   0.046   1.343 -0.2401  0.1579  0.0283
18298WAT      O74996  -5.839   9.254   5.859 -0.2676  0.3411 -0.2254
18298WAT     H174997  -5.767   9.287   5.912 -0.6524  0.8764 -0.0347
18298WAT     H274998  -5.807   9.258   5.769 -0.0335  0.4999 -0.1328
18298WAT    EPW74999  -5.825   9.259   5.854 -0.2873  0.4325 -0.1879
18299WAT      O75000   6.832   4.711   3.397  0.0115 -0.0883 -0.5893
18299WAT     H175001   6.763   4.704   3.463 -1.3282 -0.9253 -2.0239
18299WAT     H275002   6.876   4.793   3.417  1.0118 -1.2601  2.6038
18299WAT    EPW75003   6.829   4.721   3.408 -0.0331 -0.3533 -0.3573
18300WAT      O75004   1.307   9.983   5.540 -0.2073 -0.0006  0.3249
18300WAT     H175005   1.237  10.029   5.587  1.3213  3.1292 -0.1862
18300WAT     H275006   1.273   9.972   5.452  0.0317  2.0112 -0.0773
18300WAT    EPW75007   1.293   9.988   5.535  0.0259  0.6776  0.2046
18301WAT      O75008  -5.773   9.578   6.918 -0.2909 -0.3668  0.1323
18301WAT     H175009  -5.818   9.503   6.878 -0.9695  0.2869 -0.3692
18301WAT     H275010  -5.680   9.555   6.913 -0.5316 -1.6889  1.0668
18301WAT    EPW75011  -5.767   9.565   6.912 -0.4122 -0.4549  0.1893
18302WAT      O75012   7.695   4.281   2.350  0.0873  0.0777 -0.3969
18302WAT     H175013   7.711   4.226   2.426 -0.3287  0.8907  0.3004
18302WAT     H275014   7.678   4.220   2.278 -0.4290 -0.6929  0.3669
18302WAT    EPW75015   7.695   4.266   2.350 -0.0355  0.0834 -0.2042
18303WAT      O75016   8.013   5.669   0.231  0.7628 -0.3146  0.3035
18303WAT     H175017   8.084   5.606   0.215 -0.9779 -1.5903 -3.5982
18303WAT     H275018   7.941   5.616   0.264 -0.6726 -0.5296 -2.8727
18303WAT    EPW75019   8.013   5.654   0.233  0.3438 -0.5114 -0.6300
18304WAT      O75020   4.677   1.269   0.671  0.7456  0.5229  0.4826
18304WAT     H175021   4.667   1.195   0.732 -5.9241 -1.2566 -1.8433
18304WAT     H275022   4.634   1.342   0.715  2.3668  1.4151  0.6200
18304WAT    EPW75023   4.670   1.269   0.685  0.0796  0.4059  0.1940
18305WAT      O75024   0.435   3.712   7.892  0.0618  0.4680 -0.1601
18305WAT     H175025   0.500   3.735   7.958  0.2557 -0.5986  0.0273
18305WAT     H275026   0.372   3.656   7.938  0.8671 -1.3213 -1.1500
18305WAT    EPW75027   0.435   3.708   7.907  0.1936  0.0913 -0.2658
18306WAT      O75028   4.352   0.463   3.112 -0.3586  0.8904 -0.0897
18306WAT     H175029   4.330   0.372   3.093  1.8785  0.3894 -0.6050
18306WAT     H275030   4.289   0.514   3.061 -1.7930 -0.3417  0.3874
18306WAT    EPW75031   4.341   0.458   3.103 -0.2527  0.6618 -0.0947
18307WAT      O75032   7.129   6.708   0.866 -0.5778 -0.2392  0.2416
18307WAT     H175033   7.213   6.676   0.832 -0.7674  0.3603 -0.8130
18307WAT     H275034   7.124   6.671   0.954  1.3258  0.6335  0.7699
18307WAT    EPW75035   7.139   6.699   0.873 -0.3519 -0.0451  0.1722
18308WAT      O75036   5.756   6.661   3.837  0.5130 -0.3552  0.0840
18308WAT     H175037   5.797   6.597   3.779 -0.2445 -0.4247 -0.3953
18308WAT     H275038   5.672   6.679   3.796  0.0397 -0.2593  1.0623
18308WAT    EPW75039   5.750   6.655   3.824  0.3507 -0.3519  0.1500
18309WAT      O75040  -1.611   3.127   7.372  0.2617 -0.0014 -0.2057
18309WAT     H175041  -1.638   3.064   7.305  0.1240  0.9458 -1.0598
18309WAT     H275042  -1.693   3.166   7.403  0.4353  1.0846 -1.0279
18309WAT    EPW75043  -1.625   3.124   7.367  0.2664  0.2668 -0.4265
18310WAT      O75044   8.559   3.374   1.032 -0.1805 -0.0868 -0.2938
18310WAT     H175045   8.551   3.354   0.939 -0.3689  0.3834 -0.3782
18310WAT     H275046   8.541   3.468   1.038 -0.5913 -0.2012  0.2745
18310WAT    EPW75047   8.556   3.384   1.020 -0.2599 -0.0398 -0.2300
18311WAT      O75048  -6.023   9.320   5.507  0.5760 -0.6294 -0.0317
18311WAT     H175049  -6.031   9.251   5.572  2.0733 -2.6560 -1.8481
18311WAT     H275050  -5.951   9.291   5.450 -0.6429  0.9828 -2.5650
18311WAT    EPW75051  -6.015   9.307   5.508  0.6127 -0.6843 -0.6053
18312WAT      O75052   3.517   4.675   0.630 -0.2844 -0.1782  0.0476
18312WAT     H175053   3.553   4.761   0.611 -1.4651 -0.2103 -2.7099
18312WAT     H275054   3.422   4.685   0.620 -0.3388 -2.2750 -3.0914
18312WAT    EPW75055   3.509   4.688   0.626 -0.4473 -0.4592 -0.7301
18313WAT      O75056  -0.815   5.608   0.085 -0.1790  0.1373 -0.3855
18313WAT     H175057  -0.805   5.595   0.180 -1.3495  0.2443 -0.2304
18313WAT     H275058  -0.882   5.676   0.077 -0.0650  0.1551 -1.2981
18313WAT    EPW75059  -0.822   5.615   0.097 -0.3183  0.1538 -0.4854
18314WAT      O75060   3.375   9.605   1.739 -0.9157  0.2546  0.2391
18314WAT     H175061   3.447   9.612   1.802  1.5288 -0.3764 -2.3035
18314WAT     H275062   3.349   9.696   1.724  1.4891  0.8121 -1.0111
18314WAT    EPW75063   3.381   9.618   1.746 -0.2762  0.2446 -0.2612
18315WAT      O75064   0.409   9.187   1.836 -0.2249 -0.2225 -0.7151
18315WAT     H175065   0.502   9.198   1.857  0.0927 -3.5176  0.1433
18315WAT     H275066   0.380   9.275   1.813  2.5059  1.3842  1.3019
18315WAT    EPW75067   0.418   9.200   1.836  0.1772 -0.4449 -0.3359
18316WAT      O75068  -1.291   4.504   6.661 -0.4369 -0.4754  0.7856
18316WAT     H175069  -1.377   4.478   6.692 -0.4322 -1.1470  0.2722
18316WAT     H275070  -1.235   4.428   6.679 -0.0132 -0.1375  0.8974
18316WAT    EPW75071  -1.295   4.490   6.667 -0.3804 -0.5193  0.7327
18317WAT      O75072  -1.853   9.835   0.618  0.2596  0.2628  0.2404
18317WAT     H175073  -1.923   9.838   0.683 -1.3122 -2.1741 -1.1810
18317WAT     H275074  -1.881   9.895   0.549  0.6106  0.8179  0.5699
18317WAT    EPW75075  -1.866   9.844   0.617  0.0986  0.0148  0.0964
18318WAT      O75076   0.895   2.851   5.529 -0.3100 -0.1988  0.4908
18318WAT     H175077   0.982   2.812   5.526 -0.1333  0.1774  0.6718
18318WAT     H275078   0.854   2.813   5.607 -0.4258 -0.6182  0.2275
18318WAT    EPW75079   0.901   2.841   5.539 -0.3020 -0.2044  0.4799
18319WAT      O75080  -4.545  10.350   8.654 -0.4081 -0.2965  0.3076
18319WAT     H175081  -4.573  10.277   8.599 -2.4458 -0.6878  1.7599
18319WAT     H275082  -4.555  10.318   8.744  2.2445  0.5214  0.9981
18319WAT    EPW75083  -4.550  10.336   8.658 -0.3269 -0.2403  0.5903
18320WAT      O75084   4.709   1.750   7.907 -0.7714 -0.2720  0.4282
18320WAT     H175085   4.685   1.659   7.922  0.8103 -0.7632  0.0844
18320WAT     H275086   4.737   1.782   7.994  0.8619 -0.8151  0.1369
18320WAT    EPW75087   4.710   1.742   7.921 -0.3474 -0.4084  0.3445
18321WAT      O75088  -6.844  10.030   6.670 -0.0901  0.2651  0.4998
18321WAT     H175089  -6.798  10.113   6.673  0.9005 -0.2108 -0.5413
18321WAT     H275090  -6.893  10.033   6.588 -2.6781  1.1002  1.9508
18321WAT    EPW75091  -6.844  10.041   6.659 -0.3006  0.3123  0.5538
18322WAT      O75092  -2.925   9.955   8.366 -0.2243  0.1557  0.0140
18322WAT     H175093  -2.860   9.884   8.366 -2.1435 -1.7081  1.1311
18322WAT     H275094  -2.901  10.009   8.441  0.1336 -0.4189  0.3256
18322WAT    EPW75095  -2.913   9.952   8.376 -0.4303 -0.1659  0.2022
18323WAT      O75096   2.700   7.523   4.587  0.2200  0.3302 -0.3652
18323WAT     H175097   2.711   7.543   4.494 -2.0142 -1.1170 -1.0007
18323WAT     H275098   2.606   7.515   4.600  0.5230 -0.5294  1.7989
18323WAT    EPW75099   2.689   7.524   4.577 -0.0347  0.0260 -0.1638
18324WAT      O75100   1.836   3.114   6.700  0.5604  0.4285  0.2203
18324WAT     H175101   1.874   3.037   6.742  1.2055  1.7219  2.1656
18324WAT     H275102   1.742   3.104   6.711  0.7056  0.7332  2.1364
18324WAT    EPW75103   1.829   3.103   6.707  0.6646  0.6393  0.7296
18325WAT      O75104  -2.867   2.222   7.789 -0.8159 -0.3457  0.0950
18325WAT     H175105  -2.786   2.228   7.739  0.2959  0.3268  1.9029
18325WAT     H275106  -2.852   2.277   7.866 -2.4574 -1.3313  1.1674
18325WAT    EPW75107  -2.854   2.230   7.793 -0.8857 -0.3871  0.4747
18326WAT      O75108   2.725   6.957   3.792 -0.1991 -0.4287  0.1320
18326WAT     H175109   2.632   6.974   3.780  0.0440  0.7676 -0.1351
18326WAT     H275110   2.737   6.868   3.757 -0.8149  0.2819 -2.0777
18326WAT    EPW75111   2.714   6.947   3.785 -0.2483 -0.1771 -0.1948
18327WAT      O75112   2.102   9.827   2.798  0.5777 -0.5213  0.3995
18327WAT     H175113   2.088   9.758   2.733  1.0467  0.6159 -0.9778
18327WAT     H275114   2.156   9.787   2.865 -1.2893 -2.2333  0.9868
18327WAT    EPW75115   2.107   9.813   2.798  0.3933 -0.5970  0.2954
18328WAT      O75116   1.490   4.941   4.435  0.1012 -0.5100 -0.6040
18328WAT     H175117   1.542   4.861   4.442 -1.9284 -1.7388  1.7618
18328WAT     H275118   1.491   4.978   4.523  2.1591  3.0022 -1.8767
18328WAT    EPW75119   1.497   4.935   4.448  0.1049 -0.2089 -0.4599
18329WAT      O75120  -3.700   2.726   6.112  0.3661 -0.0961 -0.4528
18329WAT     H175121  -3.736   2.767   6.191  1.9422 -2.2232  1.5261
18329WAT     H275122  -3.624   2.780   6.090  0.4458  0.0143  0.0759
18329WAT    EPW75123  -3.695   2.738   6.120  0.5845 -0.3622 -0.1221
18330WAT      O75124  -1.976   6.259   8.482  0.2760 -0.8241  0.0463
18330WAT     H175125  -1.884   6.233   8.486  0.4404 -0.1137  1.3361
18330WAT     H275126  -2.024   6.177   8.491  0.7649 -1.2270 -0.8532
18330WAT    EPW75127  -1.970   6.245   8.483  0.3620 -0.7837  0.0982
18331WAT      O75128   7.138   8.235   0.932  0.0626 -0.1040  0.1694
18331WAT     H175129   7.112   8.184   1.009 -0.6357  0.4820  0.3417
18331WAT     H275130   7.220   8.197   0.904  0.0500 -0.6800  0.8884
18331WAT    EPW75131   7.145   8.224   0.938 -0.0310 -0.1025  0.2870
18332WAT      O75132   2.111   4.418   7.711 -0.0194  0.8877  0.1445
18332WAT     H175133   2.016   4.419   7.714 -0.0161  0.5642  0.3723
18332WAT     H275134   2.133   4.479   7.641 -0.4277  0.0303 -0.7498
18332WAT    EPW75135   2.102   4.426   7.702 -0.0728  0.7319  0.0565
18333WAT      O75136   4.657   9.551   3.122  0.2244 -0.2566 -0.5763
18333WAT     H175137   4.572   9.594   3.122 -0.9426 -2.1899  2.4030
18333WAT     H275138   4.651   9.482   3.056  0.0596  0.5752 -1.4330
18333WAT    EPW75139   4.645   9.547   3.114  0.0486 -0.4020 -0.2964
18334WAT      O75140  -5.039   4.861   8.370  0.7211  0.3343  0.4344
18334WAT     H175141  -5.072   4.920   8.302  3.3016  0.9170 -0.4104
18334WAT     H275142  -4.986   4.916   8.427  0.7078 -0.6358  1.4284
18334WAT    EPW75143  -5.037   4.876   8.369  1.0598  0.2830  0.4539
18335WAT      O75144   2.785   7.824   0.135 -0.3044  0.3708  0.2017
18335WAT     H175145   2.730   7.745   0.128 -0.8764  0.9031 -3.8085
18335WAT     H275146   2.874   7.791   0.121 -0.6024  0.3836 -2.1178
18335WAT    EPW75147   2.789   7.809   0.132 -0.4191  0.4427 -0.6331
18336WAT      O75148   9.347   0.748   0.646 -0.7663  0.2170  0.7697
18336WAT     H175149   9.259   0.719   0.623 -0.5151 -0.5167  0.6989
18336WAT     H275150   9.390   0.763   0.561 -1.2254  1.8573  0.8077
18336WAT    EPW75151   9.341   0.746   0.631 -0.7935  0.3366  0.7654
18337WAT      O75152   4.942   4.895   2.312  0.2998  0.6231 -0.5358
18337WAT     H175153   4.924   4.980   2.272 -1.8009  0.7030  0.4313
18337WAT     H275154   4.923   4.909   2.405  2.2687 -0.3059  0.0565
18337WAT    EPW75155   4.937   4.908   2.319  0.2825  0.5112 -0.3301
18338WAT      O75156   7.473   3.216   0.204 -0.8124 -0.2061  0.1237
18338WAT     H175157   7.396   3.181   0.249 -2.1027  1.7408 -0.4729
18338WAT     H275158   7.511   3.277   0.267 -0.3359 -0.3891  0.0165
18338WAT    EPW75159   7.468   3.219   0.219 -0.9196  0.0266  0.0309
18339WAT      O75160   4.560   1.568   4.054  0.5093  0.0325  1.2756
18339WAT     H175161   4.597   1.564   4.142  1.8008 -1.3208  0.7172
18339WAT     H275162   4.633   1.592   3.997  0.1917 -1.0483  0.3549
18339WAT    EPW75163   4.574   1.570   4.058  0.6378 -0.2885  1.0808
18340WAT      O75164   0.407   8.370   6.252  0.9085 -0.1450  0.4152
18340WAT     H175165   0.337   8.357   6.316  0.3993 -2.1047 -0.4331
18340WAT     H275166   0.485   8.334   6.294  1.0594  0.5860  0.7625
18340WAT    EPW75167   0.408   8.363   6.266  0.8613 -0.3076  0.3490
18341WAT      O75168  -2.349   5.343   2.179  0.4215  0.8105 -0.3030
18341WAT     H175169  -2.307   5.366   2.262  1.2583  0.0848 -0.5214
18341WAT     H275170  -2.347   5.425   2.129 -0.6651  1.4314  0.6101
18341WAT    EPW75171  -2.343   5.357   2.183  0.3885  0.7966 -0.2114
18342WAT      O75172   0.466   6.173   8.052  0.1099 -0.2307  0.4151
18342WAT     H175173   0.481   6.214   7.966 -1.8927  3.3772  1.5501
18342WAT     H275174   0.410   6.098   8.033  0.2731  0.0675 -1.5283
18342WAT    EPW75175   0.460   6.169   8.038 -0.1327  0.2844  0.3080
18343WAT      O75176  -1.257   5.392   1.711  0.1439  0.3929  0.5527
18343WAT     H175177  -1.271   5.298   1.703 -2.0678  0.7785 -1.2672
18343WAT     H275178  -1.196   5.401   1.784  2.0191 -2.5252 -0.4426
18343WAT    EPW75179  -1.251   5.381   1.719  0.0995  0.0589  0.1814
18344WAT      O75180   3.170   1.457   0.356  0.1080  0.1233 -0.6223
18344WAT     H175181   3.201   1.367   0.368 -0.3558 -0.2197 -1.8627
18344WAT     H275182   3.190   1.477   0.264  1.8535  1.9498  0.0928
18344WAT    EPW75183   3.177   1.447   0.345  0.2770  0.3189 -0.6915
18345WAT      O75184   2.770   9.731   1.010  0.3824 -0.3623  0.2832
18345WAT     H175185   2.863   9.732   0.989  1.1210 -0.9653  3.0939
18345WAT     H275186   2.766   9.697   1.099 -2.4780  0.4691  0.5760
18345WAT    EPW75187   2.782   9.726   1.019  0.1024 -0.3319  0.6925
18346WAT      O75188   4.585   5.707   2.819  0.3472 -0.2343 -0.0216
18346WAT     H175189   4.646   5.781   2.826  2.3044 -1.8397  1.1701
18346WAT     H275190   4.519   5.737   2.757  0.4303  2.8939  1.1707
18346WAT    EPW75191   4.584   5.721   2.812  0.6166 -0.0336  0.2930
18347WAT      O75192  -2.866   8.800   6.752 -0.0178 -0.1514  0.3165
18347WAT     H175193  -2.833   8.715   6.784 -2.0201 -1.2292 -0.3224
18347WAT     H275194  -2.789   8.843   6.717  0.4779 -3.9381 -4.2694
18347WAT    EPW75195  -2.851   8.794   6.752 -0.2166 -0.7935 -0.3726
18348WAT      O75196   2.044   9.501   8.842 -1.1094  0.3899  0.7434
18348WAT     H175197   2.067   9.460   8.925 -1.8412 -0.5366  0.5120
18348WAT     H275198   1.965   9.456   8.814  1.8514 -3.2883 -3.1030
18348WAT    EPW75199   2.037   9.490   8.849 -0.8154 -0.2179  0.2055
18349WAT      O75200  -0.354   3.173   3.747  0.0149 -0.0859  0.2196
18349WAT     H175201  -0.445   3.192   3.724 -0.1863  0.0157  1.0719
18349WAT     H275202  -0.315   3.258   3.765  0.1862 -0.1584  0.1910
18349WAT    EPW75203  -0.361   3.186   3.747  0.0109 -0.0820  0.3283
18350WAT      O75204   4.661   0.324   8.427 -0.0898 -0.5826 -0.4308
18350WAT     H175205   4.629   0.353   8.341 -2.5564 -1.8807 -0.0270
18350WAT     H275206   4.606   0.249   8.449  0.6985 -0.4862  2.1578
18350WAT    EPW75207   4.650   0.318   8.419 -0.3111 -0.7411 -0.0358
18351WAT      O75208   2.185   6.017   4.889 -0.1357 -0.3379 -0.1310
18351WAT     H175209   2.162   6.103   4.852 -1.3487 -1.9944 -3.7143
18351WAT     H275210   2.104   5.987   4.930  0.2367  0.0981  0.9597
18351WAT    EPW75211   2.171   6.024   4.890 -0.2466 -0.4988 -0.4597
18352WAT      O75212   4.262   2.257   8.510  0.3337  0.1276  0.4723
18352WAT     H175213   4.254   2.279   8.417  0.2996  1.9393  0.8637
18352WAT     H275214   4.174   2.227   8.535 -0.5873  2.6379  0.5806
18352WAT    EPW75215   4.249   2.256   8.501  0.2074  0.6976  0.5383
18353WAT      O75216   3.067   4.769   4.141  0.1074 -0.4980 -0.2640
18353WAT     H175217   3.090   4.801   4.054  1.6456  0.2139  0.3721
18353WAT     H275218   3.046   4.847   4.191  4.3586 -0.1857  1.4390
18353WAT    EPW75219   3.067   4.783   4.136  0.8711 -0.3629  0.0443
18354WAT      O75220   7.161   0.369   4.817  0.1868 -0.2558 -0.3227
18354WAT     H175221   7.080   0.344   4.862  0.2818  0.4195  0.2458
18354WAT     H275222   7.188   0.290   4.771  0.8769 -1.4650  1.9738
18354WAT    EPW75223   7.154   0.355   4.817  0.2904 -0.3262  0.0551
18355WAT      O75224  -0.816   2.237   1.071  0.1646 -0.2484  0.0488
18355WAT     H175225  -0.884   2.294   1.108  0.5311  0.0054  0.3309
18355WAT     H275226  -0.855   2.150   1.073 -0.0427 -0.1473  0.4870
18355WAT    EPW75227  -0.830   2.233   1.076  0.1856 -0.2016  0.1438
18356WAT      O75228  -1.433   0.450   4.095 -0.3204  0.0416 -0.1047
18356WAT     H175229  -1.428   0.544   4.079 -1.9275 -0.0566 -1.4866
18356WAT     H275230  -1.438   0.410   4.008 -0.1295 -1.2845  0.4625
18356WAT    EPW75231  -1.433   0.457   4.081 -0.5072 -0.1463 -0.2122
18357WAT      O75232   0.404   1.483   3.601  0.1956  0.1194 -0.1161
18357WAT     H175233   0.424   1.436   3.682  0.4684  0.4918  0.0372
18357WAT     H275234   0.467   1.448   3.538 -0.2083 -0.3802 -0.2484
18357WAT    EPW75235   0.415   1.472   3.603  0.1784  0.1026 -0.1134
18358WAT      O75236  -0.002   8.433   7.289  0.1307 -0.4672  0.0622
18358WAT     H175237   0.011   8.474   7.375  0.5545  1.1892 -0.7538
18358WAT     H275238   0.085   8.434   7.249 -0.3453  0.2789 -1.0093
18358WAT    EPW75239   0.011   8.439   7.295  0.1238 -0.1497 -0.1867
18359WAT      O75240   0.028   2.855   0.830 -0.9043 -0.2430  0.0319
18359WAT     H175241   0.086   2.907   0.774 -0.1875 -0.2006  0.7897
18359WAT     H275242   0.016   2.773   0.782  0.4400 -0.5748  0.2003
18359WAT    EPW75243   0.034   2.851   0.816 -0.6324 -0.2811  0.1541
18360WAT      O75244   1.625   1.822   8.478 -0.1601 -0.1426 -0.1853
18360WAT     H175245   1.672   1.898   8.511  1.5505 -1.1107 -0.2862
18360WAT     H275246   1.551   1.859   8.429 -0.4864  1.3783  1.3545
18360WAT    EPW75247   1.621   1.836   8.476  0.0225 -0.0697  0.0043
18361WAT      O75248   5.071   3.268   0.078  0.6066  0.0165  0.4214
18361WAT     H175249   5.083   3.206   0.006 -0.7147 -2.4714  2.2001
18361WAT     H275250   5.156   3.268   0.123 -0.2597 -3.3726  2.4077
18361WAT    EPW75251   5.084   3.260   0.074  0.3181 -0.7586  0.9180
18362WAT      O75252  -4.172   5.893   8.104 -0.1132 -0.0356  0.5335
18362WAT     H175253  -4.122   5.846   8.037 -0.3111  0.5417 -0.0357
18362WAT     H275254  -4.239   5.941   8.054  0.1417  0.9059  1.0803
18362WAT    EPW75255  -4.174   5.893   8.088 -0.1056  0.1647  0.5302
18363WAT      O75256   0.399   4.525   5.954 -0.1960 -0.3662  0.0796
18363WAT     H175257   0.475   4.474   5.982  1.1916 -0.7607 -3.8017
18363WAT     H275258   0.419   4.614   5.982  0.6501 -0.8278  1.0159
18363WAT    EPW75259   0.412   4.530   5.961  0.0986 -0.4790 -0.3088
18364WAT      O75260   0.927   2.859   2.820  0.0205  0.0170  0.2517
18364WAT     H175261   0.882   2.943   2.810 -0.2843 -0.3447 -2.0888
18364WAT     H275262   1.015   2.883   2.848 -0.0703  1.1406 -0.3375
18364WAT    EPW75263   0.933   2.873   2.822 -0.0317  0.1175 -0.1347
18365WAT      O75264   2.441   8.421   5.233  0.2053  0.3454  0.2902
18365WAT     H175265   2.518   8.478   5.241  2.0822 -1.9041 -0.5210
18365WAT     H275266   2.478   8.333   5.228 -2.5094 -0.8876  0.5363
18365WAT    EPW75267   2.456   8.417   5.234  0.0948 -0.1140  0.2158
18366WAT      O75268   2.507   0.295   2.039 -0.5830 -0.6349 -0.0223
18366WAT     H175269   2.479   0.226   1.980  0.9251 -2.2876  1.1119
18366WAT     H275270   2.460   0.277   2.121  0.2627 -0.6850  0.4603
18366WAT    EPW75271   2.497   0.284   2.042 -0.2726 -0.8595  0.1909
18367WAT      O75272  -2.066   1.278   6.356 -0.6000  1.0012  0.4441
18367WAT     H175273  -2.083   1.340   6.285 -0.2749 -0.2258 -0.7328
18367WAT     H275274  -1.997   1.221   6.322 -1.4619 -0.5336  1.1712
18367WAT    EPW75275  -2.059   1.279   6.342 -0.6708  0.6369  0.3850
18368WAT      O75276   3.843   0.102   0.995 -0.5724  0.6771  0.8238
18368WAT     H175277   3.777   0.037   0.971  0.2102 -0.4723  1.7044
18368WAT     H275278   3.813   0.182   0.953 -2.4202  0.1433  1.0229
18368WAT    EPW75279   3.830   0.104   0.986 -0.7129  0.4551  0.9662
18369WAT      O75280   2.443   8.171   4.102  0.4887 -0.1658 -0.4446
18369WAT     H175281   2.388   8.164   4.180 -0.1534 -1.4802 -0.9816
18369WAT     H275282   2.533   8.175   4.136  0.2994 -1.8833  0.3595
18369WAT    EPW75283   2.448   8.171   4.117  0.3790 -0.5660 -0.4094
18370WAT      O75284  -3.699   2.029   8.556  0.9232 -0.0817 -0.0530
18370WAT     H175285  -3.733   2.118   8.550  3.7893  1.1159  0.2444
18370WAT     H275286  -3.679   2.016   8.648 -0.3602 -1.4573  0.0786
18370WAT    EPW75287  -3.701   2.039   8.567  1.1320 -0.1053  0.0038
18371WAT      O75288   2.558   3.138   8.770 -0.7051 -0.1343 -0.2824
18371WAT     H175289   2.487   3.103   8.716  0.1831 -0.9232 -0.9609
18371WAT     H275290   2.554   3.087   8.851 -1.6755  0.6616  0.1921
18371WAT    EPW75291   2.548   3.127   8.774 -0.7160 -0.1335 -0.3095
18372WAT      O75292  -3.356   7.288   3.273 -0.3585 -0.1301  0.5397
18372WAT     H175293  -3.298   7.213   3.278 -1.3795 -1.0909 -0.9944
18372WAT     H275294  -3.423   7.271   3.340 -0.6058 -0.6409  0.1770
18372WAT    EPW75295  -3.357   7.276   3.283 -0.5258 -0.3242  0.2896
18373WAT      O75296  -3.278   7.030   8.941  0.3677 -0.2912  0.2000
18373WAT     H175297  -3.246   6.973   9.011 -0.3005 -0.4950  0.3401
18373WAT     H275298  -3.270   7.119   8.977  3.4967 -0.0466 -0.8023
18373WAT    EPW75299  -3.273   7.034   8.955  0.6922 -0.2856  0.0863
18374WAT      O75300  -2.055   9.602   6.418 -0.7552  0.2041  0.5251
18374WAT     H175301  -2.141   9.631   6.386 -0.9107 -1.1047 -0.3139
18374WAT     H275302  -2.047   9.512   6.386  1.9154  1.0241 -1.3879
18374WAT    EPW75303  -2.065   9.594   6.410 -0.4236  0.1397  0.1619
18375WAT      O75304   2.133   8.012   7.001 -0.0487  0.3174 -1.0204
18375WAT     H175305   2.037   8.011   6.999 -0.1396 -2.6648  0.1766
18375WAT     H275306   2.159   7.939   6.946  1.5149  0.4800 -0.5391
18375WAT    EPW75307   2.123   8.002   6.993  0.1457 -0.0548 -0.7989
18376WAT      O75308  -0.070   2.236   8.034  0.1672  0.0029 -0.1293
18376WAT     H175309  -0.159   2.225   8.067 -0.0477 -2.3903 -1.2967
18376WAT     H275310  -0.069   2.190   7.950  2.3807  0.4100 -0.4043
18376WAT    EPW75311  -0.081   2.228   8.027  0.4308 -0.2590 -0.3195
18377WAT      O75312  -2.316   7.121   7.046  0.6201  0.6106  0.3056
18377WAT     H175313  -2.260   7.164   6.982 -1.2870  0.9979 -1.1944
18377WAT     H275314  -2.325   7.031   7.014 -1.9868  1.3236 -1.2496
18377WAT    EPW75315  -2.310   7.114   7.033  0.0248  0.7555 -0.0975
18378WAT      O75316   6.099   8.231   3.059 -0.5790 -0.1019 -0.0954
18378WAT     H175317   6.188   8.211   3.030 -0.9397  0.6410 -1.8862
18378WAT     H275318   6.098   8.327   3.069 -0.7606 -0.2425  1.5081
18378WAT    EPW75319   6.110   8.241   3.056 -0.6506 -0.0224 -0.1200
18379WAT      O75320  -0.182   2.832   6.458  0.4045  0.0289 -0.5560
18379WAT     H175321  -0.230   2.800   6.535  0.0894  1.8350  0.0429
18379WAT     H275322  -0.232   2.908   6.429 -0.2860 -1.3884 -3.4541
18379WAT    EPW75323  -0.195   2.838   6.465  0.2719  0.0802 -0.8593
18380WAT      O75324   4.262   8.464   5.053 -0.2505 -0.1802 -0.2721
18380WAT     H175325   4.209   8.391   5.021 -0.6228 -0.4526  0.9088
18380WAT     H275326   4.330   8.422   5.106 -0.7683  0.3442  0.8321
18380WAT    EPW75327   4.264   8.449   5.056 -0.3679 -0.1469  0.0293
18381WAT      O75328  -4.603   7.133   5.793  0.3982 -0.0428 -0.8509
18381WAT     H175329  -4.620   7.040   5.778 -1.1695 -0.0726  0.7657
18381WAT     H275330  -4.541   7.135   5.865 -0.6135  0.1290  0.0471
18381WAT    EPW75331  -4.597   7.121   5.800  0.0579 -0.0241 -0.5193
18382WAT      O75332  -6.224  10.260   8.074 -0.4340  0.1943  0.2640
18382WAT     H175333  -6.289  10.307   8.127 -0.5413  0.4450 -0.0854
18382WAT     H275334  -6.150  10.246   8.134  0.9234  3.5776 -0.3924
18382WAT    EPW75335  -6.223  10.265   8.089 -0.2694  0.6738  0.1311
18383WAT      O75336   2.652   1.603   2.586  0.6694  0.2500 -0.5825
18383WAT     H175337   2.591   1.530   2.572 -0.9845  1.5228 -0.2805
18383WAT     H275338   2.644   1.657   2.508  0.5597  0.9966 -0.0702
18383WAT    EPW75339   2.643   1.600   2.574  0.4368  0.5164 -0.4750
18384WAT      O75340  -1.367   6.493   3.680 -0.3081  0.0112  0.0317
18384WAT     H175341  -1.368   6.552   3.604 -3.4377  0.4812  0.2944
18384WAT     H275342  -1.275   6.468   3.689  0.3060  0.3012 -3.6051
18384WAT    EPW75343  -1.355   6.498   3.671 -0.6399  0.1113 -0.4133
18385WAT      O75344   2.949   5.306   3.568 -0.4432 -0.3288  0.2702
18385WAT     H175345   2.975   5.396   3.547 -0.9651 -0.1383  0.4120
18385WAT     H275346   2.883   5.316   3.638 -0.7866 -0.7981  0.0231
18385WAT    EPW75347   2.943   5.319   3.575 -0.5573 -0.3655  0.2562
18386WAT      O75348  -8.214  10.108   7.782 -0.1597  0.3202  1.3722
18386WAT     H175349  -8.200  10.151   7.866 -0.1502 -0.4867  1.7978
18386WAT     H275350  -8.229  10.179   7.720  1.1798  1.0111  1.7940
18386WAT    EPW75351  -8.214  10.123   7.785  0.0186  0.3052  1.4839
18387WAT      O75352  -1.521   4.029   4.207  0.4540  0.0735 -0.0249
18387WAT     H175353  -1.608   4.014   4.244  0.2533 -0.1279 -0.5649
18387WAT     H275354  -1.461   4.014   4.280  0.2149 -2.3683 -0.2563
18387WAT    EPW75355  -1.524   4.025   4.221  0.3960 -0.2749 -0.1268
18388WAT      O75356  -3.864   0.699   7.715  0.1824  0.4567  0.5158
18388WAT     H175357  -3.796   0.632   7.709  0.7278  1.0052  0.4449
18388WAT     H275358  -3.933   0.669   7.656  1.6969  1.4160 -1.8847
18388WAT    EPW75359  -3.864   0.686   7.707  0.4541  0.6556  0.1900
18389WAT      O75360  -0.372   6.069   8.153 -0.1343 -0.0210 -0.4884
18389WAT     H175361  -0.319   5.999   8.190 -4.5303 -4.1963 -1.0523
18389WAT     H275362  -0.349   6.070   8.060 -1.0052 -1.9617 -0.7823
18389WAT    EPW75363  -0.362   6.060   8.145 -0.8290 -0.8278 -0.6018
18390WAT      O75364   0.088   8.809   8.586  0.3779  0.3762 -0.8105
18390WAT     H175365   0.173   8.811   8.541 -0.9012 -0.2015 -3.4511
18390WAT     H275366   0.037   8.744   8.537 -1.6058  0.7371  0.6761
18390WAT    EPW75367   0.093   8.801   8.573 -0.0525  0.3476 -0.9627
18391WAT      O75368   0.756   2.289   5.779 -0.0005 -0.0868 -0.1697
18391WAT     H175369   0.799   2.365   5.819  2.1666  0.1581 -2.6802
18391WAT     H275370   0.690   2.327   5.721  1.9104  0.1027 -2.3750
18391WAT    EPW75371   0.753   2.304   5.777  0.5373 -0.0296 -0.7918
18392WAT      O75372  -6.042   9.477   5.866 -0.4227  0.1556  0.1833
18392WAT     H175373  -5.975   9.414   5.844 -0.7307 -0.6468  1.4328
18392WAT     H275374  -6.070   9.453   5.955 -0.7185  1.8866  0.6091
18392WAT    EPW75375  -6.037   9.466   5.875 -0.5023  0.2780  0.4044
18393WAT      O75376  -1.099   9.574   2.273 -0.2650 -0.4392  0.3481
18393WAT     H175377  -1.022   9.597   2.221  1.1452 -0.4665  2.2926
18393WAT     H275378  -1.172   9.614   2.226  1.2966  2.4007  0.0647
18393WAT    EPW75379  -1.098   9.582   2.260  0.1270 -0.0682  0.5672
18394WAT      O75380  -4.758   7.406   6.077 -0.3369  0.1101  0.1296
18394WAT     H175381  -4.743   7.371   6.165  1.2263 -0.0881 -0.1730
18394WAT     H275382  -4.800   7.491   6.091  0.4283  0.3483  1.1145
18394WAT    EPW75383  -4.761   7.413   6.090 -0.0298  0.1154  0.2196
18395WAT      O75384   1.509   5.618   8.335 -0.4775  0.0558 -0.5555
18395WAT     H175385   1.527   5.582   8.422 -1.4471  2.2737  0.6486
18395WAT     H275386   1.415   5.637   8.336  0.2419  4.5372 -0.1911
18395WAT    EPW75387   1.499   5.616   8.347 -0.5105  0.9394 -0.3486
18396WAT      O75388   3.354   6.088   7.371 -0.6695 -0.6638  0.2308
18396WAT     H175389   3.365   6.079   7.277  2.0631 -1.5648  0.5625
18396WAT     H275390   3.259   6.093   7.384 -1.1058 -0.5643 -2.5252
18396WAT    EPW75391   3.343   6.088   7.360 -0.3667 -0.7694 -0.0892
18397WAT      O75392  -0.120   8.421   3.795  1.1731 -0.3512 -0.2448
18397WAT     H175393  -0.121   8.439   3.889 -2.6145  0.3464 -0.2628
18397WAT     H275394  -0.105   8.326   3.789 -1.5516 -0.9892  1.3651
18397WAT    EPW75395  -0.118   8.411   3.806  0.3142 -0.3438 -0.0348
18398WAT      O75396  -2.234   2.561   6.500 -1.0278  0.1761 -0.2291
18398WAT     H175397  -2.273   2.480   6.532  1.1891 -0.1169  1.9245
18398WAT     H275398  -2.142   2.556   6.525 -0.7699  3.2661 -0.1861
18398WAT    EPW75399  -2.227   2.550   6.507 -0.7014  0.5450  0.0606
18399WAT      O75400  -7.675   8.123   8.310  0.6930 -0.4121 -0.9009
18399WAT     H175401  -7.620   8.045   8.308  1.4757  0.1473 -2.0056
18399WAT     H275402  -7.683   8.144   8.403 -2.6447 -3.8993 -0.1515
18399WAT    EPW75403  -7.669   8.116   8.322  0.3560 -0.7982 -0.9480
18400WAT      O75404   0.256   5.243   7.651 -0.4210  0.7189  0.2877
18400WAT     H175405   0.205   5.249   7.732 -0.0676  0.6164  0.5177
18400WAT     H275406   0.275   5.150   7.642  0.3431  0.8436  0.5860
18400WAT    EPW75407   0.252   5.231   7.660 -0.2736  0.7217  0.3574
18401WAT      O75408  -2.621   6.639   5.260  0.3372 -0.6874 -0.4717
18401WAT     H175409  -2.642   6.670   5.172  1.2688 -2.0866 -1.2289
18401WAT     H275410  -2.543   6.585   5.248  0.0610 -1.4879  1.1054
18401WAT    EPW75411  -2.614   6.636   5.247  0.4237 -0.9775 -0.3638
18402WAT      O75412   5.340   2.446   6.418 -0.3366 -0.1744  1.2226
18402WAT     H175413   5.365   2.359   6.449  0.5256 -0.7934 -0.9824
18402WAT     H275414   5.251   2.458   6.450 -0.5397 -1.9542  1.4470
18402WAT    EPW75415   5.332   2.436   6.426 -0.2499 -0.4908  0.9613
18403WAT      O75416  -0.480   2.913   7.538  0.5496 -0.2100  0.3450
18403WAT     H175417  -0.531   2.953   7.608  0.2113  0.9928 -0.5469
18403WAT     H275418  -0.389   2.931   7.561  0.3957  3.2344 -1.1443
18403WAT    EPW75419  -0.475   2.920   7.550  0.4847  0.4029  0.0310
18404WAT      O75420   3.146   3.492   0.336 -0.2558 -0.6494 -0.5686
18404WAT     H175421   3.174   3.407   0.304 -0.8606 -0.6518 -1.1118
18404WAT     H275422   3.062   3.508   0.293 -0.7820 -0.3543  0.5068
18404WAT    EPW75423   3.139   3.483   0.326 -0.4048 -0.6108 -0.4984
18405WAT      O75424  -2.412   4.199   4.712  0.2885  0.4421 -0.6674
18405WAT     H175425  -2.347   4.231   4.650  1.3565  2.0772  1.1729
18405WAT     H275426  -2.462   4.277   4.737 -0.7504 -0.3433 -0.1866
18405WAT    EPW75427  -2.410   4.214   4.707  0.2923  0.5541 -0.3612
18406WAT      O75428  -6.318   5.878   7.402  0.0624 -0.0304 -0.3755
18406WAT     H175429  -6.339   5.810   7.338  0.6969  0.3578 -1.0127
18406WAT     H275430  -6.342   5.841   7.486  1.5099 -1.5306 -0.5772
18406WAT    EPW75431  -6.324   5.864   7.404  0.3371 -0.1771 -0.4861
18407WAT      O75432  -4.355   0.693   8.370  0.5799 -0.2583 -0.0343
18407WAT     H175433  -4.326   0.670   8.282  0.9340  0.9947 -0.2654
18407WAT     H275434  -4.398   0.778   8.360  0.9673  0.0851  1.0570
18407WAT    EPW75435  -4.357   0.701   8.357  0.6776 -0.0477  0.0792
18408WAT      O75436   1.781   2.989   2.141 -0.1290 -0.1995 -0.2860
18408WAT     H175437   1.708   3.024   2.192 -0.2656 -1.4766  0.4496
18408WAT     H275438   1.849   3.057   2.147  0.0810 -0.5426  2.1490
18408WAT    EPW75439   1.780   3.003   2.149 -0.1193 -0.4133  0.1322
18409WAT      O75440   3.014   9.369   5.202  0.2888  0.2562  0.4704
18409WAT     H175441   3.064   9.358   5.283  2.3734 -2.2656 -0.9797
18409WAT     H275442   2.987   9.280   5.178  0.4447  0.7898 -1.9822
18409WAT    EPW75443   3.017   9.356   5.209  0.5841 -0.0062 -0.0443
18410WAT      O75444   0.742   7.967   7.483  0.2943  0.5571  0.2710
18410WAT     H175445   0.681   7.981   7.555  0.6822  2.6080  0.2547
18410WAT     H275446   0.821   7.932   7.524 -1.0891 -3.1796  0.1826
18410WAT    EPW75447   0.744   7.964   7.498  0.1630  0.3345  0.2573
18411WAT      O75448  -0.642   1.963   7.757  0.0906  0.0905 -0.1351
18411WAT     H175449  -0.702   1.924   7.694  0.1153 -1.9990  1.0295
18411WAT     H275450  -0.632   1.896   7.825  0.0913  2.1775  2.0874
18411WAT    EPW75451  -0.649   1.949   7.758  0.0940  0.0902  0.3119
18412WAT      O75452   0.143   7.316   0.077 -0.3995  0.5683 -0.8244
18412WAT     H175453   0.064   7.311   0.023 -0.5415 -0.8262 -0.5308
18412WAT     H275454   0.198   7.244   0.046 -0.7089 -0.6260  1.1670
18412WAT    EPW75455   0.140   7.306   0.066 -0.4590  0.2267 -0.5230
18413WAT      O75456   7.587   6.715   0.486 -0.4298 -0.0983 -0.3251
18413WAT     H175457   7.660   6.706   0.547  0.0053 -2.4650 -1.1008
18413WAT     H275458   7.628   6.721   0.400 -1.0996  1.4566 -0.5735
18413WAT    EPW75459   7.602   6.715   0.483 -0.4606 -0.2053 -0.4601
18414WAT      O75460  -1.548   6.971   2.839 -0.0686 -0.0432 -0.2531
18414WAT     H175461  -1.621   6.968   2.901 -0.9920  0.7815 -1.2428
18414WAT     H275462  -1.586   6.940   2.756  1.0305 -0.7429 -0.5117
18414WAT    EPW75463  -1.563   6.967   2.836 -0.0454 -0.0269 -0.4178
18415WAT      O75464  -4.778   4.851   7.457  0.5514  0.3155 -0.1132
18415WAT     H175465  -4.685   4.837   7.474  0.3716  0.3761  0.9948
18415WAT     H275466  -4.823   4.809   7.531 -0.2819  0.5483 -0.4752
18415WAT    EPW75467  -4.771   4.844   7.469  0.4179  0.3543 -0.0148
18416WAT      O75468  -1.863   9.142   0.802  0.2244 -0.4802 -0.1851
18416WAT     H175469  -1.929   9.153   0.733  0.0906 -1.3940 -0.2115
18416WAT     H275470  -1.794   9.090   0.762 -1.3108 -3.9061  1.2272
18416WAT    EPW75471  -1.863   9.137   0.788  0.0042 -1.0529 -0.0023
18417WAT      O75472  -0.416   3.844   0.830 -0.3253 -0.2914  0.1271
18417WAT     H175473  -0.487   3.783   0.846 -1.7795  0.8126 -1.7574
18417WAT     H275474  -0.457   3.931   0.831  0.8490  0.3540 -1.5098
18417WAT    EPW75475  -0.431   3.848   0.832 -0.3622 -0.0608 -0.3373
18418WAT      O75476  -2.741   8.439   0.215  0.1578  0.4636  0.5607
18418WAT     H175477  -2.730   8.367   0.277 -1.4629  1.0583  1.5910
18418WAT     H275478  -2.773   8.397   0.135  1.4684 -0.2115  0.3734
18418WAT    EPW75479  -2.744   8.424   0.212  0.1169  0.4530  0.6719
18419WAT      O75480   7.280   6.670   0.349  0.9945 -0.2638 -0.6363
18419WAT     H175481   7.288   6.752   0.397 -0.2240 -0.3371 -0.2600
18419WAT     H275482   7.367   6.631   0.354  2.1560  1.8752 -2.5218
18419WAT    EPW75483   7.292   6.675   0.356  0.9871  0.0086 -0.8354
18420WAT      O75484   8.298   2.620   0.083  0.1302  0.3563  0.2113
18420WAT     H175485   8.214   2.629   0.129  0.7017 -0.5632  1.4950
18420WAT     H275486   8.344   2.702   0.100  0.5792 -0.1995  1.8605
18420WAT    EPW75487   8.293   2.632   0.091  0.2646  0.1618  0.5981
18421WAT      O75488   1.308   6.172   2.834 -0.6077  0.3006 -1.1798
18421WAT     H175489   1.348   6.258   2.819  0.4451 -0.1730 -1.1497
18421WAT     H275490   1.262   6.152   2.753  0.4405  0.2128 -1.7691
18421WAT    EPW75491   1.307   6.181   2.821 -0.3306  0.2265 -1.2535
18422WAT      O75492  -1.167   9.226   2.608  0.2768  0.3452  0.8118
18422WAT     H175493  -1.153   9.241   2.515 -0.6671  1.1807  0.7871
18422WAT     H275494  -1.134   9.138   2.624  2.5063  0.9944  0.1557
18422WAT    EPW75495  -1.161   9.216   2.598  0.4464  0.5412  0.7221
18423WAT      O75496  -3.149   5.367   5.345  0.1385  0.0624 -0.3860
18423WAT     H175497  -3.212   5.372   5.416  0.8524 -0.1493  0.2703
18423WAT     H275498  -3.154   5.276   5.315 -1.7168  0.6465 -2.0746
18423WAT    EPW75499  -3.158   5.356   5.350 -0.0120  0.1113 -0.5224
18424WAT      O75500  -2.873   9.922   0.555 -0.2963 -0.0839  0.3394
18424WAT     H175501  -2.959   9.949   0.521 -0.5763 -0.4041  0.7760
18424WAT     H275502  -2.852   9.988   0.621  0.2416  0.5303 -0.4418
18424WAT    EPW75503  -2.882   9.934   0.559 -0.2624 -0.0453  0.2939
18425WAT      O75504   3.517   6.690   2.000  0.2511  0.5078 -0.8838
18425WAT     H175505   3.512   6.761   2.064 -0.1415 -0.5028  0.2483
18425WAT     H275506   3.470   6.724   1.924  0.4951  1.6403 -0.5526
18425WAT    EPW75507   3.510   6.704   1.999  0.2315  0.5238 -0.6908
18426WAT      O75508   4.890   3.245   0.968 -0.8629 -0.3519  0.4093
18426WAT     H175509   4.970   3.192   0.965 -0.1036  0.5441  2.6483
18426WAT     H275510   4.905   3.315   0.905  0.8121  0.6181  1.7974
18426WAT    EPW75511   4.903   3.248   0.959 -0.5422 -0.1056  0.8877
18427WAT      O75512   6.199   7.706   1.263  0.1700  0.5263  0.1198
18427WAT     H175513   6.149   7.715   1.344  1.7371  2.1631  0.9835
18427WAT     H275514   6.218   7.613   1.256 -0.9460  0.2141  1.0204
18427WAT    EPW75515   6.195   7.695   1.273  0.2294  0.7010  0.3525
18428WAT      O75516   6.444   4.060   4.494  0.4449 -0.4753 -0.6524
18428WAT     H175517   6.352   4.078   4.473  0.4071 -1.5958 -1.5642
18428WAT     H275518   6.487   4.145   4.491 -0.8784  0.3734  1.6596
18428WAT    EPW75519   6.438   4.073   4.491  0.2654 -0.5112 -0.4678
18429WAT      O75520   7.935   1.661   0.274 -0.2364  0.8693  0.4538
18429WAT     H175521   7.960   1.588   0.330  0.3972 -0.2609 -1.2236
18429WAT     H275522   7.893   1.724   0.333 -0.6964 -0.7854  1.9567
18429WAT    EPW75523   7.933   1.660   0.289 -0.2136  0.5020  0.4308
18430WAT      O75524   5.297   5.122   1.408 -0.1890  0.4376 -0.1781
18430WAT     H175525   5.208   5.086   1.403  0.3901 -0.8614 -2.3546
18430WAT     H275526   5.336   5.102   1.323  1.3448  3.3008 -0.2851
18430WAT    EPW75527   5.290   5.115   1.397  0.0894  0.6442 -0.4793
18431WAT      O75528  -3.996   0.874   8.120 -0.4751  0.2473  0.2570
18431WAT     H175529  -4.044   0.946   8.158  0.0706  1.2567 -0.9016
18431WAT     H275530  -3.960   0.827   8.195  0.2704  1.9609  1.0197
18431WAT    EPW75531  -3.997   0.877   8.135 -0.3047  0.6065  0.2050
18432WAT      O75532  -2.387   3.766   7.095  0.1429  1.1697  0.2475
18432WAT     H175533  -2.317   3.755   7.030 -0.4087  1.4846 -0.4158
18432WAT     H275534  -2.467   3.768   7.043 -0.5832 -1.2830  1.1439
18432WAT    EPW75535  -2.388   3.765   7.079 -0.0257  0.8878  0.2785
18433WAT      O75536  -2.660   1.104   5.264 -0.2208  0.4822  0.5133
18433WAT     H175537  -2.624   1.017   5.278 -1.8624 -0.2574  0.4557
18433WAT     H275538  -2.619   1.135   5.184 -1.0278 -1.0886 -0.5709
18433WAT    EPW75539  -2.650   1.097   5.255 -0.5438  0.1774  0.3626
18434WAT      O75540   4.302   9.348   4.527  0.3848  0.0906  0.1485
18434WAT     H175541   4.394   9.355   4.552  0.7005 -2.8853  0.1547
18434WAT     H275542   4.298   9.269   4.474 -2.3840 -0.6441  1.2909
18434WAT    EPW75543   4.314   9.338   4.523  0.0613 -0.3991  0.2999
18435WAT      O75544   5.730   4.007   3.809 -0.3981  0.1894 -0.3460
18435WAT     H175545   5.772   3.980   3.891 -2.0875 -0.3646  0.3877
18435WAT     H275546   5.771   4.090   3.786  0.3522  0.1674  0.8754
18435WAT    EPW75547   5.741   4.014   3.817 -0.5217  0.1135 -0.0881
18436WAT      O75548  -1.067   6.961   8.787 -0.3399 -0.1479  0.8484
18436WAT     H175549  -1.126   7.036   8.794  1.2818  1.4148 -0.9861
18436WAT     H275550  -0.980   7.000   8.780  0.3758 -1.9471 -2.8532
18436WAT    EPW75551  -1.063   6.976   8.787 -0.0317 -0.1791  0.1187
18437WAT      O75552   0.563   0.195   2.451 -0.0390  0.6746  0.2669
18437WAT     H175553   0.651   0.231   2.463 -0.3312  1.8390 -0.7981
18437WAT     H275554   0.523   0.251   2.384 -1.1887 -0.5499 -0.1233
18437WAT    EPW75555   0.569   0.207   2.444 -0.2292  0.6666  0.0750
18438WAT      O75556   3.793   9.785   2.210  0.3238  0.2578 -0.6690
18438WAT     H175557   3.781   9.880   2.214 -2.1309 -0.0012 -0.2360
18438WAT     H275558   3.873   9.773   2.159  0.9901  2.5467 -0.2887
18438WAT    EPW75559   3.802   9.796   2.204  0.0880  0.5255 -0.5618
18439WAT      O75560  -3.883   6.937   7.680 -0.1011 -0.9214  0.8425
18439WAT     H175561  -3.874   7.032   7.690  3.2532 -0.7927 -1.7623
18439WAT     H275562  -3.870   6.921   7.587  1.9541 -4.1243  1.5193
18439WAT    EPW75563  -3.880   6.947   7.669  0.6125 -1.3268  0.5882
18440WAT      O75564  -0.611   3.237   4.523  0.2153  0.1624  0.2515
18440WAT     H175565  -0.615   3.171   4.593  0.3800  0.4150  0.5014
18440WAT     H275566  -0.594   3.319   4.569  2.0303  0.0897 -0.2216
18440WAT    EPW75567  -0.609   3.239   4.539  0.4764  0.1861  0.2222
18441WAT      O75568  -3.974   2.896   4.895 -0.2718  0.0096 -0.0219
18441WAT     H175569  -3.952   2.989   4.886 -1.9898  0.4784  0.2603
18441WAT     H275570  -3.962   2.860   4.807 -2.5189  1.2089 -0.8890
18441WAT    EPW75571  -3.969   2.904   4.882 -0.7948  0.2296 -0.0992
18442WAT      O75572  -4.125   8.936   8.574  0.4601  0.1916  0.0823
18442WAT     H175573  -4.106   9.030   8.577 -0.0789  0.4696 -2.4299
18442WAT     H275574  -4.220   8.931   8.561  0.5276 -0.6722 -0.1788
18442WAT    EPW75575  -4.135   8.948   8.573  0.3979  0.1140 -0.2837
18443WAT      O75576   7.403   5.732   2.072  0.0465 -0.1033  0.0227
18443WAT     H175577   7.381   5.697   1.986  3.0964 -0.8752 -0.5544
18443WAT     H275578   7.358   5.673   2.133 -0.0370 -1.1745 -1.0281
18443WAT    EPW75579   7.394   5.719   2.069  0.4375 -0.3464 -0.1920
18444WAT      O75580   2.076   6.532   4.021  0.4775  0.0466 -0.0346
18444WAT     H175581   1.991   6.569   4.048  0.3124 -1.0380  1.0423
18444WAT     H275582   2.130   6.538   4.100  1.1971  0.1195 -0.5290
18444WAT    EPW75583   2.072   6.538   4.035  0.5507 -0.0870  0.0422
18445WAT      O75584   0.232   7.193   3.139  0.6693 -0.2410  0.2343
18445WAT     H175585   0.174   7.191   3.062 -0.3792 -2.7937  0.9766
18445WAT     H275586   0.240   7.286   3.160 -1.2336  0.3615 -1.3360
18445WAT    EPW75587   0.225   7.205   3.131  0.2800 -0.4981  0.1251
18446WAT      O75588  -3.537   1.716   4.856  0.0528  0.4085  0.2725
18446WAT     H175589  -3.468   1.744   4.796  2.1733 -0.9966  1.9522
18446WAT     H275590  -3.603   1.676   4.799 -0.2559  3.2535 -1.5354
18446WAT    EPW75591  -3.537   1.714   4.840  0.2917  0.5984  0.2556
18447WAT      O75592   5.172   0.506   3.045  0.0793  0.8915 -0.3688
18447WAT     H175593   5.231   0.549   3.108  2.2176  0.1945 -1.7708
18447WAT     H275594   5.189   0.413   3.056 -0.2004  0.7159 -1.3342
18447WAT    EPW75595   5.182   0.499   3.055  0.3242  0.7764 -0.6810
18448WAT      O75596  -1.455   9.790   8.948 -1.0973  0.3196  0.1871
18448WAT     H175597  -1.384   9.853   8.952  0.2377 -1.1653  1.5073
18448WAT     H275598  -1.480   9.787   8.856 -0.5929  2.0689 -0.0378
18448WAT    EPW75599  -1.449   9.798   8.936 -0.8547  0.3543  0.3314
18449WAT      O75600  -2.555   1.324   3.759 -0.2551  0.2365 -0.3003
18449WAT     H175601  -2.544   1.350   3.667 -2.5158  1.5404 -0.2877
18449WAT     H275602  -2.527   1.401   3.808 -1.2754  0.4330 -0.0116
18449WAT    EPW75603  -2.550   1.338   3.753 -0.6878  0.4343 -0.2606
18450WAT      O75604   3.942  10.078   3.406 -0.1131  0.1314 -0.4596
18450WAT     H175605   3.884  10.135   3.456  1.7343  0.5472  1.3170
18450WAT     H275606   3.933   9.992   3.448  0.3278  0.1306 -0.3644
18450WAT    EPW75607   3.933  10.074   3.418  0.1887  0.1860 -0.2127
18451WAT      O75608  -3.423   8.440   0.793 -0.2101  0.5092  1.0970
18451WAT     H175609  -3.341   8.425   0.746 -0.1455  3.7929 -0.1539
18451WAT     H275610  -3.399   8.500   0.864 -1.5898  2.4912 -0.0026
18451WAT    EPW75611  -3.409   8.446   0.796 -0.3836  1.2040  0.7870
18452WAT      O75612  -2.505   8.946   6.362  0.0949  0.0530  0.1421
18452WAT     H175613  -2.545   9.023   6.402 -0.8998  0.0505 -0.7908
18452WAT     H275614  -2.424   8.932   6.411 -0.4838  0.7577  1.3270
18452WAT    EPW75615  -2.500   8.955   6.374 -0.1127  0.1454  0.1755
18453WAT      O75616  -0.988   7.378   4.320  0.0318 -0.2424 -0.4627
18453WAT     H175617  -1.052   7.392   4.390  0.7072  2.7298 -0.3350
18453WAT     H275618  -1.036   7.397   4.240 -0.2882 -2.0719 -0.7610
18453WAT    EPW75619  -1.003   7.382   4.319  0.0787 -0.0916 -0.4854
18454WAT      O75620   0.930   9.886   1.734  0.4799 -0.0599  0.8601
18454WAT     H175621   0.901   9.876   1.643  1.7577  0.2207  0.3901
18454WAT     H275622   0.949   9.979   1.743 -0.4190  0.0542  1.6810
18454WAT    EPW75623   0.929   9.897   1.723  0.5299 -0.0076  0.9063
18455WAT      O75624  -3.326   9.962   6.239  0.2767 -0.1767 -0.1308
18455WAT     H175625  -3.366   9.909   6.309 -1.3884 -1.0835 -1.6901
18455WAT     H275626  -3.232   9.957   6.257 -0.0484 -0.9759  1.6206
18455WAT    EPW75627  -3.319   9.954   6.251  0.0142 -0.4015 -0.1056
18456WAT      O75628   0.613   5.122   3.057 -0.0636  0.3200  0.0856
18456WAT     H175629   0.697   5.088   3.026  1.1987  3.3836 -0.2595
18456WAT     H275630   0.605   5.089   3.147  0.8362 -1.0531 -0.3064
18456WAT    EPW75631   0.623   5.113   3.065  0.2216  0.5431 -0.0116
18457WAT      O75632  -2.495   6.621   5.991  0.4015  0.6627  0.5277
18457WAT     H175633  -2.496   6.543   6.046 -0.1496  0.2837 -0.0074
18457WAT     H275634  -2.585   6.654   5.994  0.1647  0.1786 -0.7720
18457WAT    EPW75635  -2.507   6.615   5.999  0.2975  0.5491  0.2856
18458WAT      O75636   1.936   4.991   2.452  0.5237 -0.0423 -0.4895
18458WAT     H175637   2.028   4.992   2.425  0.2515  2.1699 -1.6175
18458WAT     H275638   1.913   5.084   2.462 -1.5753 -0.5356 -0.2358
18458WAT    EPW75639   1.945   5.003   2.450  0.2109  0.1843 -0.6049
18459WAT      O75640  -2.026   8.763   3.617  0.0411  0.6378 -0.3151
18459WAT     H175641  -1.983   8.772   3.702  0.5779  1.1031 -0.6220
18459WAT     H275642  -2.119   8.757   3.637  0.2289 -0.1702  0.3555
18459WAT    EPW75643  -2.033   8.763   3.631  0.1367  0.5922 -0.2671
18460WAT      O75644   0.787   8.949   4.330 -0.1939 -0.4991  0.0105
18460WAT     H175645   0.738   8.977   4.253  2.8841 -0.0979 -1.9784
18460WAT     H275646   0.778   8.854   4.332 -0.3165 -0.5084 -0.8305
18460WAT    EPW75647   0.779   8.940   4.320  0.1960 -0.4473 -0.3629
18461WAT      O75648   6.349   2.048   1.090  0.0721 -0.3326 -0.4077
18461WAT     H175649   6.258   2.075   1.103 -0.0532 -1.0009  0.1728
18461WAT     H275650   6.379   2.024   1.178  0.4580 -1.1813 -0.7670
18461WAT    EPW75651   6.341   2.049   1.103  0.1066 -0.5327 -0.3785
18462WAT      O75652  -0.007   7.275   1.353 -0.2731  0.1001  0.2401
18462WAT     H175653  -0.096   7.300   1.325 -0.3857 -0.8927 -0.3303
18462WAT     H275654   0.001   7.184   1.326  0.5646 -0.1178  1.2022
18462WAT    EPW75655  -0.018   7.266   1.345 -0.1775 -0.0596  0.2918
18463WAT      O75656   2.152   1.374   1.689  0.2362 -0.2058 -0.2964
18463WAT     H175657   2.157   1.467   1.670  0.2329  0.4883  2.7491
18463WAT     H275658   2.087   1.341   1.626  2.1787  1.1916 -3.2940
18463WAT    EPW75659   2.144   1.382   1.678  0.4921  0.0700 -0.2900
18464WAT      O75660   2.665   4.504   2.135 -0.3049 -0.2560  0.7920
18464WAT     H175661   2.622   4.574   2.184  1.1740  0.2147  1.5031
18464WAT     H275662   2.690   4.440   2.202 -0.4456 -0.8102  0.3253
18464WAT    EPW75663   2.663   4.504   2.150 -0.1284 -0.2670  0.8242
18465WAT      O75664  -4.876   6.862   4.238  0.3707 -0.3879 -0.3250
18465WAT     H175665  -4.933   6.914   4.182  1.5020  1.5091  0.2014
18465WAT     H275666  -4.808   6.829   4.180  0.8426  0.5396 -0.3183
18465WAT    EPW75667  -4.875   6.865   4.223  0.5822 -0.0155 -0.2546
18466WAT      O75668   0.682   4.757   5.875 -0.7042  0.0399 -0.1955
18466WAT     H175669   0.629   4.759   5.955  1.2104  3.0653  1.2192
18466WAT     H275670   0.631   4.807   5.811 -0.8137  0.4715  0.2234
18466WAT    EPW75671   0.668   4.764   5.877 -0.4661  0.4957  0.0463
18467WAT      O75672   2.665   9.632   4.841 -0.5558 -0.0344  0.2435
18467WAT     H175673   2.715   9.550   4.847  1.0738  0.8410 -0.7735
18467WAT     H275674   2.647   9.654   4.932  0.1029 -0.8758  0.6019
18467WAT    EPW75675   2.669   9.624   4.854 -0.2540 -0.0296  0.1566
18468WAT      O75676   1.832   1.940   7.214 -0.3735 -0.3361 -0.0021
18468WAT     H175677   1.880   2.018   7.186  0.4724  0.4865  3.2863
18468WAT     H275678   1.859   1.872   7.152  1.8487  1.0988 -0.7372
18468WAT    EPW75679   1.842   1.941   7.202  0.0312 -0.0383  0.3347
18469WAT      O75680  -1.394   2.439   8.257  0.4536 -0.0427 -0.1590
18469WAT     H175681  -1.473   2.460   8.207  0.9130  0.8662 -0.5360
18469WAT     H275682  -1.398   2.498   8.332  0.0494 -1.0138  0.6042
18469WAT    EPW75683  -1.405   2.450   8.260  0.4609 -0.0509 -0.1078
18470WAT      O75684   7.189   8.918   0.978  0.6533  0.3659  1.0449
18470WAT     H175685   7.183   8.846   0.915 -0.3271 -0.2582  1.8275
18470WAT     H275686   7.151   8.993   0.932 -0.2805 -0.1424  0.9688
18470WAT    EPW75687   7.183   8.918   0.964  0.4008  0.2170  1.1381
18471WAT      O75688   5.345   6.153   3.321 -0.3207 -0.3195 -0.3219
18471WAT     H175689   5.369   6.178   3.411 -0.3368  0.8675 -0.6221
18471WAT     H275690   5.258   6.192   3.309 -0.6884 -1.2007 -0.5765
18471WAT    EPW75691   5.337   6.162   3.331 -0.3712 -0.2789 -0.3951
18472WAT      O75692  -1.048   2.571   3.356  0.5102 -0.2583 -0.1832
18472WAT     H175693  -1.108   2.606   3.291 -0.7924  1.5510  1.8515
18472WAT     H275694  -1.012   2.491   3.316 -0.1489  0.7883 -3.0627
18472WAT    EPW75695  -1.051   2.565   3.342  0.2515  0.1184 -0.2946
18473WAT      O75696  -3.231   2.097   8.805 -0.2223 -0.4930  0.0150
18473WAT     H175697  -3.242   2.004   8.821 -0.8439 -0.4297 -0.0139
18473WAT     H275698  -3.191   2.131   8.885  0.9195 -0.9479 -0.3592
18473WAT    EPW75699  -3.228   2.089   8.817 -0.1537 -0.5448 -0.0386
18474WAT      O75700  -1.878   6.822   6.144 -0.4223 -0.5091  0.4375
18474WAT     H175701  -1.821   6.745   6.144  0.1852 -0.0770 -0.6580
18474WAT     H275702  -1.965   6.787   6.122 -0.0805 -0.8467 -0.4172
18474WAT    EPW75703  -1.882   6.807   6.141 -0.2971 -0.4964  0.1802
18475WAT      O75704   3.923   5.976   1.950  0.0468 -0.0223  0.1851
18475WAT     H175705   3.839   6.015   1.972  0.9628  1.3660  1.4322
18475WAT     H275706   3.909   5.932   1.866 -1.2016  2.5848 -1.0715
18475WAT    EPW75707   3.910   5.975   1.942  0.0030  0.5047  0.1838
18476WAT      O75708   0.884   3.609   4.415 -0.1077  0.8931  0.7149
18476WAT     H175709   0.939   3.685   4.436  1.4253 -0.6441  2.7136
18476WAT     H275710   0.909   3.586   4.326 -1.3438  3.2492 -0.3321
18476WAT    EPW75711   0.895   3.616   4.406 -0.0685  1.0011  0.8407
18477WAT      O75712   6.847   9.943   0.779  1.1739  0.0449 -0.2816
18477WAT     H175713   6.847   9.930   0.874 -2.3465  0.9810 -0.0042
18477WAT     H275714   6.777  10.006   0.763  0.6790 -1.1339 -3.6414
18477WAT    EPW75715   6.838   9.950   0.789  0.6440  0.0129 -0.6881
18478WAT      O75716  -0.831   7.578   0.169 -0.6956  0.4539 -0.6304
18478WAT     H175717  -0.873   7.543   0.247 -2.5354  1.7708 -0.9685
18478WAT     H275718  -0.902   7.587   0.105  0.4174  1.1495 -1.8315
18478WAT    EPW75719  -0.846   7.575   0.171 -0.7914  0.7193 -0.8334
18479WAT      O75720  -0.321   7.214   1.007 -0.7676  0.5357  0.3493
18479WAT     H175721  -0.338   7.120   1.020  3.1415 -0.6049 -1.2018
18479WAT     H275722  -0.375   7.237   0.932  0.5080 -1.4992 -1.3476
18479WAT    EPW75723  -0.330   7.204   0.998 -0.0838  0.1171 -0.0791
18480WAT      O75724  -3.343   7.658   5.662 -0.2051  0.0855  0.2943
18480WAT     H175725  -3.402   7.662   5.587  0.1149  1.0804  0.0827
18480WAT     H275726  -3.256   7.671   5.624 -0.0192  0.3633  0.8160
18480WAT    EPW75727  -3.339   7.660   5.647 -0.1384  0.2534  0.3352
18481WAT      O75728  -3.710   8.574   6.839  0.3053 -0.9642  0.0629
18481WAT     H175729  -3.635   8.518   6.819  2.3983  0.8388  2.2265
18481WAT     H275730  -3.727   8.559   6.932  0.4808  1.3936  0.5390
18481WAT    EPW75731  -3.702   8.565   6.849  0.6046 -0.4153  0.4110
18482WAT      O75732   1.519   8.253   6.183 -0.2145  0.1934  0.5601
18482WAT     H175733   1.552   8.208   6.261 -0.9863  1.3804  1.6259
18482WAT     H275734   1.492   8.183   6.124  2.9377 -0.8151  0.1194
18482WAT    EPW75735   1.520   8.238   6.186  0.0995  0.2170  0.6428
18483WAT      O75736   1.687   2.366   3.185 -0.0377 -0.5083 -0.1040
18483WAT     H175737   1.622   2.404   3.245 -0.8987 -0.1547 -1.2163
18483WAT     H275738   1.659   2.396   3.098  1.3696 -0.7241 -0.6596
18483WAT    EPW75739   1.675   2.375   3.181  0.0344 -0.4901 -0.3240
18484WAT      O75740   0.837   0.630   3.059  0.2560  0.1853  0.1966
18484WAT     H175741   0.793   0.714   3.072  1.4313  0.7923  0.3876
18484WAT     H275742   0.766   0.566   3.062 -0.7040  1.1839 -0.2495
18484WAT    EPW75743   0.822   0.633   3.061  0.2844  0.3971  0.1630
18485WAT      O75744  -1.352   5.089   7.208 -0.1190 -0.1757 -0.1629
18485WAT     H175745  -1.439   5.078   7.170  0.7086 -1.7890 -1.7371
18485WAT     H275746  -1.298   5.120   7.135  1.2213 -2.0375 -0.0343
18485WAT    EPW75747  -1.356   5.092   7.193  0.1669 -0.6340 -0.3536
18486WAT      O75748  -5.539   9.588   7.201  0.0016  0.3942  0.6566
18486WAT     H175749  -5.628   9.621   7.188  0.8536  3.1805  1.3221
18486WAT     H275750  -5.519   9.606   7.293  0.8449 -1.3772  0.8747
18486WAT    EPW75751  -5.548   9.594   7.211  0.2253  0.5279  0.7732
18487WAT      O75752   4.014   1.832   1.455 -0.3146 -0.0438  0.8681
18487WAT     H175753   3.946   1.861   1.516  0.7713 -1.7395  3.0340
18487WAT     H275754   4.016   1.737   1.464  0.1054 -0.3519 -1.6764
18487WAT    EPW75755   4.006   1.824   1.465 -0.1159 -0.3080  0.8182
18488WAT      O75756  -1.035   5.478   8.219  0.0046  0.2954 -0.6971
18488WAT     H175757  -1.068   5.558   8.261  0.1940  0.5297 -0.9950
18488WAT     H275758  -1.111   5.442   8.173 -0.7000 -0.9230  1.2628
18488WAT    EPW75759  -1.050   5.484   8.219 -0.0633  0.1657 -0.4783
18489WAT      O75760   3.695   7.310   5.025 -0.0629 -0.2804  0.3158
18489WAT     H175761   3.767   7.373   5.031 -0.4871  0.7320 -2.9577
18489WAT     H275762   3.734   7.226   5.047  1.7841  0.4477 -0.0089
18489WAT    EPW75763   3.710   7.307   5.028  0.1247 -0.0508 -0.1588
18490WAT      O75764  -2.638   3.449   3.678  0.0276 -0.4144 -0.6408
18490WAT     H175765  -2.582   3.373   3.694 -0.5944 -0.8839 -0.6610
18490WAT     H275766  -2.723   3.412   3.656 -0.3555  0.2951 -0.3818
18490WAT    EPW75767  -2.642   3.434   3.677 -0.1049 -0.3828 -0.6094
18491WAT      O75768  -2.975   3.980   8.510 -0.5486  0.6819  0.8245
18491WAT     H175769  -2.900   3.976   8.450  0.5482  0.2969  2.1590
18491WAT     H275770  -3.040   4.033   8.464  0.3440  0.6205 -0.5797
18491WAT    EPW75771  -2.973   3.986   8.496 -0.2861  0.6230  0.8149
18492WAT      O75772  -1.661   7.466   5.679 -0.3423  0.0020  0.6067
18492WAT     H175773  -1.662   7.561   5.685 -0.4190 -0.0692  2.3243
18492WAT     H275774  -1.626   7.437   5.764  0.9696 -1.4746 -0.3736
18492WAT    EPW75775  -1.656   7.475   5.691 -0.1794 -0.2022  0.7038
18493WAT      O75776   1.304   7.127   2.802 -0.2773 -0.3421 -0.1539
18493WAT     H175777   1.313   7.213   2.762 -0.6238 -1.3203 -2.4952
18493WAT     H275778   1.391   7.088   2.796 -0.5895 -0.9209 -1.0254
18493WAT    EPW75779   1.316   7.133   2.796 -0.3642 -0.5476 -0.5777
18494WAT      O75780   0.466   4.390   2.856 -0.0415 -0.7738  0.8090
18494WAT     H175781   0.491   4.298   2.864 -0.9405 -1.1297 -0.2438
18494WAT     H275782   0.380   4.388   2.814  0.2830  0.5756  0.0147
18494WAT    EPW75783   0.458   4.378   2.852 -0.1173 -0.6428  0.5653
18495WAT      O75784  -1.123   8.611   8.481 -0.8855 -0.3345  0.0619
18495WAT     H175785  -1.061   8.551   8.440  1.8102  2.2820 -0.0465
18495WAT     H275786  -1.206   8.594   8.437 -0.2483 -3.7211 -0.0895
18495WAT    EPW75787  -1.126   8.601   8.470 -0.4460 -0.4363  0.0277
18496WAT      O75788   5.327   5.414   2.959  0.0487 -0.2083 -0.4394
18496WAT     H175789   5.369   5.329   2.945 -1.7084 -1.1711 -0.1942
18496WAT     H275790   5.365   5.447   3.040 -0.3118 -1.4712  0.2695
18496WAT    EPW75791   5.338   5.407   2.968 -0.2306 -0.5016 -0.3136
18497WAT      O75792  -3.713   0.298   8.240 -0.6394 -0.4510  0.3778
18497WAT     H175793  -3.758   0.329   8.162 -0.0893  0.0713  0.2716
18497WAT     H275794  -3.723   0.202   8.237 -1.1596 -0.3871  0.0064
18497WAT    EPW75795  -3.720   0.289   8.230 -0.6354 -0.3737  0.3152
18498WAT      O75796   6.856   2.768   3.810 -0.4448  0.3141 -0.0254
18498WAT     H175797   6.815   2.756   3.895  0.6072  0.4769  0.5247
18498WAT     H275798   6.860   2.680   3.773 -1.1817  0.2835 -0.0467
18498WAT    EPW75799   6.851   2.755   3.816 -0.4032  0.3315  0.0445
18499WAT      O75800  -0.857   6.211   1.636 -0.1454  0.0818  0.4864
18499WAT     H175801  -0.943   6.178   1.611 -0.2825  0.6361  0.2018
18499WAT     H275802  -0.871   6.304   1.654  0.4386  0.2286  0.2107
18499WAT    EPW75803  -0.870   6.219   1.635 -0.0865  0.1743  0.4125
18500WAT      O75804  -1.755   0.315   7.610 -0.2503 -0.2638  0.3364
18500WAT     H175805  -1.698   0.304   7.686 -0.6570 -0.5709  0.6058
18500WAT     H275806  -1.840   0.340   7.648 -1.4926 -3.9132  0.3109
18500WAT    EPW75807  -1.759   0.317   7.625 -0.4678 -0.7856  0.3686
18501WAT      O75808   1.587   8.807   1.520 -0.2455 -0.0850  0.0947
18501WAT     H175809   1.617   8.775   1.435 -2.1581  1.6109 -1.3376
18501WAT     H275810   1.659   8.789   1.580  0.9271 -1.8969 -1.7403
18501WAT    EPW75811   1.600   8.800   1.517 -0.3431 -0.1006 -0.3362
18502WAT      O75812   0.224   7.564   2.292  0.1054  0.6345 -0.5081
18502WAT     H175813   0.174   7.618   2.353  0.2940  0.0445  0.1768
18502WAT     H275814   0.174   7.483   2.284  2.1785 -1.0924  2.2686
18502WAT    EPW75815   0.211   7.561   2.299  0.4037  0.3290 -0.0515
18503WAT      O75816   0.765   7.654   1.082 -0.0871 -0.4173 -0.5753
18503WAT     H175817   0.825   7.671   1.155  1.8281 -0.7780 -1.9891
18503WAT     H275818   0.734   7.740   1.057 -3.0737 -0.4408  2.3909
18503WAT    EPW75819   0.769   7.667   1.089 -0.2284 -0.4680 -0.3706
18504WAT      O75820   1.954   5.571   2.308  0.1876  0.0638  0.1089
18504WAT     H175821   1.995   5.629   2.244 -1.6412  0.8416 -0.4159
18504WAT     H275822   1.995   5.486   2.293 -0.0084  0.2779 -1.9497
18504WAT    EPW75823   1.965   5.568   2.298 -0.0795  0.1948 -0.2317
18505WAT      O75824   8.741   0.651   0.438  0.2656  0.1162 -0.1050
18505WAT     H175825   8.693   0.592   0.381  0.0584 -1.9705  2.0676
18505WAT     H275826   8.698   0.642   0.524  0.7668  2.8190  0.5401
18505WAT    EPW75827   8.729   0.642   0.442  0.3047  0.1974  0.2666
18506WAT      O75828   1.327   2.768   0.519  0.1571  0.6160 -0.0926
18506WAT     H175829   1.401   2.762   0.579 -0.6468  1.3625  1.0057
18506WAT     H275830   1.311   2.678   0.492  1.3157  0.4147 -0.1826
18506WAT    EPW75831   1.335   2.755   0.523  0.2039  0.6880  0.0404
18507WAT      O75832  -3.438   5.736   5.642 -0.1498 -0.2548  0.2531
18507WAT     H175833  -3.508   5.725   5.707 -0.3822  1.2436  0.2883
18507WAT     H275834  -3.464   5.813   5.591  1.3364  0.1916  0.1108
18507WAT    EPW75835  -3.451   5.745   5.644  0.0156  0.0017  0.2387
18508WAT      O75836  -0.267   3.272   4.115  0.1726 -0.4489 -0.1242
18508WAT     H175837  -0.264   3.260   4.020  0.3882 -2.1332  0.0570
18508WAT     H275838  -0.358   3.255   4.139 -0.4349  2.2205 -0.2297
18508WAT    EPW75839  -0.278   3.268   4.106  0.1209 -0.3190 -0.1142
18509WAT      O75840  -3.155   9.245   0.021 -0.1496 -0.2406 -0.5121
18509WAT     H175841  -3.148   9.331   0.062 -0.3827 -1.0827  1.4076
18509WAT     H275842  -3.218   9.198   0.075  0.7167 -1.9574 -0.9163
18509WAT    EPW75843  -3.163   9.250   0.034 -0.0662 -0.5779 -0.3122
18510WAT      O75844   4.313   7.346   5.911  0.3059 -0.2663 -0.0028
18510WAT     H175845   4.367   7.375   5.984  0.5676 -0.4855 -0.1109
18510WAT     H275846   4.317   7.419   5.848 -2.2088  1.2275  1.3651
18510WAT    EPW75847   4.320   7.360   5.912  0.0088 -0.0982  0.1633
18511WAT      O75848  -1.651   3.564   7.295 -0.4408 -0.3148 -0.2857
18511WAT     H175849  -1.742   3.594   7.299 -0.9120 -1.7430  0.7271
18511WAT     H275850  -1.646   3.514   7.214 -0.1136  0.9933 -1.1094
18511WAT    EPW75851  -1.662   3.562   7.285 -0.4598 -0.3307 -0.2608
18512WAT      O75852  -3.969   7.238   7.595  0.3764  0.1203 -0.8269
18512WAT     H175853  -4.062   7.263   7.587  0.3410 -0.0943 -1.1197
18512WAT     H275854  -3.936   7.245   7.505  0.4421 -0.5931 -0.8605
18512WAT    EPW75855  -3.977   7.242   7.582  0.3804 -0.0021 -0.8700
18513WAT      O75856  -1.004   3.165   3.059 -0.6294  0.3776 -0.2306
18513WAT     H175857  -1.040   3.245   3.097 -5.1386 -0.8036 -1.3674
18513WAT     H275858  -0.981   3.189   2.969  0.1200  0.8301  0.0723
18513WAT    EPW75859  -1.006   3.179   3.052 -1.1253  0.2815 -0.3406
18514WAT      O75860   1.165   6.960   7.730  0.4014  0.1700  0.5828
18514WAT     H175861   1.166   6.891   7.664 -2.1900  0.6247 -0.0439
18514WAT     H275862   1.196   7.038   7.683 -3.2097  0.9573 -0.8866
18514WAT    EPW75863   1.169   6.961   7.715 -0.4166  0.3338  0.3064
18515WAT      O75864   2.928   7.488   8.675 -0.0793 -0.3220 -0.1519
18515WAT     H175865   3.000   7.548   8.689  0.1583 -0.8820  1.2041
18515WAT     H275866   2.966   7.416   8.624  0.0059 -0.0433 -0.4851
18515WAT    EPW75867   2.942   7.486   8.670 -0.0367 -0.3588 -0.0172
18516WAT      O75868  -0.340   2.658   2.371  0.2731  0.2139  0.0320
18516WAT     H175869  -0.375   2.576   2.338 -0.1787  0.8481 -1.1404
18516WAT     H275870  -0.409   2.691   2.430  1.3604 -1.2374  2.2381
18516WAT    EPW75871  -0.354   2.652   2.374  0.3569  0.1061  0.1683
18517WAT      O75872   3.439   1.158   3.786 -0.0494  0.4660  0.4661
18517WAT     H175873   3.472   1.143   3.874  0.8017 -0.1550  0.0591
18517WAT     H275874   3.488   1.234   3.755  1.4491 -0.7560 -0.3220
18517WAT    EPW75875   3.450   1.166   3.793  0.2606  0.2229  0.3085
18518WAT      O75876   0.610   0.950   8.308  0.1099  0.0385  0.4657
18518WAT     H175877   0.689   0.946   8.362 -0.0857  1.4899  0.9128
18518WAT     H275878   0.553   0.882   8.344 -0.0113  0.9642  2.1281
18518WAT    EPW75879   0.613   0.941   8.320  0.0681  0.3520  0.7439
18519WAT      O75880   0.408   9.812   1.944  0.3798 -0.1816 -0.0858
18519WAT     H175881   0.491   9.822   1.895  0.3291 -1.6526 -0.5164
18519WAT     H275882   0.382   9.902   1.965  2.2974  0.3014  0.4244
18519WAT    EPW75883   0.416   9.826   1.940  0.6260 -0.3119 -0.0753
18520WAT      O75884  -3.647   9.586   5.871 -0.1578 -0.0773  0.7490
18520WAT     H175885  -3.680   9.511   5.822 -0.2422 -0.9307  2.0916
18520WAT     H275886  -3.654   9.659   5.809 -0.0799 -1.1488 -0.5708
18520WAT    EPW75887  -3.652   9.586   5.856 -0.1587 -0.3314  0.7522
18521WAT      O75888   2.944   7.846   2.664  0.1033 -0.6940 -0.6117
18521WAT     H175889   3.015   7.809   2.716 -1.2791 -0.3844  1.6157
18521WAT     H275890   2.965   7.820   2.574  3.1484 -0.3663 -0.1225
18521WAT    EPW75891   2.956   7.837   2.659  0.3227 -0.6099 -0.2533
18522WAT      O75892   3.943   7.426   4.064  0.4512  0.1521  0.0491
18522WAT     H175893   4.033   7.394   4.071  0.6421  0.5661 -0.4483
18522WAT     H275894   3.951   7.521   4.069  0.0068  0.1810  0.2858
18522WAT    EPW75895   3.956   7.434   4.066  0.4177  0.2105  0.0148
18523WAT      O75896  -5.313   6.960   5.794 -0.5194  0.0697  1.1118
18523WAT     H175897  -5.406   6.981   5.795 -0.9244 -1.4225 -0.5102
18523WAT     H275898  -5.271   7.038   5.758 -1.1817  0.5808  1.4344
18523WAT    EPW75899  -5.320   6.973   5.790 -0.6604 -0.0598  0.9406
18524WAT      O75900   0.203   4.052   0.057  0.2306 -0.8870 -0.4456
18524WAT     H175901   0.281   4.007   0.088  0.7780 -0.6604 -1.4554
18524WAT     H275902   0.215   4.143   0.085  1.6449 -0.2473 -2.8398
18524WAT    EPW75903   0.215   4.058   0.065  0.4893 -0.7725 -0.8945
18525WAT      O75904   5.529   3.259   0.394  0.1831 -0.4734  0.3003
18525WAT     H175905   5.623   3.274   0.386 -0.0506  2.4545  1.7554
18525WAT     H275906   5.521   3.184   0.454  1.7070  1.6620  3.4373
18525WAT    EPW75907   5.540   3.251   0.401  0.3533  0.1944  0.9060
18526WAT      O75908   5.416   4.650   3.062 -0.2259  0.9339  0.6805
18526WAT     H175909   5.477   4.604   3.120  0.5915  0.0347 -0.8468
18526WAT     H275910   5.366   4.706   3.121  1.1690  0.7177  2.1484
18526WAT    EPW75911   5.417   4.651   3.078  0.0660  0.7868  0.6727
18527WAT      O75912   3.061   5.999   5.513  0.4004  0.3171 -0.4034
18527WAT     H175913   3.071   5.906   5.529 -0.8017  0.5147  1.8545
18527WAT     H275914   3.129   6.040   5.566 -0.1577  0.7639 -0.0081
18527WAT    EPW75915   3.071   5.992   5.522  0.1682  0.4020 -0.0532
18528WAT      O75916  -0.220   0.394   0.964  0.4218  0.5402  0.8066
18528WAT     H175917  -0.135   0.372   1.002  0.1055 -1.5831  0.3725
18528WAT     H275918  -0.200   0.417   0.873  0.5741  0.4730  0.8223
18528WAT    EPW75919  -0.206   0.394   0.957  0.4001  0.2513  0.7514
18529WAT      O75920  -4.329   5.104   7.411  0.3910 -0.5392  0.0285
18529WAT     H175921  -4.368   5.191   7.424  2.2598  0.4536 -0.6424
18529WAT     H275922  -4.398   5.043   7.437  0.0303  1.1332  3.5689
18529WAT    EPW75923  -4.343   5.108   7.416  0.5898 -0.1876  0.4070
18530WAT      O75924  -1.617   8.687   3.721 -0.0829  0.0552 -0.3033
18530WAT     H175925  -1.637   8.698   3.628 -2.4212  0.3183  0.1746
18530WAT     H275926  -1.559   8.761   3.741  2.5878 -1.4044 -2.0305
18530WAT    EPW75927  -1.612   8.698   3.711 -0.0390 -0.1030 -0.4680
18531WAT      O75928   3.519   2.244   7.005  0.8110 -0.2057  0.3890
18531WAT     H175929   3.567   2.317   6.967  0.1784 -0.3078 -0.6510
18531WAT     H275930   3.445   2.284   7.050  0.0609 -0.2146 -0.7860
18531WAT    EPW75931   3.516   2.259   7.006  0.6286 -0.2202  0.0966
18532WAT      O75932   1.098   6.337   4.997 -0.2845  0.0400  0.4347
18532WAT     H175933   1.068   6.397   4.929  0.8133  1.7948  1.4417
18532WAT     H275934   1.085   6.250   4.959 -0.4602  0.9333 -1.6928
18532WAT    EPW75935   1.092   6.333   4.983 -0.1630  0.3893  0.2868
18533WAT      O75936   7.952   8.087   0.070  0.1874  0.0403 -0.4379
18533WAT     H175937   7.890   8.160   0.068  0.6787  0.4506 -1.5246
18533WAT     H275938   7.930   8.035  -0.007  1.2725  0.2868 -0.9409
18533WAT    EPW75939   7.941   8.090   0.059  0.3951  0.1268 -0.6476
18534WAT      O75940   2.884   8.033   5.835 -0.6815  0.1213  0.2680
18534WAT     H175941   2.963   8.056   5.884 -1.8127 -0.4231  2.4760
18534WAT     H275942   2.917   7.994   5.754  1.3017  0.2798  0.9371
18534WAT    EPW75943   2.899   8.030   5.831 -0.5691  0.0706  0.6473
18535WAT      O75944   0.584   8.022   7.700  0.0187 -0.2016  0.1287
18535WAT     H175945   0.605   8.116   7.703  0.5532 -0.2539 -1.2491
18535WAT     H275946   0.490   8.018   7.718 -0.2199  0.6926 -0.8174
18535WAT    EPW75947   0.575   8.034   7.703  0.0578 -0.0906 -0.1779
18536WAT      O75948  -6.127   9.732   7.799 -0.1953  0.1877 -0.2857
18536WAT     H175949  -6.141   9.684   7.880  2.3065  1.5152  1.0362
18536WAT     H275950  -6.044   9.700   7.765 -0.5221  0.6473 -1.6243
18536WAT    EPW75951  -6.118   9.721   7.805  0.0916  0.4230 -0.2878
18537WAT      O75952   6.515   4.039   4.186  0.1279  0.3179  0.1648
18537WAT     H175953   6.556   4.120   4.156 -2.4725  2.3126  1.5578
18537WAT     H275954   6.504   4.052   4.281 -1.3322 -1.1418  0.2390
18537WAT    EPW75955   6.519   4.052   4.195 -0.4077  0.3884  0.3583
18538WAT      O75956  -6.627   5.164   8.199  0.4254  0.1743  0.5606
18538WAT     H175957  -6.661   5.131   8.282 -1.3662 -0.0056 -0.1801
18538WAT     H275958  -6.694   5.140   8.135  1.1600  1.4036 -0.7350
18538WAT    EPW75959  -6.640   5.157   8.201  0.2859  0.3128  0.2918
18539WAT      O75960   3.241   0.511   2.515  0.9566  0.2057  0.2675
18539WAT     H175961   3.277   0.576   2.576  2.9934 -0.8468  0.2545
18539WAT     H275962   3.273   0.539   2.429  0.9414 -0.2206  0.1204
18539WAT    EPW75963   3.250   0.524   2.512  1.2232  0.0107  0.2464
18540WAT      O75964   5.582   3.713   5.890 -0.4965  1.3541 -0.5381
18540WAT     H175965   5.653   3.666   5.846 -0.7565  1.2778 -0.8865
18540WAT     H275966   5.617   3.800   5.907  0.1132  0.9303  0.4277
18540WAT    EPW75967   5.596   3.718   5.886 -0.4504  1.2881 -0.4568
18541WAT      O75968   7.772   2.094   0.326 -0.4261 -0.0602  0.6035
18541WAT     H175969   7.848   2.041   0.301 -0.3630  0.0452  0.5714
18541WAT     H275970   7.709   2.080   0.255 -0.7151 -0.6983  0.9687
18541WAT    EPW75971   7.773   2.085   0.313 -0.4561 -0.1304  0.6474
18542WAT      O75972   6.613   2.062   2.147 -0.3874  0.6380 -0.2136
18542WAT     H175973   6.603   1.970   2.167  1.3682 -0.1170 -2.3676
18542WAT     H275974   6.657   2.099   2.224  2.6945 -1.2913 -0.8704
18542WAT    EPW75975   6.618   2.055   2.160  0.2508  0.2841 -0.5842
18543WAT      O75976   0.193   8.918   7.692  0.1098  0.3619  0.4485
18543WAT     H175977   0.174   8.994   7.637 -0.2503  0.5341  0.8080
18543WAT     H275978   0.272   8.943   7.741  2.6849 -1.1234 -2.5540
18543WAT    EPW75979   0.201   8.931   7.691  0.4020  0.1888  0.1001
18544WAT      O75980  -1.947   4.755   6.440  0.5372 -0.6703 -0.3046
18544WAT     H175981  -1.882   4.815   6.404 -0.1512 -0.2569 -0.9014
18544WAT     H275982  -1.974   4.701   6.366  0.3847 -1.0045 -0.0082
18544WAT    EPW75983  -1.942   4.756   6.426  0.4263 -0.6599 -0.3440
18545WAT      O75984   0.049   7.348   2.257 -0.5113  0.4549  0.4365
18545WAT     H175985  -0.026   7.385   2.303 -0.3613  0.8444  0.3760
18545WAT     H275986   0.017   7.265   2.221 -0.8185  0.4658  0.6778
18545WAT    EPW75987   0.035   7.342   2.259 -0.5321  0.5076  0.4604
18546WAT      O75988   6.754   0.470   0.501  0.1535  0.8251 -0.1482
18546WAT     H175989   6.694   0.513   0.562 -1.5392 -1.5220 -0.0217
18546WAT     H275990   6.754   0.378   0.529  1.8477  0.2906 -1.7450
18546WAT    EPW75991   6.746   0.464   0.513  0.1538  0.4450 -0.3422
18547WAT      O75992  -1.005   7.779   4.375  0.2519  0.1586  0.0938
18547WAT     H175993  -1.067   7.726   4.325  1.3864 -1.5075  0.3740
18547WAT     H275994  -0.924   7.775   4.326  0.2612  2.1264 -0.1423
18547WAT    EPW75995  -1.003   7.771   4.362  0.4027  0.1984  0.0997
18548WAT      O75996   6.273   6.256   2.942 -0.2153 -0.1549  0.0125
18548WAT     H175997   6.209   6.186   2.934  1.1714 -1.3842 -0.9093
18548WAT     H275998   6.318   6.238   3.025 -0.1998 -0.0670  0.0233
18548WAT    EPW75999   6.271   6.245   2.952 -0.0303 -0.3054 -0.1076
18549WAT      O76000  -0.126   3.745   2.101 -0.3714  0.2727  0.8587
18549WAT     H176001  -0.200   3.733   2.041  0.8677 -1.9229 -0.3574
18549WAT     H276002  -0.112   3.659   2.140  1.9467  0.4192  0.5067
18549WAT    EPW76003  -0.134   3.732   2.098  0.0978  0.0024  0.6518
18550WAT      O76004  -1.089   5.121   5.978 -0.6176 -0.2803 -0.1832
18550WAT     H176005  -1.184   5.133   5.978 -0.5853  0.0726  0.9319
18550WAT     H276006  -1.068   5.096   5.888 -1.9437 -1.9323 -0.0818
18550WAT    EPW76007  -1.099   5.120   5.966 -0.7883 -0.4516 -0.0229
18551WAT      O76008   4.624   1.116   0.387 -0.1965  0.2942 -0.4218
18551WAT     H176009   4.626   1.168   0.467 -0.9824 -1.4354  0.7794
18551WAT     H276010   4.541   1.138   0.345 -0.6184 -0.1288  0.1833
18551WAT    EPW76011   4.614   1.126   0.392 -0.3560  0.0103 -0.1835
18552WAT      O76012  -0.205   8.018   5.397  0.1367  0.3333 -0.4959
18552WAT     H176013  -0.162   8.023   5.482 -1.8101  0.8340  0.5325
18552WAT     H276014  -0.202   8.108   5.363  1.5731 -0.0058 -1.3503
18552WAT    EPW76015  -0.199   8.031   5.403  0.0694  0.3548 -0.4728
18553WAT      O76016  -6.091   8.608   6.633 -1.0682 -0.4558  0.7439
18553WAT     H176017  -6.184   8.607   6.608 -0.4736  0.2555 -1.8651
18553WAT     H276018  -6.056   8.684   6.586  1.2686 -1.9883 -0.1189
18553WAT    EPW76019  -6.099   8.618   6.623 -0.6814 -0.5641  0.2859
18554WAT      O76020   2.260   8.205   0.839 -0.1534  0.5636  0.1921
18554WAT     H176021   2.321   8.170   0.775 -0.6832 -1.5343  0.7833
18554WAT     H276022   2.228   8.129   0.887 -1.6152  1.8245  1.3265
18554WAT    EPW76023   2.264   8.191   0.837 -0.4162  0.4530  0.4197
18555WAT      O76024  -3.806   7.427   5.752 -0.2273  0.1948 -0.0526
18555WAT     H176025  -3.748   7.415   5.677  0.2921 -0.1862  0.4018
18555WAT     H276026  -3.810   7.341   5.793 -0.1557  0.4966  0.6064
18555WAT    EPW76027  -3.799   7.414   5.748 -0.1493  0.1843  0.0947
18556WAT      O76028   5.987   8.078   3.266  0.2392 -0.2127 -0.0084
18556WAT     H176029   6.027   8.099   3.350 -2.2804  1.2118  0.9446
18556WAT     H276030   6.033   8.131   3.202 -0.7611  2.2804  1.2173
18556WAT    EPW76031   5.998   8.087   3.268 -0.2251  0.3037  0.2789
18557WAT      O76032   0.578   7.982   4.691 -0.5694 -0.2007 -0.5376
18557WAT     H176033   0.515   8.033   4.742  1.5379  1.7714  0.2597
18557WAT     H276034   0.648   7.962   4.752  0.8067 -0.0543 -2.0047
18557WAT    EPW76035   0.579   7.986   4.705 -0.1100  0.0787 -0.6258
18558WAT      O76036   0.264   3.462   3.220 -0.4941 -0.2810 -0.5020
18558WAT     H176037   0.329   3.394   3.239  2.1705  2.2624  0.2148
18558WAT     H276038   0.188   3.436   3.271  1.4363 -1.2662  2.1255
18558WAT    EPW76039   0.263   3.449   3.229  0.1120 -0.0755 -0.0609
18559WAT      O76040   5.481   6.505   2.208 -0.1124  0.1740  1.4903
18559WAT     H176041   5.500   6.583   2.260  2.2949 -0.7589  2.1432
18559WAT     H276042   5.460   6.438   2.273 -1.9924  0.1988  0.9416
18559WAT    EPW76043   5.481   6.507   2.224 -0.0432  0.0541  1.5041
18560WAT      O76044   6.285   2.950   2.127  0.5578 -0.1559 -0.3851
18560WAT     H176045   6.226   3.006   2.177 -0.3012 -0.4266 -1.0695
18560WAT     H276046   6.329   2.897   2.193  0.0152  0.0356  0.1360
18560WAT    EPW76047   6.283   2.950   2.142  0.3729 -0.1663 -0.4066
18561WAT      O76048   8.286   2.733   0.501  0.0594  0.2541 -0.4252
18561WAT     H176049   8.302   2.764   0.412 -0.9800 -0.1591 -0.7807
18561WAT     H276050   8.292   2.637   0.495  2.6274  0.2918  0.5254
18561WAT    EPW76051   8.289   2.724   0.489  0.2613  0.2046 -0.3467
18562WAT      O76052  -6.190   7.118   8.103  0.4743  0.2492 -0.4278
18562WAT     H176053  -6.258   7.096   8.166  0.5243 -0.5024 -0.6311
18562WAT     H276054  -6.116   7.146   8.156  0.1565  0.6675 -0.1945
18562WAT    EPW76055  -6.189   7.119   8.118  0.4389  0.2053 -0.4239
18563WAT      O76056   2.274   0.548   7.918  0.0483  0.3264  0.6155
18563WAT     H176057   2.245   0.569   7.829  2.0320  2.3313  0.3451
18563WAT     H276058   2.207   0.489   7.952 -1.6637  0.8596 -1.5973
18563WAT    EPW76059   2.261   0.543   7.911  0.0842  0.6612  0.2880
18564WAT      O76060   4.745   1.558   4.312 -0.7362 -0.7145  0.0366
18564WAT     H176061   4.763   1.652   4.322 -1.8521 -0.5927  1.0882
18564WAT     H276062   4.831   1.517   4.324 -0.7233 -0.0367  3.1738
18564WAT    EPW76063   4.759   1.565   4.315 -0.8817 -0.6090  0.5891
18565WAT      O76064  -0.448   8.075   7.968 -0.0416 -0.4380 -0.1912
18565WAT     H176065  -0.499   8.019   7.908 -1.6759  0.7036  0.0479
18565WAT     H276066  -0.515   8.120   8.020  1.2392  1.1767  0.1165
18565WAT    EPW76067  -0.464   8.073   7.967 -0.0882 -0.0744 -0.1192
18566WAT      O76068  -2.245   4.279   5.481  0.2556 -0.2739 -0.3719
18566WAT     H176069  -2.180   4.242   5.422  0.2608  0.8633 -1.1269
18566WAT     H276070  -2.241   4.373   5.464  0.3839  0.1191  1.5919
18566WAT    EPW76071  -2.236   4.287   5.471  0.2732 -0.0720 -0.2124
18567WAT      O76072   4.455   7.135   2.324 -0.3954 -0.4978 -0.1107
18567WAT     H176073   4.445   7.052   2.277  1.3474 -0.9591  0.2326
18567WAT     H276074   4.366   7.169   2.333 -0.9526 -1.3320 -2.0204
18567WAT    EPW76075   4.442   7.128   2.319 -0.2391 -0.6685 -0.3172
18568WAT      O76076  -2.607   6.714   8.135  0.1604  0.3452 -0.1940
18568WAT     H176077  -2.633   6.806   8.145  0.4172  0.4746 -0.6849
18568WAT     H276078  -2.658   6.667   8.201 -0.7646  0.7000 -0.6400
18568WAT    EPW76079  -2.617   6.720   8.145  0.0721  0.4089 -0.3176
18569WAT      O76080   0.826   8.526   2.129 -0.0095 -0.1327  0.0079
18569WAT     H176081   0.846   8.614   2.096  2.1457 -0.2246  0.8861
18569WAT     H276082   0.802   8.476   2.051  1.6927  0.4972 -0.9797
18569WAT    EPW76083   0.825   8.531   2.114  0.4993 -0.0615 -0.0066
18570WAT      O76084   0.574   5.078   2.344  0.0222  0.0983 -0.0488
18570WAT     H176085   0.656   5.077   2.394  1.2404 -0.2334 -1.9071
18570WAT     H276086   0.591   5.018   2.271 -1.7553  0.3289 -0.6833
18570WAT    EPW76087   0.587   5.070   2.341 -0.0515  0.0849 -0.3777
18571WAT      O76088   2.939   0.767   6.988 -0.6353 -0.5319 -0.0542
18571WAT     H176089   3.024   0.796   7.021 -1.4686  0.6168  1.2325
18571WAT     H276090   2.959   0.701   6.922  1.4205  2.5796 -2.8540
18571WAT    EPW76091   2.953   0.762   6.984 -0.4741  0.0300 -0.2542
18572WAT      O76092  -1.846   8.450   3.844 -0.0113 -0.5495  0.3199
18572WAT     H176093  -1.861   8.405   3.927  2.3324 -0.6303  0.7472
18572WAT     H276094  -1.752   8.468   3.842 -0.5343  2.8601 -0.5850
18572WAT    EPW76095  -1.836   8.447   3.854  0.2289 -0.1106  0.2569
18573WAT      O76096  -0.907   3.886   3.011  0.4257 -0.5729 -0.4483
18573WAT     H176097  -0.989   3.906   3.056  1.2547 -0.7822  1.2591
18573WAT     H276098  -0.853   3.845   3.078  0.6210 -3.9406 -2.4610
18573WAT    EPW76099  -0.910   3.883   3.026  0.5608 -1.0448 -0.4886
18574WAT      O76100  -7.329   9.853   8.390  0.2110  0.6126  0.0379
18574WAT     H176101  -7.385   9.920   8.351 -0.2264  0.5567  0.5579
18574WAT     H276102  -7.389   9.798   8.440  0.7882  0.8534  1.0304
18574WAT    EPW76103  -7.344   9.854   8.391  0.2296  0.6371  0.2370
18575WAT      O76104   0.407   0.945   1.519  0.6784 -0.0122  0.2201
18575WAT     H176105   0.361   1.028   1.526 -1.1662 -0.7771 -1.7638
18575WAT     H276106   0.449   0.947   1.432  0.9441 -0.9859  0.3084
18575WAT    EPW76107   0.407   0.956   1.508  0.4702 -0.2415 -0.0299
18576WAT      O76108   0.218   5.511   7.375 -0.0343 -0.4914 -0.4482
18576WAT     H176109   0.276   5.553   7.312 -0.7337 -0.5822 -1.1697
18576WAT     H276110   0.134   5.504   7.329 -0.2638 -1.5583  0.0972
18576WAT    EPW76111   0.215   5.516   7.361 -0.1568 -0.6440 -0.4716
18577WAT      O76112   4.152   3.339   1.690  0.9554 -0.0532 -0.1632
18577WAT     H176113   4.157   3.435   1.685  2.5125 -0.0393  0.9841
18577WAT     H276114   4.059   3.319   1.677  1.0336  1.3116 -4.4177
18577WAT    EPW76115   4.141   3.349   1.687  1.1709  0.1286 -0.5730
18578WAT      O76116   2.186   9.578   0.359 -0.2126  0.2135 -0.2907
18578WAT     H176117   2.165   9.502   0.413 -1.6367  1.3219  0.7719
18578WAT     H276118   2.244   9.631   0.413 -0.2447  0.5018 -0.5396
18578WAT    EPW76119   2.191   9.575   0.373 -0.4047  0.3972 -0.1834
18579WAT      O76120   4.633   9.538   3.568  0.2718 -0.3623  0.2500
18579WAT     H176121   4.663   9.501   3.485  0.7626 -2.0458  1.1250
18579WAT     H276122   4.708   9.530   3.626 -0.2613  0.1999  1.0355
18579WAT    EPW76123   4.646   9.532   3.564  0.2658 -0.5102  0.4691
18580WAT      O76124   0.589   3.113   3.987 -0.4024 -0.2652  0.6204
18580WAT     H176125   0.505   3.131   3.946  0.0209  1.8915  0.5843
18580WAT     H276126   0.567   3.085   4.076 -1.2005  1.7738  1.1349
18580WAT    EPW76127   0.575   3.112   3.994 -0.4518  0.2881  0.6834
18581WAT      O76128  -1.950   1.012   7.777 -0.7011 -0.5680 -0.7335
18581WAT     H176129  -2.003   0.935   7.759  3.3295 -3.5278 -1.1820
18581WAT     H276130  -1.879   0.981   7.832  2.0357  2.4038 -2.2018
18581WAT    EPW76131  -1.948   0.998   7.782  0.1915 -0.5665 -0.9863
18582WAT      O76132  -2.968   9.107   4.536  0.5918 -0.0370 -0.0158
18582WAT     H176133  -2.878   9.077   4.518  1.6879  1.9197  1.7019
18582WAT     H276134  -2.964   9.140   4.626 -1.3736  1.8020 -0.5278
18582WAT    EPW76135  -2.955   9.107   4.545  0.4771  0.4640  0.1433
18583WAT      O76136   9.625   0.391   0.612  0.1223 -0.7172  0.7688
18583WAT     H176137   9.650   0.370   0.522 -1.2235 -1.6316  0.5888
18583WAT     H276138   9.639   0.485   0.619 -3.9610  0.3610 -1.8912
18583WAT    EPW76139   9.630   0.401   0.601 -0.5941 -0.6956  0.3942
18584WAT      O76140   3.852   3.597   2.711 -0.0841  0.0641 -0.1509
18584WAT     H176141   3.912   3.643   2.652 -0.4148  2.2734  1.1437
18584WAT     H276142   3.884   3.616   2.799 -0.3490 -2.1251  0.4931
18584WAT    EPW76143   3.864   3.605   2.714 -0.1626  0.0668  0.1049
18585WAT      O76144   2.045   6.724   3.601 -0.3106  0.1520  0.5685
18585WAT     H176145   2.110   6.765   3.544 -1.0397 -2.4901 -2.4369
18585WAT     H276146   1.962   6.762   3.575 -0.7033 -1.3798 -0.6067
18585WAT    EPW76147   2.042   6.734   3.590 -0.4586 -0.3984  0.0170
18586WAT      O76148   8.397   0.852   2.966  0.3365  0.0629 -0.4155
18586WAT     H176149   8.470   0.807   3.008  0.9251  1.3052 -0.0853
18586WAT     H276150   8.320   0.799   2.989  0.6852  0.4653  1.8963
18586WAT    EPW76151   8.397   0.839   2.975  0.4601  0.2798 -0.0670
18587WAT      O76152  -1.507   8.518   6.503 -0.1026  0.7899  0.5010
18587WAT     H176153  -1.577   8.494   6.443  0.7815  0.3718 -0.3854
18587WAT     H276154  -1.547   8.515   6.590 -0.1785 -3.8815  0.5537
18587WAT    EPW76155  -1.521   8.514   6.507  0.0040  0.1187  0.3910
18588WAT      O76156   4.496   7.537   2.702 -0.4125 -0.2632 -0.2070
18588WAT     H176157   4.489   7.511   2.610 -0.8451 -2.1726  0.3167
18588WAT     H276158   4.590   7.535   2.721 -0.4292 -2.1292 -0.0708
18588WAT    EPW76159   4.508   7.533   2.693 -0.4718 -0.7610 -0.1200
18589WAT      O76160  -1.591   6.817   3.805 -0.2667 -0.0440  0.2965
18589WAT     H176161  -1.562   6.900   3.768  0.7346 -1.1282 -1.5022
18589WAT     H276162  -1.686   6.827   3.816 -0.2275  1.1605 -0.3424
18589WAT    EPW76163  -1.600   6.829   3.802 -0.1295 -0.0279 -0.0250
18590WAT      O76164   1.755   9.613   1.171  0.4418 -0.2113 -0.0600
18590WAT     H176165   1.722   9.554   1.239 -0.5494 -2.2024 -2.1122
18590WAT     H276166   1.685   9.615   1.106  2.3743 -0.5964 -2.2743
18590WAT    EPW76167   1.741   9.605   1.172  0.5659 -0.5250 -0.6228
18591WAT      O76168   4.345   6.160   4.230 -0.0675  0.4871  0.0052
18591WAT     H176169   4.314   6.079   4.190 -0.0414  0.4626  0.0350
18591WAT     H276170   4.313   6.229   4.172 -1.2199  0.5404  0.6724
18591WAT    EPW76171   4.337   6.159   4.217 -0.2160  0.4909  0.0970
18592WAT      O76172  -0.599   5.052   5.343  0.4067 -0.2116  0.1797
18592WAT     H176173  -0.611   4.958   5.359  2.0289 -0.8561 -1.8648
18592WAT     H276174  -0.628   5.094   5.423 -2.2550 -2.3044  0.4517
18592WAT    EPW76175  -0.604   5.045   5.356  0.2696 -0.5727 -0.0539
18593WAT      O76176   3.382   0.408   3.750  0.3127  0.4529 -0.3230
18593WAT     H176177   3.469   0.368   3.749  0.3249  0.4107  1.0456
18593WAT     H276178   3.398   0.501   3.763  0.1499  0.4227  0.1059
18593WAT    EPW76179   3.395   0.415   3.752  0.2929  0.4433 -0.0859
18594WAT      O76180   2.872   1.673   4.305  0.5571 -0.5712 -0.5833
18594WAT     H176181   2.865   1.764   4.275 -2.3096  0.5943  2.9046
18594WAT     H276182   2.960   1.667   4.342 -0.0726  1.8162  1.6201
18594WAT    EPW76183   2.882   1.684   4.306  0.0958 -0.1026  0.1671
18595WAT      O76184  -5.097   8.569   8.245 -0.0875 -0.2648  0.6101
18595WAT     H176185  -5.129   8.635   8.184 -0.4533 -0.2357  0.8317
18595WAT     H276186  -5.001   8.578   8.243 -0.0403 -0.8399 -0.6081
18595WAT    EPW76187  -5.088   8.579   8.237 -0.1297 -0.3371  0.4787
18596WAT      O76188   1.448   9.113   4.180 -0.0596  0.2555 -0.1031
18596WAT     H176189   1.418   9.090   4.092 -1.6650  0.0667  0.4728
18596WAT     H276190   1.429   9.035   4.233 -2.2096  1.5065  1.0935
18596WAT    EPW76191   1.442   9.099   4.175 -0.5549  0.3958  0.1307
18597WAT      O76192   6.410   6.190   3.183  0.4744 -0.3857 -0.3286
18597WAT     H176193   6.383   6.106   3.221 -0.3564 -0.0308 -0.0998
18597WAT     H276194   6.506   6.188   3.184  0.4863 -0.4982  1.5696
18597WAT    EPW76195   6.419   6.179   3.188  0.3662 -0.3538 -0.0480
18598WAT      O76196   6.040   0.724   1.617 -0.4012  0.6181  0.3698
18598WAT     H176197   5.961   0.671   1.609  1.1365 -2.7817  4.3082
18598WAT     H276198   6.101   0.687   1.552 -0.9700  1.0673 -0.4300
18598WAT    EPW76199   6.038   0.712   1.608 -0.2735  0.2289  0.7837
18599WAT      O76200   2.807   7.620   7.052 -0.8104  0.1202  0.1165
18599WAT     H176201   2.723   7.594   7.089 -0.8157 -0.8391 -0.5021
18599WAT     H276202   2.800   7.596   6.959  0.7436 -1.6380  0.3842
18599WAT    EPW76203   2.795   7.613   7.044 -0.6062 -0.2382  0.0703
18600WAT      O76204   1.801   1.805   4.321  0.1394 -0.4205 -0.2021
18600WAT     H176205   1.738   1.735   4.342  0.3843 -0.5205  0.2125
18600WAT     H276206   1.797   1.864   4.396  0.6902 -0.5366 -0.0769
18600WAT    EPW76207   1.792   1.803   4.333  0.2444 -0.4490 -0.1309
18601WAT      O76208   4.810   4.056   3.788  0.4767 -0.0676  0.3343
18601WAT     H176209   4.764   3.978   3.821  0.6774 -0.3365 -0.0238
18601WAT     H276210   4.744   4.103   3.737  0.4373 -0.1478  0.3116
18601WAT    EPW76211   4.795   4.052   3.786  0.4981 -0.1137  0.2841
18602WAT      O76212   5.975   0.846   0.734 -0.2797 -0.5562 -0.0947
18602WAT     H176213   5.921   0.902   0.791 -0.9762  0.1585 -1.4145
18602WAT     H276214   5.978   0.893   0.651  1.1201 -1.3523 -0.5140
18602WAT    EPW76215   5.968   0.860   0.731 -0.1869 -0.5669 -0.3240
18603WAT      O76216   4.481   3.581   1.017 -0.8313  0.0995  0.2163
18603WAT     H176217   4.426   3.540   1.083 -1.9961  1.0813 -0.1067
18603WAT     H276218   4.512   3.509   0.962  0.7508 -0.8315  2.2040
18603WAT    EPW76219   4.478   3.566   1.018 -0.7763  0.1061  0.4359
18604WAT      O76220   1.345   9.122   3.832 -0.0419  0.7167 -1.2563
18604WAT     H176221   1.262   9.145   3.874 -0.4754 -2.3999 -0.1976
18604WAT     H276222   1.394   9.205   3.831 -1.7020  1.8782  1.4915
18604WAT    EPW76223   1.340   9.136   3.837 -0.3181  0.4587 -0.7542
18605WAT      O76224   4.284   2.157   5.207 -0.7048  0.0950 -0.5050
18605WAT     H176225   4.268   2.078   5.156  1.3302  0.5734 -2.0461
18605WAT     H276226   4.269   2.229   5.146  1.2296  0.7101 -0.3510
18605WAT    EPW76227   4.280   2.156   5.193 -0.1814  0.2391 -0.6878
18606WAT      O76228   4.433   0.680   7.020 -0.0753  0.1560 -0.1509
18606WAT     H176229   4.502   0.640   6.967 -0.4646 -0.0537 -0.5132
18606WAT     H276230   4.479   0.743   7.076  0.3343  0.5161 -0.8656
18606WAT    EPW76231   4.448   0.683   7.020 -0.0725  0.1758 -0.2930
18607WAT      O76232  -3.274   8.569   5.497 -0.2435 -0.7923 -0.2393
18607WAT     H176233  -3.192   8.524   5.521 -0.5831 -1.1896  0.2066
18607WAT     H276234  -3.341   8.524   5.549 -0.6430  0.0029 -0.0602
18607WAT    EPW76235  -3.272   8.557   5.507 -0.3411 -0.7401 -0.1569
18608WAT      O76236   3.217   9.299   2.753 -0.1294 -0.1944 -0.4979
18608WAT     H176237   3.306   9.331   2.764 -0.2967 -0.0646  0.5124
18608WAT     H276238   3.226   9.228   2.689  0.7685 -0.5231 -0.0244
18608WAT    EPW76239   3.230   9.294   2.746 -0.0331 -0.2203 -0.3022
18609WAT      O76240  -4.903   9.625   6.453  0.3079  0.5472  0.0387
18609WAT     H176241  -4.982   9.637   6.505  2.5923  2.1971  3.5547
18609WAT     H276242  -4.847   9.569   6.506  1.8167  0.0469 -1.9504
18609WAT    EPW76243  -4.906   9.619   6.467  0.8080  0.6990  0.2401
18610WAT      O76244   4.722   5.711   5.123 -0.1629  0.0085  0.1335
18610WAT     H176245   4.799   5.707   5.179  0.8482  1.6140 -1.0504
18610WAT     H276246   4.731   5.637   5.064  0.0865 -0.2131  0.4470
18610WAT    EPW76247   4.733   5.701   5.123  0.0033  0.1910  0.0188
18611WAT      O76248  -0.723   8.156   7.647  0.1348  0.0411  0.5469
18611WAT     H176249  -0.791   8.198   7.594 -1.3628 -0.6267  1.8531
18611WAT     H276250  -0.670   8.229   7.680 -0.9932  0.7422  0.8848
18611WAT    EPW76251  -0.725   8.171   7.645 -0.2115  0.0453  0.7639
18612WAT      O76252  -5.251   9.676   7.599  0.2701  0.0964  0.2216
18612WAT     H176253  -5.340   9.694   7.569  0.8198  2.7369 -0.0404
18612WAT     H276254  -5.195   9.728   7.541  1.8591 -0.0995  1.5044
18612WAT    EPW76255  -5.255   9.685   7.587  0.5522  0.4187  0.3562
18613WAT      O76256  -1.337   8.244   8.684 -0.4202 -0.4581 -0.1020
18613WAT     H176257  -1.321   8.336   8.707 -2.1477 -0.4397  1.1593
18613WAT     H276258  -1.329   8.197   8.767  1.4137 -1.6506 -0.8772
18613WAT    EPW76259  -1.334   8.250   8.698 -0.4061 -0.6127 -0.0377
18614WAT      O76260  -5.283   4.007   7.529  0.2101  0.2336 -0.6783
18614WAT     H176261  -5.214   3.970   7.586 -1.7518  0.2860  1.9289
18614WAT     H276262  -5.341   3.933   7.513 -0.0592  0.5961 -1.3878
18614WAT    EPW76263  -5.281   3.992   7.535 -0.0842  0.2884 -0.4280
18615WAT      O76264   0.647   3.903   7.577 -0.4560  0.5315  1.0492
18615WAT     H176265   0.660   3.809   7.592  1.8570  0.7829  1.0114
18615WAT     H276266   0.568   3.924   7.626 -0.1715 -1.1430  2.3233
18615WAT    EPW76267   0.638   3.893   7.585 -0.1134  0.3439  1.2124
18616WAT      O76268   4.531   1.214   6.859 -0.0147  0.1569  0.7182
18616WAT     H176269   4.470   1.140   6.853  0.0837  0.0347  1.1672
18616WAT     H276270   4.583   1.208   6.779 -0.2040 -0.0854  0.6107
18616WAT    EPW76271   4.530   1.203   6.848 -0.0267  0.1088  0.7632
18617WAT      O76272   5.038   4.357   0.423 -0.4196  0.2563 -0.0404
18617WAT     H176273   5.119   4.392   0.386 -0.4873 -0.0579 -0.4898
18617WAT     H276274   5.014   4.285   0.365 -0.2826 -0.5473  0.8645
18617WAT    EPW76275   5.046   4.352   0.410 -0.4106  0.1090  0.0197
18618WAT      O76276   4.818   0.551   8.530 -0.3598 -0.0283 -0.4823
18618WAT     H176277   4.760   0.487   8.488 -1.2258  1.1585 -1.1612
18618WAT     H276278   4.824   0.522   8.621 -2.4473  0.0508 -0.2640
18618WAT    EPW76279   4.811   0.539   8.536 -0.7493  0.1387 -0.5426
18619WAT      O76280  -1.622   3.979   0.946  0.0192  0.8445 -0.3647
18619WAT     H176281  -1.666   3.900   0.976 -0.0920  1.6563  1.8071
18619WAT     H276282  -1.686   4.049   0.962  1.0501  1.6767  0.2268
18619WAT    EPW76283  -1.636   3.978   0.952  0.1405  1.0613 -0.0002
18620WAT      O76284  -4.388   9.855   8.899  0.8387 -0.0433 -0.5358
18620WAT     H176285  -4.334   9.906   8.959  1.3149 -0.2080 -0.8180
18620WAT     H276286  -4.376   9.897   8.814 -0.9289  1.0557 -0.2941
18620WAT    EPW76287  -4.380   9.867   8.896  0.6683  0.0796 -0.5412
18621WAT      O76288   2.727   7.499   0.500  0.0601 -0.4857 -0.2310
18621WAT     H176289   2.725   7.442   0.423  1.4708  3.4936 -3.5085
18621WAT     H276290   2.818   7.527   0.507 -0.5993  1.5138  1.0933
18621WAT    EPW76291   2.739   7.495   0.491  0.1591  0.3030 -0.4886
18622WAT      O76292   0.543   5.982   2.793  1.0316  0.1246  0.2190
18622WAT     H176293   0.604   6.016   2.858 -0.0375  0.6895  0.9706
18622WAT     H276294   0.566   6.027   2.712  1.3208  0.6609  0.5952
18622WAT    EPW76295   0.554   5.992   2.791  0.9287  0.2697  0.3676
18623WAT      O76296   5.220   2.030   2.384  0.2994 -0.1483  0.1320
18623WAT     H176297   5.291   2.094   2.382  0.5447 -0.4240 -0.3426
18623WAT     H276298   5.263   1.948   2.359 -0.0061 -0.5007  0.7439
18623WAT    EPW76299   5.235   2.027   2.380  0.2916 -0.2311  0.1502
18624WAT      O76300  -2.411   2.024   4.596  0.7777  0.5231  0.1109
18624WAT     H176301  -2.449   2.057   4.677  2.6413 -0.8063  1.6245
18624WAT     H276302  -2.439   1.932   4.593  0.8968  0.5103 -0.6478
18624WAT    EPW76303  -2.420   2.016   4.606  1.0391  0.3461  0.2105
18625WAT      O76304   4.064   8.275   1.748  0.0708  0.1294  0.0910
18625WAT     H176305   3.987   8.251   1.800  0.7575  0.7220  1.4097
18625WAT     H276306   4.043   8.363   1.716 -0.1192 -0.0168 -0.1928
18625WAT    EPW76307   4.051   8.284   1.751  0.1361  0.1884  0.2275
18626WAT      O76308  -1.734   6.115   2.463  0.1915 -0.1047 -0.0061
18626WAT     H176309  -1.765   6.029   2.489  0.1520 -0.0925 -0.0126
18626WAT     H276310  -1.659   6.098   2.407  0.5570 -0.1153  0.4880
18626WAT    EPW76311  -1.728   6.102   2.459  0.2345 -0.1044  0.0583
18627WAT      O76312   6.193   5.311   2.900 -0.1855 -0.4231 -0.1314
18627WAT     H176313   6.119   5.268   2.856 -0.3404  0.6330 -0.9282
18627WAT     H276314   6.264   5.308   2.836 -0.0925  0.2152 -0.0590
18627WAT    EPW76315   6.193   5.305   2.886 -0.1938 -0.1998 -0.2270
18628WAT      O76316   3.928   3.478   0.190  0.4605  0.2210  0.4794
18628WAT     H176317   3.893   3.558   0.229  1.3314  1.0183 -0.3112
18628WAT     H276318   3.989   3.509   0.123  1.5072 -1.1018  0.7669
18628WAT    EPW76319   3.931   3.492   0.186  0.7133  0.1518  0.4131
18629WAT      O76320   7.324   3.041   1.143  0.2765 -0.1259  0.2489
18629WAT     H176321   7.338   2.983   1.218 -0.5222 -1.4404 -0.5890
18629WAT     H276322   7.235   3.073   1.154  0.1767 -0.2789 -0.1021
18629WAT    EPW76323   7.314   3.037   1.154  0.1581 -0.3195  0.0921
18630WAT      O76324  -2.331   3.594   7.549 -1.0996  0.4807  0.1470
18630WAT     H176325  -2.297   3.669   7.599  0.9541 -0.2871  0.0252
18630WAT     H276326  -2.388   3.548   7.611 -1.5610  1.5673  0.5573
18630WAT    EPW76327  -2.334   3.598   7.564 -0.8897  0.5229  0.1850
18631WAT      O76328   2.494   6.172   8.984 -0.0063 -0.4495 -0.4991
18631WAT     H176329   2.437   6.098   9.003 -0.6409  0.5103  1.5714
18631WAT     H276330   2.446   6.222   8.917  0.1026 -1.4834 -1.3858
18631WAT    EPW76331   2.480   6.169   8.977 -0.0758 -0.4593 -0.3430
18632WAT      O76332   0.469   9.515   3.571  0.6967  0.6949  0.6360
18632WAT     H176333   0.444   9.581   3.506 -1.6888 -1.8309 -1.2960
18632WAT     H276334   0.425   9.543   3.651 -0.3236  1.4712 -0.1526
18632WAT    EPW76335   0.460   9.527   3.573  0.2475  0.4644  0.2773
18633WAT      O76336   1.118   5.715   0.607  0.3256 -0.2857 -0.1859
18633WAT     H176337   1.146   5.634   0.650 -0.1297 -1.0998 -1.3862
18633WAT     H276338   1.047   5.689   0.550 -2.3480  1.5561  2.0321
18633WAT    EPW76339   1.113   5.701   0.605 -0.0870 -0.1502 -0.0517
18634WAT      O76340   1.360   3.522   6.908 -0.6386  0.0708 -0.1239
18634WAT     H176341   1.393   3.559   6.826  2.6834  1.9475  1.8277
18634WAT     H276342   1.399   3.435   6.912 -1.2928 -0.2600 -0.7685
18634WAT    EPW76343   1.370   3.516   6.898 -0.2868  0.2748  0.0484
18635WAT      O76344  -0.974   2.526   2.166  0.4510 -0.0102  0.5403
18635WAT     H176345  -1.031   2.494   2.097  1.5261 -2.4862  0.6864
18635WAT     H276346  -0.889   2.536   2.124  1.1308 -1.5905  1.4427
18635WAT    EPW76347  -0.970   2.523   2.151  0.6825 -0.5453  0.6787
18636WAT      O76348  -3.559   1.505   6.633 -0.4532  0.2237  0.4398
18636WAT     H176349  -3.607   1.537   6.709 -2.2639  3.5092 -1.8318
18636WAT     H276350  -3.468   1.528   6.650 -0.3124 -1.6600  2.7085
18636WAT    EPW76351  -3.553   1.512   6.645 -0.6735  0.4086  0.4394
18637WAT      O76352  -2.931   3.237   5.318 -0.8019  0.6158  0.7616
18637WAT     H176353  -2.932   3.281   5.233  0.3652  0.4233  0.6250
18637WAT     H276354  -3.021   3.241   5.348 -1.7392 -1.2407 -1.4765
18637WAT    EPW76355  -2.943   3.243   5.310 -0.7715  0.3455  0.4487
18638WAT      O76356  -1.599   6.381   8.795  0.3491  0.6899  0.2351
18638WAT     H176357  -1.669   6.318   8.814  0.8261  0.0461 -0.1173
18638WAT     H276358  -1.585   6.427   8.878  1.9010 -1.5777  1.3034
18638WAT    EPW76359  -1.606   6.379   8.809  0.6167  0.3059  0.3295
18639WAT      O76360  -5.199   8.483   7.684  0.2614 -0.0885  0.4422
18639WAT     H176361  -5.104   8.487   7.693  0.6191  0.1029 -2.5101
18639WAT     H276362  -5.222   8.560   7.633 -1.2187 -1.1501 -0.5789
18639WAT    EPW76363  -5.190   8.493   7.679  0.1132 -0.2031 -0.0820
18640WAT      O76364   0.448   4.175   0.492 -0.2810  0.2841  0.3113
18640WAT     H176365   0.403   4.252   0.460  2.0322  2.5173  1.9827
18640WAT     H276366   0.540   4.188   0.466 -0.1207 -3.1835 -1.4862
18640WAT    EPW76367   0.454   4.186   0.484  0.0453  0.1214  0.2947
18641WAT      O76368   7.442   4.646   1.659  0.0773 -0.1296 -0.4103
18641WAT     H176369   7.538   4.651   1.654  0.2492  2.1863  2.3632
18641WAT     H276370   7.413   4.736   1.650 -1.9944 -0.8669 -1.9252
18641WAT    EPW76371   7.451   4.658   1.657 -0.1733  0.0789 -0.2443
18642WAT      O76372   1.062   6.153   5.317 -0.2203  0.6457  0.0573
18642WAT     H176373   0.970   6.139   5.295  0.2160 -2.7037 -0.0430
18642WAT     H276374   1.096   6.206   5.245 -1.8885  1.3892 -0.2221
18642WAT    EPW76375   1.054   6.158   5.305 -0.3828  0.3021  0.0074
18643WAT      O76376  -0.231   8.961   6.027  0.8074  0.1799  0.4927
18643WAT     H176377  -0.234   8.900   6.101 -1.9492 -2.0160 -1.2307
18643WAT     H276378  -0.143   8.948   5.990  1.8375  0.5251  2.6472
18643WAT    EPW76379  -0.220   8.951   6.032  0.5796 -0.0644  0.5496
18644WAT      O76380  -4.884   9.848   5.000  0.1723 -0.0551  0.1383
18644WAT     H176381  -4.807   9.852   4.942  0.6789  0.5056  0.8313
18644WAT     H276382  -4.954   9.813   4.944  0.9106 -0.5190 -0.5225
18644WAT    EPW76383  -4.883   9.844   4.985  0.3364 -0.0420  0.1423
18645WAT      O76384  -3.294   7.866   3.624  0.8578 -0.0138 -0.0184
18645WAT     H176385  -3.258   7.939   3.574  0.6182  0.3132  0.2830
18645WAT     H276386  -3.218   7.825   3.666  0.8225  1.0656  1.1405
18645WAT    EPW76387  -3.279   7.870   3.623  0.8215  0.1717  0.1743
18646WAT      O76388   3.017  10.362   6.060  1.1853  0.0891  0.2558
18646WAT     H176389   3.076  10.319   6.122  0.5530 -1.1610  0.0261
18646WAT     H276390   2.970  10.290   6.018 -0.5737  1.0433  0.4973
18646WAT    EPW76391   3.019  10.346   6.062  0.8699  0.0505  0.2575
18647WAT      O76392   3.943   3.028   7.275  0.3837 -0.0018  0.1805
18647WAT     H176393   3.874   3.087   7.245  2.4410  2.6506  0.3026
18647WAT     H276394   3.932   3.025   7.371 -1.4939 -2.3097 -0.0161
18647WAT    EPW76395   3.933   3.035   7.284  0.4075  0.0436  0.1707
18648WAT      O76396  -1.368   4.115   6.096 -0.8001 -0.5354  0.2846
18648WAT     H176397  -1.409   4.150   6.175 -2.6392  0.1893 -0.9406
18648WAT     H276398  -1.331   4.031   6.124 -1.7836 -0.5092  1.8122
18648WAT    EPW76399  -1.368   4.109   6.110 -1.1723 -0.4361  0.3245
18649WAT      O76400  -0.645   3.947   4.240  0.0937 -0.0532 -0.2873
18649WAT     H176401  -0.713   3.910   4.296 -1.3483  0.7403 -1.4339
18649WAT     H276402  -0.661   4.041   4.242  1.2118  0.1581 -0.5357
18649WAT    EPW76403  -0.656   3.954   4.247  0.0510  0.0794 -0.4711
18650WAT      O76404   3.661   6.536   4.975  0.1216  0.2092 -0.4211
18650WAT     H176405   3.704   6.542   4.890  0.4673 -0.2601 -0.2868
18650WAT     H276406   3.711   6.593   5.033 -0.1026  0.5144 -0.5259
18650WAT    EPW76407   3.673   6.544   4.971  0.1377  0.1876 -0.4172
18651WAT      O76408  -2.395   2.457   5.405 -0.4476 -0.2930 -0.1703
18651WAT     H176409  -2.321   2.454   5.344 -1.3423  0.4041 -1.3313
18651WAT     H276410  -2.416   2.365   5.421 -0.5717 -0.4990 -1.4082
18651WAT    EPW76411  -2.388   2.444   5.399 -0.5819 -0.2283 -0.4869
18652WAT      O76412   1.402   3.057   4.688  0.2869  0.6407 -0.5231
18652WAT     H176413   1.393   3.004   4.608  0.4200 -0.3206  0.0839
18652WAT     H276414   1.497   3.061   4.702  0.3541  1.9786 -1.1553
18652WAT    EPW76415   1.414   3.051   4.679  0.3133  0.6903 -0.5267
18653WAT      O76416   0.711   7.821   5.098 -0.6505  0.1347 -0.1093
18653WAT     H176417   0.738   7.797   5.010  0.0972  1.0701 -0.1561
18653WAT     H276418   0.769   7.772   5.156 -0.7207  0.0021 -0.1519
18653WAT    EPW76419   0.722   7.812   5.094 -0.5611  0.2406 -0.1209
18654WAT      O76420   2.180   5.488   5.778 -0.4621  0.0414  0.6953
18654WAT     H176421   2.128   5.495   5.858 -1.8874 -0.4281 -0.1464
18654WAT     H276422   2.134   5.423   5.725 -0.5216  1.5284 -1.1815
18654WAT    EPW76423   2.167   5.481   5.782 -0.6579  0.1757  0.3369
18655WAT      O76424  -0.387   4.917   2.427 -0.6539  0.0025 -0.3173
18655WAT     H176425  -0.377   5.002   2.469 -0.4088  1.4739 -3.1184
18655WAT     H276426  -0.452   4.932   2.358  0.4191 -1.6651 -1.7954
18655WAT    EPW76427  -0.394   4.930   2.423 -0.4801 -0.0234 -0.8818
18656WAT      O76428  -0.474   0.437   1.843  0.0721  0.2657 -0.3908
18656WAT     H176429  -0.472   0.487   1.924 -0.4347 -0.4054  0.0511
18656WAT     H276430  -0.463   0.502   1.774  0.5371  0.8395  0.2162
18656WAT    EPW76431  -0.472   0.452   1.845  0.0666  0.2528 -0.2524
18657WAT      O76432   4.187   0.614   2.268  0.4864  0.8022  0.1580
18657WAT     H176433   4.235   0.690   2.301 -0.1635  0.1926  2.7424
18657WAT     H276434   4.203   0.615   2.174  0.5383  4.1140  0.0640
18657WAT    EPW76435   4.195   0.624   2.260  0.4075  1.1586  0.4864
18658WAT      O76436  -3.967   0.574   6.833  0.2572 -0.0718  0.2894
18658WAT     H176437  -3.883   0.606   6.799 -0.1346  1.6288  0.8050
18658WAT     H276438  -3.987   0.633   6.906 -1.7877  0.1057 -0.3484
18658WAT    EPW76439  -3.959   0.586   6.838 -0.0643  0.1759  0.2732
18659WAT      O76440  -4.567   1.538   7.411  0.2517  0.2314  0.1272
18659WAT     H176441  -4.496   1.474   7.412 -2.6684 -3.3874  1.4106
18659WAT     H276442  -4.548   1.595   7.337  3.0328 -2.2433 -1.2526
18659WAT    EPW76443  -4.555   1.537   7.402  0.2334 -0.5723  0.1144
18660WAT      O76444   1.815   8.718   6.403 -0.6319  0.3123  0.4658
18660WAT     H176445   1.855   8.658   6.466  0.6216 -0.1915 -0.7641
18660WAT     H276446   1.885   8.779   6.380 -0.0652 -1.2943 -2.6078
18660WAT    EPW76447   1.829   8.718   6.409 -0.3918  0.0339 -0.1018
18661WAT      O76448   8.311   2.964   2.205 -0.3564  0.5397  0.6907
18661WAT     H176449   8.259   2.896   2.161  1.0645 -0.3726  0.3522
18661WAT     H276450   8.255   3.041   2.205 -1.9683 -0.5750  0.9302
18661WAT    EPW76451   8.296   2.965   2.199 -0.3815  0.2724  0.6776
18662WAT      O76452  -1.496   4.754   6.403  0.1771  0.2468 -0.0407
18662WAT     H176453  -1.488   4.828   6.463  1.4442 -1.6537  2.2618
18662WAT     H276454  -1.424   4.767   6.340  0.9168  0.5487  0.8468
18662WAT    EPW76455  -1.486   4.766   6.402  0.4418  0.0362  0.3798
18663WAT      O76456   1.688   0.330   7.710 -0.1745 -0.0405 -0.1878
18663WAT     H176457   1.611   0.321   7.766  1.0474  0.4695  1.7001
18663WAT     H276458   1.661   0.297   7.625 -2.3402 -0.2360  0.5239
18663WAT    EPW76459   1.675   0.324   7.706 -0.2989  0.0010  0.1552
18664WAT      O76460  -0.418   3.059   5.131  0.1944  0.6327  0.0811
18664WAT     H176461  -0.475   2.983   5.128  1.2817 -0.2562  1.1957
18664WAT     H276462  -0.477   3.134   5.118 -0.9314 -0.3536 -0.6402
18664WAT    EPW76463  -0.434   3.059   5.129  0.1893  0.3854  0.1328
18665WAT      O76464   2.467   9.567   2.156 -0.2008 -0.6478 -0.0127
18665WAT     H176465   2.473   9.486   2.106  1.8645 -0.4788 -0.1350
18665WAT     H276466   2.491   9.542   2.245 -0.8587 -0.3812  0.2492
18665WAT    EPW76467   2.471   9.553   2.161 -0.0150 -0.5898  0.0057
18666WAT      O76468   4.007   3.209   3.984 -0.2375 -0.2810 -0.3768
18666WAT     H176469   3.934   3.164   3.942 -0.2208  1.4316 -2.4279
18666WAT     H276470   3.991   3.302   3.965  0.9379  0.3886  1.6623
18666WAT    EPW76471   3.995   3.215   3.976 -0.0802  0.0331 -0.3784
18667WAT      O76472  -4.084   9.143   3.007 -0.4779  0.1404 -0.9601
18667WAT     H176473  -4.037   9.123   3.088 -1.0663  0.9069 -0.4200
18667WAT     H276474  -4.142   9.068   2.995 -2.3122  1.1885  0.7914
18667WAT    EPW76475  -4.086   9.130   3.016 -0.7975  0.3796 -0.6579
18668WAT      O76476   3.838   1.254   3.046  0.5593 -0.5819 -0.0651
18668WAT     H176477   3.827   1.159   3.039  1.7251 -0.7503  0.1421
18668WAT     H276478   3.829   1.286   2.957 -2.6655 -0.5106  0.1800
18668WAT    EPW76479   3.835   1.246   3.033  0.2878 -0.5947 -0.0054
18669WAT      O76480   5.527   6.193   1.705  1.1356 -0.0832 -0.0063
18669WAT     H176481   5.538   6.249   1.628  2.1138 -1.3424 -0.8426
18669WAT     H276482   5.454   6.231   1.753 -0.5961 -0.1581 -2.4052
18669WAT    EPW76483   5.519   6.205   1.701  1.0362 -0.2592 -0.4330
18670WAT      O76484   5.194   3.130   0.966  0.2658  0.0319  0.6267
18670WAT     H176485   5.238   3.047   0.982  1.7279  1.0023  1.9196
18670WAT     H276486   5.214   3.151   0.875 -0.0858 -0.9948  0.3063
18670WAT    EPW76487   5.203   3.122   0.956  0.4122  0.0244  0.7550
18671WAT      O76488   8.828   1.301   1.619 -0.2468 -0.2798 -0.3475
18671WAT     H176489   8.802   1.209   1.610  1.5974 -0.8617 -0.1455
18671WAT     H276490   8.871   1.322   1.536  1.1530 -0.2626  0.3519
18671WAT    EPW76491   8.830   1.291   1.607  0.1817 -0.3542 -0.2286
18672WAT      O76492  -0.017   7.278   6.118 -0.3972 -0.7006 -0.8022
18672WAT     H176493   0.074   7.308   6.111 -0.2442 -0.9377  0.0261
18672WAT     H276494  -0.037   7.286   6.211 -0.6388 -2.2903 -0.6813
18672WAT    EPW76495  -0.007   7.283   6.130 -0.4089 -0.9418 -0.6769
18673WAT      O76496   3.918   2.482   1.809 -0.3184 -0.5673  0.4608
18673WAT     H176497   3.905   2.571   1.841 -0.6831 -0.0554 -1.0101
18673WAT     H276498   3.984   2.491   1.740 -1.7070 -1.1115 -1.0021
18673WAT    EPW76499   3.925   2.495   1.804 -0.5496 -0.5716  0.0739
18674WAT      O76500  -1.438   6.312   0.329  0.3521 -0.7728 -0.1645
18674WAT     H176501  -1.485   6.378   0.277 -2.3569 -0.6182  2.2251
18674WAT     H276502  -1.488   6.307   0.411  2.6912 -3.1027  1.2471
18674WAT    EPW76503  -1.451   6.320   0.333  0.3033 -1.0600  0.3369
18675WAT      O76504  -4.552  10.268   6.977 -0.2167  0.2871 -0.2560
18675WAT     H176505  -4.636  10.284   6.934  0.7399  1.7992 -1.6511
18675WAT     H276506  -4.515  10.194   6.930 -0.2402  0.3816 -0.4244
18675WAT    EPW76507  -4.558  10.260   6.965 -0.0935  0.4992 -0.4621
18676WAT      O76508   1.866   5.246   4.720 -0.1421 -0.2993 -0.8827
18676WAT     H176509   1.945   5.213   4.676  0.0686  1.0603 -1.5812
18676WAT     H276510   1.899   5.294   4.796 -0.4371 -1.5342  0.0500
18676WAT    EPW76511   1.881   5.248   4.724 -0.1532 -0.2828 -0.8519
18677WAT      O76512   4.492   0.074   5.498 -0.6049 -0.0908 -0.3029
18677WAT     H176513   4.430   0.008   5.531 -1.4063  1.1319  0.7369
18677WAT     H276514   4.560   0.077   5.565 -0.3009 -0.2252 -0.6058
18677WAT    EPW76515   4.493   0.066   5.511 -0.6704  0.0527 -0.2058
18678WAT      O76516  -0.673   4.762   2.659 -0.3358 -0.4676 -0.0004
18678WAT     H176517  -0.664   4.796   2.748  1.3465 -0.1777 -0.2382
18678WAT     H276518  -0.620   4.682   2.660  3.6541  1.8380 -1.8302
18678WAT    EPW76519  -0.665   4.756   2.671  0.4124 -0.1252 -0.2730
18679WAT      O76520  -4.181   4.510   7.853  0.4320 -0.2687 -1.1015
18679WAT     H176521  -4.091   4.543   7.852  0.0284  0.8676 -1.3542
18679WAT     H276522  -4.190   4.464   7.770  0.1468  1.4319 -2.0460
18679WAT    EPW76523  -4.170   4.508   7.842  0.3412  0.1056 -1.2596
18680WAT      O76524   1.287   3.040   0.881 -0.4659 -0.3860  0.6609
18680WAT     H176525   1.300   2.969   0.944  1.7266 -2.7375 -2.1545
18680WAT     H276526   1.214   3.010   0.826 -1.8730  1.2856  1.5309
18680WAT    EPW76527   1.279   3.027   0.882 -0.3623 -0.4756  0.4043
18681WAT      O76528  -3.025   8.080   1.660  0.4644  0.2285 -0.0797
18681WAT     H176529  -3.019   8.172   1.687  0.0143  0.2288  0.0287
18681WAT     H276530  -2.938   8.045   1.677  0.5018  0.5107  0.3450
18681WAT    EPW76531  -3.013   8.088   1.666  0.4098  0.2661 -0.0094
18682WAT      O76532   5.213   2.964   2.574  0.3237 -0.3892 -0.2904
18682WAT     H176533   5.237   2.993   2.486 -0.8337  2.4260  0.2159
18682WAT     H276534   5.218   2.869   2.570 -1.7487 -0.5274 -4.0877
18682WAT    EPW76535   5.217   2.955   2.562 -0.1023 -0.0361 -0.7244
18683WAT      O76536   4.753   7.629   2.415 -0.1246 -0.5232  0.4622
18683WAT     H176537   4.709   7.549   2.389  1.0045 -0.0400 -3.5694
18683WAT     H276538   4.684   7.695   2.418 -0.4709 -0.8212 -0.5924
18683WAT    EPW76539   4.738   7.627   2.412 -0.0215 -0.4990 -0.2086
18684WAT      O76540  -4.194   7.900   7.329 -0.7943  0.0151  0.0894
18684WAT     H176541  -4.195   7.941   7.416  5.6593 -0.8870  1.0883
18684WAT     H276542  -4.158   7.967   7.271 -1.4141 -0.6231 -1.0831
18684WAT    EPW76543  -4.190   7.914   7.333 -0.0250 -0.1879  0.0665
18685WAT      O76544   1.185   8.821   3.314 -0.0036  1.1219 -0.8408
18685WAT     H176545   1.236   8.861   3.244  1.2383 -1.5174 -1.5883
18685WAT     H276546   1.252   8.786   3.374 -1.0297  1.4156  0.5162
18685WAT    EPW76547   1.201   8.822   3.313  0.0249  0.8130 -0.7606
18686WAT      O76548  -0.823  10.313   4.591 -0.2351  0.2712  0.0328
18686WAT     H176549  -0.866  10.251   4.651 -3.3313  0.6779 -1.5364
18686WAT     H276550  -0.824  10.268   4.507  1.3554  0.8478 -0.3069
18686WAT    EPW76551  -0.829  10.299   4.588 -0.4337  0.4010 -0.2189
18687WAT      O76552   4.140   4.125   7.173 -1.0034  1.0547 -0.3381
18687WAT     H176553   4.138   4.068   7.250  2.2566  0.8421 -0.2758
18687WAT     H276554   4.129   4.214   7.209  0.5989  0.9715  0.4543
18687WAT    EPW76555   4.138   4.129   7.188 -0.3619  1.0157 -0.2253
18688WAT      O76556   8.990   2.828   0.206  0.4455 -0.4473  0.4928
18688WAT     H176557   8.933   2.882   0.262  1.0600  1.1819 -0.3887
18688WAT     H276558   9.078   2.858   0.226  0.6039  1.2797 -2.3866
18688WAT    EPW76559   8.994   2.839   0.216  0.5474 -0.0046 -0.0033
18689WAT      O76560   2.510   7.914   7.066  0.1197 -0.5156  0.1062
18689WAT     H176561   2.591   7.965   7.065 -0.0759  0.0108  2.5401
18689WAT     H276562   2.515   7.859   6.988  3.4196 -1.4004  0.7510
18689WAT    EPW76563   2.522   7.914   7.056  0.5292 -0.5627  0.5121
18690WAT      O76564  -0.631   1.841   6.604  0.1989 -0.5228 -0.0119
18690WAT     H176565  -0.675   1.774   6.656  0.3166  0.4261  1.3656
18690WAT     H276566  -0.603   1.795   6.524 -0.6358 -1.8425  0.4203
18690WAT    EPW76567  -0.633   1.826   6.600  0.1043 -0.5717  0.2270
18691WAT      O76568  -0.058   9.653   0.821 -0.2849 -0.0614 -0.1602
18691WAT     H176569  -0.139   9.673   0.774 -1.4827 -3.2445  0.3126
18691WAT     H276570  -0.087   9.626   0.908  1.1724 -2.1677 -0.2701
18691WAT    EPW76571  -0.073   9.652   0.826 -0.2506 -0.7591 -0.1124
18692WAT      O76572   3.898   1.338   3.777 -0.7368  0.3310 -0.6888
18692WAT     H176573   3.914   1.359   3.685 -0.6679  1.9299 -0.3401
18692WAT     H276574   3.854   1.253   3.775  1.6231 -0.9622 -2.0395
18692WAT    EPW76575   3.894   1.330   3.765 -0.4166  0.3713 -0.8210
18693WAT      O76576  -0.597   4.318   7.582 -0.0534  0.5901  0.9040
18693WAT     H176577  -0.510   4.280   7.568 -1.6920 -2.9508 -0.9001
18693WAT     H276578  -0.620   4.358   7.498 -1.1876 -0.9759  0.4228
18693WAT    EPW76579  -0.589   4.319   7.569 -0.4191 -0.0834  0.6025
18694WAT      O76580  -2.505   9.916   0.609 -0.6886 -0.5985  0.1738
18694WAT     H176581  -2.427   9.903   0.664 -2.0721 -0.6329  2.2550
18694WAT     H276582  -2.490  10.000   0.566  0.4590 -0.5660  0.5783
18694WAT    EPW76583  -2.492   9.925   0.611 -0.7198 -0.5984  0.5016
18695WAT      O76584   6.833   1.402   2.777  0.6509  0.0325  0.0347
18695WAT     H176585   6.820   1.491   2.743  1.5995  0.5046  0.8465
18695WAT     H276586   6.745   1.368   2.789  0.2573  1.0835  0.2406
18695WAT    EPW76587   6.820   1.409   2.774  0.7241  0.2334  0.1688
18696WAT      O76588  -4.155   9.705   2.788 -0.1077  0.3050 -0.3783
18696WAT     H176589  -4.212   9.752   2.727  0.9350  1.0651 -0.7901
18696WAT     H276590  -4.144   9.619   2.749 -0.1080  0.5141 -0.8434
18696WAT    EPW76591  -4.161   9.700   2.775  0.0298  0.4330 -0.4940
18697WAT      O76592   2.835   7.632   2.805 -0.3585 -0.0579  0.0563
18697WAT     H176593   2.835   7.685   2.725 -0.6350  1.0716  0.7865
18697WAT     H276594   2.920   7.650   2.845 -0.1426 -0.7707 -0.0545
18697WAT    EPW76595   2.846   7.641   2.799 -0.3666 -0.0026  0.1379
18698WAT      O76596  -1.563   0.716   2.570  0.2719  0.2802 -0.3319
18698WAT     H176597  -1.502   0.744   2.502 -0.0719  0.4290 -0.5861
18698WAT     H276598  -1.541   0.769   2.647  1.5275 -0.8116  0.0948
18698WAT    EPW76599  -1.552   0.727   2.571  0.3922  0.1558 -0.3091
18699WAT      O76600   3.270   7.870   0.610  0.2918 -0.0267  0.3533
18699WAT     H176601   3.262   7.778   0.582 -1.1747  0.2399 -0.2310
18699WAT     H276602   3.289   7.917   0.529 -1.7340  0.4843  0.1172
18699WAT    EPW76603   3.271   7.864   0.596 -0.1688  0.0761  0.2451
18700WAT      O76604   3.902   8.592   1.062 -0.4331 -0.2270  0.7303
18700WAT     H176605   3.915   8.508   1.018  2.1434  0.3001  0.3124
18700WAT     H276606   3.815   8.620   1.035  0.9420  0.1431 -4.3436
18700WAT    EPW76607   3.893   8.585   1.053  0.0881 -0.1087  0.0060
18701WAT      O76608   1.284   9.237   1.601  0.1815  0.1441 -0.0972
18701WAT     H176609   1.273   9.194   1.516  1.3040  0.5626 -0.4736
18701WAT     H276610   1.197   9.271   1.623  0.1397  1.1831 -1.7186
18701WAT    EPW76611   1.271   9.236   1.593  0.3241  0.3362 -0.3607
18702WAT      O76612   8.887   2.185   0.075 -0.3747 -0.2426  0.1704
18702WAT     H176613   8.838   2.105   0.090  1.9141 -1.3066  3.2036
18702WAT     H276614   8.824   2.246   0.037 -3.5057 -2.0489  2.0360
18702WAT    EPW76615   8.873   2.183   0.072 -0.4859 -0.6211  0.8165
18703WAT      O76616   2.200   0.770   5.052  0.4256  0.0714 -0.2966
18703WAT     H176617   2.164   0.777   4.964 -0.4986  0.3530  0.0945
18703WAT     H276618   2.291   0.742   5.039 -0.0097 -0.9496 -1.2931
18703WAT    EPW76619   2.208   0.767   5.039  0.2462 -0.0261 -0.3762
18704WAT      O76620   1.305   5.033   7.638  0.0313  0.3043 -0.5567
18704WAT     H176621   1.372   5.055   7.573  0.3731 -0.9796 -0.6630
18704WAT     H276622   1.239   4.985   7.588 -0.4637  0.6516 -0.2443
18704WAT    EPW76623   1.305   5.030   7.623  0.0111  0.1807 -0.5295
18705WAT      O76624   3.615   4.199   8.912  0.7141 -0.0306 -0.5616
18705WAT     H176625   3.542   4.247   8.950  1.8039  0.5068  0.9650
18705WAT     H276626   3.685   4.208   8.976  1.1963 -3.0840 -0.4878
18705WAT    EPW76627   3.615   4.206   8.926  0.9215 -0.3624 -0.3505
18706WAT      O76628   3.164   0.882   6.170 -1.1258  0.8491  0.4802
18706WAT     H176629   3.093   0.946   6.168 -2.1513 -0.2448 -0.1956
18706WAT     H276630   3.226   0.916   6.233 -0.7122  3.4394 -1.1834
18706WAT    EPW76631   3.163   0.895   6.178 -1.2065  1.0465  0.1717
18707WAT      O76632  -0.464   8.756   4.026 -0.2974 -0.5539  0.0817
18707WAT     H176633  -0.516   8.836   4.031 -0.5103 -0.7242  0.5725
18707WAT     H276634  -0.528   8.687   4.013 -0.3690 -0.9783  2.3467
18707WAT    EPW76635  -0.479   8.757   4.025 -0.3349 -0.6323  0.4451
18708WAT      O76636   8.150   3.119   0.970  0.0189 -0.1023 -0.6905
18708WAT     H176637   8.081   3.099   1.033 -1.5532 -0.9037 -2.5666
18708WAT     H276638   8.223   3.063   0.997 -0.7111 -0.6257  0.2656
18708WAT    EPW76639   8.151   3.109   0.982 -0.2851 -0.2770 -0.8118
18709WAT      O76640  -2.911   8.880   4.290  0.2773  0.0245 -1.2916
18709WAT     H176641  -3.006   8.872   4.284  0.3506 -0.5829 -1.6847
18709WAT     H276642  -2.886   8.924   4.209  0.1444  2.0253 -0.3096
18709WAT    EPW76643  -2.920   8.885   4.279  0.2695  0.2084 -1.2140
18710WAT      O76644   3.871   8.874   1.310 -1.0554 -0.5966  0.0761
18710WAT     H176645   3.883   8.780   1.326  0.3326 -1.4251 -4.3836
18710WAT     H276646   3.914   8.917   1.384  0.5106 -3.4838  0.9890
18710WAT    EPW76647   3.878   8.867   1.322 -0.6659 -1.0867 -0.3917
18711WAT      O76648   0.421   5.190   4.064 -0.0864 -0.0646  0.6200
18711WAT     H176649   0.485   5.129   4.029 -0.7248 -1.0706  1.1697
18711WAT     H276650   0.402   5.157   4.152 -0.4190  0.9471  0.9408
18711WAT    EPW76651   0.427   5.178   4.071 -0.2145 -0.0639  0.7350
18712WAT      O76652  -1.346   8.594   5.505 -0.2791  0.1484  0.1403
18712WAT     H176653  -1.302   8.509   5.508 -0.8505 -0.1302  1.2145
18712WAT     H276654  -1.439   8.572   5.513 -0.3804  0.9138  1.2860
18712WAT    EPW76655  -1.353   8.580   5.506 -0.3679  0.2127  0.4332
18713WAT      O76656  -4.802  10.121   2.438  0.0806 -0.2540  0.2229
18713WAT     H176657  -4.766  10.154   2.520 -0.5417  0.5415  0.1993
18713WAT     H276658  -4.891  10.157   2.436 -0.1361 -0.8191 -0.4810
18713WAT    EPW76659  -4.809  10.130   2.449 -0.0298 -0.2241  0.1270
18714WAT      O76660  -3.064   5.682   8.857 -0.2867 -0.0849  0.3364
18714WAT     H176661  -2.970   5.665   8.862  0.1028  1.7169 -0.0199
18714WAT     H276662  -3.105   5.597   8.875  1.4014 -1.2156 -0.8664
18714WAT    EPW76663  -3.057   5.669   8.860 -0.0128  0.0038  0.1307
18715WAT      O76664   1.499   7.305   7.851  0.4685  0.4090 -0.7691
18715WAT     H176665   1.415   7.258   7.852  1.3318 -1.1967  0.0338
18715WAT     H276666   1.544   7.273   7.773  1.2503 -0.4994  0.0289
18715WAT    EPW76667   1.494   7.295   7.841  0.6855  0.0775 -0.5579
18716WAT      O76668   1.876   4.640   6.770  0.0302 -0.0168  0.2229
18716WAT     H176669   1.827   4.700   6.714  0.6404  1.2215  0.9756
18716WAT     H276670   1.957   4.687   6.791  0.4981 -1.0778  0.8851
18716WAT    EPW76671   1.881   4.654   6.766  0.1725  0.0067  0.4094
18717WAT      O76672   1.679   8.778   8.375 -0.1073  0.0062 -0.3506
18717WAT     H176673   1.760   8.799   8.327  1.5879 -0.5519  2.0855
18717WAT     H276674   1.612   8.773   8.307  1.8363  0.7567 -2.4600
18717WAT    EPW76675   1.681   8.780   8.359  0.3726  0.0315 -0.3071
18718WAT      O76676   3.179   3.018   3.690  0.2795  0.1024 -0.2476
18718WAT     H176677   3.169   3.062   3.775  0.3148  0.7055 -0.5484
18718WAT     H276678   3.274   3.011   3.677  0.2815  0.6461 -0.5534
18718WAT    EPW76679   3.190   3.023   3.699  0.2844  0.2536 -0.3275
18719WAT      O76680   2.259   9.512   5.652  0.2780  0.6552  0.3244
18719WAT     H176681   2.282   9.420   5.640 -0.8980  0.5323 -1.4031
18719WAT     H276682   2.311   9.558   5.587 -1.8967  0.7143 -1.4907
18719WAT    EPW76683   2.269   9.506   5.642 -0.1639  0.6471 -0.1428
18720WAT      O76684   3.617   7.981   3.460  0.2906 -0.2229  0.1218
18720WAT     H176685   3.698   8.006   3.414 -0.0438 -1.7625 -1.4166
18720WAT     H276686   3.558   8.054   3.443  1.0352  0.4743  0.4320
18720WAT    EPW76687   3.620   7.994   3.452  0.3448 -0.3340 -0.0402
18721WAT      O76688   5.636   7.996   0.280  0.8083 -0.0513 -0.2942
18721WAT     H176689   5.694   8.072   0.274  0.9488 -0.2224 -1.5783
18721WAT     H276690   5.548   8.033   0.284  0.8640  0.1958 -1.1248
18721WAT    EPW76691   5.632   8.011   0.279  0.8345 -0.0410 -0.5731
18722WAT      O76692  -4.920   0.067   8.901 -0.6407 -0.2914 -0.3217
18722WAT     H176693  -4.887   0.019   8.976 -1.4296  1.0111  0.9045
18722WAT     H276694  -4.857   0.049   8.831  0.0724 -1.5820  0.6181
18722WAT    EPW76695  -4.908   0.058   8.901 -0.6509 -0.2898 -0.0358
18723WAT      O76696   1.459   0.100   5.491 -0.0138 -0.1044 -0.4321
18723WAT     H176697   1.394   0.168   5.478 -1.1419 -1.1016 -0.2487
18723WAT     H276698   1.490   0.113   5.581  0.5286  0.7779 -0.7453
18723WAT    EPW76699   1.455   0.110   5.501 -0.0910 -0.1195 -0.4492
18724WAT      O76700  -0.968   3.437   5.743  0.1415  0.5226  0.9212
18724WAT     H176701  -1.045   3.435   5.800 -2.1449 -0.1972 -1.9721
18724WAT     H276702  -0.955   3.346   5.718 -0.2388  1.0356 -1.2763
18724WAT    EPW76703  -0.977   3.425   5.748 -0.2102  0.4953  0.2496
18725WAT      O76704  -1.618   2.263   2.899 -0.4744 -0.5564 -0.2533
18725WAT     H176705  -1.534   2.221   2.885 -0.1176  0.0048  0.1499
18725WAT     H276706  -1.596   2.355   2.917 -1.2481 -0.1028 -1.4701
18725WAT    EPW76707  -1.604   2.270   2.899 -0.5294 -0.4226 -0.3606
18726WAT      O76708   2.425   1.228   2.776  0.5239 -0.0683 -0.1464
18726WAT     H176709   2.360   1.162   2.752  0.3524 -0.5833  1.6308
18726WAT     H276710   2.394   1.265   2.858  1.6388  0.8540 -0.1053
18726WAT    EPW76711   2.413   1.224   2.784  0.6484 -0.0145  0.0935
18727WAT      O76712   6.153   1.547   1.662 -0.5355  0.4903 -0.1086
18727WAT     H176713   6.169   1.552   1.757 -2.2903 -0.9515  0.3078
18727WAT     H276714   6.059   1.565   1.653 -0.3187  0.9613 -1.6281
18727WAT    EPW76715   6.143   1.550   1.673 -0.7381  0.3623 -0.2541
18728WAT      O76716  -6.356   5.922   6.963  0.0745  0.2881 -0.2515
18728WAT     H176717  -6.326   5.929   6.873 -0.6120 -0.9880 -0.6022
18728WAT     H276718  -6.275   5.918   7.015  0.4834  0.0346 -0.9021
18728WAT    EPW76719  -6.341   5.922   6.958  0.0381  0.0865 -0.3834
18729WAT      O76720   6.317   0.528   6.160  0.5670  0.3184  0.2784
18729WAT     H176721   6.344   0.554   6.248 -1.8597  1.4432  0.7815
18729WAT     H276722   6.288   0.609   6.119 -0.1405 -0.4714 -0.8606
18729WAT    EPW76723   6.316   0.542   6.166  0.1538  0.3625  0.1948
18730WAT      O76724   5.670   6.247   3.332 -0.4265 -0.4789 -0.1999
18730WAT     H176725   5.647   6.337   3.355  0.9819  0.2436 -1.4494
18730WAT     H276726   5.596   6.217   3.278 -0.2282  0.4673 -1.0214
18730WAT    EPW76727   5.657   6.255   3.328 -0.2143 -0.2587 -0.4730
18731WAT      O76728  -4.722   7.128   7.829  0.5031 -0.3517  0.3651
18731WAT     H176729  -4.794   7.176   7.871 -1.0587  0.2348 -2.6572
18731WAT     H276730  -4.731   7.039   7.861 -0.7093  0.0126  1.1160
18731WAT    EPW76731  -4.733   7.123   7.839  0.1373 -0.2263  0.0656
18732WAT      O76732   2.879   6.375   0.187 -0.9546  0.4326 -0.3170
18732WAT     H176733   2.866   6.358   0.094  1.8486 -0.4791 -0.6451
18732WAT     H276734   2.953   6.437   0.190 -1.7811  1.4302  1.3004
18732WAT    EPW76735   2.887   6.381   0.175 -0.6938  0.4439 -0.1470
18733WAT      O76736  -4.479   3.530   5.763 -0.5163 -0.3909  0.1905
18733WAT     H176737  -4.532   3.513   5.685 -0.0896 -4.7258  0.6316
18733WAT     H276738  -4.389   3.519   5.734 -0.1411  1.0100  0.7233
18733WAT    EPW76739  -4.474   3.526   5.749 -0.4103 -0.7778  0.3190
18734WAT      O76740  -3.218   4.582   4.492 -0.4577  0.4380 -0.6254
18734WAT     H176741  -3.297   4.527   4.493 -0.3753  0.2564 -1.8841
18734WAT     H276742  -3.236   4.651   4.556 -0.9813 -0.4830  0.2481
18734WAT    EPW76743  -3.231   4.584   4.501 -0.5159  0.2925 -0.6762
18735WAT      O76744  -1.240  10.189   3.199  0.5781 -0.1035  0.3784
18735WAT     H176745  -1.229  10.142   3.116 -1.4177  2.9283 -1.7939
18735WAT     H276746  -1.329  10.169   3.227 -0.1839  1.9440 -0.4038
18735WAT    EPW76747  -1.250  10.180   3.192  0.2144  0.5665 -0.0113
18736WAT      O76748   1.518   0.104   0.225  0.3980 -0.1586  0.4175
18736WAT     H176749   1.519   0.028   0.166 -1.4542 -0.7634  1.1003
18736WAT     H276750   1.572   0.169   0.180  0.4850 -1.2166 -1.1004
18736WAT    EPW76751   1.526   0.102   0.211  0.1652 -0.3779  0.3073
18737WAT      O76752   2.936   8.172   0.068 -0.0095  0.7333 -0.0228
18737WAT     H176753   2.867   8.110   0.095  0.6696 -0.5699 -1.1562
18737WAT     H276754   2.888   8.248   0.036 -0.8708  0.8167  1.3788
18737WAT    EPW76755   2.920   8.174   0.067 -0.0336  0.5722  0.0126
18738WAT      O76756   4.140   3.502   0.385  0.4971  0.4271 -0.1367
18738WAT     H176757   4.070   3.532   0.327  1.3968 -1.0352 -2.0428
18738WAT     H276758   4.170   3.583   0.428 -2.2779  1.1141  0.7639
18738WAT    EPW76759   4.135   3.517   0.383  0.2496  0.3247 -0.2693
18739WAT      O76760   6.283   0.291   5.360 -0.2523 -0.0093  0.3260
18739WAT     H176761   6.191   0.319   5.362 -0.3797 -0.4394  2.5374
18739WAT     H276762   6.279   0.196   5.369  0.4178 -0.0431  0.2653
18739WAT    EPW76763   6.270   0.282   5.361 -0.1805 -0.0705  0.6094
18740WAT      O76764   7.558   5.151   1.040 -0.3576 -0.0549  0.3882
18740WAT     H176765   7.580   5.229   1.090 -1.8877  0.3146  0.5174
18740WAT     H276766   7.588   5.170   0.951  1.5483 -0.3528  0.9266
18740WAT    EPW76767   7.565   5.164   1.035 -0.3078 -0.0453  0.4762
18741WAT      O76768  -0.550   2.295   7.975 -0.5546 -0.4107  0.2849
18741WAT     H176769  -0.488   2.259   8.038 -1.8319  0.7006  2.2751
18741WAT     H276770  -0.496   2.322   7.901  0.9304 -2.2371  0.6305
18741WAT    EPW76771  -0.535   2.293   7.973 -0.5272 -0.5051  0.5929
18742WAT      O76772   9.630   1.449   0.604 -0.1420  1.0555  0.5347
18742WAT     H176773   9.696   1.434   0.536  2.3233 -2.8580  3.3269
18742WAT     H276774   9.666   1.521   0.656 -0.7094  2.2776 -0.6948
18742WAT    EPW76775   9.644   1.456   0.602  0.1082  0.7006  0.7408
18743WAT      O76776  -0.964   1.247   5.899 -0.0668  0.0812  0.4138
18743WAT     H176777  -1.050   1.271   5.864  0.1099 -1.1541 -0.9717
18743WAT     H276778  -0.983   1.196   5.977 -0.5662  0.2080  0.3770
18743WAT    EPW76779  -0.978   1.244   5.905 -0.1094 -0.0650  0.2260
18744WAT      O76780  -0.323   2.230   3.290 -0.4277 -0.5811 -0.6306
18744WAT     H176781  -0.309   2.300   3.226 -0.9221 -0.7312 -0.9032
18744WAT     H276782  -0.255   2.245   3.356 -0.9811  0.5967 -0.2938
18744WAT    EPW76783  -0.312   2.241   3.290 -0.5659 -0.4456 -0.6222
18745WAT      O76784   4.831   0.851   8.240 -0.3473  0.7559 -0.3431
18745WAT     H176785   4.758   0.863   8.300 -0.9960 -0.1148 -0.9281
18745WAT     H276786   4.802   0.783   8.179  1.8871 -1.5059  0.9133
18745WAT    EPW76787   4.818   0.844   8.240 -0.1380  0.3428 -0.2551
18746WAT      O76788   2.968   5.947   1.706  0.1210  0.1290 -0.3613
18746WAT     H176789   3.049   5.896   1.703  0.6025  0.8878 -0.4471
18746WAT     H276790   2.917   5.914   1.631 -0.6311 -1.9051  0.9486
18746WAT    EPW76791   2.972   5.936   1.695  0.0854 -0.0391 -0.1998
18747WAT      O76792  -6.832   9.258   8.918 -0.0855 -0.0152  0.3330
18747WAT     H176793  -6.818   9.303   9.002  1.6606  0.2656 -0.0669
18747WAT     H276794  -6.744   9.240   8.886 -0.6646 -4.0107  0.5624
18747WAT    EPW76795  -6.818   9.262   8.925  0.0684 -0.5050  0.3104
18748WAT      O76796  -0.959   1.607   2.318  0.2755 -0.1055  0.1065
18748WAT     H176797  -0.957   1.615   2.223  0.9330  0.4732  0.1602
18748WAT     H276798  -0.868   1.618   2.345  0.0200  0.3128  0.8419
18748WAT    EPW76799  -0.947   1.610   2.309  0.3285  0.0260  0.2105
18749WAT      O76800   0.948   8.063   1.397 -0.0189 -1.1951  0.2403
18749WAT     H176801   0.948   8.079   1.303 -0.0940  1.4139  0.6219
18749WAT     H276802   0.859   8.082   1.425 -0.6744 -4.2050  0.6117
18749WAT    EPW76803   0.937   8.067   1.389 -0.1153 -1.2479  0.3397
18750WAT      O76804   2.183   9.983   5.019 -0.3576  0.7010 -0.0903
18750WAT     H176805   2.107   9.966   4.963  0.8879 -2.5667 -1.0000
18750WAT     H276806   2.146   9.994   5.107 -2.0395  1.9845 -0.9035
18750WAT    EPW76807   2.168   9.982   5.023 -0.4152  0.4392 -0.3176
18751WAT      O76808  -1.729   4.914   2.945  0.6848  0.2047 -0.0815
18751WAT     H176809  -1.740   4.979   3.014  1.4945  0.5789 -0.3022
18751WAT     H276810  -1.638   4.922   2.917  0.9526 -1.3775  0.2358
18751WAT    EPW76811  -1.719   4.923   2.950  0.8269  0.0453 -0.0688
18752WAT      O76812   7.444   0.571   2.533 -0.5219 -0.1945 -0.5327
18752WAT     H176813   7.471   0.597   2.621 -0.6423  1.9891 -1.0830
18752WAT     H276814   7.362   0.524   2.546 -0.5539  0.1320  0.5336
18752WAT    EPW76815   7.436   0.569   2.546 -0.5422  0.1366 -0.4647
18753WAT      O76816  -8.059   8.862   8.648 -0.1506  0.5461  0.3408
18753WAT     H176817  -8.108   8.787   8.682  2.1468 -1.7661 -1.0497
18753WAT     H276818  -8.120   8.906   8.589 -1.9436  0.5704  2.0823
18753WAT    EPW76819  -8.073   8.858   8.645 -0.0839  0.2446  0.3867
18754WAT      O76820   0.029   6.381   7.575  0.1196  0.6085 -0.8177
18754WAT     H176821  -0.038   6.332   7.529  0.2109 -1.2936  0.9362
18754WAT     H276822   0.112   6.343   7.546  0.1448 -2.0703  2.1729
18754WAT    EPW76823   0.031   6.370   7.565  0.1350  0.0043 -0.1919
18755WAT      O76824   6.712   3.579   1.388 -0.5460  0.3496 -0.0766
18755WAT     H176825   6.779   3.541   1.444 -2.1009  0.0143  1.6375
18755WAT     H276826   6.739   3.557   1.299 -0.0638 -2.6124  0.7035
18755WAT    EPW76827   6.724   3.571   1.383 -0.6874 -0.0854  0.2523
18756WAT      O76828   3.263   3.741   0.232  0.3724  0.1788  0.1193
18756WAT     H176829   3.236   3.660   0.275 -1.5053  0.6013 -0.1586
18756WAT     H276830   3.257   3.808   0.300 -0.9517  0.5581 -0.3459
18756WAT    EPW76831   3.258   3.739   0.246 -0.0499  0.2846  0.0213
18757WAT      O76832   4.147   3.195   5.091  0.0113 -0.9183 -0.0648
18757WAT     H176833   4.105   3.281   5.087  0.0080 -0.9307 -0.3714
18757WAT     H276834   4.076   3.135   5.113 -0.1008 -0.9170 -0.4161
18757WAT    EPW76835   4.132   3.199   5.093 -0.0036 -0.9198 -0.1516
18758WAT      O76836   3.069   1.124   1.960 -0.0504  0.8826 -0.1951
18758WAT     H176837   3.043   1.034   1.980 -0.4103  0.7428 -1.2477
18758WAT     H276838   2.986   1.173   1.956 -0.0079  0.8645 -1.4934
18758WAT    EPW76839   3.054   1.119   1.962 -0.0924  0.8618 -0.5053
18759WAT      O76840   5.839   9.622   0.341 -0.0862 -0.4847 -0.5724
18759WAT     H176841   5.868   9.706   0.305  0.3335 -1.1705 -1.8947
18759WAT     H276842   5.744   9.632   0.353  0.1992  0.7603  0.9760
18759WAT    EPW76843   5.830   9.634   0.338  0.0069 -0.4110 -0.5426
18760WAT      O76844  -1.859   7.894   1.633 -0.7905  0.2900  0.7597
18760WAT     H176845  -1.792   7.929   1.574  0.4881  1.1871  2.6589
18760WAT     H276846  -1.814   7.829   1.686 -1.7835 -0.1482  1.0931
18760WAT    EPW76847  -1.844   7.890   1.632 -0.7529  0.3507  1.0541
18761WAT      O76848  -2.327   4.354   8.792 -0.2775  0.4072 -0.0100
18761WAT     H176849  -2.296   4.444   8.800  2.1619 -0.2559 -0.9639
18761WAT     H276850  -2.377   4.354   8.711  0.2425  0.8066 -0.3431
18761WAT    EPW76851  -2.329   4.366   8.782  0.1129  0.3724 -0.1798
18762WAT      O76852  -1.358   4.512   4.036  0.4240 -0.6590  0.1653
18762WAT     H176853  -1.281   4.503   3.979 -0.3736  1.5906 -1.4423
18762WAT     H276854  -1.395   4.425   4.041  1.4079 -1.2134 -1.5186
18762WAT    EPW76855  -1.353   4.500   4.029  0.4486 -0.4354 -0.2687
18763WAT      O76856   0.679   9.390   2.020 -0.1805 -0.1291  0.3438
18763WAT     H176857   0.591   9.406   2.053 -0.2887 -0.5746  0.2829
18763WAT     H276858   0.710   9.475   1.992 -1.2774 -0.2282 -1.2994
18763WAT    EPW76859   0.671   9.403   2.021 -0.3394 -0.2007  0.1190
18764WAT      O76860   8.452   1.484   1.049  0.3416 -0.1054 -0.2887
18764WAT     H176861   8.408   1.568   1.055  0.8939  0.2501 -1.0734
18764WAT     H276862   8.423   1.436   1.127  0.4663  1.0163  0.4677
18764WAT    EPW76863   8.443   1.489   1.060  0.4311  0.0895 -0.2924
18765WAT      O76864   1.301   7.844   6.825 -0.5749  0.0188 -0.2654
18765WAT     H176865   1.377   7.887   6.866 -0.6828 -0.6859  0.6849
18765WAT     H276866   1.335   7.810   6.742 -0.2448  1.0689 -0.5775
18765WAT    EPW76867   1.316   7.845   6.819 -0.5456  0.0644 -0.1812
18766WAT      O76868  -3.934   8.647   3.403 -0.5903  0.0906  0.4739
18766WAT     H176869  -3.907   8.729   3.443  2.0076 -0.4375 -0.0122
18766WAT     H276870  -3.884   8.580   3.449 -3.5304 -1.4629  1.6908
18766WAT    EPW76871  -3.924   8.649   3.414 -0.6354 -0.1836  0.5703
18767WAT      O76872  -2.496   1.942   3.415 -0.3241  0.3655  0.3262
18767WAT     H176873  -2.501   1.869   3.353 -0.1275  0.2775  0.4130
18767WAT     H276874  -2.430   2.000   3.379 -1.2537  1.0506 -0.3185
18767WAT    EPW76875  -2.488   1.940   3.402 -0.4207  0.4443  0.2526
18768WAT      O76876   5.371   4.287   0.755  0.2310 -0.0024 -0.5172
18768WAT     H176877   5.376   4.381   0.774 -2.8440  0.2151 -0.4011
18768WAT     H276878   5.373   4.246   0.841 -0.3622  0.1023 -0.4495
18768WAT    EPW76879   5.372   4.294   0.769 -0.2527  0.0401 -0.4930
18769WAT      O76880   0.681  10.255   4.600 -0.6614  0.8521 -0.6428
18769WAT     H176881   0.777  10.252   4.602 -0.6539  1.0794 -0.6216
18769WAT     H276882   0.653  10.175   4.644 -0.4601 -0.9740 -3.5598
18769WAT    EPW76883   0.690  10.244   4.606 -0.6339  0.6409 -1.0247
18770WAT      O76884   3.461  10.123   3.144  0.1182  0.4753 -0.6447
18770WAT     H176885   3.552  10.118   3.175  0.2189  2.2991 -0.5531
18770WAT     H276886   3.414  10.163   3.217 -1.6404 -3.8222  0.9232
18770WAT    EPW76887   3.467  10.127   3.158 -0.1005  0.1493 -0.4258
18771WAT      O76888  -6.473  10.365   7.818 -0.0617  0.6336 -0.1452
18771WAT     H176889  -6.499  10.346   7.907  1.3420  0.3873  0.2470
18771WAT     H276890  -6.414  10.293   7.794  0.0228  0.9863 -1.0647
18771WAT    EPW76891  -6.468  10.353   7.826  0.1345  0.6475 -0.2146
18772WAT      O76892   6.904   1.286   4.674  0.2101  0.3410 -0.2663
18772WAT     H176893   6.939   1.332   4.597 -0.9228  0.8068 -0.5161
18772WAT     H276894   6.861   1.209   4.638 -1.6523  1.3367 -0.2834
18772WAT    EPW76895   6.903   1.282   4.659 -0.1850  0.5338 -0.3014
18773WAT      O76896  -2.596   3.756   4.164 -0.0349  0.0410  0.9279
18773WAT     H176897  -2.576   3.843   4.198 -0.9300  0.4116  0.5609
18773WAT     H276898  -2.668   3.771   4.102  1.6604 -0.5487 -1.3459
18773WAT    EPW76899  -2.603   3.769   4.160  0.0707  0.0122  0.5796
18774WAT      O76900  -2.627   9.747   5.152  0.3919  0.0387 -0.2379
18774WAT     H176901  -2.532   9.761   5.150  0.1235  2.1026 -0.2236
18774WAT     H276902  -2.654   9.753   5.060  0.6765 -4.4998 -0.8523
18774WAT    EPW76903  -2.618   9.749   5.139  0.3941 -0.2875 -0.3171
18775WAT      O76904  -2.793   8.887   5.110  0.5381 -0.0323  0.1357
18775WAT     H176905  -2.826   8.811   5.158  0.4170 -0.6330 -0.8764
18775WAT     H276906  -2.868   8.946   5.102 -0.0731 -0.9856 -1.3603
18775WAT    EPW76907  -2.807   8.885   5.115  0.4414 -0.2375 -0.1953
18776WAT      O76908   0.574   6.715   3.967  0.0885 -0.1069  0.0866
18776WAT     H176909   0.586   6.629   4.007 -0.9590  0.2280  1.1576
18776WAT     H276910   0.543   6.696   3.878 -2.3879 -0.8521  1.0419
18776WAT    EPW76911   0.572   6.701   3.960 -0.3763 -0.1609  0.3539
18777WAT      O76912  -2.975   2.780   3.920  0.0587 -0.2254  0.0261
18777WAT     H176913  -3.044   2.735   3.871 -0.9725  0.6534  0.6349
18777WAT     H276914  -2.947   2.850   3.863  0.9144 -0.9641 -0.4824
18777WAT    EPW76915  -2.980   2.783   3.906  0.0356 -0.2069  0.0392
18778WAT      O76916  -0.290   6.110   7.616 -0.0650 -0.2003 -0.0653
18778WAT     H176917  -0.277   6.204   7.606 -1.2929  0.0235  0.3371
18778WAT     H276918  -0.220   6.071   7.564 -1.2073  0.9150 -2.5913
18778WAT    EPW76919  -0.279   6.117   7.608 -0.3776 -0.0236 -0.3455
18779WAT      O76920   1.436   6.627   5.841  0.0286 -0.3738  0.3396
18779WAT     H176921   1.505   6.669   5.790  0.5770 -0.5229  0.9428
18779WAT     H276922   1.377   6.590   5.776  0.0548  0.4860 -0.1943
18779WAT    EPW76923   1.437   6.628   5.826  0.1044 -0.2801  0.3488
18780WAT      O76924   0.379   2.223   8.901 -0.7291 -0.3910  0.7058
18780WAT     H176925   0.317   2.266   8.960 -2.5924  1.0679 -2.0621
18780WAT     H276926   0.344   2.240   8.813  1.6788 -2.6671 -0.8622
18780WAT    EPW76927   0.366   2.231   8.897 -0.6572 -0.4988  0.1335
18781WAT      O76928   2.096   2.228   6.313 -0.8890 -0.0874 -0.4145
18781WAT     H176929   2.071   2.282   6.388 -0.9955 -0.0023 -0.5107
18781WAT     H276930   2.026   2.242   6.249 -0.8839 -0.2910 -0.4642
18781WAT    EPW76931   2.083   2.237   6.315 -0.9023 -0.1031 -0.4334
18782WAT      O76932   7.798   5.068   2.015  0.0313 -0.3285 -0.2508
18782WAT     H176933   7.814   5.127   2.088  1.9901  0.5055 -1.2585
18782WAT     H276934   7.855   4.993   2.032  0.2339 -0.2878 -0.7373
18782WAT    EPW76935   7.808   5.066   2.027  0.3164 -0.2131 -0.4480
18783WAT      O76936   1.390   6.663   0.286  0.1340  0.0765 -0.3952
18783WAT     H176937   1.312   6.690   0.238  1.1541  1.1984 -1.4824
18783WAT     H276938   1.384   6.709   0.370  0.2599  1.1712 -0.9830
18783WAT    EPW76939   1.379   6.672   0.291  0.2851  0.3688 -0.6161
18784WAT      O76940   6.384   3.417   3.807 -0.5405  0.1606  0.3185
18784WAT     H176941   6.376   3.455   3.719  1.8415  0.5709  0.2266
18784WAT     H276942   6.331   3.475   3.862 -1.8666  0.0457 -0.7602
18784WAT    EPW76943   6.376   3.429   3.802 -0.4010  0.1997  0.1640
18785WAT      O76944   3.265   9.282   3.898  0.6505 -0.5183 -0.3899
18785WAT     H176945   3.266   9.195   3.938  2.4030 -0.3511  0.0148
18785WAT     H276946   3.295   9.267   3.808  0.2238 -0.4278 -0.5479
18785WAT    EPW76947   3.269   9.268   3.891  0.8254 -0.4845 -0.3574
18786WAT      O76948  -4.350   4.483   6.927 -0.5344  0.1404 -0.5859
18786WAT     H176949  -4.345   4.439   6.842 -2.2373 -1.5317  0.1127
18786WAT     H276950  -4.428   4.539   6.920 -1.1508 -0.6047  0.1041
18786WAT    EPW76951  -4.360   4.485   6.915 -0.8402 -0.1783 -0.4029
18787WAT      O76952  -6.813   6.844   8.124  0.6014 -0.1377  0.0568
18787WAT     H176953  -6.876   6.784   8.084  0.8446  0.1126 -0.7127
18787WAT     H276954  -6.745   6.787   8.161  0.0096 -0.4027  0.7689
18787WAT    EPW76955  -6.812   6.829   8.124  0.5555 -0.1397  0.0491
18788WAT      O76956  -0.392   3.718   7.443 -0.7897 -0.0680 -1.1069
18788WAT     H176957  -0.332   3.790   7.427  0.1225 -0.9714 -1.9109
18788WAT     H276958  -0.364   3.649   7.382  0.0975 -2.1037  1.4163
18788WAT    EPW76959  -0.381   3.718   7.433 -0.5524 -0.4556 -0.8800
18789WAT      O76960  -5.725   4.238   7.381 -0.4774  0.2999 -0.1308
18789WAT     H176961  -5.743   4.326   7.349 -0.1040  0.7895  0.9704
18789WAT     H276962  -5.751   4.181   7.309  0.3640  1.3619 -1.3106
18789WAT    EPW76963  -5.731   4.242   7.367 -0.3171  0.5045 -0.1411
18790WAT      O76964   3.690   7.141   2.335 -0.8556 -0.0283  0.7410
18790WAT     H176965   3.777   7.179   2.327 -0.9002 -0.2342 -0.8903
18790WAT     H276966   3.702   7.067   2.395  0.5079 -1.1721 -0.8538
18790WAT    EPW76967   3.703   7.136   2.342 -0.6816 -0.2062  0.3155
18791WAT      O76968  -5.194   3.626   8.156 -0.3057 -0.4187  0.7069
18791WAT     H176969  -5.153   3.699   8.203  0.4534 -0.8097  0.6764
18791WAT     H276970  -5.172   3.549   8.209  0.3930 -0.8406 -0.1692
18791WAT    EPW76971  -5.185   3.626   8.169 -0.1132 -0.5260  0.5870
18792WAT      O76972   4.196   9.167   1.851  0.0318 -0.0481 -0.0836
18792WAT     H176973   4.284   9.188   1.820 -0.5038 -0.7802 -2.2966
18792WAT     H276974   4.149   9.251   1.850 -0.8975 -0.3656 -4.7634
18792WAT    EPW76975   4.201   9.181   1.847 -0.1614 -0.1864 -0.9928
18793WAT      O76976   4.856   0.962   3.651 -0.2388 -0.0073  0.7046
18793WAT     H176977   4.920   0.922   3.592 -0.2452  1.0127 -0.0234
18793WAT     H276978   4.888   0.942   3.739  0.2815 -0.7499  0.3498
18793WAT    EPW76979   4.869   0.954   3.655 -0.1712  0.0293  0.5618
18794WAT      O76980   5.339   3.559   0.175  0.0012  0.5696  0.4591
18794WAT     H176981   5.308   3.595   0.091  0.5194  0.0778  0.0533
18794WAT     H276982   5.259   3.550   0.227 -0.5381 -0.5023 -0.5132
18794WAT    EPW76983   5.324   3.563   0.171 -0.0014  0.3633  0.2774
18795WAT      O76984   1.580   8.108   4.236 -0.0725 -0.5593  0.2324
18795WAT     H176985   1.526   8.098   4.158 -0.1728  1.3330  0.0083
18795WAT     H276986   1.517   8.109   4.309  0.0457 -2.6593  0.4212
18795WAT    EPW76987   1.564   8.107   4.236 -0.0702 -0.5870  0.2277
18796WAT      O76988   5.549   3.200   5.428 -0.0645  0.4969  0.4745
18796WAT     H176989   5.604   3.137   5.475  0.1719  2.1786  2.6284
18796WAT     H276990   5.464   3.157   5.420 -0.1719  0.1807  2.7152
18796WAT    EPW76991   5.545   3.186   5.433 -0.0474  0.6770  1.0540
18797WAT      O76992   0.939   8.270   7.157  0.0634  0.0805  0.0225
18797WAT     H176993   0.891   8.318   7.089  0.8931 -2.9046 -2.9651
18797WAT     H276994   1.005   8.332   7.188 -1.9708  2.3917  0.0134
18797WAT    EPW76995   0.941   8.285   7.152 -0.0955 -0.0081 -0.3729
18798WAT      O76996  -3.168   1.061   5.094  0.2382  0.3752  0.3671
18798WAT     H176997  -3.077   1.088   5.082 -1.0581  4.5439 -2.1173
18798WAT     H276998  -3.202   1.121   5.160 -1.5410  1.6695 -1.5836
18798WAT    EPW76999  -3.161   1.072   5.101 -0.1674  1.0958 -0.2177
18799WAT      O77000  -0.616   6.668   8.378 -0.2371  0.5910  0.2099
18799WAT     H177001  -0.643   6.719   8.301 -0.7623  0.3966  0.2610
18799WAT     H277002  -0.694   6.666   8.433 -0.5214 -1.0396 -0.2019
18799WAT    EPW77003  -0.630   6.675   8.375 -0.3439  0.3502  0.1621
18800WAT      O77004  -3.111   8.387   8.971  0.2646 -0.1217  0.4576
18800WAT     H177005  -3.063   8.321   8.921 -0.1747  0.5307 -0.8632
18800WAT     H277006  -3.042   8.443   9.008  0.5969 -0.6846  0.7010
18800WAT    EPW77007  -3.095   8.386   8.969  0.2506 -0.1097  0.3157
18801WAT      O77008   4.770   8.801   1.121 -0.4705 -0.0645 -0.4073
18801WAT     H177009   4.851   8.759   1.092 -0.3908  0.7702 -1.4316
18801WAT     H277010   4.701   8.749   1.079 -0.3765  0.6686 -1.5138
18801WAT    EPW77011   4.772   8.788   1.112 -0.4475  0.1426 -0.6883
18802WAT      O77012   0.238   3.115   6.659 -0.4410  0.4125  0.2994
18802WAT     H177013   0.301   3.055   6.699  0.0675 -0.8193 -2.1789
18802WAT     H277014   0.292   3.174   6.606 -1.2996 -0.5019 -1.6695
18802WAT    EPW77015   0.254   3.115   6.657 -0.4871  0.1293 -0.2871
18803WAT      O77016  -4.019   6.603   6.420  0.4875 -0.1336 -0.1835
18803WAT     H177017  -4.022   6.560   6.334 -1.0801 -0.6472  0.1096
18803WAT     H277018  -3.925   6.619   6.435  0.9698 -1.8769 -1.0750
18803WAT    EPW77019  -4.007   6.599   6.411  0.3445 -0.4313 -0.2625
18804WAT      O77020   5.074   3.199   1.252 -0.2811  0.5016 -0.0161
18804WAT     H177021   5.037   3.269   1.198  1.0977  1.8664  0.7048
18804WAT     H277022   5.132   3.151   1.193  0.4292  1.3475 -0.0359
18804WAT    EPW77023   5.077   3.202   1.237 -0.0055  0.7932  0.0764
18805WAT      O77024  -6.435   8.177   6.598 -0.0854 -0.0628  0.0090
18805WAT     H177025  -6.395   8.142   6.518 -1.8466 -0.7624 -0.6234
18805WAT     H277026  -6.364   8.176   6.663  0.8084 -1.6836 -0.9134
18805WAT    EPW77027  -6.420   8.172   6.596 -0.1998 -0.3686 -0.1960
18806WAT      O77028  -3.115   1.168   8.450  0.4089 -0.8758 -0.2251
18806WAT     H177029  -3.030   1.142   8.487  0.6374 -0.0016 -0.1174
18806WAT     H277030  -3.162   1.086   8.439  0.2146 -1.1625  2.2939
18806WAT    EPW77031  -3.110   1.154   8.453  0.4134 -0.7983  0.1211
18807WAT      O77032   0.166   6.998   6.011  0.0225 -0.0439  0.6518
18807WAT     H177033   0.099   7.061   6.037 -0.8363 -0.8489  0.4281
18807WAT     H277034   0.247   7.032   6.050 -0.3308  1.4100  0.2088
18807WAT    EPW77035   0.168   7.011   6.019 -0.1374  0.0417  0.5639
18808WAT      O77036  -1.133   5.101   2.784  0.4072 -0.8574  0.8680
18808WAT     H177037  -1.169   5.013   2.773  1.2305 -1.2276  1.0288
18808WAT     H277038  -1.038   5.087   2.791  0.8895  0.2852 -2.0036
18808WAT    EPW77039  -1.125   5.088   2.784  0.5794 -0.7555  0.5106
18809WAT      O77040  -0.661   2.021   7.286  0.0074 -0.0733 -0.3650
18809WAT     H177041  -0.743   1.974   7.300  0.2094 -0.7329 -1.2593
18809WAT     H277042  -0.593   1.956   7.302  0.3235  0.2294 -0.4692
18809WAT    EPW77043  -0.663   2.006   7.290  0.0758 -0.1203 -0.4966
18810WAT      O77044  -3.694   0.398   7.343  0.2469  0.0250  0.4721
18810WAT     H177045  -3.753   0.336   7.387 -1.6676  2.8803  2.3011
18810WAT     H277046  -3.750   0.472   7.321  2.4405  1.2263 -1.4636
18810WAT    EPW77047  -3.710   0.399   7.346  0.2837  0.5600  0.4580
18811WAT      O77048   0.047  10.290   0.272 -0.7022  0.5765  0.8154
18811WAT     H177049   0.064  10.298   0.178  0.2079 -2.3060  0.6324
18811WAT     H277050  -0.041  10.252   0.277  0.1651 -1.5704  0.9330
18811WAT    EPW77051   0.037  10.286   0.260 -0.4677 -0.0868  0.8068
18812WAT      O77052   2.091   5.337   7.980  0.2072 -0.2570 -0.0250
18812WAT     H177053   2.029   5.366   7.913 -0.6811  0.2262  0.9797
18812WAT     H277054   2.106   5.244   7.960  0.1227 -0.0705 -1.0063
18812WAT    EPW77055   2.084   5.328   7.968  0.0789 -0.1686 -0.0217
18813WAT      O77056   2.031   2.984   3.738 -0.3745  0.1525 -0.4754
18813WAT     H177057   2.076   2.980   3.823  1.8890 -2.3282 -1.6618
18813WAT     H277058   2.079   3.051   3.689 -0.0155 -0.1961 -0.6150
18813WAT    EPW77059   2.044   2.992   3.743 -0.0286 -0.2207 -0.6504
18814WAT      O77060   4.111   4.620   8.351  0.2798 -0.1686 -0.1422
18814WAT     H177061   4.074   4.689   8.406 -2.3797 -1.2870 -0.4128
18814WAT     H277062   4.088   4.539   8.396  1.4795 -0.9820 -0.9426
18814WAT    EPW77063   4.103   4.618   8.365  0.0873 -0.4234 -0.2832
18815WAT      O77064   1.075   7.119   5.790 -0.4942  0.8574 -0.6151
18815WAT     H177065   1.046   7.074   5.710  1.5998 -0.5778 -0.6580
18815WAT     H277066   1.170   7.112   5.788 -0.3637  0.8455  1.9771
18815WAT    EPW77067   1.084   7.112   5.779 -0.2008  0.6666 -0.2789
18816WAT      O77068   2.967   8.532   5.350  0.0607  0.9481 -0.4034
18816WAT     H177069   2.914   8.452   5.341 -0.7635  1.5063 -0.6511
18816WAT     H277070   3.014   8.539   5.267 -0.3877  1.0709 -0.6551
18816WAT    EPW77071   2.966   8.522   5.338 -0.1072  1.0381 -0.4692
18817WAT      O77072  -6.003   8.949   6.907 -0.4122  0.0420  0.1470
18817WAT     H177073  -6.000   8.878   6.971  0.7448 -0.8958 -0.8874
18817WAT     H277074  -5.910   8.968   6.890 -0.6885 -0.0554 -1.5733
18817WAT    EPW77075  -5.990   8.942   6.913 -0.2961 -0.0944 -0.2162
18818WAT      O77076   2.212   3.182   0.918  0.0268  0.0228 -0.3794
18818WAT     H177077   2.189   3.187   0.825  1.5694  0.3288 -0.7713
18818WAT     H277078   2.158   3.111   0.953  1.1196 -1.7245 -2.0421
18818WAT    EPW77079   2.202   3.174   0.911  0.3744 -0.1673 -0.6504
18819WAT      O77080   3.012   9.137   0.623 -0.3260 -0.2302  0.2318
18819WAT     H177081   2.926   9.137   0.665 -0.4588 -1.1829 -0.0140
18819WAT     H277082   3.021   9.226   0.588 -1.5739 -0.3421 -0.4398
18819WAT    EPW77083   3.002   9.149   0.624 -0.5081 -0.3705  0.1107
18820WAT      O77084   5.836   1.523   4.532 -0.6387 -0.2523  0.3534
18820WAT     H177085   5.845   1.472   4.452 -0.3390 -0.7015  0.6648
18820WAT     H277086   5.815   1.611   4.503  3.2863  0.6233 -0.4364
18820WAT    EPW77087   5.834   1.528   4.518 -0.0815 -0.1961  0.2902
18821WAT      O77088  -1.570   2.755   6.373  0.0246 -0.8367 -0.1183
18821WAT     H177089  -1.505   2.795   6.431 -1.0052  1.2625 -0.3117
18821WAT     H277090  -1.591   2.672   6.415 -0.6703  0.5837  2.5986
18821WAT    EPW77091  -1.564   2.749   6.386 -0.2029 -0.3724  0.2146
18822WAT      O77092   7.284   3.874   2.439  0.1740  0.1174  0.6184
18822WAT     H177093   7.223   3.801   2.426  0.9352 -0.3202 -0.7132
18822WAT     H277094   7.352   3.838   2.497  0.9502 -0.5132 -0.6397
18822WAT    EPW77095   7.285   3.859   2.445  0.3767 -0.0235  0.2768
18823WAT      O77096   2.128   4.161   6.935 -0.2280  0.1212  0.5122
18823WAT     H177097   2.135   4.250   6.968  0.8810  0.1170  0.3373
18823WAT     H277098   2.052   4.162   6.877 -1.0911  0.5838  1.6169
18823WAT    EPW77099   2.119   4.173   6.932 -0.1956  0.1817  0.6347
18824WAT      O77100  -3.102   3.329   7.364  0.5673 -0.4663  0.3722
18824WAT     H177101  -3.012   3.332   7.396  0.9724 -1.6098 -0.5901
18824WAT     H277102  -3.137   3.247   7.397  0.3364 -0.6858 -0.3815
18824WAT    EPW77103  -3.095   3.319   7.372  0.5902 -0.6461  0.1459
18825WAT      O77104   0.703   8.119   6.161 -0.0003 -0.1934 -0.2466
18825WAT     H177105   0.719   8.208   6.192  0.8435  0.7811 -3.1504
18825WAT     H277106   0.785   8.072   6.179 -0.2785 -0.2608  0.8640
18825WAT    EPW77107   0.716   8.124   6.167  0.0743 -0.0739 -0.4833
18826WAT      O77108   0.102   1.968   5.108  0.0032  0.2993 -0.1317
18826WAT     H177109   0.014   1.974   5.073 -0.4761  2.9295  1.2515
18826WAT     H277110   0.093   1.914   5.187 -0.6198  1.3753  0.5608
18826WAT    EPW77111   0.090   1.962   5.114 -0.1422  0.7880  0.1421
18827WAT      O77112   4.042   8.001   1.076  0.5532  0.3974  0.1972
18827WAT     H177113   4.006   7.946   1.146 -1.8686  1.4994 -0.0593
18827WAT     H277114   4.120   7.955   1.047  1.1839 -0.5071  3.0513
18827WAT    EPW77115   4.047   7.988   1.081  0.3169  0.4237  0.5398
18828WAT      O77116   5.758   4.951   1.821  0.2173  0.6213  0.0221
18828WAT     H177117   5.728   5.021   1.879 -1.8427 -1.1761  1.2755
18828WAT     H277118   5.842   4.982   1.788 -0.6492  3.7300  0.3756
18828WAT    EPW77119   5.765   4.964   1.824 -0.1686  0.7944  0.2340
18829WAT      O77120  -2.181   9.011   5.360 -0.3266  0.2921 -0.0916
18829WAT     H177121  -2.256   8.960   5.391 -0.9189 -0.2560 -2.2290
18829WAT     H277122  -2.210   9.048   5.276  1.9544 -0.4742 -1.3226
18829WAT    EPW77123  -2.195   9.009   5.353 -0.1038  0.1187 -0.5360
18830WAT      O77124   8.484   2.349   2.362 -0.1603 -0.3184  0.0675
18830WAT     H177125   8.569   2.392   2.360  0.2398 -1.1239 -0.9223
18830WAT     H277126   8.448   2.373   2.447  1.6680 -1.1213  1.1353
18830WAT    EPW77127   8.490   2.358   2.373  0.1340 -0.5306  0.0777
18831WAT      O77128   0.817   9.237   3.877 -0.2412 -0.5472  0.1443
18831WAT     H177129   0.767   9.179   3.934 -0.7950  0.3975  0.6550
18831WAT     H277130   0.794   9.325   3.907  1.8351 -0.0603  0.4806
18831WAT    EPW77131   0.807   9.241   3.889 -0.0404 -0.3581  0.2559
18832WAT      O77132   8.253   0.792   2.171  0.3558  0.4433 -0.3152
18832WAT     H177133   8.215   0.707   2.151 -1.0114  0.4185  1.9569
18832WAT     H277134   8.181   0.842   2.210  1.9279  1.3687  1.6244
18832WAT    EPW77135   8.239   0.787   2.174  0.3829  0.5620  0.2402
18833WAT      O77136  -0.311   2.197   0.427 -0.2198 -0.3219 -0.0326
18833WAT     H177137  -0.287   2.106   0.409  1.4767 -0.3276  1.9352
18833WAT     H277138  -0.372   2.192   0.501  1.1666  0.1905  1.1779
18833WAT    EPW77139  -0.316   2.184   0.434  0.1868 -0.2551  0.3866
18834WAT      O77140   1.605   5.584   3.572  0.6843 -0.5724  0.6703
18834WAT     H177141   1.575   5.561   3.660  1.8308  1.7436  1.7698
18834WAT     H277142   1.701   5.582   3.579  0.8261 -1.8543 -1.0140
18834WAT    EPW77143   1.614   5.581   3.585  0.8543 -0.4358  0.5932
18835WAT      O77144   0.062   4.327   0.671  0.2834  0.1796  0.2027
18835WAT     H177145   0.076   4.394   0.738 -0.2094  0.6141 -0.1181
18835WAT     H277146   0.133   4.265   0.684 -0.2640 -0.1795  1.6605
18835WAT    EPW77147   0.073   4.328   0.681  0.1462  0.1895  0.3527
18836WAT      O77148   0.758   3.138   2.206  0.4218 -0.2422 -0.4679
18836WAT     H177149   0.734   3.140   2.298 -0.9327  1.0732 -0.8002
18836WAT     H277150   0.838   3.190   2.200 -0.4348  1.1317 -0.2498
18836WAT    EPW77151   0.766   3.145   2.217  0.1302  0.1125 -0.4829
18837WAT      O77152   2.947   1.560   8.272  0.3796  0.3138 -0.1814
18837WAT     H177153   2.910   1.531   8.189 -0.0954 -0.7071  0.3721
18837WAT     H277154   2.950   1.656   8.265 -2.2375  0.4347 -0.3151
18837WAT    EPW77155   2.943   1.569   8.260 -0.0283  0.1951 -0.1264
18838WAT      O77156   3.146   2.767   0.890 -0.1869 -0.3657  0.1207
18838WAT     H177157   3.215   2.800   0.833 -0.6034  0.0107 -0.1738
18838WAT     H277158   3.065   2.799   0.851 -0.6535 -2.0622 -0.4199
18838WAT    EPW77159   3.144   2.775   0.878 -0.3034 -0.5399  0.0106
18839WAT      O77160  -3.075  10.169   8.176  0.1302  0.2232 -1.0534
18839WAT     H177161  -3.023  10.249   8.183  1.8941 -0.9935  0.8594
18839WAT     H277162  -3.021  10.101   8.217 -2.2444 -1.5029 -0.5386
18839WAT    EPW77163  -3.061  10.171   8.182  0.0496 -0.1650 -0.7334
18840WAT      O77164   5.395   9.671   2.934  0.2344  0.2608  0.0351
18840WAT     H177165   5.425   9.757   2.963  1.3637 -0.1610  0.1914
18840WAT     H277166   5.476   9.622   2.918 -0.3116 -1.5915  2.3699
18840WAT    EPW77167   5.410   9.676   2.936  0.3114 -0.0391  0.3636
18841WAT      O77168  -0.060   5.605   0.231 -0.3204  0.1781  0.2094
18841WAT     H177169  -0.095   5.687   0.197  1.1386  0.2107 -1.3434
18841WAT     H277170  -0.085   5.539   0.166  1.9250  0.1199 -0.6789
18841WAT    EPW77171  -0.068   5.607   0.218  0.1682  0.1745 -0.1125
18842WAT      O77172   4.822   5.026   0.594  0.4032 -0.0856  0.3415
18842WAT     H177173   4.877   5.027   0.672  0.0569 -1.4026  0.6301
18842WAT     H277174   4.814   5.118   0.569 -0.3080  0.4863  2.4611
18842WAT    EPW77175   4.828   5.038   0.601  0.2635 -0.1838  0.6591
18843WAT      O77176  -1.662   9.670   5.250  0.2758  0.2195 -0.2057
18843WAT     H177177  -1.753   9.674   5.219  0.2221 -0.9529 -0.2169
18843WAT     H277178  -1.626   9.590   5.211  0.2460 -1.3062  2.6521
18843WAT    EPW77179  -1.669   9.660   5.241  0.2648 -0.1369  0.1698
18844WAT      O77180  -1.516   1.606   6.519 -0.3224 -0.4969  0.0484
18844WAT     H177181  -1.518   1.615   6.615 -0.8860 -1.2734  0.1272
18844WAT     H277182  -1.435   1.559   6.501 -0.6203 -1.1012  0.2347
18844WAT    EPW77183  -1.506   1.601   6.529 -0.4360 -0.6791  0.0832
18845WAT      O77184   0.749   9.794   6.716  0.0551  0.8573  0.4474
18845WAT     H177185   0.792   9.864   6.667  0.2712 -0.0832 -0.7614
18845WAT     H277186   0.686   9.757   6.654  1.0995 -1.0863  0.4446
18845WAT    EPW77187   0.747   9.798   6.701  0.2213  0.4773  0.2878
18846WAT      O77188  -1.093   5.267   1.968  0.2119 -0.1551 -0.2753
18846WAT     H177189  -1.096   5.344   2.024  1.6402 -0.6650  0.5658
18846WAT     H277190  -1.069   5.196   2.027 -1.3402 -1.3141 -0.9872
18846WAT    EPW77191  -1.090   5.268   1.983  0.1956 -0.3753 -0.2583
18847WAT      O77192  -3.674   3.041   6.767 -0.0031  0.4964 -0.6206
18847WAT     H177193  -3.672   3.135   6.751 -1.5033  0.6607  0.0363
18847WAT     H277194  -3.582   3.015   6.766  0.6604  2.3916  1.6879
18847WAT    EPW77195  -3.661   3.050   6.765 -0.1135  0.7681 -0.2294
18848WAT      O77196  -3.594   8.532   4.512 -0.3092  0.1136  0.4499
18848WAT     H177197  -3.579   8.553   4.420 -1.0214 -2.9596 -0.4652
18848WAT     H277198  -3.536   8.458   4.530  0.3724  1.1118  2.7451
18848WAT    EPW77199  -3.585   8.525   4.502 -0.3132 -0.1597  0.6320
18849WAT      O77200   3.646   7.011   4.836 -0.7972 -0.0814 -0.0998
18849WAT     H177201   3.711   6.952   4.872 -1.2841 -0.2151  0.5810
18849WAT     H277202   3.574   6.954   4.807 -0.0348 -0.0791 -2.2135
18849WAT    EPW77203   3.645   6.996   4.837 -0.7608 -0.0987 -0.2887
18850WAT      O77204  -2.302   8.049   0.227 -0.0510 -0.3886  0.9644
18850WAT     H177205  -2.294   7.991   0.303 -0.5382 -0.9483  0.5951
18850WAT     H277206  -2.395   8.045   0.204 -0.4480  1.7661  1.8942
18850WAT    EPW77207  -2.313   8.041   0.234 -0.1676 -0.1783  1.0384
18851WAT      O77208   1.757   7.492   7.458 -1.2713 -0.2984 -0.1531
18851WAT     H177209   1.768   7.537   7.542 -3.0105  0.7032 -0.4144
18851WAT     H277210   1.797   7.551   7.394 -1.1781 -0.3975 -0.1861
18851WAT    EPW77211   1.764   7.506   7.461 -1.4884 -0.1793 -0.1919
18852WAT      O77212   1.715   8.968   0.695  0.7299 -0.1678 -0.3148
18852WAT     H177213   1.648   9.026   0.660  1.3981  0.3567 -0.7529
18852WAT     H277214   1.680   8.939   0.779  1.5449  3.0942  1.3086
18852WAT    EPW77215   1.702   8.971   0.701  0.9255  0.3319 -0.1585
18853WAT      O77216   0.871   4.646   0.190 -0.4505 -0.5310 -0.0699
18853WAT     H177217   0.944   4.585   0.202  0.8569  1.1819  1.1377
18853WAT     H277218   0.866   4.658   0.095  1.5925  0.1371 -0.1482
18853WAT    EPW77219   0.880   4.639   0.179 -0.0086 -0.2170  0.0791
18854WAT      O77220   3.544   0.291   8.182 -0.3172  0.2010 -0.5383
18854WAT     H177221   3.594   0.373   8.186 -0.0241  0.0089 -0.2052
18854WAT     H277222   3.453   0.318   8.190 -0.1234  0.3461  1.7526
18854WAT    EPW77223   3.539   0.305   8.184 -0.2531  0.1948 -0.1922
18855WAT      O77224   0.761   1.418   0.646  0.2186  0.3885 -0.6828
18855WAT     H177225   0.850   1.455   0.648 -0.1325  1.2542  1.4301
18855WAT     H277226   0.748   1.392   0.555  2.2033  1.3281 -1.2887
18855WAT    EPW77227   0.771   1.420   0.634  0.4340  0.6266 -0.4840
18856WAT      O77228   0.035   8.716   6.225  0.1876  0.5525 -0.7304
18856WAT     H177229  -0.054   8.750   6.233  0.0326  0.0220 -0.1052
18856WAT     H277230   0.044   8.657   6.299  1.2301  0.9613 -0.5205
18856WAT    EPW77231   0.024   8.713   6.236  0.3046  0.5360 -0.6201
18857WAT      O77232   4.055   1.132   7.604  0.0366 -0.6915 -0.0186
18857WAT     H177233   4.092   1.218   7.582 -1.0480  0.7617  3.1466
18857WAT     H277234   4.126   1.087   7.650  0.4427 -1.3536 -1.2451
18857WAT    EPW77235   4.070   1.138   7.607 -0.0529 -0.5872  0.2367
18858WAT      O77236   1.200   6.340   3.981 -0.0022 -0.6125 -0.6833
18858WAT     H177237   1.273   6.396   3.954  0.4200 -0.8328 -0.0402
18858WAT     H277238   1.148   6.328   3.902 -0.5255  1.3003 -0.6551
18858WAT    EPW77239   1.203   6.346   3.967 -0.0155 -0.3893 -0.5947
18859WAT      O77240   4.354   2.176   5.752 -0.5093 -0.6380 -0.7752
18859WAT     H177241   4.284   2.148   5.811  0.3148  0.9441  1.0404
18859WAT     H277242   4.434   2.170   5.804  0.3259  0.3359 -1.8730
18859WAT    EPW77243   4.355   2.171   5.767 -0.2906 -0.3009 -0.6807
18860WAT      O77244   2.119   7.163   4.046 -0.6103 -0.6776  0.2074
18860WAT     H177245   2.026   7.157   4.024 -0.3736 -1.3213 -0.7024
18860WAT     H277246   2.124   7.233   4.111 -1.6192 -0.0761 -0.3324
18860WAT    EPW77247   2.107   7.171   4.052 -0.7122 -0.6833  0.0160
18861WAT      O77248  -0.120   6.399   1.003 -0.1388  0.0643  0.1480
18861WAT     H177249  -0.185   6.469   0.995 -0.2542 -0.2109 -2.4135
18861WAT     H277250  -0.172   6.319   1.009 -0.1307 -0.1434 -1.7599
18861WAT    EPW77251  -0.135   6.397   1.002 -0.1529  0.0007 -0.4414
18862WAT      O77252   1.789   6.801   8.122 -0.5299  0.3045  0.0878
18862WAT     H177253   1.881   6.811   8.099 -0.5231 -1.3134 -0.7168
18862WAT     H277254   1.790   6.759   8.208 -0.4992 -0.2723 -0.1899
18862WAT    EPW77255   1.801   6.796   8.130 -0.5250  0.0150 -0.0548
18863WAT      O77256   2.329   0.326   5.293 -0.4617  0.3623 -0.0788
18863WAT     H177257   2.241   0.302   5.262 -1.4190  1.3141  1.7443
18863WAT     H277258   2.356   0.396   5.234  0.1606 -1.5267 -2.1732
18863WAT    EPW77259   2.321   0.332   5.281 -0.5058  0.2387 -0.1144
18864WAT      O77260   2.418   2.548   1.576 -0.0489 -0.5346  0.4313
18864WAT     H177261   2.357   2.475   1.573  0.4393 -0.9721  0.9315
18864WAT     H277262   2.498   2.511   1.613  1.5059 -0.6696 -2.7577
18864WAT    EPW77263   2.421   2.534   1.581  0.2205 -0.6100  0.0768
18865WAT      O77264  -0.527   1.535   2.882 -1.1786  0.0113  0.1167
18865WAT     H177265  -0.480   1.508   2.803 -0.7728  1.0115 -0.0005
18865WAT     H277266  -0.619   1.519   2.862 -0.9877 -0.8391 -0.1084
18865WAT    EPW77267  -0.533   1.529   2.869 -1.0999  0.0310  0.0715
18866WAT      O77268  -3.130   2.323   5.140 -0.1752 -0.3262  0.3937
18866WAT     H177269  -3.066   2.252   5.145  0.4773  0.2451  0.2629
18866WAT     H277270  -3.167   2.328   5.228 -1.1897 -1.6987  0.0693
18866WAT    EPW77271  -3.126   2.315   5.152 -0.2229 -0.4319  0.3338
18867WAT      O77272   2.728   1.779   2.778 -0.8696 -0.9934 -0.5823
18867WAT     H177273   2.695   1.709   2.721  0.6987 -1.0038 -1.5298
18867WAT     H277274   2.740   1.854   2.720  2.3680 -1.4927 -0.7441
18867WAT    EPW77275   2.725   1.779   2.763 -0.2356 -1.0606 -0.7286
18868WAT      O77276   0.308   0.295   5.566  0.7998  0.1487 -0.2726
18868WAT     H177277   0.331   0.204   5.588 -0.6753 -0.4555 -1.1054
18868WAT     H277278   0.237   0.316   5.627 -1.0013 -0.3723 -2.0943
18868WAT    EPW77279   0.302   0.285   5.577  0.3677  0.0003 -0.6225
18869WAT      O77280   2.701   1.538   6.698 -0.2348  0.0988 -0.3552
18869WAT     H177281   2.688   1.548   6.603 -1.9489  1.0083 -0.0509
18869WAT     H277282   2.665   1.452   6.717  0.4927 -0.2652 -0.5745
18869WAT    EPW77283   2.695   1.528   6.688 -0.3650  0.1708 -0.3440
18870WAT      O77284  -4.128   4.022   6.169 -0.4990  0.0104 -0.3100
18870WAT     H177285  -4.207   4.060   6.131 -0.1818  0.5698 -0.4122
18870WAT     H277286  -4.057   4.080   6.143  0.2368 -1.4493 -1.7353
18870WAT    EPW77287  -4.129   4.034   6.161 -0.3600 -0.1085 -0.5114
18871WAT      O77288   2.452   1.722   3.722  0.2139 -1.0610 -0.2860
18871WAT     H177289   2.386   1.784   3.693 -0.4417 -1.4870  0.2521
18871WAT     H277290   2.526   1.776   3.749 -1.2560 -0.2929  2.5698
18871WAT    EPW77291   2.453   1.737   3.722 -0.0665 -1.0159  0.1616
18872WAT      O77292   3.435   1.728   8.783  0.1857  0.1972  0.7897
18872WAT     H177293   3.488   1.803   8.756  0.2523 -0.4973 -1.2113
18872WAT     H277294   3.345   1.758   8.774  0.2112  0.0578 -0.0410
18872WAT    EPW77295   3.430   1.742   8.778  0.1979  0.0872  0.4163
18873WAT      O77296   3.929   5.841   5.326 -0.6349  0.0822  0.7607
18873WAT     H177297   4.025   5.833   5.324 -0.6308 -0.2767  1.7858
18873WAT     H277298   3.907   5.841   5.419 -1.6463  0.1046  0.5320
18873WAT    EPW77299   3.939   5.840   5.338 -0.7677  0.0379  0.8657
18874WAT      O77300  -3.230   1.522   4.985 -0.0669  0.1116 -0.2754
18874WAT     H177301  -3.266   1.469   4.914  1.3010 -1.7689  0.3525
18874WAT     H277302  -3.307   1.555   5.032 -1.1163 -3.5463  0.8835
18874WAT    EPW77303  -3.245   1.520   4.982 -0.0249 -0.6189 -0.0398
18875WAT      O77304   3.447   3.414   7.038  0.3546  0.2923  0.3161
18875WAT     H177305   3.499   3.346   6.996  0.9373  1.2206 -0.4989
18875WAT     H277306   3.389   3.366   7.098  0.0015 -0.9976 -1.0161
18875WAT    EPW77307   3.446   3.399   7.041  0.3848  0.2446  0.0329
18876WAT      O77308   0.373   0.590   7.406  1.2069  0.2271  0.4659
18876WAT     H177309   0.313   0.607   7.479  1.5324 -0.8824  0.9993
18876WAT     H277310   0.340   0.510   7.366 -0.8478  2.3473 -2.5982
18876WAT    EPW77311   0.360   0.582   7.410  0.9789  0.3604  0.1321
18877WAT      O77312   3.891   6.372   0.638  0.2375 -0.3044  0.0263
18877WAT     H177313   3.906   6.422   0.557  2.8748  0.8603  1.1076
18877WAT     H277314   3.868   6.438   0.703 -0.5848 -1.0713  0.5336
18877WAT    EPW77315   3.890   6.387   0.636  0.4768 -0.2520  0.2358
18878WAT      O77316   1.774   7.963   1.553 -1.1386 -0.3344  0.7302
18878WAT     H177317   1.766   7.878   1.598 -1.5238  0.4612  2.2598
18878WAT     H277318   1.861   7.961   1.513 -1.3833 -1.6830  0.1925
18878WAT    EPW77319   1.784   7.951   1.554 -1.2217 -0.4072  0.8610
18879WAT      O77320   5.100   9.529   2.017 -0.0789  0.1094 -0.7155
18879WAT     H177321   5.196   9.522   2.020 -0.1102 -2.5872 -2.4912
18879WAT     H277322   5.081   9.560   1.928 -0.8651  0.2476 -0.5055
18879WAT    EPW77323   5.110   9.532   2.006 -0.1869 -0.2279 -0.9220
18880WAT      O77324   5.973   0.273   6.798  0.6488 -0.6614  0.6394
18880WAT     H177325   5.903   0.337   6.807  0.3212 -1.0533  0.9292
18880WAT     H277326   5.967   0.220   6.877  0.3587 -1.5894  0.0174
18880WAT    EPW77327   5.963   0.274   6.810  0.5672 -0.8355  0.5956
18881WAT      O77328   2.723   8.143   2.467 -0.2383  0.6295  0.6529
18881WAT     H177329   2.638   8.098   2.470 -0.8208  1.7483  2.2885
18881WAT     H277330   2.759   8.131   2.555  0.9315  0.8663  0.2164
18881WAT    EPW77331   2.717   8.136   2.479 -0.1608  0.8082  0.8111
18882WAT      O77332   1.040   3.720   5.994  0.0374  0.4324 -0.0831
18882WAT     H177333   1.053   3.775   5.916 -1.4164 -1.2463 -1.6050
18882WAT     H277334   1.049   3.780   6.067  3.9551  1.6788 -1.3329
18882WAT    EPW77335   1.043   3.735   5.993  0.3624  0.3754 -0.4487
18883WAT      O77336  -2.692   7.409   2.213  0.7215 -0.1811 -0.2959
18883WAT     H177337  -2.623   7.410   2.146  1.2613  0.9910  0.2512
18883WAT     H277338  -2.659   7.348   2.280  0.5987 -0.6598 -0.6681
18883WAT    EPW77339  -2.678   7.401   2.213  0.7765 -0.0896 -0.2729
18884WAT      O77340   0.145   1.752   4.277 -0.0429 -0.5140  0.6599
18884WAT     H177341   0.120   1.844   4.288  1.1370  0.3585 -2.5891
18884WAT     H277342   0.061   1.706   4.274 -1.2013  1.3593 -3.0850
18884WAT    EPW77343   0.131   1.758   4.278 -0.0400 -0.1519 -0.2625
18885WAT      O77344  -0.545   6.247   1.356 -0.2979  0.4652  0.2197
18885WAT     H177345  -0.603   6.174   1.334 -0.4898  0.1160  1.7655
18885WAT     H277346  -0.477   6.245   1.288 -1.4954  0.2343 -1.0110
18885WAT    EPW77347  -0.544   6.237   1.344 -0.4811  0.3886  0.2612
18886WAT      O77348   3.549  10.295   5.647 -0.4761 -0.3364  0.1093
18886WAT     H177349   3.458  10.319   5.628 -0.2533 -0.4736 -1.2857
18886WAT     H277350   3.569  10.228   5.581  1.5321  1.7366 -1.5567
18886WAT    EPW77351   3.539  10.289   5.635 -0.1818 -0.0806 -0.2944
18887WAT      O77352   3.599   0.143   4.025 -0.4176 -0.1734  0.2311
18887WAT     H177353   3.647   0.208   4.077  0.1208  0.5301 -1.0863
18887WAT     H277354   3.519   0.126   4.075  1.9332 -2.8161  3.4829
18887WAT    EPW77355   3.595   0.149   4.038 -0.0365 -0.4291  0.4864
18888WAT      O77356   0.403   8.369   4.966  1.0502  0.3306 -0.3862
18888WAT     H177357   0.409   8.464   4.965  1.0262  0.3609  0.8480
18888WAT     H277358   0.323   8.350   5.015  1.9655 -0.3327  0.9026
18888WAT    EPW77359   0.393   8.379   4.972  1.1678  0.2470 -0.0532
18889WAT      O77360   0.489   3.732   7.062 -0.0247 -0.0143 -0.4369
18889WAT     H177361   0.556   3.717   6.996  1.1548 -1.8477  1.0622
18889WAT     H277362   0.424   3.663   7.046  0.2466 -0.4443  0.2442
18889WAT    EPW77363   0.489   3.721   7.051  0.1667 -0.3128 -0.1493
18890WAT      O77364   8.106   7.349   0.075 -0.0475  0.0294  0.2318
18890WAT     H177365   8.113   7.378  -0.016 -1.5004 -2.0621 -0.6477
18890WAT     H277366   8.194   7.320   0.098  0.0892 -0.6231 -0.9997
18890WAT    EPW77367   8.118   7.349   0.066 -0.2208 -0.3324 -0.0466
18891WAT      O77368  -0.968   1.308   6.828 -0.8076  0.0941 -0.0522
18891WAT     H177369  -0.964   1.390   6.778  0.6621  1.1503  1.6897
18891WAT     H277370  -0.901   1.253   6.788 -0.1897  0.6351  0.2205
18891WAT    EPW77371  -0.959   1.312   6.816 -0.5323  0.3048  0.2136
18892WAT      O77372   7.418   0.720   5.047 -0.2086  0.4458 -0.1085
18892WAT     H177373   7.387   0.801   5.087 -0.7305 -1.0660  2.8609
18892WAT     H277374   7.511   0.737   5.028 -0.4971  1.9559 -0.2946
18892WAT    EPW77375   7.426   0.733   5.050 -0.3154  0.4456  0.2587
18893WAT      O77376   0.201   0.143   4.091 -0.3769  0.9425 -0.3478
18893WAT     H177377   0.176   0.063   4.136 -1.3569  0.2385 -2.0275
18893WAT     H277378   0.280   0.173   4.136 -1.8618  0.9313  2.4847
18893WAT    EPW77379   0.208   0.137   4.103 -0.7020  0.8482 -0.1957
18894WAT      O77380   4.087   2.206   7.577 -0.9139 -0.2649  0.4340
18894WAT     H177381   4.157   2.147   7.606 -1.6801 -0.5462  1.7638
18894WAT     H277382   4.110   2.226   7.486  0.4107 -1.0566  0.5615
18894WAT    EPW77383   4.099   2.200   7.569 -0.8404 -0.4065  0.6263
18895WAT      O77384  -4.545   1.974   7.178  0.2267  0.2775 -0.1167
18895WAT     H177385  -4.615   1.929   7.129  0.7911  0.8614 -1.5153
18895WAT     H277386  -4.505   2.033   7.114  2.0895 -0.1214  0.6152
18895WAT    EPW77387  -4.549   1.976   7.163  0.5467  0.3020 -0.2048
18896WAT      O77388  -0.274   2.051   0.946 -0.5224 -0.2175  0.2543
18896WAT     H177389  -0.336   2.087   1.010  2.1242  0.7928  2.4487
18896WAT     H277390  -0.209   2.006   0.998  0.2050 -2.0217 -2.0226
18896WAT    EPW77391  -0.274   2.050   0.961 -0.0774 -0.3221  0.2434
18897WAT      O77392  -1.990   0.502   6.073  0.4196 -0.0973 -0.2770
18897WAT     H177393  -2.055   0.451   6.025  1.4266 -2.2318  0.5218
18897WAT     H277394  -2.034   0.527   6.154 -0.3197  1.0352 -0.9857
18897WAT    EPW77395  -2.004   0.499   6.077  0.4549 -0.2295 -0.2651
18898WAT      O77396  -3.978   7.247   8.918 -0.0957 -0.5784  0.8026
18898WAT     H177397  -3.928   7.324   8.947  0.8304 -1.3294  1.2387
18898WAT     H277398  -3.964   7.244   8.824 -1.1454  0.4823  0.5923
18898WAT    EPW77399  -3.969   7.257   8.910 -0.1121 -0.5374  0.8326
18899WAT      O77400   1.116   3.732   8.382 -0.0494 -0.2540  1.0870
18899WAT     H177401   1.207   3.761   8.370 -0.6574  0.8743 -1.3620
18899WAT     H277402   1.125   3.643   8.418  2.1253 -1.0910 -1.1780
18899WAT    EPW77403   1.129   3.724   8.386  0.1572 -0.2155  0.4654
18900WAT      O77404   0.398   8.318   8.144 -0.2135 -0.4239 -0.6298
18900WAT     H177405   0.462   8.266   8.191  0.9951  1.6013  0.1020
18900WAT     H277406   0.332   8.342   8.210 -1.1184 -1.5139 -1.1079
18900WAT    EPW77407   0.398   8.315   8.159 -0.1735 -0.3004 -0.5965
18901WAT      O77408  -0.132   2.921   8.355  0.8832  0.2590  0.8034
18901WAT     H177409  -0.042   2.946   8.332  1.1546  0.5440  2.0554
18901WAT     H277410  -0.126   2.827   8.373  0.9705  0.3090  1.0410
18901WAT    EPW77411  -0.119   2.912   8.355  0.9305  0.3031  0.9999
18902WAT      O77412   6.404   3.139   5.153  0.1119  0.4739  0.2866
18902WAT     H177413   6.418   3.057   5.201 -0.6267  1.2832  1.9852
18902WAT     H277414   6.337   3.185   5.204 -0.4130  1.5818 -1.3364
18902WAT    EPW77415   6.397   3.134   5.166 -0.0546  0.7267  0.2966
18903WAT      O77416   3.409   5.636   0.525 -0.7624  0.3336  0.5548
18903WAT     H177417   3.471   5.689   0.574  0.3365 -1.0683  0.7170
18903WAT     H277418   3.456   5.610   0.446 -2.2620  1.9615 -1.0061
18903WAT    EPW77419   3.423   5.640   0.521 -0.8153  0.3633  0.3703
18904WAT      O77420   1.054   2.345   8.869  0.5508 -0.2725 -0.2763
18904WAT     H177421   1.148   2.364   8.862  0.1290  2.5447  0.4642
18904WAT     H277422   1.023   2.339   8.779  1.1055  0.8795 -0.5571
18904WAT    EPW77423   1.062   2.347   8.856  0.5683  0.2511 -0.2155
18905WAT      O77424  -5.201  10.191   8.662 -0.3051  0.4074 -0.7656
18905WAT     H177425  -5.220  10.285   8.665  0.0943  0.4748 -0.3509
18905WAT     H277426  -5.193  10.165   8.754  0.4821  0.1462 -0.9076
18905WAT    EPW77427  -5.203  10.200   8.675 -0.1483  0.3815 -0.7296
18906WAT      O77428  -4.051   2.312   5.552 -0.0132  0.2180  0.6370
18906WAT     H177429  -3.973   2.263   5.576  0.9569  2.2934  2.0127
18906WAT     H277430  -4.033   2.343   5.463  0.8775  0.9320  1.0580
18906WAT    EPW77431  -4.038   2.310   5.543  0.2325  0.5859  0.8740
18907WAT      O77432   3.641   7.786   3.035 -0.0429  0.2738  0.5575
18907WAT     H177433   3.724   7.812   2.996 -0.2439  1.1612  0.7009
18907WAT     H277434   3.581   7.778   2.961 -0.7797  3.2603  0.6932
18907WAT    EPW77435   3.644   7.789   3.020 -0.1667  0.7846  0.5943
18908WAT      O77436  -3.446   6.141   2.170 -0.0374  0.9142 -0.2502
18908WAT     H177437  -3.452   6.071   2.234  3.1005 -1.1438 -1.9617
18908WAT     H277438  -3.460   6.098   2.085 -2.1229  3.1799 -1.1779
18908WAT    EPW77439  -3.449   6.126   2.167  0.1014  0.9415 -0.5982
18909WAT      O77440   3.288   5.986   8.187  0.4590 -0.3404 -0.3562
18909WAT     H177441   3.365   5.991   8.243 -1.1088  0.1726  1.9100
18909WAT     H277442   3.321   5.957   8.102  3.1410  0.1202  0.4502
18909WAT    EPW77443   3.302   5.983   8.183  0.6058 -0.2117  0.0491
18910WAT      O77444   2.845   3.767   5.343 -0.1568  0.1153 -0.2568
18910WAT     H177445   2.931   3.779   5.305 -0.6953  0.2491 -1.4712
18910WAT     H277446   2.854   3.800   5.433  0.5410  2.0282 -0.9848
18910WAT    EPW77447   2.857   3.773   5.350 -0.1358  0.3853 -0.5131
18911WAT      O77448  -2.814   0.191   5.691  0.7961 -0.7496 -0.1923
18911WAT     H177449  -2.805   0.242   5.610  1.0296 -0.4131  0.0429
18911WAT     H277450  -2.869   0.117   5.666 -1.1506  0.5859 -0.1241
18911WAT    EPW77451  -2.820   0.188   5.677  0.5702 -0.5291 -0.1521
18912WAT      O77452  -5.633   5.478   6.041 -0.0388 -0.4101 -0.6537
18912WAT     H177453  -5.634   5.573   6.041 -0.3098 -0.4125 -1.0580
18912WAT     H277454  -5.597   5.455   6.127  2.8200  0.0641 -1.6039
18912WAT    EPW77455  -5.628   5.487   6.053  0.3026 -0.3479 -0.8323
18913WAT      O77456   0.361   3.463   4.509 -0.4215  0.7504  0.1100
18913WAT     H177457   0.311   3.384   4.489 -0.6767  1.1259 -0.7390
18913WAT     H277458   0.382   3.502   4.424  2.6784 -0.2004  0.2877
18913WAT    EPW77459   0.357   3.457   4.495 -0.0463  0.6745  0.0215
18914WAT      O77460  -4.700   0.989   7.653 -0.9452  0.1647 -0.1823
18914WAT     H177461  -4.778   0.966   7.705 -0.3552 -2.3519 -0.2832
18914WAT     H277462  -4.715   0.948   7.568  1.6723 -3.0678  0.7015
18914WAT    EPW77463  -4.712   0.981   7.649 -0.5221 -0.5935 -0.0789
18915WAT      O77464  -5.096   9.411   7.487 -0.0584  0.3214  0.5545
18915WAT     H177465  -5.042   9.486   7.461 -2.8788  1.6919 -2.0194
18915WAT     H277466  -5.133   9.438   7.571  0.4960  0.9358  0.6144
18915WAT    EPW77467  -5.094   9.425   7.495 -0.3574  0.5832  0.2232
18916WAT      O77468   5.429   4.914   2.347 -0.5308 -0.2833  0.0993
18916WAT     H177469   5.462   4.980   2.408 -2.5129 -1.6014  2.8371
18916WAT     H277470   5.343   4.947   2.321 -1.5197 -1.6245  1.4617
18916WAT    EPW77471   5.422   4.927   2.352 -0.9227 -0.6340  0.6400
18917WAT      O77472  -2.597   2.637   8.456  1.0530  0.0314 -0.3687
18917WAT     H177473  -2.581   2.542   8.456  1.1851 -0.0289 -3.0516
18917WAT     H277474  -2.613   2.658   8.548 -0.1812 -2.7775  0.1783
18917WAT    EPW77475  -2.597   2.627   8.468  0.9078 -0.3470 -0.6504
18918WAT      O77476  -0.328   3.105   3.454 -0.1313 -0.3000 -0.1193
18918WAT     H177477  -0.292   3.101   3.542  0.0844  2.5694  0.0299
18918WAT     H277478  -0.258   3.071   3.398  0.5737 -0.1429  0.6430
18918WAT    EPW77479  -0.314   3.100   3.458 -0.0099  0.0991  0.0010
18919WAT      O77480  -1.540   8.857   2.570  0.2840 -0.4766 -0.2628
18919WAT     H177481  -1.635   8.869   2.562  0.0303 -1.0665  1.4965
18919WAT     H277482  -1.503   8.937   2.534 -0.9244  0.2460  0.0408
18919WAT    EPW77483  -1.548   8.869   2.564  0.0912 -0.4597  0.0092
18920WAT      O77484  -3.373   8.167   0.887 -0.3807 -0.2690 -0.2473
18920WAT     H177485  -3.386   8.262   0.888  1.0423 -0.0540 -0.8025
18920WAT     H277486  -3.460   8.132   0.869 -0.9990  0.9068  0.3047
18920WAT    EPW77487  -3.386   8.175   0.885 -0.2745 -0.0854 -0.2477
18921WAT      O77488  -4.318   7.521   7.004  0.3425  0.0459  0.0489
18921WAT     H177489  -4.308   7.464   6.928  1.9939 -0.1294  0.3530
18921WAT     H277490  -4.249   7.587   6.994 -0.8327  1.3578  0.2655
18921WAT    EPW77491  -4.307   7.522   6.993  0.4053  0.1957  0.1175
18922WAT      O77492  -4.397   9.783   7.346  0.4336  0.3099  0.2679
18922WAT     H177493  -4.324   9.845   7.346 -0.3210  1.2891 -1.6073
18922WAT     H277494  -4.356   9.699   7.325  1.2360  0.4883  1.0454
18922WAT    EPW77495  -4.382   9.780   7.343  0.4399  0.4625  0.1230
18923WAT      O77496   1.187   9.660   3.762  0.3728 -0.0569 -0.1757
18923WAT     H177497   1.119   9.623   3.819  0.0037  0.3511 -0.3489
18923WAT     H277498   1.169   9.623   3.676 -1.1092  1.9004 -0.7576
18923WAT    EPW77499   1.175   9.650   3.758  0.1287  0.2551 -0.2753
18924WAT      O77500   0.589   7.844   3.939 -0.1123  0.1367  0.6059
18924WAT     H177501   0.616   7.753   3.943  1.3089  0.4887 -0.0997
18924WAT     H277502   0.521   7.846   3.871 -2.1351 -0.7890  2.4848
18924WAT    EPW77503   0.584   7.833   3.930 -0.1917  0.0613  0.7607
18925WAT      O77504  -3.690   2.205   5.451 -0.1599 -0.3813  0.0564
18925WAT     H177505  -3.675   2.118   5.415 -1.8254 -0.0703 -1.4752
18925WAT     H277506  -3.709   2.260   5.376 -0.4289  1.0407  1.1152
18925WAT    EPW77507  -3.690   2.201   5.437 -0.4152 -0.1527 -0.0060
18926WAT      O77508  -3.488   9.502   0.850  1.2904 -0.5438  0.6109
18926WAT     H177509  -3.440   9.434   0.803  0.8609 -0.8902  0.6600
18926WAT     H277510  -3.579   9.471   0.849  0.8438  0.7273 -0.5911
18926WAT    EPW77511  -3.494   9.489   0.844  1.1749 -0.4220  0.4588
18927WAT      O77512   4.414  10.300   0.137 -0.2880 -0.5089 -0.2891
18927WAT     H177513   4.369  10.245   0.072  0.5663 -0.8120 -0.6430
18927WAT     H277514   4.370  10.384   0.131 -0.6010 -0.7029 -0.8618
18927WAT    EPW77515   4.402  10.304   0.128 -0.2165 -0.5746 -0.4113
18928WAT      O77516   6.139   3.624   5.226  0.3583 -0.0673  0.4063
18928WAT     H177517   6.060   3.587   5.188  1.0580  0.6198 -1.9295
18928WAT     H277518   6.198   3.549   5.238  0.3027 -0.2637 -0.4396
18928WAT    EPW77519   6.136   3.609   5.223  0.4432 -0.0025 -0.0134
18929WAT      O77520  -1.563   6.507   4.330  0.0239  0.5085  0.0906
18929WAT     H177521  -1.470   6.492   4.345 -0.0904  0.9619  1.4208
18929WAT     H277522  -1.575   6.495   4.236  1.3750  0.2043 -0.0596
18929WAT    EPW77523  -1.552   6.504   4.319  0.1870  0.5281  0.2460
18930WAT      O77524   0.299   3.170   8.047 -0.0006 -0.3723 -0.0395
18930WAT     H177525   0.209   3.184   8.076 -0.8452 -1.9500 -1.6933
18930WAT     H277526   0.296   3.184   7.953  2.5595  4.1914  0.2826
18930WAT    EPW77527   0.287   3.174   8.039  0.2256  0.0215 -0.2151
18931WAT      O77528   1.258   5.054   3.498  0.0097  0.3182 -0.0436
18931WAT     H177529   1.291   5.135   3.534 -0.4272 -0.6003  2.6200
18931WAT     H277530   1.201   5.018   3.566  3.0100 -4.0276  0.6457
18931WAT    EPW77531   1.255   5.060   3.511  0.3478 -0.3760  0.3986
18932WAT      O77532  -2.859   2.434   5.860 -0.2656  0.1131 -0.6598
18932WAT     H177533  -2.822   2.352   5.827  3.6510  0.0871  2.9163
18932WAT     H277534  -2.830   2.500   5.798  1.0344 -0.6779 -0.9424
18932WAT    EPW77535  -2.850   2.432   5.848  0.4225  0.0054 -0.2253
18933WAT      O77536   5.355   2.057   4.856 -0.3690 -0.7673 -0.0548
18933WAT     H177537   5.413   2.034   4.929 -0.2173 -1.0226 -0.2540
18933WAT     H277538   5.267   2.056   4.894 -0.1622  0.6750  0.5046
18933WAT    EPW77539   5.351   2.054   4.870 -0.3219 -0.6107 -0.0074
18934WAT      O77540   0.927   3.748   8.125 -0.3275 -0.1678  0.0615
18934WAT     H177541   0.863   3.677   8.116 -1.0302  0.5062 -0.4138
18934WAT     H277542   0.978   3.725   8.203 -0.8228 -0.9732  0.1586
18934WAT    EPW77543   0.925   3.736   8.134 -0.4855 -0.1851  0.0119
18935WAT      O77544   7.202   2.386   3.874 -0.0010  0.3256 -0.4676
18935WAT     H177545   7.171   2.300   3.843  2.0720 -0.6096 -0.1147
18935WAT     H277546   7.127   2.444   3.860 -3.7310 -2.5101  4.4224
18935WAT    EPW77547   7.188   2.382   3.868 -0.2193 -0.1717  0.2239
18936WAT      O77548  -5.079   8.590   5.400 -0.6149  0.1191 -0.1411
18936WAT     H177549  -5.023   8.532   5.452  0.1796  0.4859 -0.5720
18936WAT     H277550  -5.162   8.592   5.448 -0.5222 -1.0351  0.1055
18936WAT    EPW77551  -5.082   8.583   5.413 -0.4978  0.0153 -0.1655
18937WAT      O77552  -2.889   1.713   8.399  0.6367 -0.5252  0.7668
18937WAT     H177553  -2.846   1.637   8.361  2.0986 -0.3888  2.0601
18937WAT     H277554  -2.980   1.685   8.411  1.5766 -2.9436  3.2616
18937WAT    EPW77555  -2.896   1.699   8.396  0.9536 -0.8262  1.2665
18938WAT      O77556  -3.823   4.042   7.648 -0.0741 -0.3562  0.4429
18938WAT     H177557  -3.906   4.022   7.605  0.0785 -1.8143  0.7756
18938WAT     H277558  -3.817   3.979   7.719  0.3852  1.0420  1.7012
18938WAT    EPW77559  -3.833   4.031   7.652  0.0067 -0.3643  0.6528
18939WAT      O77560   0.772   9.956   6.266  0.2471  0.3993  0.4148
18939WAT     H177561   0.863   9.946   6.294  0.7072  1.7076 -0.5102
18939WAT     H277562   0.749   9.870   6.229  0.6041 -0.3979  1.9545
18939WAT    EPW77563   0.781   9.943   6.265  0.3549  0.4663  0.4961
18940WAT      O77564  -0.256   8.204   6.758  0.5247 -0.0706  0.5804
18940WAT     H177565  -0.180   8.235   6.708  0.2630  1.8850  1.2921
18940WAT     H277566  -0.220   8.143   6.822  1.4126  0.2786  0.4270
18940WAT    EPW77567  -0.241   8.200   6.760  0.6073  0.2337  0.6537
18941WAT      O77568  -4.547   8.723   4.882 -0.2641  0.4763  0.2142
18941WAT     H177569  -4.618   8.787   4.872  0.6146  1.4991  0.2471
18941WAT     H277570  -4.581   8.642   4.845 -1.5670  0.8483  0.5469
18941WAT    EPW77571  -4.560   8.721   4.876 -0.3202  0.6604  0.2623
18942WAT      O77572  -2.288   7.207   1.262  1.1906 -0.5561 -1.0641
18942WAT     H177573  -2.239   7.228   1.183  0.8297  1.0186 -0.9043
18942WAT     H277574  -2.270   7.280   1.321  1.3512 -1.6349  0.2826
18942WAT    EPW77575  -2.279   7.219   1.260  1.1642 -0.4909 -0.8655
18943WAT      O77576   0.233   8.221   4.017  0.4528 -0.5249  0.2101
18943WAT     H177577   0.224   8.126   4.012  1.3137 -0.5877 -0.3070
18943WAT     H277578   0.204   8.243   4.106 -0.0044 -1.2334  0.2404
18943WAT    EPW77579   0.228   8.212   4.028  0.5061 -0.6266  0.1459
18944WAT      O77580   6.554   6.829   2.803  0.1187 -0.2721 -0.7459
18944WAT     H177581   6.636   6.780   2.805  0.4857  0.2480  2.0131
18944WAT     H277582   6.500   6.783   2.739  1.6004 -2.3013 -0.6562
18944WAT    EPW77583   6.557   6.816   2.795  0.3624 -0.4714 -0.3703
18945WAT      O77584  -3.390   8.509   6.496 -0.6020 -0.4585  0.6665
18945WAT     H177585  -3.423   8.598   6.488  2.4574  1.0756  2.9365
18945WAT     H277586  -3.385   8.494   6.591 -0.6560 -2.9091  0.3322
18945WAT    EPW77587  -3.393   8.519   6.508 -0.2056 -0.5794  0.9217
18946WAT      O77588   8.503   0.833   0.733  0.1274  0.6006 -0.0113
18946WAT     H177589   8.553   0.892   0.790 -1.8349  1.7996  0.5937
18946WAT     H277590   8.506   0.875   0.647  1.5276 -0.2264 -0.3905
18946WAT    EPW77591   8.510   0.847   0.729  0.0534  0.6497  0.0185
18947WAT      O77592   1.984   8.200   4.601  0.1188 -0.3449 -0.2032
18947WAT     H177593   1.900   8.234   4.568  0.4674  1.6301  0.8420
18947WAT     H277594   2.048   8.226   4.535  0.8512  3.7952  1.8219
18947WAT    EPW77595   1.981   8.208   4.588  0.2614  0.4616  0.2017
18948WAT      O77596   1.534   7.356   3.257 -0.4776 -0.0556 -0.8416
18948WAT     H177597   1.469   7.323   3.319  1.4992 -0.9387  0.8678
18948WAT     H277598   1.572   7.278   3.218 -0.1007  0.4229 -1.4389
18948WAT    EPW77599   1.530   7.342   3.260 -0.1672 -0.1090 -0.6949
18949WAT      O77600   6.703   2.614   4.349 -0.4313  0.2862  0.1345
18949WAT     H177601   6.655   2.638   4.269  0.9360  2.6788 -0.0571
18949WAT     H277602   6.644   2.639   4.420 -0.1714  1.7695 -0.1269
18949WAT    EPW77603   6.689   2.621   4.348 -0.2167  0.7975  0.0746
18950WAT      O77604   6.980   2.494   4.298  0.0628  0.0239 -0.2079
18950WAT     H177605   7.062   2.536   4.272  0.5712 -0.3047  0.8316
18950WAT     H277606   6.918   2.566   4.307 -0.0884  0.1889 -2.0248
18950WAT    EPW77607   6.983   2.509   4.296  0.1099  0.0023 -0.3107
18951WAT      O77608   1.167   0.995   8.173  0.0115  0.1326  0.0266
18951WAT     H177609   1.203   1.014   8.260 -1.1025  0.7843  0.3575
18951WAT     H277610   1.077   1.026   8.177  0.6359  2.5408 -2.1835
18951WAT    EPW77611   1.160   1.001   8.185 -0.0532  0.5362 -0.2213
18952WAT      O77612  -4.551   2.187   8.269  0.1590 -0.2073 -0.2225
18952WAT     H177613  -4.457   2.197   8.255  0.2350 -0.5497  0.0072
18952WAT     H277614  -4.573   2.254   8.334 -0.0025  0.7051 -1.2009
18952WAT    EPW77615  -4.542   2.197   8.276  0.1478 -0.1322 -0.3214
18953WAT      O77616   0.001   2.278   2.128  0.0291  0.0010 -0.1143
18953WAT     H177617  -0.023   2.208   2.189 -0.1664 -0.0735 -0.2765
18953WAT     H277618  -0.075   2.336   2.127  0.1977  0.2241  0.0314
18953WAT    EPW77619  -0.012   2.276   2.136  0.0256  0.0206 -0.1165
18954WAT      O77620  -0.061   8.367   1.496 -1.0677  0.6210 -0.4009
18954WAT     H177621  -0.054   8.345   1.589  1.4975  0.5401 -0.5409
18954WAT     H277622  -0.129   8.309   1.463  0.3179 -1.8357  0.7879
18954WAT    EPW77623  -0.069   8.356   1.504 -0.5466  0.2861 -0.2626
18955WAT      O77624  -0.640   1.777   7.954 -0.3690 -0.3247 -0.1178
18955WAT     H177625  -0.731   1.748   7.948 -0.1586 -0.7410 -2.3804
18955WAT     H277626  -0.590   1.695   7.950  0.1311 -0.1029  1.1979
18955WAT    EPW77627  -0.645   1.762   7.952 -0.2753 -0.3504 -0.2427
18956WAT      O77628   5.666   5.615   5.283 -0.1349 -0.2385 -0.2839
18956WAT     H177629   5.616   5.536   5.302 -1.2451  0.0775 -1.7025
18956WAT     H277630   5.757   5.586   5.283 -0.4779 -1.3794 -0.1849
18956WAT    EPW77631   5.672   5.601   5.285 -0.3266 -0.3471 -0.4578
18957WAT      O77632  -2.356   7.601   4.618  0.3113 -0.1668  0.1234
18957WAT     H177633  -2.264   7.605   4.592  0.5056 -2.1574  0.3959
18957WAT     H277634  -2.396   7.675   4.572  1.7543 -0.1282 -1.1721
18957WAT    EPW77635  -2.349   7.611   4.608  0.5271 -0.4244 -0.0117
18958WAT      O77636  -3.874   9.469   8.433  0.5255 -0.0065 -0.0720
18958WAT     H177637  -3.849   9.410   8.362  0.4859  1.0762 -1.0230
18958WAT     H277638  -3.967   9.452   8.447  0.6777 -0.6667  0.1605
18958WAT    EPW77639  -3.883   9.459   8.425  0.5403  0.0491 -0.1669
18959WAT      O77640   3.011   7.297   8.117 -0.1640 -0.7092 -0.0073
18959WAT     H177641   3.083   7.317   8.177 -1.2050 -0.2236  1.1161
18959WAT     H277642   3.048   7.312   8.030  1.7251 -2.4739  0.4013
18959WAT    EPW77643   3.026   7.301   8.114 -0.0521 -0.8781  0.1950
18960WAT      O77644   4.592   4.050   0.590  0.8320 -0.1930 -1.5056
18960WAT     H177645   4.588   4.137   0.550 -2.7338  1.7605  2.3699
18960WAT     H277646   4.648   4.060   0.666 -0.5394 -0.8884 -0.3566
18960WAT    EPW77647   4.599   4.063   0.595  0.1807 -0.0269 -0.8429
18961WAT      O77648  -6.337   6.230   8.264 -0.1457 -0.3373  0.1155
18961WAT     H177649  -6.427   6.197   8.262  0.0796 -1.1371  1.7638
18961WAT     H277650  -6.299   6.201   8.181 -1.5301  0.4279 -0.8209
18961WAT    EPW77651  -6.344   6.222   8.253 -0.2985 -0.3421  0.2098
18962WAT      O77652  -1.984   4.981   0.633 -1.0486 -0.2461  0.6266
18962WAT     H177653  -1.995   4.889   0.656  1.1420 -0.9042 -0.6316
18962WAT     H277654  -2.071   5.009   0.603 -1.5807 -2.1312  0.3104
18962WAT    EPW77655  -1.997   4.973   0.632 -0.8299 -0.5817  0.4190
18963WAT      O77656  -1.823  10.044   0.440  0.7370  0.7390 -0.0373
18963WAT     H177657  -1.783  10.099   0.507  0.2100 -0.0531  0.9678
18963WAT     H277658  -1.804  10.089   0.358  3.2066  0.6807  0.4126
18963WAT    EPW77659  -1.815  10.057   0.438  0.9933  0.6270  0.1546
18964WAT      O77660   2.325   2.201   4.593 -0.1536 -0.4195 -0.1742
18964WAT     H177661   2.400   2.226   4.540  0.3538 -0.5493  0.4628
18964WAT     H277662   2.363   2.155   4.668 -0.9123 -1.1021 -0.1875
18964WAT    EPW77663   2.340   2.198   4.596 -0.1867 -0.5267 -0.0918
18965WAT      O77664  -4.480  10.306   4.841 -0.7387  0.1003  0.5770
18965WAT     H177665  -4.410  10.300   4.776 -1.5587  0.1517 -0.3398
18965WAT     H277666  -4.445  10.264   4.919 -0.2342 -1.1990 -0.3299
18965WAT    EPW77667  -4.466  10.300   4.843 -0.7803 -0.0644  0.3362
18966WAT      O77668   1.660   6.794   6.028 -0.3217  0.0043  0.1501
18966WAT     H177669   1.698   6.708   6.044 -1.7741 -0.4149  1.5372
18966WAT     H277670   1.721   6.836   5.967  1.6902 -1.0663  1.3298
18966WAT    EPW77671   1.673   6.788   6.022 -0.2478 -0.1922  0.4888
18967WAT      O77672   1.611   8.270   8.718 -0.4081  0.6336 -0.0092
18967WAT     H177673   1.631   8.275   8.811 -0.3016  1.6715 -0.0781
18967WAT     H277674   1.602   8.361   8.690  2.9477  0.6098 -1.7172
18967WAT    EPW77675   1.613   8.283   8.726  0.0485  0.7677 -0.2437
18968WAT      O77676  -1.856   2.721   2.071 -0.0352  0.7686  0.1612
18968WAT     H177677  -1.877   2.743   2.162 -0.9074 -1.5855  0.6071
18968WAT     H277678  -1.884   2.797   2.021 -0.7567  1.5930  1.7427
18968WAT    EPW77679  -1.862   2.734   2.076 -0.2454  0.5668  0.4286
18969WAT      O77680   0.567   0.561   2.657  0.5303  0.3165  0.4547
18969WAT     H177681   0.546   0.559   2.564  0.6866 -1.2782  0.4397
18969WAT     H277682   0.483   0.557   2.701  0.5017  0.2345  0.3919
18969WAT    EPW77683   0.553   0.560   2.651  0.5471  0.0954  0.4444
18970WAT      O77684  -0.095   8.795   7.202  0.3911  0.1929  0.0371
18970WAT     H177685  -0.149   8.717   7.191  1.1612 -0.3336 -0.0195
18970WAT     H277686  -0.079   8.826   7.112  1.7868 -0.7672 -0.0818
18970WAT    EPW77687  -0.100   8.789   7.188  0.6768 -0.0033  0.0141
18971WAT      O77688   3.051   3.759   3.630  0.7652 -0.6939  0.3404
18971WAT     H177689   2.956   3.752   3.620  0.8427  1.0107 -2.3229
18971WAT     H277690   3.063   3.778   3.723 -1.3627 -2.2661  1.0251
18971WAT    EPW77691   3.040   3.760   3.641  0.4947 -0.6764  0.0794
18972WAT      O77692   6.104   0.262   3.363  0.6691 -0.5969 -0.5828
18972WAT     H177693   6.023   0.215   3.385  1.4838 -0.8297  2.2946
18972WAT     H277694   6.171   0.219   3.415  2.3602  0.7140 -1.5894
18972WAT    EPW77695   6.102   0.250   3.373  0.9995 -0.4547 -0.3361
18973WAT      O77696   3.023   6.277   5.871 -0.7599  0.1109 -0.1994
18973WAT     H177697   3.065   6.338   5.932  1.0467 -0.6103 -0.6627
18973WAT     H277698   2.932   6.270   5.903 -0.1015  0.3905  1.9064
18973WAT    EPW77699   3.016   6.284   5.884 -0.4348  0.0525  0.0172
18974WAT      O77700   1.571   9.248   5.011 -0.7971  0.4427 -0.5404
18974WAT     H177701   1.621   9.317   5.056 -0.2165 -0.4845  0.2604
18974WAT     H277702   1.500   9.227   5.071 -0.6372 -0.0696 -0.5337
18974WAT    EPW77703   1.568   9.255   5.025 -0.6995  0.2532 -0.4337
18975WAT      O77704   2.722   3.057   7.425 -0.2800  1.3008 -0.3809
18975WAT     H177705   2.780   3.012   7.486  0.4455  2.1895 -0.3901
18975WAT     H277706   2.654   3.095   7.480  0.0485  1.6135 -0.1898
18975WAT    EPW77707   2.721   3.056   7.440 -0.1409  1.4594 -0.3569
18976WAT      O77708   2.282   3.880   6.675 -0.0166 -0.3011  0.0868
18976WAT     H177709   2.194   3.870   6.711 -0.8003 -0.9923 -1.8730
18976WAT     H277710   2.300   3.796   6.633  0.4610  0.7167 -1.8486
18976WAT    EPW77711   2.273   3.868   6.675 -0.0570 -0.2580 -0.4270
18977WAT      O77712   3.383   5.106   8.860  0.3398 -0.4443 -0.7441
18977WAT     H177713   3.371   5.199   8.840 -1.3084 -0.4863 -0.1392
18977WAT     H277714   3.316   5.087   8.926 -0.3158 -2.3803 -1.8730
18977WAT    EPW77715   3.372   5.116   8.866  0.0360 -0.7052 -0.8135
18978WAT      O77716  -6.649   4.497   8.684 -0.0700  0.1177  0.6353
18978WAT     H177717  -6.571   4.499   8.739 -0.1601  1.1751  0.7526
18978WAT     H277718  -6.619   4.460   8.601  0.6757  0.9558  0.5173
18978WAT    EPW77719  -6.635   4.492   8.680  0.0165  0.3679  0.6356
18979WAT      O77720  -3.679   6.406   7.713  0.1199  0.5916  0.4738
18979WAT     H177721  -3.657   6.327   7.763 -0.5042 -1.3222 -2.0737
18979WAT     H277722  -3.768   6.427   7.741 -0.3760 -0.6906 -0.0277
18979WAT    EPW77723  -3.688   6.398   7.723 -0.0278  0.1700  0.0718
18980WAT      O77724  -2.595   0.994   8.739  0.4862  0.6542  0.0699
18980WAT     H177725  -2.661   1.029   8.680 -0.1787  0.6822  0.8084
18980WAT     H277726  -2.512   1.004   8.692  0.0884  1.5572 -0.4548
18980WAT    EPW77727  -2.593   1.000   8.725  0.3461  0.7770  0.0982
18981WAT      O77728  -1.951   9.615   4.692 -0.2186  0.2631 -0.7878
18981WAT     H177729  -1.894   9.605   4.616 -1.3140  1.4095 -1.8195
18981WAT     H277730  -1.902   9.673   4.751 -0.8597  2.5512 -2.3537
18981WAT    EPW77731  -1.937   9.621   4.689 -0.4477  0.7157 -1.1303
18982WAT      O77732   2.733   3.469   6.042 -0.5191 -0.4076 -0.3208
18982WAT     H177733   2.661   3.493   5.983 -1.2696  0.6049  0.9629
18982WAT     H277734   2.699   3.485   6.130  1.8149  1.7672  0.3168
18982WAT    EPW77735   2.719   3.474   6.046 -0.3103  0.0128 -0.0675
18983WAT      O77736   0.782   6.722   7.086 -0.1465 -0.4858 -0.1522
18983WAT     H177737   0.739   6.718   7.001 -0.4886  1.1415 -0.0928
18983WAT     H277738   0.726   6.779   7.138  0.7642 -0.3684  0.7281
18983WAT    EPW77739   0.769   6.729   7.082 -0.0715 -0.2556 -0.0281
18984WAT      O77740   3.901   7.531   7.035 -0.4288 -0.1334  0.2180
18984WAT     H177741   3.854   7.595   6.983 -3.0280 -2.2627 -0.2755
18984WAT     H277742   3.980   7.512   6.985 -0.5525  1.2415 -0.5471
18984WAT    EPW77743   3.906   7.537   7.022 -0.7880 -0.2329  0.0522
18985WAT      O77744   6.629   2.303   0.191  0.6451  0.3274  0.2557
18985WAT     H177745   6.653   2.237   0.126 -0.1860 -0.7996  1.0554
18985WAT     H277746   6.553   2.348   0.153 -0.6094 -1.1370  0.8991
18985WAT    EPW77747   6.622   2.300   0.178  0.3700 -0.0144  0.4461
18986WAT      O77748   1.968   6.577   6.546  0.1490  0.8907  0.2787
18986WAT     H177749   1.986   6.520   6.471  0.1685  1.9255 -0.5315
18986WAT     H277750   1.958   6.518   6.620 -3.1727 -0.5107 -1.0794
18986WAT    EPW77751   1.969   6.562   6.546 -0.2866  0.8423 -0.0074
18987WAT      O77752   6.829   3.047   3.936  0.0230  0.1648 -0.0380
18987WAT     H177753   6.775   3.027   4.012  0.4075  0.4230  0.3136
18987WAT     H277754   6.868   2.964   3.911 -0.0039  0.1001  0.1334
18987WAT    EPW77755   6.827   3.034   3.943  0.0701  0.1903  0.0310
18988WAT      O77756   0.879   0.059   6.286 -0.0536 -0.1422 -0.5906
18988WAT     H177757   0.792   0.076   6.322 -0.2493 -0.5668 -0.8475
18988WAT     H277758   0.919  -0.003   6.348  1.5961  2.9051  1.7009
18988WAT    EPW77759   0.873   0.053   6.299  0.1382  0.2037 -0.3221
18989WAT      O77760  -3.227   8.878   3.787  0.4692  0.2908  0.2971
18989WAT     H177761  -3.247   8.899   3.696 -1.2793  1.4482  0.8762
18989WAT     H277762  -3.134   8.897   3.797  0.3823  1.5048 -0.9249
18989WAT    EPW77763  -3.217   8.883   3.776  0.2272  0.6037  0.2122
18990WAT      O77764   6.249   6.774   3.470 -0.2628  0.2818 -0.2316
18990WAT     H177765   6.178   6.800   3.411  0.3115 -0.0666 -1.0929
18990WAT     H277766   6.204   6.729   3.542 -0.8719 -0.7458 -1.2104
18990WAT    EPW77767   6.234   6.771   3.472 -0.2673  0.1004 -0.4743
18991WAT      O77768   6.359   4.385   0.980  0.1141  0.4285 -0.4012
18991WAT     H177769   6.348   4.389   0.885  0.9038  0.2318 -0.5064
18991WAT     H277770   6.295   4.447   1.014  2.9907  4.2260 -1.2944
18991WAT    EPW77771   6.349   4.394   0.972  0.5977  0.9034 -0.5329
18992WAT      O77772  -1.685   3.933   8.161  0.6141  1.0898  1.5233
18992WAT     H177773  -1.771   3.929   8.119  0.4197  3.1289  1.6376
18992WAT     H277774  -1.670   3.844   8.193 -1.5488  0.7347  1.7029
18992WAT    EPW77775  -1.695   3.921   8.159  0.3031  1.3118  1.5616
18993WAT      O77776   4.682   4.972   6.555  0.1910  0.2807 -0.4619
18993WAT     H177777   4.708   5.057   6.518  0.9930  1.2654  2.1375
18993WAT     H277778   4.601   4.992   6.603  0.4248 -0.4085  0.2272
18993WAT    EPW77779   4.674   4.986   6.557  0.3276  0.3200 -0.0281
18994WAT      O77780  -0.710   1.816   2.827 -0.1328  0.2528  0.3604
18994WAT     H177781  -0.760   1.874   2.884 -0.7909 -1.7858  1.9335
18994WAT     H277782  -0.619   1.834   2.849 -0.3397  0.4705  1.0598
18994WAT    EPW77783  -0.705   1.826   2.837 -0.2469  0.0126  0.6602
18995WAT      O77784  -2.610   1.033   6.823  0.5467 -0.7057  0.3826
18995WAT     H177785  -2.629   1.016   6.730 -0.1794 -1.5258  0.6729
18995WAT     H277786  -2.535   0.978   6.842 -0.3080 -1.7878  0.6923
18995WAT    EPW77787  -2.602   1.024   6.813  0.3381 -0.9566  0.4618
18996WAT      O77788  -1.878   2.895   4.974  0.0461  0.2507 -0.0718
18996WAT     H177789  -1.928   2.822   4.938  0.2384  0.3608 -0.5717
18996WAT     H277790  -1.810   2.853   5.027 -1.1840  0.1221  1.4624
18996WAT    EPW77791  -1.876   2.880   4.976 -0.0907  0.2482  0.0646
18997WAT      O77792  -3.173   9.512   0.125  0.1984  0.0803 -1.2043
18997WAT     H177793  -3.221   9.496   0.206 -1.4420  1.1399 -1.9191
18997WAT     H277794  -3.107   9.577   0.149  0.0209  0.0531 -0.6259
18997WAT    EPW77795  -3.171   9.519   0.139 -0.0414  0.2160 -1.2223
18998WAT      O77796   0.025   6.813   1.471  0.5469  0.2449  0.8583
18998WAT     H177797   0.114   6.813   1.438  0.4702 -2.9054  0.3677
18998WAT     H277798  -0.029   6.788   1.396 -0.2115 -2.0346  2.0866
18998WAT    EPW77799   0.029   6.810   1.457  0.4368 -0.4709  0.9556
18999WAT      O77800   2.243   8.875   0.954  0.0533  0.4534 -0.4040
18999WAT     H177801   2.235   8.841   1.043 -0.2712  1.6489  0.0361
18999WAT     H277802   2.210   8.804   0.898 -3.3397  1.0020  0.6424
18999WAT    EPW77803   2.237   8.861   0.958 -0.4370  0.6833 -0.2079
19000WAT      O77804  -1.849   6.711   7.841  0.1762  0.2082  0.4879
19000WAT     H177805  -1.930   6.760   7.857 -1.5106 -2.0378 -0.5373
19000WAT     H277806  -1.862   6.627   7.885  0.4577 -1.4730 -2.3252
19000WAT    EPW77807  -1.861   6.706   7.849 -0.0091 -0.3097 -0.0184
19001WAT      O77808   4.334   3.751   3.613  0.1192 -0.0971  0.1066
19001WAT     H177809   4.291   3.686   3.557  1.1164 -0.1439 -0.6327
19001WAT     H277810   4.402   3.789   3.557 -1.0494  2.2774  0.2058
19001WAT    EPW77811   4.337   3.747   3.598  0.0966  0.2098  0.0222
19002WAT      O77812  -3.306   9.729   2.349  0.5682 -0.2639 -0.2265
19002WAT     H177813  -3.258   9.741   2.267  1.7915  0.6730  0.5782
19002WAT     H277814  -3.238   9.738   2.417 -0.6592  0.4887  0.9428
19002WAT    EPW77815  -3.290   9.732   2.347  0.5677 -0.0410  0.0339
19003WAT      O77816  -1.848   6.954   8.951 -0.0934  0.7145 -0.1119
19003WAT     H177817  -1.806   6.908   8.878  0.8209  1.5043 -0.1078
19003WAT     H277818  -1.804   7.038   8.955 -1.0564  1.2141  0.5105
19003WAT    EPW77819  -1.837   6.959   8.942 -0.0998  0.8845 -0.0291
19004WAT      O77820  -3.678   4.098   7.411  0.7168  0.1351 -0.2107
19004WAT     H177821  -3.768   4.081   7.440  0.8110 -1.3724 -0.6879
19004WAT     H277822  -3.686   4.119   7.318  0.7741  1.0826 -0.0115
19004WAT    EPW77823  -3.691   4.098   7.403  0.7368  0.0610 -0.2472
19005WAT      O77824   2.116   0.545   4.071  0.4287  0.2452 -0.1645
19005WAT     H177825   2.048   0.591   4.021 -0.6984 -1.3148 -0.1643
19005WAT     H277826   2.188   0.533   4.009  1.5694  3.5461  0.3498
19005WAT    EPW77827   2.116   0.549   4.056  0.4305  0.4748 -0.0966
19006WAT      O77828   2.675   1.600   5.466 -0.7509 -0.5086 -0.4053
19006WAT     H177829   2.734   1.665   5.428  2.8387 -0.9614  3.6179
19006WAT     H277830   2.707   1.516   5.432  2.3893 -0.9042  2.9087
19006WAT    EPW77831   2.687   1.598   5.456  0.1367 -0.6205  0.5624
19007WAT      O77832   4.153   6.233   4.695  0.7532 -0.3754 -0.2297
19007WAT     H177833   4.230   6.198   4.650 -0.2018  0.2335 -2.4335
19007WAT     H277834   4.113   6.292   4.632 -1.9017 -1.1731  0.5841
19007WAT    EPW77835   4.158   6.236   4.681  0.2770 -0.4003 -0.4132
19008WAT      O77836  -1.918   9.262   8.600 -0.1259 -0.4932 -0.2925
19008WAT     H177837  -1.933   9.296   8.688 -0.0422  1.5182 -1.0057
19008WAT     H277838  -1.900   9.169   8.613 -3.3701 -1.0383  1.5283
19008WAT    EPW77839  -1.918   9.254   8.613 -0.5427 -0.2999 -0.1464
19009WAT      O77840  -0.048   2.700   2.106  0.0531  0.1400  0.3807
19009WAT     H177841  -0.083   2.738   2.187 -0.8148 -0.9097  0.5132
19009WAT     H277842  -0.099   2.741   2.036 -2.1293 -1.9779  0.6102
19009WAT    EPW77843  -0.059   2.710   2.107 -0.3492 -0.2779  0.4284
19010WAT      O77844  -2.723   9.233   1.666  0.0444 -0.2561  0.2823
19010WAT     H177845  -2.813   9.262   1.655 -0.7836 -3.2606 -2.2966
19010WAT     H277846  -2.676   9.276   1.594 -0.3098 -1.8986 -0.9842
19010WAT    EPW77847  -2.728   9.243   1.655 -0.1116 -0.8693 -0.2249
19011WAT      O77848   5.140   9.380   1.447  0.4648  0.2891 -0.0066
19011WAT     H177849   5.234   9.376   1.462  0.4704  0.8307  0.1426
19011WAT     H277850   5.125   9.322   1.372  0.8294 -0.2651  0.3412
19011WAT    EPW77851   5.150   9.372   1.439  0.5136  0.2871  0.0589
19012WAT      O77852   5.016   2.700   4.192 -0.0348 -0.3540 -0.0467
19012WAT     H177853   4.924   2.725   4.194  0.4240  1.4281  1.8325
19012WAT     H277854   5.023   2.628   4.255 -0.7751 -3.4141 -3.1647
19012WAT    EPW77855   5.005   2.694   4.201 -0.0718 -0.5225 -0.2100
19013WAT      O77856   5.929   6.145   1.225  0.3191  0.5999 -0.7127
19013WAT     H177857   5.972   6.224   1.259  0.9813  0.2975 -0.8476
19013WAT     H277858   5.849   6.138   1.277 -0.6431  2.3352 -1.8459
19013WAT    EPW77859   5.924   6.155   1.236  0.2797  0.7889 -0.8799
19014WAT      O77860  -3.281   9.583   1.680  0.3952 -0.1281  0.1105
19014WAT     H177861  -3.277   9.565   1.774  0.1245  0.1014  0.1664
19014WAT     H277862  -3.358   9.536   1.649  1.3318 -1.4640 -0.2832
19014WAT    EPW77863  -3.291   9.575   1.688  0.4830 -0.2742  0.0659
19015WAT      O77864   5.262   9.603   0.559  0.1141  0.2261 -0.0205
19015WAT     H177865   5.256   9.577   0.468 -0.5592  0.6588 -0.1058
19015WAT     H277866   5.232   9.694   0.560 -4.1941 -0.9926  1.2476
19015WAT    EPW77867   5.258   9.612   0.547 -0.5426  0.1221  0.1355
19016WAT      O77868  -4.421   6.934   7.530  0.0082 -0.3294 -0.0193
19016WAT     H177869  -4.461   6.960   7.447 -0.1540  1.0267  0.4566
19016WAT     H277870  -4.366   7.009   7.554  0.1801 -0.7764  1.0151
19016WAT    EPW77871  -4.419   6.947   7.522  0.0093 -0.2096  0.1800
19017WAT      O77872  -5.230   6.088   5.243  0.1843  0.1747  0.0663
19017WAT     H177873  -5.256   6.084   5.335  1.5392 -2.6468  0.4289
19017WAT     H277874  -5.293   6.033   5.198  1.3891 -1.1027 -0.1259
19017WAT    EPW77875  -5.241   6.080   5.249  0.5219 -0.3657  0.0887
19018WAT      O77876  -2.530   3.804   8.146 -0.1638  0.6554  0.1165
19018WAT     H177877  -2.458   3.756   8.106 -0.6087 -1.5858  1.8414
19018WAT     H277878  -2.489   3.884   8.179  1.1673  0.2445 -0.4534
19018WAT    EPW77879  -2.515   3.809   8.145 -0.0470  0.3057  0.2685
19019WAT      O77880  -2.411   9.699   7.990 -0.7332 -0.1804  0.8730
19019WAT     H177881  -2.400   9.629   7.925  0.2327 -1.4085  2.2891
19019WAT     H277882  -2.420   9.779   7.938 -1.1127 -1.2500 -0.7846
19019WAT    EPW77883  -2.411   9.700   7.974 -0.6559 -0.4840  0.8414
19020WAT      O77884   1.583   5.829   7.072  0.4085  0.2574  0.0911
19020WAT     H177885   1.527   5.786   7.007  0.7726 -0.3272  0.1558
19020WAT     H277886   1.547   5.803   7.156  1.2370 -0.7699  0.1460
19020WAT    EPW77887   1.571   5.820   7.074  0.5658  0.0451  0.1068
19021WAT      O77888  -0.704   5.294   0.916 -0.1930 -0.5155 -0.2637
19021WAT     H177889  -0.727   5.368   0.972  2.2882 -1.3451  2.0860
19021WAT     H277890  -0.646   5.331   0.850 -1.1530  0.0594 -0.8057
19021WAT    EPW77891  -0.699   5.309   0.915  0.0076 -0.5493 -0.0252
19022WAT      O77892   3.038   7.277   0.381  0.5654  0.3209 -0.5436
19022WAT     H177893   2.963   7.247   0.331 -2.6250 -2.6717  5.1085
19022WAT     H277894   3.013   7.364   0.412  0.1005 -0.0429  0.1094
19022WAT    EPW77895   3.025   7.285   0.378  0.0833 -0.1218  0.2880
19023WAT      O77896   2.357   4.797   6.611  0.7775 -0.4693  0.4487
19023WAT     H177897   2.339   4.725   6.550  2.4760 -0.7963  0.2772
19023WAT     H277898   2.452   4.795   6.622  0.9811  2.2375 -0.1749
19023WAT    EPW77899   2.367   4.787   6.604  1.0283 -0.1557  0.3438
19024WAT      O77900   2.468   3.907   0.097 -0.6397  0.4478  0.1080
19024WAT     H177901   2.414   3.979   0.131 -0.2491  0.3498  0.9521
19024WAT     H277902   2.558   3.936   0.110 -0.4839  0.1238 -0.2439
19024WAT    EPW77903   2.472   3.921   0.103 -0.5677  0.3921  0.1729
19025WAT      O77904  -3.578   2.140   7.750  0.0710 -0.3713 -0.4140
19025WAT     H177905  -3.644   2.208   7.731  0.5767  0.1946 -0.1914
19025WAT     H277906  -3.629   2.066   7.782 -0.5957 -0.5636 -1.8806
19025WAT    EPW77907  -3.594   2.139   7.752  0.0497 -0.3221 -0.5779
19026WAT      O77908  -0.809   3.634   2.219 -0.9849 -0.7922  0.0826
19026WAT     H177909  -0.898   3.665   2.204 -1.2937 -0.8370  1.6642
19026WAT     H277910  -0.816   3.578   2.295  0.8132  1.3911  2.0042
19026WAT    EPW77911  -0.822   3.631   2.227 -0.7885 -0.5102  0.5445
19027WAT      O77912   7.373   8.191   0.108 -0.2123 -0.1427  0.0752
19027WAT     H177913   7.364   8.175   0.014 -1.4347  1.9276 -0.2339
19027WAT     H277914   7.367   8.105   0.148 -2.0099 -0.8770 -1.6166
19027WAT    EPW77915   7.371   8.178   0.101 -0.6108  0.0334 -0.1887
19028WAT      O77916  -1.054   2.613   7.701 -0.1916 -0.1401 -0.5236
19028WAT     H177917  -0.986   2.589   7.639 -0.4786 -0.2357 -0.8073
19028WAT     H277918  -1.026   2.697   7.736  1.1881 -1.1713  1.0132
19028WAT    EPW77919  -1.042   2.621   7.698 -0.0475 -0.2887 -0.3583
19029WAT      O77920  -1.708   4.721   0.752  0.1417  0.0087  0.0812
19029WAT     H177921  -1.736   4.671   0.676  1.1042  0.9347 -0.9057
19029WAT     H277922  -1.613   4.712   0.753  0.2388  0.9871  0.4707
19029WAT    EPW77923  -1.699   4.713   0.742  0.2814  0.2599  0.0024
19030WAT      O77924   7.387   5.362   1.920  0.2395 -0.2378 -0.3479
19030WAT     H177925   7.480   5.342   1.927  0.1783 -0.5074 -0.2642
19030WAT     H277926   7.348   5.321   1.998 -0.2641 -2.0628 -1.4912
19030WAT    EPW77927   7.394   5.354   1.931  0.1650 -0.5140 -0.4877
19031WAT      O77928   6.273   0.550   4.983  0.1137 -0.1616  0.7327
19031WAT     H177929   6.279   0.645   4.988  0.8639 -0.2180  1.0524
19031WAT     H277930   6.249   0.532   4.892 -2.5944  0.4199  1.2470
19031WAT    EPW77931   6.271   0.560   4.971 -0.1447 -0.0924  0.8426
19032WAT      O77932   4.652  10.243   2.095 -0.2655  0.1182  0.2063
19032WAT     H177933   4.608  10.170   2.137  0.4124  0.0482  0.8207
19032WAT     H277934   4.651  10.222   2.002  0.2359 -0.8507  0.4064
19032WAT    EPW77935   4.646  10.231   2.088 -0.1099 -0.0191  0.3139
19033WAT      O77936  -5.063   9.298   8.206 -0.4528 -0.7461  0.1266
19033WAT     H177937  -5.032   9.366   8.266 -0.3267  0.5272 -1.3205
19033WAT     H277938  -5.158   9.297   8.217 -0.6253  0.8178 -0.9636
19033WAT    EPW77939  -5.071   9.307   8.216 -0.4590 -0.3715 -0.2084
19034WAT      O77940   5.513   7.359   2.115 -0.0557  0.2925 -0.3812
19034WAT     H177941   5.483   7.285   2.062  0.0048 -0.3271  0.4161
19034WAT     H277942   5.606   7.366   2.096 -0.1870  0.5644 -0.9282
19034WAT    EPW77943   5.521   7.350   2.106 -0.0648  0.2468 -0.3482
19035WAT      O77944   0.141   8.987   8.826  0.2632  0.5614  0.1728
19035WAT     H177945   0.090   9.064   8.800 -0.2219  1.0169  2.2850
19035WAT     H277946   0.092   8.913   8.789 -1.9607  0.9829  2.0290
19035WAT    EPW77947   0.128   8.988   8.818 -0.0941  0.6771  0.6967
19036WAT      O77948   2.632   2.705   3.574 -0.9804 -0.4619  0.3976
19036WAT     H177949   2.636   2.613   3.601  0.3863  0.2623  3.0901
19036WAT     H277950   2.717   2.741   3.600 -0.0343  0.8698 -3.8069
19036WAT    EPW77951   2.644   2.697   3.581 -0.6752 -0.1909  0.1981
19037WAT      O77952  -3.657   8.629   0.989  0.4550 -0.9362 -0.3391
19037WAT     H177953  -3.656   8.581   0.906  1.5858 -0.1857 -0.7804
19037WAT     H277954  -3.589   8.696   0.979 -0.9968  0.6981  0.2937
19037WAT    EPW77955  -3.648   8.631   0.977  0.4129 -0.6218 -0.3138
19038WAT      O77956   4.924   5.254   5.552  0.2981  0.8095 -0.0873
19038WAT     H177957   4.981   5.206   5.492  1.2778 -1.7652  2.6464
19038WAT     H277958   4.925   5.343   5.519  0.5019 -0.4411 -3.9911
19038WAT    EPW77959   4.932   5.259   5.540  0.4544  0.3049 -0.2418
19039WAT      O77960   0.961   6.559   1.659  0.2036 -0.4030 -0.1876
19039WAT     H177961   0.907   6.594   1.730  0.6388  0.4785 -0.2807
19039WAT     H277962   1.050   6.585   1.681  0.4864 -1.0742 -0.5002
19039WAT    EPW77963   0.966   6.567   1.671  0.2983 -0.3753 -0.2411
19040WAT      O77964  -0.325   5.013   4.092  0.2493  0.2166  0.7169
19040WAT     H177965  -0.397   4.963   4.053  0.9628 -2.1612  2.2791
19040WAT     H277966  -0.267   5.032   4.018  0.0889 -1.5240  0.1074
19040WAT    EPW77967  -0.327   5.009   4.077  0.3222 -0.3266  0.8426
19041WAT      O77968   3.959   3.778   4.685  0.3637 -0.3194 -0.9496
19041WAT     H177969   3.992   3.849   4.740 -1.0561 -1.9284  2.2797
19041WAT     H277970   3.991   3.698   4.728 -3.7361 -1.8056 -0.2359
19041WAT    EPW77971   3.968   3.777   4.698 -0.3643 -0.7277 -0.4294
19042WAT      O77972  -4.460   8.110   8.732 -0.3122  0.0114 -0.1172
19042WAT     H177973  -4.533   8.092   8.791 -0.7176 -0.4401 -0.7360
19042WAT     H277974  -4.422   8.023   8.714  2.3731  0.4634  2.6409
19042WAT    EPW77975  -4.464   8.096   8.737 -0.0114  0.0114  0.1650
19043WAT      O77976  -1.369   4.028   6.712  0.3603  0.4565 -0.2065
19043WAT     H177977  -1.282   4.062   6.732  0.1526  1.3505 -0.7731
19043WAT     H277978  -1.385   4.056   6.622  0.3375 -1.4954 -0.8566
19043WAT    EPW77979  -1.360   4.036   6.703  0.3299  0.3171 -0.3669
19044WAT      O77980   3.839   2.308   0.585  0.3438 -0.4279 -0.1114
19044WAT     H177981   3.869   2.390   0.546  0.9898 -1.1484 -1.1947
19044WAT     H277982   3.764   2.282   0.531  1.5728 -1.7074 -1.2887
19044WAT    EPW77983   3.833   2.315   0.573  0.5912 -0.6918 -0.4095
19045WAT      O77984   1.124   0.571   6.799 -1.0610  0.1345 -0.0829
19045WAT     H177985   1.109   0.636   6.868 -1.6264  0.2501 -0.3068
19045WAT     H277986   1.188   0.612   6.741  1.0909 -0.8080  1.4885
19045WAT    EPW77987   1.130   0.585   6.801 -0.8517  0.0254  0.0947
19046WAT      O77988   3.006   1.594   7.151 -0.1832 -0.1334  0.3339
19046WAT     H177989   3.078   1.619   7.093 -0.2473 -1.7841 -0.5434
19046WAT     H277990   3.049   1.561   7.229 -0.0829  1.5171  1.0128
19046WAT    EPW77991   3.021   1.593   7.153 -0.1785 -0.1335  0.3078
19047WAT      O77992  -3.599   9.308   4.305  0.1073 -0.6590 -0.5491
19047WAT     H177993  -3.585   9.268   4.390  0.5084 -0.5458 -0.5637
19047WAT     H277994  -3.585   9.237   4.242 -3.5111 -1.7130 -0.4380
19047WAT    EPW77995  -3.595   9.293   4.308 -0.3170 -0.7830 -0.5362
19048WAT      O77996  -0.110   1.938   4.583  0.5567  0.1616  0.1130
19048WAT     H177997  -0.135   1.909   4.671  2.1959  1.8649  1.2207
19048WAT     H277998  -0.049   1.871   4.552  2.0738  0.8609  1.4424
19048WAT    EPW77999  -0.106   1.925   4.591  0.9730  0.4785  0.4346
19049WAT      O78000   2.804  10.072   4.683 -0.4908 -0.8578  0.2330
19049WAT     H178001   2.732  10.015   4.709  0.3138 -1.3212  1.6070
19049WAT     H278002   2.769  10.161   4.692 -1.0890 -1.0914  0.2289
19049WAT    EPW78003   2.790  10.076   4.688 -0.4635 -0.9499  0.4137
19050WAT      O78004   5.436   9.432   1.717 -0.1227  0.2227  0.6955
19050WAT     H178005   5.378   9.507   1.733 -1.0891  0.4680 -3.1174
19050WAT     H278006   5.381   9.355   1.732 -0.2290  0.3518  0.9746
19050WAT    EPW78007   5.421   9.432   1.721 -0.2644  0.2723  0.2294
19051WAT      O78008   5.071   6.454   3.914  0.4504 -0.5234  0.0299
19051WAT     H178009   5.052   6.546   3.931 -0.7867 -0.8454  0.5167
19051WAT     H278010   5.162   6.443   3.940  0.2921  0.3279  1.0340
19051WAT    EPW78011   5.080   6.464   3.920  0.2666 -0.4537  0.2265
19052WAT      O78012  -4.507   5.248   8.758  0.8541  0.5095  0.2854
19052WAT     H178013  -4.433   5.296   8.721 -0.0171  1.3054 -0.4722
19052WAT     H278014  -4.473   5.210   8.839  1.8636  1.5475  0.3707
19052WAT    EPW78015  -4.493   5.249   8.764  0.8726  0.7515  0.1969
19053WAT      O78016   1.955   6.147   7.973 -0.4049  0.3222  0.1949
19053WAT     H178017   1.936   6.224   8.026 -1.3173  0.0579  0.2637
19053WAT     H278018   2.006   6.090   8.031  0.5993  1.0164  0.0210
19053WAT    EPW78019   1.959   6.150   7.988 -0.3929  0.3791  0.1812
19054WAT      O78020   5.093   1.436   1.972  0.1745 -0.1324  0.6522
19054WAT     H178021   5.183   1.466   1.957  0.0099 -0.2211 -0.6298
19054WAT     H278022   5.088   1.352   1.926 -0.9405  0.5155 -0.5028
19054WAT    EPW78023   5.104   1.429   1.964  0.0057 -0.0587  0.3307
19055WAT      O78024   2.897   0.304   6.713  0.2512 -0.6814  0.6596
19055WAT     H178025   2.818   0.355   6.730 -0.2380 -0.8666 -0.9425
19055WAT     H278026   2.929   0.281   6.800 -0.4888  0.8511  1.3841
19055WAT    EPW78027   2.891   0.308   6.727  0.0890 -0.5037  0.5436
19056WAT      O78028  -1.342   8.782   4.899  0.2685 -0.1661 -0.4679
19056WAT     H178029  -1.247   8.791   4.897  0.3198 -0.2607  0.7268
19056WAT     H278030  -1.362   8.752   4.988 -0.8877 -0.0636 -0.6674
19056WAT    EPW78031  -1.332   8.779   4.910  0.1227 -0.1655 -0.3366
19057WAT      O78032   5.878   4.761   4.973 -0.6877 -0.4461  0.2635
19057WAT     H178033   5.822   4.835   4.998 -1.2518 -0.2853 -1.3607
19057WAT     H278034   5.823   4.684   4.985 -0.3692 -0.5475  1.1668
19057WAT    EPW78035   5.863   4.761   4.978 -0.7203 -0.4382  0.1686
19058WAT      O78036  -5.521   4.933   6.393  0.2234  0.2165  0.4474
19058WAT     H178037  -5.553   4.869   6.330  0.9427 -0.1624  0.4582
19058WAT     H278038  -5.493   4.881   6.468 -1.0978  0.6840  1.3217
19058WAT    EPW78039  -5.522   4.918   6.395  0.1440  0.2282  0.5643
19059WAT      O78040   3.552   7.335   2.128  0.1966 -0.2649 -0.1950
19059WAT     H178041   3.509   7.258   2.165 -4.1126  1.7914 -0.3872
19059WAT     H278042   3.532   7.331   2.035  0.8451  0.5491 -0.3821
19059WAT    EPW78043   3.544   7.324   2.121 -0.2861  0.1135 -0.2450
19060WAT      O78044  -2.258   5.351   7.062 -0.2578  0.0810  1.0091
19060WAT     H178045  -2.350   5.342   7.038 -0.4687  3.3821 -0.0306
19060WAT     H278046  -2.257   5.422   7.126  1.6043  0.7463  0.3057
19060WAT    EPW78047  -2.270   5.360   7.067 -0.0401  0.6044  0.7792
19061WAT      O78048  -4.033   5.525   8.824  0.1767 -0.0030 -1.0667
19061WAT     H178049  -4.093   5.600   8.824  0.2882  0.0889 -0.3387
19061WAT     H278050  -4.089   5.451   8.802 -0.2294  0.0747 -0.3457
19061WAT    EPW78051  -4.048   5.526   8.821  0.1378  0.0193 -0.8755
19062WAT      O78052  -2.897   0.502   6.192  0.1717  0.0014 -1.3718
19062WAT     H178053  -2.990   0.491   6.173  0.1539 -4.0755  0.0782
19062WAT     H278054  -2.853   0.480   6.110 -0.0929  1.8448 -2.0345
19062WAT    EPW78055  -2.903   0.497   6.179  0.1345 -0.2932 -1.2679
19063WAT      O78056   0.491   8.994   2.700 -0.9229  0.7318 -0.2810
19063WAT     H178057   0.430   8.921   2.695  0.0149 -0.0646 -0.4310
19063WAT     H278058   0.532   8.997   2.613  0.8063 -0.1569  0.4485
19063WAT    EPW78059   0.488   8.985   2.688 -0.5711  0.5093 -0.2047
19064WAT      O78060  -3.073   4.496   8.815 -0.3671  0.8896  0.5098
19064WAT     H178061  -3.021   4.466   8.889 -0.0891  1.3854  0.5194
19064WAT     H278062  -3.135   4.559   8.853 -0.5906  0.7349  0.4067
19064WAT    EPW78063  -3.075   4.500   8.830 -0.3600  0.9346  0.4978
19065WAT      O78064   1.001   8.980   3.144  0.4493 -0.0635  0.2520
19065WAT     H178065   0.947   9.052   3.111 -1.0973 -1.1276  0.3950
19065WAT     H278066   1.053   8.953   3.068  0.1406  0.3903 -0.1301
19065WAT    EPW78067   1.001   8.986   3.130  0.2046 -0.1435  0.2204
19066WAT      O78068  -1.336   4.491   7.098  0.0084  0.4512 -0.3208
19066WAT     H178069  -1.334   4.580   7.063  2.3949  0.1816 -1.0277
19066WAT     H278070  -1.297   4.500   7.185 -0.9769  0.2734  0.1526
19066WAT    EPW78071  -1.331   4.504   7.105  0.1932  0.3922 -0.3517
19067WAT      O78072   2.559   2.129   2.080  0.3964  0.5805 -0.6099
19067WAT     H178073   2.628   2.196   2.081  0.3481  0.7884 -3.5337
19067WAT     H278074   2.545   2.108   2.172  4.1118  0.7920  0.1546
19067WAT    EPW78075   2.566   2.135   2.092  0.8801  0.6357 -0.8948
19068WAT      O78076  -1.465   0.773   3.404 -0.6099  0.7686  1.0271
19068WAT     H178077  -1.458   0.678   3.400 -3.0764  0.5566  0.1725
19068WAT     H278078  -1.382   0.801   3.441  0.2827 -1.6897  1.0829
19068WAT    EPW78079  -1.453   0.764   3.408 -0.8174  0.4164  0.9216
19069WAT      O78080  -5.178   9.211   5.265  0.3558  0.5967 -0.4471
19069WAT     H178081  -5.164   9.120   5.289 -2.0354  0.5708  1.1887
19069WAT     H278082  -5.266   9.213   5.227  1.4390  1.8084 -3.1456
19069WAT    EPW78083  -5.188   9.199   5.263  0.1833  0.7529 -0.5872
19070WAT      O78084  -4.256   8.172   4.466  0.3420  0.6633  0.6051
19070WAT     H178085  -4.232   8.090   4.422 -3.5300 -0.8718  0.9460
19070WAT     H278086  -4.183   8.189   4.526  2.5486 -0.9622 -1.4146
19070WAT    EPW78087  -4.243   8.164   4.468  0.1223  0.2465  0.3836
19071WAT      O78088   1.272   6.013   7.439 -0.2503 -0.3655 -0.0011
19071WAT     H178089   1.179   6.019   7.461 -0.3882  0.6471 -0.8017
19071WAT     H278090   1.296   5.924   7.465 -1.3088 -0.4710  0.7016
19071WAT    EPW78091   1.263   6.002   7.445 -0.4082 -0.2458 -0.0138
19072WAT      O78092   5.750   7.974   2.185 -0.3327 -0.3840  0.3587
19072WAT     H178093   5.758   8.062   2.223 -3.3969  0.5118 -0.7698
19072WAT     H278094   5.744   7.916   2.261  0.2040  0.5517  1.1423
19072WAT    EPW78095   5.750   7.978   2.200 -0.6661 -0.1426  0.3133
19073WAT      O78096   1.602   4.817   5.148  0.0155  1.0981  0.3220
19073WAT     H178097   1.567   4.782   5.066 -1.9490 -0.9412  1.9167
19073WAT     H278098   1.592   4.912   5.139 -0.9814  0.8703 -1.4306
19073WAT    EPW78099   1.596   4.825   5.136 -0.3751  0.7989  0.3014
19074WAT      O78100  -2.708   2.644   4.864  0.0374 -0.2516 -0.5036
19074WAT     H178101  -2.782   2.603   4.820 -2.3603  2.1537  1.0244
19074WAT     H278102  -2.721   2.738   4.851  1.7698  0.3208  1.4159
19074WAT    EPW78103  -2.719   2.651   4.856 -0.0503  0.1410 -0.0489
19075WAT      O78104   5.075   3.015   4.389  0.0526  0.3348  0.6045
19075WAT     H178105   5.075   3.031   4.295  1.7531  2.3902  0.8924
19075WAT     H278106   4.985   3.034   4.416 -1.4551 -3.5014 -0.9487
19075WAT    EPW78107   5.063   3.020   4.380  0.0780  0.1000  0.4375
19076WAT      O78108   4.147   4.371   2.330 -0.2748 -0.4536 -0.0722
19076WAT     H178109   4.111   4.457   2.312  1.0459  0.0573 -0.4051
19076WAT     H278110   4.099   4.312   2.271 -0.8644  0.1135 -0.1726
19076WAT    EPW78111   4.136   4.375   2.320 -0.1783 -0.3116 -0.1293
19077WAT      O78112  -5.457   8.364   7.583 -0.3725 -0.2519 -0.1083
19077WAT     H178113  -5.423   8.370   7.493 -2.2696  1.8676 -0.8088
19077WAT     H278114  -5.381   8.375   7.639  0.4223  2.6865 -1.5667
19077WAT    EPW78115  -5.443   8.366   7.578 -0.5178  0.4148 -0.3932
19078WAT      O78116   7.705   0.895   0.267 -0.1708 -0.5094  0.6832
19078WAT     H178117   7.648   0.818   0.269  0.7834 -1.2384  0.7299
19078WAT     H278118   7.736   0.904   0.358 -1.4004  0.8128  0.9980
19078WAT    EPW78119   7.702   0.886   0.279 -0.2069 -0.4312  0.7309
19079WAT      O78120   7.970   1.660   3.415  0.1054  0.4963  0.0672
19079WAT     H178121   7.920   1.735   3.384  0.1481  0.4049 -0.2311
19079WAT     H278122   7.906   1.603   3.457 -0.2423 -0.1318 -1.2527
19079WAT    EPW78123   7.955   1.662   3.417  0.0651  0.4014 -0.1463
19080WAT      O78124  -1.253   8.449   7.646  0.5490  0.0304 -0.5897
19080WAT     H178125  -1.262   8.354   7.658 -0.3321  0.2668  0.8536
19080WAT     H278126  -1.163   8.467   7.675  0.7129 -0.3512 -0.8442
19080WAT    EPW78127  -1.242   8.439   7.652  0.4544  0.0110 -0.4330
19081WAT      O78128   3.450   8.760   5.412  0.4070  0.1589  0.0052
19081WAT     H178129   3.388   8.690   5.435  1.6872 -0.6375  1.1917
19081WAT     H278130   3.422   8.835   5.464 -0.7366  0.4262 -0.9695
19081WAT    EPW78131   3.438   8.761   5.422  0.4250  0.0892  0.0329
19082WAT      O78132  -4.183   1.154   7.907 -0.6620  0.9705 -0.2448
19082WAT     H178133  -4.195   1.060   7.889  1.2054  1.0543 -2.4495
19082WAT     H278134  -4.097   1.159   7.947 -1.6052  1.6188  1.8233
19082WAT    EPW78135  -4.173   1.142   7.910 -0.5400  1.0670 -0.2627
19083WAT      O78136   1.037   7.518   2.189 -0.2217 -0.0549 -0.6276
19083WAT     H178137   1.057   7.586   2.124  1.4622 -0.8837 -1.0420
19083WAT     H278138   1.087   7.442   2.159 -0.4503 -0.8478  0.9377
19083WAT    EPW78139   1.046   7.517   2.176 -0.0297 -0.2687 -0.4759
19084WAT      O78140   4.160   9.099   1.399 -0.2450  0.1024 -0.6578
19084WAT     H178141   4.187   9.039   1.329 -2.2223 -0.2574 -1.1691
19084WAT     H278142   4.126   9.041   1.467 -1.4517  0.5634 -0.8358
19084WAT    EPW78143   4.159   9.083   1.398 -0.6652  0.1159 -0.7487
19085WAT      O78144   0.705   0.555   6.312  0.3626  0.2164  0.7944
19085WAT     H178145   0.788   0.580   6.271 -0.5022  1.7122 -0.1689
19085WAT     H278146   0.667   0.491   6.252  0.4968  0.0766  0.8590
19085WAT    EPW78147   0.711   0.550   6.298  0.2662  0.3953  0.6759
19086WAT      O78148  -0.978   1.621   4.615  0.2077  0.0669 -0.6314
19086WAT     H178149  -0.965   1.697   4.557 -1.6806  2.7794  2.2148
19086WAT     H278150  -0.898   1.619   4.668  0.9003 -0.9423 -1.6639
19086WAT    EPW78151  -0.965   1.631   4.614  0.0500  0.2915 -0.3922
19087WAT      O78152   1.336   8.353   4.002 -0.1794  0.4638 -0.0485
19087WAT     H178153   1.400   8.371   3.934 -2.1004  2.2015 -1.5185
19087WAT     H278154   1.328   8.258   4.002  0.7002  0.3594 -1.4495
19087WAT    EPW78155   1.343   8.343   3.993 -0.3167  0.6790 -0.4270
19088WAT      O78156   0.160   6.069   4.111  0.2598  0.2044 -0.9095
19088WAT     H178157   0.120   5.983   4.099  0.2021 -0.0423  0.8589
19088WAT     H278158   0.127   6.099   4.196 -2.6769  3.5768 -2.9132
19088WAT    EPW78159   0.150   6.062   4.121 -0.1352  0.6168 -0.9406
19089WAT      O78160  -0.988   7.999   6.094 -0.1519 -0.1570  0.7572
19089WAT     H178161  -0.956   7.988   6.004 -1.7282  0.0898  0.1486
19089WAT     H278162  -0.908   7.999   6.147  1.0094  2.1149 -0.8540
19089WAT    EPW78163  -0.973   7.997   6.089 -0.2066  0.1752  0.4644
19090WAT      O78164  -6.544   9.674   8.421  0.7383 -0.5579  1.1107
19090WAT     H178165  -6.598   9.753   8.428  0.7828 -0.4174  0.0784
19090WAT     H278166  -6.473   9.700   8.362 -0.1075 -1.8149 -0.5338
19090WAT    EPW78167  -6.542   9.688   8.414  0.6328 -0.7052  0.7577
19091WAT      O78168   0.838   8.833   2.042  0.7350  1.2911  0.2893
19091WAT     H178169   0.845   8.876   1.956  0.8716  1.7158  0.5123
19091WAT     H278170   0.746   8.848   2.067  0.0013 -0.8851 -0.8495
19091WAT    EPW78171   0.827   8.841   2.034  0.6562  1.0600  0.1686
19092WAT      O78172  -6.424  10.067   5.540  0.3981  0.3774 -0.2446
19092WAT     H178173  -6.498  10.064   5.600  1.5501 -1.1202  1.2077
19092WAT     H278174  -6.352  10.100   5.593  1.6306 -1.7256 -0.4885
19092WAT    EPW78175  -6.424  10.071   5.555  0.7126 -0.0973 -0.0851
19093WAT      O78176   6.990   2.508   3.671  1.0959 -0.5485  0.8901
19093WAT     H178177   7.024   2.593   3.643 -0.7801 -0.1295 -0.2667
19093WAT     H278178   6.982   2.457   3.590 -3.2051  0.2316  0.6066
19093WAT    EPW78179   6.994   2.512   3.656  0.2813 -0.3903  0.7002
19094WAT      O78180  -1.796   9.934   7.920  0.3982  0.4005  0.2368
19094WAT     H178181  -1.822   9.951   8.010 -0.3439  0.2339  0.0642
19094WAT     H278182  -1.851   9.993   7.868 -2.5226 -2.6144 -0.4150
19094WAT    EPW78183  -1.807   9.944   7.925 -0.0849 -0.0196  0.1280
19095WAT      O78184   3.210   7.969   4.560  0.1800 -0.1083  0.2608
19095WAT     H178185   3.275   8.025   4.516 -1.7534  0.9792 -1.4202
19095WAT     H278186   3.146   8.031   4.596 -0.4545 -1.1574  0.9717
19095WAT    EPW78187   3.210   7.985   4.559 -0.1587 -0.1032  0.1328
19096WAT      O78188   4.670   5.488   2.650 -0.3688 -0.2051  0.2242
19096WAT     H178189   4.646   5.550   2.718 -0.5924 -0.8231  0.7138
19096WAT     H278190   4.625   5.519   2.572 -0.2251  0.4248  0.3852
19096WAT    EPW78191   4.661   5.500   2.649 -0.3796 -0.2034  0.3101
19097WAT      O78192   2.594   5.961   2.421  0.2028  0.2762 -0.2732
19097WAT     H178193   2.542   5.960   2.501  0.7102 -1.2951  0.0815
19097WAT     H278194   2.672   6.013   2.443 -0.1325  0.6955 -0.0750
19097WAT    EPW78195   2.598   5.967   2.435  0.2254  0.1242 -0.2003
19098WAT      O78196  -2.710   8.338   8.212  0.3951  0.6696 -0.0912
19098WAT     H178197  -2.708   8.252   8.172 -0.4619 -1.8005  4.4548
19098WAT     H278198  -2.801   8.350   8.239  0.4296  3.2053 -0.8231
19098WAT    EPW78199  -2.722   8.329   8.210  0.2866  0.6781  0.4120
19099WAT      O78200   4.983   6.086   0.115 -0.2904 -0.4114  0.1458
19099WAT     H178201   4.992   6.099   0.210 -0.4144  1.0909 -0.0309
19099WAT     H278202   5.040   6.152   0.076  0.7182 -1.7976 -0.8563
19099WAT    EPW78203   4.992   6.096   0.123 -0.1738 -0.3963 -0.0096
19100WAT      O78204   1.755   1.885   3.207  0.7608  0.1009  0.4248
19100WAT     H178205   1.844   1.856   3.185  0.5947  0.8771 -1.4233
19100WAT     H278206   1.747   1.867   3.301  1.8853 -2.5383  0.1257
19100WAT    EPW78207   1.766   1.878   3.216  0.8872 -0.1448  0.1415
19101WAT      O78208   3.171   0.820   5.599  0.3834 -0.4999 -0.6979
19101WAT     H178209   3.109   0.748   5.589 -1.3426  1.0257 -1.6666
19101WAT     H278210   3.183   0.854   5.510  0.4540  0.9369 -0.1686
19101WAT    EPW78211   3.165   0.815   5.586  0.1651 -0.1092 -0.7560
19102WAT      O78212  -0.310   0.862   3.095  0.8097  0.3467 -0.8529
19102WAT     H178213  -0.315   0.955   3.077 -2.9739  0.3974 -0.2845
19102WAT     H278214  -0.255   0.855   3.173  3.1141  1.7701 -2.2586
19102WAT    EPW78215  -0.303   0.873   3.103  0.6146  0.5411 -0.9633
19103WAT      O78216   4.110   0.652   6.755  0.1644 -0.1572 -0.1643
19103WAT     H178217   4.183   0.670   6.696  0.3579 -2.1206 -0.5842
19103WAT     H278218   4.129   0.566   6.792 -2.0810 -0.8928 -0.5406
19103WAT    EPW78219   4.122   0.643   6.752 -0.1061 -0.5132 -0.2694
19104WAT      O78220   5.037   6.064   4.530 -0.0908  0.5342 -0.0296
19104WAT     H178221   4.953   6.108   4.518  1.2509  2.9350 -1.2598
19104WAT     H278222   5.040   5.999   4.460 -0.3382  1.4446 -0.9076
19104WAT    EPW78223   5.026   6.061   4.519  0.0534  0.9711 -0.3076
19105WAT      O78224   4.151   4.977   7.075  1.0258 -0.0115 -0.2265
19105WAT     H178225   4.222   5.023   7.030 -1.2274  2.3366 -1.6982
19105WAT     H278226   4.142   5.022   7.158  0.5212  0.4989 -0.5502
19105WAT    EPW78227   4.159   4.989   7.080  0.6621  0.3657 -0.4632
19106WAT      O78228  -0.908   7.655   8.957  0.3620  0.7240 -0.5223
19106WAT     H178229  -0.833   7.636   8.900  0.6465  1.2242 -0.3225
19106WAT     H278230  -0.900   7.749   8.976  1.8464  0.0926  2.5515
19106WAT    EPW78231  -0.897   7.665   8.952  0.5954  0.7067 -0.0906
19107WAT      O78232   0.925   3.673   5.691  0.6307  0.0457 -0.2434
19107WAT     H178233   0.948   3.596   5.743  1.6143  0.9122  0.6423
19107WAT     H278234   0.840   3.699   5.726  0.6199 -0.2235 -0.0570
19107WAT    EPW78235   0.917   3.666   5.703  0.7590  0.1246 -0.1020
19108WAT      O78236   4.933   7.967   0.088 -0.2595  0.3422  0.0831
19108WAT     H178237   4.842   7.945   0.067  0.0055  1.2082 -2.2528
19108WAT     H278238   4.984   7.905   0.037  0.4411  1.6612 -0.8779
19108WAT    EPW78239   4.928   7.956   0.078 -0.1318  0.6304 -0.3517
19109WAT      O78240  -1.919   1.266   8.848 -0.3178  0.2253 -0.2144
19109WAT     H178241  -1.994   1.256   8.790 -0.1819 -0.5547 -0.2784
19109WAT     H278242  -1.945   1.331   8.912 -0.6620  0.7190 -0.8494
19109WAT    EPW78243  -1.932   1.273   8.849 -0.3454  0.1875 -0.3061
19110WAT      O78244  -2.040   6.893   0.626 -0.4640  0.0753 -0.0217
19110WAT     H178245  -2.100   6.852   0.689  2.6271 -1.5230  2.1327
19110WAT     H278246  -2.006   6.820   0.574  1.3760  0.5530  0.4497
19110WAT    EPW78247  -2.043   6.878   0.627  0.1864 -0.0725  0.3246
19111WAT      O78248   2.462   3.224   7.274  0.4963  0.1009 -0.0471
19111WAT     H178249   2.403   3.254   7.205 -0.1341  1.4851  1.0315
19111WAT     H278250   2.443   3.131   7.284  2.5703 -0.9015 -3.5985
19111WAT    EPW78251   2.452   3.216   7.266  0.6866  0.1514 -0.3734
19112WAT      O78252   4.481   3.427   2.010 -0.0457 -0.9140 -0.4693
19112WAT     H178253   4.473   3.523   2.013  0.9915 -0.7679 -1.6418
19112WAT     H278254   4.394   3.397   1.986  0.0118 -0.1302 -1.7990
19112WAT    EPW78255   4.469   3.436   2.007  0.0989 -0.7913 -0.7993
19113WAT      O78256  -1.789   3.829   6.613  0.4114  0.1929  0.1739
19113WAT     H178257  -1.730   3.763   6.577 -0.2062  0.3969 -1.3226
19113WAT     H278258  -1.733   3.887   6.664  0.9843 -1.3919  1.4250
19113WAT    EPW78259  -1.774   3.828   6.615  0.4055  0.0107  0.1416
19114WAT      O78260  -0.485   2.754   5.067  0.1964 -0.0642  0.0918
19114WAT     H178261  -0.548   2.685   5.044  0.2308 -0.6334  1.5632
19114WAT     H278262  -0.459   2.792   4.983 -2.0679  0.1703 -0.5656
19114WAT    EPW78263  -0.490   2.750   5.053 -0.0977 -0.1084  0.1991
19115WAT      O78264   1.231   5.702   8.342  0.1861 -0.1546  1.0312
19115WAT     H178265   1.204   5.741   8.426  1.1842  1.2353  0.7314
19115WAT     H278266   1.181   5.750   8.276  2.1272  1.3677  0.5856
19115WAT    EPW78267   1.221   5.713   8.345  0.5738  0.2296  0.9327
19116WAT      O78268   1.477   9.485   1.575  0.1149 -0.6352 -0.1897
19116WAT     H178269   1.531   9.473   1.653  1.2820 -0.8308 -1.0087
19116WAT     H278270   1.418   9.410   1.575  1.0705 -1.4116 -0.2368
19116WAT    EPW78271   1.476   9.474   1.585  0.3949 -0.7629 -0.3039
19117WAT      O78272   3.741   9.027   0.470 -0.9318 -0.3868  0.2527
19117WAT     H178273   3.762   9.120   0.461  0.2336 -0.7406 -1.0381
19117WAT     H278274   3.826   8.984   0.474 -1.4584 -1.3997  1.0387
19117WAT    EPW78275   3.755   9.034   0.469 -0.8476 -0.5670  0.1861
19118WAT      O78276  -0.823   6.069   0.374 -0.1409 -0.1826  0.3901
19118WAT     H178277  -0.764   6.038   0.305  2.6604  0.3151  2.4046
19118WAT     H278278  -0.865   6.146   0.335 -0.3152 -1.1594 -1.4882
19118WAT    EPW78279  -0.821   6.075   0.360  0.2056 -0.2460  0.4081
19119WAT      O78280  -5.325   1.037   8.161  0.0655 -0.1027  0.5019
19119WAT     H178281  -5.297   1.104   8.222  0.1078  0.0750  0.2897
19119WAT     H278282  -5.416   1.060   8.140  0.5046  0.6798 -0.6184
19119WAT    EPW78283  -5.333   1.049   8.166  0.1290  0.0240  0.3262
19120WAT      O78284   3.174   6.349   8.459 -0.9498 -0.1164 -0.1560
19120WAT     H178285   3.115   6.421   8.436 -0.3686  0.5301  0.3370
19120WAT     H278286   3.228   6.335   8.381  0.4607  1.5165  0.4665
19120WAT    EPW78287   3.173   6.356   8.446 -0.6870  0.1843 -0.0086
19121WAT      O78288   0.186   8.386   8.314  0.8525  0.1570  0.4718
19121WAT     H178289   0.198   8.333   8.393 -1.7200 -0.4843  0.5372
19121WAT     H278290   0.148   8.468   8.346 -1.1777 -0.4993 -0.1045
19121WAT    EPW78291   0.183   8.390   8.328  0.2454 -0.0143  0.4044
19122WAT      O78292  -1.130   2.159   6.231  0.7945 -0.0719 -0.5777
19122WAT     H178293  -1.119   2.065   6.217  0.3472 -0.3230  0.6206
19122WAT     H278294  -1.197   2.185   6.167 -0.7402 -1.0375  0.5578
19122WAT    EPW78295  -1.138   2.150   6.221  0.5331 -0.2323 -0.2699
19123WAT      O78296   3.283   1.897   3.685  0.0014 -0.3998  0.0775
19123WAT     H178297   3.286   1.896   3.589 -0.7752 -0.2618  0.0450
19123WAT     H278298   3.369   1.929   3.711 -0.1809  0.7104 -0.6093
19123WAT    EPW78299   3.295   1.901   3.676 -0.1251 -0.2351 -0.0173
19124WAT      O78300  -1.323   2.261   2.600  0.8739  0.8400 -0.4889
19124WAT     H178301  -1.233   2.230   2.606  0.0129 -1.7058  2.8113
19124WAT     H278302  -1.375   2.181   2.591 -1.1190  2.0405 -0.2357
19124WAT    EPW78303  -1.318   2.246   2.600  0.4975  0.6624 -0.0201
19125WAT      O78304  -4.990   1.527   7.344 -0.0806 -0.4002  0.4835
19125WAT     H178305  -4.919   1.466   7.361  0.4086 -0.2806 -0.9804
19125WAT     H278306  -4.997   1.580   7.424  2.9032  1.0093 -0.0635
19125WAT    EPW78307  -4.982   1.526   7.357  0.3774 -0.1985  0.2182
19126WAT      O78308   4.135   2.754   6.172  0.7748  0.2651 -0.5783
19126WAT     H178309   4.098   2.825   6.225 -1.4300 -0.6255 -0.8165
19126WAT     H278310   4.114   2.675   6.221 -0.8864 -0.5354 -2.4593
19126WAT    EPW78311   4.127   2.753   6.186  0.2646  0.0421 -0.8578
19127WAT      O78312   2.476   9.308   5.698 -0.4779  0.4415 -0.6132
19127WAT     H178313   2.493   9.284   5.789 -0.2102  0.7188 -0.5876
19127WAT     H278314   2.563   9.316   5.659 -0.5964 -0.6976 -1.1674
19127WAT    EPW78315   2.490   9.306   5.705 -0.4582  0.3276 -0.6828
19128WAT      O78316   6.712   2.958   0.141  0.0424 -0.2862 -0.0297
19128WAT     H178317   6.714   2.878   0.087  0.6698 -1.1821  1.2830
19128WAT     H278318   6.752   3.025   0.085 -0.2196 -0.9450 -1.0417
19128WAT    EPW78319   6.717   2.956   0.126  0.0908 -0.4911  0.0100
19129WAT      O78320   5.589   0.697   3.704  0.8926  0.7242  0.1389
19129WAT     H178321   5.606   0.687   3.610  1.7135  0.9631  0.2524
19129WAT     H278322   5.672   0.674   3.746 -0.1813 -2.0697  0.9875
19129WAT    EPW78323   5.602   0.692   3.697  0.8593  0.3872  0.2656
19130WAT      O78324  -0.213   7.446   2.322 -0.0313  0.3896  0.2938
19130WAT     H178325  -0.189   7.508   2.391  0.4268  0.5464 -0.0063
19130WAT     H278326  -0.297   7.477   2.290  0.1718  0.8262  0.1775
19130WAT    EPW78327  -0.221   7.458   2.327  0.0559  0.4678  0.2388
19131WAT      O78328  -4.888   2.697   8.509 -0.8402  0.5615  0.4685
19131WAT     H178329  -4.815   2.642   8.538  0.5599 -1.1495 -5.0315
19131WAT     H278330  -4.966   2.648   8.532  0.1347 -0.9723  0.6377
19131WAT    EPW78331  -4.889   2.684   8.516 -0.5269  0.1335 -0.2346
19132WAT      O78332   7.275   0.238   0.645  0.0153  0.0060 -0.3403
19132WAT     H178333   7.181   0.238   0.627 -0.2113  1.8946  0.6374
19132WAT     H278334   7.282   0.265   0.736  1.5302  0.0633 -0.4565
19132WAT    EPW78335   7.263   0.241   0.655  0.1853  0.2626 -0.2267
19133WAT      O78336   4.229   6.500   0.494  0.5068  0.0279 -0.1034
19133WAT     H178337   4.244   6.500   0.399 -1.1920  1.6275 -0.4349
19133WAT     H278338   4.258   6.587   0.522  3.4598 -1.2991  1.3812
19133WAT    EPW78339   4.235   6.511   0.485  0.6721  0.0639  0.0487
19134WAT      O78340   5.886   8.901   2.998 -1.2684 -0.2063  0.0327
19134WAT     H178341   5.945   8.932   3.066 -2.3512 -0.5803  1.1738
19134WAT     H278342   5.812   8.961   3.002 -2.6435 -1.8897  1.1588
19134WAT    EPW78343   5.884   8.913   3.007 -1.5926 -0.4778  0.3318
19135WAT      O78344  -2.219   8.294   0.151 -0.9693 -0.2344  0.3965
19135WAT     H178345  -2.227   8.355   0.224 -0.3598 -0.2636  0.4863
19135WAT     H278346  -2.246   8.210   0.187  1.0178 -0.6276  1.1012
19135WAT    EPW78347  -2.224   8.291   0.165 -0.6268 -0.2904  0.5013
19136WAT      O78348  -0.024   4.845   3.639 -0.4469  0.0637  0.0875
19136WAT     H178349   0.035   4.796   3.696  0.0393 -1.1643 -1.4014
19136WAT     H278350  -0.108   4.799   3.645 -0.7092  0.6014  0.6492
19136WAT    EPW78351  -0.027   4.833   3.647 -0.4173 -0.0274 -0.0349
19137WAT      O78352   0.784   5.111   6.560 -0.2642  0.7055  0.3545
19137WAT     H178353   0.724   5.185   6.554 -1.2911 -0.1323 -0.1812
19137WAT     H278354   0.795   5.096   6.654 -0.4706  1.2110  0.4595
19137WAT    EPW78355   0.778   5.119   6.571 -0.4269  0.6618  0.2978
19138WAT      O78356  -1.896   8.271   7.122  0.2374 -0.2860  0.0644
19138WAT     H178357  -1.932   8.224   7.047 -1.1198 -0.0701  0.5442
19138WAT     H278358  -1.962   8.338   7.143  0.0707 -0.9907  2.0506
19138WAT    EPW78359  -1.910   8.274   7.115  0.0364 -0.3500  0.3896
19139WAT      O78360   6.538   5.233   2.532  0.0040 -0.2695  0.8621
19139WAT     H178361   6.508   5.189   2.451 -0.2077  3.1855 -1.1145
19139WAT     H278362   6.459   5.239   2.585 -0.6005  0.1235 -0.0462
19139WAT    EPW78363   6.523   5.228   2.528 -0.1037  0.2379  0.4816
19140WAT      O78364  -4.206   9.970   2.992 -0.1580 -0.5372 -0.2284
19140WAT     H178365  -4.243  10.054   3.021 -1.5438 -1.9148  2.3081
19140WAT     H278366  -4.226   9.966   2.898 -2.0581  0.9952  0.0453
19140WAT    EPW78367  -4.214   9.981   2.983 -0.5913 -0.5164  0.1423
19141WAT      O78368   4.275   0.064   4.831 -0.3603 -0.5441 -0.1525
19141WAT     H178369   4.285   0.008   4.754 -1.0992 -1.5613  0.4814
19141WAT     H278370   4.184   0.052   4.858  0.1942 -1.1122  1.5707
19141WAT    EPW78371   4.264   0.055   4.824 -0.3848 -0.7532  0.1583
19142WAT      O78372   3.400   5.882   4.148 -0.2418 -0.8442  0.8269
19142WAT     H178373   3.330   5.945   4.128 -0.3398 -1.1609  0.1387
19142WAT     H278374   3.481   5.932   4.140 -0.2869 -0.9208 -0.2658
19142WAT    EPW78375   3.401   5.897   4.145 -0.2607 -0.8962  0.5920
19143WAT      O78376   0.514   0.098   7.025 -0.2869  0.0338  0.4337
19143WAT     H178377   0.481   0.032   7.085 -1.5860 -0.1906 -0.4837
19143WAT     H278378   0.573   0.050   6.966  1.4219  0.3551  1.8092
19143WAT    EPW78379   0.517   0.083   7.025 -0.2328  0.0466  0.4942
19144WAT      O78380  -8.491   9.866   8.524 -0.1141  0.1888  0.1590
19144WAT     H178381  -8.452   9.841   8.607  1.5652  0.2426 -0.5815
19144WAT     H278382  -8.532   9.951   8.541 -0.3615 -0.1058  1.0756
19144WAT    EPW78383  -8.491   9.874   8.537  0.0744  0.1569  0.1826
19145WAT      O78384  -6.392   9.971   6.156  0.2476  0.6538  0.7715
19145WAT     H178385  -6.340  10.030   6.102 -2.0237  2.3263  0.2205
19145WAT     H278386  -6.332   9.940   6.224  3.3518 -1.8537 -2.7443
19145WAT    EPW78387  -6.377   9.975   6.158  0.3574  0.5436  0.2353
19146WAT      O78388  -1.374   3.850   1.657 -0.0182 -0.3740  0.2300
19146WAT     H178389  -1.357   3.770   1.608  0.1806  0.4371 -1.0879
19146WAT     H278390  -1.459   3.881   1.625  1.0362  1.2472 -1.2032
19146WAT    EPW78391  -1.383   3.844   1.646  0.1472 -0.0532 -0.1329
19147WAT      O78392   0.666   9.038   4.061 -0.4149 -0.2895 -0.0274
19147WAT     H178393   0.652   8.967   3.998 -0.6273 -1.2894  1.1130
19147WAT     H278394   0.578   9.063   4.089 -0.5242  1.9844 -2.0023
19147WAT    EPW78395   0.652   9.032   4.056 -0.4573 -0.1216 -0.1376
19148WAT      O78396  -4.079   6.711   7.929 -0.1346 -0.0795 -0.7114
19148WAT     H178397  -4.060   6.804   7.918  5.3511 -0.7089  0.5863
19148WAT     H278398  -4.051   6.671   7.846  0.6775 -0.7726 -0.1324
19148WAT    EPW78399  -4.073   6.718   7.916  0.6962 -0.2539 -0.4640
19149WAT      O78400  -2.229   1.256   4.513  0.4066 -0.7637 -0.1872
19149WAT     H178401  -2.145   1.215   4.529  1.8559  1.4477 -1.6046
19149WAT     H278402  -2.237   1.260   4.418  0.8614  2.9285 -0.2296
19149WAT    EPW78403  -2.219   1.251   4.502  0.6577  0.0150 -0.3798
19150WAT      O78404  -0.017   6.025   7.952 -0.3593 -0.5054  0.7851
19150WAT     H178405  -0.083   6.094   7.940  1.1283  1.3151  2.3513
19150WAT     H278406  -0.068   5.946   7.970 -2.2118 -0.4277 -3.1445
19150WAT    EPW78407  -0.033   6.024   7.953 -0.4075 -0.2549  0.4733
19151WAT      O78408   2.496   4.842   6.981 -0.3209  0.1440 -0.3854
19151WAT     H178409   2.583   4.874   6.958 -0.1686  1.5344  1.8003
19151WAT     H278410   2.497   4.750   6.957  1.7873  0.1081 -0.3491
19151WAT    EPW78411   2.507   4.834   6.975 -0.0226  0.3226 -0.0923
19152WAT      O78412  -2.216   8.919   1.869  0.2034  0.6008 -0.5791
19152WAT     H178413  -2.243   8.910   1.961  0.7567  1.8988 -0.2720
19152WAT     H278414  -2.176   8.834   1.848 -4.1368 -1.5988 -1.1278
19152WAT    EPW78415  -2.215   8.906   1.879 -0.2961  0.4821 -0.6109
19153WAT      O78416   4.422   2.072   0.929 -0.3305 -0.0773 -0.5582
19153WAT     H178417   4.417   2.007   0.999  1.6438 -0.2825 -0.5518
19153WAT     H278418   4.391   2.025   0.851  0.5408 -0.8731 -0.4432
19153WAT    EPW78419   4.417   2.057   0.928  0.0446 -0.2093 -0.5422
19154WAT      O78420   7.779   1.106   4.550  0.6362  0.0454 -0.2699
19154WAT     H178421   7.779   1.142   4.638 -1.5990  0.4647 -0.3855
19154WAT     H278422   7.772   1.182   4.493 -0.4891 -0.3403 -0.6761
19154WAT    EPW78423   7.778   1.120   4.554  0.1931  0.0498 -0.3388
19155WAT      O78424   1.152   2.078   5.572  0.2972  0.6430  0.0408
19155WAT     H178425   1.086   2.104   5.508  0.7874  0.9526 -0.3569
19155WAT     H278426   1.107   2.018   5.631 -0.4494  1.1987  0.0480
19155WAT    EPW78427   1.138   2.074   5.571  0.2633  0.7572 -0.0107
19156WAT      O78428   6.673   6.785   1.730  0.6116 -1.0487  0.7800
19156WAT     H178429   6.738   6.723   1.762  2.8226  1.1702  0.8856
19156WAT     H278430   6.689   6.791   1.635  2.6138  1.5460  1.1656
19156WAT    EPW78431   6.684   6.778   1.721  1.1673 -0.4139  0.8448
19157WAT      O78432  -0.740   4.726   7.564 -0.0663 -0.2676 -1.0576
19157WAT     H178433  -0.700   4.719   7.651 -0.4865 -0.2429 -0.8566
19157WAT     H278434  -0.691   4.794   7.520 -0.7547  0.7385 -0.3224
19157WAT    EPW78435  -0.728   4.734   7.570 -0.2125 -0.1318 -0.9344
19158WAT      O78436  -1.582   6.379   3.035  0.3544 -0.3852 -0.4262
19158WAT     H178437  -1.576   6.306   2.973  2.1859  0.5186 -1.3679
19158WAT     H278438  -1.499   6.426   3.026 -0.3518  1.2272  0.9242
19158WAT    EPW78439  -1.570   6.375   3.026  0.5028 -0.0534 -0.3724
19159WAT      O78440  -2.346   4.385   2.210 -0.4526  0.2597  0.2700
19159WAT     H178441  -2.367   4.335   2.289  1.4492  1.3555  1.5387
19159WAT     H278442  -2.274   4.443   2.236 -0.8441  1.8118 -1.8468
19159WAT    EPW78443  -2.339   4.386   2.224 -0.2533  0.6092  0.1581
19160WAT      O78444  -2.224   9.264   0.746 -0.4647  0.1434 -0.0844
19160WAT     H178445  -2.256   9.299   0.829  0.2913  0.0624  0.2484
19160WAT     H278446  -2.278   9.307   0.680  0.5890  2.1501  0.2866
19160WAT    EPW78447  -2.235   9.274   0.748 -0.2261  0.3972  0.0084
19161WAT      O78448  -0.529   4.003   0.220 -0.1547  0.1477 -0.2288
19161WAT     H178449  -0.572   4.043   0.143  1.4039  2.0883 -0.1791
19161WAT     H278450  -0.602   3.976   0.276 -1.3301  1.0812 -1.2309
19161WAT    EPW78451  -0.544   4.005   0.217 -0.1042  0.5269 -0.3544
19162WAT      O78452  -0.643   5.155   7.683 -0.1772  0.1058  0.5536
19162WAT     H178453  -0.672   5.173   7.772 -2.1607 -0.5936  0.0966
19162WAT     H278454  -0.597   5.071   7.689  0.1930  0.3307  0.9797
19162WAT    EPW78455  -0.640   5.147   7.695 -0.3900  0.0432  0.5496
19163WAT      O78456  -1.102   4.765   2.413  0.2376  0.1345 -0.4031
19163WAT     H178457  -1.057   4.690   2.374 -0.4866 -0.5846  0.1073
19163WAT     H278458  -1.132   4.733   2.499  1.7150  1.6451  0.7340
19163WAT    EPW78459  -1.100   4.751   2.419  0.3369  0.2389 -0.1857
19164WAT      O78460   5.058   8.230   1.707  0.0905 -0.5318 -0.2247
19164WAT     H178461   5.087   8.321   1.700 -0.0692 -0.2706  1.8789
19164WAT     H278462   4.978   8.226   1.654  0.3675  0.4010 -0.7475
19164WAT    EPW78463   5.051   8.241   1.699  0.1061 -0.3743 -0.0162
19165WAT      O78464   2.184   6.611   7.520 -0.0773  0.5954 -0.2618
19165WAT     H178465   2.209   6.650   7.604 -0.1660  1.3937 -0.6058
19165WAT     H278466   2.168   6.519   7.541 -0.0875  0.7847  0.5967
19165WAT    EPW78467   2.185   6.604   7.534 -0.0904  0.7257 -0.1941
19166WAT      O78468  -8.309   8.240   8.907  0.2797  0.2121  0.0872
19166WAT     H178469  -8.381   8.242   8.844  0.6721  2.2539 -0.3720
19166WAT     H278470  -8.242   8.185   8.865 -0.0663  0.2965 -0.5954
19166WAT    EPW78471  -8.310   8.233   8.893  0.2861  0.4926 -0.0639
19167WAT      O78472  -4.589   4.226   6.014 -0.9657  0.5897  0.0979
19167WAT     H178473  -4.615   4.185   6.096 -4.9630  0.7249 -0.8621
19167WAT     H278474  -4.607   4.319   6.027  3.5859  1.5922  0.7070
19167WAT    EPW78475  -4.595   4.233   6.026 -0.8926  0.7396  0.0517
19168WAT      O78476   3.462   8.883   5.831 -0.1855 -0.1402  0.0722
19168WAT     H178477   3.407   8.868   5.908 -0.0540 -2.0292 -0.1549
19168WAT     H278478   3.415   8.950   5.782 -0.7847  0.3811  1.2998
19168WAT    EPW78479   3.448   8.890   5.835 -0.2472 -0.3204  0.2038
19169WAT      O78480   5.016   3.772   5.572 -0.0707 -0.1582 -0.1352
19169WAT     H178481   5.057   3.713   5.635  1.0628 -0.0626 -0.7486
19169WAT     H278482   5.019   3.858   5.614 -2.4743 -0.6001  1.1128
19169WAT    EPW78483   5.022   3.775   5.586 -0.2384 -0.2038 -0.0515
19170WAT      O78484   2.517   7.799   4.041 -0.4641  0.2670  0.4760
19170WAT     H178485   2.455   7.865   4.010  0.2701  0.8556  0.2277
19170WAT     H278486   2.572   7.846   4.104  1.4912  0.5177 -1.3244
19170WAT    EPW78487   2.516   7.814   4.045 -0.1093  0.3777  0.2058
19171WAT      O78488   2.046   3.144   8.471 -0.3130  0.1755  0.3111
19171WAT     H178489   2.138   3.167   8.473 -0.6592  1.5638  1.5093
19171WAT     H278490   2.030   3.100   8.555 -1.0214  1.1413  0.6965
19171WAT    EPW78491   2.056   3.141   8.483 -0.4522  0.4860  0.5202
19172WAT      O78492   7.353   1.838   1.932 -0.4497 -0.2040  0.2554
19172WAT     H178493   7.406   1.826   2.012  0.3707  0.5849 -0.1438
19172WAT     H278494   7.353   1.933   1.919  0.0755 -0.3632 -1.1000
19172WAT    EPW78495   7.360   1.849   1.941 -0.2720 -0.1209  0.0240
19173WAT      O78496   8.300   1.310   2.783  0.2219  0.8117 -0.9182
19173WAT     H178497   8.363   1.239   2.779 -0.4069  0.1789 -0.0828
19173WAT     H278498   8.330   1.365   2.855 -0.0432  0.6374 -0.6717
19173WAT    EPW78499   8.312   1.308   2.792  0.1044  0.7052 -0.7755
19174WAT      O78500  -2.467  10.215   4.102  0.2712  0.0313  0.2808
19174WAT     H178501  -2.533  10.284   4.093 -0.4144 -0.7837 -1.2461
19174WAT     H278502  -2.510  10.136   4.069  2.0113 -0.5142 -0.8126
19174WAT    EPW78503  -2.482  10.214   4.096  0.4102 -0.1488 -0.0646
19175WAT      O78504   1.012   7.842   6.906 -0.3412  0.4317  0.0967
19175WAT     H178505   1.058   7.812   6.985 -0.5304  1.3867  0.5823
19175WAT     H278506   1.082   7.866   6.845 -0.1974  0.2250  0.1797
19175WAT    EPW78507   1.028   7.841   6.908 -0.3473  0.5305  0.1717
19176WAT      O78508  -7.096   9.500   7.844  0.7923 -0.3063 -0.2870
19176WAT     H178509  -7.105   9.522   7.936 -1.7964 -1.0711 -0.2758
19176WAT     H278510  -7.047   9.574   7.806 -1.0585  1.7491  1.0859
19176WAT    EPW78511  -7.090   9.513   7.851  0.2067 -0.1359 -0.1042
19177WAT      O78512  -7.148   9.310   7.490 -0.3807 -0.0240  0.5478
19177WAT     H178513  -7.140   9.325   7.585  2.5633 -0.4408  0.4551
19177WAT     H278514  -7.160   9.397   7.453  1.6816  0.5797  1.1370
19177WAT    EPW78515  -7.148   9.323   7.498  0.2797  0.0005  0.6132
19178WAT      O78516  -0.015   6.142   4.579 -0.0535  0.0883 -0.1498
19178WAT     H178517   0.039   6.126   4.501 -0.4955  1.9177 -0.8772
19178WAT     H278518  -0.104   6.150   4.544 -0.3666  0.1720  0.6582
19178WAT    EPW78519  -0.020   6.141   4.564 -0.1531  0.3407 -0.1392
19179WAT      O78520  -2.845   3.368   7.731  0.4088 -0.1575  0.2468
19179WAT     H178521  -2.829   3.450   7.684  1.1104  0.2183  1.1235
19179WAT     H278522  -2.925   3.385   7.782 -1.3992 -1.1458 -2.0775
19179WAT    EPW78523  -2.854   3.381   7.732  0.2630 -0.2383  0.0558
19180WAT      O78524   5.849   2.697   5.088 -0.3406  0.9363  0.5118
19180WAT     H178525   5.944   2.684   5.098 -0.6540 -2.2711  0.3586
19180WAT     H278526   5.824   2.637   5.017 -2.2513  3.1538 -0.8225
19180WAT    EPW78527   5.859   2.687   5.080 -0.6340  0.8057  0.3157
19181WAT      O78528   2.718   9.814   7.820  0.8148 -0.0527 -0.1692
19181WAT     H178529   2.744   9.906   7.829  0.2763  0.0729  0.1394
19181WAT     H278530   2.680   9.808   7.732 -0.2706  0.3018  0.2675
19181WAT    EPW78531   2.716   9.825   7.810  0.6006  0.0110 -0.0708
19182WAT      O78532   8.572   2.003   1.106  0.0724 -0.4013 -0.7478
19182WAT     H178533   8.524   1.922   1.090 -0.2902 -0.6058  1.1479
19182WAT     H278534   8.511   2.072   1.080 -0.1783 -0.7126 -0.9883
19182WAT    EPW78535   8.557   2.001   1.101 -0.0086 -0.4693 -0.5295
19183WAT      O78536  -3.544   2.147   5.812  0.2089  0.5147  0.3990
19183WAT     H178537  -3.478   2.118   5.875 -0.7834 -1.5883  0.5442
19183WAT     H278538  -3.547   2.242   5.823  0.5872  0.2939  3.0090
19183WAT    EPW78539  -3.536   2.156   5.822  0.1279  0.2081  0.7625
19184WAT      O78540   0.437   3.536   1.892  0.5117  0.1478  0.3993
19184WAT     H178541   0.363   3.479   1.912  1.4142 -0.5546  1.9075
19184WAT     H278542   0.409   3.623   1.921  0.1608 -0.0538  0.6723
19184WAT    EPW78543   0.424   3.540   1.898  0.5844  0.0285  0.6343
19185WAT      O78544  -5.102   8.216   7.667  0.0746  1.0418 -0.1073
19185WAT     H178545  -5.152   8.297   7.675 -0.7943  0.4718  0.4946
19185WAT     H278546  -5.039   8.219   7.739 -0.2655  0.9861  0.1981
19185WAT    EPW78547  -5.100   8.227   7.678 -0.0849  0.9594  0.0124
19186WAT      O78548  -1.640   5.615   7.711  0.6980  0.3695  0.4665
19186WAT     H178549  -1.684   5.533   7.695 -0.9444  1.0605  1.2322
19186WAT     H278550  -1.598   5.638   7.628  0.3362 -0.7316 -0.0230
19186WAT    EPW78551  -1.640   5.607   7.698  0.4337  0.3154  0.5031
19187WAT      O78552  -1.931   6.592   4.651  0.5539 -0.3206  0.4974
19187WAT     H178553  -1.952   6.593   4.558 -0.9880 -0.2903  0.8203
19187WAT     H278554  -1.859   6.654   4.661  0.6142 -0.2023 -0.6394
19187WAT    EPW78555  -1.924   6.600   4.640  0.3585 -0.3011  0.3901
19188WAT      O78556  -3.871   9.402   4.340  0.2586  0.4025  0.4345
19188WAT     H178557  -3.836   9.486   4.312 -0.7207  1.2002  1.4867
19188WAT     H278558  -3.810   9.337   4.305  0.7610  1.5090 -0.8121
19188WAT    EPW78559  -3.859   9.405   4.332  0.1956  0.6533  0.4086
19189WAT      O78560   1.471   5.816   2.285  0.7321 -0.6841 -0.4963
19189WAT     H178561   1.453   5.909   2.276 -1.8325 -0.9128  1.2560
19189WAT     H278562   1.440   5.778   2.202  1.3776 -0.0560 -1.0375
19189WAT    EPW78563   1.464   5.823   2.273  0.4790 -0.6318 -0.3365
19190WAT      O78564  -2.087   9.440   1.008  0.3833 -0.6173 -0.6617
19190WAT     H178565  -2.181   9.425   1.017  0.2481 -1.1162 -2.4678
19190WAT     H278566  -2.073   9.528   1.042 -0.7722 -0.4616 -0.5450
19190WAT    EPW78567  -2.098   9.449   1.014  0.2130 -0.6628 -0.8845
19191WAT      O78568   2.191   4.623   7.489 -0.6224  0.7126  0.8221
19191WAT     H178569   2.185   4.707   7.443  2.0296 -0.2363 -1.5314
19191WAT     H278570   2.284   4.610   7.504 -0.9853 -1.6785  1.4354
19191WAT    EPW78571   2.202   4.633   7.485 -0.3204  0.2720  0.5925
19192WAT      O78572  -0.703   3.280   0.786 -0.1313  0.5493 -0.1813
19192WAT     H178573  -0.729   3.361   0.742  2.1511 -0.4667 -3.8767
19192WAT     H278574  -0.608   3.286   0.794  0.1686 -1.8544 -0.9490
19192WAT    EPW78575  -0.694   3.291   0.781  0.2093  0.0982 -0.7699
19193WAT      O78576   5.992   0.668   1.898  0.5444  0.0259  0.5502
19193WAT     H178577   6.019   0.721   1.822 -0.3948  1.1154  0.9558
19193WAT     H278578   5.906   0.633   1.874  1.2442 -1.5689  0.1919
19193WAT    EPW78579   5.985   0.670   1.885  0.5128 -0.0408  0.5564
19194WAT      O78580   0.886   9.443   6.312 -0.0636 -0.0890 -0.2695
19194WAT     H178581   0.951   9.479   6.252 -0.8013 -1.5965 -2.0659
19194WAT     H278582   0.888   9.349   6.296 -0.0194 -0.6261  2.4129
19194WAT    EPW78583   0.895   9.436   6.302 -0.1550 -0.3581 -0.1526
19195WAT      O78584  -3.644   6.878   5.824  0.0670  0.0631 -0.4047
19195WAT     H178585  -3.560   6.916   5.848 -0.3380 -0.0023  1.2564
19195WAT     H278586  -3.631   6.784   5.837 -0.4835  0.1217  0.6684
19195WAT    EPW78587  -3.631   6.870   5.829 -0.0590  0.0622 -0.0441
19196WAT      O78588  -0.750   1.297   0.944 -0.2350 -0.0842 -0.2694
19196WAT     H178589  -0.725   1.369   0.887 -1.5663  0.8005  0.2167
19196WAT     H278590  -0.845   1.306   0.954 -0.6780 -2.6975 -1.2667
19196WAT    EPW78591  -0.759   1.308   0.938 -0.4690 -0.3123 -0.3369
19197WAT      O78592   5.589   6.909   3.508 -0.0135 -0.1213  0.0676
19197WAT     H178593   5.582   6.846   3.580  0.9475 -1.0884 -0.6633
19197WAT     H278594   5.675   6.949   3.520  0.9133 -1.5395 -1.5069
19197WAT    EPW78595   5.599   6.906   3.519  0.2356 -0.4361 -0.2365
19198WAT      O78596  -4.081   0.617   6.492 -0.7831 -0.6126 -0.4171
19198WAT     H178597  -4.110   0.636   6.581  1.9984 -0.2945  0.5059
19198WAT     H278598  -4.163   0.607   6.442 -2.6376  4.7471  0.8792
19198WAT    EPW78599  -4.096   0.618   6.497 -0.6607  0.1363 -0.1247
19199WAT      O78600   2.716   8.097   3.290  0.4714 -0.1507 -0.0825
19199WAT     H178601   2.627   8.113   3.257  0.9979  0.7145 -1.1210
19199WAT     H278602   2.745   8.182   3.321  1.0692 -0.3661 -0.0469
19199WAT    EPW78603   2.708   8.110   3.290  0.6198 -0.0653 -0.2148
19200WAT      O78604   3.634   0.172   7.586  0.5555 -0.1276 -0.2153
19200WAT     H178605   3.571   0.155   7.657 -1.1720  0.2226 -1.5838
19200WAT     H278606   3.687   0.093   7.581  1.3874  0.1981  2.0582
19200WAT    EPW78607   3.633   0.160   7.595  0.4374 -0.0384 -0.0958
19201WAT      O78608   3.894   6.559   0.407  0.0964  0.5605  0.5830
19201WAT     H178609   3.980   6.594   0.384 -0.2097  1.7755  1.2166
19201WAT     H278610   3.832   6.617   0.362 -0.4587 -2.1924 -2.6224
19201WAT    EPW78611   3.897   6.571   0.398 -0.0172  0.3576  0.2438
19202WAT      O78612   2.059   7.654   2.555  0.3511  0.3103  0.3633
19202WAT     H178613   1.979   7.630   2.509  0.7191 -3.1648  1.1987
19202WAT     H278614   2.129   7.640   2.491  0.5757 -1.0952  0.8688
19202WAT    EPW78615   2.058   7.649   2.541  0.4292 -0.3335  0.5401
19203WAT      O78616   0.010   1.267   1.265  0.6991  0.9645  0.6673
19203WAT     H178617   0.086   1.291   1.212 -0.5957  0.1686 -1.6918
19203WAT     H278618  -0.028   1.192   1.220  0.1072 -0.5091  3.3987
19203WAT    EPW78619   0.015   1.261   1.252  0.4503  0.6651  0.7164
19204WAT      O78620   5.021   2.967   3.418 -0.0744 -0.5398 -0.3990
19204WAT     H178621   4.987   2.974   3.329  0.7668 -3.1616 -1.0260
19204WAT     H278622   4.944   2.964   3.474 -0.7030 -1.1264 -1.2764
19204WAT    EPW78623   5.006   2.967   3.414 -0.0463 -0.9630 -0.5974
19205WAT      O78624   5.379  10.171   2.964 -0.1007  0.4526 -0.3471
19205WAT     H178625   5.294  10.196   2.929 -1.2237 -1.5664  0.7705
19205WAT     H278626   5.403  10.092   2.916 -0.7397 -1.2107  1.8719
19205WAT    EPW78627   5.371  10.164   2.953 -0.3333 -0.0329  0.0930
19206WAT      O78628   0.236   5.475   8.857  0.1401 -0.4026 -0.0139
19206WAT     H178629   0.231   5.542   8.788 -0.5658  0.8852  1.2260
19206WAT     H278630   0.148   5.473   8.894  0.8765  0.1221  1.8871
19206WAT    EPW78631   0.223   5.484   8.853  0.1441 -0.1636  0.4005
19207WAT      O78632   7.431   8.485   0.420  0.4712 -0.2083  0.1899
19207WAT     H178633   7.501   8.549   0.410  1.0751 -1.0026 -0.8699
19207WAT     H278634   7.416   8.452   0.331 -2.5627  1.2670  0.0287
19207WAT    EPW78635   7.438   8.489   0.407  0.1507 -0.1187  0.0288
19208WAT      O78636   3.340  10.072   3.727  0.0191  0.3529  0.7727
19208WAT     H178637   3.429  10.050   3.753  1.2333  1.4416 -2.1363
19208WAT     H278638   3.330  10.036   3.639 -2.7129 -0.3688  1.2862
19208WAT    EPW78639   3.350  10.064   3.719 -0.1810  0.4010  0.4569
19209WAT      O78640  -1.246   5.592   0.278 -0.4905 -0.3317  0.6384
19209WAT     H178641  -1.287   5.517   0.321 -1.1878 -0.0672  0.4442
19209WAT     H278642  -1.234   5.565   0.187  2.4268 -1.4890  1.2501
19209WAT    EPW78643  -1.250   5.579   0.272 -0.1977 -0.4494  0.6935
19210WAT      O78644   6.376   2.785   2.348 -0.9681 -0.0308 -0.1933
19210WAT     H178645   6.348   2.695   2.332 -1.2287 -0.1866  1.0801
19210WAT     H278646   6.467   2.777   2.378 -0.7645  0.1955 -0.7292
19210WAT    EPW78647   6.385   2.772   2.350 -0.9756 -0.0215 -0.0961
19211WAT      O78648   7.843   1.398   0.903 -0.0273  0.3819  0.2248
19211WAT     H178649   7.775   1.457   0.937  1.1324  2.0453 -0.2711
19211WAT     H278650   7.842   1.324   0.965 -1.6375  0.7936  0.7566
19211WAT    EPW78651   7.834   1.396   0.916 -0.0868  0.6556  0.2295
19212WAT      O78652   0.984   5.402   3.037  0.3496  0.3410  0.4489
19212WAT     H178653   1.004   5.439   2.951  1.3801 -0.2669  0.4060
19212WAT     H278654   1.014   5.468   3.099  0.5965  0.3245  0.3489
19212WAT    EPW78655   0.991   5.415   3.034  0.5181  0.2587  0.4300
19213WAT      O78656  -4.132   4.181   6.761  0.2196  0.4062 -0.0217
19213WAT     H178657  -4.194   4.161   6.690 -0.2140 -1.0802  0.7493
19213WAT     H278658  -4.109   4.096   6.798 -1.5822  1.2051  3.3364
19213WAT    EPW78659  -4.138   4.167   6.756 -0.0753  0.3154  0.5231
19214WAT      O78660  -6.020   5.733   6.770 -0.3281  0.1603  0.2059
19214WAT     H178661  -6.086   5.786   6.726  1.7536  2.9854  0.2396
19214WAT     H278662  -6.029   5.646   6.730 -4.1555  0.2829  0.4338
19214WAT    EPW78663  -6.030   5.728   6.759 -0.5581  0.5491  0.2406
19215WAT      O78664   6.810   8.762   0.238 -0.2544  0.8808  0.0853
19215WAT     H178665   6.834   8.826   0.306  1.3950  0.4814 -0.0594
19215WAT     H278666   6.850   8.797   0.158  0.5389 -0.2231 -0.0249
19215WAT    EPW78667   6.819   8.775   0.237  0.0677  0.6824  0.0517
19216WAT      O78668  -1.866   9.711   2.937  0.0668 -0.3601  0.2955
19216WAT     H178669  -1.854   9.623   2.974 -2.2388  0.3414  3.0471
19216WAT     H278670  -1.940   9.701   2.876  0.0088 -0.3739  0.3684
19216WAT    EPW78671  -1.874   9.698   2.934 -0.2449 -0.2689  0.6680
19217WAT      O78672  -0.821   6.645   8.565  0.1370 -0.2994 -0.4249
19217WAT     H178673  -0.894   6.694   8.530 -0.3778 -0.6114  0.1928
19217WAT     H278674  -0.850   6.554   8.564  1.8448 -0.9646 -3.5816
19217WAT    EPW78675  -0.834   6.639   8.561  0.2944 -0.4284 -0.7596
19218WAT      O78676   7.514   5.580   0.112 -0.0618  0.6143 -0.6240
19218WAT     H178677   7.541   5.502   0.161 -1.2631 -0.2076 -1.2109
19218WAT     H278678   7.564   5.651   0.151  0.6685 -0.3673  0.2934
19218WAT    EPW78679   7.524   5.579   0.124 -0.1240  0.3762 -0.5804
19219WAT      O78680   5.845   6.155   4.615  0.8563 -0.1176 -0.2069
19219WAT     H178681   5.774   6.093   4.627  3.0048 -2.2813  2.8813
19219WAT     H278682   5.848   6.204   4.697  2.0406  0.9211 -0.8353
19219WAT    EPW78683   5.836   6.154   4.627  1.2958 -0.2661  0.1175
19220WAT      O78684   1.733   1.363   4.927 -0.2899 -0.3861 -0.0036
19220WAT     H178685   1.763   1.298   4.864 -0.6511 -1.4924  0.9347
19220WAT     H278686   1.794   1.356   5.000 -0.9884 -0.4843  0.5861
19220WAT    EPW78687   1.745   1.353   4.928 -0.4297 -0.5450  0.1976
19221WAT      O78688   4.461   1.406   2.200  0.3006  0.2087  0.0518
19221WAT     H178689   4.471   1.363   2.114 -0.9922 -0.8348  0.3861
19221WAT     H278690   4.511   1.351   2.260 -1.8362 -1.2650  0.5857
19221WAT    EPW78691   4.469   1.393   2.196 -0.1519 -0.1233  0.1663
19222WAT      O78692   3.890   1.646   7.609  0.4396  0.1323 -0.1636
19222WAT     H178693   3.869   1.553   7.601  1.1362  0.0281 -0.7886
19222WAT     H278694   3.826   1.690   7.553  0.5632 -0.0194 -0.4194
19222WAT    EPW78695   3.879   1.640   7.601  0.5478  0.0985 -0.2797
19223WAT      O78696  -0.866   7.157   4.465 -0.2806  0.5808  0.3376
19223WAT     H178697  -0.813   7.197   4.534  3.2802  0.4828 -2.0883
19223WAT     H278698  -0.951   7.202   4.471  0.7455  2.4090  3.0563
19223WAT    EPW78699  -0.870   7.168   4.475  0.3244  0.8092  0.3762
19224WAT      O78700   1.341  10.160   7.353  0.2560 -1.1401 -0.2074
19224WAT     H178701   1.347  10.217   7.277  0.3173 -0.2771  0.4270
19224WAT     H278702   1.279  10.091   7.327  0.3496 -0.9157 -1.0560
19224WAT    EPW78703   1.334  10.158   7.340  0.2764 -0.9966 -0.2356
19225WAT      O78704   4.789   0.473   0.211 -0.4150  0.7536 -0.2501
19225WAT     H178705   4.792   0.552   0.267 -0.6017  0.5745  0.0149
19225WAT     H278706   4.878   0.437   0.217 -0.0062  1.5586 -1.2697
19225WAT    EPW78707   4.801   0.479   0.219 -0.3858  0.8362 -0.3497
19226WAT      O78708   4.591   8.449   3.469 -1.1156 -0.0207  0.4052
19226WAT     H178709   4.512   8.398   3.454 -1.0658  0.2655 -0.9558
19226WAT     H278710   4.620   8.423   3.556 -2.0247 -1.0339  0.4265
19226WAT    EPW78711   4.584   8.439   3.479 -1.2288 -0.1168  0.2286
19227WAT      O78712   6.476   6.095   2.795 -0.8756  0.3254  0.0144
19227WAT     H178713   6.405   6.151   2.824  0.0249  3.1902 -2.7340
19227WAT     H278714   6.470   6.096   2.700  1.4598 -1.2618 -0.2407
19227WAT    EPW78715   6.466   6.102   2.786 -0.4489  0.4940 -0.3817
19228WAT      O78716  -2.183   9.031   4.776  0.1092 -0.0990  0.8070
19228WAT     H178717  -2.257   9.086   4.751  0.0740 -0.2116  0.6608
19228WAT     H278718  -2.204   9.001   4.865 -0.8192 -1.4683  0.1612
19228WAT    EPW78719  -2.196   9.034   4.785 -0.0179 -0.2947  0.7024
19229WAT      O78720   2.494   6.989   2.908 -0.0338 -0.6666 -0.1887
19229WAT     H178721   2.538   6.937   2.975 -0.2021  0.1086  0.5388
19229WAT     H278722   2.534   7.076   2.915  0.8353 -0.8826 -1.9397
19229WAT    EPW78723   2.505   6.994   2.918  0.0585 -0.5927 -0.3237
19230WAT      O78724   0.130   0.732   1.811 -0.0233  0.1154 -0.1725
19230WAT     H178725   0.131   0.826   1.831  0.6109 -0.0726  0.7161
19230WAT     H278726   0.151   0.689   1.894  0.6800 -0.7815 -0.7922
19230WAT    EPW78727   0.133   0.739   1.825  0.1531 -0.0277 -0.1371
19231WAT      O78728   1.610   0.459   3.009 -0.0520 -0.7242 -0.0511
19231WAT     H178729   1.627   0.477   3.102 -1.4340  0.4432  0.0076
19231WAT     H278730   1.573   0.371   3.008  0.1793 -0.8294  0.4809
19231WAT    EPW78731   1.607   0.450   3.021 -0.2038 -0.5841  0.0268
19232WAT      O78732   1.313   1.871   7.890  0.1646  0.4701 -0.2212
19232WAT     H178733   1.312   1.966   7.887 -1.1322  0.4740 -0.1549
19232WAT     H278734   1.277   1.849   7.977  0.9189 -0.0787 -0.0322
19232WAT    EPW78735   1.308   1.880   7.901  0.0930  0.3982 -0.1876
19233WAT      O78736   2.387   2.007   3.652 -0.5298 -0.5116 -0.1603
19233WAT     H178737   2.451   2.021   3.582 -1.3950  0.0570 -0.8523
19233WAT     H278738   2.441   1.988   3.730  0.4351 -2.5658 -1.2398
19233WAT    EPW78739   2.403   2.006   3.653 -0.5167 -0.7075 -0.3939
19234WAT      O78740   0.637   5.889   5.105 -0.5138 -0.2533  0.4139
19234WAT     H178741   0.656   5.826   5.036 -0.1607 -1.7978  1.8855
19234WAT     H278742   0.543   5.905   5.097 -0.4901 -0.4817 -0.3678
19234WAT    EPW78743   0.627   5.883   5.095 -0.4641 -0.4871  0.5050
19235WAT      O78744   1.671   5.573   2.294 -0.4120 -0.8309 -0.1674
19235WAT     H178745   1.749   5.582   2.348 -1.1917  0.1085  0.8376
19235WAT     H278746   1.607   5.530   2.351 -2.0425  2.3054  0.5856
19235WAT    EPW78747   1.673   5.568   2.309 -0.7299 -0.2933  0.0645
19236WAT      O78748   1.899   8.214   3.953 -0.3506 -0.1262  0.0626
19236WAT     H178749   1.848   8.292   3.976 -1.0891  0.3926 -2.8979
19236WAT     H278750   1.860   8.184   3.871  1.2336 -2.4488  0.0748
19236WAT    EPW78751   1.887   8.221   3.946 -0.2391 -0.3638 -0.3264
19237WAT      O78752  -1.019   3.553   3.941 -0.6669  0.1129 -0.3923
19237WAT     H178753  -0.978   3.621   3.887 -1.4689 -0.0705 -1.2542
19237WAT     H278754  -0.957   3.538   4.011 -0.2629  1.4186 -0.4403
19237WAT    EPW78755  -1.006   3.560   3.943 -0.7194  0.2609 -0.5122
19238WAT      O78756   7.102   7.688   1.306 -0.1569  0.1266  0.0202
19238WAT     H178757   7.012   7.660   1.286  0.1496 -1.1420  0.3037
19238WAT     H278758   7.155   7.611   1.284  0.9992  1.2454 -1.2302
19238WAT    EPW78759   7.097   7.674   1.300  0.0360  0.1068 -0.1073
19239WAT      O78760  -2.996   5.734   2.236 -0.0796 -0.9350 -0.4285
19239WAT     H178761  -3.064   5.708   2.299 -0.7523  0.5292 -0.5025
19239WAT     H278762  -2.959   5.815   2.273  1.3454 -1.4751 -0.6150
19239WAT    EPW78763  -3.000   5.742   2.249  0.0198 -0.8130 -0.4628
19240WAT      O78764   3.250   0.945   3.682  0.1263 -0.7569  0.1348
19240WAT     H178765   3.327   1.002   3.686  0.4481 -1.0252 -1.5058
19240WAT     H278766   3.215   0.947   3.770  0.9023  0.9155  0.4552
19240WAT    EPW78767   3.256   0.953   3.694  0.2711 -0.5717 -0.0393
19241WAT      O78768   6.113   2.745   5.827 -0.1804 -0.8751 -0.3018
19241WAT     H178769   6.057   2.822   5.824  0.4411 -0.4360 -0.8526
19241WAT     H278770   6.110   2.716   5.919 -1.1100 -0.7226 -0.2805
19241WAT    EPW78771   6.105   2.751   5.839 -0.2210 -0.7970 -0.3715
19242WAT      O78772   0.834   7.904   0.663 -0.3062  0.2969  0.6620
19242WAT     H178773   0.926   7.933   0.659  0.2832 -1.6052 -1.4642
19242WAT     H278774   0.817   7.892   0.756  1.0907  2.1611  1.2189
19242WAT    EPW78775   0.844   7.907   0.674 -0.0442  0.2918  0.4550
19243WAT      O78776  -0.603   5.110   4.691 -0.2812  0.2629  0.3712
19243WAT     H178777  -0.540   5.173   4.658 -0.8097  0.7246  0.2428
19243WAT     H278778  -0.588   5.031   4.639  1.6616 -0.3696  1.7703
19243WAT    EPW78779  -0.592   5.108   4.680 -0.0947  0.2403  0.5388
19244WAT      O78780  -2.055   5.236   7.681 -0.0333  0.1654  0.3238
19244WAT     H178781  -2.008   5.153   7.689 -1.8432 -0.8467  1.0378
19244WAT     H278782  -2.061   5.251   7.587  0.4666 -0.4184  0.1912
19244WAT    EPW78783  -2.049   5.227   7.670 -0.2061 -0.0453  0.4005
19245WAT      O78784   2.495   4.051   0.782  0.1060 -0.1130 -0.0110
19245WAT     H178785   2.417   4.085   0.826 -0.2826  1.8671 -2.0628
19245WAT     H278786   2.524   4.123   0.726  1.9800 -1.6704 -1.1570
19245WAT    EPW78787   2.489   4.065   0.781  0.3020 -0.0572 -0.4328
19246WAT      O78788   3.516   0.783   8.459 -0.1859  0.0080 -0.3455
19246WAT     H178789   3.565   0.865   8.453 -1.7126  1.1615  1.7174
19246WAT     H278790   3.574   0.725   8.508  1.0712 -0.3705 -2.1555
19246WAT    EPW78791   3.530   0.786   8.465 -0.2214  0.1102 -0.3123
19247WAT      O78792   3.111  10.319   0.218  0.0457 -0.1254 -0.8100
19247WAT     H178793   3.063  10.280   0.145 -0.5607  1.3745 -1.2588
19247WAT     H278794   3.155  10.245   0.260 -1.3312 -1.3152 -1.3775
19247WAT    EPW78795   3.111  10.304   0.214 -0.2159 -0.0844 -0.9441
19248WAT      O78796  -0.650   3.602   6.854 -0.0875 -0.4427 -0.6707
19248WAT     H178797  -0.734   3.620   6.897 -1.2725 -0.6128 -2.7682
19248WAT     H278798  -0.585   3.619   6.922 -1.8326 -1.1718  1.3350
19248WAT    EPW78799  -0.653   3.606   6.869 -0.4740 -0.5612 -0.6828
19249WAT      O78800   0.180  10.197   4.302 -0.2671 -0.1991  0.3585
19249WAT     H178801   0.141  10.152   4.377  0.4802 -1.2364  0.1392
19249WAT     H278802   0.124  10.175   4.229 -0.3168 -0.1647  0.3859
19249WAT    EPW78803   0.167  10.188   4.303 -0.1751 -0.3314  0.3333
19250WAT      O78804   2.822   3.206   2.421  0.4396  0.4491  0.4904
19250WAT     H178805   2.872   3.188   2.500  1.6622  1.4187 -0.0150
19250WAT     H278806   2.772   3.285   2.442  0.8191  0.7482  0.2886
19250WAT    EPW78807   2.822   3.214   2.434  0.6510  0.6164  0.3971
19251WAT      O78808   1.571   3.591   3.609 -0.4288  0.3181  0.1550
19251WAT     H178809   1.542   3.500   3.610 -3.3510  1.1351 -0.8701
19251WAT     H278810   1.564   3.618   3.517 -0.1123  1.7273  0.5142
19251WAT    EPW78811   1.567   3.583   3.597 -0.7725  0.6117  0.0672
19252WAT      O78812   1.084   4.871   2.813 -0.1842  0.6854  0.1446
19252WAT     H178813   1.076   4.862   2.908 -3.4293  2.9027  0.2292
19252WAT     H278814   1.043   4.793   2.778 -0.8512  0.8126  0.6167
19252WAT    EPW78815   1.078   4.860   2.821 -0.7002  0.9947  0.2180
19253WAT      O78816  -1.510   5.770   2.461 -0.6602 -0.2394 -0.5246
19253WAT     H178817  -1.525   5.794   2.369 -1.6460  0.3818 -0.2206
19253WAT     H278818  -1.598   5.763   2.499 -0.3021 -1.4782  0.1431
19253WAT    EPW78819  -1.524   5.772   2.454 -0.7430 -0.3209 -0.3964
19254WAT      O78820  -4.689   4.933   5.778 -0.3968  0.6057 -0.2473
19254WAT     H178821  -4.698   4.922   5.684 -0.6826 -0.4543 -0.1086
19254WAT     H278822  -4.774   4.969   5.806 -0.1280  1.4249 -0.4512
19254WAT    EPW78823  -4.702   4.936   5.770 -0.3989  0.5739 -0.2561
19255WAT      O78824   4.751   3.280   1.576 -0.3362 -0.4187  0.3746
19255WAT     H178825   4.722   3.327   1.499  0.5863  0.8318  0.7597
19255WAT     H278826   4.682   3.294   1.641 -0.8183 -0.9585 -0.0111
19255WAT    EPW78827   4.738   3.288   1.575 -0.2782 -0.3250  0.3745
19256WAT      O78828  -2.817   9.421   2.709  0.5497  0.0778 -0.4441
19256WAT     H178829  -2.776   9.397   2.793  1.3394  0.0936 -0.8191
19256WAT     H278830  -2.744   9.426   2.647 -0.1251 -0.8462 -1.3534
19256WAT    EPW78831  -2.802   9.419   2.712  0.5648 -0.0420 -0.6135
19257WAT      O78832  -0.478   4.007   1.863  0.3584 -0.5459 -0.0260
19257WAT     H178833  -0.452   4.093   1.832  1.1817 -1.2621 -1.4548
19257WAT     H278834  -0.524   4.023   1.945  0.3350  1.2528 -0.3592
19257WAT    EPW78835  -0.481   4.020   1.870  0.4639 -0.4032 -0.2584
19258WAT      O78836   5.494   1.202   6.756  0.2532  0.4513  0.5706
19258WAT     H178837   5.549   1.189   6.833  1.4174  2.1813  0.0950
19258WAT     H278838   5.435   1.274   6.781  0.4940  0.8800 -0.0632
19258WAT    EPW78839   5.493   1.210   6.769  0.4387  0.7360  0.4244
19259WAT      O78840   6.021   6.027   4.085  0.1920 -0.5282 -0.4997
19259WAT     H178841   5.983   5.939   4.087  0.2644 -0.5531 -0.2046
19259WAT     H278842   6.106   6.017   4.128 -1.2512  0.3576  2.9386
19259WAT    EPW78843   6.027   6.014   4.091  0.0112 -0.4146 -0.0074
19260WAT      O78844  -1.616   9.902   0.915  0.0047 -0.0835 -0.4349
19260WAT     H178845  -1.600   9.910   0.821  0.0540 -1.2126 -0.5249
19260WAT     H278846  -1.690   9.962   0.931 -0.0781  0.0341 -1.2044
19260WAT    EPW78847  -1.624   9.911   0.905  0.0003 -0.2170 -0.5483
19261WAT      O78848   1.512   7.776   2.491 -0.6329 -0.0370 -0.5332
19261WAT     H178849   1.467   7.833   2.553  1.5878  0.5861  0.5824
19261WAT     H278850   1.605   7.792   2.506  0.0100 -1.1545 -2.8450
19261WAT    EPW78851   1.518   7.786   2.501 -0.2552 -0.1020 -0.6909
19262WAT      O78852   6.773   9.445   0.070  0.2080 -0.7724 -0.3794
19262WAT     H178853   6.755   9.352   0.082  0.4068 -0.9412 -1.3184
19262WAT     H278854   6.736   9.487   0.148 -0.3468 -1.5763 -0.1978
19262WAT    EPW78855   6.766   9.438   0.082  0.1609 -0.9007 -0.4793
19263WAT      O78856  -3.743   1.907   7.734 -0.0214  0.0217 -0.0363
19263WAT     H178857  -3.838   1.894   7.736 -0.1729  1.1862  1.3060
19263WAT     H278858  -3.725   1.940   7.645 -1.0984  1.3074  0.1962
19263WAT    EPW78859  -3.753   1.909   7.722 -0.1835  0.3449  0.1714
19264WAT      O78860   0.592   8.974   2.113  0.7791 -0.1856 -0.0789
19264WAT     H178861   0.608   9.015   2.028 -0.5446  0.7392  0.0946
19264WAT     H278862   0.519   8.914   2.097  0.7018 -0.2054  0.3492
19264WAT    EPW78863   0.585   8.971   2.099  0.5943 -0.0658  0.0005
19265WAT      O78864   3.142   3.332   7.867 -0.0114 -0.1445 -0.2095
19265WAT     H178865   3.070   3.376   7.822 -1.0806  0.3187  1.8347
19265WAT     H278866   3.173   3.397   7.931  0.2931 -1.3316  0.8911
19265WAT    EPW78867   3.136   3.347   7.870 -0.1123 -0.2400  0.2053
19266WAT      O78868   5.446   5.212   0.132  0.0553 -0.1386  0.1190
19266WAT     H178869   5.409   5.124   0.138 -1.6292  0.4307 -0.9073
19266WAT     H278870   5.540   5.200   0.143 -0.0613 -2.1504 -0.6511
19266WAT    EPW78871   5.453   5.199   0.134 -0.1822 -0.3290 -0.1179
19267WAT      O78872   5.183   6.976   4.184 -0.4316  0.0514  0.2321
19267WAT     H178873   5.113   6.980   4.250 -0.2280  1.9041  0.3737
19267WAT     H278874   5.260   7.010   4.228 -0.2004  0.9832 -0.8344
19267WAT    EPW78875   5.184   6.981   4.198 -0.3741  0.4184  0.1101
19268WAT      O78876   2.380   7.757   5.827 -0.0691  0.3337  0.0794
19268WAT     H178877   2.447   7.723   5.886  0.5960 -0.5214 -1.1198
19268WAT     H278878   2.385   7.852   5.837  1.8025  0.3383 -0.4574
19268WAT    EPW78879   2.390   7.765   5.836  0.2655  0.2217 -0.1497
19269WAT      O78880  -0.417   9.192   1.120  0.3258  0.0578  0.4047
19269WAT     H178881  -0.404   9.193   1.215 -1.7531  2.5826  0.7763
19269WAT     H278882  -0.455   9.106   1.102  0.4618 -0.3431  1.8832
19269WAT    EPW78883  -0.420   9.181   1.130  0.0696  0.3381  0.6487
19270WAT      O78884   1.979   5.692   2.593  0.5671 -0.6520 -0.3815
19270WAT     H178885   2.021   5.659   2.673 -1.8354 -0.1631  1.1874
19270WAT     H278886   1.978   5.617   2.534 -0.7376 -2.1571  1.4203
19270WAT    EPW78887   1.984   5.678   2.596  0.0781 -0.7858  0.0632
19271WAT      O78888   0.894   1.095   5.000  0.6672 -0.7293  0.4233
19271WAT     H178889   0.955   1.039   5.047  0.8422 -1.4069 -0.5769
19271WAT     H278890   0.882   1.052   4.915 -0.5892 -0.1974  0.2999
19271WAT    EPW78891   0.900   1.082   4.995  0.5246 -0.7486  0.2749
19272WAT      O78892   4.201   0.857   6.948  0.4106  0.3392 -0.6137
19272WAT     H178893   4.269   0.795   6.975 -1.0996 -1.2784 -0.3545
19272WAT     H278894   4.154   0.877   7.029 -1.6282 -1.3801 -1.3024
19272WAT    EPW78895   4.204   0.852   6.962 -0.0575 -0.1009 -0.6702
19273WAT      O78896   0.376   5.569   1.642  0.1896 -0.1682 -0.0097
19273WAT     H178897   0.465   5.605   1.638  0.3526 -0.7002 -2.4378
19273WAT     H278898   0.328   5.632   1.696  2.1856 -0.2930  2.0764
19273WAT    EPW78899   0.382   5.582   1.649  0.4744 -0.2549 -0.0548
19274WAT      O78900   3.508   5.196   4.240 -0.3167 -0.5322  0.5030
19274WAT     H178901   3.464   5.237   4.166 -0.0688  1.8559  1.5844
19274WAT     H278902   3.601   5.215   4.227 -0.1092 -1.3832  0.6840
19274WAT    EPW78903   3.514   5.204   4.229 -0.2565 -0.3295  0.6697
19275WAT      O78904   1.758   4.527   2.656  0.5601  0.1496 -0.1066
19275WAT     H178905   1.815   4.537   2.732  0.3654 -0.5659  0.1333
19275WAT     H278906   1.685   4.473   2.686  0.9219 -0.9003 -1.0269
19275WAT    EPW78907   1.755   4.521   2.670  0.5821 -0.0832 -0.1963
19276WAT      O78908   0.145   6.258   2.642 -0.1645  0.2274  0.5459
19276WAT     H178909   0.126   6.338   2.691 -0.1259  0.0496  0.8552
19276WAT     H278910   0.101   6.270   2.558 -2.0279 -0.3462  1.3875
19276WAT    EPW78911   0.137   6.270   2.637 -0.4051  0.1283  0.6976
19277WAT      O78912  -1.015   6.419   8.515  0.1434  0.7700  0.1035
19277WAT     H178913  -1.076   6.408   8.587  1.7481  1.8255  1.7012
19277WAT     H278914  -0.973   6.334   8.506 -1.6990 -0.0735 -1.2418
19277WAT    EPW78915  -1.017   6.406   8.523  0.1121  0.7980  0.1369
19278WAT      O78916  -0.979   3.192   1.054 -0.0593 -0.1428  0.3460
19278WAT     H178917  -0.908   3.128   1.044  1.3078  1.4102 -0.5145
19278WAT     H278918  -0.934   3.277   1.054 -1.9631  0.9307 -0.7068
19278WAT    EPW78919  -0.964   3.195   1.053 -0.1301  0.2035  0.0937
19279WAT      O78920   5.306   4.465   0.396 -0.7219  0.3197 -0.2756
19279WAT     H178921   5.351   4.475   0.313  0.9409  1.0280  0.6689
19279WAT     H278922   5.356   4.397   0.442 -0.1467  1.5860  1.0594
19279WAT    EPW78923   5.318   4.457   0.391 -0.4268  0.5801  0.0251
19280WAT      O78924  -6.326   8.884   7.283  0.2504 -0.1181  0.6899
19280WAT     H178925  -6.387   8.949   7.318  2.6313  1.3933  2.2859
19280WAT     H278926  -6.287   8.843   7.360  0.2627 -2.0750 -0.2894
19280WAT    EPW78927  -6.329   8.887   7.297  0.5660 -0.1764  0.7713
19281WAT      O78928  -5.016  10.361   5.310 -0.5926 -0.2374  0.5427
19281WAT     H178929  -4.973  10.290   5.357  1.8132  1.1528  0.6149
19281WAT     H278930  -5.010  10.335   5.218  0.8523  0.1275  0.5169
19281WAT    EPW78931  -5.010  10.348   5.304 -0.0849 -0.0062  0.5486
19282WAT      O78932  -0.821   7.220   2.918  0.1924 -0.0561 -0.8473
19282WAT     H178933  -0.741   7.207   2.865 -0.2978  0.3806 -1.7191
19282WAT     H278934  -0.838   7.314   2.913 -0.2034 -0.1052 -0.4125
19282WAT    EPW78935  -0.813   7.230   2.910  0.0756 -0.0050 -0.9050
19283WAT      O78936   0.521   3.312   2.287  0.5089 -0.3920 -0.0617
19283WAT     H178937   0.511   3.247   2.217  1.0511 -0.9293  0.3541
19283WAT     H278938   0.523   3.396   2.241  2.1736 -0.8076 -0.8376
19283WAT    EPW78939   0.520   3.315   2.271  0.8000 -0.5177 -0.1092
19284WAT      O78940  -0.063   6.802   2.593  0.8836 -0.4834  0.2358
19284WAT     H178941  -0.025   6.873   2.541 -0.7309  1.0371  1.0117
19284WAT     H278942  -0.133   6.767   2.538  0.9356 -0.7075  0.3113
19284WAT    EPW78943  -0.067   6.807   2.579  0.6775 -0.3126  0.3481
19285WAT      O78944  -2.523   1.963   5.300 -0.3632  0.2359 -0.3358
19285WAT     H178945  -2.472   1.882   5.303 -0.3792  0.1230 -2.1064
19285WAT     H278946  -2.541   1.977   5.207 -1.9894  1.2605  0.0809
19285WAT    EPW78947  -2.519   1.954   5.289 -0.5798  0.3561 -0.5143
19286WAT      O78948   1.121   0.019   6.938  0.8267 -0.7072 -0.0645
19286WAT     H178949   1.092   0.095   6.989  1.4109  0.4082 -1.3555
19286WAT     H278950   1.039  -0.024   6.911  0.2846  1.5925 -2.4404
19286WAT    EPW78951   1.106   0.023   6.941  0.8323 -0.2568 -0.5481
19287WAT      O78952  -1.731   4.535   1.698  0.6159 -0.4108  0.2488
19287WAT     H178953  -1.651   4.542   1.646  0.5185  0.0616  0.1607
19287WAT     H278954  -1.799   4.577   1.644  0.7059  0.9405  1.1481
19287WAT    EPW78955  -1.730   4.542   1.684  0.6149 -0.1702  0.3557
19288WAT      O78956  -1.729   3.716   0.986  0.4621 -0.1936 -0.1277
19288WAT     H178957  -1.682   3.645   0.941  0.0965  0.0085 -0.8576
19288WAT     H278958  -1.819   3.683   0.994 -0.3179  1.0804 -2.6461
19288WAT    EPW78959  -1.735   3.702   0.981  0.3110  0.0011 -0.5561
19289WAT      O78960   1.342   6.543   2.999 -0.2233  0.0611  0.1979
19289WAT     H178961   1.385   6.623   2.968 -1.8205  2.0416  2.6297
19289WAT     H278962   1.250   6.566   3.006 -0.3443 -0.8246  3.9429
19289WAT    EPW78963   1.336   6.557   2.996 -0.4500  0.2055  1.0126
19290WAT      O78964   3.124   1.811   7.976 -0.2113 -0.7439 -0.2276
19290WAT     H178965   3.047   1.786   8.027  0.1045 -0.7369  0.2613
19290WAT     H278966   3.112   1.769   7.891 -0.8234 -0.6259 -0.1995
19290WAT    EPW78967   3.112   1.802   7.972 -0.2503 -0.7274 -0.1595
19291WAT      O78968   8.201   3.251   2.314 -0.2702  0.7923  0.4132
19291WAT     H178969   8.178   3.332   2.359 -0.5873  0.2822  1.1982
19291WAT     H278970   8.175   3.182   2.375  2.1228  0.1313  0.8196
19291WAT    EPW78971   8.195   3.253   2.328  0.0033  0.6379  0.5703
19292WAT      O78972   1.747   4.624   2.923  0.3531  0.3632 -0.5666
19292WAT     H178973   1.835   4.652   2.950  0.2267  2.6757 -2.2687
19292WAT     H278974   1.710   4.584   3.001  2.3307  0.7915  0.6742
19292WAT    EPW78975   1.754   4.622   2.937  0.5973  0.7248 -0.6275
19293WAT      O78976   5.608   1.195   1.390  0.0192 -0.1194  0.1223
19293WAT     H178977   5.614   1.132   1.318  1.0076  0.7342 -0.5612
19293WAT     H278978   5.626   1.279   1.350 -4.2132  1.1608  0.3794
19293WAT    EPW78979   5.611   1.197   1.375 -0.4089  0.1621  0.0660
19294WAT      O78980   6.301   2.056   1.927  0.1063  0.4025 -0.0005
19294WAT     H178981   6.216   2.066   1.970  0.4380  1.0243  0.5060
19294WAT     H278982   6.362   2.103   1.982  1.0194 -1.0885  0.3196
19294WAT    EPW78983   6.298   2.063   1.940  0.2706  0.2879  0.1085
19295WAT      O78984  -1.799   8.714   2.337 -0.3296  0.5240 -0.2823
19295WAT     H178985  -1.854   8.791   2.351 -2.3430 -1.1907  2.0901
19295WAT     H278986  -1.753   8.702   2.420  2.5839  0.9783 -1.6894
19295WAT    EPW78987  -1.800   8.723   2.349 -0.2109  0.3576 -0.1550
19296WAT      O78988   0.986   7.942   4.914  0.5863 -0.1249  0.5055
19296WAT     H178989   0.959   7.851   4.915  3.3277 -1.0321 -0.1116
19296WAT     H278990   0.906   7.991   4.893 -0.7417 -2.4273 -0.0676
19296WAT    EPW78991   0.972   7.937   4.911  0.7727 -0.5484  0.3483
19297WAT      O78992  -0.549   3.272   2.324  1.0417 -0.2916 -0.4150
19297WAT     H178993  -0.472   3.325   2.347  0.3431  0.3442  0.5435
19297WAT     H278994  -0.512   3.191   2.288  2.1408  0.8437 -2.0206
19297WAT    EPW78995  -0.534   3.268   2.322  1.0945 -0.0579 -0.5003
19298WAT      O78996   0.318   8.610   0.851  0.6342  0.5641  0.3297
19298WAT     H178997   0.248   8.567   0.801  0.7711  0.8117 -0.0756
19298WAT     H278998   0.329   8.554   0.928 -0.7875  1.1178  0.9732
19298WAT    EPW78999   0.310   8.597   0.854  0.4647  0.6695  0.3611
19299WAT      O79000  -0.362  10.155   6.566  0.4913  0.3072  0.4421
19299WAT     H179001  -0.281  10.106   6.553  1.0188  1.5207 -1.1718
19299WAT     H279002  -0.415  10.099   6.624  0.9348 -2.2947 -1.4654
19299WAT    EPW79003  -0.358  10.141   6.572  0.6194  0.1240 -0.0224
19300WAT      O79004  -1.700   6.738   4.834 -0.1220  0.0257  0.2476
19300WAT     H179005  -1.672   6.750   4.743 -1.6036  1.2516 -0.1099
19300WAT     H279006  -1.698   6.644   4.848  0.1276 -0.1844 -1.0608
19300WAT    EPW79007  -1.696   6.727   4.823 -0.2846  0.1597  0.0277
19301WAT      O79008  -1.666   8.527   6.982 -0.1266  0.2559 -0.0990
19301WAT     H179009  -1.728   8.540   7.054 -0.2079  0.4936 -0.2086
19301WAT     H279010  -1.624   8.443   7.001  1.7790  1.5087  1.6773
19301WAT    EPW79011  -1.668   8.518   6.994  0.1140  0.4520  0.1209
19302WAT      O79012   1.717   0.740   3.396 -0.8814  0.5221 -0.1880
19302WAT     H179013   1.792   0.769   3.344 -0.0599 -0.3577  0.4743
19302WAT     H279014   1.756   0.701   3.474 -1.9921 -0.8928 -0.3097
19302WAT    EPW79015   1.732   0.739   3.400 -0.9195  0.2194 -0.1167
19303WAT      O79016  -3.906   7.193   6.472 -0.2096  0.5957  0.3446
19303WAT     H179017  -3.927   7.267   6.528  0.3467  1.0031  0.0285
19303WAT     H279018  -3.982   7.135   6.477 -1.3346  1.9251 -0.6424
19303WAT    EPW79019  -3.919   7.195   6.480 -0.2847  0.8247  0.1729
19304WAT      O79020   3.617   9.390   2.492  0.5360  0.3068 -0.3313
19304WAT     H179021   3.526   9.397   2.466  0.3997  1.2445  0.3139
19304WAT     H279022   3.651   9.314   2.445 -0.4260  0.2827 -0.9994
19304WAT    EPW79023   3.610   9.381   2.483  0.3910  0.4272 -0.3343
19305WAT      O79024   0.876   9.741   7.740  0.0045 -0.1183  0.0527
19305WAT     H179025   0.865   9.649   7.762  1.2876 -0.4456 -0.5571
19305WAT     H279026   0.843   9.748   7.650  0.1260 -0.0351  0.0150
19305WAT    EPW79027   0.870   9.730   7.731  0.1897 -0.1502 -0.0329
19306WAT      O79028  -2.303   9.858   1.310 -0.5397 -0.6461 -0.2178
19306WAT     H179029  -2.241   9.801   1.264  1.8333  1.6096 -0.0432
19306WAT     H279030  -2.325   9.926   1.246  1.7545  1.7753  1.3216
19306WAT    EPW79031  -2.297   9.860   1.296  0.0758 -0.0291  0.0083
19307WAT      O79032  -3.928  10.050   4.588 -0.7522 -0.6082  0.1172
19307WAT     H179033  -3.903   9.974   4.535 -1.2498 -0.8158  0.1741
19307WAT     H279034  -3.859  10.058   4.653 -1.0506 -1.4297  0.5382
19307WAT    EPW79035  -3.916  10.041   4.589 -0.8572 -0.7443  0.1805
19308WAT      O79036  -7.233   9.493   6.975  1.2408  0.0364 -0.1139
19308WAT     H179037  -7.225   9.588   6.964 -2.6024  0.3790 -1.3663
19308WAT     H279038  -7.236   9.459   6.886 -3.4432 -0.3990 -0.0169
19308WAT    EPW79039  -7.232   9.501   6.962  0.1163  0.0243 -0.2666
19309WAT      O79040   7.223   4.620   0.169  0.2344  0.7147 -0.1011
19309WAT     H179041   7.161   4.560   0.211  0.7064  1.7134  2.1748
19309WAT     H279042   7.247   4.576   0.088  1.7856 -3.0500  2.1235
19309WAT    EPW79043   7.218   4.606   0.164  0.5012  0.3498  0.4925
19310WAT      O79044   4.321   0.915   4.981  1.0487 -0.0255 -0.2172
19310WAT     H179045   4.269   0.971   5.039 -1.0497 -1.5694 -0.5019
19310WAT     H279046   4.352   0.844   5.037 -2.2793 -2.3866 -1.0642
19310WAT    EPW79047   4.318   0.913   4.996  0.3328 -0.5406 -0.3664
19311WAT      O79048   0.915   2.146   0.323  0.0331  0.3300  0.2461
19311WAT     H179049   0.862   2.216   0.361 -0.0846  1.2784 -1.5473
19311WAT     H279050   0.878   2.065   0.358 -1.7775  1.0315  0.0432
19311WAT    EPW79051   0.903   2.144   0.332 -0.2212  0.5475 -0.0172
19312WAT      O79052   8.432   2.194   1.506  0.2671  0.3868  0.0916
19312WAT     H179053   8.395   2.113   1.471 -0.1878  0.1473  1.0955
19312WAT     H279054   8.375   2.263   1.472 -1.3012  0.0107  1.7752
19312WAT    EPW79055   8.420   2.192   1.497  0.0005  0.3057  0.4461
19313WAT      O79056  -4.827   9.839   6.630  0.4050  0.4451 -0.2033
19313WAT     H179057  -4.858   9.776   6.565 -1.3571  0.6481  0.3958
19313WAT     H279058  -4.811   9.787   6.709  0.6586  0.5037 -0.2129
19313WAT    EPW79059  -4.829   9.824   6.632  0.2062  0.4797 -0.1256
19314WAT      O79060  -5.124   2.955   7.877  0.2683  0.7397 -0.2842
19314WAT     H179061  -5.059   2.974   7.810  2.2849 -1.8459  0.7662
19314WAT     H279062  -5.094   3.002   7.954  0.1286  0.6125 -0.1510
19314WAT    EPW79063  -5.111   2.964   7.878  0.5159  0.3818 -0.1280
19315WAT      O79064  -6.303   9.359   5.730  0.1125  0.3970 -0.5675
19315WAT     H179065  -6.260   9.433   5.774 -0.5003 -0.5316  1.7774
19315WAT     H279066  -6.239   9.288   5.735 -1.2243 -0.7703  2.2526
19315WAT    EPW79067  -6.289   9.359   5.737 -0.1445  0.1202  0.1137
19316WAT      O79068  -1.832   6.459   5.901  0.5488  0.5274  0.2873
19316WAT     H179069  -1.890   6.384   5.907  0.6975  0.5086  1.8326
19316WAT     H279070  -1.877   6.518   5.840 -0.6261  0.0952  0.6879
19316WAT    EPW79071  -1.846   6.457   5.894  0.4134  0.4680  0.5438
19317WAT      O79072  -2.550   2.847   3.660 -0.0580  0.6967 -0.1560
19317WAT     H179073  -2.486   2.792   3.615 -0.8635 -0.4717  0.0624
19317WAT     H279074  -2.618   2.785   3.688 -3.0578  2.2215 -3.3193
19317WAT    EPW79075  -2.551   2.831   3.658 -0.5599  0.7436 -0.5444
19318WAT      O79076  -4.009   2.656   8.350 -0.4566 -0.7508  0.7760
19318WAT     H179077  -4.002   2.565   8.379  2.1755 -0.6901  0.6451
19318WAT     H279078  -3.951   2.660   8.273 -2.2329  0.5687 -0.5625
19318WAT    EPW79079  -4.000   2.644   8.344 -0.3439 -0.5687  0.5822
19319WAT      O79080   3.828   6.615   2.869 -0.6690 -0.0306 -0.1198
19319WAT     H179081   3.829   6.582   2.959 -0.5421 -2.6368 -1.0032
19319WAT     H279082   3.860   6.704   2.876  0.1514 -0.4474  2.3149
19319WAT    EPW79083   3.832   6.622   2.882 -0.5441 -0.4292  0.0846
19320WAT      O79084  -1.573   3.353   6.041  0.4054  0.1134  0.4516
19320WAT     H179085  -1.663   3.382   6.053 -0.7977 -3.3432  0.9931
19320WAT     H279086  -1.524   3.432   6.021 -2.4019  2.3933  1.9192
19320WAT    EPW79087  -1.578   3.367   6.040 -0.1235 -0.0418  0.7167
19321WAT      O79088   3.857   6.804   4.400 -0.4477 -0.9497  0.3037
19321WAT     H179089   3.790   6.769   4.458  0.5989  0.1606  2.2560
19321WAT     H279090   3.827   6.778   4.312 -2.5381 -1.9049  1.2138
19321WAT    EPW79091   3.844   6.796   4.396 -0.5854 -0.9291  0.6812
19322WAT      O79092  -0.506   5.925   2.488 -0.3492 -1.1083  0.3827
19322WAT     H179093  -0.581   5.959   2.440  0.8233 -0.3253 -0.9791
19322WAT     H279094  -0.541   5.901   2.574 -1.6295  1.8160  0.8006
19322WAT    EPW79095  -0.521   5.926   2.493 -0.3634 -0.6192  0.2582
19323WAT      O79096  -2.398   3.417   6.128 -0.1308 -0.7247  0.5077
19323WAT     H179097  -2.324   3.357   6.136  1.1490  0.2077 -2.7532
19323WAT     H279098  -2.373   3.493   6.181  1.4255 -0.3506 -0.6872
19323WAT    EPW79099  -2.385   3.419   6.136  0.2432 -0.5524 -0.0801
19324WAT      O79100   8.995   1.822   1.852  0.0433  0.6369 -0.6374
19324WAT     H179101   9.000   1.736   1.810  0.5443  0.3742 -0.0543
19324WAT     H279102   8.939   1.873   1.794  1.1234  0.4450 -1.8862
19324WAT    EPW79103   8.988   1.817   1.839  0.2518  0.5770 -0.7251
19325WAT      O79104   0.765   4.322   0.513  0.6024 -0.0806 -0.1362
19325WAT     H179105   0.787   4.340   0.422 -1.6193  0.3566 -0.6499
19325WAT     H279106   0.740   4.407   0.549 -3.3227 -0.8237 -0.6252
19325WAT    EPW79107   0.765   4.335   0.506 -0.2083 -0.1209 -0.2684
19326WAT      O79108   0.387   6.734   0.915 -0.9055 -0.5278  0.5632
19326WAT     H179109   0.352   6.647   0.934  1.4520 -1.8149 -0.5048
19326WAT     H279110   0.364   6.750   0.823  3.3241 -2.6889 -1.1500
19326WAT    EPW79111   0.379   6.724   0.905 -0.0367 -0.9825  0.1964
19327WAT      O79112  -1.026   4.747   5.395  0.2800 -0.7211  0.0593
19327WAT     H179113  -1.074   4.725   5.475  0.3960 -1.3677 -0.0431
19327WAT     H279114  -1.089   4.733   5.324 -0.2438  1.1215  0.1057
19327WAT    EPW79115  -1.041   4.742   5.396  0.2261 -0.5634  0.0517
19328WAT      O79116   7.203   3.005   3.207 -0.0185 -0.4742 -0.5618
19328WAT     H179117   7.250   3.060   3.144  1.5938  0.2162  1.1579
19328WAT     H279118   7.243   3.025   3.291 -1.9979 -1.4856  0.6905
19328WAT    EPW79119   7.214   3.015   3.209 -0.0670 -0.5165 -0.1698
19329WAT      O79120  -4.461   7.685   8.350 -0.1682  0.2600  0.2969
19329WAT     H179121  -4.555   7.701   8.356  0.0155  1.0398  1.2246
19329WAT     H279122  -4.455   7.592   8.325 -1.1996  0.9858 -3.1690
19329WAT    EPW79123  -4.473   7.675   8.348 -0.2801  0.4585 -0.0377
19330WAT      O79124   1.993   4.626   4.626  0.4484  0.3563  0.2799
19330WAT     H179125   1.978   4.609   4.533  0.7498  2.7379 -0.2721
19330WAT     H279126   2.050   4.555   4.654 -0.1343 -0.7526 -1.1831
19330WAT    EPW79127   1.998   4.615   4.617  0.4113  0.5243  0.0141
19331WAT      O79128   0.328   2.810   3.961 -0.3364  0.4032 -0.8640
19331WAT     H179129   0.380   2.878   4.002 -0.1053 -1.1023  1.5251
19331WAT     H279130   0.382   2.731   3.967 -1.4040 -0.4343 -1.6689
19331WAT    EPW79131   0.342   2.808   3.967 -0.4467  0.0942 -0.6549
19332WAT      O79132  -6.425   9.103   7.804  0.2128  0.0361  0.3573
19332WAT     H179133  -6.502   9.150   7.836 -0.1027 -0.6421  0.6111
19332WAT     H279134  -6.453   9.064   7.721  0.4689  0.2970  0.1511
19332WAT    EPW79135  -6.439   9.104   7.797  0.2050 -0.0191  0.3636
19333WAT      O79136  -1.124   1.712   4.337  0.5209 -0.2384 -0.1094
19333WAT     H179137  -1.040   1.735   4.378 -1.1860  0.4183  3.3690
19333WAT     H279138  -1.122   1.616   4.330  1.7926 -0.1874 -0.7682
19333WAT    EPW79139  -1.112   1.702   4.341  0.4635 -0.1450  0.2627
19334WAT      O79140   0.287   8.823   0.473  0.7404 -0.2801  0.0158
19334WAT     H179141   0.335   8.763   0.530  1.1544  0.6525  0.6871
19334WAT     H279142   0.355   8.869   0.423  0.3800 -1.1409 -1.3205
19334WAT    EPW79143   0.303   8.821   0.474  0.7475 -0.2704 -0.0719
19335WAT      O79144   6.611   1.472   1.512 -0.8021 -0.1244  0.1785
19335WAT     H179145   6.682   1.514   1.464  0.9463 -2.5301  0.4492
19335WAT     H279146   6.550   1.443   1.444  0.7321 -1.8667 -0.5542
19335WAT    EPW79147   6.613   1.473   1.497 -0.3691 -0.6715  0.1175
19336WAT      O79148  -5.964   6.066   7.820  0.3560  0.3270  0.3656
19336WAT     H179149  -6.048   6.030   7.790  0.8010  0.6203 -1.3415
19336WAT     H279150  -5.970   6.063   7.915 -2.6266  2.6019  0.4179
19336WAT    EPW79151  -5.976   6.061   7.829  0.0212  0.6657  0.1473
19337WAT      O79152   0.847   6.208   7.351 -0.6145  0.3265 -0.0025
19337WAT     H179153   0.904   6.148   7.399  1.2758 -0.0943 -2.5677
19337WAT     H279154   0.792   6.151   7.297 -2.2454  0.7986  1.1074
19337WAT    EPW79155   0.847   6.193   7.350 -0.5803  0.3335 -0.1945
19338WAT      O79156   3.195   9.840   4.243 -0.1297  0.1844 -0.1899
19338WAT     H179157   3.105   9.858   4.271 -0.2301  0.8376 -0.9015
19338WAT     H279158   3.249   9.866   4.318 -0.4953  0.2881  0.0437
19338WAT    EPW79159   3.190   9.846   4.257 -0.1912  0.2842 -0.2530
19339WAT      O79160  -1.515   5.218   8.319 -0.2279 -0.3479 -0.2114
19339WAT     H179161  -1.462   5.284   8.274 -2.3422  1.6346 -0.0279
19339WAT     H279162  -1.597   5.264   8.340 -2.1922 -3.3027 -0.7954
19339WAT    EPW79163  -1.519   5.233   8.316 -0.7659 -0.4761 -0.2646
19340WAT      O79164  -2.096   5.825   3.434  0.1584  0.2762  0.4473
19340WAT     H179165  -2.155   5.807   3.507 -0.0548  0.0984  0.2337
19340WAT     H279166  -2.051   5.741   3.420 -0.3584  0.0926 -0.1247
19340WAT    EPW79167  -2.098   5.811   3.442  0.0621  0.2284  0.3436
19341WAT      O79168  -2.447   2.612   6.875  0.0415 -0.2287  0.1291
19341WAT     H179169  -2.501   2.669   6.930 -0.9636 -0.5409 -0.5009
19341WAT     H279170  -2.399   2.672   6.818  1.1345  0.1008  1.3641
19341WAT    EPW79171  -2.448   2.627   6.875  0.0530 -0.2264  0.2089
19342WAT      O79172  -3.052   7.544   7.514  0.4475 -0.4279 -0.6358
19342WAT     H179173  -3.007   7.476   7.564 -2.5664 -1.7086  0.6442
19342WAT     H279174  -3.125   7.498   7.472 -0.5686  1.6775 -1.3284
19342WAT    EPW79175  -3.056   7.529   7.515 -0.0840 -0.3190 -0.5584
19343WAT      O79176   8.859   2.488   1.916  0.3802 -0.6405  0.6215
19343WAT     H179177   8.873   2.444   2.000 -0.0769 -0.7862  0.6263
19343WAT     H279178   8.947   2.503   1.882  0.6237  0.3817  1.6159
19343WAT    EPW79179   8.873   2.484   1.923  0.3524 -0.5249  0.7533
19344WAT      O79180   5.069   6.446   1.654 -0.7593  0.7569  0.6689
19344WAT     H179181   5.004   6.382   1.684 -0.1185 -1.3927 -2.1014
19344WAT     H279182   5.151   6.416   1.692 -0.5111  0.0371 -0.3825
19344WAT    EPW79183   5.071   6.434   1.663 -0.6421  0.3781  0.1648
19345WAT      O79184   2.663   1.268   6.731  0.6592  0.8019  0.3173
19345WAT     H179185   2.570   1.253   6.748  0.8428 -0.1363  0.5611
19345WAT     H279186   2.708   1.225   6.804  1.2534  2.4069  0.9276
19345WAT    EPW79187   2.656   1.260   6.743  0.7616  0.8898  0.4299
19346WAT      O79188  -2.540   8.365   7.896 -0.0590  0.4448  0.3576
19346WAT     H179189  -2.592   8.292   7.929 -2.7498  1.7548 -0.6273
19346WAT     H279190  -2.564   8.439   7.951  1.7972  0.8656  0.6637
19346WAT    EPW79191  -2.550   8.365   7.907 -0.1692  0.6733  0.2682
19347WAT      O79192   4.904   0.989   2.986 -0.6025 -0.3026 -0.5314
19347WAT     H179193   4.880   1.002   3.078  1.7942 -0.5891  0.1915
19347WAT     H279194   4.854   1.057   2.939  0.6712  2.1572  1.4106
19347WAT    EPW79195   4.894   1.000   2.992 -0.1183 -0.0160 -0.1798
19348WAT      O79196  -0.189   5.442   4.870  0.6232  0.8972  0.3042
19348WAT     H179197  -0.164   5.514   4.928 -0.1762 -0.4317  2.3958
19348WAT     H279198  -0.136   5.456   4.791  2.6530  2.1166  1.7752
19348WAT    EPW79199  -0.179   5.454   4.867  0.7855  0.8826  0.7741
19349WAT      O79200  -0.951   2.049   1.663  0.3205 -0.2204 -0.1654
19349WAT     H179201  -0.865   2.091   1.661  0.1991  0.0072 -0.8806
19349WAT     H279202  -0.978   2.055   1.755  2.1400 -2.5774  0.5988
19349WAT    EPW79203  -0.943   2.056   1.675  0.5445 -0.5012 -0.1590
19350WAT      O79204  -1.672   6.309   0.955 -0.4463  0.1089  0.1056
19350WAT     H179205  -1.595   6.352   0.918 -0.8449  0.1718 -0.6828
19350WAT     H279206  -1.639   6.229   0.994 -0.2387 -0.9580 -2.1342
19350WAT    EPW79207  -1.658   6.304   0.955 -0.4715 -0.0236 -0.2938
19351WAT      O79208   1.668   0.652   5.862  0.5868 -0.5075  0.5704
19351WAT     H179209   1.593   0.666   5.803  1.3485 -0.3909 -0.3865
19351WAT     H279210   1.652   0.712   5.935  0.0384 -0.0600  0.0956
19351WAT    EPW79211   1.656   0.662   5.864  0.6149 -0.4331  0.3817
19352WAT      O79212  -1.479   2.024   2.572  0.1743 -0.3016  0.0033
19352WAT     H179213  -1.509   1.955   2.512  1.3432  0.0543 -1.0383
19352WAT     H279214  -1.560   2.061   2.608 -0.6436  0.1787 -2.1787
19352WAT    EPW79215  -1.494   2.020   2.569  0.2206 -0.1913 -0.4219
19353WAT      O79216   3.698   4.027   4.765  0.2009  0.2741 -0.1194
19353WAT     H179217   3.787   4.007   4.734 -0.5696 -1.3525 -1.4475
19353WAT     H279218   3.710   4.055   4.856  2.1664  1.2012 -0.6072
19353WAT    EPW79219   3.711   4.028   4.773  0.3586  0.1817 -0.3591
19354WAT      O79220  -0.531   5.965   6.813  0.6517 -0.6463 -0.1679
19354WAT     H179221  -0.458   5.904   6.803  1.8828  0.8303 -0.5698
19354WAT     H279222  -0.528   5.991   6.905 -0.5090 -1.9291  0.2533
19354WAT    EPW79223  -0.521   5.961   6.824  0.6610 -0.6208 -0.1655
19355WAT      O79224  -6.476   3.073   8.962 -0.7120  1.0749  0.8526
19355WAT     H179225  -6.538   3.004   8.983 -0.1421 -0.0917 -1.0425
19355WAT     H279226  -6.500   3.102   8.875  1.6730  0.1867 -0.1961
19355WAT    EPW79227  -6.487   3.068   8.954 -0.3226  0.8038  0.4644
19356WAT      O79228  -2.045   3.118   7.038 -0.0999  0.0268  0.1562
19356WAT     H179229  -2.134   3.124   7.004 -0.7874 -1.8959  1.4582
19356WAT     H279230  -2.012   3.035   7.005  0.5931 -0.0582  1.0371
19356WAT    EPW79231  -2.053   3.108   7.030 -0.0992 -0.2379  0.4442
19357WAT      O79232  -1.269   7.566   5.257  0.0252 -0.0142  0.0202
19357WAT     H179233  -1.182   7.587   5.291 -0.8656  1.1688  1.7305
19357WAT     H279234  -1.288   7.635   5.193 -0.4329  0.9537  1.1533
19357WAT    EPW79235  -1.260   7.578   5.253 -0.1527  0.2697  0.3953
19358WAT      O79236  -1.477   4.058   1.380  0.0185 -0.0433 -0.4763
19358WAT     H179237  -1.450   4.065   1.472 -0.4257  0.7868 -0.4005
19358WAT     H279238  -1.407   4.009   1.338  0.6499  0.3327  0.1270
19358WAT    EPW79239  -1.465   4.052   1.387  0.0432  0.1159 -0.3867
19359WAT      O79240   2.821   1.977   3.524  0.9846  0.1902  0.1207
19359WAT     H179241   2.734   2.005   3.496  1.2253 -1.4072 -2.6466
19359WAT     H279242   2.872   2.058   3.530 -0.5627  1.1227  1.5231
19359WAT    EPW79243   2.816   1.991   3.521  0.8123  0.1025 -0.0594
19360WAT      O79244  -4.389  10.197   3.086 -0.4465  0.1103  0.4093
19360WAT     H179245  -4.473  10.239   3.106  1.1794  3.5409  0.6156
19360WAT     H279246  -4.362  10.158   3.169 -1.9793 -1.4868  0.2248
19360WAT    EPW79247  -4.397  10.197   3.100 -0.4344  0.3519  0.4121
19361WAT      O79248   4.686   4.397   7.719  0.5730  0.1838 -0.3877
19361WAT     H179249   4.744   4.451   7.773  0.9216 -0.3155 -0.2508
19361WAT     H279250   4.676   4.446   7.638  2.5138 -0.4623 -1.0811
19361WAT    EPW79251   4.692   4.411   7.716  0.8750  0.0329 -0.4611
19362WAT      O79252  -0.162   7.135   5.909  0.6532  0.1869  0.8270
19362WAT     H179253  -0.100   7.203   5.936  4.1604 -1.1697 -2.7886
19362WAT     H279254  -0.165   7.075   5.984  1.0158  1.9906  2.3705
19362WAT    EPW79255  -0.154   7.136   5.923  1.1636  0.2458  0.5538
19363WAT      O79256  -4.067   1.179   7.619  0.5339  0.1597 -1.1934
19363WAT     H179257  -4.094   1.184   7.711 -0.2563 -0.5723 -1.3720
19363WAT     H279258  -3.988   1.233   7.614 -1.1532  2.8708 -0.7466
19363WAT    EPW79259  -4.060   1.187   7.631  0.2069  0.4207 -1.1582
19364WAT      O79260   0.899   7.255   6.697 -0.4182  0.1902 -0.5950
19364WAT     H179261   0.900   7.231   6.604 -0.3723 -0.0678 -0.5305
19364WAT     H279262   0.940   7.341   6.700  1.6588 -0.7153 -0.5870
19364WAT    EPW79263   0.905   7.263   6.685 -0.1382  0.0367 -0.5856
19365WAT      O79264   0.224   5.223   8.304  0.6491  0.4639  0.0577
19365WAT     H179265   0.189   5.284   8.239 -0.5410 -0.3369 -0.0773
19365WAT     H279266   0.231   5.276   8.384  0.9141  1.1144 -0.3815
19365WAT    EPW79267   0.221   5.238   8.306  0.5271  0.4442 -0.0176
19366WAT      O79268   5.262   1.657   7.200  0.0204  0.6295 -0.5246
19366WAT     H179269   5.335   1.702   7.243  2.1000 -0.7705 -2.3495
19366WAT     H279270   5.241   1.712   7.124 -0.7696  0.9528 -0.0848
19366WAT    EPW79271   5.269   1.670   7.196  0.1905  0.4875 -0.7071
19367WAT      O79272  -2.252   8.467   8.635 -0.4721 -0.9685 -0.4853
19367WAT     H179273  -2.209   8.384   8.655 -0.5075 -0.9234 -0.2211
19367WAT     H279274  -2.240   8.520   8.714 -1.3391 -1.0957 -0.2551
19367WAT    EPW79275  -2.245   8.463   8.648 -0.5910 -0.9794 -0.4201
19368WAT      O79276  -4.997   2.163   6.964  0.1361 -0.7220 -0.6124
19368WAT     H179277  -4.988   2.252   6.929  0.2862 -0.5548 -0.1625
19368WAT     H279278  -4.965   2.170   7.054  3.7297 -2.0035 -1.6019
19368WAT    EPW79279  -4.992   2.176   6.971  0.6299 -0.8689 -0.6833
19369WAT      O79280   6.295   2.483   4.183  0.4456  0.1302  0.0391
19369WAT     H179281   6.325   2.405   4.229  2.5966 -0.0252 -1.4871
19369WAT     H279282   6.303   2.461   4.090 -1.9068  1.1218 -0.4858
19369WAT    EPW79283   6.300   2.470   4.177  0.4191  0.2406 -0.2313
19370WAT      O79284   7.871   0.485   1.145 -0.5637 -0.2247  0.2122
19370WAT     H179285   7.880   0.565   1.197 -0.0343  0.7359 -1.3006
19370WAT     H279286   7.896   0.511   1.057 -1.2391 -1.8667 -0.4970
19370WAT    EPW79287   7.876   0.499   1.140 -0.5829 -0.3146 -0.0809
19371WAT      O79288  -0.046   6.467   3.965 -0.2222 -0.4243 -0.0378
19371WAT     H179289  -0.137   6.467   3.934 -1.0554  0.1665  2.2017
19371WAT     H279290  -0.051   6.427   4.052  1.4375  0.9231  0.7238
19371WAT    EPW79291  -0.059   6.461   3.973 -0.1132 -0.1686  0.3580
19372WAT      O79292  -4.347   9.514   7.024  0.4929  0.7306  0.1728
19372WAT     H179293  -4.414   9.494   6.959  1.1635  0.2197 -0.3791
19372WAT     H279294  -4.384   9.485   7.107 -0.2435  1.0964 -0.0232
19372WAT    EPW79295  -4.360   9.508   7.026  0.4845  0.7114  0.0741
19373WAT      O79296   6.655   6.464   0.180 -0.1648 -0.2753  0.4747
19373WAT     H179297   6.641   6.404   0.253 -0.9240 -0.9604 -0.2243
19373WAT     H279298   6.705   6.536   0.218 -0.2114 -0.8087  1.5788
19373WAT    EPW79299   6.660   6.465   0.195 -0.2711 -0.4361  0.5281
19374WAT      O79300  -4.357   4.543   7.287 -0.3592  0.2692 -0.2923
19374WAT     H179301  -4.353   4.585   7.373 -1.1835  0.2179 -0.2197
19374WAT     H279302  -4.268   4.551   7.253 -0.0841  0.5327  0.4484
19374WAT    EPW79303  -4.345   4.550   7.294 -0.4315  0.2971 -0.1850
19375WAT      O79304  -4.956   3.706   6.396 -0.1150 -0.1252  0.7893
19375WAT     H179305  -4.998   3.693   6.481  1.6391  2.6171  2.1904
19375WAT     H279306  -4.863   3.711   6.415  0.4587 -0.7091 -1.5189
19375WAT    EPW79307  -4.949   3.705   6.410  0.1919  0.1594  0.6697
19376WAT      O79308   1.562   3.601   8.283 -0.3351  0.3698 -0.5832
19376WAT     H179309   1.619   3.529   8.255 -0.0545  1.3221 -2.6067
19376WAT     H279310   1.598   3.678   8.239 -0.8158  1.7347  1.2730
19376WAT    EPW79311   1.575   3.601   8.274 -0.3615  0.6754 -0.6051
19377WAT      O79312  -0.614   7.119   1.381 -0.4885  0.0996  0.0237
19377WAT     H179313  -0.590   7.211   1.393 -0.0781 -0.3349  3.9596
19377WAT     H279314  -0.535   7.079   1.344  0.4323  0.8984  1.0251
19377WAT    EPW79315  -0.600   7.126   1.378 -0.3129  0.1476  0.6749
19378WAT      O79316  -3.558   7.555   5.202  0.9275 -0.0814 -0.0221
19378WAT     H179317  -3.644   7.548   5.159  0.2087 -0.0340  1.3568
19378WAT     H279318  -3.521   7.636   5.166  0.3927 -0.0875 -0.6202
19378WAT    EPW79319  -3.565   7.565   5.191  0.7622 -0.0758  0.0808
19379WAT      O79320   0.952   2.554   5.322  0.5142  0.4427  0.0630
19379WAT     H179321   0.881   2.614   5.345 -0.3385 -0.9232  1.1755
19379WAT     H279322   0.984   2.522   5.406  1.3755 -0.1933 -0.4920
19379WAT    EPW79323   0.947   2.558   5.336  0.5153  0.1786  0.1364
19380WAT      O79324   7.238   1.576   4.708  0.2304 -0.0029 -0.4163
19380WAT     H179325   7.249   1.638   4.635  0.3224  0.5467  0.0597
19380WAT     H279326   7.178   1.621   4.768  0.5441 -0.2491  0.0828
19380WAT    EPW79327   7.231   1.590   4.706  0.2840  0.0371 -0.2880
19381WAT      O79328   1.653   8.862   2.764  0.5327  0.0222  0.7657
19381WAT     H179329   1.737   8.905   2.753  0.2340  0.6550  0.9142
19381WAT     H279330   1.606   8.879   2.682  0.3704  0.0764  0.8694
19381WAT    EPW79331   1.658   8.870   2.752  0.4719  0.1130  0.7989
19382WAT      O79332  -2.428   9.131   2.063  0.6544 -0.1432 -0.0980
19382WAT     H179333  -2.415   9.038   2.078  1.3118 -0.0073  0.2473
19382WAT     H279334  -2.518   9.139   2.032 -0.2304 -0.6471  2.1707
19382WAT    EPW79335  -2.438   9.120   2.061  0.6243 -0.1917  0.2468
19383WAT      O79336  -3.088   7.976   4.230 -0.1007 -0.2176  0.3883
19383WAT     H179337  -3.165   7.969   4.286 -1.6917  1.6556 -1.4058
19383WAT     H279338  -3.083   8.069   4.207  0.2633 -0.8920 -2.7714
19383WAT    EPW79339  -3.098   7.987   4.234 -0.2625 -0.0594 -0.2649
19384WAT      O79340  -0.511   8.271   0.637 -0.2019 -0.4024 -0.3764
19384WAT     H179341  -0.568   8.338   0.599  1.6865  0.4496 -1.9312
19384WAT     H279342  -0.515   8.287   0.731 -1.9154  0.0942 -0.5045
19384WAT    EPW79343  -0.519   8.282   0.644 -0.1788 -0.2246 -0.5983
19385WAT      O79344   7.148   2.984   1.451 -0.0224  0.2308 -0.4597
19385WAT     H179345   7.066   2.998   1.403  1.3480 -2.0149 -3.8739
19385WAT     H279346   7.142   2.893   1.482 -0.1561  1.1206  2.3657
19385WAT    EPW79347   7.136   2.974   1.449  0.1407  0.0519 -0.5374
19386WAT      O79348  -1.901   5.675   3.273 -0.2073 -0.6034 -0.0427
19386WAT     H179349  -1.900   5.580   3.258  1.7666 -0.3299 -2.3263
19386WAT     H279350  -1.932   5.712   3.191 -0.8427  0.7494  0.7852
19386WAT    EPW79351  -1.905   5.667   3.260 -0.0308 -0.3889 -0.2346
19387WAT      O79352  10.072   1.244   0.547 -0.0335  0.6494  0.2682
19387WAT     H179353  10.052   1.180   0.616  0.0924 -0.4297 -0.6633
19387WAT     H279354  10.066   1.194   0.466 -0.7030  2.0253 -0.5585
19387WAT    EPW79355  10.068   1.229   0.546 -0.1054  0.6886  0.0363
19388WAT      O79356  -5.652   9.767   6.721  0.0869  0.4968  0.3755
19388WAT     H179357  -5.633   9.702   6.654 -1.0225  0.5611 -0.0231
19388WAT     H279358  -5.743   9.750   6.746 -1.1012  3.3066 -1.4085
19388WAT    EPW79359  -5.661   9.756   6.716 -0.2162  0.8755  0.0877
19389WAT      O79360   6.596   6.912   3.108  0.2080  0.2476  0.6411
19389WAT     H179361   6.589   6.928   3.014  0.7452 -1.2083  0.3155
19389WAT     H279362   6.586   6.817   3.117 -2.3439  0.5609  2.3347
19389WAT    EPW79363   6.594   6.901   3.097 -0.0579  0.0970  0.8216
19390WAT      O79364  -5.111   7.965   5.918  0.0732 -0.4272 -0.6971
19390WAT     H179365  -5.178   7.979   5.984 -0.7480 -0.8437 -1.4147
19390WAT     H279366  -5.041   8.025   5.942 -0.8827  0.6076 -0.3816
19390WAT    EPW79367  -5.111   7.975   5.930 -0.1612 -0.3455 -0.7501
19391WAT      O79368  -0.542   4.092   1.513  0.1964  0.6341  0.2251
19391WAT     H179369  -0.593   4.038   1.453  2.1491 -0.1396 -0.8286
19391WAT     H279370  -0.500   4.029   1.572 -1.4007  1.3622  2.2488
19391WAT    EPW79371  -0.543   4.077   1.513  0.2433  0.6282  0.3531
19392WAT      O79372  -7.066   9.084   6.837  0.3888  0.1765 -0.5402
19392WAT     H179373  -7.106   9.026   6.902  0.9823  0.6896  0.3035
19392WAT     H279374  -6.978   9.047   6.823 -0.1463 -0.6403 -1.9862
19392WAT    EPW79375  -7.060   9.071   6.844  0.3963  0.1364 -0.6196
19393WAT      O79376   7.541   5.239   2.451 -0.7282 -0.1789 -0.3655
19393WAT     H179377   7.612   5.226   2.515 -1.6479  3.2021  1.5608
19393WAT     H279378   7.585   5.277   2.375  0.0514 -2.2250 -1.0305
19393WAT    EPW79379   7.556   5.242   2.450 -0.7465 -0.0029 -0.1991
19394WAT      O79380   5.331   3.296   0.166 -1.2980  0.8096 -0.2242
19394WAT     H179381   5.400   3.258   0.111 -0.9243 -0.4664  1.0557
19394WAT     H279382   5.349   3.390   0.165  0.3346  0.5351 -0.1044
19394WAT    EPW79383   5.342   3.303   0.159 -1.0333  0.6050 -0.0396
19395WAT      O79384   2.402   9.446   2.421  0.5251  0.1375 -0.4664
19395WAT     H179385   2.443   9.365   2.391 -1.8971 -0.9405 -1.1397
19395WAT     H279386   2.424   9.451   2.514  2.8260  0.1311 -0.9422
19395WAT    EPW79387   2.410   9.436   2.429  0.5090 -0.0057 -0.6180
19396WAT      O79388  -8.068   8.939   8.116 -0.1985  0.0323 -0.2549
19396WAT     H179389  -8.137   9.005   8.107  0.9037  1.0360 -1.7957
19396WAT     H279390  -8.022   8.940   8.032  2.2808  0.0503  1.0056
19396WAT    EPW79391  -8.071   8.947   8.104  0.2742  0.1674 -0.2923
19397WAT      O79392   2.255   5.396   0.757 -0.4647  0.2967 -0.1381
19397WAT     H179393   2.266   5.446   0.677  2.3781 -2.6278 -1.7848
19397WAT     H279394   2.329   5.422   0.813 -0.6319  0.0434  0.2097
19397WAT    EPW79395   2.266   5.406   0.754 -0.1118 -0.1223 -0.3094
19398WAT      O79396   7.205   4.372   2.353 -0.7813  0.0905  0.0677
19398WAT     H179397   7.246   4.291   2.324 -0.2229  0.2322  0.4470
19398WAT     H279398   7.124   4.344   2.396 -0.1002 -0.3475  1.0907
19398WAT    EPW79399   7.200   4.357   2.355 -0.6177  0.0513  0.2525
19399WAT      O79400   1.108   8.819   2.850  0.3729  0.9265 -0.2136
19399WAT     H179401   1.132   8.776   2.768  3.1474  2.7740 -0.4975
19399WAT     H279402   1.123   8.753   2.917 -0.4032 -0.1052 -1.0234
19399WAT    EPW79403   1.113   8.805   2.848  0.6365  1.0343 -0.3577
19400WAT      O79404  -1.041   5.862   3.189 -0.2777 -0.0199 -0.4246
19400WAT     H179405  -0.974   5.919   3.227 -0.8535 -0.2845  1.0591
19400WAT     H279406  -1.023   5.776   3.226 -2.7120  0.3167  1.8574
19400WAT    EPW79407  -1.030   5.858   3.199 -0.6748 -0.0103  0.0721
19401WAT      O79408  -5.755   9.983   7.176  0.1395 -0.4316  0.5418
19401WAT     H179409  -5.776  10.073   7.151 -2.4969 -1.1627 -0.2061
19401WAT     H279410  -5.701   9.950   7.104  1.5069  0.6096  1.0309
19401WAT    EPW79411  -5.750   9.990   7.164 -0.0279 -0.3905  0.5078
19402WAT      O79412   5.736   9.427   1.105  0.4401 -0.7627 -1.0282
19402WAT     H179413   5.724   9.476   1.186 -0.7433  1.9934 -2.7393
19402WAT     H279414   5.827   9.396   1.109  1.0438  1.0183  0.4608
19402WAT    EPW79415   5.747   9.429   1.117  0.3638 -0.1645 -1.0575
19403WAT      O79416  -2.881   1.070   8.566 -0.4769 -0.4865  0.3549
19403WAT     H179417  -2.897   1.097   8.657  0.9206 -1.9262  1.0907
19403WAT     H279418  -2.919   0.982   8.561 -3.4179  0.7523 -1.4701
19403WAT    EPW79419  -2.888   1.062   8.577 -0.6806 -0.5129  0.2112
19404WAT      O79420  -2.409   6.695   1.107 -0.7171 -0.3422  0.1170
19404WAT     H179421  -2.472   6.755   1.146 -1.8305 -1.1872 -0.3154
19404WAT     H279422  -2.431   6.695   1.014  0.4210 -0.0881 -0.1663
19404WAT    EPW79423  -2.421   6.703   1.100 -0.7138 -0.4201  0.0226
19405WAT      O79424   8.525   1.205   3.154  0.8495 -0.3737  0.7993
19405WAT     H179425   8.578   1.192   3.075  1.5999  0.4746  1.1488
19405WAT     H279426   8.557   1.140   3.216  1.3463 -0.0173  0.9280
19405WAT    EPW79427   8.536   1.195   3.152  1.0142 -0.2149  0.8624
19406WAT      O79428  -4.130   6.565   7.379  0.7402 -0.4466 -0.0943
19406WAT     H179429  -4.154   6.525   7.463  1.3439 -0.2289  0.1902
19406WAT     H279430  -4.110   6.656   7.401 -0.1975 -0.0895 -0.6631
19406WAT    EPW79431  -4.130   6.572   7.393  0.6962 -0.3710 -0.1318
19407WAT      O79432   2.618   7.882   6.168  0.5878 -0.2663  0.1062
19407WAT     H179433   2.643   7.825   6.242  2.4911  0.4099  0.0494
19407WAT     H279434   2.660   7.966   6.187 -1.1238  0.7691 -0.4460
19407WAT    EPW79435   2.627   7.885   6.181  0.6131 -0.0403  0.0260
19408WAT      O79436   5.679   1.728   0.199 -0.5022 -0.1289  0.7384
19408WAT     H179437   5.640   1.664   0.258  0.9686  0.5229  2.4930
19408WAT     H279438   5.609   1.749   0.136 -1.6336 -1.9301  1.3350
19408WAT    EPW79439   5.664   1.723   0.198 -0.4578 -0.2804  1.0485
19409WAT      O79440   0.724   3.353   8.816 -0.0052  0.0262 -0.9733
19409WAT     H179441   0.797   3.378   8.872 -1.1374 -1.2877  1.2462
19409WAT     H279442   0.763   3.336   8.730  2.8388 -3.1603  0.7140
19409WAT    EPW79443   0.739   3.354   8.812  0.2205 -0.5673 -0.4582
19410WAT      O79444   1.542   4.287   8.754  0.3659  0.4663  0.3584
19410WAT     H179445   1.603   4.293   8.828  1.7909  0.6783 -0.7841
19410WAT     H279446   1.458   4.267   8.794  1.3462 -0.7349  1.9278
19410WAT    EPW79447   1.539   4.285   8.769  0.6831  0.3359  0.4144
19411WAT      O79448  -3.556   6.893   5.510  0.1043  0.5650  0.2074
19411WAT     H179449  -3.472   6.867   5.548  1.0609  0.8093 -1.6671
19411WAT     H279450  -3.621   6.846   5.563  1.5952 -3.1435 -0.9550
19411WAT    EPW79451  -3.553   6.883   5.522  0.4271  0.1082 -0.1931
19412WAT      O79452   5.286   2.434   3.082  0.0129 -0.0628  0.2784
19412WAT     H179453   5.201   2.409   3.045 -0.7566  1.3483  0.9814
19412WAT     H279454   5.266   2.509   3.138  1.5026 -0.6557  1.6746
19412WAT    EPW79455   5.272   2.441   3.084  0.1078  0.0451  0.5553
19413WAT      O79456   2.985   1.146   4.103 -0.6474  0.4200  0.3941
19413WAT     H179457   2.968   1.178   4.191 -2.0066  0.3117  0.1900
19413WAT     H279458   2.905   1.101   4.077  0.6480 -1.8473  0.0751
19413WAT    EPW79459   2.973   1.145   4.111 -0.6559  0.1067  0.3252
19414WAT      O79460   1.960   1.185   1.827  0.7442 -0.1422  0.2151
19414WAT     H179461   2.036   1.241   1.848  2.5643 -1.8874 -1.3056
19414WAT     H279462   1.986   1.139   1.748 -1.7095 -1.2980  0.0084
19414WAT    EPW79463   1.974   1.186   1.819  0.6607 -0.5249 -0.0127
19415WAT      O79464  -3.955   3.257   7.727  0.3827 -0.2654  0.4350
19415WAT     H179465  -4.031   3.243   7.671  0.2907 -0.7597  0.6746
19415WAT     H279466  -3.988   3.247   7.816  1.0466 -2.3336  0.5139
19415WAT    EPW79467  -3.969   3.254   7.731  0.4581 -0.6033  0.4771
19416WAT      O79468  -1.623   0.564   3.799 -0.3248  0.0588 -0.3448
19416WAT     H179469  -1.616   0.516   3.717  0.7407 -1.1935  0.4386
19416WAT     H279470  -1.689   0.516   3.849 -1.6655  1.3690 -0.8012
19416WAT    EPW79471  -1.631   0.551   3.795 -0.3611  0.0665 -0.3018
19417WAT      O79472   3.718   7.014   2.043  0.4605 -0.1884  0.0789
19417WAT     H179473   3.723   7.033   2.137 -0.5834  1.6628 -0.1924
19417WAT     H279474   3.625   7.004   2.025  0.6267 -0.2094 -0.8300
19417WAT    EPW79475   3.706   7.015   2.053  0.3448  0.0527 -0.0768
19418WAT      O79476   2.854   4.401   3.415 -0.3182  0.5950  0.5364
19418WAT     H179477   2.796   4.407   3.339  0.5042  0.4434 -0.1221
19418WAT     H279478   2.868   4.492   3.442 -0.2253  0.6821  0.2016
19418WAT    EPW79479   2.848   4.414   3.408 -0.1974  0.5865  0.4053
19419WAT      O79480  -2.921   6.821   1.918  0.0185 -0.1645  0.8560
19419WAT     H179481  -2.967   6.846   1.998 -2.8627  1.0670 -1.0496
19419WAT     H279482  -2.990   6.794   1.858  2.0273 -0.4709 -1.4633
19419WAT    EPW79483  -2.936   6.821   1.921 -0.0964 -0.0427  0.2987
19420WAT      O79484  -1.480   9.604   4.336 -1.1349  0.2159  0.1891
19420WAT     H179485  -1.473   9.570   4.246 -1.8200 -2.2205  0.9681
19420WAT     H279486  -1.412   9.671   4.341  1.7780 -2.3780 -1.0204
19420WAT    EPW79487  -1.470   9.608   4.325 -0.8410 -0.4473  0.1323
19421WAT      O79488  -3.654   7.524   3.089  0.6632 -0.0756  0.3374
19421WAT     H179489  -3.565   7.532   3.123  0.4536 -2.7977  1.8043
19421WAT     H279490  -3.656   7.438   3.047 -1.4518 -0.3789  0.9548
19421WAT    EPW79491  -3.643   7.514   3.088  0.3567 -0.4745  0.6123
19422WAT      O79492  -1.629   2.153   1.573  0.2688 -0.5167  0.1002
19422WAT     H179493  -1.711   2.183   1.534 -0.8215 -3.0452  0.2625
19422WAT     H279494  -1.603   2.224   1.632  1.2406  2.8575 -3.9008
19422WAT    EPW79495  -1.637   2.166   1.575  0.2531 -0.4051 -0.4061
19423WAT      O79496  -0.529   8.164   1.403 -0.3706 -0.7331 -0.8663
19423WAT     H179497  -0.460   8.122   1.454  0.8044  1.1042 -0.8304
19423WAT     H279498  -0.536   8.112   1.324  0.3974 -1.4913 -0.4535
19423WAT    EPW79499  -0.521   8.152   1.400 -0.1144 -0.5903 -0.8071
19424WAT      O79500   2.955   3.880   6.145 -0.4063  0.0152 -1.0261
19424WAT     H179501   2.984   3.838   6.226  0.9238 -1.0554 -2.0131
19424WAT     H279502   3.006   3.960   6.140  0.9353 -0.8426 -1.7073
19424WAT    EPW79503   2.965   3.885   6.155 -0.0539 -0.2393 -1.2460
19425WAT      O79504   4.996   6.902   2.133  0.5403  0.1339 -0.3632
19425WAT     H179505   5.083   6.864   2.149 -0.3932 -1.5185  1.1153
19425WAT     H279506   5.007   6.995   2.148  2.0826 -0.0217 -0.3532
19425WAT    EPW79507   5.009   6.909   2.137  0.6206 -0.1047 -0.1669
19426WAT      O79508  -0.734   0.982   6.381 -0.2847 -0.2135 -0.0181
19426WAT     H179509  -0.702   1.012   6.296  2.3955  2.4140  1.7203
19426WAT     H279510  -0.655   0.962   6.431 -1.7132 -0.7362  2.1938
19426WAT    EPW79511  -0.720   0.984   6.376 -0.1196  0.0641  0.5031
19427WAT      O79512  -7.294  10.196   8.595 -0.0422  0.4992  0.3259
19427WAT     H179513  -7.331  10.112   8.568  0.5716  0.0638  0.8362
19427WAT     H279514  -7.298  10.195   8.690 -1.9675  1.9266  0.3381
19427WAT    EPW79515  -7.300  10.185   8.604 -0.2153  0.6304  0.3948
19428WAT      O79516  -0.319   8.669   5.655 -0.0415  0.3210 -0.2026
19428WAT     H179517  -0.250   8.635   5.711 -1.3612 -1.1066  0.6644
19428WAT     H279518  -0.281   8.746   5.613  1.0351  1.4744  2.6401
19428WAT    EPW79519  -0.305   8.675   5.656 -0.0736  0.2847  0.2871
19429WAT      O79520   6.529   1.569   1.141  0.4752  0.3651 -0.0443
19429WAT     H179521   6.505   1.493   1.194  1.1983  0.6971  0.7790
19429WAT     H279522   6.478   1.641   1.178  2.8109  1.1423  1.9219
19429WAT    EPW79523   6.519   1.569   1.153  0.8788  0.5114  0.3237
19430WAT      O79524  -1.201   7.444   8.261  0.6015 -0.3188 -0.0195
19430WAT     H179525  -1.145   7.473   8.190 -2.1259  1.5911 -1.5941
19430WAT     H279526  -1.193   7.514   8.327  1.6505 -1.1265  0.7416
19430WAT    EPW79527  -1.193   7.457   8.261  0.3802 -0.1736 -0.1268
19431WAT      O79528   3.334   3.340   4.403  0.1174 -0.5399  0.6656
19431WAT     H179529   3.401   3.285   4.445  2.4831  1.0862 -0.7301
19431WAT     H279530   3.350   3.330   4.309 -1.7371 -0.1921  0.2745
19431WAT    EPW79531   3.345   3.332   4.396  0.1847 -0.2795  0.4296
19432WAT      O79532   5.360   4.390   6.533 -0.0892 -0.3967 -1.0135
19432WAT     H179533   5.422   4.322   6.506  1.5444  0.1451  1.1066
19432WAT     H279534   5.317   4.354   6.611  1.3145  1.1761  0.5768
19432WAT    EPW79535   5.363   4.376   6.540  0.3114 -0.1180 -0.5240
19433WAT      O79536   3.869   4.074   6.616  0.2687 -0.4421 -0.3234
19433WAT     H179537   3.905   4.090   6.704 -2.1666  3.2240  0.2527
19433WAT     H279538   3.823   3.991   6.624 -1.5538  0.6740  2.6271
19433WAT    EPW79539   3.868   4.065   6.629 -0.2929  0.1886  0.1416
19434WAT      O79540  -0.036   3.129   4.217  0.2626 -0.3824 -0.2614
19434WAT     H179541  -0.052   3.045   4.259  0.4133  0.1407  0.8777
19434WAT     H279542  -0.124   3.164   4.199  0.1795 -0.2389  0.3958
19434WAT    EPW79543  -0.050   3.122   4.220  0.2715 -0.2946 -0.0246
19435WAT      O79544   5.442   2.913   2.396 -0.0415  0.3015 -0.7389
19435WAT     H179545   5.383   2.860   2.343 -0.3926  0.2762 -0.3244
19435WAT     H279546   5.484   2.850   2.455 -1.7720  0.6795  0.9950
19435WAT    EPW79547   5.440   2.897   2.397 -0.3161  0.3480 -0.4555
19436WAT      O79548  -0.082   0.388   0.708 -0.0193  0.7610 -0.3281
19436WAT     H179549   0.013   0.389   0.710  0.0062 -0.5582  1.2207
19436WAT     H279550  -0.105   0.335   0.631  0.5850 -1.3541  0.8785
19436WAT    EPW79551  -0.073   0.381   0.698  0.0638  0.3081  0.0353
19437WAT      O79552   2.691  10.269   4.981 -1.2848  0.0268  0.4282
19437WAT     H179553   2.678  10.179   5.010  0.1778 -1.7858 -3.7255
19437WAT     H279554   2.607  10.295   4.943 -1.5878  0.2923  1.2641
19437WAT    EPW79555   2.679  10.261   4.980 -1.1319 -0.1774 -0.0095
19438WAT      O79556   5.562   2.573   5.556 -0.0084  0.0643  0.1384
19438WAT     H179557   5.618   2.598   5.482  0.3712  0.3232  0.5072
19438WAT     H279558   5.513   2.652   5.577  0.0101  0.0401  0.2726
19438WAT    EPW79559   5.563   2.586   5.549  0.0439  0.0951  0.2048
19439WAT      O79560  -5.746   2.571   8.612 -0.1259 -0.0864  0.6323
19439WAT     H179561  -5.763   2.625   8.535  0.1389 -0.5355  0.2506
19439WAT     H279562  -5.827   2.523   8.626  0.0314 -0.4771  0.2409
19439WAT    EPW79563  -5.759   2.572   8.603 -0.0701 -0.1971  0.5302
19440WAT      O79564  -1.420   7.639   4.642 -0.2221  0.8891 -0.9750
19440WAT     H179565  -1.328   7.639   4.616 -0.2021  0.4164 -0.9255
19440WAT     H279566  -1.438   7.548   4.666 -0.6201  1.0389 -0.6863
19440WAT    EPW79567  -1.410   7.627   4.642 -0.2719  0.8466 -0.9305
19441WAT      O79568  -6.506  10.141   5.016  0.8649 -0.3897  0.0810
19441WAT     H179569  -6.509  10.046   5.007  0.5327 -0.2661 -1.1948
19441WAT     H279570  -6.413  10.161   5.030  0.9175 -0.9014  0.4809
19441WAT    EPW79571  -6.494  10.131   5.017  0.8278 -0.4411 -0.0346
19442WAT      O79572   7.460   2.724   3.306  0.0791  0.0632 -0.3821
19442WAT     H179573   7.376   2.690   3.337  1.1682 -0.1132  2.8011
19442WAT     H279574   7.514   2.646   3.293 -0.2565  0.1593 -2.6663
19442WAT    EPW79575   7.456   2.709   3.309  0.1786  0.0526 -0.2635
19443WAT      O79576   8.112   0.308   4.445  0.4383  0.5130  0.0115
19443WAT     H179577   8.064   0.375   4.397  0.4673 -0.1438 -0.9429
19443WAT     H279578   8.055   0.231   4.444  1.1044  0.0118 -0.3478
19443WAT    EPW79579   8.098   0.307   4.439  0.5302  0.3603 -0.1616
19444WAT      O79580  -1.888  10.052   7.664 -0.1996 -0.3565  0.1308
19444WAT     H179581  -1.967  10.024   7.618 -0.1934 -0.9824  0.4910
19444WAT     H279582  -1.879  10.145   7.642  0.3984 -0.8781 -2.0183
19444WAT    EPW79583  -1.897  10.061   7.655 -0.1199 -0.5074 -0.1051
19445WAT      O79584  -4.058   7.513   6.219 -0.0440  0.4588 -0.6470
19445WAT     H179585  -4.040   7.548   6.306 -1.4077  1.3325 -0.6948
19445WAT     H279586  -4.000   7.563   6.161  0.3874  0.3327 -0.3331
19445WAT    EPW79587  -4.048   7.524   6.223 -0.1671  0.5574 -0.6120
19446WAT      O79588   1.148   8.765   1.329  0.1562 -0.3686 -0.0572
19446WAT     H179589   1.072   8.723   1.287  0.9551 -0.6204 -1.3064
19446WAT     H279590   1.123   8.773   1.421 -1.8368  0.5497 -0.6275
19446WAT    EPW79591   1.134   8.761   1.335 -0.0013 -0.2804 -0.2972
19447WAT      O79592  -5.570   9.559   7.736  0.1628  0.0201  0.3529
19447WAT     H179593  -5.479   9.546   7.764  1.1416  3.0098 -0.9576
19447WAT     H279594  -5.565   9.562   7.641 -1.7420 -1.9374  0.1329
19447WAT    EPW79595  -5.557   9.558   7.727  0.0405  0.1564  0.1512
19448WAT      O79596   3.478   6.529   7.357  0.0988 -0.0146  0.2748
19448WAT     H179597   3.458   6.590   7.286  0.8087 -0.8464 -0.6861
19448WAT     H279598   3.571   6.543   7.374  0.9498 -2.4576 -1.6906
19448WAT    EPW79599   3.488   6.539   7.350  0.3047 -0.4468 -0.1111
19449WAT      O79600  -1.671   3.127   0.922 -0.1966 -0.0747  0.3121
19449WAT     H179601  -1.653   3.177   1.001  1.7290 -0.6783  0.2956
19449WAT     H279602  -1.714   3.047   0.953  2.6584 -1.4248  1.0949
19449WAT    EPW79603  -1.675   3.123   0.936  0.4339 -0.3322  0.4131
19450WAT      O79604   3.076   2.799   2.426  0.5716  0.2380  0.2666
19450WAT     H179605   3.139   2.732   2.402  1.5636  1.4678 -0.6820
19450WAT     H279606   3.097   2.822   2.517  1.3031  0.4290  0.0503
19450WAT    EPW79607   3.087   2.793   2.435  0.7989  0.4253  0.1131
19451WAT      O79608  -0.740   3.776   5.495 -0.0515 -0.2653  0.8366
19451WAT     H179609  -0.791   3.695   5.485 -0.5675  0.0108  1.1970
19451WAT     H279610  -0.653   3.753   5.462 -0.6560 -0.4696 -0.7476
19451WAT    EPW79611  -0.735   3.762   5.489 -0.1993 -0.2558  0.6752
19452WAT      O79612   1.371   0.940   2.535  0.3403 -0.3283 -0.0012
19452WAT     H179613   1.298   0.939   2.473  1.5377 -3.3448 -1.5518
19452WAT     H279614   1.442   0.982   2.488  0.1318  1.0529  0.8789
19452WAT    EPW79615   1.371   0.945   2.521  0.4708 -0.5440 -0.0896
19453WAT      O79616  -4.906   6.903   5.356 -1.0249  0.7749 -0.4886
19453WAT     H179617  -4.830   6.909   5.413 -0.5931 -1.2056 -0.7683
19453WAT     H279618  -4.870   6.910   5.267 -0.9777 -1.1650 -0.6633
19453WAT    EPW79619  -4.892   6.904   5.352 -0.9618  0.2580 -0.5486
19454WAT      O79620  -0.246   1.135   3.753  0.9754  0.6571  0.4437
19454WAT     H179621  -0.293   1.208   3.711  0.1612  0.0631  0.2845
19454WAT     H279622  -0.154   1.153   3.736  0.6879 -0.1250 -2.6769
19454WAT    EPW79623  -0.240   1.147   3.745  0.8301  0.4756  0.0111
19455WAT      O79624   4.834   4.409   0.602  0.2979 -0.8105 -0.2271
19455WAT     H179625   4.904   4.399   0.536  1.2038 -0.9157  0.7185
19455WAT     H279626   4.864   4.356   0.676 -0.7479 -0.7554  0.2433
19455WAT    EPW79627   4.847   4.401   0.603  0.2792 -0.8171 -0.0403
19456WAT      O79628   2.334   2.087   6.362  0.3857  0.1465 -0.4552
19456WAT     H179629   2.334   1.995   6.336  0.9770  0.3964 -1.3981
19456WAT     H279630   2.256   2.123   6.321 -1.0033 -0.3590  1.6147
19456WAT    EPW79631   2.324   2.080   6.353  0.2805  0.1129 -0.3064
19457WAT      O79632   5.551  -0.009   4.448  0.0633 -0.2201  0.4957
19457WAT     H179633   5.458   0.015   4.457  0.1161  1.3555 -2.0574
19457WAT     H279634   5.596   0.075   4.435  2.2346 -0.7213  3.6111
19457WAT    EPW79635   5.545   0.006   4.448  0.3569 -0.0784  0.5698
19458WAT      O79636  -0.182   5.018   3.809  0.6952 -0.1635 -0.8733
19458WAT     H179637  -0.141   4.991   3.727 -0.4509  0.6537 -1.7537
19458WAT     H279638  -0.266   5.055   3.782  1.5389  2.9318  0.3244
19458WAT    EPW79639  -0.187   5.019   3.795  0.6553  0.3524 -0.8314
19459WAT      O79640  -2.160   3.692   8.695  0.0648 -0.3771  0.4536
19459WAT     H179641  -2.091   3.625   8.700  0.1902 -0.1426  2.7060
19459WAT     H279642  -2.153   3.726   8.606  0.1241 -3.1956 -0.7500
19459WAT    EPW79643  -2.150   3.688   8.684  0.0892 -0.7180  0.5918
19460WAT      O79644  -3.036   7.164   4.772  0.0949 -0.7120 -0.2177
19460WAT     H179645  -2.962   7.141   4.714 -0.9250 -0.3581 -1.7263
19460WAT     H279646  -3.055   7.083   4.819  1.3895 -0.8275  0.1525
19460WAT    EPW79647  -3.029   7.150   4.770  0.1311 -0.6807 -0.3679
19461WAT      O79648  -2.562   0.735   7.237 -0.7450 -0.4747  0.2591
19461WAT     H179649  -2.633   0.795   7.211 -1.7336 -0.8752  1.8755
19461WAT     H279650  -2.595   0.692   7.315  0.3900 -2.3593 -0.2356
19461WAT    EPW79651  -2.576   0.737   7.244 -0.7256 -0.7761  0.4070
19462WAT      O79652   3.237   6.633   8.149 -0.7885  0.0960  0.5601
19462WAT     H179653   3.152   6.628   8.192 -0.7124 -3.1588  0.5933
19462WAT     H279654   3.300   6.644   8.221 -0.9246 -1.7134  0.9944
19462WAT    EPW79655   3.234   6.634   8.164 -0.7964 -0.5720  0.6218
19463WAT      O79656   3.190   0.955   2.299 -0.4233  0.2494  0.4432
19463WAT     H179657   3.262   0.976   2.239 -0.5371  0.0081  0.2215
19463WAT     H279658   3.227   0.890   2.358 -0.1502  0.8746  0.9671
19463WAT    EPW79659   3.204   0.949   2.298 -0.4023  0.3000  0.4829
19464WAT      O79660   3.333   3.069   1.151  0.7481 -0.1032 -0.4188
19464WAT     H179661   3.275   3.118   1.092  2.0768 -0.3512 -1.9863
19464WAT     H279662   3.290   2.983   1.161 -0.5495  0.6277  0.7252
19464WAT    EPW79663   3.320   3.064   1.145  0.7523 -0.0395 -0.4747
19465WAT      O79664   0.219   0.104   0.440  0.4748  0.2790  0.4515
19465WAT     H179665   0.218   0.160   0.518  1.7253 -0.9555  1.4189
19465WAT     H279666   0.127   0.088   0.421 -0.0631  4.1964 -1.0962
19465WAT    EPW79667   0.207   0.109   0.448  0.5688  0.6329  0.3750
19466WAT      O79668  -5.032   4.480   8.819 -0.4252  0.5954  0.2543
19466WAT     H179669  -5.029   4.573   8.798 -1.3212  0.5299 -0.2135
19466WAT     H279670  -4.967   4.440   8.760 -3.3546  0.3170 -3.1234
19466WAT    EPW79671  -5.023   4.487   8.808 -0.9296  0.5498 -0.2532
19467WAT      O79672  -1.617   0.725   3.188  0.0733 -0.1096  0.1121
19467WAT     H179673  -1.657   0.649   3.230  0.6002 -0.3766  0.1398
19467WAT     H279674  -1.561   0.763   3.256 -0.7364  0.7259  0.3227
19467WAT    EPW79675  -1.615   0.720   3.202  0.0361 -0.0347  0.1434
19468WAT      O79676   6.675   2.122   3.885 -0.5035 -0.2865 -0.2211
19468WAT     H179677   6.602   2.079   3.841 -0.4430  0.7509 -1.3969
19468WAT     H279678   6.753   2.092   3.838 -0.3862  0.3909 -0.4732
19468WAT    EPW79679   6.676   2.112   3.873 -0.4802 -0.0603 -0.4095
19469WAT      O79680  -4.691  10.057   7.776 -0.0591  0.2710  0.0046
19469WAT     H179681  -4.741  10.019   7.704  2.6363 -2.6107 -0.6046
19469WAT     H279682  -4.633  10.121   7.735 -0.0470  0.2300 -0.0425
19469WAT    EPW79683  -4.690  10.060   7.761  0.2980 -0.1144 -0.0820
19470WAT      O79684   6.198   1.438   3.091 -0.0040 -0.0546 -0.0154
19470WAT     H179685   6.222   1.515   3.039  0.7883 -0.8271 -0.8208
19470WAT     H279686   6.187   1.368   3.027 -1.2364 -0.4983  0.6625
19470WAT    EPW79687   6.200   1.439   3.076 -0.0618 -0.2151 -0.0322
19471WAT      O79688  -4.908   9.836   3.247  0.1932  0.5382  0.5932
19471WAT     H179689  -4.814   9.831   3.268 -0.2863 -2.5360  2.7187
19471WAT     H279690  -4.945   9.889   3.318  0.1846  1.1393  0.1514
19471WAT    EPW79691  -4.900   9.843   3.259  0.1287  0.2122  0.8153
19472WAT      O79692  -3.736  10.280   5.766  0.2664  0.4319  0.7865
19472WAT     H179693  -3.756  10.186   5.763  1.0121  0.2630  0.8391
19472WAT     H279694  -3.812  10.322   5.725 -0.1542 -0.1799  0.9258
19472WAT    EPW79695  -3.748  10.273   5.760  0.3093  0.3290  0.8118
19473WAT      O79696  -2.312   7.200   5.129 -0.3828  0.4769 -0.1414
19473WAT     H179697  -2.262   7.151   5.194  0.4225 -0.9820 -1.7935
19473WAT     H279698  -2.249   7.217   5.059 -2.1791 -1.5948 -2.3989
19473WAT    EPW79699  -2.297   7.196   5.129 -0.5136  0.0112 -0.6571
19474WAT      O79700   1.271   3.965   6.611  0.1387 -0.3540  0.2376
19474WAT     H179701   1.297   3.934   6.698  0.1048  1.2859  0.8810
19474WAT     H279702   1.192   3.915   6.590  0.5851 -1.3140  0.8074
19474WAT    EPW79703   1.264   3.955   6.620  0.1932 -0.2644  0.3977
19475WAT      O79704   2.149   1.235   2.540  0.3889 -0.4171 -0.2766
19475WAT     H179705   2.119   1.273   2.623 -1.6234 -2.5039  0.0400
19475WAT     H279706   2.132   1.303   2.475 -2.8999 -0.5363  0.2889
19475WAT    EPW79707   2.143   1.249   2.542 -0.3103 -0.7080 -0.1602
19476WAT      O79708   5.491   5.542   1.844  0.9979  0.3992 -0.0925
19476WAT     H179709   5.536   5.457   1.851 -1.5632 -0.9529  2.0699
19476WAT     H279710   5.417   5.534   1.904  0.9869  4.4484  0.6954
19476WAT    EPW79711   5.487   5.530   1.853  0.6585  0.7551  0.2966
19477WAT      O79712   5.274  10.351   1.113  0.4922  0.2643 -0.2446
19477WAT     H179713   5.365  10.345   1.141 -0.2177  2.6559  3.2343
19477WAT     H279714   5.249  10.261   1.090  2.7386 -1.1050  2.1996
19477WAT    EPW79715   5.282  10.338   1.113  0.6948  0.3991  0.5366
19478WAT      O79716  -0.390   5.254   8.156 -0.3020 -0.4802 -0.0706
19478WAT     H179717  -0.326   5.313   8.196  0.1928 -0.9338 -0.1908
19478WAT     H279718  -0.463   5.253   8.218  0.5300 -1.3334  0.9340
19478WAT    EPW79719  -0.391   5.262   8.169 -0.1270 -0.6523  0.0463
19479WAT      O79720   2.029   0.795   8.747  0.0333  0.1770  0.2756
19479WAT     H179721   2.014   0.815   8.654  1.6016  0.2335  0.0091
19479WAT     H279722   2.098   0.729   8.747 -1.0420 -1.0147  1.3741
19479WAT    EPW79723   2.036   0.789   8.735  0.0982  0.0273  0.3853
19480WAT      O79724  -7.347   8.965   8.349  0.5352  0.3673 -0.0827
19480WAT     H179725  -7.406   8.963   8.425 -1.0436 -1.3409 -1.2523
19480WAT     H279726  -7.272   8.912   8.376 -0.3458 -0.8441  0.0716
19480WAT    EPW79727  -7.345   8.957   8.363  0.2108 -0.0172 -0.2170
19481WAT      O79728   0.906   8.849   7.522  0.0998  0.2808  0.6712
19481WAT     H179729   0.833   8.789   7.537  0.0982  0.2869  0.6888
19481WAT     H279730   0.983   8.792   7.524 -0.0241  0.0222 -0.9453
19481WAT    EPW79731   0.907   8.833   7.524  0.0832  0.2470  0.4604
19482WAT      O79732  -0.957   0.137   5.376 -0.2207  0.2240  0.3787
19482WAT     H179733  -0.985   0.048   5.356 -0.4273  0.1263  1.0844
19482WAT     H279734  -1.003   0.160   5.457  0.3271  0.7332  0.5581
19482WAT    EPW79735  -0.967   0.129   5.384 -0.1757  0.2783  0.4954
19483WAT      O79736  -7.114   6.824   8.912 -0.0711  0.0290 -0.3824
19483WAT     H179737  -7.105   6.910   8.953 -2.3490 -0.2621  0.9128
19483WAT     H279738  -7.150   6.843   8.825  0.5837  0.4340 -0.5698
19483WAT    EPW79739  -7.118   6.838   8.906 -0.2849  0.0439 -0.2360
19484WAT      O79740   0.488   8.474   2.905 -0.1606  0.3350  0.1844
19484WAT     H179741   0.482   8.381   2.883  1.8726  0.3328 -0.6046
19484WAT     H279742   0.441   8.518   2.834  1.7705  0.0396 -1.3544
19484WAT    EPW79743   0.481   8.467   2.893  0.3622  0.2961 -0.1227
19485WAT      O79744  -2.776   6.730   2.706  0.2102 -0.1987 -0.0537
19485WAT     H179745  -2.730   6.746   2.789  0.2276  3.6110 -0.6012
19485WAT     H279746  -2.859   6.776   2.716  0.5945  1.1474 -2.4120
19485WAT    EPW79747  -2.781   6.738   2.718  0.2632  0.4814 -0.4369
19486WAT      O79748  -5.812   6.655   7.688 -0.3051 -0.0165 -0.0035
19486WAT     H179749  -5.895   6.621   7.722  0.2499 -3.3762 -1.5791
19486WAT     H279750  -5.830   6.670   7.595  0.5987  0.0612 -0.1724
19486WAT    EPW79751  -5.825   6.652   7.680 -0.1128 -0.4494 -0.2337
19487WAT      O79752   3.788   4.603   8.343 -0.4248  0.0046  0.1167
19487WAT     H179753   3.860   4.666   8.354 -1.6899  1.5621 -0.2717
19487WAT     H279754   3.772   4.601   8.249 -0.2791 -1.0813  0.0987
19487WAT    EPW79755   3.796   4.611   8.332 -0.5723  0.0670  0.0625
19488WAT      O79756  -4.408   6.362   3.879 -0.2546  0.3736 -0.7620
19488WAT     H179757  -4.414   6.317   3.963 -1.1670 -1.3186 -1.6875
19488WAT     H279758  -4.486   6.335   3.831 -0.5678  2.5600 -1.5871
19488WAT    EPW79759  -4.419   6.352   3.884 -0.4160  0.4389 -0.9929
19489WAT      O79760  -0.184   2.303   2.507 -0.2697 -0.0053  1.0619
19489WAT     H179761  -0.140   2.296   2.592  0.5382  1.2463  0.7789
19489WAT     H279762  -0.132   2.368   2.459 -1.3215  0.0741 -0.0047
19489WAT    EPW79763  -0.171   2.310   2.512 -0.3019  0.1702  0.8838
19490WAT      O79764   0.621   7.056   8.965 -0.3767 -0.8914 -0.2499
19490WAT     H179765   0.621   7.057   8.870 -0.8816  0.9059 -0.2832
19490WAT     H279766   0.533   7.086   8.989 -0.0514 -0.6821  0.7540
19490WAT    EPW79767   0.609   7.060   8.956 -0.4004 -0.6268 -0.1221
19491WAT      O79768  -1.253   6.555   0.676 -0.0022 -0.1875  0.2321
19491WAT     H179769  -1.206   6.633   0.704  2.3107 -1.5813  0.4519
19491WAT     H279770  -1.296   6.581   0.594 -0.7237  1.7512  1.1650
19491WAT    EPW79771  -1.253   6.569   0.669  0.2077 -0.1154  0.3841
19492WAT      O79772   4.473   5.542   2.460 -0.3115  0.0350 -0.1373
19492WAT     H179773   4.435   5.617   2.415 -0.4403  2.8127  4.0124
19492WAT     H279774   4.398   5.493   2.494 -0.2411  0.4055  0.5701
19492WAT    EPW79775   4.458   5.545   2.459 -0.3192  0.4504  0.5033
19493WAT      O79776   5.603   3.292   4.623 -0.3969  0.3043 -0.2942
19493WAT     H179777   5.578   3.200   4.635  1.7032 -0.8178 -3.1372
19493WAT     H279778   5.564   3.316   4.538  0.8040  1.3113 -0.5893
19493WAT    EPW79779   5.595   3.283   4.613  0.0384  0.2891 -0.7081
19494WAT      O79780   2.912   3.174   3.921 -0.4158 -0.2053  0.7670
19494WAT     H179781   2.999   3.159   3.959  0.6948  0.4743 -1.3159
19494WAT     H279782   2.917   3.263   3.885 -1.5098 -0.6368 -0.5273
19494WAT    EPW79783   2.924   3.184   3.921 -0.4134 -0.1726  0.3215
19495WAT      O79784  -0.067   8.666   2.658 -0.2356 -0.3986  0.2060
19495WAT     H179785  -0.023   8.584   2.635  0.4507 -0.1138  0.4739
19495WAT     H279786  -0.143   8.670   2.600  0.3557 -0.6659 -0.5981
19495WAT    EPW79787  -0.072   8.655   2.647 -0.0671 -0.3963  0.1353
19496WAT      O79788  -0.766   2.156   5.378 -0.1685 -0.3213 -0.2689
19496WAT     H179789  -0.708   2.225   5.412 -0.4470 -0.1613 -0.1163
19496WAT     H279790  -0.807   2.194   5.301  0.8307 -0.8540 -1.0925
19496WAT    EPW79791  -0.764   2.170   5.372 -0.0734 -0.3704 -0.3574
19497WAT      O79792   5.507   6.935   0.759 -0.2789 -0.0999 -0.0392
19497WAT     H179793   5.474   6.908   0.845 -0.6895 -0.8777 -0.4218
19497WAT     H279794   5.591   6.978   0.777 -0.5075  0.0166  0.7704
19497WAT    EPW79795   5.514   6.937   0.772 -0.3631 -0.1872  0.0171
19498WAT      O79796   2.444  10.246   7.591  0.1227 -0.2319 -0.3487
19498WAT     H179797   2.463  10.163   7.546 -0.0592 -0.4221 -0.0780
19498WAT     H279798   2.463  10.228   7.683  1.1980  0.3735 -0.4439
19498WAT    EPW79799   2.449  10.233   7.597  0.2404 -0.1769 -0.3254
19499WAT      O79800  -7.404   9.108   7.361 -0.8864  0.4685  0.0748
19499WAT     H179801  -7.488   9.147   7.338 -1.8238 -1.9411 -0.9315
19499WAT     H279802  -7.342   9.146   7.298 -2.1778 -1.1515 -2.3326
19499WAT    EPW79803  -7.407   9.118   7.350 -1.1804 -0.0629 -0.3753
19500WAT      O79804   5.706   0.951   0.150  0.8458  0.2241 -0.5942
19500WAT     H179805   5.762   0.919   0.080  1.3142 -1.1539  0.3736
19500WAT     H279806   5.619   0.917   0.129  0.5411  1.5208 -1.5581
19500WAT    EPW79807   5.702   0.943   0.138  0.8674  0.2134 -0.5937
19501WAT      O79808   3.404   5.815   3.719 -0.0784  0.0350 -0.3314
19501WAT     H179809   3.497   5.807   3.742  0.4380 -1.8127 -2.6944
19501WAT     H279810   3.397   5.901   3.678  0.3105  0.6622  0.8667
19501WAT    EPW79811   3.416   5.825   3.717  0.0410 -0.1261 -0.4851
19502WAT      O79812   1.471   6.423   6.055 -0.1770  0.9794 -0.1964
19502WAT     H179813   1.457   6.472   5.974  0.2314  1.5365  0.0655
19502WAT     H279814   1.461   6.488   6.125 -2.5310  0.1360  0.3615
19502WAT    EPW79815   1.468   6.438   6.054 -0.4336  0.9415 -0.0882
19503WAT      O79816  -3.960   9.483   2.081 -0.0271  0.2124  0.2481
19503WAT     H179817  -4.015   9.489   2.159 -1.1657 -3.0632 -0.1223
19503WAT     H279818  -4.014   9.520   2.011  0.0488  0.9999  0.5955
19503WAT    EPW79819  -3.975   9.489   2.082 -0.1673 -0.1159  0.2451
19504WAT      O79820   0.689   4.338   3.696  0.3572  0.1141 -0.3357
19504WAT     H179821   0.716   4.429   3.682 -0.5892  0.5530  0.5806
19504WAT     H279822   0.709   4.294   3.613 -1.7059  1.8069 -1.8603
19504WAT    EPW79823   0.695   4.344   3.683 -0.0398  0.3955 -0.4159
19505WAT      O79824   4.217   0.769   6.102  0.1116 -0.0217 -0.1888
19505WAT     H179825   4.172   0.687   6.083  0.3802  0.6916 -5.2201
19505WAT     H279826   4.310   0.748   6.094  0.2706  0.4737  0.2626
19505WAT    EPW79827   4.223   0.755   6.099  0.1678  0.1377 -0.7930
19506WAT      O79828  -2.609   2.320   7.961  0.5539 -0.2254  0.1810
19506WAT     H179829  -2.628   2.396   7.907  0.9424 -0.7513 -0.7256
19506WAT     H279830  -2.588   2.251   7.898  1.4206 -0.7468  1.0174
19506WAT    EPW79831  -2.609   2.321   7.946  0.7194 -0.3636  0.1717
19507WAT      O79832   1.704   2.320   1.788  0.6088  0.2108 -0.5450
19507WAT     H179833   1.623   2.301   1.741  0.3175  0.5579 -0.1817
19507WAT     H279834   1.768   2.260   1.749  0.1684 -0.1020 -0.7966
19507WAT    EPW79835   1.702   2.309   1.776  0.5123  0.2153 -0.5303
19508WAT      O79836   5.475   6.723   2.367  0.1304 -0.6253  0.1819
19508WAT     H179837   5.466   6.747   2.459 -0.0905  2.8400 -0.5860
19508WAT     H279838   5.389   6.740   2.329  0.6156 -0.5215 -0.9237
19508WAT    EPW79839   5.463   6.728   2.374  0.1652 -0.1545 -0.0651
19509WAT      O79840   4.086   0.460   7.817 -0.4502  0.7748  0.2251
19509WAT     H179841   4.047   0.465   7.905  0.5497 -1.2389  0.8420
19509WAT     H279842   4.177   0.484   7.830 -0.0007 -0.7176  0.0057
19509WAT    EPW79843   4.093   0.464   7.830 -0.2589  0.3124  0.2778
19510WAT      O79844  -1.913   8.267   7.878 -0.5450  0.3216 -0.2844
19510WAT     H179845  -1.942   8.329   7.811  1.4235  0.4879 -1.0558
19510WAT     H279846  -1.870   8.321   7.944  2.1760 -0.2034 -1.4957
19510WAT    EPW79847  -1.911   8.282   7.878  0.0735  0.2742 -0.5460
19511WAT      O79848   4.598   7.667   3.801 -0.8070  0.5224  0.5068
19511WAT     H179849   4.620   7.748   3.847  0.3304 -0.1904  1.2634
19511WAT     H279850   4.618   7.685   3.709 -1.5129  1.4155  0.5188
19511WAT    EPW79851   4.604   7.680   3.795 -0.7501  0.5460  0.6082
19512WAT      O79852  -2.506   9.989   3.123  0.1383  0.3039  0.4931
19512WAT     H179853  -2.427   9.995   3.069  0.2945  1.2247  0.7995
19512WAT     H279854  -2.553  10.071   3.106 -1.3550 -0.7122 -0.5621
19512WAT    EPW79855  -2.502  10.001   3.114 -0.0380  0.2913  0.3942
19513WAT      O79856   1.372   0.521   4.871 -0.1536  0.3352  0.1088
19513WAT     H179857   1.279   0.530   4.894  0.1478 -0.6901  1.9096
19513WAT     H279858   1.417   0.580   4.931  0.4289  0.1623 -0.1538
19513WAT    EPW79859   1.366   0.530   4.882 -0.0370  0.1772  0.3116
19514WAT      O79860   6.134   1.208   2.935 -0.7652 -0.0474 -0.2395
19514WAT     H179861   6.040   1.219   2.946 -0.6465 -0.4593  1.3458
19514WAT     H279862   6.152   1.119   2.964 -0.3312 -1.2326 -3.6995
19514WAT    EPW79863   6.124   1.198   2.940 -0.6921 -0.2581 -0.4867
19515WAT      O79864  -1.105   1.998   7.767 -0.3102 -0.3113 -0.3273
19515WAT     H179865  -1.041   1.998   7.838 -0.4946  0.7422 -0.1426
19515WAT     H279866  -1.069   2.058   7.702 -0.8849 -0.0694 -0.4313
19515WAT    EPW79867  -1.092   2.006   7.768 -0.4104 -0.1405 -0.3169
19516WAT      O79868  -0.149   4.428   4.993  0.2436 -0.5954 -0.4172
19516WAT     H179869  -0.142   4.492   5.064 -0.3777  1.1683 -1.8841
19516WAT     H279870  -0.242   4.406   4.990  0.4857 -1.8435  0.2486
19516WAT    EPW79871  -0.160   4.434   5.002  0.1936 -0.5274 -0.5231
19517WAT      O79872  -4.574   2.497   7.649 -0.2600  0.5190  0.6369
19517WAT     H179873  -4.521   2.446   7.710 -1.2013  1.0173  1.9214
19517WAT     H279874  -4.566   2.451   7.565  0.2471 -0.7730  1.3679
19517WAT    EPW79875  -4.566   2.484   7.646 -0.3173  0.4143  0.9027
19518WAT      O79876   4.988   1.466   2.222  0.1851  0.0827 -0.2290
19518WAT     H179877   4.977   1.560   2.233  1.2931  0.3008 -0.8267
19518WAT     H279878   5.042   1.457   2.143  0.0376 -1.0481 -0.2162
19518WAT    EPW79879   4.994   1.477   2.213  0.3119 -0.0377 -0.3061
19519WAT      O79880   7.164   0.018   1.850 -0.1055  0.0015  0.1159
19519WAT     H179881   7.210  -0.045   1.794  2.0970  0.7395  0.9880
19519WAT     H279882   7.213   0.099   1.841 -2.8709  1.6957 -0.9587
19519WAT    EPW79883   7.176   0.020   1.841 -0.1798  0.3223  0.0892
19520WAT      O79884   7.025   4.297   1.814  0.0658  0.1667 -0.0838
19520WAT     H179885   7.077   4.332   1.886  0.9530  0.3945 -0.8043
19520WAT     H279886   7.024   4.367   1.749  0.8427 -0.6765 -1.0381
19520WAT    EPW79887   7.032   4.311   1.815  0.2851  0.0856 -0.3047
19521WAT      O79888   6.510   1.911   4.614  0.4666  0.2087 -0.2179
19521WAT     H179889   6.571   1.850   4.573  0.7379  0.1187  0.3027
19521WAT     H279890   6.515   1.990   4.561  3.9862  1.6410  1.9446
19521WAT    EPW79891   6.518   1.913   4.602  0.9665  0.3858  0.1359
19522WAT      O79892   4.094   9.546   4.452 -0.5297  0.8455 -0.2086
19522WAT     H179893   4.086   9.614   4.385  0.6587 -1.7255 -3.2234
19522WAT     H279894   4.187   9.541   4.470  0.0717 -2.4938 -3.1733
19522WAT    EPW79895   4.105   9.554   4.446 -0.2937  0.0658 -0.9973
19523WAT      O79896   5.398   0.285   2.476  0.7076  0.3889 -0.2678
19523WAT     H179897   5.442   0.333   2.406 -0.0050  1.6841  0.1361
19523WAT     H279898   5.348   0.218   2.431  0.7171  0.8413 -0.9665
19523WAT    EPW79899   5.397   0.283   2.461  0.6149  0.6194 -0.3067
19524WAT      O79900   3.378   9.303   6.292  0.2374  0.0156 -0.0540
19524WAT     H179901   3.395   9.219   6.248 -2.3545 -0.5411 -0.1209
19524WAT     H279902   3.351   9.361   6.221  2.6782  1.2152 -0.1174
19524WAT    EPW79903   3.377   9.299   6.277  0.2174  0.1001 -0.0710
19525WAT      O79904   0.957   6.668   3.243  0.3185 -0.0019 -0.2060
19525WAT     H179905   0.917   6.753   3.262  3.1418  0.8205  3.0532
19525WAT     H279906   0.885   6.606   3.246 -1.1789  1.6828  2.5023
19525WAT    EPW79907   0.943   6.671   3.246  0.4933  0.3288  0.5811
19526WAT      O79908   4.088   2.663   6.552 -0.2976 -0.0675  0.2951
19526WAT     H179909   4.067   2.598   6.485 -0.7949 -1.9634  2.1955
19526WAT     H279910   4.174   2.637   6.585 -0.2300  0.6045  0.6812
19526WAT    EPW79911   4.097   2.651   6.547 -0.3543 -0.2289  0.5968
19527WAT      O79912   0.227   8.070   2.280  0.0993 -0.5514  0.5433
19527WAT     H179913   0.224   7.974   2.282  2.4237 -0.8214 -2.4585
19527WAT     H279914   0.262   8.091   2.194  1.7596  2.9765  1.9086
19527WAT    EPW79915   0.231   8.060   2.269  0.6249 -0.1216  0.3275
19528WAT      O79916  -0.802   0.588   3.714  0.2766 -0.4463 -0.0699
19528WAT     H179917  -0.783   0.643   3.789  1.6837  1.6339 -1.8327
19528WAT     H279918  -0.836   0.648   3.647 -4.0546 -2.6457 -0.2029
19528WAT    EPW79919  -0.804   0.603   3.715 -0.1090 -0.4621 -0.3201
19529WAT      O79920  -0.596   8.288   5.796 -0.3549 -0.1127  0.1505
19529WAT     H179921  -0.523   8.340   5.832  0.2951  0.6792 -2.1447
19529WAT     H279922  -0.659   8.353   5.766 -1.3980 -0.7742  0.8678
19529WAT    EPW79923  -0.594   8.304   5.797 -0.4068 -0.0954 -0.0577
19530WAT      O79924   6.102   6.991   0.326  0.2168  0.5477 -0.5313
19530WAT     H179925   6.120   7.015   0.416  2.7698  0.9090 -1.0740
19530WAT     H279926   6.186   6.961   0.291 -1.2154 -2.0487 -2.0972
19530WAT    EPW79927   6.115   6.990   0.333  0.3645  0.2530 -0.8094
19531WAT      O79928  -0.102   1.528   2.347  0.1528  0.5554 -0.4482
19531WAT     H179929  -0.009   1.540   2.367 -0.5052  0.7407  3.0306
19531WAT     H279930  -0.127   1.450   2.396 -1.9683  1.6520  0.3234
19531WAT    EPW79931  -0.093   1.519   2.356 -0.2138  0.7245  0.1124
19532WAT      O79932   3.163   8.310   6.686  0.1616 -0.9759  0.0242
19532WAT     H179933   3.077   8.303   6.645 -0.5154  0.1279  1.1754
19532WAT     H279934   3.181   8.222   6.719 -0.4999 -1.2294 -0.2772
19532WAT    EPW79935   3.154   8.297   6.685 -0.0149 -0.8636  0.1364
19533WAT      O79936  -2.236   0.260   8.869 -0.4633  0.3123  0.2915
19533WAT     H179937  -2.320   0.216   8.858 -0.9249  1.2533 -0.1122
19533WAT     H279938  -2.182   0.199   8.920 -1.0647 -0.7035 -0.2685
19533WAT    EPW79939  -2.240   0.246   8.874 -0.6034  0.3024  0.1645
19534WAT      O79940   0.498   5.656   6.145  0.1631  0.2407 -0.1061
19534WAT     H179941   0.436   5.667   6.217 -1.3920 -1.9410 -0.9729
19534WAT     H279942   0.565   5.596   6.178  1.8190  2.4677  0.7757
19534WAT    EPW79943   0.498   5.649   6.159  0.1764  0.2468 -0.1042
19535WAT      O79944   0.969   9.420   2.141 -0.6802 -0.6478  0.3467
19535WAT     H179945   0.893   9.444   2.087 -1.3548 -2.2150  0.5514
19535WAT     H279946   1.044   9.439   2.085 -1.1682  1.2884  0.2774
19535WAT    EPW79947   0.969   9.426   2.126 -0.8335 -0.5989  0.3645
19536WAT      O79948  -2.961   2.936   5.335 -0.5453 -0.5346 -0.0326
19536WAT     H179949  -2.980   2.917   5.243  0.2957 -1.0084 -0.1261
19536WAT     H279950  -2.947   3.030   5.338 -3.8694  0.0650  0.2540
19536WAT    EPW79951  -2.961   2.946   5.323 -0.8727 -0.5181 -0.0072
19537WAT      O79952   2.649   9.101   1.618 -0.1304 -0.0694  0.3956
19537WAT     H179953   2.678   9.108   1.527 -2.7477 -1.1864 -0.6318
19537WAT     H279954   2.685   9.179   1.660  3.4449 -0.8543 -0.8331
19537WAT    EPW79955   2.657   9.113   1.611 -0.0041 -0.3204  0.0980
19538WAT      O79956  -2.976  10.156   7.268 -0.1811 -0.4816 -0.0573
19538WAT     H179957  -2.977  10.100   7.346 -2.0126  0.8852  0.9687
19538WAT     H279958  -2.940  10.239   7.299  0.3636 -0.3481 -1.0190
19538WAT    EPW79959  -2.971  10.159   7.283 -0.3508 -0.2837 -0.0486
19539WAT      O79960  -2.746   2.904   5.952 -1.0312 -0.3715  0.3534
19539WAT     H179961  -2.828   2.859   5.973 -0.4509 -0.9531  1.4923
19539WAT     H279962  -2.679   2.854   5.999  0.0780 -0.3214 -1.1197
19539WAT    EPW79963  -2.748   2.891   5.961 -0.8085 -0.4416  0.3092
19540WAT      O79964   3.528   0.263   2.769 -0.7556  0.3485 -0.4654
19540WAT     H179965   3.532   0.289   2.677  0.5150 -2.2191 -1.2360
19540WAT     H279966   3.612   0.221   2.785 -0.1493  2.3984  2.4978
19540WAT    EPW79967   3.540   0.261   2.759 -0.5080  0.2802 -0.1762
19541WAT      O79968   3.283   0.261   6.745 -0.0339 -0.9005  0.2549
19541WAT     H179969   3.252   0.345   6.711  0.5729 -0.7813 -0.0254
19541WAT     H279970   3.259   0.197   6.678 -0.8479 -1.0170  0.6494
19541WAT    EPW79971   3.276   0.263   6.732 -0.0612 -0.9001  0.2699
19542WAT      O79972   3.699   4.066   5.815 -0.6978 -0.0037  0.4218
19542WAT     H179973   3.751   4.074   5.736 -0.9404  0.7590  0.3346
19542WAT     H279974   3.736   3.990   5.861 -0.4766 -0.3663 -0.3509
19542WAT    EPW79975   3.710   4.057   5.811 -0.7007  0.0489  0.3085
19543WAT      O79976   3.979   0.260   3.514 -0.7469 -0.4867  0.9170
19543WAT     H179977   4.033   0.225   3.585 -1.1920 -2.3164  0.4162
19543WAT     H279978   3.900   0.206   3.516 -1.1823  0.0788 -0.3615
19543WAT    EPW79979   3.976   0.248   3.524 -0.8631 -0.6534  0.6824
19544WAT      O79980  -4.268   9.625   6.195 -0.6198 -0.0628  0.5565
19544WAT     H179981  -4.220   9.640   6.276  1.0228 -0.8114 -0.2210
19544WAT     H279982  -4.355   9.661   6.211  0.0248  0.8516  2.2318
19544WAT    EPW79983  -4.273   9.632   6.208 -0.3181 -0.0410  0.6750
19545WAT      O79984   6.094   4.925   4.550  0.7759  0.4165 -1.1379
19545WAT     H179985   6.172   4.872   4.566 -2.0000 -2.9499  4.1611
19545WAT     H279986   6.113   5.008   4.595  1.4144 -0.2426 -0.1629
19545WAT    EPW79987   6.107   4.929   4.558  0.4940 -0.1144 -0.3102
19546WAT      O79988  -2.286   8.850   3.758 -0.2298 -0.3706  0.2578
19546WAT     H179989  -2.263   8.942   3.747  0.6655 -0.6631 -0.4608
19546WAT     H279990  -2.312   8.843   3.850 -1.9802  0.9308 -0.0992
19546WAT    EPW79991  -2.286   8.861   3.769 -0.3426 -0.2375  0.1159
19547WAT      O79992   4.233   5.211   2.218 -0.4282 -0.2172 -0.2361
19547WAT     H179993   4.244   5.119   2.194 -0.2087 -0.2928  0.1450
19547WAT     H279994   4.323   5.242   2.233 -0.5647 -1.4418  5.2784
19547WAT    EPW79995   4.246   5.203   2.217 -0.4172 -0.3889  0.5414
19548WAT      O79996   5.230   1.651   7.634  0.1413 -0.2668  0.4009
19548WAT     H179997   5.137   1.628   7.632  0.2722 -0.7322 -1.4217
19548WAT     H279998   5.231   1.743   7.658 -0.7260 -0.4776  1.3553
19548WAT    EPW79999   5.218   1.660   7.637  0.0441 -0.3560  0.2863
19549WAT      O80000   2.801   0.030   6.723  0.2340  0.4466  0.3348
19549WAT     H180001   2.894   0.009   6.713 -0.4758 -2.8007 -0.6945
19549WAT     H280002   2.794   0.123   6.702  3.2851  0.9189  0.9885
19549WAT    EPW80003   2.812   0.040   6.719  0.5428  0.0806  0.2851
19550WAT      O80004  -2.214   7.608   5.893 -0.3313  0.7439  0.3755
19550WAT     H180005  -2.121   7.619   5.913 -0.5026 -0.7749  2.2606
19550WAT     H280006  -2.227   7.660   5.813  2.6764 -0.9897 -1.4351
19550WAT    EPW80007  -2.204   7.616   5.885  0.0428  0.3150  0.3853
19551WAT      O80008   4.584   6.663   1.719  0.0604  0.4423  0.3168
19551WAT     H180009   4.632   6.746   1.718 -1.9705  1.7760 -2.7095
19551WAT     H280010   4.613   6.617   1.641 -0.3108 -0.7699  0.8792
19551WAT    EPW80011   4.594   6.668   1.709 -0.2563  0.4582 -0.0082
19552WAT      O80012   0.764   8.315   1.002  0.2950 -0.1160  0.5733
19552WAT     H180013   0.849   8.358   1.001  0.0066  0.5092 -0.8302
19552WAT     H280014   0.733   8.322   0.911 -0.8264 -1.1759  0.8442
19552WAT    EPW80015   0.771   8.322   0.990  0.1091 -0.1731  0.4239
19553WAT      O80016   1.425   0.700   0.291 -0.2522  0.1058 -0.4569
19553WAT     H180017   1.443   0.766   0.359  1.4295 -3.0123  2.4440
19553WAT     H280018   1.503   0.702   0.236 -0.5830  1.0529 -0.9150
19553WAT    EPW80019   1.438   0.709   0.293 -0.0740 -0.1806 -0.1347
19554WAT      O80020  -1.180   2.887   8.444 -0.0051 -0.8218  0.5700
19554WAT     H180021  -1.237   2.917   8.372 -0.4688 -0.7197  0.9727
19554WAT     H280022  -1.094   2.877   8.403 -0.8598 -3.8115 -0.7657
19554WAT    EPW80023  -1.177   2.890   8.429 -0.1790 -1.2026  0.4473
19555WAT      O80024  -4.725   4.302   6.510 -0.6670 -0.2245 -0.2519
19555WAT     H180025  -4.813   4.268   6.524 -0.9238 -0.0565 -1.3235
19555WAT     H280026  -4.738   4.377   6.451  0.2200 -0.4397 -0.7361
19555WAT    EPW80027  -4.739   4.307   6.504 -0.5839 -0.2308 -0.4570
19556WAT      O80028   6.139   3.157   1.166 -0.6405  0.2741 -0.0162
19556WAT     H180029   6.221   3.178   1.211 -1.7930  0.2209  2.2450
19556WAT     H280030   6.120   3.067   1.191 -2.3168  0.8827  1.1027
19556WAT    EPW80031   6.147   3.148   1.175 -1.0135  0.3474  0.4296
19557WAT      O80032   1.603   3.159   8.025  0.4927 -0.0924 -0.1044
19557WAT     H180033   1.624   3.084   7.969  0.7753  0.1879 -0.3770
19557WAT     H280034   1.511   3.176   8.007  0.7228  0.3494 -0.9161
19557WAT    EPW80035   1.594   3.151   8.015  0.5604  0.0027 -0.2475
19558WAT      O80036   9.531   0.253   0.963  0.4769 -0.1081  0.4628
19558WAT     H180037   9.621   0.266   0.931  0.3971  0.4080  0.4412
19558WAT     H280038   9.498   0.342   0.977 -1.4907  0.0400 -3.5389
19558WAT    EPW80039   9.538   0.266   0.960  0.2069 -0.0205 -0.0679
19559WAT      O80040   2.265   8.400   8.025  0.2789 -0.2455  0.0495
19559WAT     H180041   2.318   8.329   7.987 -0.8385 -0.4301 -1.2316
19559WAT     H280042   2.256   8.375   8.117  1.1659 -0.9741 -0.0410
19559WAT    EPW80043   2.271   8.387   8.032  0.2484 -0.3657 -0.1311
19560WAT      O80044   2.111   0.179   5.212  0.4224 -0.4653 -0.1559
19560WAT     H180045   2.026   0.208   5.244  0.6036 -0.5143  0.3662
19560WAT     H280046   2.141   0.115   5.276  2.1391  1.5877  1.2391
19560WAT    EPW80047   2.104   0.175   5.224  0.6728 -0.2010  0.0968
19561WAT      O80048   3.243   0.858   8.485 -0.2563 -0.1034  0.2408
19561WAT     H180049   3.333   0.857   8.454 -1.1641 -0.2222 -2.6300
19561WAT     H280050   3.233   0.943   8.528  1.7884 -0.9944  2.7787
19561WAT    EPW80051   3.254   0.869   8.487 -0.1063 -0.2366  0.1969
19562WAT      O80052   1.799   9.072   8.531 -0.2957  0.0904  0.7045
19562WAT     H180053   1.876   9.018   8.546  0.2647  1.1763  1.9567
19562WAT     H280054   1.831   9.162   8.539 -1.2642  0.6288 -0.9804
19562WAT    EPW80055   1.813   9.077   8.534 -0.3495  0.3047  0.6475
19563WAT      O80056   6.119   4.366   3.055  0.1304 -0.2674  0.0866
19563WAT     H180057   6.081   4.370   3.143  1.7274 -2.1608  0.9284
19563WAT     H280058   6.212   4.352   3.069  0.4063 -0.8171 -1.9144
19563WAT    EPW80059   6.126   4.365   3.068  0.3774 -0.5894 -0.0663
19564WAT      O80060   4.510   8.914   0.087  0.0330 -0.3922 -0.3479
19564WAT     H180061   4.450   8.913   0.013  0.6551  0.5737 -0.8834
19564WAT     H280062   4.595   8.893   0.049 -0.0699 -2.8098  0.5505
19564WAT    EPW80063   4.513   8.911   0.073  0.1016 -0.5836 -0.3001
19565WAT      O80064  -5.472   8.098   6.969  0.5314  0.3288  0.2909
19565WAT     H180065  -5.506   8.177   7.013 -2.0617  0.7160 -2.1550
19565WAT     H280066  -5.515   8.026   7.015 -0.2732  0.5900 -0.0339
19565WAT    EPW80067  -5.482   8.099   6.981  0.0834  0.4144 -0.0746
19566WAT      O80068   2.767   3.011   3.295 -0.0646  0.2128 -0.3567
19566WAT     H180069   2.792   2.927   3.255 -1.2613  0.0381 -0.8002
19566WAT     H280070   2.698   3.044   3.237  1.7423  2.5189 -1.3512
19566WAT    EPW80071   2.761   3.004   3.282  0.0160  0.4938 -0.5463
19567WAT      O80072   3.231   9.204   1.999 -0.2002 -0.6341 -0.2609
19567WAT     H180073   3.137   9.191   2.011  0.1114 -1.8662  1.1497
19567WAT     H280074   3.256   9.267   2.066  0.1251 -0.9919 -0.0429
19567WAT    EPW80075   3.222   9.210   2.009 -0.1163 -0.8440 -0.0460
19568WAT      O80076   0.782   0.276   1.955 -0.2178 -0.0797  0.0382
19568WAT     H180077   0.758   0.359   1.995  0.6165 -0.0951  0.5962
19568WAT     H280078   0.810   0.300   1.866  3.0218  0.7275  1.1445
19568WAT    EPW80079   0.783   0.290   1.948  0.3195  0.0248  0.2577
19569WAT      O80080   0.737   9.242   4.997  0.0913  0.0654 -0.2543
19569WAT     H180081   0.679   9.308   5.034 -0.0734  0.1529 -0.6623
19569WAT     H280082   0.817   9.290   4.975 -1.0719  0.8220 -3.3385
19569WAT    EPW80083   0.740   9.257   4.999 -0.0838  0.1764 -0.7148
19570WAT      O80084  -0.231   7.348   0.133  0.3696  0.7555 -0.5272
19570WAT     H180085  -0.307   7.348   0.075 -1.1412  1.6063  1.3405
19570WAT     H280086  -0.200   7.258   0.133  0.3204  0.6935 -2.4653
19570WAT    EPW80087  -0.237   7.336   0.125  0.1639  0.8595 -0.5365
19571WAT      O80088   2.157   6.298   1.392  1.3652 -0.5330 -0.6058
19571WAT     H180089   2.226   6.234   1.409  3.8861  1.5268 -2.1959
19571WAT     H280090   2.202   6.383   1.400 -1.3099  0.9789 -0.5519
19571WAT    EPW80091   2.172   6.301   1.395  1.3449 -0.0620 -0.8084
19572WAT      O80092   2.283   0.952   7.084  0.3172 -0.2855 -0.1351
19572WAT     H180093   2.298   0.865   7.046  0.7265 -0.4818  0.4540
19572WAT     H280094   2.280   1.011   7.009 -1.3877 -0.9916 -0.6558
19572WAT    EPW80095   2.285   0.948   7.069  0.1463 -0.4045 -0.1261
19573WAT      O80096   0.703   6.151   4.970  0.0456  0.0107 -0.4466
19573WAT     H180097   0.699   6.235   5.015  1.8047  0.9771 -1.9670
19573WAT     H280098   0.723   6.088   5.039  2.0069  1.3459  0.2810
19573WAT    EPW80099   0.705   6.154   4.985  0.5363  0.3142 -0.5512
19574WAT      O80100  -4.004   3.438   6.705  0.0176 -0.1359 -0.2652
19574WAT     H180101  -4.064   3.491   6.757 -1.1553 -0.1859 -1.5088
19574WAT     H280102  -3.927   3.427   6.761 -2.2852 -2.8344  2.8354
19574WAT    EPW80103  -4.002   3.443   6.719 -0.4406 -0.4983 -0.0203
19575WAT      O80104   0.689   7.861   3.179 -0.6311 -0.0561  0.5361
19575WAT     H180105   0.705   7.767   3.168  0.9972  0.4473 -2.7343
19575WAT     H280106   0.639   7.886   3.101 -1.8012  1.6809  1.7717
19575WAT    EPW80107   0.685   7.852   3.167 -0.5707  0.2396  0.2676
19576WAT      O80108   2.633   9.199   3.713 -0.2568  0.0960  0.0555
19576WAT     H180109   2.629   9.203   3.809 -2.2558 -1.1209  0.0856
19576WAT     H280110   2.727   9.200   3.693  0.1961  1.9766  1.9137
19576WAT    EPW80111   2.645   9.200   3.723 -0.4607  0.1836  0.3046
19577WAT      O80112   4.481  10.286   0.873  0.0294  1.1268  0.7925
19577WAT     H180113   4.487  10.296   0.968 -0.5229 -0.1955  0.9905
19577WAT     H280114   4.404  10.338   0.849 -1.2963 -0.4500  1.4352
19577WAT    EPW80115   4.472  10.294   0.883 -0.2184  0.7443  0.9034
19578WAT      O80116   2.709   1.901   3.021 -0.2660  0.0029 -0.1935
19578WAT     H180117   2.733   1.841   2.951 -0.5743 -0.4522  0.0924
19578WAT     H280118   2.650   1.851   3.078 -0.9292  0.7276 -0.2234
19578WAT    EPW80119   2.705   1.887   3.019 -0.3941  0.0385 -0.1597
19579WAT      O80120   0.115   9.124   1.669  0.2079 -0.5637 -0.1756
19579WAT     H180121   0.036   9.084   1.633 -0.5979 -1.3567  2.3156
19579WAT     H280122   0.131   9.077   1.750  0.7212  2.4703  1.6203
19579WAT    EPW80123   0.107   9.112   1.675  0.1693 -0.2680  0.3899
19580WAT      O80124   6.774   2.384   3.099  0.0953 -0.3697  0.2361
19580WAT     H180125   6.778   2.466   3.050 -1.7032  0.2414  1.0181
19580WAT     H280126   6.716   2.328   3.048  1.1164 -1.0865 -0.1674
19580WAT    EPW80127   6.767   2.387   3.086 -0.0072 -0.3836  0.2860
19581WAT      O80128  -3.346   5.873   4.180 -0.3400  0.2030  0.2784
19581WAT     H180129  -3.255   5.900   4.171  0.4795 -1.8586  1.7350
19581WAT     H280130  -3.396   5.942   4.136  1.9906  0.4935 -2.1459
19581WAT    EPW80131  -3.341   5.886   4.173  0.0755 -0.0305  0.1509
19582WAT      O80132   2.001   3.094   1.181 -0.4378  0.3608 -0.1329
19582WAT     H180133   1.919   3.093   1.230 -0.3777  3.0326  0.1770
19582WAT     H280134   2.019   3.002   1.162 -2.5978 -0.4255  1.2678
19582WAT    EPW80135   1.993   3.082   1.185 -0.7147  0.6096  0.0926
19583WAT      O80136  -0.247   1.721   7.634  0.4336 -0.6919 -0.6556
19583WAT     H180137  -0.181   1.790   7.627 -0.7986  0.4433 -1.8647
19583WAT     H280138  -0.228   1.662   7.561  1.0546 -1.2699 -0.0442
19583WAT    EPW80139  -0.236   1.723   7.623  0.3530 -0.6184 -0.7346
19584WAT      O80140   5.493   6.100   1.325  0.4093 -0.1370  0.0152
19584WAT     H180141   5.496   6.174   1.265  1.5363  0.6635  1.0174
19584WAT     H280142   5.412   6.113   1.374  0.6814  0.5399  0.2993
19584WAT    EPW80143   5.483   6.112   1.323  0.5939  0.0579  0.1849
19585WAT      O80144  -2.093   6.075   7.432  0.1702 -0.4664 -0.3809
19585WAT     H180145  -2.035   6.030   7.372  1.5208  0.0344  0.5009
19585WAT     H280146  -2.132   6.145   7.381  0.3398 -0.8106 -0.9851
19585WAT    EPW80147  -2.091   6.078   7.418  0.3706 -0.4456 -0.3443
19586WAT      O80148   2.140   0.600   7.678  0.2739 -0.0300  0.4050
19586WAT     H180149   2.080   0.525   7.672  1.1997 -0.8605  1.0690
19586WAT     H280150   2.083   0.675   7.692 -0.7779 -0.3885 -1.5297
19586WAT    EPW80151   2.125   0.600   7.679  0.2573 -0.1868  0.2372
19587WAT      O80152   1.914   8.071   7.493 -0.1208 -0.2580 -0.1717
19587WAT     H180153   2.005   8.056   7.520 -0.0866 -0.0191 -0.1525
19587WAT     H280154   1.869   8.098   7.572  0.2061  1.4428 -0.5402
19587WAT    EPW80155   1.920   8.072   7.507 -0.0731 -0.0019 -0.2177
19588WAT      O80156  -2.854   0.273   8.465 -0.3519  0.5037 -0.9033
19588WAT     H180157  -2.852   0.231   8.379 -1.3742  0.4369 -0.9070
19588WAT     H280158  -2.806   0.212   8.522 -2.7795 -1.3653 -0.6542
19588WAT    EPW80159  -2.847   0.259   8.461 -0.8069  0.2484 -0.8712
19589WAT      O80160   1.612   1.144   4.180  0.1238  0.5803 -0.1762
19589WAT     H180161   1.576   1.213   4.236  1.4371  0.1519  1.2677
19589WAT     H280162   1.707   1.155   4.185  0.3616 -1.2008 -0.0465
19589WAT    EPW80163   1.620   1.155   4.188  0.3284  0.2889  0.0312
19590WAT      O80164   3.271   0.028   7.361  0.0916  0.4490  0.0866
19590WAT     H180165   3.317   0.088   7.419  0.3677  0.6066 -0.2927
19590WAT     H280166   3.338  -0.032   7.329 -0.2811 -0.4203  0.9006
19590WAT    EPW80167   3.286   0.028   7.364  0.0789  0.3551  0.1438
19591WAT      O80168   2.650   0.366   6.742 -0.1845  0.1077 -0.1045
19591WAT     H180169   2.617   0.291   6.792  3.7238 -1.1326  0.9829
19591WAT     H280170   2.627   0.442   6.796  0.3978 -0.8403  1.5759
19591WAT    EPW80171   2.642   0.366   6.756  0.4078 -0.1809  0.2604
19592WAT      O80172   7.081   2.168   0.261  0.0857  0.3369 -0.0188
19592WAT     H180173   7.115   2.134   0.344 -2.8059  0.7946  1.4734
19592WAT     H280174   7.089   2.263   0.269 -1.5272  0.4648  0.4306
19592WAT    EPW80175   7.087   2.176   0.273 -0.5085  0.4141  0.2373
19593WAT      O80176   6.887   4.989   2.882  0.1961 -0.1952  0.1535
19593WAT     H180177   6.839   5.048   2.824  1.0784  1.6766  1.2450
19593WAT     H280178   6.975   4.986   2.845  0.3486 -0.2508  0.5177
19593WAT    EPW80179   6.892   4.996   2.869  0.3326  0.0446  0.3455
19594WAT      O80180   3.415   7.806   6.722  0.1328  0.4236  1.4012
19594WAT     H180181   3.495   7.845   6.687  0.1527  0.0303  1.0016
19594WAT     H280182   3.446   7.739   6.783  0.1738 -1.5643 -0.7092
19594WAT    EPW80183   3.430   7.802   6.726  0.1409  0.1094  1.0703
19595WAT      O80184   1.832   7.738   4.915  0.2046  0.1332  0.5297
19595WAT     H180185   1.864   7.780   4.995  1.3522 -0.1785  0.2578
19595WAT     H280186   1.868   7.792   4.844 -1.2791  0.7449  0.2066
19595WAT    EPW80187   1.841   7.751   4.916  0.1603  0.1726  0.4511
19596WAT      O80188   0.621   5.589   7.367  0.9938 -0.1769 -0.0334
19596WAT     H180189   0.648   5.531   7.437 -0.4959 -0.4114  0.3900
19596WAT     H280190   0.549   5.640   7.405 -3.2766 -3.5715 -2.5629
19596WAT    EPW80191   0.615   5.588   7.381  0.2341 -0.6557 -0.3111
19597WAT      O80192   1.098   9.608   0.035  0.0607  0.4577 -0.4536
19597WAT     H180193   1.193   9.617   0.045  0.1028 -1.3633  1.3984
19597WAT     H280194   1.066   9.698   0.030  1.7505  1.1486  0.3777
19597WAT    EPW80195   1.106   9.621   0.035  0.2891  0.3090 -0.0997
19598WAT      O80196   0.049   1.953   0.338  0.1182  0.1203 -0.0814
19598WAT     H180197   0.043   2.026   0.276 -3.3909  0.2158  0.1672
19598WAT     H280198   0.129   1.970   0.388  0.7583  2.3759 -1.7131
19598WAT    EPW80199   0.058   1.965   0.336 -0.2602  0.4304 -0.2638
19599WAT      O80200  -0.913  10.075   7.857 -0.5894  0.5078  0.3179
19599WAT     H180201  -0.976  10.139   7.890 -0.0809  0.4047  1.5219
19599WAT     H280202  -0.872  10.118   7.782 -1.7678  0.7429 -0.2133
19599WAT    EPW80203  -0.916  10.089   7.851 -0.6778  0.5245  0.4065
19600WAT      O80204  -1.250   9.607   6.871  0.0708  0.0205 -0.5481
19600WAT     H180205  -1.155   9.602   6.864  0.2248  0.4256  1.0025
19600WAT     H280206  -1.271   9.557   6.950 -0.8433  1.3189  0.0546
19600WAT    EPW80207  -1.240   9.599   6.880 -0.0294  0.2451 -0.2642
19601WAT      O80208   8.196   0.817   1.035 -0.2426 -0.0150  0.4516
19601WAT     H180209   8.129   0.808   0.967  0.5845 -0.5605 -0.3052
19601WAT     H280210   8.209   0.728   1.068 -0.0073  0.1189  0.7232
19601WAT    EPW80211   8.189   0.804   1.031 -0.1025 -0.0693  0.3876
19602WAT      O80212   1.393   0.576   2.613 -0.4978 -0.3075 -0.0748
19602WAT     H180213   1.486   0.595   2.623 -0.3074 -0.9230 -0.6099
19602WAT     H280214   1.350   0.629   2.680 -0.1445  3.2080 -2.3223
19602WAT    EPW80215   1.400   0.586   2.623 -0.4261  0.0750 -0.4419
19603WAT      O80216  -3.317   1.252   8.636  0.1630 -0.2338 -0.5696
19603WAT     H180217  -3.288   1.316   8.702 -0.2138 -0.5908 -0.0443
19603WAT     H280218  -3.240   1.236   8.582  0.9569 -1.1253  0.7615
19603WAT    EPW80219  -3.303   1.258   8.638  0.2179 -0.3985 -0.3242
19604WAT      O80220  -4.063   9.957   1.072  0.5068  0.2887 -0.0292
19604WAT     H180221  -4.127  10.020   1.106  2.1386  1.9223  0.1617
19604WAT     H280222  -4.049   9.897   1.145  0.4066  0.8970  0.5006
19604WAT    EPW80223  -4.070   9.957   1.086  0.7088  0.5846  0.0659
19605WAT      O80224   5.791   4.268   1.965  0.6895 -0.1813  0.1643
19605WAT     H180225   5.841   4.347   1.944  1.6832 -0.2273  2.1598
19605WAT     H280226   5.735   4.255   1.888 -2.0781  4.4103  1.0015
19605WAT    EPW80227   5.790   4.277   1.952  0.4556  0.4182  0.5379
19606WAT      O80228   6.932   2.762   0.043  0.0944 -0.5692 -0.0037
19606WAT     H180229   6.912   2.679   0.086 -5.0581  0.6978  0.7036
19606WAT     H280230   6.970   2.816   0.112 -1.0041 -0.9123  0.9051
19606WAT    EPW80231   6.935   2.758   0.058 -0.7300 -0.4474  0.2094
19607WAT      O80232  -4.054   7.836   8.657 -0.7200 -0.4516 -0.0141
19607WAT     H180233  -4.119   7.898   8.690  0.3815  0.9643 -0.4048
19607WAT     H280234  -4.105   7.774   8.605 -1.9087 -0.1543  0.7489
19607WAT    EPW80235  -4.069   7.836   8.655 -0.7315 -0.2258  0.0353
19608WAT      O80236  -1.161   4.472   4.595 -0.7240 -0.6370  0.1271
19608WAT     H180237  -1.182   4.499   4.505 -0.2437 -0.6439  0.0108
19608WAT     H280238  -1.175   4.377   4.595 -1.4087 -0.5412  0.2551
19608WAT    EPW80239  -1.165   4.463   4.583 -0.7509 -0.6251  0.1285
19609WAT      O80240   8.077   6.518   0.259 -0.0326 -0.5744  0.0222
19609WAT     H180241   8.002   6.516   0.199 -1.3765 -0.0668  1.6021
19609WAT     H280242   8.113   6.606   0.249 -0.1987 -0.5203 -0.1011
19609WAT    EPW80243   8.072   6.529   0.250 -0.2317 -0.5004  0.2143
19610WAT      O80244   2.759   3.671   2.843 -0.1679  0.0566  0.1280
19610WAT     H180245   2.784   3.741   2.902  0.0947  1.3999 -1.4803
19610WAT     H280246   2.840   3.645   2.799 -0.5744  0.1782 -0.7337
19610WAT    EPW80247   2.773   3.677   2.845 -0.1868  0.2497 -0.1978
19611WAT      O80248   3.076   9.961   1.237  0.1698  0.4090  0.4372
19611WAT     H180249   3.034   9.926   1.316 -0.3184  1.5508  0.6955
19611WAT     H280250   3.003   9.992   1.184  0.5573  0.3988 -0.1048
19611WAT    EPW80251   3.061   9.960   1.240  0.1565  0.5584  0.3998
19612WAT      O80252  -2.750   5.930   1.176  0.1859 -0.1083  0.4713
19612WAT     H180253  -2.704   5.897   1.253 -1.1830  0.3798  1.5449
19612WAT     H280254  -2.711   6.017   1.161  0.0932  0.0236  0.9636
19612WAT    EPW80255  -2.739   5.937   1.185 -0.0069 -0.0267  0.6779
19613WAT      O80256  -4.661   4.680   8.760 -0.3084  0.5166 -0.1347
19613WAT     H180257  -4.579   4.687   8.810 -0.8977 -2.4452  1.4542
19613WAT     H280258  -4.728   4.711   8.820 -0.7222 -0.5089 -0.0493
19613WAT    EPW80259  -4.659   4.685   8.775 -0.4406 -0.0093  0.0858
19614WAT      O80260   5.474   7.851   0.712 -0.3274  0.2460  0.3535
19614WAT     H180261   5.419   7.785   0.754  0.1867  0.4448  1.3529
19614WAT     H280262   5.412   7.910   0.668 -0.7883 -1.0143 -0.7649
19614WAT    EPW80263   5.458   7.850   0.712 -0.3202  0.1061  0.3378
19615WAT      O80264   4.387   4.384   2.502  0.8238 -0.4343  0.2434
19615WAT     H180265   4.319   4.378   2.435  1.2237 -1.9500 -0.0763
19615WAT     H280266   4.455   4.324   2.472  1.9594  0.4584  0.9604
19615WAT    EPW80267   4.387   4.375   2.489  1.0264 -0.5164  0.2958
19616WAT      O80268   2.596   4.615   1.354  0.6927  0.0985  0.1316
19616WAT     H180269   2.659   4.544   1.366 -0.6346 -1.0016  0.8754
19616WAT     H280270   2.511   4.575   1.370 -0.4216  1.1061 -2.6012
19616WAT    EPW80271   2.593   4.601   1.358  0.3706  0.0865 -0.1307
19617WAT      O80272   5.010   3.472   1.149 -1.2073 -0.3422 -0.3441
19617WAT     H180273   5.041   3.524   1.223 -0.8070 -0.3622 -0.4898
19617WAT     H280274   4.927   3.512   1.124 -0.2235  1.1705 -1.3732
19617WAT    EPW80275   5.003   3.484   1.155 -1.0250 -0.1452 -0.4991
19618WAT      O80276   7.409   1.574   4.230 -0.1110 -0.0235  0.5668
19618WAT     H180277   7.432   1.484   4.252  1.6112  0.3097  0.2142
19618WAT     H280278   7.462   1.628   4.288 -2.2010  0.8086  1.8267
19618WAT    EPW80279   7.419   1.569   4.241 -0.1593  0.1302  0.6864
19619WAT      O80280   4.590   5.695   3.921 -0.5555  0.5044  0.4916
19619WAT     H180281   4.525   5.759   3.893 -2.7141 -1.8128 -0.0729
19619WAT     H280282   4.652   5.690   3.848 -1.2108  0.8401 -0.0989
19619WAT    EPW80283   4.590   5.703   3.908 -0.9265  0.2432  0.3394
19620WAT      O80284   5.001   9.097   1.014  0.9308  0.3416 -0.8004
19620WAT     H180285   5.039   9.147   0.942 -0.7349  0.0669 -1.9126
19620WAT     H280286   4.907   9.095   0.996  0.8706 -3.2591 -0.9186
19620WAT    EPW80287   4.994   9.103   1.002  0.7031 -0.1698 -0.9627
19621WAT      O80288  -3.609   7.040   2.715  0.2313 -0.1397  0.5783
19621WAT     H180289  -3.696   7.055   2.754  1.2113  3.2747  1.7950
19621WAT     H280290  -3.566   6.981   2.777  0.2355  1.7212  2.4560
19621WAT    EPW80291  -3.615   7.034   2.728  0.3611  0.5560  0.9866
19622WAT      O80292   2.907   3.177   6.901  0.1908 -0.2889  0.2778
19622WAT     H180293   2.872   3.090   6.878 -1.6793  0.8612 -1.6129
19622WAT     H280294   2.865   3.198   6.985 -0.7972 -0.4952 -0.1428
19622WAT    EPW80295   2.897   3.168   6.909 -0.1862 -0.1645 -0.0269
19623WAT      O80296  -0.041   5.780   3.465  0.6412  1.1297  0.1854
19623WAT     H180297   0.000   5.750   3.384  1.3285  0.4355  0.7839
19623WAT     H280298   0.012   5.742   3.535 -0.1626  1.4162  0.9704
19623WAT    EPW80299  -0.028   5.771   3.464  0.6258  1.0757  0.3680
19624WAT      O80300  -2.229   7.260   2.191  0.2035  0.0013 -0.2247
19624WAT     H180301  -2.186   7.326   2.247  1.3748 -0.6202 -0.3550
19624WAT     H280302  -2.302   7.307   2.150  1.5869  1.5256 -1.0770
19624WAT    EPW80303  -2.233   7.275   2.193  0.5405  0.1202 -0.3543
19625WAT      O80304   0.804   1.857   2.948 -0.0540 -0.3338 -0.2910
19625WAT     H180305   0.744   1.845   2.874 -0.9093 -1.0231  0.4824
19625WAT     H280306   0.746   1.866   3.024  0.8152 -1.4207  0.5321
19625WAT    EPW80307   0.788   1.856   2.948 -0.0522 -0.5680 -0.0803
19626WAT      O80308   6.284   4.050   1.323 -0.2701 -0.0955 -0.5707
19626WAT     H180309   6.364   4.078   1.368 -0.9013  2.3209 -0.8455
19626WAT     H280310   6.303   4.061   1.230  0.5860 -3.8813 -0.9984
19626WAT    EPW80311   6.297   4.055   1.317 -0.2406 -0.2761 -0.6633
19627WAT      O80312  -0.020   7.704   5.130 -0.3630 -0.3899  0.0770
19627WAT     H180313   0.019   7.637   5.186 -1.3532 -1.2108 -0.1719
19627WAT     H280314   0.046   7.773   5.125  0.9232 -1.5916 -0.1223
19627WAT    EPW80315  -0.006   7.705   5.137 -0.3240 -0.6568  0.0179
19628WAT      O80316   1.082   9.603   3.512 -0.4578 -0.0521  0.1702
19628WAT     H180317   1.030   9.625   3.434 -0.4185 -1.7970 -0.3794
19628WAT     H280318   1.167   9.577   3.478 -1.2659 -3.6078  0.4278
19628WAT    EPW80319   1.086   9.602   3.497 -0.5592 -0.7510  0.1317
19629WAT      O80320  -2.150  10.229   2.911  0.1319 -0.0310  0.0690
19629WAT     H180321  -2.188  10.310   2.877 -0.5351 -0.4818 -0.2787
19629WAT     H280322  -2.087  10.202   2.845  1.7141  1.1470  1.0129
19629WAT    EPW80323  -2.146  10.236   2.898  0.2526  0.0648  0.1477
19630WAT      O80324   1.511  10.341   4.501  0.2619  0.0136 -0.4596
19630WAT     H180325   1.448  10.350   4.573  0.7836 -0.4093  0.0585
19630WAT     H280326   1.476  10.398   4.432 -0.7589 -0.3077 -0.2354
19630WAT    EPW80327   1.498  10.350   4.501  0.1960 -0.0844 -0.3617
19631WAT      O80328   6.558   4.420   3.499  0.7751 -0.5037  0.3010
19631WAT     H180329   6.468   4.446   3.479  1.1388 -0.6328 -1.6949
19631WAT     H280330   6.572   4.449   3.589 -2.1469 -2.8897  1.6667
19631WAT    EPW80331   6.548   4.427   3.508  0.4377 -0.8357  0.2178
19632WAT      O80332  -4.934   9.522   8.847 -0.2588  0.7854 -0.4584
19632WAT     H180333  -4.976   9.437   8.859 -1.2936  1.1223 -1.5007
19632WAT     H280334  -4.874   9.509   8.773  4.4490 -0.6984  3.1411
19632WAT    EPW80335  -4.932   9.509   8.839  0.2255  0.6337 -0.1216
19633WAT      O80336   5.261   1.462   6.527  0.3821  0.0347 -0.9849
19633WAT     H180337   5.355   1.468   6.545  0.4471  0.6469 -1.4913
19633WAT     H280338   5.254   1.480   6.433 -0.2282 -0.1395 -0.9717
19633WAT    EPW80339   5.273   1.465   6.517  0.3099  0.0924 -1.0500
19634WAT      O80340  -0.508   3.621   1.551 -0.2870 -0.0782 -0.3596
19634WAT     H180341  -0.493   3.551   1.614 -2.0926 -1.6083 -1.5241
19634WAT     H280342  -0.551   3.690   1.601  1.2714  0.1668  0.7373
19634WAT    EPW80343  -0.511   3.621   1.565 -0.3196 -0.2477 -0.3685
19635WAT      O80344  -7.270   9.520   6.687 -0.0393 -0.5371 -0.4500
19635WAT     H180345  -7.249   9.482   6.602  2.3723 -2.2368  0.7984
19635WAT     H280346  -7.238   9.610   6.682  0.0338 -0.6079 -1.3201
19635WAT    EPW80347  -7.263   9.527   6.676  0.2885 -0.7701 -0.4001
19636WAT      O80348  -6.740   8.310   9.002 -0.2329  0.2376 -0.2997
19636WAT     H180349  -6.779   8.282   8.919  0.2475 -1.3663 -0.0192
19636WAT     H280350  -6.691   8.390   8.980 -1.3076  0.6572 -1.2349
19636WAT    EPW80351  -6.738   8.317   8.988 -0.3113  0.0814 -0.3861
19637WAT      O80352   8.211   1.209   3.435  0.0784  0.0142  0.3306
19637WAT     H180353   8.126   1.216   3.478 -0.1626  2.2342 -0.4028
19637WAT     H280354   8.250   1.129   3.472 -1.4259  0.0959  2.2377
19637WAT    EPW80355   8.205   1.199   3.446 -0.1521  0.3178  0.4854
19638WAT      O80356  -3.204   7.597   8.508 -0.1374  0.5107  0.2938
19638WAT     H180357  -3.233   7.651   8.581 -0.7023 -0.2236  0.6336
19638WAT     H280358  -3.110   7.588   8.520 -0.1343  0.9179  0.5794
19638WAT    EPW80359  -3.196   7.603   8.519 -0.2115  0.4675  0.3762
19639WAT      O80360   4.609   0.826   1.475  0.5564 -0.2166  0.7823
19639WAT     H180361   4.704   0.828   1.487  0.4555 -0.6030  1.7423
19639WAT     H280362   4.579   0.910   1.508  0.2455 -1.4085  3.8143
19639WAT    EPW80363   4.618   0.837   1.481  0.5019 -0.4248  1.3089
19640WAT      O80364   3.895   7.373   2.068  0.0084  0.1095  0.6085
19640WAT     H180365   3.809   7.335   2.087  0.4413  0.4989  4.0767
19640WAT     H280366   3.881   7.467   2.075  0.3235  0.2982 -1.0140
19640WAT    EPW80367   3.882   7.380   2.071  0.1072  0.1857  0.8520
19641WAT      O80368   4.026   2.537   7.877 -0.2984 -0.4714  0.1741
19641WAT     H180369   3.986   2.615   7.839 -0.7980 -1.0239 -0.4385
19641WAT     H280370   3.973   2.464   7.845  0.5845 -1.1281  0.1749
19641WAT    EPW80371   4.014   2.538   7.868 -0.2480 -0.6310  0.0935
19642WAT      O80372   0.311   9.726   0.472 -0.1074  0.7962  0.1046
19642WAT     H180373   0.403   9.705   0.455 -0.8545 -1.6107 -1.4904
19642WAT     H280374   0.275   9.746   0.386 -1.3743  0.3570  0.5063
19642WAT    EPW80375   0.318   9.726   0.458 -0.3730  0.4210 -0.0528
19643WAT      O80376  -0.263   1.144   3.384 -0.2971 -0.7625  0.1343
19643WAT     H180377  -0.293   1.210   3.446  0.1675  0.8053 -1.2436
19643WAT     H280378  -0.240   1.069   3.438  0.5682  0.7192  1.9135
19643WAT    EPW80379  -0.264   1.143   3.399 -0.1217 -0.3603  0.1873
19644WAT      O80380   0.308   5.472   2.878 -0.2803  0.0472 -0.3644
19644WAT     H180381   0.299   5.454   2.784 -0.5638 -0.0993 -0.3096
19644WAT     H280382   0.388   5.427   2.904 -1.0867 -1.3369 -0.1777
19644WAT    EPW80383   0.317   5.464   2.869 -0.4240 -0.1545 -0.3326
19645WAT      O80384  -0.804   2.997   8.619 -0.3973  0.3454  0.3820
19645WAT     H180385  -0.777   3.023   8.532 -2.2125  0.7873 -0.0857
19645WAT     H280386  -0.796   2.902   8.619  0.2606  0.3973 -0.0281
19645WAT    EPW80387  -0.799   2.988   8.608 -0.5499  0.4106  0.2666
19646WAT      O80388   2.314   6.047   1.175  0.1260 -0.3204  0.0479
19646WAT     H180389   2.282   6.122   1.125  0.9330  0.9329  1.3385
19646WAT     H280390   2.235   5.995   1.193 -0.6226  0.7424 -0.0330
19646WAT    EPW80391   2.299   6.050   1.171  0.1338 -0.0148  0.2075
19647WAT      O80392   1.813  10.110   5.585  0.1154 -0.0294 -0.1337
19647WAT     H180393   1.788  10.042   5.523 -2.6186  2.0281 -1.4850
19647WAT     H280394   1.854  10.178   5.531 -1.8011  1.5543  0.3067
19647WAT    EPW80395   1.815  10.110   5.570 -0.4979  0.4506 -0.2539
19648WAT      O80396   8.100   4.074   1.762 -0.4785  0.3483  0.7895
19648WAT     H180397   8.004   4.070   1.756 -0.3742 -2.1393 -0.6832
19648WAT     H280398   8.129   3.984   1.746  2.1574  1.2423  0.0011
19648WAT    EPW80399   8.091   4.062   1.759 -0.1173  0.1383  0.4913
19649WAT      O80400   1.712   8.833   7.053 -0.2899  0.1625 -0.7037
19649WAT     H180401   1.630   8.862   7.014 -0.1476  1.2712 -0.2461
19649WAT     H280402   1.730   8.899   7.121  0.0640 -1.0352  0.4153
19649WAT    EPW80403   1.704   8.846   7.057 -0.2245  0.1512 -0.4957
19650WAT      O80404   2.646   3.293   5.080 -0.4989  1.1870  0.3774
19650WAT     H180405   2.606   3.238   5.147  2.0621  0.4105  1.3629
19650WAT     H280406   2.688   3.364   5.128  1.5445  0.5152 -0.3162
19650WAT    EPW80407   2.646   3.295   5.095  0.1085  0.9960  0.4156
19651WAT      O80408   9.001   0.674   0.272 -0.8329 -0.4796  0.0682
19651WAT     H180409   8.919   0.650   0.315 -0.0487  0.0763  1.9716
19651WAT     H280410   9.068   0.626   0.319  0.2324  1.4538  0.6433
19651WAT    EPW80411   8.999   0.665   0.284 -0.5889 -0.1512  0.3951
19652WAT      O80412   0.675   2.157   7.783 -0.1404  0.2507  0.0442
19652WAT     H180413   0.746   2.196   7.834  0.0197 -0.1851  0.1616
19652WAT     H280414   0.595   2.189   7.823 -0.0232 -0.4624  0.8768
19652WAT    EPW80415   0.674   2.166   7.795 -0.1038  0.0991  0.1693
19653WAT      O80416   7.210   2.156   3.117 -0.1950  0.0918  0.3546
19653WAT     H180417   7.179   2.105   3.042  0.5803 -0.2236  0.2344
19653WAT     H280418   7.171   2.114   3.193 -0.5186  0.0536  0.1692
19653WAT    EPW80419   7.201   2.144   3.117 -0.1354  0.0452  0.3142
19654WAT      O80420  -0.825   4.516   7.127 -0.8971 -0.3226 -0.1073
19654WAT     H180421  -0.881   4.552   7.058  1.1501  0.6626 -1.3860
19654WAT     H280422  -0.746   4.488   7.081  1.2659  1.8705  1.9256
19654WAT    EPW80423  -0.822   4.517   7.112 -0.3418  0.0966 -0.0079
19655WAT      O80424  -0.966   7.045   5.169  0.1052 -0.9047  0.1274
19655WAT     H180425  -0.919   7.105   5.110  1.2826 -1.3140  0.6328
19655WAT     H280426  -0.897   7.002   5.219 -0.6600 -3.1707 -0.6632
19655WAT    EPW80427  -0.951   7.047   5.168  0.1596 -1.2577  0.0899
19656WAT      O80428   0.450   3.983   8.397  0.7312 -0.4515  0.4795
19656WAT     H180429   0.521   3.919   8.406  0.9749 -0.0306  1.7018
19656WAT     H280430   0.430   3.982   8.303  0.2463 -2.8221  0.5317
19656WAT    EPW80431   0.457   3.974   8.386  0.6994 -0.7086  0.6475
19657WAT      O80432  -3.430   1.664   7.902  0.2433 -0.6656  0.1734
19657WAT     H180433  -3.384   1.737   7.942 -2.1545 -0.3789  2.7260
19657WAT     H280434  -3.369   1.591   7.908  1.9597  0.6268 -0.6807
19657WAT    EPW80435  -3.416   1.664   7.908  0.1534 -0.4573  0.3974
19658WAT      O80436   3.549   5.070   6.170 -0.3538 -0.5867  0.0760
19658WAT     H180437   3.556   4.998   6.233 -0.1187 -0.5480  0.0930
19658WAT     H280438   3.477   5.123   6.204  0.4907  0.0384  0.9290
19658WAT    EPW80439   3.540   5.067   6.183 -0.2114 -0.4990  0.1907
19659WAT      O80440   4.557   3.829   6.773 -0.2663 -0.4111 -0.1697
19659WAT     H180441   4.466   3.840   6.747 -0.2669 -0.2261 -0.0929
19659WAT     H280442   4.593   3.766   6.710 -0.0350  0.6695 -1.1435
19659WAT    EPW80443   4.550   3.822   6.762 -0.2360 -0.2441 -0.2878
19660WAT      O80444   2.100   5.947   8.159 -0.2129  0.5720  0.0499
19660WAT     H180445   2.077   5.971   8.249  1.2780 -2.4031  1.3701
19660WAT     H280446   2.194   5.964   8.153 -0.2136  0.3174 -0.8015
19660WAT    EPW80447   2.109   5.952   8.171 -0.0163  0.1459  0.1116
19661WAT      O80448  -0.905   0.837   6.556 -0.1928  0.4320  0.1866
19661WAT     H180449  -0.846   0.898   6.512 -0.0014  1.4427  1.7703
19661WAT     H280450  -0.975   0.822   6.493  0.0794  1.7884 -0.4838
19661WAT    EPW80451  -0.906   0.843   6.542 -0.1316  0.7442  0.3071
19662WAT      O80452  -3.258   9.507   0.388  0.2402 -0.3086  0.0385
19662WAT     H180453  -3.314   9.583   0.405 -0.5999 -0.5593 -1.4841
19662WAT     H280454  -3.279   9.446   0.458 -2.5279 -0.9838 -1.2458
19662WAT    EPW80455  -3.268   9.509   0.400 -0.2357 -0.4306 -0.3317
19663WAT      O80456   0.244   0.275   1.172  0.2459  0.3407  0.2725
19663WAT     H180457   0.270   0.212   1.240 -1.5128  0.2603  0.9309
19663WAT     H280458   0.275   0.236   1.091  2.9430  0.7262  1.0213
19663WAT    EPW80459   0.251   0.261   1.171  0.3697  0.3809  0.4581
19664WAT      O80460  -1.093   2.662   1.065 -0.2663  0.0339 -0.6657
19664WAT     H180461  -1.077   2.725   0.995  0.3041 -0.4980 -1.0299
19664WAT     H280462  -1.165   2.607   1.032  1.4705 -1.6638 -1.8819
19664WAT    EPW80463  -1.100   2.663   1.051  0.0380 -0.2601 -0.8742
19665WAT      O80464   5.961   5.199   2.462  0.2960  0.3993 -0.0336
19665WAT     H180465   5.996   5.110   2.457 -2.1166 -0.5616 -1.3214
19665WAT     H280466   5.905   5.198   2.540 -2.4079 -0.3610 -1.8456
19665WAT    EPW80467   5.958   5.187   2.472 -0.3786  0.1724 -0.4424
19666WAT      O80468   5.095   0.189   0.562 -0.3134 -0.0243  0.2174
19666WAT     H180469   5.059   0.270   0.526  0.0096 -0.1545 -0.4184
19666WAT     H280470   5.089   0.200   0.657 -0.7976  0.5029  0.1329
19666WAT    EPW80471   5.090   0.201   0.570 -0.3347  0.0281  0.1224
19667WAT      O80472   4.628   3.301   6.815 -0.2281  0.7720  0.2626
19667WAT     H180473   4.549   3.278   6.766  0.3630 -1.1336  0.1149
19667WAT     H280474   4.617   3.393   6.837 -2.3438  0.6212 -0.0104
19667WAT    EPW80475   4.616   3.310   6.811 -0.4292  0.5007  0.2072
19668WAT      O80476  -3.660   1.786   7.116  0.2363 -0.2505 -0.2089
19668WAT     H180477  -3.622   1.868   7.084 -0.9450  0.3246 -0.1920
19668WAT     H280478  -3.628   1.719   7.055 -0.9193  0.6256 -1.8588
19668WAT    EPW80479  -3.651   1.788   7.104 -0.0719 -0.0591 -0.4241
19669WAT      O80480   8.352   6.464   0.355  0.3014 -0.4508  0.1852
19669WAT     H180481   8.269   6.454   0.308 -0.1384 -0.0639  0.8428
19669WAT     H280482   8.419   6.464   0.287 -0.4317  1.8996 -0.6533
19669WAT    EPW80483   8.350   6.463   0.340  0.1464 -0.0896  0.1613
19670WAT      O80484   0.752   7.732   4.822 -0.1612  0.0819 -0.1499
19670WAT     H180485   0.658   7.724   4.841 -0.1211  0.1942  0.0939
19670WAT     H280486   0.760   7.701   4.731 -0.4126 -0.0593 -0.1257
19670WAT    EPW80487   0.741   7.727   4.812 -0.1891  0.0782 -0.1147
19671WAT      O80488   3.712   5.161   3.806  0.2912  0.5361  0.6436
19671WAT     H180489   3.627   5.118   3.804  1.7746 -2.7159 -1.5800
19671WAT     H280490   3.772   5.094   3.839  2.2981  2.0393  0.2610
19671WAT    EPW80491   3.709   5.146   3.810  0.7516  0.3054  0.2999
19672WAT      O80492   3.768   0.109   2.777  0.5209  0.3788 -0.3698
19672WAT     H180493   3.768   0.037   2.713  0.1251 -0.5319  0.6139
19672WAT     H280494   3.809   0.071   2.855 -4.0018 -0.4649  1.8982
19672WAT    EPW80495   3.774   0.094   2.779 -0.1278  0.1474  0.0590
19673WAT      O80496  -0.007   8.935   1.980  0.9299 -0.0669 -0.1843
19673WAT     H180497   0.085   8.925   1.953  0.5993  0.8698 -1.7980
19673WAT     H280498  -0.002   8.989   2.059  1.7370  0.5009 -0.6058
19673WAT    EPW80499   0.006   8.941   1.987  0.9927  0.1316 -0.4528
19674WAT      O80500   1.541   2.743   6.533  0.3077 -0.4179 -0.8878
19674WAT     H180501   1.553   2.823   6.482 -1.4315 -0.0132 -0.7307
19674WAT     H280502   1.471   2.765   6.595  3.4606 -0.2920  2.9911
19674WAT    EPW80503   1.533   2.756   6.535  0.4942 -0.3480 -0.3555
19675WAT      O80504   0.086   7.875   7.016 -0.0897  0.2829  0.0637
19675WAT     H180505   0.135   7.793   7.024  0.1717  0.2733 -1.3596
19675WAT     H280506  -0.005   7.850   7.031 -0.5829 -1.1003 -3.8652
19675WAT    EPW80507   0.081   7.861   7.019 -0.1203  0.0992 -0.6423
19676WAT      O80508   3.997   1.947   8.093 -0.0426  0.1985  0.0158
19676WAT     H180509   4.090   1.930   8.111  0.4755 -1.1401 -3.2585
19676WAT     H280510   3.955   1.862   8.105 -0.5317  0.3985 -0.2979
19676WAT    EPW80511   4.004   1.934   8.097 -0.0386  0.0484 -0.4573
19677WAT      O80512  -2.997   7.377   3.163 -0.3368 -0.1286 -0.3075
19677WAT     H180513  -3.029   7.287   3.168 -1.1175  0.0864 -1.0617
19677WAT     H280514  -3.061   7.422   3.107 -0.4549  1.1171  0.7817
19677WAT    EPW80515  -3.010   7.371   3.156 -0.4554  0.0641 -0.2633
19678WAT      O80516  -2.368   7.719   3.002  0.1748 -0.2414 -1.6507
19678WAT     H180517  -2.412   7.635   2.989 -1.0166  0.0657  0.0410
19678WAT     H280518  -2.276   7.697   3.016 -0.2957 -1.4141 -0.0995
19678WAT    EPW80519  -2.362   7.705   3.002 -0.0445 -0.3555 -1.2231
19679WAT      O80520   7.107   0.142   0.947 -0.9258  0.4726 -0.0073
19679WAT     H180521   7.110   0.112   1.038  0.6150  3.2752  0.9692
19679WAT     H280522   7.020   0.114   0.917 -0.3531 -3.2410  1.2106
19679WAT    EPW80523   7.096   0.134   0.955 -0.6471  0.3524  0.2821
19680WAT      O80524  -0.750   2.230   1.697 -0.1972  0.5890  0.2829
19680WAT     H180525  -0.815   2.297   1.718  0.6945  1.5765 -0.0676
19680WAT     H280526  -0.676   2.249   1.754  0.3365  0.3294 -0.3125
19680WAT    EPW80527  -0.749   2.241   1.707 -0.0092  0.6851  0.1582
19681WAT      O80528   1.224   5.011   7.252 -0.2471  0.0197 -0.1082
19681WAT     H180529   1.216   5.106   7.251 -1.3212 -0.0461  0.6367
19681WAT     H280530   1.218   4.985   7.160  0.0466  0.6610 -0.3125
19681WAT    EPW80531   1.223   5.020   7.240 -0.3501  0.0954 -0.0370
19682WAT      O80532  -5.846   9.629   4.790 -0.0418 -0.9630  0.2776
19682WAT     H180533  -5.856   9.673   4.875  2.2621  0.7201 -0.2348
19682WAT     H280534  -5.882   9.692   4.727 -0.4627 -1.6033 -0.1291
19682WAT    EPW80535  -5.852   9.643   4.793  0.2067 -0.8254  0.1564
19683WAT      O80536   0.223   4.676   4.853 -0.4353 -0.1879 -0.2081
19683WAT     H180537   0.194   4.587   4.832 -1.2247  0.2382 -1.0417
19683WAT     H280538   0.249   4.673   4.945  1.3310 -1.7100 -0.7104
19683WAT    EPW80539   0.223   4.664   4.862 -0.3064 -0.3326 -0.3843
19684WAT      O80540   1.981   0.044   4.582 -0.0332 -0.2803 -0.8778
19684WAT     H180541   1.975  -0.051   4.581  1.9366 -0.4615 -0.2884
19684WAT     H280542   1.992   0.066   4.675 -2.2873  0.7053 -0.7837
19684WAT    EPW80543   1.982   0.035   4.594 -0.0707 -0.1742 -0.7875
19685WAT      O80544   0.018   9.518   6.389  0.3356 -0.3844  0.0318
19685WAT     H180545   0.047   9.541   6.301  1.5398 -0.2173  0.4542
19685WAT     H280546  -0.045   9.586   6.413  1.7160  0.9039  0.1633
19685WAT    EPW80547   0.014   9.530   6.381  0.6765 -0.1926  0.1051
19686WAT      O80548   1.218   3.203   5.582  0.0892 -0.5035 -0.0414
19686WAT     H180549   1.248   3.117   5.612 -1.5960 -0.9218  0.5730
19686WAT     H280550   1.166   3.184   5.504 -1.8944 -0.3226  1.1649
19686WAT    EPW80551   1.215   3.189   5.576 -0.3947 -0.5349  0.1986
19687WAT      O80552   2.140   5.622   1.395  0.2044  0.4508 -0.3137
19687WAT     H180553   2.223   5.653   1.430  1.2586  0.6824 -2.8469
19687WAT     H280554   2.076   5.643   1.464  2.4240 -1.7154  2.7007
19687WAT    EPW80555   2.142   5.629   1.409  0.6362  0.1955 -0.2503
19688WAT      O80556   2.933   4.296   5.339  0.3151  0.4169  0.1220
19688WAT     H180557   2.988   4.346   5.399  0.7020  1.5638 -1.1574
19688WAT     H280558   2.874   4.247   5.397  0.6527  1.5070  1.4404
19688WAT    EPW80559   2.932   4.296   5.355  0.4107  0.7119  0.1271
19689WAT      O80560   9.423   2.154   1.291  0.3692 -0.1608  0.0152
19689WAT     H180561   9.424   2.132   1.384  0.5581 -0.6940 -0.1130
19689WAT     H280562   9.448   2.073   1.246 -0.3393 -0.0856 -0.5383
19689WAT    EPW80563   9.426   2.141   1.297  0.3004 -0.2213 -0.0747
19690WAT      O80564   4.187   3.105   6.486 -0.3279  0.5958 -0.2891
19690WAT     H180565   4.142   3.177   6.443 -1.0263 -1.4842 -3.4042
19690WAT     H280566   4.280   3.119   6.466 -0.2114  1.6456  0.8815
19690WAT    EPW80567   4.194   3.116   6.477 -0.4046  0.4600 -0.5457
19691WAT      O80568  -1.953   1.475   6.987  0.5506 -0.1434  0.2652
19691WAT     H180569  -2.028   1.522   6.951 -0.8835  0.2104  3.4130
19691WAT     H280570  -1.909   1.538   7.043  1.5746 -1.1622  0.6626
19691WAT    EPW80571  -1.957   1.489   6.989  0.4966 -0.2311  0.7327
19692WAT      O80572   4.591   6.313   3.068  0.6132  0.2749 -0.0853
19692WAT     H180573   4.632   6.400   3.072  1.7548 -0.2843  0.5841
19692WAT     H280574   4.648   6.257   3.120 -0.7840 -0.6238  0.5365
19692WAT    EPW80575   4.604   6.317   3.076  0.5796  0.0825  0.0851
19693WAT      O80576   2.420   4.678   4.784  0.1232  0.5128 -0.1834
19693WAT     H180577   2.450   4.721   4.705 -1.2676  1.8328 -0.0482
19693WAT     H280578   2.494   4.682   4.844  0.8627  0.3750 -1.0810
19693WAT    EPW80579   2.433   4.684   4.782  0.0372  0.6688 -0.2840
19694WAT      O80580  -0.123   8.977   6.683 -0.2804  0.6947 -0.7866
19694WAT     H180581  -0.131   8.992   6.777  1.5402 -3.3031  0.1964
19694WAT     H280582  -0.200   8.926   6.660  0.1848  0.0652 -0.9962
19694WAT    EPW80583  -0.134   8.972   6.692  0.0211  0.0844 -0.6845
19695WAT      O80584  -0.208   9.981   4.933  0.4476 -0.2562 -0.4643
19695WAT     H180585  -0.165  10.018   5.010  0.8814  1.6283 -1.5651
19695WAT     H280586  -0.139   9.974   4.867 -0.0358 -1.3204 -0.8948
19695WAT    EPW80587  -0.193   9.985   4.934  0.4410 -0.1478 -0.6664
19696WAT      O80588  -1.621   6.063   0.622 -0.1262  0.7754 -0.3839
19696WAT     H180589  -1.701   6.067   0.570 -0.2816 -0.7913 -0.3024
19696WAT     H280590  -1.651   6.042   0.710  0.3841  0.1088 -0.3654
19696WAT    EPW80591  -1.635   6.061   0.627 -0.0793  0.4809 -0.3707
19697WAT      O80592   1.067   8.874   4.801  0.6157 -0.1869  0.0240
19697WAT     H180593   0.990   8.890   4.746  0.4567  0.8668  0.5310
19697WAT     H280594   1.114   8.803   4.756 -0.4567 -0.6006 -0.4770
19697WAT    EPW80595   1.063   8.866   4.788  0.4534 -0.1025  0.0246
19698WAT      O80596   1.021   1.324   6.184 -0.4010  0.2814 -0.2174
19698WAT     H180597   1.009   1.419   6.192 -2.1164 -0.0097  1.3302
19698WAT     H280598   0.940   1.293   6.143 -0.6431 -0.6919  0.9418
19698WAT    EPW80599   1.009   1.333   6.180 -0.6592  0.1147  0.1397
19699WAT      O80600   1.965   0.324   5.904 -0.0787  0.4609 -0.2955
19699WAT     H180601   1.931   0.351   5.990  1.1046  0.3816  0.2166
19699WAT     H280602   1.963   0.228   5.907 -1.4546  0.4379 -0.9629
19699WAT    EPW80603   1.960   0.315   5.916 -0.1041  0.4474 -0.3157
19700WAT      O80604   2.495   2.267   6.984 -0.5809  0.3920  0.2977
19700WAT     H180605   2.426   2.216   6.940 -0.6824  1.5469 -0.9545
19700WAT     H280606   2.577   2.226   6.956 -0.7115 -0.4222  1.0631
19700WAT    EPW80607   2.497   2.255   6.975 -0.6115  0.4368  0.2337
19701WAT      O80608  -5.165   5.246   6.901 -0.3718 -0.0116 -0.0377
19701WAT     H180609  -5.178   5.328   6.852 -0.5562 -0.6739 -1.1523
19701WAT     H280610  -5.203   5.263   6.987 -0.3073  1.1045 -0.2112
19701WAT    EPW80611  -5.172   5.259   6.906 -0.3877  0.0484 -0.2074
19702WAT      O80612   4.052   4.074   4.155  0.1437  0.2773 -0.2509
19702WAT     H180613   3.973   4.112   4.195 -0.8148 -0.0139 -1.7901
19702WAT     H280614   4.099   4.036   4.229 -2.1677 -1.3144  0.5224
19702WAT    EPW80615   4.048   4.074   4.170 -0.2875  0.0288 -0.3521
19703WAT      O80616  -3.440   0.198   6.849 -0.3159 -0.4286 -0.7192
19703WAT     H180617  -3.350   0.222   6.872 -1.1366  2.2865 -0.0337
19703WAT     H280618  -3.471   0.146   6.923 -0.4123  1.6871  0.8102
19703WAT    EPW80619  -3.432   0.194   6.862 -0.4369  0.2086 -0.4270
19704WAT      O80620   2.745   4.645   5.540  0.0090  0.6086  0.2840
19704WAT     H180621   2.831   4.683   5.563  0.9217  0.7183 -2.8698
19704WAT     H280622   2.719   4.692   5.461 -0.9214 -2.2752 -1.2609
19704WAT    EPW80623   2.753   4.656   5.533  0.0068  0.2427 -0.3359
19705WAT      O80624   1.239   9.855   8.617 -0.1920  0.0730 -0.2927
19705WAT     H180625   1.301   9.928   8.620 -0.4757  0.4326 -2.1550
19705WAT     H280626   1.171   9.883   8.557 -0.5081 -1.5671 -0.7637
19705WAT    EPW80627   1.238   9.868   8.610 -0.2711 -0.0958 -0.6008
19706WAT      O80628  -3.718   7.524   7.974 -0.1729  0.0160 -0.0409
19706WAT     H180629  -3.764   7.514   7.891 -0.3204  0.3009  0.0040
19706WAT     H280630  -3.741   7.446   8.024 -1.0962  0.4384  0.2092
19706WAT    EPW80631  -3.727   7.512   7.970 -0.3141  0.1092 -0.0021
19707WAT      O80632   6.753   1.268   2.367  0.2089 -0.7873  0.3039
19707WAT     H180633   6.715   1.339   2.316  1.0450 -0.1665  0.5257
19707WAT     H280634   6.711   1.275   2.453 -0.9981 -1.6660 -0.1801
19707WAT    EPW80635   6.743   1.278   2.372  0.1600 -0.8213  0.2693
19708WAT      O80636   9.254   1.066   0.316 -0.5382 -0.1672  0.6736
19708WAT     H180637   9.322   1.118   0.358 -0.1118 -0.3401  0.2141
19708WAT     H280638   9.203   1.029   0.388  0.4737 -0.8522  1.0557
19708WAT    EPW80639   9.256   1.068   0.331 -0.3486 -0.2803  0.6634
19709WAT      O80640  -0.869   0.804   1.176 -0.9522  0.2278  0.0626
19709WAT     H180641  -0.831   0.735   1.122  0.2870 -0.4574  1.6915
19709WAT     H280642  -0.824   0.884   1.148 -0.2011 -0.1483  0.1563
19709WAT    EPW80643  -0.858   0.806   1.165 -0.6897  0.0878  0.2899
19710WAT      O80644  -0.397   9.598   2.530 -0.5115  0.2301 -0.1982
19710WAT     H180645  -0.308   9.574   2.505 -0.4497 -2.7323  2.2519
19710WAT     H280646  -0.386   9.653   2.607 -0.7207 -0.9361  0.7018
19710WAT    EPW80647  -0.384   9.602   2.536 -0.5309 -0.3142  0.2437
19711WAT      O80648   5.589   7.286   1.194  0.1053  0.3162 -0.1875
19711WAT     H180649   5.526   7.229   1.150 -1.5755 -0.3264  2.7752
19711WAT     H280650   5.577   7.372   1.153 -0.4970 -0.4694 -1.7199
19711WAT    EPW80651   5.579   7.290   1.183 -0.1957  0.1278  0.0012
19712WAT      O80652   2.623  10.054   6.339 -0.3252  0.1115  0.2078
19712WAT     H180653   2.703  10.001   6.344 -0.2731  0.0572 -0.9353
19712WAT     H280654   2.624  10.106   6.419  0.7487 -0.0426  0.3096
19712WAT    EPW80655   2.634  10.054   6.351 -0.1768  0.0839  0.0703
19713WAT      O80656  -3.463   4.022   8.399  0.0753 -0.4963  0.3101
19713WAT     H180657  -3.555   4.040   8.417  0.7893  1.9073  2.0502
19713WAT     H280658  -3.455   4.028   8.304 -1.4889 -0.4152  0.1677
19713WAT    EPW80659  -3.474   4.025   8.389 -0.0368 -0.1683  0.5207
19714WAT      O80660  -1.208   4.475   1.189 -0.6224 -0.2060 -0.4145
19714WAT     H180661  -1.120   4.496   1.159  0.1240 -0.2802  1.5723
19714WAT     H280662  -1.264   4.542   1.149  0.3277 -0.1231 -1.6537
19714WAT    EPW80663  -1.204   4.487   1.180 -0.3986 -0.2048 -0.3159
19715WAT      O80664   4.605   9.140   1.348 -0.0018 -0.4345 -0.0841
19715WAT     H180665   4.582   9.099   1.265 -0.2039 -1.6092  0.5228
19715WAT     H280666   4.688   9.184   1.331 -0.3626 -0.1159 -1.0649
19715WAT    EPW80667   4.613   9.140   1.335 -0.0763 -0.5479 -0.1334
19716WAT      O80668  -0.265   2.268   3.828  0.2469  0.9742 -0.1742
19716WAT     H180669  -0.283   2.339   3.767 -0.7349  0.4709 -0.4900
19716WAT     H280670  -0.187   2.226   3.794 -1.4205 -0.5738 -2.2960
19716WAT    EPW80671  -0.257   2.272   3.816 -0.1025  0.7036 -0.4956
19717WAT      O80672  10.240   1.051   0.367  0.0281  0.3171 -0.8762
19717WAT     H180673  10.327   1.090   0.379 -0.1483  0.1962  1.0153
19717WAT     H280674  10.213   1.080   0.280  0.3451  3.5849  0.0096
19717WAT    EPW80675  10.248   1.060   0.357  0.0467  0.7321 -0.5099
19718WAT      O80676  -6.239   6.258   7.984  0.3371 -0.4474  0.0033
19718WAT     H180677  -6.333   6.271   7.978  0.3950  0.7024  1.2068
19718WAT     H280678  -6.203   6.346   7.993  1.4374 -0.9416  0.7013
19718WAT    EPW80679  -6.246   6.271   7.984  0.4897 -0.3610  0.2539
19719WAT      O80680   8.575   0.841   1.271  0.2139 -0.0841 -0.0085
19719WAT     H180681   8.615   0.924   1.247 -0.4092  0.2942  0.2402
19719WAT     H280682   8.551   0.801   1.187  2.6881 -1.1580 -0.3027
19719WAT    EPW80683   8.577   0.847   1.257  0.4578 -0.1758 -0.0145
19720WAT      O80684  -0.266   0.883   1.169  0.2540  0.1930  0.3251
19720WAT     H180685  -0.206   0.955   1.148  1.3739 -0.5164  0.9378
19720WAT     H280686  -0.348   0.907   1.127  1.4429  0.3630 -2.0764
19720WAT    EPW80687  -0.269   0.896   1.161  0.5585  0.1219  0.0892
19721WAT      O80688  -3.201   3.571   5.160 -0.2347 -0.0152  0.1241
19721WAT     H180689  -3.228   3.648   5.110 -1.4616 -0.4105  0.1562
19721WAT     H280690  -3.267   3.563   5.229  0.3462 -0.6213  0.6209
19721WAT    EPW80691  -3.213   3.580   5.163 -0.3200 -0.1472  0.1941
19722WAT      O80692   1.836   0.231   4.451  0.2070  0.0405  0.1148
19722WAT     H180693   1.906   0.248   4.388 -0.6208 -0.1018 -0.8689
19722WAT     H280694   1.870   0.161   4.507  1.4938  1.1137  0.7335
19722WAT    EPW80695   1.849   0.224   4.450  0.2676  0.1633  0.0665
19723WAT      O80696  -3.053   3.761   4.790 -0.4741 -0.5944 -0.1506
19723WAT     H180697  -3.123   3.758   4.855 -0.7184  0.3838 -0.3448
19723WAT     H280698  -3.062   3.848   4.750 -0.0775 -1.0218 -1.2054
19723WAT    EPW80699  -3.064   3.772   4.793 -0.4539 -0.5218 -0.3154
19724WAT      O80700   1.416   2.165   5.793 -0.1990  0.4985 -0.0071
19724WAT     H180701   1.393   2.173   5.700  0.1230  0.5034 -0.0882
19724WAT     H280702   1.481   2.234   5.808 -0.3711  0.6022  0.2614
19724WAT    EPW80703   1.422   2.175   5.782 -0.1792  0.5128  0.0176
19725WAT      O80704   0.266   3.651   2.496  0.4591  0.1348  0.4419
19725WAT     H180705   0.232   3.578   2.444  2.3964  2.7357 -5.3652
19725WAT     H280706   0.193   3.713   2.501  0.7835  0.6698 -1.0682
19725WAT    EPW80707   0.252   3.650   2.490  0.7574  0.5485 -0.5232
19726WAT      O80708   0.138   2.083   6.674 -0.0702 -0.6667  0.1146
19726WAT     H180709   0.200   2.021   6.634 -0.9390 -1.0100 -0.7344
19726WAT     H280710   0.118   2.145   6.604  0.9050  0.7046  0.9942
19726WAT    EPW80711   0.144   2.083   6.660 -0.0562 -0.5311  0.1187
19727WAT      O80712  -1.836  10.099   3.450 -0.3057  0.0873 -0.3237
19727WAT     H180713  -1.914  10.092   3.396  0.8480 -1.4447 -1.8944
19727WAT     H280714  -1.859  10.054   3.531 -1.5418  1.0524 -0.0983
19727WAT    EPW80715  -1.849  10.092   3.454 -0.3166  0.0124 -0.5012
19728WAT      O80716   1.155  10.018   6.841  0.0296 -0.3261  0.4401
19728WAT     H180717   1.178  10.087   6.779  2.7819 -1.0348  0.5646
19728WAT     H280718   1.100  10.062   6.906  2.0429  1.9005  0.7505
19728WAT    EPW80719   1.151  10.033   6.841  0.6582 -0.1264  0.4976
19729WAT      O80720  -5.627   4.681   8.885 -0.4592  1.1516  0.0223
19729WAT     H180721  -5.646   4.686   8.791 -1.2906  0.5778  0.1510
19729WAT     H280722  -5.534   4.702   8.891 -0.2507  0.6139 -0.9990
19729WAT    EPW80723  -5.617   4.685   8.874 -0.5414  1.0052 -0.0954
19730WAT      O80724  -1.337   3.871   4.675 -0.4591  0.7069 -0.0556
19730WAT     H180725  -1.293   3.811   4.615 -2.5811 -0.4753 -0.4962
19730WAT     H280726  -1.275   3.881   4.747  0.0636 -1.9129 -0.0400
19730WAT    EPW80727  -1.323   3.865   4.677 -0.6700  0.2054 -0.1118
19731WAT      O80728   5.162   7.841   1.714  0.5510  0.0187  0.6107
19731WAT     H180729   5.125   7.847   1.626 -0.4402 -0.8930  0.9415
19731WAT     H280730   5.246   7.887   1.708 -0.2731  1.4616 -0.3606
19731WAT    EPW80731   5.168   7.848   1.702  0.3119  0.0887  0.5262
19732WAT      O80732  -4.680  10.040   4.788 -0.4080 -0.3661 -0.4112
19732WAT     H180733  -4.615  10.110   4.783 -0.5441 -0.3028 -1.3638
19732WAT     H280734  -4.753  10.071   4.735 -0.9119 -0.7628  0.0438
19732WAT    EPW80735  -4.681  10.053   4.780 -0.4923 -0.4101 -0.4771
19733WAT      O80736   1.258   7.183   7.283  0.2227  0.0890 -0.1118
19733WAT     H180737   1.265   7.271   7.245 -1.1282  0.6173  0.7989
19733WAT     H280738   1.280   7.195   7.375  0.6802 -0.6737 -0.1102
19733WAT    EPW80739   1.262   7.196   7.290  0.1049  0.0582  0.0083
19734WAT      O80740   6.619   3.383   3.274  0.0664 -0.4230  0.0217
19734WAT     H180741   6.699   3.402   3.225  0.8943 -1.3544  0.9388
19734WAT     H280742   6.642   3.403   3.365 -1.2647  0.7703  0.1243
19734WAT    EPW80743   6.633   3.388   3.280  0.0000 -0.3885  0.1562
19735WAT      O80744  -2.802   4.582   8.303 -0.1164  0.7947  0.1831
19735WAT     H180745  -2.889   4.612   8.276  0.3865 -0.1342 -2.8077
19735WAT     H280746  -2.750   4.582   8.223  2.0078 -0.8845  1.4310
19735WAT    EPW80747  -2.806   4.586   8.289  0.2300  0.4508 -0.0467
19736WAT      O80748   7.104   4.099   0.534  0.1389 -0.0185 -0.0063
19736WAT     H180749   7.016   4.122   0.502  0.4774  2.5027  0.6921
19736WAT     H280750   7.095   4.097   0.629  0.4296 -1.8377  0.0218
19736WAT    EPW80751   7.091   4.102   0.542  0.2220  0.0741  0.0895
19737WAT      O80752   2.133   1.497   1.099 -0.3226 -0.4104 -0.6731
19737WAT     H180753   2.131   1.408   1.134 -1.8016  0.0162  0.4540
19737WAT     H280754   2.217   1.503   1.053  2.0160 -0.9838  3.0543
19737WAT    EPW80755   2.144   1.486   1.098 -0.2092 -0.4298 -0.0328
19738WAT      O80756   1.559   6.837   7.938  0.4341 -0.3608  0.0551
19738WAT     H180757   1.482   6.890   7.958 -0.3124 -0.8571 -1.3718
19738WAT     H280758   1.621   6.857   8.009 -0.9474  0.1275  1.1740
19738WAT    EPW80759   1.557   6.847   7.950  0.1535 -0.3617  0.0145
19739WAT      O80760   1.786   1.524   8.010 -0.1547  0.2238 -0.1127
19739WAT     H180761   1.834   1.446   7.982  0.3035  0.5695 -0.3037
19739WAT     H280762   1.776   1.575   7.929 -0.9828  0.0800 -0.1058
19739WAT    EPW80763   1.791   1.520   7.995 -0.2035  0.2504 -0.1369
19740WAT      O80764   0.517   1.411   5.680  0.3678  0.2469  0.0085
19740WAT     H180765   0.512   1.346   5.611 -1.0191 -1.1383  1.3257
19740WAT     H280766   0.426   1.441   5.691  0.2011 -0.8545  2.3173
19740WAT    EPW80767   0.504   1.406   5.673  0.1629 -0.0811  0.4869
19741WAT      O80768   3.161   2.350   8.606 -0.8763  0.0747  0.2836
19741WAT     H180769   3.173   2.430   8.658 -0.5981 -0.0163  0.3580
19741WAT     H280770   3.176   2.279   8.668  1.0188 -0.0495 -0.2498
19741WAT    EPW80771   3.165   2.351   8.621 -0.5896  0.0464  0.2232
19742WAT      O80772  -0.439   7.897   0.155  0.1191 -0.4778 -0.1355
19742WAT     H180773  -0.357   7.850   0.139 -0.7044 -2.1868  0.3416
19742WAT     H280774  -0.471   7.921   0.068  1.5737  1.1105 -0.2866
19742WAT    EPW80775  -0.432   7.894   0.142  0.2024 -0.4938 -0.0925
19743WAT      O80776   1.928   8.429   5.390 -0.6185 -0.8691 -0.3873
19743WAT     H180777   1.946   8.523   5.377  0.2373 -0.9461  0.1515
19743WAT     H280778   1.862   8.427   5.460 -1.0179 -0.6539 -0.7544
19743WAT    EPW80779   1.922   8.441   5.398 -0.5584 -0.8512 -0.3648
19744WAT      O80780  -0.392   1.008   2.762  0.8463  0.0815  0.4662
19744WAT     H180781  -0.444   0.964   2.694  1.2541 -0.5195  0.5317
19744WAT     H280782  -0.456   1.029   2.830  0.7517 -1.1167  0.7768
19744WAT    EPW80783  -0.407   1.005   2.762  0.8876 -0.1559  0.5157
19745WAT      O80784   3.947   6.398   3.682  0.3926 -0.3941  0.0661
19745WAT     H180785   3.966   6.431   3.770 -1.5869 -0.2409  0.5055
19745WAT     H280786   3.946   6.303   3.692 -3.7506 -0.4171  1.3098
19745WAT    EPW80787   3.949   6.390   3.695 -0.4150 -0.3769  0.2881
19746WAT      O80788  -2.439   6.394   8.222  0.2697 -0.1211 -0.8117
19746WAT     H180789  -2.506   6.444   8.269 -0.6772 -1.7066 -0.4118
19746WAT     H280790  -2.425   6.316   8.275  0.1830 -1.2980 -2.4535
19746WAT    EPW80791  -2.446   6.390   8.235  0.1334 -0.4854 -0.9756
19747WAT      O80792   6.765   6.651   2.451  0.1689  0.3352 -0.1820
19747WAT     H180793   6.849   6.695   2.460 -0.0561  0.7256  0.0047
19747WAT     H280794   6.716   6.705   2.389 -0.5968  1.0835  1.0545
19747WAT    EPW80795   6.769   6.664   2.444  0.0381  0.4852  0.0056
19748WAT      O80796  -0.337   7.755   6.046  0.7287  0.2976  0.8851
19748WAT     H180797  -0.381   7.813   5.983 -0.2478 -2.6447 -1.3716
19748WAT     H280798  -0.375   7.780   6.130 -2.5157  0.5044 -0.4607
19748WAT    EPW80799  -0.348   7.766   6.049  0.1720 -0.0629  0.4098
19749WAT      O80800   2.047   2.734   4.683  1.1039 -0.0707 -0.0411
19749WAT     H180801   2.074   2.718   4.773  0.4635 -0.6490  0.0569
19749WAT     H280802   2.022   2.648   4.649 -0.0322  0.3437 -0.3099
19749WAT    EPW80803   2.047   2.721   4.690  0.8696 -0.0924 -0.0637
19750WAT      O80804   6.996   3.204   3.133  0.2063 -1.3711 -0.1901
19750WAT     H180805   6.955   3.199   3.219  1.8529  2.9989  1.1552
19750WAT     H280806   7.072   3.146   3.140  0.6995 -0.5877  1.6222
19750WAT    EPW80807   7.001   3.196   3.145  0.4885 -0.6913  0.2264
19751WAT      O80808   2.226   1.202   7.393  0.4926  0.3101  0.1068
19751WAT     H180809   2.162   1.139   7.427  0.9237 -1.0419 -1.4415
19751WAT     H280810   2.197   1.286   7.427 -1.8668 -0.3211 -0.1444
19751WAT    EPW80811   2.214   1.204   7.402  0.2383  0.0486 -0.1307
19752WAT      O80812   1.823   5.247   2.489 -0.1206  0.1391  0.4194
19752WAT     H180813   1.824   5.238   2.393  0.5420  0.1447  0.4221
19752WAT     H280814   1.775   5.328   2.505 -0.5422 -0.0470  0.1068
19752WAT    EPW80815   1.817   5.257   2.478 -0.0888  0.1154  0.3785
19753WAT      O80816   7.645   4.109   0.812  0.2939 -0.3413  0.3874
19753WAT     H180817   7.577   4.062   0.763 -0.0523 -0.2756  0.8035
19753WAT     H280818   7.619   4.100   0.903 -0.1133  1.1824  0.4514
19753WAT    EPW80819   7.633   4.101   0.817  0.1948 -0.1316  0.4507
19754WAT      O80820  -5.147   6.793   8.879  0.1171 -0.0111  0.1118
19754WAT     H180821  -5.161   6.796   8.784  2.8231  1.1852 -0.3558
19754WAT     H280822  -5.108   6.708   8.895  1.7197  0.6180 -0.2604
19754WAT    EPW80823  -5.144   6.782   8.868  0.6852  0.2296  0.0010
19755WAT      O80824   1.464   1.900   0.168 -0.2630 -1.2075 -0.2524
19755WAT     H180825   1.457   1.926   0.076 -3.9361 -0.6625  0.0109
19755WAT     H280826   1.511   1.971   0.210 -0.5127 -0.3564 -1.3778
19755WAT    EPW80827   1.469   1.912   0.162 -0.7804 -1.0234 -0.3661
19756WAT      O80828  -3.948   9.858   3.958  0.5387 -0.0728  0.1616
19756WAT     H180829  -3.981   9.790   3.899  1.6125  0.0131 -0.5747
19756WAT     H280830  -3.866   9.887   3.917  0.6797  0.8591  1.0646
19756WAT    EPW80831  -3.942   9.853   3.945  0.6989  0.0615  0.1836
19757WAT      O80832   4.276   7.991   1.815  0.3947 -0.1617  0.8181
19757WAT     H180833   4.275   8.087   1.810  1.1630 -0.2010 -0.7363
19757WAT     H280834   4.206   7.970   1.876  1.5879  1.4536  2.8836
19757WAT    EPW80835   4.267   8.001   1.822  0.6535  0.0463  0.8855
19758WAT      O80836   1.375   3.579   7.536 -0.3226 -0.5010 -0.4410
19758WAT     H180837   1.388   3.664   7.495  0.9406 -1.8587 -3.1408
19758WAT     H280838   1.302   3.540   7.488  0.1448 -1.5405 -0.3347
19758WAT    EPW80839   1.367   3.585   7.524 -0.0944 -0.8171 -0.7830
19759WAT      O80840   2.464   3.414   2.804 -0.3748 -0.1887  0.6048
19759WAT     H180841   2.512   3.446   2.881  0.9140 -0.0545 -0.2326
19759WAT     H280842   2.450   3.491   2.750  0.2130 -0.5379 -0.0707
19759WAT    EPW80843   2.468   3.428   2.807 -0.1273 -0.2170  0.4053
19760WAT      O80844  -5.030   4.405   7.847  0.3083  0.3773  0.5326
19760WAT     H180845  -4.938   4.403   7.823 -0.3154  1.6057 -2.4636
19760WAT     H280846  -5.073   4.351   7.781 -1.2297  0.5721  1.3224
19760WAT    EPW80847  -5.024   4.397   7.835  0.0231  0.5651  0.2415
19761WAT      O80848   5.201   8.524   3.852  0.3622 -0.3266 -0.3753
19761WAT     H180849   5.217   8.551   3.761 -0.0514  0.0860 -0.3278
19761WAT     H280850   5.241   8.594   3.905  1.5712 -1.0997 -0.2141
19761WAT    EPW80851   5.208   8.537   3.847  0.4673 -0.3738 -0.3479
19762WAT      O80852   5.072   5.623   4.558  0.3499  0.8575 -0.2063
19762WAT     H180853   5.097   5.578   4.477  0.1064  0.3666 -0.0155
19762WAT     H280854   4.983   5.592   4.575  1.0384 -0.4826  1.2196
19762WAT    EPW80855   5.063   5.613   4.550  0.4086  0.6161  0.0069
19763WAT      O80856   9.810   1.244   0.090 -0.0665 -0.6777 -0.0461
19763WAT     H180857   9.901   1.273   0.088 -0.2365 -0.1015  0.1741
19763WAT     H280858   9.814   1.149   0.100  0.5074 -0.6424  0.0692
19763WAT    EPW80859   9.822   1.235   0.091 -0.0134 -0.5971 -0.0019
19764WAT      O80860   3.170   8.078   5.033 -0.2561 -0.1267  0.4987
19764WAT     H180861   3.238   8.071   4.965  0.5782  1.8002  1.0540
19764WAT     H280862   3.218   8.104   5.111 -1.5323  0.4004  1.1341
19764WAT    EPW80863   3.186   8.080   5.034 -0.3144  0.1965  0.6559
19765WAT      O80864   0.326   7.382   1.615 -0.1166  0.5202 -1.2640
19765WAT     H180865   0.348   7.466   1.655  2.0276 -1.8769  3.3637
19765WAT     H280866   0.404   7.357   1.566 -0.4853  0.8575 -2.0416
19765WAT    EPW80867   0.339   7.390   1.614  0.1176  0.2487 -0.7561
19766WAT      O80868  -0.756   9.343   2.327 -0.3349 -0.9102  0.1551
19766WAT     H180869  -0.720   9.432   2.334 -0.7140 -0.5296 -1.9858
19766WAT     H280870  -0.686   9.291   2.288 -0.7226 -1.0961 -0.3150
19766WAT    EPW80871  -0.742   9.348   2.323 -0.4361 -0.8841 -0.1893
19767WAT      O80872  -0.172   1.932   5.052  0.6143  0.6982  0.6397
19767WAT     H180873  -0.206   1.856   5.004  1.1001  1.8738 -1.7084
19767WAT     H280874  -0.218   1.930   5.136 -2.0606 -0.1426 -0.7481
19767WAT    EPW80875  -0.182   1.921   5.057  0.3256  0.7424  0.1469
19768WAT      O80876   4.414   0.872   2.127  0.2543  0.0873  0.6824
19768WAT     H180877   4.356   0.906   2.058  0.9136  0.1789  0.1597
19768WAT     H280878   4.404   0.934   2.199 -0.1791  0.1898  0.5399
19768WAT    EPW80879   4.405   0.885   2.127  0.2842  0.1129  0.5947
19769WAT      O80880  -0.182   5.003   8.864  0.0406  0.7143  0.3569
19769WAT     H180881  -0.152   4.985   8.953 -0.6705 -1.0261  0.3038
19769WAT     H280882  -0.104   4.993   8.810 -0.1536 -2.0796  0.4038
19769WAT    EPW80883  -0.168   4.999   8.869 -0.0788  0.1163  0.3562
19770WAT      O80884   2.288   1.975   8.907  0.3380 -0.1847  0.7156
19770WAT     H180885   2.356   1.919   8.945  1.5799  0.5264 -0.3752
19770WAT     H280886   2.217   1.974   8.971  1.1824 -1.3244  1.6726
19770WAT    EPW80887   2.287   1.967   8.920  0.6131 -0.2412  0.6976
19771WAT      O80888   2.330   1.015   7.718 -0.0593  0.5865  0.1196
19771WAT     H180889   2.242   1.001   7.683 -0.4063  1.3035  0.6828
19771WAT     H280890   2.376   1.063   7.649 -0.5876  1.5451  0.4131
19771WAT    EPW80891   2.325   1.020   7.704 -0.1749  0.8075  0.2325
19772WAT      O80892  -0.300   6.817   1.854 -0.2831  0.1899  0.0798
19772WAT     H180893  -0.264   6.753   1.916 -0.1692  1.9708  1.9666
19772WAT     H280894  -0.223   6.856   1.813 -0.3531 -0.8354 -1.0850
19772WAT    EPW80895  -0.285   6.813   1.857 -0.2773  0.2894  0.1750
19773WAT      O80896   3.539   5.505   6.001  0.2179 -0.1793  0.5762
19773WAT     H180897   3.542   5.544   6.089  1.2079  1.0468  0.0344
19773WAT     H280898   3.448   5.515   5.974  0.2418  0.9168  0.8441
19773WAT    EPW80899   3.527   5.512   6.009  0.3517  0.1271  0.5400
19774WAT      O80900   0.128   3.912   8.325 -0.1041 -0.6715  0.0450
19774WAT     H180901   0.177   3.955   8.395  2.1395 -1.3518 -1.0094
19774WAT     H280902   0.065   3.856   8.371  0.0218  0.2926  1.4644
19774WAT    EPW80903   0.126   3.911   8.340  0.2084 -0.6340  0.0930
19775WAT      O80904  -0.498   1.929   1.789  0.4067 -0.6714 -0.2386
19775WAT     H180905  -0.516   1.992   1.859  1.1197 -0.6093 -0.1058
19775WAT     H280906  -0.534   1.971   1.710 -1.1192 -1.0954  0.1902
19775WAT    EPW80907  -0.505   1.943   1.788  0.2995 -0.7191 -0.1645
19776WAT      O80908   0.599   7.321   8.756  0.4564 -0.5309  0.2341
19776WAT     H180909   0.515   7.274   8.763  0.0582  0.2774  1.1867
19776WAT     H280910   0.610   7.363   8.842  1.8274 -0.5947  0.1076
19776WAT    EPW80911   0.589   7.320   8.768  0.5847 -0.4327  0.3433
19777WAT      O80912   6.143   2.417   0.038  0.2745  0.0254  0.3993
19777WAT     H180913   6.208   2.372  -0.016 -0.6604 -1.5786  0.5543
19777WAT     H280914   6.184   2.423   0.124  2.1030  3.2968 -0.5059
19777WAT    EPW80915   6.157   2.412   0.042  0.3927  0.2453  0.3003
19778WAT      O80916   0.474   9.198   1.159 -0.9025  0.2670 -0.1948
19778WAT     H180917   0.520   9.133   1.211  0.5524  0.2677 -1.4128
19778WAT     H280918   0.432   9.255   1.224 -3.0279 -2.3231  0.9216
19778WAT    EPW80919   0.474   9.197   1.175 -0.9910 -0.0749 -0.2083
19779WAT      O80920   1.395   7.159   8.958 -0.3854 -0.3929  0.2249
19779WAT     H180921   1.370   7.079   9.005 -0.0924  0.2023  1.4406
19779WAT     H280922   1.315   7.185   8.912 -0.8637 -0.6835  0.8662
19779WAT    EPW80923   1.381   7.152   8.958 -0.4098 -0.3529  0.4697
19780WAT      O80924   3.782   2.969   8.116 -0.2729 -0.2841 -0.0968
19780WAT     H180925   3.742   2.906   8.176 -1.1963  0.5947  0.2400
19780WAT     H280926   3.729   2.963   8.036 -1.6982  1.5076  0.6519
19780WAT    EPW80927   3.770   2.960   8.113 -0.5827  0.0682  0.0467
19781WAT      O80928  -5.286   4.410   8.793  0.2758 -0.4404  0.6617
19781WAT     H180929  -5.216   4.467   8.825 -1.9895  0.4387  4.6918
19781WAT     H280930  -5.333   4.463   8.729  0.6400  0.6222  1.2666
19781WAT    EPW80931  -5.283   4.424   8.789  0.0250 -0.1843  1.2727
19782WAT      O80932  -3.998   9.151   1.741 -0.2138  0.3918  0.4983
19782WAT     H180933  -4.026   9.186   1.826  1.1351  0.6348  0.8600
19782WAT     H280934  -4.035   9.212   1.677 -0.5732  0.6596  0.9551
19782WAT    EPW80935  -4.007   9.164   1.744 -0.0834  0.4592  0.6063
19783WAT      O80936   6.912   4.088   1.076  0.4156 -0.6930  0.6480
19783WAT     H180937   6.995   4.091   1.028 -0.1807  0.8184 -0.3733
19783WAT     H280938   6.906   4.173   1.119 -0.7180 -0.6694  0.4843
19783WAT    EPW80939   6.922   4.099   1.075  0.1876 -0.4904  0.4917
19784WAT      O80940   3.263   1.584   0.139  0.0225  0.2609 -0.3113
19784WAT     H180941   3.310   1.664   0.163  1.1043 -0.3929 -0.1854
19784WAT     H280942   3.293   1.565   0.050 -1.4989  0.8822 -1.0000
19784WAT    EPW80943   3.273   1.592   0.130 -0.0354  0.2567 -0.3856
19785WAT      O80944   1.549   5.420   2.949  0.7772 -0.2625 -0.7929
19785WAT     H180945   1.629   5.464   2.976 -0.0151  1.3802 -1.0317
19785WAT     H280946   1.544   5.343   3.006  1.6956  0.4616  0.3004
19785WAT    EPW80947   1.559   5.415   2.960  0.7939  0.0498 -0.6802
19786WAT      O80948   1.578   4.590   1.051  0.9410 -1.0884 -0.6281
19786WAT     H180949   1.595   4.652   0.979 -1.1003  0.3506  0.0420
19786WAT     H280950   1.486   4.565   1.039 -0.0438  0.6130  2.4567
19786WAT    EPW80951   1.568   4.595   1.040  0.5419 -0.6740 -0.1329
19787WAT      O80952  -5.013   2.224   7.872  0.3655  0.1631 -0.3681
19787WAT     H180953  -5.045   2.248   7.959 -0.8267 -3.0070  0.1788
19787WAT     H280954  -5.056   2.286   7.813 -3.3356 -1.0186  0.8125
19787WAT    EPW80955  -5.023   2.235   7.876 -0.2799 -0.4108 -0.1404
19788WAT      O80956  -3.269   7.386   2.925  0.3310  0.1465 -0.5051
19788WAT     H180957  -3.271   7.443   3.002  0.4177 -1.6977  0.9444
19788WAT     H280958  -3.353   7.402   2.882  0.0503  0.8398  0.2691
19788WAT    EPW80959  -3.281   7.395   2.929  0.3055 -0.0050 -0.2118
19789WAT      O80960   6.251   2.919   5.653  0.4894  0.6062 -0.7879
19789WAT     H180961   6.175   2.963   5.617  0.8666  0.3080 -1.9768
19789WAT     H280962   6.214   2.854   5.714 -0.1264  1.4236 -0.2672
19789WAT    EPW80963   6.236   2.916   5.657  0.4580  0.6746 -0.8759
19790WAT      O80964   0.825   7.515   1.854 -0.1040 -0.1549 -0.7021
19790WAT     H180965   0.749   7.504   1.797 -0.5167  0.5724 -0.3077
19790WAT     H280966   0.837   7.429   1.895 -0.3331 -0.4403 -1.2184
19790WAT    EPW80967   0.817   7.502   1.852 -0.1887 -0.0966 -0.7182
19791WAT      O80968  -2.124   8.696   2.583  0.4460  0.1748 -0.3733
19791WAT     H180969  -2.119   8.701   2.679  0.2488  1.4352 -0.4129
19791WAT     H280970  -2.039   8.661   2.556  0.3356 -0.6264  0.2813
19791WAT    EPW80971  -2.112   8.692   2.592  0.4055  0.2356 -0.2921
19792WAT      O80972   7.845   4.575   1.963 -0.5544  0.4302  0.1106
19792WAT     H180973   7.837   4.663   1.926 -2.3416  0.1654 -0.2306
19792WAT     H280974   7.914   4.533   1.912 -0.2963  1.3439 -0.3107
19792WAT    EPW80975   7.853   4.581   1.952 -0.7560  0.5159  0.0102
19793WAT      O80976   6.679   2.726   4.050 -0.1652 -0.3711  0.1832
19793WAT     H180977   6.660   2.639   4.014  0.7266 -0.1490 -0.8657
19793WAT     H280978   6.593   2.765   4.065 -0.6224 -0.1119 -2.6641
19793WAT    EPW80979   6.665   2.719   4.047 -0.1080 -0.3077 -0.3307
19794WAT      O80980   7.997   1.523   0.709 -0.2656  0.1100  0.3926
19794WAT     H180981   7.981   1.472   0.630  0.8173 -1.0425  0.8878
19794WAT     H280982   7.960   1.471   0.780  0.6801  0.0830  0.8839
19794WAT    EPW80983   7.990   1.510   0.708  0.0019 -0.0455  0.5227
19795WAT      O80984   2.429   0.170   1.789  0.4988  0.1420  0.3118
19795WAT     H180985   2.347   0.145   1.831 -0.0232 -1.6808 -1.5766
19795WAT     H280986   2.410   0.161   1.695  2.4715  1.0479 -0.2129
19795WAT    EPW80987   2.415   0.166   1.782  0.6902  0.0210 -0.0065
19796WAT      O80988   6.999   0.639   0.230 -0.1722  0.7761  0.4974
19796WAT     H180989   7.039   0.589   0.302 -1.1599 -0.0848  0.4690
19796WAT     H280990   7.018   0.730   0.251 -1.8198  0.6942  2.7660
19796WAT    EPW80991   7.007   0.645   0.242 -0.5200  0.6517  0.7928
19797WAT      O80992   0.454   5.095   3.633 -0.8258  0.3343  0.4020
19797WAT     H180993   0.533   5.054   3.596 -0.2960  0.3095  1.5280
19797WAT     H280994   0.432   5.040   3.708 -0.0547  2.0958  1.9932
19797WAT    EPW80995   0.462   5.082   3.638 -0.6543  0.5634  0.7604
19798WAT      O80996   6.069   4.107   0.522 -0.2914 -0.2768  0.4754
19798WAT     H180997   6.119   4.090   0.602  0.2592  1.6073  0.5787
19798WAT     H280998   6.135   4.131   0.457 -0.8549 -0.4539 -0.1741
19798WAT    EPW80999   6.085   4.108   0.524 -0.2930 -0.0517  0.4033
19799WAT      O81000  -8.363   9.715   8.174 -0.7141  0.3803  0.3032
19799WAT     H181001  -8.349   9.803   8.138 -1.4483  1.5511  2.6505
19799WAT     H281002  -8.451   9.718   8.212 -0.4882 -1.1639  1.0396
19799WAT    EPW81003  -8.373   9.727   8.174 -0.7811  0.3309  0.7100
19800WAT      O81004   0.396  10.200   5.065 -0.2343 -0.2235 -0.0350
19800WAT     H181005   0.433  10.176   4.980  0.9354  0.7438  0.1686
19800WAT     H281006   0.458  10.164   5.129  0.9754  2.2081  0.2936
19800WAT    EPW81007   0.409  10.192   5.063  0.0795  0.2251  0.0350
19801WAT      O81008  -1.122   9.616   7.212  0.2886 -0.2803  0.2396
19801WAT     H181009  -1.046   9.652   7.166 -0.4152  2.7077  1.2023
19801WAT     H281010  -1.126   9.666   7.293 -4.2911  1.8011 -0.9708
19801WAT    EPW81011  -1.112   9.627   7.217 -0.4082  0.3881  0.2069
19802WAT      O81012   5.910   2.192   0.804  0.3342 -0.3206 -0.1868
19802WAT     H181013   5.827   2.212   0.761  0.0346  0.2036  0.5958
19802WAT     H281014   5.911   2.096   0.810 -1.3373 -0.2885  1.8409
19802WAT    EPW81015   5.899   2.182   0.799  0.0741 -0.2472  0.1839
19803WAT      O81016  -5.012  10.094   7.853  0.4238 -0.5595 -0.5255
19803WAT     H181017  -4.919  10.090   7.876  0.6324 -1.6206 -1.4648
19803WAT     H281018  -5.058  10.076   7.935  1.0792 -1.1112 -0.2647
19803WAT    EPW81019  -5.006  10.091   7.866  0.5376 -0.7720 -0.6149
19804WAT      O81020  -3.929   8.982   5.649  0.3252 -0.0489 -0.0091
19804WAT     H181021  -3.922   8.989   5.745  0.3194 -0.3466  0.0162
19804WAT     H281022  -3.922   8.888   5.632  1.7009  0.1099 -0.4173
19804WAT    EPW81023  -3.927   8.970   5.660  0.5058 -0.0672 -0.0596
19805WAT      O81024   4.964   7.694   4.060 -0.1427  0.4948  0.1671
19805WAT     H181025   4.999   7.733   4.140 -0.2806 -0.0182  0.4775
19805WAT     H281026   4.939   7.605   4.085 -2.8642  1.1914  0.3225
19805WAT    EPW81027   4.965   7.688   4.074 -0.5200  0.5193  0.2284
19806WAT      O81028  -2.617   7.920   7.512 -0.1215 -0.7866 -0.0435
19806WAT     H181029  -2.589   7.950   7.599 -2.1345  0.5869  0.2155
19806WAT     H281030  -2.618   7.825   7.519 -0.8169 -0.6985  1.6869
19806WAT    EPW81031  -2.613   7.912   7.525 -0.4789 -0.5939  0.2189
19807WAT      O81032   6.856   1.569   3.928 -0.3256 -0.0292  0.7266
19807WAT     H181033   6.845   1.634   3.999  1.2935  0.3986  0.6283
19807WAT     H281034   6.774   1.572   3.880 -0.8864  0.7876  1.6961
19807WAT    EPW81035   6.844   1.578   3.931 -0.1860  0.1349  0.8415
19808WAT      O81036   0.847   1.132   3.536  0.2032 -0.0336  0.4361
19808WAT     H181037   0.927   1.089   3.506  0.7904  0.5711  1.0641
19808WAT     H281038   0.790   1.060   3.563  0.3681 -0.4917 -0.4222
19808WAT    EPW81039   0.850   1.117   3.536  0.3024 -0.0142  0.4058
19809WAT      O81040  -6.273   9.166   8.011 -0.6634 -0.5991  0.5840
19809WAT     H181041  -6.312   9.120   7.936 -1.0597 -0.2442  0.5641
19809WAT     H281042  -6.221   9.100   8.056  2.7990 -0.0042 -2.1577
19809WAT    EPW81043  -6.272   9.151   8.007 -0.2589 -0.4740  0.2198
19810WAT      O81044   4.056   7.590   6.416 -0.8109  0.0832  0.1010
19810WAT     H181045   3.965   7.604   6.443 -1.0574  2.4209 -1.6198
19810WAT     H281046   4.069   7.652   6.344  0.9003 -3.0505 -2.5947
19810WAT    EPW81047   4.045   7.600   6.410 -0.6180 -0.0219 -0.4816
19811WAT      O81048   3.200   4.995   1.001  0.4340  0.4419 -0.1603
19811WAT     H181049   3.154   4.929   0.950  1.1664 -1.2804  1.2818
19811WAT     H281050   3.293   4.972   0.992  0.5887 -0.0017  1.9459
19811WAT    EPW81051   3.206   4.984   0.993  0.5511  0.1562  0.3077
19812WAT      O81052  -2.178   8.103   4.289  0.3904 -0.3980 -0.1807
19812WAT     H181053  -2.214   8.179   4.244 -1.0054 -2.0220 -1.9937
19812WAT     H281054  -2.186   8.123   4.382 -1.5487  0.9577 -0.5837
19812WAT    EPW81055  -2.183   8.116   4.295 -0.0494 -0.4334 -0.4730
19813WAT      O81056   7.225   7.027   0.038 -0.4308  0.0230 -0.2281
19813WAT     H181057   7.314   7.002   0.014  0.1843  4.1906 -3.4247
19813WAT     H281058   7.170   6.983  -0.027 -0.2030  0.5790 -0.8148
19813WAT    EPW81059   7.229   7.018   0.026 -0.3197  0.6461 -0.7271
19814WAT      O81060  -2.878   0.339   8.124 -0.1292 -0.5955 -0.4189
19814WAT     H181061  -2.958   0.310   8.167 -0.9441  1.4019 -0.5139
19814WAT     H281062  -2.905   0.363   8.035  0.9262 -1.5064 -1.0237
19814WAT    EPW81063  -2.892   0.338   8.118 -0.0975 -0.4522 -0.5116
19815WAT      O81064   4.286   2.737   4.304 -0.6265 -0.5640 -0.1038
19815WAT     H181065   4.344   2.725   4.380  0.0772 -1.0737 -0.7083
19815WAT     H281066   4.252   2.826   4.314 -3.2024 -1.7022  2.5902
19815WAT    EPW81067   4.289   2.748   4.315 -0.8736 -0.7813  0.1717
19816WAT      O81068  -0.025   4.133   7.295  0.3148 -0.7980 -0.5962
19816WAT     H181069   0.028   4.197   7.343  0.8802 -1.9378  0.3588
19816WAT     H281070   0.018   4.125   7.210 -0.5925  1.1148 -1.2904
19816WAT    EPW81071  -0.012   4.140   7.291  0.2697 -0.6959 -0.5620
19817WAT      O81072  -1.548   2.920   7.073 -0.4770 -0.0960  0.2463
19817WAT     H181073  -1.564   2.849   7.136 -1.0717 -1.8491 -1.7735
19817WAT     H281074  -1.464   2.956   7.099 -0.8943 -0.4745  2.2887
19817WAT    EPW81075  -1.539   2.915   7.085 -0.6105 -0.3771  0.2494
19818WAT      O81076   1.299   6.910   3.122 -0.0078  0.2995  0.0280
19818WAT     H181077   1.243   6.886   3.049 -3.2377  1.0761  2.0319
19818WAT     H281078   1.266   6.857   3.195  1.0360  1.7143  1.5985
19818WAT    EPW81079   1.287   6.900   3.122 -0.2962  0.5887  0.4995
19819WAT      O81080   4.973   1.749   2.253  0.4019  0.4252 -0.8656
19819WAT     H181081   5.019   1.741   2.336  0.1477  0.0989 -0.7502
19819WAT     H281082   5.024   1.812   2.203 -0.6018  2.2686  0.3309
19819WAT    EPW81083   4.986   1.756   2.257  0.2360  0.6253 -0.6926
19820WAT      O81084   0.526   6.257   1.266 -0.2391 -0.3056  0.3762
19820WAT     H181085   0.607   6.305   1.286 -0.0580  0.0750 -1.1206
19820WAT     H281086   0.486   6.241   1.352  1.6202 -0.8821  1.1895
19820WAT    EPW81087   0.531   6.261   1.280  0.0300 -0.3314  0.2860
19821WAT      O81088   0.685   3.149   1.585 -0.1954  0.2163  0.1065
19821WAT     H181089   0.750   3.206   1.624 -3.1147  3.1867  1.0918
19821WAT     H281090   0.618   3.139   1.652 -1.3107 -1.8428 -1.1798
19821WAT    EPW81091   0.684   3.155   1.599 -0.7276  0.3365  0.0668
19822WAT      O81092   6.314   2.313   3.066  0.2878  0.4474 -0.4218
19822WAT     H181093   6.343   2.372   3.135 -1.9661  0.2048  0.8358
19822WAT     H281094   6.219   2.309   3.076  0.0360 -0.8074 -2.5891
19822WAT    EPW81095   6.305   2.320   3.077 -0.0427  0.2500 -0.5419
19823WAT      O81096   5.403   5.280   4.431  0.3840 -0.8229  0.1930
19823WAT     H181097   5.453   5.308   4.508  1.0534  1.5730 -1.0172
19823WAT     H281098   5.464   5.224   4.382  1.3949  0.7990 -0.4790
19823WAT    EPW81099   5.418   5.276   4.435  0.6058 -0.2928 -0.0553
19824WAT      O81100   2.715   5.565   1.327  0.0772 -1.1148 -0.0981
19824WAT     H181101   2.768   5.534   1.253 -1.0203 -2.3633 -0.4035
19824WAT     H281102   2.703   5.488   1.382  1.6990 -0.0081  1.9715
19824WAT    EPW81103   2.721   5.551   1.324  0.1464 -1.1334  0.1346
19825WAT      O81104   7.070   7.592   0.795 -0.2068  0.3560  0.0033
19825WAT     H181105   7.083   7.499   0.780  2.1068  0.1572  2.4791
19825WAT     H281106   6.985   7.597   0.839 -0.3061 -0.5783 -0.0688
19825WAT    EPW81107   7.060   7.581   0.799  0.0854  0.2067  0.3203
19826WAT      O81108   0.617   1.257   6.461 -0.3051  0.4019  0.7719
19826WAT     H181109   0.588   1.343   6.491  1.1322  0.1185  3.2093
19826WAT     H281110   0.648   1.273   6.372  1.4465  2.8129  1.6963
19826WAT    EPW81111   0.617   1.270   6.453  0.1155  0.6826  1.2155
19827WAT      O81112   2.469   7.778   1.383 -0.7058  0.1669  0.4302
19827WAT     H181113   2.559   7.752   1.404 -0.9845 -0.0862  1.3731
19827WAT     H281114   2.415   7.713   1.428 -1.3869  1.2088  1.1700
19827WAT    EPW81115   2.474   7.766   1.392 -0.8324  0.2708  0.6521
19828WAT      O81116   4.222   0.626   3.536 -0.1261  0.7199 -0.2766
19828WAT     H181117   4.291   0.602   3.474 -0.5556  1.9832 -1.2792
19828WAT     H281118   4.238   0.570   3.612  1.6768  0.6002 -0.6943
19828WAT    EPW81119   4.233   0.615   3.538  0.0551  0.8707 -0.4640
19829WAT      O81120  -5.039   4.130   8.875 -0.4450 -0.5668 -0.5202
19829WAT     H181121  -5.125   4.156   8.907 -0.6489 -1.9876  0.1545
19829WAT     H281122  -4.978   4.185   8.923 -0.8431 -1.5779  1.2134
19829WAT    EPW81123  -5.042   4.141   8.885 -0.5245 -0.8876 -0.2027
19830WAT      O81124  -0.874   8.746   0.663  0.5642  0.6298  0.0490
19830WAT     H181125  -0.917   8.829   0.686 -2.3567 -0.1254 -2.1676
19830WAT     H281126  -0.911   8.682   0.723  0.3720  0.3747 -0.3378
19830WAT    EPW81127  -0.884   8.749   0.674  0.1535  0.4969 -0.2943
19831WAT      O81128   0.872   5.172   6.025  0.3412 -0.0020  0.3666
19831WAT     H181129   0.786   5.214   6.021 -2.8491 -5.6477 -2.0686
19831WAT     H281130   0.867   5.114   6.100  1.4682 -1.3748 -0.5680
19831WAT    EPW81131   0.860   5.170   6.034  0.0691 -0.9277 -0.0777
19832WAT      O81132   7.451   2.476   4.055 -0.1500  0.8941 -0.3516
19832WAT     H181133   7.358   2.479   4.034 -0.2737 -2.8279 -1.0733
19832WAT     H281134   7.482   2.395   4.014  2.6338  0.2143  2.7017
19832WAT    EPW81135   7.443   2.465   4.047  0.2007  0.3136 -0.0441
19833WAT      O81136   7.816   0.053   3.229 -0.0547 -0.0862 -0.2435
19833WAT     H181137   7.723   0.056   3.251  0.2690  1.0618  1.1036
19833WAT     H281138   7.838   0.142   3.204  1.0989  0.1169  1.3651
19833WAT    EPW81139   7.807   0.065   3.229  0.1404  0.0920  0.1463
19834WAT      O81140   6.731   1.921   0.483  0.3879  0.2657  0.4829
19834WAT     H181141   6.788   1.847   0.506 -0.0814 -0.0136  0.7651
19834WAT     H281142   6.758   1.945   0.394  2.1693  1.3067  1.2593
19834WAT    EPW81143   6.742   1.914   0.474  0.5610  0.3662  0.6225
19835WAT      O81144  -3.121   5.673   7.798  0.6423  0.6514 -0.4232
19835WAT     H181145  -3.179   5.677   7.721  0.1198  0.2347 -0.0531
19835WAT     H281146  -3.177   5.699   7.871  0.6947 -0.5607  0.0682
19835WAT    EPW81147  -3.136   5.677   7.797  0.5803  0.4365 -0.3095
19836WAT      O81148   0.747   2.386   4.078 -0.2456 -0.5638  0.2075
19836WAT     H181149   0.801   2.464   4.094 -1.5752  0.3619  0.3494
19836WAT     H281150   0.737   2.383   3.983  0.0919 -0.7739  0.1762
19836WAT    EPW81151   0.753   2.396   4.067 -0.3764 -0.4694  0.2222
19837WAT      O81152   4.117   3.741   8.900 -0.0453 -0.1436 -0.4958
19837WAT     H181153   4.048   3.687   8.938  1.3292 -1.7102 -0.1150
19837WAT     H281154   4.197   3.688   8.909  1.1723  1.4920 -1.1372
19837WAT    EPW81155   4.119   3.727   8.906  0.2964 -0.1346 -0.5307
19838WAT      O81156   0.525   7.323   6.921 -0.1814 -0.5894  0.3165
19838WAT     H181157   0.548   7.402   6.970 -1.8148 -1.2104  2.2169
19838WAT     H281158   0.601   7.266   6.931  2.8142  1.8905 -4.3036
19838WAT    EPW81159   0.538   7.326   6.928 -0.0017 -0.3443 -0.0422
19839WAT      O81160   0.268   4.394   7.652  0.5032 -0.1481  0.2812
19839WAT     H181161   0.272   4.377   7.558  2.2701 -0.4760  0.3791
19839WAT     H281162   0.353   4.365   7.685 -0.9506 -2.4510  2.3847
19839WAT    EPW81163   0.280   4.388   7.644  0.5445 -0.4950  0.5715
19840WAT      O81164   2.099   6.403   5.030 -0.0660  0.5542  0.1877
19840WAT     H181165   2.131   6.357   5.108  0.5607 -0.2431 -0.5209
19840WAT     H281166   2.162   6.474   5.017  1.0112 -0.5271 -0.7370
19840WAT    EPW81167   2.111   6.406   5.039  0.1589  0.3066 -0.0274
19841WAT      O81168   4.459   3.787   5.875  0.0527  0.3119 -0.0682
19841WAT     H181169   4.439   3.721   5.941  1.4587 -0.0699  0.0068
19841WAT     H281170   4.464   3.869   5.924 -2.5346  0.6820 -0.2847
19841WAT    EPW81171   4.457   3.790   5.890 -0.1030  0.3104 -0.0868
19842WAT      O81172  -5.747   5.723   6.477 -0.6707  0.0683  0.3308
19842WAT     H181173  -5.790   5.703   6.394 -1.9394  1.0510  0.7273
19842WAT     H281174  -5.654   5.708   6.460 -0.8404  0.9070 -1.4673
19842WAT    EPW81175  -5.740   5.718   6.464 -0.8605  0.3085  0.1459
19843WAT      O81176  -0.706   5.745   4.786  0.1383  0.3514 -0.0294
19843WAT     H181177  -0.626   5.713   4.828  1.9480  0.2456 -3.2439
19843WAT     H281178  -0.763   5.668   4.782  0.4756  0.0378  0.9879
19843WAT    EPW81179  -0.703   5.730   4.791  0.4214  0.2961 -0.3195
19844WAT      O81180  -0.902   4.095   1.203 -1.0911  0.6821 -0.2332
19844WAT     H181181  -0.987   4.137   1.214 -1.6148 -0.4801  0.3210
19844WAT     H281182  -0.921   4.015   1.154 -0.4555 -0.0231  0.6284
19844WAT    EPW81183  -0.916   4.090   1.198 -1.0764  0.4358 -0.0465
19845WAT      O81184  -2.089   5.314   0.720  0.4273 -0.4641  0.0606
19845WAT     H181185  -2.069   5.408   0.718  0.0264 -0.3650  0.6229
19845WAT     H281186  -2.144   5.302   0.798  3.5303 -1.7425  2.3028
19845WAT    EPW81187  -2.093   5.325   0.730  0.7836 -0.6199  0.4305
19846WAT      O81188   8.714   2.267   1.178 -0.3013  0.4669  0.4316
19846WAT     H181189   8.666   2.186   1.160  1.6801 -0.6862 -0.0657
19846WAT     H281190   8.677   2.300   1.260 -2.9742  0.5612 -0.7110
19846WAT    EPW81191   8.703   2.260   1.186 -0.3924  0.3272  0.2153
19847WAT      O81192   4.413   0.588   3.360 -0.7096 -0.1406  0.7975
19847WAT     H181193   4.481   0.649   3.333  1.9713 -2.6394  1.4017
19847WAT     H281194   4.387   0.543   3.280 -2.2451  1.2729  0.4530
19847WAT    EPW81195   4.418   0.590   3.346 -0.5586 -0.2837  0.8317
19848WAT      O81196   1.634   0.687   1.231 -0.3949  0.1115 -0.1088
19848WAT     H181197   1.640   0.656   1.141  2.7933 -2.0671  0.6384
19848WAT     H281198   1.587   0.617   1.277  1.2524 -0.6667  0.4818
19848WAT    EPW81199   1.629   0.674   1.225  0.2429 -0.2785  0.0677
19849WAT      O81200  -2.359   9.795   6.588 -0.5541 -0.5143  0.2969
19849WAT     H181201  -2.294   9.846   6.636 -1.0809 -1.8536  2.5767
19849WAT     H281202  -2.443   9.826   6.620 -1.0468  0.2342 -1.6058
19849WAT    EPW81203  -2.361   9.806   6.598 -0.6886 -0.5922  0.3467
19850WAT      O81204  -4.622   9.286   2.529  0.1898  0.0416 -0.5566
19850WAT     H181205  -4.597   9.215   2.471 -2.8649 -2.4762  0.8975
19850WAT     H281206  -4.689   9.334   2.481  0.8742  0.7773 -0.7934
19850WAT    EPW81207  -4.627   9.283   2.515 -0.1228 -0.1936 -0.3960
19851WAT      O81208   0.420   6.260   7.029  0.3250  0.6448 -0.0264
19851WAT     H181209   0.372   6.272   6.947  4.0155 -0.1321 -2.5735
19851WAT     H281210   0.438   6.166   7.032  0.9983  0.7974  1.2426
19851WAT    EPW81211   0.416   6.249   7.019  0.9006  0.5624 -0.1948
19852WAT      O81212   8.315   0.292  -0.009  0.5082 -0.4653  0.4260
19852WAT     H181213   8.302   0.247   0.075 -1.7134 -0.3414  0.1921
19852WAT     H281214   8.403   0.265  -0.036  1.9724  0.6817  3.4843
19852WAT    EPW81215   8.325   0.282  -0.001  0.4083 -0.2978  0.7987
19853WAT      O81216   6.647   3.709   4.287  0.4098 -0.4335  0.1633
19853WAT     H181217   6.684   3.628   4.251  4.0631  0.5092  1.3854
19853WAT     H281218   6.686   3.779   4.234 -2.3387  0.6601 -0.5959
19853WAT    EPW81219   6.657   3.708   4.275  0.5293 -0.1649  0.2241
19854WAT      O81220   2.344   0.138   1.523  0.0690 -0.5331 -0.1418
19854WAT     H181221   2.370   0.046   1.516  0.3569 -0.4873  0.2518
19854WAT     H281222   2.387   0.181   1.450 -0.9167 -0.8879 -0.9540
19854WAT    EPW81223   2.353   0.131   1.512 -0.0229 -0.5739 -0.1970
19855WAT      O81224   2.417   4.052   3.661 -0.7485  0.3247  0.1547
19855WAT     H181225   2.365   4.080   3.737  0.8927 -4.1405  3.3603
19855WAT     H281226   2.504   4.089   3.677 -0.7192  0.4466 -0.2864
19855WAT    EPW81227   2.421   4.061   3.673 -0.5282 -0.2484  0.5193
19856WAT      O81228   5.722   2.011   5.541 -0.3016  0.0480  0.5835
19856WAT     H181229   5.740   1.997   5.448 -0.4429 -0.0955  0.5773
19856WAT     H281230   5.785   1.955   5.587 -3.3088 -3.7748  0.5466
19856WAT    EPW81231   5.733   2.002   5.535 -0.7169 -0.4752  0.5777
19857WAT      O81232  -1.842   3.697   5.192  0.6198  0.8534  0.0319
19857WAT     H181233  -1.844   3.692   5.096  4.5127  0.7898 -0.2067
19857WAT     H281234  -1.879   3.783   5.212  1.8182  1.8506 -1.7450
19857WAT    EPW81235  -1.847   3.708   5.182  1.2913  0.9764 -0.2339
19858WAT      O81236   0.367   8.615   2.215 -0.0414  0.1725  0.0324
19858WAT     H181237   0.289   8.610   2.269  0.0410  1.0820  0.2475
19858WAT     H281238   0.440   8.615   2.277  0.0364  1.7736 -0.0190
19858WAT    EPW81239   0.367   8.614   2.230 -0.0203  0.5035  0.0539
19859WAT      O81240   0.246   1.344   2.046 -0.1499  0.2602  0.1486
19859WAT     H181241   0.208   1.385   1.968 -1.6855 -0.3030  0.5636
19859WAT     H281242   0.264   1.417   2.105 -3.3839  0.4484  1.1093
19859WAT    EPW81243   0.243   1.359   2.044 -0.7790  0.2108  0.3301
19860WAT      O81244   8.789   2.030   0.914  0.1320  0.6599 -0.1646
19860WAT     H181245   8.874   2.010   0.954  0.9585  1.1889 -1.5957
19860WAT     H281246   8.725   2.010   0.983  1.4175  0.4271  1.0042
19860WAT    EPW81247   8.792   2.024   0.929  0.4106  0.6990 -0.1992
19861WAT      O81248  -2.028   8.890   5.738 -0.1573 -0.5856  0.0682
19861WAT     H181249  -1.960   8.841   5.784 -0.6099 -1.1173  0.1770
19861WAT     H281250  -1.981   8.964   5.699  0.4884 -0.9556  0.1158
19861WAT    EPW81251  -2.013   8.893   5.739 -0.1318 -0.7043  0.0889
19862WAT      O81252  -3.099   7.342   1.501  0.1716  0.8162 -0.2119
19862WAT     H181253  -3.101   7.370   1.409  1.2299  2.6827  0.2644
19862WAT     H281254  -3.021   7.384   1.537  1.6295 -2.5045  0.7988
19862WAT    EPW81255  -3.089   7.351   1.494  0.5034  0.6247 -0.0157
19863WAT      O81256   3.062   2.080   4.373 -0.2920  0.0334 -0.0059
19863WAT     H181257   3.045   2.133   4.295 -0.4444 -1.5263 -1.0912
19863WAT     H281258   3.105   2.139   4.434  0.0599  1.2364 -1.3738
19863WAT    EPW81259   3.065   2.095   4.370 -0.2657 -0.0137 -0.3297
19864WAT      O81260   4.658   9.979   4.383 -0.0109 -0.1604 -0.0043
19864WAT     H181261   4.630   9.995   4.473 -0.3447 -0.5385 -0.0361
19864WAT     H281262   4.595   9.914   4.350  0.9947 -1.1596 -0.0309
19864WAT    EPW81263   4.646   9.972   4.390  0.0775 -0.3424 -0.0119
19865WAT      O81264  -0.857   3.678   6.042  0.5638  0.9776 -0.4423
19865WAT     H181265  -0.770   3.707   6.068  1.6312 -1.3138 -1.1807
19865WAT     H281266  -0.842   3.596   5.995 -2.1966 -1.0933  1.8856
19865WAT    EPW81267  -0.844   3.671   6.039  0.3405  0.4022 -0.2327
19866WAT      O81268   0.294   8.367   0.428  0.2771  0.1428  0.0131
19866WAT     H181269   0.335   8.450   0.451 -0.8083  0.4981  0.7784
19866WAT     H281270   0.224   8.392   0.367  2.4325 -0.6693 -3.0104
19866WAT    EPW81271   0.290   8.381   0.423  0.4182  0.0830 -0.2847
19867WAT      O81272   9.328   2.832   0.379 -0.3280  0.4845  0.0675
19867WAT     H181273   9.291   2.828   0.468 -2.4669  1.7385 -0.6861
19867WAT     H281274   9.286   2.909   0.339  1.4809  0.6612 -1.6682
19867WAT    EPW81275   9.318   2.842   0.386 -0.3715  0.6733 -0.2608
19868WAT      O81276  -1.588   0.819   8.560  0.0564 -0.1658 -0.7168
19868WAT     H181277  -1.583   0.735   8.516  3.2711 -0.1863 -0.5163
19868WAT     H281278  -1.651   0.805   8.631 -0.6115 -1.9152 -1.6082
19868WAT    EPW81279  -1.596   0.806   8.564  0.3923 -0.3993 -0.8078
19869WAT      O81280  -0.996   7.484   6.437 -0.3300 -0.2545 -0.5263
19869WAT     H181281  -1.015   7.479   6.343  2.4462  2.0127 -1.3744
19869WAT     H281282  -0.937   7.410   6.453  0.2957  0.1508 -0.9238
19869WAT    EPW81283  -0.990   7.474   6.427  0.1186  0.0978 -0.6907
19870WAT      O81284   2.933   8.068   5.154  0.0492  0.0142  0.1489
19870WAT     H181285   2.896   8.156   5.140 -0.2312 -0.1780 -0.3404
19870WAT     H281286   3.012   8.067   5.101  1.4108  0.8073  2.0340
19870WAT    EPW81287   2.938   8.080   5.145  0.1919  0.0935  0.3328
19871WAT      O81288  -5.947   8.482   6.841  0.3170 -0.3596 -0.6137
19871WAT     H181289  -5.998   8.539   6.782 -0.6319  0.4367  0.9178
19871WAT     H281290  -5.923   8.408   6.786 -3.5156 -1.3909 -1.2397
19871WAT    EPW81291  -5.951   8.480   6.826 -0.3138 -0.3905 -0.4942
19872WAT      O81292   1.290   2.913   3.075 -0.3215 -0.3064 -0.6985
19872WAT     H181293   1.284   2.895   3.169 -0.1239  1.5082 -0.3021
19872WAT     H281294   1.370   2.868   3.048  0.3684  0.2486  0.3088
19872WAT    EPW81295   1.300   2.905   3.084 -0.2044  0.0061 -0.5133
19873WAT      O81296  -2.763   8.464   0.634  0.4350  0.1432 -0.6879
19873WAT     H181297  -2.679   8.491   0.596  0.2774  1.7232  0.0368
19873WAT     H281298  -2.829   8.504   0.578  0.1599 -0.3490 -0.7248
19873WAT    EPW81299  -2.760   8.473   0.622  0.3779  0.2866 -0.5972
19874WAT      O81300   5.214   2.586   7.480 -0.0490 -0.1520  0.2317
19874WAT     H181301   5.180   2.634   7.405 -1.3597 -0.0220  0.8869
19874WAT     H281302   5.186   2.636   7.556 -1.5643 -1.9782  0.9421
19874WAT    EPW81303   5.206   2.599   7.480 -0.4218 -0.3756  0.4117
19875WAT      O81304  -4.956   1.778   7.171 -1.0554 -0.1421  0.0164
19875WAT     H181305  -5.051   1.785   7.160 -1.4605 -2.8534  1.1183
19875WAT     H281306  -4.944   1.701   7.226  1.8389 -0.1983 -0.5599
19875WAT    EPW81307  -4.967   1.769   7.177 -0.7272 -0.5072  0.0854
19876WAT      O81308  -0.802   3.048   5.653  0.5172 -0.1840  0.3767
19876WAT     H181309  -0.847   3.026   5.735 -0.3766  0.8241  0.1786
19876WAT     H281310  -0.731   3.107   5.679 -2.0725  3.3579  0.1586
19876WAT    EPW81311  -0.799   3.053   5.667  0.0578  0.4160  0.3216
19877WAT      O81312  -0.067   6.919   3.970 -0.3564 -0.7635 -1.0709
19877WAT     H181313  -0.039   6.990   4.028  0.8840 -0.6735 -1.7462
19877WAT     H281314  -0.080   6.844   4.028 -1.1475 -0.1499 -0.4237
19877WAT    EPW81315  -0.065   6.918   3.985 -0.2971 -0.6709 -1.0747
19878WAT      O81316   2.612   2.017   5.438 -0.4482 -0.2379 -0.5688
19878WAT     H181317   2.534   1.989   5.485 -0.4023  3.0086  1.8176
19878WAT     H281318   2.676   2.037   5.507 -0.1313  4.2168 -1.8199
19878WAT    EPW81319   2.610   2.016   5.453 -0.4004  0.7778 -0.4189
19879WAT      O81320   0.287   9.387   8.884  0.1854  0.3460 -0.2270
19879WAT     H181321   0.337   9.468   8.877 -1.5746  1.4765 -0.2910
19879WAT     H281322   0.274   9.376   8.978  0.9680 -0.2330 -0.1774
19879WAT    EPW81323   0.292   9.396   8.896  0.0565  0.4187 -0.2289
19880WAT      O81324  -0.446   4.300   4.104 -0.0873  0.4743  0.2758
19880WAT     H181325  -0.437   4.369   4.169  0.6188  0.3518  0.3227
19880WAT     H281326  -0.377   4.319   4.040 -0.2971  0.1752 -0.0386
19880WAT    EPW81327  -0.435   4.311   4.104 -0.0219  0.4187  0.2406
19881WAT      O81328   2.971   1.971   0.178  0.3892 -0.0609 -0.0091
19881WAT     H181329   3.005   1.896   0.227  0.0980 -1.0506 -1.2818
19881WAT     H281330   3.047   2.027   0.163  0.6994 -0.3376  0.5042
19881WAT    EPW81331   2.985   1.969   0.183  0.3917 -0.2280 -0.1093
19882WAT      O81332  -0.055   6.722   8.315  0.4931 -0.0138  0.1275
19882WAT     H181333  -0.141   6.723   8.358  0.4253  1.0412 -0.0190
19882WAT     H281334  -0.035   6.814   8.299  1.8561 -0.2175  0.5437
19882WAT    EPW81335  -0.064   6.734   8.319  0.6639  0.0985  0.1631
19883WAT      O81336  -0.628   9.659   2.792 -0.7821 -0.1046  0.4348
19883WAT     H181337  -0.533   9.671   2.782 -1.0446 -0.1964 -4.2334
19883WAT     H281338  -0.636   9.587   2.854  2.0910  0.6830  1.9159
19883WAT    EPW81339  -0.616   9.651   2.799 -0.4377 -0.0129  0.0145
19884WAT      O81340  -2.962   5.597   4.729 -0.1112  0.2173 -0.4751
19884WAT     H181341  -2.869   5.610   4.711 -0.4551  2.4186 -0.8982
19884WAT     H281342  -2.998   5.685   4.734 -2.0263 -0.5745  0.5966
19884WAT    EPW81343  -2.954   5.610   4.727 -0.4091  0.4032 -0.3898
19885WAT      O81344  -1.952   5.865   0.581 -0.3243  0.2589 -0.5151
19885WAT     H181345  -1.946   5.951   0.539  0.0395  0.0883 -0.8112
19885WAT     H281346  -1.893   5.871   0.656 -1.1127  0.6253  0.0931
19885WAT    EPW81347  -1.944   5.877   0.585 -0.3803  0.2847 -0.4739
19886WAT      O81348  -3.359   7.734   4.243  0.3865  0.1541 -1.2087
19886WAT     H181349  -3.452   7.714   4.256  0.6569  0.3062  1.6757
19886WAT     H281350  -3.355   7.830   4.245  0.6927  0.1306 -0.2579
19886WAT    EPW81351  -3.371   7.744   4.245  0.4625  0.1709 -0.7029
19887WAT      O81352   4.563   4.768   2.312  0.2395 -0.0836 -0.0512
19887WAT     H181353   4.477   4.804   2.335  0.4052 -0.4175  1.1733
19887WAT     H281354   4.543   4.687   2.265 -0.1098  0.3692 -0.7145
19887WAT    EPW81355   4.549   4.762   2.309  0.2155 -0.0679  0.0228
19888WAT      O81356   7.031   2.672   1.233  0.0785 -0.3491 -0.4450
19888WAT     H181357   7.082   2.687   1.153  2.1314 -1.2961  0.6232
19888WAT     H281358   6.940   2.690   1.207  0.8588  0.8714 -2.5626
19888WAT    EPW81359   7.026   2.677   1.219  0.4523 -0.3130 -0.5834
19889WAT      O81360  -6.216   9.752   7.078 -0.2235  0.0927  0.4507
19889WAT     H181361  -6.222   9.672   7.130 -1.9633 -0.1640 -0.0633
19889WAT     H281362  -6.161   9.811   7.130 -1.9804 -0.0910  2.7031
19889WAT    EPW81363  -6.210   9.750   7.092 -0.6847  0.0348  0.6800
19890WAT      O81364   1.217   4.803   4.780  0.1385  0.3939 -0.4315
19890WAT     H181365   1.249   4.754   4.703 -0.0396 -1.7505  0.7690
19890WAT     H281366   1.125   4.817   4.762  0.8797  3.6485 -2.4108
19890WAT    EPW81367   1.209   4.798   4.767  0.2128  0.5405 -0.5341
19891WAT      O81368   1.435   5.112   1.334 -0.4658 -0.9468 -0.5090
19891WAT     H181369   1.455   5.117   1.241  1.5435 -2.9576 -0.2774
19891WAT     H281370   1.458   5.198   1.369  0.5351 -0.7467 -1.5959
19891WAT    EPW81371   1.441   5.124   1.327 -0.0688 -1.1859 -0.6219
19892WAT      O81372   0.009   4.583   2.544  0.4198 -0.4441  0.4632
19892WAT     H181373   0.062   4.537   2.610 -1.2908 -2.7462  0.3472
19892WAT     H281374   0.035   4.675   2.553  1.3271 -0.8607  3.3194
19892WAT    EPW81375   0.020   4.589   2.554  0.3138 -0.8025  0.8245
19893WAT      O81376   0.327   3.477   4.936  0.9370  0.9144 -0.8530
19893WAT     H181377   0.255   3.476   4.874  0.2646  0.3706 -0.0843
19893WAT     H281378   0.303   3.545   5.000  0.8511  0.3777 -0.3096
19893WAT    EPW81379   0.315   3.486   4.936  0.8370  0.7718 -0.6800
19894WAT      O81380   0.929   2.631   4.115 -0.0719 -0.4707 -0.0144
19894WAT     H181381   1.017   2.639   4.152  1.0318  0.2183 -2.5581
19894WAT     H281382   0.871   2.671   4.181  1.2694 -2.1638  2.3421
19894WAT    EPW81383   0.933   2.638   4.129  0.2506 -0.6032 -0.0389
19895WAT      O81384   2.834   2.376   3.323  0.1988 -0.3280 -0.3957
19895WAT     H181385   2.892   2.443   3.358 -0.1239 -1.1870  1.9865
19895WAT     H281386   2.811   2.322   3.399 -1.0811 -1.9836 -1.8656
19895WAT    EPW81387   2.839   2.377   3.338 -0.0126 -0.6597 -0.2754
19896WAT      O81388  -1.709   4.392   6.199  1.2015 -0.6376 -0.4936
19896WAT     H181389  -1.726   4.310   6.153 -2.5125 -0.4152  0.1636
19896WAT     H281390  -1.709   4.459   6.131  2.4912 -0.9554 -0.8314
19896WAT    EPW81391  -1.711   4.390   6.184  0.8818 -0.6502 -0.4516
19897WAT      O81392  -2.183   8.240   8.865 -0.2979  0.2954  0.1673
19897WAT     H181393  -2.199   8.170   8.927 -0.6078  0.4953  0.3185
19897WAT     H281394  -2.211   8.205   8.780  1.8077 -0.6311 -0.2051
19897WAT    EPW81395  -2.189   8.226   8.862 -0.0612  0.1998  0.1383
19898WAT      O81396   2.659   6.019   5.586 -0.0633 -0.1154 -0.0294
19898WAT     H181397   2.586   6.065   5.628 -0.4839 -1.1513  0.4180
19898WAT     H281398   2.728   6.019   5.652 -0.8245 -1.9968  0.8384
19898WAT    EPW81399   2.658   6.025   5.600 -0.2192 -0.5002  0.1440
19899WAT      O81400   3.060   1.662   5.162 -0.0199 -1.1709  0.1082
19899WAT     H181401   3.141   1.650   5.212 -0.6998  0.7169  1.8092
19899WAT     H281402   2.991   1.655   5.228 -1.2541 -2.2399 -1.2248
19899WAT    EPW81403   3.061   1.659   5.178 -0.2724 -1.0629  0.1566
19900WAT      O81404  -0.789   5.377   8.164  0.1664 -0.1710  0.5785
19900WAT     H181405  -0.864   5.436   8.165  1.0405  0.9927  1.2395
19900WAT     H281406  -0.819   5.298   8.209 -2.5952 -2.4426 -4.4847
19900WAT    EPW81407  -0.803   5.374   8.170 -0.0826 -0.3173 -0.0019
19901WAT      O81408  -2.625   6.225   0.916  0.3663  0.5194  0.7661
19901WAT     H181409  -2.706   6.174   0.909  1.3317 -1.3712  2.2388
19901WAT     H281410  -2.654   6.310   0.950 -1.5064  1.7805 -3.4011
19901WAT    EPW81411  -2.640   6.230   0.920  0.2466  0.4365  0.4107
19902WAT      O81412   0.099   6.718   4.799 -0.7146 -0.1267  0.3459
19902WAT     H181413   0.139   6.721   4.712  0.3722  0.6322  0.8485
19902WAT     H281414   0.064   6.629   4.807  1.9522 -1.2469  0.3390
19902WAT    EPW81415   0.099   6.707   4.789 -0.2195 -0.1743  0.4113
19903WAT      O81416   4.482   2.444   5.309  0.0647 -0.2344 -0.1473
19903WAT     H181417   4.458   2.536   5.318 -2.5458 -1.0384  3.5909
19903WAT     H281418   4.567   2.438   5.352 -0.0757  0.3695  0.2438
19903WAT    EPW81419   4.490   2.455   5.316 -0.2980 -0.2607  0.3972
19904WAT      O81420  -0.646   6.444   6.568 -0.6306 -0.1000  0.2758
19904WAT     H181421  -0.651   6.537   6.548  1.4624  0.1453  0.7179
19904WAT     H281422  -0.681   6.401   6.490 -1.3100  1.0234 -0.0667
19904WAT    EPW81423  -0.651   6.451   6.555 -0.4442  0.0806  0.2890
19905WAT      O81424  -5.278   7.803   4.708  0.0344  0.1691 -0.2688
19905WAT     H181425  -5.307   7.818   4.618  2.1648  0.8182 -0.9290
19905WAT     H281426  -5.235   7.717   4.705 -0.1275  0.0665  0.2070
19905WAT    EPW81427  -5.276   7.793   4.696  0.2942  0.2413 -0.2933
19906WAT      O81428   8.985   0.800   2.463 -0.5980 -0.0731  0.1028
19906WAT     H181429   9.074   0.829   2.447 -0.1690 -2.6427 -3.0067
19906WAT     H281430   8.989   0.756   2.548  1.6530 -1.9035 -0.8609
19906WAT    EPW81431   8.997   0.798   2.472 -0.2446 -0.6534 -0.4345
19907WAT      O81432   2.206   0.901   5.922  0.5236  0.3163 -0.3378
19907WAT     H181433   2.140   0.956   5.880  0.4441  0.8562  0.4834
19907WAT     H281434   2.221   0.831   5.859  0.7721  1.3709 -1.4821
19907WAT    EPW81435   2.199   0.899   5.908  0.5459  0.5266 -0.3805
19908WAT      O81436  -2.307   5.492   7.528  0.0630  0.0694 -0.0619
19908WAT     H181437  -2.383   5.434   7.529 -0.5853  0.9064  0.2299
19908WAT     H281438  -2.268   5.482   7.615  1.7300 -2.1579 -0.9444
19908WAT    EPW81439  -2.312   5.483   7.540  0.1973 -0.1140 -0.1400
19909WAT      O81440  -3.100   5.222   8.174  0.0163 -0.6499  0.3371
19909WAT     H181441  -3.161   5.174   8.229 -0.3119 -1.0376 -0.3668
19909WAT     H281442  -3.018   5.221   8.224 -0.0342 -1.7717  0.4256
19909WAT    EPW81443  -3.097   5.216   8.188 -0.0336 -0.8488  0.2565
19910WAT      O81444   1.207  10.134   0.743  0.0624  0.0219 -0.0854
19910WAT     H181445   1.204  10.050   0.697  0.1447  0.2128 -0.4371
19910WAT     H281446   1.272  10.186   0.695  0.8144 -0.0920  0.7701
19910WAT    EPW81447   1.216  10.130   0.731  0.1724  0.0319 -0.0190
19911WAT      O81448   6.234   5.998   3.507 -0.1248 -0.2366  0.4406
19911WAT     H181449   6.157   5.942   3.506 -0.6994  0.5195  0.6769
19911WAT     H281450   6.258   6.009   3.415  0.6030 -1.6492  0.4376
19911WAT    EPW81451   6.227   5.992   3.495 -0.1044 -0.3231  0.4715
19912WAT      O81452   3.187   7.606   6.488  0.1674 -0.0511  0.4611
19912WAT     H181453   3.270   7.582   6.530  0.4993 -0.1673 -0.2404
19912WAT     H281454   3.132   7.528   6.497 -0.2185  0.3614  1.7814
19912WAT    EPW81455   3.191   7.592   6.495  0.1603 -0.0122  0.5426
19913WAT      O81456  -0.526   5.349   2.923  0.1925 -0.0052 -0.0683
19913WAT     H181457  -0.571   5.345   3.008  1.4618 -1.6134  0.5831
19913WAT     H281458  -0.433   5.352   2.946  0.5291  0.0436 -1.4068
19913WAT    EPW81459  -0.520   5.349   2.938  0.4043 -0.2108 -0.1590
19914WAT      O81460   5.370   4.458   0.104  0.5446  0.4610  0.5657
19914WAT     H181461   5.303   4.494   0.046  1.0706 -0.5378 -0.7232
19914WAT     H281462   5.449   4.506   0.081  1.5341 -2.1243 -2.0138
19914WAT    EPW81463   5.372   4.469   0.093  0.7446 -0.0119  0.0555
19915WAT      O81464  -6.553   6.488   7.680  0.3533 -0.3690 -0.0194
19915WAT     H181465  -6.541   6.529   7.765 -2.4659 -2.5681  1.6368
19915WAT     H281466  -6.610   6.548   7.632 -0.3990 -0.4156  0.7910
19915WAT    EPW81467  -6.559   6.501   7.685 -0.1178 -0.6649  0.3059
19916WAT      O81468  -2.485   9.774   1.728 -0.1155  0.1449 -0.1847
19916WAT     H181469  -2.566   9.793   1.776  0.4297  0.3423  0.6979
19916WAT     H281470  -2.469   9.852   1.676 -1.8484 -0.8749 -2.4225
19916WAT    EPW81471  -2.494   9.787   1.728 -0.2722  0.0367 -0.3635
19917WAT      O81472  -6.487   8.536   8.702  0.4139  0.5998  0.2396
19917WAT     H181473  -6.572   8.579   8.713  0.6693  0.8161  1.4967
19917WAT     H281474  -6.501   8.447   8.735 -0.0151 -0.2280 -2.0180
19917WAT    EPW81475  -6.500   8.530   8.708  0.3910  0.5188  0.1073
19918WAT      O81476   5.768   0.695   4.079  0.1132 -0.6793 -0.5065
19918WAT     H181477   5.700   0.629   4.088 -0.0506 -0.5281 -0.6116
19918WAT     H281478   5.736   0.770   4.129  1.1854 -1.3399  1.2360
19918WAT    EPW81479   5.755   0.696   4.087  0.2332 -0.7465 -0.2904
19919WAT      O81480  -0.383   1.173   7.026 -0.6028 -0.2559  0.0737
19919WAT     H181481  -0.343   1.210   7.104 -2.4623  0.6863  0.6374
19919WAT     H281482  -0.337   1.215   6.953 -0.2088  0.3725  0.6752
19919WAT    EPW81483  -0.372   1.183   7.026 -0.7961 -0.0488  0.2272
19920WAT      O81484   2.446   8.531   4.946 -0.1415  0.1149  0.8071
19920WAT     H181485   2.360   8.489   4.942  1.1485 -2.6993 -0.2593
19920WAT     H281486   2.481   8.504   5.031  0.9476 -1.6717 -0.1459
19920WAT    EPW81487   2.439   8.522   4.957  0.1723 -0.4916  0.5407
19921WAT      O81488   0.875   6.274   3.226  0.3737  0.0509  0.1861
19921WAT     H181489   0.963   6.283   3.189  0.6604 -0.8839  0.6241
19921WAT     H281490   0.835   6.360   3.213  0.5725 -0.1419 -2.0010
19921WAT    EPW81491   0.882   6.287   3.220  0.4377 -0.0980 -0.0446
19922WAT      O81492  -1.811   6.072   5.520 -0.2035  0.2103 -0.8290
19922WAT     H181493  -1.842   6.147   5.570 -0.1602 -0.4885  0.2883
19922WAT     H281494  -1.885   6.011   5.520  0.1579 -0.2345 -0.7027
19922WAT    EPW81495  -1.825   6.074   5.527 -0.1501  0.0594 -0.6649
19923WAT      O81496   5.893   6.745   0.658 -0.2008 -0.4566 -0.8401
19923WAT     H181497   5.875   6.825   0.708  1.7763  1.1785 -2.5637
19923WAT     H281498   5.809   6.699   0.655 -1.3222  1.3880  0.4929
19923WAT    EPW81499   5.879   6.750   0.664 -0.0877  0.0024 -0.8917
19924WAT      O81500  -1.074   4.070   0.912  0.5133 -0.5874  0.3213
19924WAT     H181501  -1.080   3.992   0.967  0.1103 -0.0683  1.0353
19924WAT     H281502  -1.097   4.040   0.825 -3.0356 -0.6470  1.1590
19924WAT    EPW81503  -1.078   4.056   0.908 -0.0080 -0.5267  0.5260
19925WAT      O81504   3.898   9.627   0.429 -0.3499 -0.0895 -0.0652
19925WAT     H181505   3.824   9.571   0.409 -1.3673  0.5700  1.6641
19925WAT     H281506   3.972   9.567   0.438 -0.6130 -0.7513 -1.8438
19925WAT    EPW81507   3.898   9.612   0.428 -0.5188 -0.0896 -0.0717
19926WAT      O81508  -0.683   6.258   2.391 -0.6670  0.3604 -0.6067
19926WAT     H181509  -0.763   6.230   2.435  0.9995 -2.1382  1.0997
19926WAT     H281510  -0.635   6.307   2.458 -0.2915  0.8851 -1.2531
19926WAT    EPW81511  -0.687   6.261   2.406 -0.3977  0.1001 -0.4669
19927WAT      O81512   3.789   0.097   2.060 -0.2872  0.4517 -1.0468
19927WAT     H181513   3.696   0.087   2.039 -0.0120 -1.2239 -1.5866
19927WAT     H281514   3.801   0.047   2.141 -0.0358  1.5279 -0.3932
19927WAT    EPW81515   3.778   0.089   2.068 -0.2178  0.3727 -1.0319
19928WAT      O81516   3.871   6.056   7.318 -0.6572  0.2308  0.1168
19928WAT     H181517   3.853   6.093   7.232 -0.9980  0.8105  0.4312
19928WAT     H281518   3.864   6.131   7.378 -2.7617 -0.5402  0.9517
19928WAT    EPW81519   3.867   6.071   7.315 -0.9797  0.2060  0.2685
19929WAT      O81520   1.469   1.469   2.911  0.3950 -0.0509  0.0562
19929WAT     H181521   1.560   1.487   2.936 -0.0304  0.0101  1.6667
19929WAT     H281522   1.446   1.539   2.850  2.3979 -1.8243 -3.0089
19929WAT    EPW81523   1.478   1.480   2.907  0.6031 -0.2768 -0.1357
19930WAT      O81524   6.699   2.177   1.465 -0.5192  0.2491  1.2694
19930WAT     H181525   6.677   2.267   1.487 -0.4663  1.1728 -1.9674
19930WAT     H281526   6.616   2.138   1.438  0.1230  1.0154 -2.2868
19930WAT    EPW81527   6.685   2.184   1.464 -0.4275  0.4721  0.3734
19931WAT      O81528   2.862   3.897   4.445  0.0782 -0.0243 -0.2539
19931WAT     H181529   2.824   3.850   4.519 -0.2381 -1.1796 -1.1191
19931WAT     H281530   2.947   3.854   4.431 -0.4635 -0.7852 -1.4160
19931WAT    EPW81531   2.868   3.885   4.453 -0.0349 -0.2770 -0.5212
19932WAT      O81532  -2.677   7.939   4.004  0.6380 -0.3045  0.8605
19932WAT     H181533  -2.653   7.930   3.912 -0.6909  1.0463  0.3365
19932WAT     H281534  -2.718   7.856   4.027  0.7569 -0.5598  0.1642
19932WAT    EPW81535  -2.679   7.927   3.995  0.4784 -0.1600  0.6994
19933WAT      O81536  -1.939   2.194   3.619 -0.0744  0.7784 -0.2231
19933WAT     H181537  -1.896   2.262   3.567  0.6203 -0.3858 -1.2194
19933WAT     H281538  -1.935   2.226   3.709  0.2079  2.0572 -0.6755
19933WAT    EPW81539  -1.933   2.207   3.624  0.0544  0.7936 -0.4140
19934WAT      O81540   1.734   0.610   4.232  0.1718  0.0340 -0.1001
19934WAT     H181541   1.729   0.559   4.313 -1.3037  0.6612  0.2364
19934WAT     H281542   1.806   0.672   4.248  0.5103 -0.4651  0.3503
19934WAT    EPW81543   1.743   0.612   4.245  0.0218  0.0509  0.0038
19935WAT      O81544  -4.348   7.594   4.620 -0.2919 -0.5946  0.1881
19935WAT     H181545  -4.265   7.547   4.626 -0.4300 -0.9633 -0.6196
19935WAT     H281546  -4.397   7.546   4.553 -1.0242 -0.1806  0.4220
19935WAT    EPW81547  -4.343   7.581   4.612 -0.4070 -0.5887  0.1125
19936WAT      O81548  -1.771   5.701   7.215 -0.2876  0.0473 -0.2777
19936WAT     H181549  -1.694   5.758   7.210  1.0979 -1.7187 -0.1838
19936WAT     H281550  -1.760   5.639   7.143 -0.0726 -2.0029  1.4154
19936WAT    EPW81551  -1.759   5.701   7.205 -0.0765 -0.4559 -0.0420
19937WAT      O81552  -4.371   8.476   6.288  0.7945  0.2434  0.1317
19937WAT     H181553  -4.385   8.500   6.196  0.8285  2.1644  0.5868
19937WAT     H281554  -4.294   8.526   6.314  0.5728  0.0012  1.3172
19937WAT    EPW81555  -4.363   8.486   6.279  0.7699  0.4649  0.3483
19938WAT      O81556  -0.662   0.331   2.713  0.8902  0.4303 -0.7691
19938WAT     H181557  -0.585   0.283   2.683  0.7511  0.3082 -0.9352
19938WAT     H281558  -0.629   0.389   2.782  0.8457 -0.8761  0.4010
19938WAT    EPW81559  -0.648   0.332   2.718  0.8660  0.2419 -0.6367
19939WAT      O81560  -0.555   8.936   1.076 -0.1987 -0.0769 -0.0134
19939WAT     H181561  -0.476   8.883   1.083  0.2588  0.5864 -0.0309
19939WAT     H281562  -0.619   8.892   1.132  0.3045 -0.4028  0.3085
19939WAT    EPW81563  -0.553   8.924   1.084 -0.0720 -0.0319  0.0268
19940WAT      O81564   1.740   1.802   3.504  0.3352 -0.8911 -0.1566
19940WAT     H181565   1.816   1.758   3.542  0.9854 -0.3579 -0.8080
19940WAT     H281566   1.682   1.730   3.477  1.7585 -1.4434 -1.9979
19940WAT    EPW81567   1.743   1.787   3.506  0.6087 -0.8936 -0.4853
19941WAT      O81568  -4.985   7.694   5.907  0.3391 -0.1728  0.2513
19941WAT     H181569  -5.053   7.659   5.964 -0.3766  0.8500  0.0561
19941WAT     H281570  -5.003   7.788   5.903  0.3165 -0.2144 -1.7074
19941WAT    EPW81571  -4.996   7.702   5.914  0.2418 -0.0434 -0.0327
19942WAT      O81572  -1.201   1.874   3.497 -0.9313 -0.5151 -0.8582
19942WAT     H181573  -1.135   1.819   3.539 -1.2518  0.2066  0.6695
19942WAT     H281574  -1.182   1.867   3.403  0.9725 -0.7747 -0.5049
19942WAT    EPW81575  -1.189   1.866   3.490 -0.7225 -0.4541 -0.6101
19943WAT      O81576   5.180   1.010   6.657  0.8616  0.0451 -0.7250
19943WAT     H181577   5.227   0.997   6.575  1.1771 -0.4335 -0.4699
19943WAT     H281578   5.142   1.098   6.649  0.9949  0.0522 -1.3275
19943WAT    EPW81579   5.181   1.020   6.645  0.9208 -0.0171 -0.7708
19944WAT      O81580   1.570   6.814   5.444  0.5074  0.2495 -0.3983
19944WAT     H181581   1.632   6.819   5.371 -0.0097  2.6727 -0.7634
19944WAT     H281582   1.577   6.899   5.487 -0.8240 -0.3178  1.0142
19944WAT    EPW81583   1.579   6.826   5.440  0.2636  0.4942 -0.2601
19945WAT      O81584  -4.391   9.635   4.847  0.1069 -0.2667 -0.5616
19945WAT     H181585  -4.427   9.637   4.758 -0.9361  1.1266 -0.1386
19945WAT     H281586  -4.361   9.724   4.864  3.1324 -1.1600 -0.5717
19945WAT    EPW81587  -4.392   9.647   4.838  0.3684 -0.2007 -0.5071
19946WAT      O81588   0.458   3.607   2.227 -0.2804  0.4189  0.5350
19946WAT     H181589   0.521   3.638   2.163  1.4509 -0.5042  1.7091
19946WAT     H281590   0.476   3.659   2.306 -1.8659  1.0226  0.5486
19946WAT    EPW81591   0.468   3.618   2.229 -0.2612  0.3767  0.6917
19947WAT      O81592  -4.390   4.972   4.548 -0.3697  0.5803 -0.4477
19947WAT     H181593  -4.306   4.925   4.552 -1.1321 -0.9491 -1.2210
19947WAT     H281594  -4.409   4.978   4.454 -2.1381 -1.0918 -0.2629
19947WAT    EPW81595  -4.381   4.966   4.536 -0.7036  0.1581 -0.5250
19948WAT      O81596   2.741   3.149   8.436 -0.1137 -0.0395  0.0797
19948WAT     H181597   2.699   3.204   8.502 -2.8713 -0.4475 -1.1786
19948WAT     H281598   2.740   3.202   8.357  1.6239 -0.1695 -0.0636
19948WAT    EPW81599   2.735   3.163   8.434 -0.2482 -0.1104 -0.1054
19949WAT      O81600  -0.466  10.032   6.300 -0.3853  0.2945  0.0261
19949WAT     H181601  -0.417  10.052   6.380 -2.0459  1.9816  0.6889
19949WAT     H281602  -0.402  10.041   6.230  1.3117 -2.0149  1.1460
19949WAT    EPW81603  -0.451  10.036   6.301 -0.3805  0.2122  0.2613
19950WAT      O81604  -3.181   6.288   1.904  0.4573  0.9247 -0.6794
19950WAT     H181605  -3.142   6.206   1.933  1.3402  1.5413 -0.0920
19950WAT     H281606  -3.112   6.353   1.914 -0.9589  2.2510  1.3699
19950WAT    EPW81607  -3.167   6.285   1.910  0.3870  1.1809 -0.3316
19951WAT      O81608  -4.777   1.353   7.376  0.1569 -0.5647 -0.1675
19951WAT     H181609  -4.713   1.423   7.366  1.0756 -1.3999 -0.3627
19951WAT     H281610  -4.789   1.344   7.470  0.0040 -0.1287 -0.1427
19951WAT    EPW81611  -4.770   1.361   7.387  0.2577 -0.6174 -0.1898
19952WAT      O81612  -5.969   8.770   7.117  0.2390 -0.5486  0.3574
19952WAT     H181613  -6.016   8.690   7.139 -0.4355 -0.0042  0.9248
19952WAT     H281614  -6.016   8.840   7.163  0.5974  0.2249 -0.4034
19952WAT    EPW81615  -5.982   8.769   7.126  0.1972 -0.3748  0.3319
19953WAT      O81616   6.383   8.092   1.339 -0.1488 -0.3682  0.1032
19953WAT     H181617   6.359   8.102   1.246  3.1470  2.4411 -0.6587
19953WAT     H281618   6.443   8.018   1.340  0.7514  0.3471 -0.2560
19953WAT    EPW81619   6.388   8.083   1.327  0.4048  0.0968 -0.0447
19954WAT      O81620   3.151   9.159   5.822 -0.3136 -0.1551  0.2693
19954WAT     H181621   3.098   9.172   5.901  2.1688 -1.6417  2.3413
19954WAT     H281622   3.235   9.200   5.843  0.2679 -0.1405 -1.8703
19954WAT    EPW81623   3.155   9.166   5.836  0.0904 -0.3495  0.2601
19955WAT      O81624   4.732   6.968   0.208  0.1693  0.1098  0.4359
19955WAT     H181625   4.759   6.882   0.239  0.0019  0.6267  2.1597
19955WAT     H281626   4.645   6.982   0.247  0.6504  1.4711  1.1146
19955WAT    EPW81627   4.724   6.959   0.217  0.2108  0.3579  0.7528
19956WAT      O81628   4.785   2.287   4.038 -0.2795 -0.1439  0.2697
19956WAT     H181629   4.872   2.249   4.039 -1.0172 -1.9658 -0.5706
19956WAT     H281630   4.729   2.220   3.999 -1.7510  1.6343 -0.9187
19956WAT    EPW81631   4.789   2.273   4.033 -0.5708 -0.1496  0.0021
19957WAT      O81632   5.378   1.616   0.990 -0.0702  0.6417 -0.0323
19957WAT     H181633   5.300   1.575   1.027 -1.0682  4.4803  2.7635
19957WAT     H281634   5.351   1.648   0.904 -0.0759 -1.7943 -1.0340
19957WAT    EPW81635   5.364   1.615   0.984 -0.2024  0.8267  0.2044
19958WAT      O81636  -0.573   8.981   7.905  0.4476 -0.1301 -0.2635
19958WAT     H181637  -0.531   9.061   7.874  1.3183  0.6767  2.6875
19958WAT     H281638  -0.507   8.939   7.960 -0.6754 -1.8872 -0.1823
19958WAT    EPW81639  -0.559   8.986   7.908  0.4143 -0.2556  0.1361
19959WAT      O81640  -5.003  10.117   5.488 -0.8449 -0.1035 -0.4494
19959WAT     H181641  -4.948  10.059   5.436 -0.3744 -0.2853  0.2363
19959WAT     H281642  -5.091  10.104   5.454 -0.7057 -1.0470 -0.4647
19959WAT    EPW81643  -5.007  10.108   5.477 -0.7644 -0.2518 -0.3612
19960WAT      O81644  -0.730   2.282   8.920 -0.5925  0.0186 -0.4420
19960WAT     H181645  -0.779   2.225   8.861 -2.0314 -1.3240  1.9286
19960WAT     H281646  -0.639   2.256   8.909 -0.7757  0.0192 -2.2388
19960WAT    EPW81647  -0.724   2.271   8.911 -0.8065 -0.1583 -0.3662
19961WAT      O81648  -0.983   5.369   8.765  0.3972 -0.4594 -0.1329
19961WAT     H181649  -0.968   5.378   8.671  0.0583 -2.1166 -0.3736
19961WAT     H281650  -0.915   5.422   8.806  2.1671 -1.7390 -1.2852
19961WAT    EPW81651  -0.972   5.377   8.758  0.5860 -0.8466 -0.3171
19962WAT      O81652   3.145   8.366   4.352  0.5150  0.7748  0.2888
19962WAT     H181653   3.099   8.450   4.354 -0.2644  0.3445  1.1135
19962WAT     H281654   3.157   8.342   4.444 -1.5507 -1.1944  0.1581
19962WAT    EPW81655   3.141   8.374   4.364  0.1397  0.4582  0.3803
19963WAT      O81656   7.809   3.956   1.181  0.4183  0.1791  0.3637
19963WAT     H181657   7.815   3.863   1.199 -0.1961  0.0187 -0.1977
19963WAT     H281658   7.723   3.967   1.140  1.2596  0.6739 -1.3832
19963WAT    EPW81659   7.798   3.945   1.178  0.4480  0.2232  0.0592
19964WAT      O81660   2.804   8.779   0.309  0.0762  0.7467 -0.0674
19964WAT     H181661   2.726   8.811   0.353 -0.7212 -1.0607 -0.0819
19964WAT     H281662   2.877   8.820   0.356 -0.8315  2.8476 -0.3586
19964WAT    EPW81663   2.803   8.789   0.321 -0.1488  0.7854 -0.1077
19965WAT      O81664  -1.571   7.182   2.272  0.5151 -0.5218  0.0711
19965WAT     H181665  -1.613   7.204   2.355  1.9488  0.1366  0.6609
19965WAT     H281666  -1.491   7.235   2.270  0.0455  0.2306 -2.1966
19965WAT    EPW81667  -1.566   7.192   2.282  0.6423 -0.3359 -0.1502
19966WAT      O81668  -0.172   3.233   0.170 -0.1023 -0.1280 -0.1880
19966WAT     H181669  -0.091   3.189   0.143  1.0788  1.9769 -0.3232
19966WAT     H281670  -0.150   3.274   0.254 -0.9154  0.6911 -0.3591
19966WAT    EPW81671  -0.158   3.233   0.177 -0.0538  0.2577 -0.2284
19967WAT      O81672   3.602   9.465   4.055  0.3319 -0.4040 -0.0501
19967WAT     H181673   3.523   9.512   4.029  0.7125  1.0001  1.1626
19967WAT     H281674   3.596   9.460   4.150  1.4124 -0.8068  0.0115
19967WAT    EPW81675   3.591   9.470   4.064  0.5245 -0.2718  0.1180
19968WAT      O81676  -6.779  10.302   6.735  0.1293 -0.4506 -0.3582
19968WAT     H181677  -6.838  10.344   6.672 -0.0969  0.4076  0.4107
19968WAT     H281678  -6.691  10.328   6.707 -0.0229  1.0248  0.4050
19968WAT    EPW81679  -6.775  10.311   6.723  0.0794 -0.1426 -0.1562
19969WAT      O81680   1.906   5.330   8.172  0.6720  0.2155 -0.6104
19969WAT     H181681   1.967   5.342   8.099 -0.1651  1.0426 -1.2021
19969WAT     H281682   1.820   5.350   8.135 -0.1557 -2.1066 -0.1155
19969WAT    EPW81683   1.903   5.334   8.157  0.4525  0.0181 -0.6227
19970WAT      O81684  -2.670   8.562   5.572 -0.0707 -0.5638 -0.5651
19970WAT     H181685  -2.691   8.491   5.511  0.9238 -1.0222 -0.3951
19970WAT     H281686  -2.575   8.561   5.578 -0.0036  1.0822 -0.8911
19970WAT    EPW81687  -2.660   8.552   5.564  0.0694 -0.4072 -0.5858
19971WAT      O81688   2.246   6.915   2.799  0.0164  0.1449 -0.1569
19971WAT     H181689   2.317   6.955   2.848 -1.5919 -1.7380  4.2539
19971WAT     H281690   2.261   6.821   2.808 -0.8678 -0.3274 -2.7742
19971WAT    EPW81691   2.257   6.908   2.807 -0.3124 -0.1657  0.0795
19972WAT      O81692  -0.530   5.346   3.411  0.3012  0.3360 -0.2109
19972WAT     H181693  -0.577   5.386   3.338 -0.7737 -1.1471 -0.3743
19972WAT     H281694  -0.444   5.324   3.374 -0.1236 -0.1253 -0.9684
19972WAT    EPW81695  -0.525   5.348   3.396  0.1034  0.0794 -0.3325
19973WAT      O81696  -1.576   4.428   8.506 -0.1030 -0.1074 -0.2461
19973WAT     H181697  -1.639   4.402   8.573  0.8921 -1.8424  0.0713
19973WAT     H281698  -1.614   4.396   8.424 -0.9288  1.2992 -0.4431
19973WAT    EPW81699  -1.589   4.420   8.504 -0.0807 -0.1504 -0.2303
19974WAT      O81700  -4.174   0.728   7.238 -0.1997  0.2746 -0.3148
19974WAT     H181701  -4.181   0.681   7.321 -0.6464  0.3202 -0.3244
19974WAT     H281702  -4.210   0.815   7.256 -1.1090  0.0151 -0.7659
19974WAT    EPW81703  -4.180   0.733   7.251 -0.3786  0.2464 -0.3757
19975WAT      O81704   4.733   1.682   4.602 -0.3755  0.0748 -0.3008
19975WAT     H181705   4.761   1.618   4.537 -0.6473 -0.6729  0.3177
19975WAT     H281706   4.654   1.721   4.564  0.2337  0.6198 -1.0360
19975WAT    EPW81707   4.726   1.679   4.588 -0.3309  0.0480 -0.3159
19976WAT      O81708  -3.034   9.968   6.281  0.1765 -0.0291  0.2250
19976WAT     H181709  -2.979   9.954   6.204 -0.4023  0.7853 -0.3559
19976WAT     H281710  -3.000  10.048   6.321 -0.1111  0.0645  0.2837
19976WAT    EPW81711  -3.022   9.977   6.276  0.0622  0.0906  0.1562
19977WAT      O81712  -1.928   9.826   4.325  0.4941  0.2382 -0.4290
19977WAT     H181713  -1.984   9.834   4.248  1.5515 -0.3774 -1.2921
19977WAT     H281714  -1.858   9.891   4.311  0.2322  0.7285  0.4425
19977WAT    EPW81715  -1.926   9.836   4.313  0.5990  0.2222 -0.4280
19978WAT      O81716  -3.059   1.937   7.560 -0.2730  0.8184  0.3345
19978WAT     H181717  -3.069   1.844   7.582 -1.9640  0.9126  0.1170
19978WAT     H281718  -3.129   1.981   7.609 -0.8005  1.6997 -1.1418
19978WAT    EPW81719  -3.070   1.931   7.569 -0.5656  0.9470  0.1111
19979WAT      O81720   3.566   1.190   2.146  0.4896  0.1240  0.0049
19979WAT     H181721   3.654   1.159   2.164  0.3267  0.6370  1.8271
19979WAT     H281722   3.540   1.238   2.224 -1.0635  0.7809 -0.8575
19979WAT    EPW81723   3.574   1.192   2.158  0.2631  0.2782  0.1315
19980WAT      O81724   1.454   7.778   1.720  0.3183  0.1746  1.1947
19980WAT     H181725   1.538   7.754   1.681  1.6518  0.9055  3.4421
19980WAT     H281726   1.405   7.819   1.648  1.8279 -0.3476 -0.1878
19980WAT    EPW81727   1.458   7.780   1.705  0.6933  0.2022  1.3087
19981WAT      O81728   6.120   2.458   6.504 -0.4119  0.2040  0.6030
19981WAT     H181729   6.033   2.470   6.467 -0.4050  1.2761  0.8969
19981WAT     H281730   6.105   2.432   6.595 -0.5341  3.8229  1.7841
19981WAT    EPW81731   6.107   2.456   6.511 -0.4272  0.8227  0.7975
19982WAT      O81732   1.790   2.701   3.744  0.1403 -0.3934 -0.3397
19982WAT     H181733   1.823   2.772   3.799 -1.5047 -1.4384  2.1922
19982WAT     H281734   1.839   2.708   3.662 -0.2101  3.8493 -0.3679
19982WAT    EPW81735   1.801   2.711   3.740 -0.1228  0.0284 -0.0094
19983WAT      O81736   3.517   8.546   2.546 -0.3670 -0.1408 -0.4542
19983WAT     H181737   3.577   8.500   2.488 -0.6201 -2.6246  1.1056
19983WAT     H281738   3.448   8.482   2.566 -1.2898  1.2358  1.0721
19983WAT    EPW81739   3.516   8.532   2.541 -0.5220 -0.2871 -0.0471
19984WAT      O81740   6.015   7.427   0.032  0.5072  1.0342  0.3664
19984WAT     H181741   5.998   7.335   0.013 -1.7444  1.8539 -2.3843
19984WAT     H281742   5.935   7.459   0.072  0.7099  2.1051 -0.0488
19984WAT    EPW81743   6.002   7.419   0.034  0.2370  1.2832 -0.0512
19985WAT      O81744  -1.077   5.084   4.760 -0.4690  0.2068 -0.1927
19985WAT     H181745  -1.154   5.028   4.755 -1.2220  1.0833  1.0573
19985WAT     H281746  -1.090   5.149   4.692 -1.0525  0.6010  0.2898
19985WAT    EPW81747  -1.089   5.085   4.750 -0.6453  0.3743  0.0358
19986WAT      O81748  -0.456   6.181   4.299  0.0032 -0.3269 -1.0125
19986WAT     H181749  -0.491   6.093   4.317  0.1022 -0.7706 -2.8558
19986WAT     H281750  -0.435   6.180   4.206 -0.6733  1.9118 -1.2322
19986WAT    EPW81751  -0.458   6.169   4.289 -0.0730 -0.0901 -1.2846
19987WAT      O81752   2.972   7.847   0.384  0.3339 -1.3503 -0.1601
19987WAT     H181753   2.952   7.894   0.465  1.1798  0.3803 -0.9099
19987WAT     H281754   2.903   7.874   0.324  1.4588 -0.1047 -0.9388
19987WAT    EPW81755   2.960   7.857   0.387  0.5940 -0.9577 -0.3617
19988WAT      O81756   0.921   1.035   6.012 -0.3014  0.4264  0.1076
19988WAT     H181757   0.892   0.946   5.993 -0.4673  0.6441 -0.7224
19988WAT     H281758   0.938   1.036   6.106 -1.7901 -0.0680  0.4085
19988WAT    EPW81759   0.919   1.024   6.022 -0.5197  0.3899  0.0379
19989WAT      O81760  -3.852   1.015   7.161 -0.2362 -0.6867 -0.8304
19989WAT     H181761  -3.901   1.020   7.243  0.3727 -1.2336 -0.4192
19989WAT     H281762  -3.763   1.040   7.185 -0.8065  3.2906 -2.1195
19989WAT    EPW81763  -3.847   1.019   7.175 -0.2311 -0.2344 -0.9463
19990WAT      O81764  -0.430   1.300   4.083 -0.3631 -0.4007  0.0775
19990WAT     H181765  -0.515   1.258   4.088 -0.9733  0.8883  1.3250
19990WAT     H281766  -0.415   1.316   3.990 -1.2806 -1.0278 -0.1811
19990WAT    EPW81767  -0.439   1.297   4.072 -0.5646 -0.3135  0.2079
19991WAT      O81768   0.821   9.951   0.805  0.9748  0.1117  0.4659
19991WAT     H181769   0.771   9.905   0.872 -1.5704 -0.9219 -1.9048
19991WAT     H281770   0.806  10.044   0.823  2.3551 -0.0266  2.6413
19991WAT    EPW81771   0.812   9.957   0.816  0.8211 -0.0424  0.4401
19992WAT      O81772   3.166   0.744   7.922  0.0719  0.7316 -0.1085
19992WAT     H181773   3.091   0.695   7.956  0.3981  0.6260  0.4667
19992WAT     H281774   3.127   0.812   7.867 -0.4211  0.3189 -0.2832
19992WAT    EPW81775   3.151   0.746   7.919  0.0499  0.6633 -0.0556
19993WAT      O81776   4.936   8.711   2.829 -0.1855  0.1669 -0.2480
19993WAT     H181777   4.885   8.787   2.804 -0.4069 -0.1940 -0.9194
19993WAT     H281778   4.886   8.636   2.794  1.7509 -0.1142 -2.6772
19993WAT    EPW81779   4.922   8.711   2.821  0.0408  0.0820 -0.6571
19994WAT      O81780   3.937   2.632   4.850 -0.5807  0.0798  0.1972
19994WAT     H181781   3.971   2.571   4.915  2.6741  0.0992 -1.2853
19994WAT     H281782   3.964   2.595   4.766 -1.4362  1.8761 -0.9386
19994WAT    EPW81783   3.945   2.619   4.847 -0.2643  0.3192 -0.1481
19995WAT      O81784  -0.118   7.250   4.862  0.6262  0.2532  0.2946
19995WAT     H181785  -0.056   7.313   4.827  0.8223 -0.1851 -0.1532
19995WAT     H281786  -0.188   7.304   4.899  0.7426  0.7336 -0.1711
19995WAT    EPW81787  -0.119   7.265   4.862  0.6674  0.2587  0.1740
19996WAT      O81788  -0.107   2.646   5.328 -0.3018  0.1115  0.0692
19996WAT     H181789  -0.063   2.575   5.374 -0.9266  1.1891  2.5237
19996WAT     H281790  -0.057   2.659   5.248  2.1012 -0.5654  1.3890
19996WAT    EPW81791  -0.095   2.639   5.324 -0.0672  0.1644  0.5672
19997WAT      O81792   2.653   5.857   0.404 -0.0619 -0.7242  0.5535
19997WAT     H181793   2.565   5.885   0.430 -0.8659 -2.1382 -0.4722
19997WAT     H281794   2.686   5.929   0.350 -0.4546 -0.0382  1.2150
19997WAT    EPW81795   2.645   5.870   0.400 -0.2197 -0.8204  0.5054
19998WAT      O81796  -1.712   1.157   4.210  0.2171 -0.1290  0.1396
19998WAT     H181797  -1.795   1.200   4.229 -0.4478  0.8416 -4.0132
19998WAT     H281798  -1.724   1.067   4.240 -1.0104  0.7663  2.6108
19998WAT    EPW81799  -1.724   1.151   4.217 -0.0325  0.1171 -0.0823
19999WAT      O81800   1.799   6.581   2.358 -0.4882  0.3580 -0.6733
19999WAT     H181801   1.805   6.608   2.450  2.0590  0.4216 -0.7871
19999WAT     H281802   1.711   6.608   2.331 -1.1342  0.7540  1.5996
19999WAT    EPW81803   1.788   6.588   2.367 -0.2374  0.4187 -0.3885
20000WAT      O81804   2.797   5.542   8.085  0.0719  0.8511 -0.4157
20000WAT     H181805   2.705   5.526   8.105  0.4709 -2.8419 -0.8471
20000WAT     H281806   2.813   5.494   8.004  3.2334 -2.2578  1.7636
20000WAT    EPW81807   2.787   5.534   8.077  0.5416 -0.0460 -0.1850
20001WAT      O81808  -2.710   3.941   2.199  0.3036 -0.2918  0.6798
20001WAT     H181809  -2.718   4.023   2.247  0.9519  0.4652 -0.4735
20001WAT     H281810  -2.797   3.902   2.203 -0.2495  0.8890  0.4649
20001WAT    EPW81811  -2.722   3.947   2.206  0.3161 -0.0362  0.4995
20002WAT      O81812  -5.444   5.730   7.568  0.4611 -0.4426  0.5445
20002WAT     H181813  -5.495   5.794   7.518  1.2305  0.2437  0.6154
20002WAT     H281814  -5.354   5.743   7.539  0.5715 -1.8677  0.1820
20002WAT    EPW81815  -5.439   5.740   7.558  0.5772 -0.5400  0.5059
20003WAT      O81816   3.122   1.637   4.448  0.3937  0.4009 -0.0547
20003WAT     H181817   3.119   1.687   4.530  0.6140  0.5985 -0.1669
20003WAT     H281818   3.212   1.605   4.443 -0.4900 -2.7755  1.6752
20003WAT    EPW81819   3.134   1.639   4.458  0.3061  0.0080  0.1588
20004WAT      O81820  -0.228  10.013   8.582 -0.5276  0.9093 -0.7735
20004WAT     H181821  -0.175   9.934   8.572  1.0465  1.3934  2.6064
20004WAT     H281822  -0.316   9.986   8.554  0.8336 -0.5523 -4.3431
20004WAT    EPW81823  -0.233   9.999   8.577 -0.1405  0.7801 -0.7982
20005WAT      O81824  -1.058   2.426   7.333  0.3373 -0.2311  0.7741
20005WAT     H181825  -1.007   2.481   7.392 -0.6123  1.2085  0.3037
20005WAT     H281826  -1.028   2.337   7.351  2.5636  0.5051  0.9160
20005WAT    EPW81827  -1.048   2.421   7.343  0.5057  0.0560  0.7305
20006WAT      O81828   6.888   2.897   1.402  0.0042  0.3408  0.4410
20006WAT     H181829   6.866   2.891   1.309 -0.9473  1.0683  0.5993
20006WAT     H281830   6.854   2.982   1.429  1.2911  0.6380  1.2043
20006WAT    EPW81831   6.881   2.907   1.393  0.0486  0.4760  0.5625
20007WAT      O81832   3.285   3.831   4.474 -0.1023  0.0821  0.2569
20007WAT     H181833   3.294   3.926   4.477 -0.1652  0.0699  2.0036
20007WAT     H281834   3.290   3.803   4.566 -0.8228 -1.5323 -0.1497
20007WAT    EPW81835   3.287   3.840   4.487 -0.2056 -0.1324  0.4337
20008WAT      O81836   3.236   6.957   0.216 -0.1816 -0.3875  0.1215
20008WAT     H181837   3.186   6.901   0.157 -0.5970  0.4881 -0.3703
20008WAT     H281838   3.246   6.905   0.296 -0.1458 -1.3437 -0.4911
20008WAT    EPW81839   3.231   6.943   0.219 -0.2316 -0.3982 -0.0242
20009WAT      O81840  -2.882   0.855   8.266  0.4876  0.1463 -0.1453
20009WAT     H181841  -2.879   0.842   8.361  0.0080 -0.7500 -0.2403
20009WAT     H281842  -2.941   0.929   8.254 -0.8276 -0.8213  0.1795
20009WAT    EPW81843  -2.889   0.863   8.277  0.2509 -0.0995 -0.1149
20010WAT      O81844   6.002   3.380   3.607  0.3907  0.0033 -0.7202
20010WAT     H181845   5.910   3.406   3.610  0.7023  1.0763  0.6487
20010WAT     H281846   6.001   3.287   3.625 -0.2724  0.5248  2.4579
20010WAT    EPW81847   5.990   3.371   3.609  0.3445  0.2137 -0.1205
20011WAT      O81848   8.476   1.103   2.853  0.0272 -0.6229 -0.4557
20011WAT     H181849   8.436   1.024   2.890  1.1570 -1.5282 -1.0998
20011WAT     H281850   8.570   1.091   2.867  0.3179 -0.0328 -1.7783
20011WAT    EPW81851   8.483   1.091   2.860  0.2141 -0.6645 -0.7151
20012WAT      O81852   3.303  10.176   2.813 -0.0112 -0.4595 -0.5118
20012WAT     H181853   3.342  10.198   2.728  0.7155  0.6667  0.0856
20012WAT     H281854   3.242  10.249   2.830  0.1453 -0.4754  0.1174
20012WAT    EPW81855   3.300  10.189   2.804  0.1053 -0.3133 -0.3500
20013WAT      O81856  -3.094   3.286   7.922  0.1590  0.1432 -0.0998
20013WAT     H181857  -3.183   3.319   7.909  0.1460 -0.4020 -1.5630
20013WAT     H281858  -3.103   3.222   7.993 -0.5454  0.3347 -0.0061
20013WAT    EPW81859  -3.107   3.282   7.930  0.0644  0.0966 -0.2806
20014WAT      O81860   0.585   8.819   7.821  0.5594 -0.4404  0.0555
20014WAT     H181861   0.565   8.795   7.911  2.6873  0.2251  0.7664
20014WAT     H281862   0.585   8.915   7.821 -1.8668 -0.3580 -1.3051
20014WAT    EPW81863   0.582   8.829   7.833  0.5201 -0.3414 -0.0303
20015WAT      O81864   1.689   3.328   6.276  0.6478  0.5402 -0.5962
20015WAT     H181865   1.753   3.269   6.235  0.2103 -1.2835  1.1554
20015WAT     H281866   1.740   3.378   6.339  0.4339 -1.0220  0.9108
20015WAT    EPW81867   1.704   3.327   6.279  0.5620  0.0936 -0.1664
20016WAT      O81868  -0.959   6.229   5.877 -0.0815  0.0805 -0.8719
20016WAT     H181869  -1.009   6.162   5.925  1.7186 -0.9694 -0.3692
20016WAT     H281870  -0.946   6.192   5.790  2.2548 -1.0233 -0.1338
20016WAT    EPW81871  -0.964   6.216   5.872  0.4641 -0.2038 -0.7083
20017WAT      O81872   3.762   1.505   6.774  0.1008  0.2905 -0.0112
20017WAT     H181873   3.797   1.544   6.854 -0.8337 -0.4729  0.7887
20017WAT     H281874   3.785   1.568   6.705  2.7025  0.0042  0.4956
20017WAT    EPW81875   3.769   1.518   6.775  0.3206  0.1521  0.1612
20018WAT      O81876  -1.446   3.876   1.987 -0.0552  0.4371  0.4238
20018WAT     H181877  -1.461   3.786   1.958 -1.9249  1.3140 -1.5995
20018WAT     H281878  -1.486   3.880   2.074  0.6026 -0.8221  0.8075
20018WAT    EPW81879  -1.453   3.865   1.995 -0.2150  0.3866  0.2075
20019WAT      O81880   3.929   0.725   6.560  0.1085 -1.3907 -0.0740
20019WAT     H181881   3.851   0.730   6.614 -0.1426  2.8859 -0.4863
20019WAT     H281882   4.001   0.739   6.621 -0.0891  2.0618 -0.4464
20019WAT    EPW81883   3.929   0.728   6.575  0.0494 -0.3713 -0.1774
20020WAT      O81884   4.606   4.167   1.712  0.2683 -0.8062  0.4563
20020WAT     H181885   4.658   4.133   1.785  2.8157 -1.3232 -1.4409
20020WAT     H281886   4.549   4.094   1.687  2.8920 -2.5296 -1.0689
20020WAT    EPW81887   4.605   4.153   1.718  0.9506 -1.1017  0.0049
20021WAT      O81888   6.817   3.888   1.980 -0.1736 -0.2895 -0.5227
20021WAT     H181889   6.886   3.826   2.004 -1.4989 -1.2759  0.8335
20021WAT     H281890   6.842   3.970   2.023  1.0133 -0.1317 -1.4440
20021WAT    EPW81891   6.829   3.891   1.989 -0.1919 -0.3986 -0.4653
20022WAT      O81892   1.135   9.491   6.465 -1.0825  0.0013 -0.4543
20022WAT     H181893   1.104   9.433   6.535 -1.1420 -1.2998 -1.5279
20022WAT     H281894   1.055   9.523   6.424 -1.1117  2.2801  1.2035
20022WAT    EPW81895   1.120   9.487   6.469 -1.0942  0.1302 -0.3772
20023WAT      O81896   0.729   0.363   6.552  0.1634  0.1737 -0.2435
20023WAT     H181897   0.727   0.416   6.632  2.7747  0.2034 -0.1336
20023WAT     H281898   0.691   0.421   6.485 -2.2776  0.0630  0.9349
20023WAT    EPW81899   0.723   0.378   6.554  0.1859  0.1630 -0.0737
20024WAT      O81900   3.238   7.750   2.360 -0.5737  0.0025 -0.0566
20024WAT     H181901   3.168   7.689   2.386  0.4984 -0.1871  2.7734
20024WAT     H281902   3.217   7.831   2.406  2.1381 -0.7387  2.8020
20024WAT    EPW81903   3.226   7.752   2.370 -0.0746 -0.1202  0.6936
20025WAT      O81904   2.981   4.766   7.658 -0.0602  0.2421  0.3591
20025WAT     H181905   2.971   4.861   7.668 -0.0593  0.5566 -1.9552
20025WAT     H281906   2.949   4.749   7.569  3.7556 -1.2649 -0.9096
20025WAT    EPW81907   2.975   4.776   7.647  0.4432  0.0849 -0.1135
20026WAT      O81908  -6.277   6.105   8.553  0.5643 -0.4964  0.1518
20026WAT     H181909  -6.220   6.160   8.607  0.3806  1.1856 -1.2423
20026WAT     H281910  -6.300   6.162   8.479 -1.3166 -1.8006 -0.3263
20026WAT    EPW81911  -6.273   6.120   8.550  0.2921 -0.4468 -0.0954
20027WAT      O81912  -0.149   5.032   4.609  0.4675 -0.2459 -0.2601
20027WAT     H181913  -0.169   5.024   4.515  0.3476 -1.5150 -0.1504
20027WAT     H281914  -0.067   4.984   4.620  0.7543  0.3454  0.2061
20027WAT    EPW81915  -0.141   5.024   4.598  0.4895 -0.3352 -0.1841
20028WAT      O81916  -5.325   0.300   8.892 -0.4953 -0.0563 -1.1101
20028WAT     H181917  -5.417   0.275   8.882 -1.0925  0.9402  1.2132
20028WAT     H281918  -5.328   0.395   8.905  0.2938 -0.4682  3.4994
20028WAT    EPW81919  -5.338   0.309   8.892 -0.4702  0.0208 -0.1955
20029WAT      O81920   7.752   0.696   3.775  0.0209  0.8966  0.2126
20029WAT     H181921   7.742   0.763   3.842 -2.6483  0.9548 -0.1485
20029WAT     H281922   7.768   0.744   3.694 -1.1194  1.0627  0.0838
20029WAT    EPW81923   7.753   0.711   3.773 -0.4816  0.9262  0.1479
20030WAT      O81924   4.131   0.573   2.955 -0.4911  0.5758  0.2120
20030WAT     H181925   4.058   0.630   2.930 -0.4058  0.0246 -1.4245
20030WAT     H281926   4.099   0.485   2.940  0.3326  0.3025 -0.0113
20030WAT    EPW81927   4.117   0.569   2.950 -0.3712  0.4671 -0.0334
20031WAT      O81928   5.187   5.158   3.232  0.2875 -0.1667 -0.6163
20031WAT     H181929   5.148   5.218   3.168 -0.1422  0.7853  0.4996
20031WAT     H281930   5.237   5.216   3.291 -0.0768 -0.9058  0.4483
20031WAT    EPW81931   5.189   5.174   3.232  0.1829 -0.1388 -0.3287
20032WAT      O81932   5.767   7.323   3.140 -0.2277  0.3821  0.9959
20032WAT     H181933   5.684   7.349   3.101  0.8678 -0.1930 -1.9541
20032WAT     H281934   5.808   7.405   3.167 -1.2086  0.7632  1.3680
20032WAT    EPW81935   5.761   7.337   3.139 -0.2127  0.3564  0.6559
20033WAT      O81936  -1.166   5.009   3.603 -0.7607 -0.3503 -0.1304
20033WAT     H181937  -1.197   5.098   3.619 -0.3603 -0.3512  0.7006
20033WAT     H281938  -1.116   5.016   3.521 -2.4886 -0.2543 -1.2302
20033WAT    EPW81939  -1.164   5.022   3.594 -0.9357 -0.3376 -0.1659
20034WAT      O81940   2.415   7.944   0.673 -0.6623 -0.0047  1.0447
20034WAT     H181941   2.353   7.987   0.615 -0.5957  1.1393  1.7952
20034WAT     H281942   2.449   7.871   0.621 -0.5490  1.0219 -0.3848
20034WAT    EPW81943   2.412   7.940   0.659 -0.6386  0.2818  0.9551
20035WAT      O81944  -1.737   2.643   7.849 -0.0320  0.0249  0.2066
20035WAT     H181945  -1.820   2.612   7.883 -0.4614  0.2681 -0.5908
20035WAT     H281946  -1.673   2.578   7.879 -0.7337 -1.0035 -0.4343
20035WAT    EPW81947  -1.739   2.630   7.857 -0.1812 -0.0787  0.0169
20036WAT      O81948   5.099   1.299   4.023  0.2321  0.6424 -0.3508
20036WAT     H181949   5.146   1.239   4.080 -0.4715  0.4465  0.0261
20036WAT     H281950   5.107   1.261   3.935 -2.9547 -1.8613  0.2535
20036WAT    EPW81951   5.106   1.286   4.019 -0.2811  0.2863 -0.2215
20037WAT      O81952  -1.461   8.112   8.913 -0.1808 -0.6591  0.5217
20037WAT     H181953  -1.402   8.069   8.975  1.8779  0.6727 -0.3766
20037WAT     H281954  -1.511   8.173   8.967  0.6178 -0.4733  1.0885
20037WAT    EPW81955  -1.460   8.114   8.928  0.1961 -0.4592  0.4778
20038WAT      O81956   2.777   3.744   5.981  0.1113 -0.1090  0.9722
20038WAT     H181957   2.778   3.649   5.967  1.5119  0.0091 -0.0196
20038WAT     H281958   2.848   3.759   6.044  0.5121  0.3411  0.4306
20038WAT    EPW81959   2.787   3.733   5.987  0.3489 -0.0341  0.7699
20039WAT      O81960  -7.546   9.281   8.300 -0.1502  0.1775  0.3951
20039WAT     H181961  -7.557   9.356   8.241  0.5318  0.0686  0.1114
20039WAT     H281962  -7.525   9.208   8.241 -1.1769 -0.3257  0.6369
20039WAT    EPW81963  -7.545   9.282   8.284 -0.1955  0.0968  0.3901
20040WAT      O81964  -4.611   7.736   8.606 -0.2393 -0.0345 -0.0111
20040WAT     H181965  -4.613   7.640   8.604 -0.8755 -0.0341  0.3848
20040WAT     H281966  -4.575   7.761   8.521  0.1704 -0.6299 -0.0208
20040WAT    EPW81967  -4.606   7.726   8.594 -0.2692 -0.1132  0.0396
20041WAT      O81968   3.256   1.761   8.293  0.4443  0.1325 -0.5060
20041WAT     H181969   3.229   1.842   8.249 -2.3858 -0.8424 -0.7559
20041WAT     H281970   3.312   1.717   8.229 -1.0771  0.1842 -1.9681
20041WAT    EPW81971   3.260   1.766   8.279 -0.1297  0.0107 -0.7315
20042WAT      O81972  -0.640   2.668   7.754  0.2955 -0.1950 -0.6504
20042WAT     H181973  -0.587   2.621   7.690 -0.5124 -2.1174  0.0356
20042WAT     H281974  -0.702   2.603   7.786  0.4650  0.7890  1.8593
20042WAT    EPW81975  -0.641   2.654   7.750  0.2113 -0.3188 -0.2291
20043WAT      O81976   1.963   4.583   2.033  0.1409 -0.4119  0.3722
20043WAT     H181977   1.933   4.601   2.122 -3.1405 -2.5914 -0.1143
20043WAT     H281978   1.943   4.491   2.019 -1.1500  0.2481 -3.1696
20043WAT    EPW81979   1.956   4.573   2.043 -0.4622 -0.6123 -0.1591
20044WAT      O81980   0.456   5.392   3.595 -0.1991 -0.2846 -0.8108
20044WAT     H181981   0.477   5.442   3.674 -1.8704 -1.8972  0.7412
20044WAT     H281982   0.463   5.300   3.621 -2.1576 -0.8744 -2.1014
20044WAT    EPW81983   0.459   5.387   3.609 -0.6779 -0.5751 -0.7763
20045WAT      O81984   4.020   5.560   3.213  0.7859  0.1347  0.0269
20045WAT     H181985   4.097   5.571   3.157  1.8201  0.1125  1.3989
20045WAT     H281986   3.985   5.649   3.224  1.1494  0.2650  0.1301
20045WAT    EPW81987   4.025   5.574   3.207  0.9701  0.1490  0.2214
20046WAT      O81988   3.831   4.450   8.703  0.0083  0.3398 -0.3382
20046WAT     H181989   3.808   4.400   8.625 -0.2181 -2.5215  1.4136
20046WAT     H281990   3.846   4.384   8.770  1.0710  2.6300  1.8496
20046WAT    EPW81991   3.830   4.435   8.702  0.1187  0.2644  0.1817
20047WAT      O81992   4.917   7.163   0.974  0.2675 -0.5167 -0.2016
20047WAT     H181993   4.827   7.134   0.958  1.0020 -1.9794 -1.9432
20047WAT     H281994   4.915   7.256   0.952 -1.1892 -0.0583  1.5522
20047WAT    EPW81995   4.905   7.172   0.969  0.1721 -0.6492 -0.1999
20048WAT      O81996  -0.248   0.594   2.656 -0.2482  0.6953  0.7085
20048WAT     H181997  -0.305   0.558   2.589 -1.2508  2.1869  0.7272
20048WAT     H281998  -0.197   0.661   2.611  1.5227 -0.5966  0.6970
20048WAT    EPW81999  -0.249   0.598   2.641 -0.1468  0.7217  0.7094
20049WAT      O82000  -1.235   6.455   8.733 -0.0871 -0.2201  0.1953
20049WAT     H182001  -1.289   6.412   8.667 -2.2883 -0.9150  2.3191
20049WAT     H282002  -1.257   6.548   8.726 -1.0760 -0.4169  0.5867
20049WAT    EPW82003  -1.245   6.462   8.724 -0.5078 -0.3376  0.5274
20050WAT      O82004  -1.185   4.368   1.723 -0.2891 -0.1207  0.0002
20050WAT     H182005  -1.133   4.379   1.802  0.8421  0.0767 -0.7555
20050WAT     H282006  -1.267   4.328   1.753  0.5940 -1.1421  1.1072
20050WAT    EPW82007  -1.189   4.364   1.737 -0.0235 -0.2294  0.0466
20051WAT      O82008  -6.134   5.523   8.190 -0.3939  0.1562 -0.1135
20051WAT     H182009  -6.117   5.432   8.216 -2.9075 -0.6432 -1.0183
20051WAT     H282010  -6.183   5.516   8.108 -1.5787  2.2992  0.3344
20051WAT    EPW82011  -6.138   5.510   8.182 -0.8817  0.3333 -0.1736
20052WAT      O82012   4.829   2.049   8.671  0.0371 -0.6538 -0.4692
20052WAT     H182013   4.824   1.953   8.676 -0.1981 -0.7841 -2.3728
20052WAT     H282014   4.827   2.068   8.577 -2.9205  1.3802 -0.1154
20052WAT    EPW82015   4.828   2.038   8.659 -0.3839 -0.4027 -0.6733
20053WAT      O82016  -3.505   2.306   4.540 -0.4010  0.8940  0.0959
20053WAT     H182017  -3.460   2.222   4.552 -1.3798  0.2771 -0.3575
20053WAT     H282018  -3.598   2.282   4.536 -0.5755  1.6577 -2.7493
20053WAT    EPW82019  -3.511   2.292   4.541 -0.5531  0.9134 -0.3393
20054WAT      O82020  -5.363  10.282   3.107 -0.8934 -0.1653  0.0560
20054WAT     H182021  -5.416  10.351   3.066 -4.3252 -2.2016  0.6451
20054WAT     H282022  -5.421  10.206   3.108  2.1226 -2.6243  0.9274
20054WAT    EPW82023  -5.378  10.281   3.101 -0.9482 -0.7582  0.2487
20055WAT      O82024  -1.692   8.188   2.872 -0.2607  0.4922  0.1659
20055WAT     H182025  -1.703   8.272   2.828 -0.7621  0.0510 -0.5765
20055WAT     H282026  -1.771   8.180   2.927 -0.3639  0.3698  0.0005
20055WAT    EPW82027  -1.704   8.198   2.873 -0.3405  0.4177  0.0463
20056WAT      O82028   3.254   5.839   7.075  0.6212 -0.3880  0.3059
20056WAT     H182029   3.217   5.830   6.987  1.4640 -4.4199  0.1468
20056WAT     H282030   3.345   5.811   7.065  1.3425  1.1399  2.1300
20056WAT    EPW82031   3.261   5.834   7.062  0.8276 -0.7181  0.5255
20057WAT      O82032   4.200   9.160   0.506 -0.1015  0.0602  0.0561
20057WAT     H182033   4.185   9.214   0.428 -0.2647 -1.1618 -0.7835
20057WAT     H282034   4.124   9.178   0.562  0.8945  2.3452  0.8138
20057WAT    EPW82035   4.188   9.170   0.503  0.0086  0.2003  0.0453
20058WAT      O82036  -3.868   1.236   8.226 -0.2371  0.4202 -0.0872
20058WAT     H182037  -3.961   1.257   8.227 -0.4933 -0.5442  2.0860
20058WAT     H282038  -3.825   1.318   8.203 -1.5005  1.7706  2.0877
20058WAT    EPW82039  -3.875   1.249   8.223 -0.4375  0.4711  0.4864
20059WAT      O82040   7.800   0.468   4.447 -0.0918 -1.3991  0.0680
20059WAT     H182041   7.734   0.506   4.506 -1.6892  0.2228 -2.5984
20059WAT     H282042   7.875   0.526   4.454 -0.1543 -1.3831  0.6859
20059WAT    EPW82043   7.801   0.480   4.456 -0.3107 -1.1831 -0.2024
20060WAT      O82044   0.531   9.154   3.294 -0.0428 -0.5368  0.2171
20060WAT     H182045   0.540   9.197   3.380  0.8786 -0.8333  0.2765
20060WAT     H282046   0.584   9.075   3.301  1.3092  0.2047 -1.1226
20060WAT    EPW82047   0.539   9.150   3.307  0.2570 -0.4783  0.0483
20061WAT      O82048   1.912   0.457   3.022 -0.5708 -1.1829 -0.8660
20061WAT     H182049   1.816   0.468   3.020 -0.4545 -0.0045 -2.4735
20061WAT     H282050   1.930   0.417   3.107 -2.3508  0.1282  0.2099
20061WAT    EPW82051   1.901   0.453   3.033 -0.7903 -0.8545 -0.9362
20062WAT      O82052   3.398   7.552   5.748 -0.9198 -0.3660  0.5186
20062WAT     H182053   3.354   7.468   5.757 -0.1664 -0.8462 -0.1331
20062WAT     H282054   3.376   7.599   5.828 -0.8728 -1.4060  1.1632
20062WAT    EPW82055   3.389   7.547   5.759 -0.8142 -0.5665  0.5176
20063WAT      O82056   1.663   1.492   4.019  0.8176 -0.2715 -0.2263
20063WAT     H182057   1.674   1.587   4.019 -0.9432 -0.0215 -0.7605
20063WAT     H282058   1.619   1.474   3.935  0.5603 -1.4654  0.1561
20063WAT    EPW82059   1.658   1.502   4.008  0.5515 -0.3960 -0.2465
20064WAT      O82060   4.079   6.466   0.988  1.0182 -0.1138 -0.2312
20064WAT     H182061   4.139   6.512   1.046  0.5658  0.0780  0.0980
20064WAT     H282062   3.996   6.465   1.037  0.9486 -1.0326 -0.3456
20064WAT    EPW82063   4.076   6.472   1.002  0.9494 -0.2096 -0.2029
20065WAT      O82064  -6.577   7.697   6.718 -0.4552 -0.1272  0.0958
20065WAT     H182065  -6.532   7.711   6.635 -1.4073 -0.8519 -0.5654
20065WAT     H282066  -6.668   7.681   6.693 -0.7290 -0.4884  1.2728
20065WAT    EPW82067  -6.583   7.697   6.703 -0.6170 -0.2704  0.1640
20066WAT      O82068   2.834   4.128   3.416 -0.1916  0.6366 -0.1599
20066WAT     H182069   2.823   4.222   3.405  1.8480  0.9018 -0.3148
20066WAT     H282070   2.794   4.109   3.501 -0.5150  1.6556 -0.0735
20066WAT    EPW82071   2.828   4.138   3.426  0.0347  0.8061 -0.1690
20067WAT      O82072  -5.704   6.333   6.118  0.2872  0.0659  0.2014
20067WAT     H182073  -5.753   6.400   6.165  0.6710 -1.0300  2.2513
20067WAT     H282074  -5.665   6.380   6.044 -2.0644  1.3842 -0.2902
20067WAT    EPW82075  -5.705   6.348   6.114  0.0277  0.0951  0.4070
20068WAT      O82076   3.246   7.925   0.336  0.0785 -0.2548  0.2637
20068WAT     H182077   3.270   7.988   0.268 -2.9259  0.3082 -0.4332
20068WAT     H282078   3.150   7.924   0.335 -0.0320 -2.7266  2.2433
20068WAT    EPW82079   3.236   7.933   0.327 -0.3322 -0.5066  0.4328
20069WAT      O82080  -2.264   9.717   1.890 -0.3340 -0.1791  0.3513
20069WAT     H182081  -2.292   9.691   1.977  0.5267 -0.0254  0.6885
20069WAT     H282082  -2.345   9.726   1.840 -0.9227  0.8167  1.4385
20069WAT    EPW82083  -2.278   9.715   1.895 -0.2980 -0.0281  0.5391
20070WAT      O82084  -1.032   3.587   0.208  0.1340 -0.0106  0.4320
20070WAT     H182085  -0.946   3.567   0.244  0.3115  1.8384  1.1690
20070WAT     H282086  -1.085   3.612   0.284 -0.4562  0.8172 -0.2319
20070WAT    EPW82087  -1.028   3.588   0.223  0.0795  0.3424  0.4416
20071WAT      O82088   6.421   5.396   1.382 -0.0633 -0.0329  0.2962
20071WAT     H182089   6.330   5.425   1.380 -0.1486 -0.3356 -0.3734
20071WAT     H282090   6.453   5.409   1.293  0.0875 -1.3590  0.1332
20071WAT    EPW82091   6.414   5.402   1.370 -0.0546 -0.2477  0.1864
20072WAT      O82092   3.404   0.643   4.295 -0.0867  0.3122  0.2589
20072WAT     H182093   3.390   0.705   4.223  0.8325  0.7273  0.4256
20072WAT     H282094   3.408   0.558   4.252  0.2229  0.5306 -0.1559
20072WAT    EPW82095   3.403   0.640   4.280  0.0755  0.3957  0.2260
20073WAT      O82096  -1.441   9.453   8.257  0.0967  0.1301  0.7227
20073WAT     H182097  -1.435   9.548   8.259  0.1867  0.1435 -0.1001
20073WAT     H282098  -1.410   9.428   8.171 -0.5086 -0.6053  0.7034
20073WAT    EPW82099  -1.436   9.462   8.246  0.0287  0.0348  0.6113
20074WAT      O82100  -3.269   8.241   2.284  0.5605 -0.5981 -0.2615
20074WAT     H182101  -3.276   8.222   2.191 -0.0642 -0.7266 -0.1949
20074WAT     H282102  -3.300   8.162   2.328  0.2685 -0.3216  0.0437
20074WAT    EPW82103  -3.274   8.228   2.278  0.4396 -0.5784 -0.2124
20075WAT      O82104   2.435   9.667   3.398  0.1416  0.7144  0.5278
20075WAT     H182105   2.462   9.756   3.422  1.4166  0.3299  0.5818
20075WAT     H282106   2.517   9.619   3.385 -0.5205 -0.4760  0.5495
20075WAT    EPW82107   2.449   9.672   3.399  0.2224  0.5064  0.5378
20076WAT      O82108   0.721   6.903   6.268  0.2662  0.1472 -0.2508
20076WAT     H182109   0.726   6.983   6.216 -0.6951  0.3685 -0.0212
20076WAT     H282110   0.689   6.932   6.353  2.6800 -0.0745  0.7907
20076WAT    EPW82111   0.717   6.918   6.272  0.4578  0.1471 -0.0832
20077WAT      O82112  -6.597  10.008   6.373 -0.3290 -0.2390  0.0598
20077WAT     H182113  -6.537  10.071   6.412 -0.1826 -0.8826  0.9298
20077WAT     H282114  -6.559   9.987   6.288 -0.2800  0.6886 -0.1498
20077WAT    EPW82115  -6.584  10.013   6.367 -0.3033 -0.2012  0.1466
20078WAT      O82116   4.978   5.831   0.419  0.7754 -0.5676 -0.8495
20078WAT     H182117   5.034   5.903   0.450  0.2110  0.7778 -2.7488
20078WAT     H282118   4.950   5.786   0.499 -0.5441  2.6209  0.6757
20078WAT    EPW82119   4.981   5.835   0.433  0.5267  0.0305 -0.8989
20079WAT      O82120  -0.776   7.317   7.136 -0.3134 -0.0768 -0.3984
20079WAT     H182121  -0.868   7.344   7.139 -0.1996  0.3592 -0.7271
20079WAT     H282122  -0.728   7.397   7.116  0.2269 -0.1146  0.6303
20079WAT    EPW82123  -0.782   7.331   7.134 -0.2272 -0.0243 -0.3061
20080WAT      O82124   4.025   6.120   6.144 -0.4434 -0.7607 -0.5367
20080WAT     H182125   4.007   6.027   6.159  2.1834 -1.2856 -0.1830
20080WAT     H282126   4.117   6.131   6.167 -1.2940  2.5616  2.1433
20080WAT    EPW82127   4.034   6.109   6.149 -0.2091 -0.3920 -0.1366
20081WAT      O82128   4.526   3.999   2.084  0.3779  0.2441 -0.1237
20081WAT     H182129   4.432   4.016   2.075  0.1412 -0.0107  1.5548
20081WAT     H282130   4.565   4.043   2.009 -1.0879  0.3155 -0.8796
20081WAT    EPW82131   4.519   4.007   2.073  0.1533  0.2201 -0.0021
20082WAT      O82132   2.947  10.222   2.483  0.5817  0.2278  0.5638
20082WAT     H182133   3.012  10.241   2.415 -0.6671  0.0390 -0.7270
20082WAT     H282134   2.949  10.298   2.541 -0.2636  1.6699 -1.2410
20082WAT    EPW82135   2.956  10.234   2.482  0.3055  0.3929  0.1556
20083WAT      O82136  -4.663   7.009   3.618 -0.3156 -0.4168  0.4019
20083WAT     H182137  -4.692   6.995   3.708 -1.8763 -0.6526 -0.1122
20083WAT     H282138  -4.685   6.928   3.573 -0.5372  0.0970 -0.4385
20083WAT    EPW82139  -4.670   6.996   3.624 -0.5505 -0.3800  0.2234
20084WAT      O82140  -3.769   7.181   2.404 -0.2679  0.2010  0.2887
20084WAT     H182141  -3.843   7.145   2.355  0.2309 -0.6471  0.1545
20084WAT     H282142  -3.808   7.250   2.458 -1.2000 -0.4076  0.4130
20084WAT    EPW82143  -3.784   7.186   2.405 -0.3250  0.0091  0.2874
20085WAT      O82144   4.869   0.741   7.626  0.8156 -0.2207  0.1470
20085WAT     H182145   4.803   0.757   7.693  2.1470 -0.9079  1.6904
20085WAT     H282146   4.820   0.737   7.544 -2.0452 -6.2177  1.6338
20085WAT    EPW82147   4.854   0.743   7.624  0.6139 -1.1023  0.5465
20086WAT      O82148   4.486   1.622   7.202 -0.0476  0.3245  0.5393
20086WAT     H182149   4.453   1.711   7.186 -0.2387  0.0095 -1.0203
20086WAT     H282150   4.580   1.632   7.212  0.1873  0.5461 -1.4557
20086WAT    EPW82151   4.494   1.635   7.201 -0.0417  0.3122  0.0706
20087WAT      O82152   1.731   7.122   4.433  0.2698  0.3327 -0.6623
20087WAT     H182153   1.784   7.056   4.387  1.1448  0.8665 -0.4580
20087WAT     H282154   1.777   7.204   4.416 -0.3174  0.7636 -0.1869
20087WAT    EPW82155   1.744   7.124   4.425  0.3078  0.4601 -0.5727
20088WAT      O82156   0.501   6.269   6.137  0.1709  0.3604  0.0855
20088WAT     H182157   0.441   6.269   6.211  1.5092 -0.6242  1.2292
20088WAT     H282158   0.523   6.176   6.125  0.1900  0.5372 -1.3764
20088WAT    EPW82159   0.496   6.257   6.145  0.3499  0.2542  0.0434
20089WAT      O82160   0.326  10.132   8.726  0.3805 -1.0481  0.2048
20089WAT     H182161   0.283  10.116   8.810 -0.3362  1.9864  0.5073
20089WAT     H282162   0.261  10.107   8.660  0.4566 -2.1556  0.5176
20089WAT    EPW82163   0.312  10.126   8.728  0.2960 -0.7939  0.2861
20090WAT      O82164  -3.436   4.027   8.096  0.0909  0.2397  0.3816
20090WAT     H182165  -3.369   4.096   8.093 -1.2626  1.5807 -0.9528
20090WAT     H282166  -3.411   3.966   8.026  0.2584  0.4208  0.2827
20090WAT    EPW82167  -3.424   4.028   8.086 -0.0656  0.4406  0.1926
20091WAT      O82168  -3.124   2.702   5.752 -0.0069 -0.0419 -0.2873
20091WAT     H182169  -3.093   2.625   5.705  1.2780 -0.1727  0.6855
20091WAT     H282170  -3.058   2.769   5.734 -1.5241  1.1304 -1.7804
20091WAT    EPW82171  -3.111   2.701   5.744 -0.0376  0.0956 -0.3560
20092WAT      O82172   2.697   1.946   1.361  0.0492  0.6251 -0.1202
20092WAT     H182173   2.653   2.027   1.388 -2.2900 -0.0264 -1.7078
20092WAT     H282174   2.769   1.975   1.305  0.0049  1.6405  0.3284
20092WAT    EPW82175   2.700   1.960   1.357 -0.2651  0.6731 -0.2704
20093WAT      O82176   0.164   1.593   5.935  0.3917 -0.3666 -0.7159
20093WAT     H182177   0.256   1.615   5.920  0.0052  1.5310 -0.6346
20093WAT     H282178   0.126   1.590   5.847  0.1963  0.6067 -0.6772
20093WAT    EPW82179   0.171   1.596   5.921  0.3149  0.0120 -0.6998
20094WAT      O82180   1.094   1.430   6.597  0.0636  0.5589  0.9091
20094WAT     H182181   1.019   1.467   6.550  0.9285  0.0682 -0.9644
20094WAT     H282182   1.056   1.361   6.652 -0.9608  0.9214  0.6816
20094WAT    EPW82183   1.079   1.425   6.598  0.0426  0.5420  0.6320
20095WAT      O82184  -2.623   8.322   6.900 -0.2482 -0.0448  0.1992
20095WAT     H182185  -2.666   8.389   6.848  1.3155 -1.1401 -2.7823
20095WAT     H282186  -2.690   8.256   6.916 -0.5901 -0.0881 -1.2876
20095WAT    EPW82187  -2.637   8.322   6.895 -0.0870 -0.1950 -0.3903
20096WAT      O82188   3.286   3.110   8.000  0.2627  0.7986 -0.4790
20096WAT     H182189   3.215   3.166   8.030  1.2270  1.7857  0.0346
20096WAT     H282190   3.333   3.163   7.935  0.4647  0.1211 -0.8959
20096WAT    EPW82191   3.283   3.125   7.995  0.4165  0.8395 -0.4663
20097WAT      O82192   4.211   1.909   1.651  0.0795 -0.1663  0.3001
20097WAT     H182193   4.211   2.004   1.640 -1.2364  0.0297  1.7453
20097WAT     H282194   4.140   1.878   1.596  1.9456 -0.6208 -2.0084
20097WAT    EPW82195   4.202   1.917   1.642  0.1521 -0.2004  0.1863
20098WAT      O82196   1.860   0.089   8.714  0.1665  0.4897  0.6998
20098WAT     H182197   1.785   0.143   8.689  0.6295  0.6019 -0.4992
20098WAT     H282198   1.883   0.041   8.635  1.0255  0.0406  1.2038
20098WAT    EPW82199   1.853   0.090   8.701  0.3408  0.4453  0.6080
20099WAT      O82200   4.592   3.529   4.741  0.2197  0.3354  0.4536
20099WAT     H182201   4.567   3.454   4.794 -3.4244  1.9796  1.3561
20099WAT     H282202   4.556   3.605   4.787 -0.0172  2.2170 -2.5271
20099WAT    EPW82203   4.584   3.529   4.754 -0.2921  0.8005  0.1795
20100WAT      O82204   2.881  -0.022   5.505 -0.1052 -0.2815  0.4581
20100WAT     H182205   2.881   0.068   5.535 -1.5303 -0.1913  0.2647
20100WAT     H282206   2.799  -0.031   5.455  1.1463 -1.0038 -1.6192
20100WAT    EPW82207   2.870  -0.012   5.502 -0.1280 -0.3649  0.1585
20101WAT      O82208   8.434   1.616   3.024 -0.1530 -0.4245  0.9567
20101WAT     H182209   8.370   1.682   2.996 -0.1982 -0.8362  0.0564
20101WAT     H282210   8.444   1.631   3.118  0.9852  1.8866  0.5707
20101WAT    EPW82211   8.427   1.627   3.032 -0.0091 -0.1740  0.7870
20102WAT      O82212   3.414   4.769   4.334  0.0060  0.2553 -0.5071
20102WAT     H182213   3.457   4.767   4.249 -0.4433 -1.3116 -0.7416
20102WAT     H282214   3.483   4.795   4.396  0.5649  0.5207 -1.2374
20102WAT    EPW82215   3.429   4.772   4.331  0.0205  0.0834 -0.6342
20103WAT      O82216  -4.691   4.528   7.643  0.0191 -0.3939  0.1050
20103WAT     H182217  -4.749   4.499   7.573 -2.1550  1.6720  0.9228
20103WAT     H282218  -4.741   4.594   7.691  2.4293  0.2662  1.9585
20103WAT    EPW82219  -4.705   4.533   7.640  0.0503 -0.0341  0.4575
20104WAT      O82220   4.645   3.250   1.081 -0.5160  0.0759  0.0864
20104WAT     H182221   4.728   3.211   1.053 -1.7616 -3.0148  0.3581
20104WAT     H282222   4.669   3.311   1.150  1.7139  1.1178 -1.4763
20104WAT    EPW82223   4.659   3.253   1.086 -0.3862 -0.1943 -0.0839
20105WAT      O82224  -4.805   3.136   7.915 -0.5325  0.0330  0.7083
20105WAT     H182225  -4.769   3.053   7.947 -2.4979 -1.2359 -0.1725
20105WAT     H282226  -4.746   3.162   7.845  2.1191  1.3144  3.1767
20105WAT    EPW82227  -4.793   3.128   7.910 -0.4420  0.0347  0.9177
20106WAT      O82228   3.182   2.756   3.600  0.1963 -0.6421  0.5972
20106WAT     H182229   3.232   2.772   3.520  0.8516 -1.9889  0.7015
20106WAT     H282230   3.155   2.843   3.629  0.8621 -0.0393 -0.5046
20106WAT    EPW82231   3.185   2.770   3.594  0.3705 -0.7402  0.4656
20107WAT      O82232   1.007   2.381   2.540  0.4502 -0.9196  0.5092
20107WAT     H182233   0.985   2.414   2.627 -1.9799  1.2443 -0.7978
20107WAT     H282234   0.948   2.307   2.527  1.6689 -2.0514  1.0780
20107WAT    EPW82235   0.997   2.376   2.550  0.2905 -0.7836  0.4119
20108WAT      O82236   0.315   1.301   6.303  1.3853 -0.2079  0.0300
20108WAT     H182237   0.274   1.258   6.378 -0.5527 -0.4685 -1.0894
20108WAT     H282238   0.400   1.258   6.294  0.5233 -2.1006  0.4493
20108WAT    EPW82239   0.320   1.289   6.312  1.0159 -0.4919 -0.0625
20109WAT      O82240  -4.310   2.479   8.134  0.2177  0.3448  0.0096
20109WAT     H182241  -4.313   2.558   8.188  1.1183 -0.7856  1.8058
20109WAT     H282242  -4.274   2.509   8.051  0.3198  1.8664  0.5632
20109WAT    EPW82243  -4.306   2.494   8.130  0.3500  0.3965  0.3195
20110WAT      O82244   0.645   7.699   0.498  0.1370 -0.6039 -0.0194
20110WAT     H182245   0.668   7.750   0.576 -0.7642  1.3943 -0.9942
20110WAT     H282246   0.729   7.672   0.461  0.6187 -0.3852  0.8825
20110WAT    EPW82247   0.659   7.702   0.504  0.0817 -0.3116 -0.0290
20111WAT      O82248  -0.463   8.142   5.604 -0.5463  0.0516 -0.4395
20111WAT     H182249  -0.372   8.161   5.626 -0.3494 -1.0572 -0.2358
20111WAT     H282250  -0.514   8.193   5.666 -0.0266 -0.4868  0.4551
20111WAT    EPW82251  -0.458   8.151   5.615 -0.4518 -0.1655 -0.2947
20112WAT      O82252  -0.582   6.816   0.035  0.2622  0.1517  0.6897
20112WAT     H182253  -0.610   6.750   0.098 -0.0115  0.0882  0.5030
20112WAT     H282254  -0.619   6.787  -0.048  0.2607  0.4627  0.5814
20112WAT    EPW82255  -0.591   6.804   0.032  0.2259  0.1843  0.6508
20113WAT      O82256   8.238   6.219   0.178 -0.0798  0.7602  0.4056
20113WAT     H182257   8.168   6.212   0.113 -0.0250 -0.0886  0.4256
20113WAT     H282258   8.224   6.145   0.237  1.0156  0.3766  0.2145
20113WAT    EPW82259   8.227   6.208   0.177  0.0715  0.5977  0.3831
20114WAT      O82260   5.352   2.580   2.870  0.1942 -0.1786 -0.6612
20114WAT     H182261   5.349   2.519   2.943  0.3096 -0.5551 -0.9621
20114WAT     H282262   5.436   2.625   2.879 -0.7914  1.5052  0.7821
20114WAT    EPW82263   5.363   2.578   2.881  0.0796 -0.0061 -0.5105
20115WAT      O82264  -0.779   4.730   8.598 -0.0664 -0.2263  0.8298
20115WAT     H182265  -0.700   4.700   8.554  0.9127 -0.1173  2.4385
20115WAT     H282266  -0.766   4.825   8.607 -1.4289  0.1844 -0.8598
20115WAT    EPW82267  -0.767   4.739   8.593 -0.1169 -0.1578  0.8187
20116WAT      O82268   8.644   3.671   1.715  0.2545 -0.7085 -0.3125
20116WAT     H182269   8.601   3.755   1.726  1.0604 -0.2882 -0.3083
20116WAT     H282270   8.621   3.643   1.626 -0.0471 -0.5120 -0.2966
20116WAT    EPW82271   8.635   3.678   1.705  0.3214 -0.6272 -0.3099
20117WAT      O82272   0.796   4.424   3.200  0.3801  0.4411 -0.5717
20117WAT     H182273   0.792   4.485   3.273  2.7919 -0.9014  0.8038
20117WAT     H282274   0.726   4.361   3.217  1.5579 -0.4522  1.2380
20117WAT    EPW82275   0.786   4.424   3.212  0.8535  0.1462 -0.1515
20118WAT      O82276   0.275   7.490   4.238 -0.1506 -1.7252 -0.8930
20118WAT     H182277   0.196   7.453   4.277 -0.8153 -0.9852 -1.5220
20118WAT     H282278   0.299   7.562   4.296 -0.6246 -1.1973 -1.3429
20118WAT    EPW82279   0.268   7.495   4.251 -0.3008 -1.5581 -1.0355
20119WAT      O82280   0.635   3.409   4.382 -0.7070 -0.0119 -0.1213
20119WAT     H182281   0.724   3.431   4.410 -0.6646  1.0605 -0.9976
20119WAT     H282282   0.583   3.412   4.462  0.3477 -2.6804  0.7891
20119WAT    EPW82283   0.640   3.412   4.396 -0.5623 -0.2223 -0.1166
20120WAT      O82284  -3.499   7.603   6.553  0.7792 -0.4107 -0.2350
20120WAT     H182285  -3.502   7.562   6.467  1.0308 -0.6536 -0.1298
20120WAT     H282286  -3.577   7.658   6.556  0.7601 -0.4132 -0.6102
20120WAT    EPW82287  -3.510   7.605   6.542  0.8099 -0.4432 -0.2704
20121WAT      O82288   2.466   9.102   1.100 -0.1126 -0.2941 -0.1229
20121WAT     H182289   2.559   9.110   1.118 -0.3213  0.7611  0.5827
20121WAT     H282290   2.461   9.079   1.007  0.8004  2.1038 -0.8348
20121WAT    EPW82291   2.477   9.100   1.090 -0.0197  0.1616 -0.1237
20122WAT      O82292   1.443   6.865   4.736 -0.0552 -0.3519  0.0506
20122WAT     H182293   1.466   6.946   4.781 -1.2351  0.5193 -0.8478
20122WAT     H282294   1.516   6.849   4.675 -0.3515  0.6720 -0.5830
20122WAT    EPW82295   1.456   6.873   4.734 -0.2498 -0.1020 -0.1514
20123WAT      O82296   6.920   0.966   4.751  0.3386  0.2584  0.0808
20123WAT     H182297   6.934   0.924   4.836 -0.0740  0.5353  0.2892
20123WAT     H282298   6.978   0.919   4.691 -0.0325 -0.5355  0.3287
20123WAT    EPW82299   6.930   0.954   4.754  0.2353  0.1902  0.1409
20124WAT      O82300   0.844   2.517   5.886 -0.4269  0.1747  0.2385
20124WAT     H182301   0.918   2.515   5.947 -0.7257  1.6539  0.6883
20124WAT     H282302   0.836   2.608   5.861 -0.9856 -0.2489 -1.2175
20124WAT    EPW82303   0.853   2.528   5.891 -0.5400  0.3139  0.1056
20125WAT      O82304   7.372   7.414   0.230 -0.3891  0.0007  0.3067
20125WAT     H182305   7.443   7.462   0.188 -0.4807 -0.4731 -0.3847
20125WAT     H282306   7.296   7.429   0.174 -0.7856  0.2992  0.9088
20125WAT    EPW82307   7.371   7.422   0.217 -0.4535 -0.0224  0.2949
20126WAT      O82308   2.304  10.053   2.962 -1.0092  0.4741  0.0481
20126WAT     H182309   2.301  10.019   2.873 -0.5304 -2.3272  1.0277
20126WAT     H282310   2.384  10.015   3.000  1.0118  4.6643  0.6083
20126WAT    EPW82311   2.314  10.044   2.956 -0.6795  0.6571  0.2512
20127WAT      O82312  -4.684   6.527   7.430  0.2315 -0.0739  0.4988
20127WAT     H182313  -4.608   6.469   7.425  0.1732 -0.0732 -3.4084
20127WAT     H282314  -4.759   6.467   7.428  0.1814  0.0030 -0.7376
20127WAT    EPW82315  -4.684   6.511   7.429  0.2174 -0.0637 -0.1793
20128WAT      O82316  -1.604   1.073   6.557 -0.1880 -0.1313 -0.7203
20128WAT     H182317  -1.626   1.142   6.620 -0.1203  0.5513 -1.4352
20128WAT     H282318  -1.514   1.048   6.580 -0.5050 -0.5843  0.0743
20128WAT    EPW82319  -1.595   1.078   6.568 -0.2210 -0.1010 -0.7098
20129WAT      O82320   6.069   4.731   4.071  0.7409  0.1222 -0.8820
20129WAT     H182321   6.088   4.810   4.121  1.7643  0.4807 -1.7893
20129WAT     H282322   6.131   4.666   4.106 -1.6242 -1.0592  1.4993
20129WAT    EPW82323   6.080   4.733   4.082  0.5639  0.0136 -0.6874
20130WAT      O82324   0.808   9.256   3.054  0.2611 -0.5578 -1.0159
20130WAT     H182325   0.731   9.292   3.098  1.6010  0.1374  0.9000
20130WAT     H282326   0.859   9.333   3.030  1.2165 -1.0532 -0.5984
20130WAT    EPW82327   0.804   9.271   3.056  0.5639 -0.5312 -0.7081
20131WAT      O82328   1.566   9.564   6.862  0.4669 -0.1920  0.1802
20131WAT     H182329   1.511   9.498   6.820  0.5168 -2.3799  3.1940
20131WAT     H282330   1.590   9.525   6.946  1.3688  3.3105  1.7410
20131WAT    EPW82331   1.562   9.550   6.867  0.5925 -0.0186  0.7837
20132WAT      O82332   2.092   1.391   2.337 -0.2034  0.3773  0.2246
20132WAT     H182333   2.013   1.434   2.304 -1.3063 -0.3280  1.8258
20132WAT     H282334   2.159   1.459   2.335 -0.9964  1.1569 -0.5993
20132WAT    EPW82335   2.090   1.405   2.333 -0.4536  0.3871  0.3271
20133WAT      O82336   6.748   5.054   0.851 -0.8606 -0.1372  0.0389
20133WAT     H182337   6.717   4.976   0.806  0.4519 -1.2006  0.8931
20133WAT     H282338   6.842   5.058   0.830 -0.8203  0.9811  0.3387
20133WAT    EPW82339   6.756   5.044   0.842 -0.6824 -0.1299  0.1911
20134WAT      O82340  -0.356   8.060   7.491 -0.2610  0.1779 -0.7899
20134WAT     H182341  -0.371   8.125   7.560 -0.9145 -0.7268 -0.0564
20134WAT     H282342  -0.339   8.112   7.412 -1.3166  1.2457 -0.3359
20134WAT    EPW82343  -0.356   8.076   7.490 -0.4864  0.1998 -0.6335
20135WAT      O82344   1.020   6.276   2.208 -0.3325  0.2616 -0.2897
20135WAT     H182345   0.979   6.343   2.153  1.5076  0.1683 -1.8676
20135WAT     H282346   0.993   6.193   2.168 -1.1058  0.0944  0.5514
20135WAT    EPW82347   1.011   6.274   2.196 -0.1918  0.2272 -0.3868
20136WAT      O82348   3.568   1.281   2.784 -0.0953 -0.1046  0.0425
20136WAT     H182349   3.488   1.249   2.827  0.6446 -0.6094  1.0754
20136WAT     H282350   3.579   1.370   2.818  0.7890 -0.6946  1.3732
20136WAT    EPW82351   3.559   1.289   2.794  0.1190 -0.2490  0.3543
20137WAT      O82352   0.517   6.201   4.296 -0.2711 -0.9254  0.1943
20137WAT     H182353   0.567   6.146   4.236 -0.5748 -2.0321  0.9137
20137WAT     H282354   0.530   6.160   4.382  0.3908  0.7829  0.9548
20137WAT    EPW82355   0.525   6.188   4.299 -0.2239 -0.8459  0.3896
20138WAT      O82356   3.233   1.467   2.714 -0.5142 -0.0074 -0.0063
20138WAT     H182357   3.261   1.390   2.764  0.3048 -0.1938 -0.7110
20138WAT     H282358   3.182   1.430   2.642  0.5407  0.0176 -0.7950
20138WAT    EPW82359   3.230   1.452   2.711 -0.2670 -0.0287 -0.2033
20139WAT      O82360  -0.926   5.617   6.169 -0.0587 -0.1087 -1.0398
20139WAT     H182361  -0.962   5.574   6.092 -2.3474 -0.1412 -0.0409
20139WAT     H282362  -0.922   5.548   6.236 -2.1878  0.7803  0.0852
20139WAT    EPW82363  -0.930   5.602   6.168 -0.6414  0.0043 -0.7596
20140WAT      O82364  -0.060  10.337   4.606  0.6048 -0.1273  0.5813
20140WAT     H182365   0.033  10.356   4.618  0.5725  0.7958 -0.5348
20140WAT     H282366  -0.082  10.373   4.520 -0.1920 -2.6420 -0.3364
20140WAT    EPW82367  -0.051  10.344   4.597  0.4956 -0.3372  0.3130
20141WAT      O82368  -1.521   1.970   3.766 -0.3385 -0.6510 -0.2408
20141WAT     H182369  -1.588   1.918   3.721 -1.2973 -0.4124  0.8799
20141WAT     H282370  -1.469   1.905   3.814 -0.7811 -0.6955  0.1866
20141WAT    EPW82371  -1.523   1.954   3.766 -0.5233 -0.6255 -0.0367
20142WAT      O82372  -4.543   9.316   4.090 -0.4322 -0.5754  0.7338
20142WAT     H182373  -4.588   9.380   4.035  0.9028  0.1422  0.4403
20142WAT     H282374  -4.613   9.273   4.139 -1.2757  4.2167  4.4379
20142WAT    EPW82375  -4.558   9.318   4.089 -0.3674  0.1512  1.1837
20143WAT      O82376  -3.354   1.525   4.616 -0.5073 -0.5278  0.1056
20143WAT     H182377  -3.261   1.534   4.599 -0.2307  0.1154  1.7526
20143WAT     H282378  -3.359   1.471   4.695 -1.5794 -1.3744 -0.5117
20143WAT    EPW82379  -3.343   1.519   4.624 -0.6123 -0.5546  0.2415
20144WAT      O82380   5.742   2.626   4.047 -0.2300  1.2724  0.0251
20144WAT     H182381   5.786   2.621   4.132  1.5868 -0.1791 -0.9186
20144WAT     H282382   5.668   2.566   4.055  1.3866 -0.8709 -0.1391
20144WAT    EPW82383   5.738   2.617   4.059  0.2227  0.7983 -0.1209
20145WAT      O82384  -1.700   8.902   3.999  0.1468 -0.4734  0.6374
20145WAT     H182385  -1.745   8.941   4.074 -0.9558 -0.8178  0.1658
20145WAT     H282386  -1.770   8.865   3.946  0.8368  0.4486 -0.9639
20145WAT    EPW82387  -1.715   8.902   4.002  0.0924 -0.3977  0.3641
20146WAT      O82388  -1.183   2.939   0.296  0.3872  0.8177  0.2849
20146WAT     H182389  -1.147   2.976   0.376  0.5065 -0.8067  1.0147
20146WAT     H282390  -1.250   2.878   0.326 -0.5738  1.2303 -0.9220
20146WAT    EPW82391  -1.187   2.936   0.311  0.2762  0.6578  0.2220
20147WAT      O82392   6.332   1.672   2.574 -0.2245  0.0973 -0.6177
20147WAT     H182393   6.330   1.634   2.661 -1.8737 -1.6859 -1.3597
20147WAT     H282394   6.247   1.715   2.565  0.7609  2.2203 -0.6140
20147WAT    EPW82395   6.321   1.673   2.584 -0.3119  0.1421 -0.7150
20148WAT      O82396   1.842   2.599   8.316 -0.9030  0.7448 -0.1344
20148WAT     H182397   1.841   2.684   8.360 -0.3407  1.1415 -0.8845
20148WAT     H282398   1.934   2.573   8.315 -0.8637  0.8801 -1.3496
20148WAT    EPW82399   1.854   2.607   8.322 -0.8236  0.8149 -0.3934
20149WAT      O82400  -1.359   3.608   5.718  0.2534 -0.5283 -0.0024
20149WAT     H182401  -1.291   3.675   5.720 -0.3670  0.0955  1.1409
20149WAT     H282402  -1.312   3.527   5.700  1.9177 -0.7816  4.3222
20149WAT    EPW82403  -1.344   3.606   5.716  0.3911 -0.4793  0.7188
20150WAT      O82404   9.067   2.474   1.726  0.6512 -0.2624  0.4844
20150WAT     H182405   9.018   2.402   1.686 -1.7207  2.2532 -1.6089
20150WAT     H282406   9.155   2.467   1.690  0.5135 -2.1400  0.4378
20150WAT    EPW82407   9.072   2.464   1.716  0.3204 -0.1782  0.2022
20151WAT      O82408   3.564   1.803   2.386 -0.0161  0.5712  0.0417
20151WAT     H182409   3.629   1.761   2.442  0.3639 -0.0840 -0.8747
20151WAT     H282410   3.518   1.863   2.445 -1.3933 -1.9204  1.7000
20151WAT    EPW82411   3.567   1.806   2.401 -0.1477  0.1562  0.1396
20152WAT      O82412   0.679   5.944   7.246  0.1502 -0.6726  0.0934
20152WAT     H182413   0.593   5.962   7.209  0.6405  1.8169 -0.0221
20152WAT     H282414   0.740   5.958   7.174  0.7979 -0.2214  0.7126
20152WAT    EPW82415   0.676   5.948   7.232  0.3003 -0.2849  0.1597
20153WAT      O82416  -4.597   9.009   8.469 -0.2030 -0.3712 -0.2033
20153WAT     H182417  -4.679   8.960   8.477 -0.5022 -0.0809 -1.3274
20153WAT     H282418  -4.529   8.942   8.478 -0.5930 -0.8890 -1.0026
20153WAT    EPW82419  -4.599   8.993   8.472 -0.2937 -0.4015 -0.4573
20154WAT      O82420  -3.371   2.335   8.705  0.1740  0.7382 -0.0390
20154WAT     H182421  -3.366   2.244   8.736 -0.3140  0.2204 -1.3914
20154WAT     H282422  -3.463   2.359   8.718  0.2494  0.9584  0.0930
20154WAT    EPW82423  -3.383   2.326   8.711  0.1196  0.6989 -0.2003
20155WAT      O82424  -3.522   5.172   7.894  0.4499  0.1234 -0.2810
20155WAT     H182425  -3.544   5.087   7.933  0.1913  0.7877  1.0854
20155WAT     H282426  -3.605   5.203   7.857  0.4954 -0.1106 -0.5844
20155WAT    EPW82427  -3.536   5.165   7.894  0.4218  0.1802 -0.1409
20156WAT      O82428   7.344   0.477   2.201  0.1285  0.1969  0.2952
20156WAT     H182429   7.346   0.564   2.240  0.9008 -0.4873  1.8822
20156WAT     H282430   7.431   0.441   2.219 -0.3009 -1.0474  0.0049
20156WAT    EPW82431   7.356   0.484   2.209  0.1738 -0.0575  0.4662
20157WAT      O82432   4.960   6.473   1.170  0.0786 -0.3337 -0.9450
20157WAT     H182433   4.969   6.553   1.119 -2.5468  0.5822 -0.1010
20157WAT     H282434   4.866   6.453   1.168  0.6324 -3.5991 -1.3886
20157WAT    EPW82435   4.949   6.481   1.163 -0.1948 -0.6437 -0.8922
20158WAT      O82436  -5.960   9.557   8.767 -0.1109 -0.2425 -0.1550
20158WAT     H182437  -5.977   9.481   8.712  1.0586 -1.2807  0.8740
20158WAT     H282438  -5.902   9.612   8.714 -1.2396  0.1623 -1.0424
20158WAT    EPW82439  -5.955   9.555   8.752 -0.1056 -0.3262 -0.1364
20159WAT      O82440  -3.512   3.493   6.081  0.6495  0.4989  0.2483
20159WAT     H182441  -3.434   3.496   6.025  1.2661 -0.7930  1.0044
20159WAT     H282442  -3.483   3.450   6.161 -0.9497 -0.4443  0.3637
20159WAT    EPW82443  -3.498   3.488   6.084  0.5199  0.2040  0.3631
20160WAT      O82444  -5.215   9.467   4.392  0.0945  0.1251 -0.1774
20160WAT     H182445  -5.199   9.472   4.297  1.4797 -1.3509 -0.0687
20160WAT     H282446  -5.167   9.542   4.428 -1.5822  1.5341 -0.7054
20160WAT    EPW82447  -5.207   9.478   4.384  0.0560  0.1163 -0.2327
20161WAT      O82448   4.240   4.259   3.963  0.3554 -0.0939 -0.7815
20161WAT     H182449   4.221   4.351   3.943  0.3478  0.0194 -0.2822
20161WAT     H282450   4.161   4.228   4.008  1.1901  0.3074  1.0932
20161WAT    EPW82451   4.227   4.267   3.966  0.4644 -0.0262 -0.4683
20162WAT      O82452   1.949   6.221   3.511  0.4722  0.6504  1.0354
20162WAT     H182453   1.923   6.206   3.420  3.2027 -0.9810  0.3789
20162WAT     H282454   1.914   6.307   3.532 -1.4623  0.4735 -1.0588
20162WAT    EPW82455   1.941   6.230   3.502  0.5772  0.4120  0.6727
20163WAT      O82456   5.128   5.605   5.164 -0.0212  0.1845  0.1913
20163WAT     H182457   5.080   5.611   5.081 -2.1205 -2.1717  1.0773
20163WAT     H282458   5.177   5.523   5.157 -1.1261 -0.6536  1.6086
20163WAT    EPW82459   5.128   5.595   5.152 -0.4439 -0.2370  0.4950
20164WAT      O82460   0.948   3.289   2.031 -0.2021 -0.0908  0.2758
20164WAT     H182461   0.879   3.346   1.999  0.1347  0.7139  0.9461
20164WAT     H282462   1.029   3.332   2.004  0.0730  0.2283  1.5293
20164WAT    EPW82463   0.950   3.302   2.023 -0.1214  0.0573  0.5295
20165WAT      O82464   6.191   3.239   5.329 -0.1473 -1.1219 -0.2525
20165WAT     H182465   6.154   3.293   5.399 -1.1075 -0.2014 -1.4192
20165WAT     H282466   6.115   3.197   5.289  0.4121 -1.8250 -0.5969
20165WAT    EPW82467   6.176   3.241   5.333 -0.2003 -1.0933 -0.4518
20166WAT      O82468   2.353   3.926   5.513 -0.2731 -0.5128 -0.4116
20166WAT     H182469   2.403   3.864   5.461 -1.5554 -0.4074 -1.8424
20166WAT     H282470   2.301   3.975   5.450 -1.2704  0.2130  0.9035
20166WAT    EPW82471   2.353   3.924   5.498 -0.5736 -0.4032 -0.4268
20167WAT      O82472  -1.841  10.305   3.636 -0.1614  0.2983 -0.2743
20167WAT     H182473  -1.822  10.253   3.558 -0.8009 -1.3991  0.6483
20167WAT     H282474  -1.808  10.253   3.709 -1.3777  0.8991  0.7484
20167WAT    EPW82475  -1.834  10.292   3.635 -0.4062  0.1535 -0.0178
20168WAT      O82476  -3.150   6.340   4.813 -0.0930  0.9627  0.1929
20168WAT     H182477  -3.163   6.434   4.827  0.7349  0.9409  1.1255
20168WAT     H282478  -3.059   6.324   4.834 -0.4218 -0.2009  0.8217
20168WAT    EPW82479  -3.140   6.350   4.818 -0.0271  0.8061  0.3989
20169WAT      O82480   8.422   0.306   3.864  0.0308 -0.2257 -0.0130
20169WAT     H182481   8.418   0.214   3.892  0.8231 -0.0140  0.8401
20169WAT     H282482   8.426   0.356   3.945 -2.2261  0.7039 -0.3997
20169WAT    EPW82483   8.422   0.300   3.878 -0.1621 -0.0752  0.0485
20170WAT      O82484  -4.193   1.075   6.456  0.3165 -0.8321  0.3136
20170WAT     H182485  -4.145   0.997   6.427 -0.3960 -0.6072 -1.6083
20170WAT     H282486  -4.129   1.146   6.448 -0.6340 -0.1834 -4.1177
20170WAT    EPW82487  -4.178   1.074   6.451  0.0973 -0.7169 -0.5243
20171WAT      O82488  -4.355   4.666   5.330  0.0636 -0.7398 -0.4538
20171WAT     H182489  -4.450   4.677   5.332 -0.1524 -2.3078 -0.3892
20171WAT     H282490  -4.333   4.632   5.417  0.8439  0.5771 -0.1079
20171WAT    EPW82491  -4.364   4.663   5.342  0.1378 -0.7730 -0.3996
20172WAT      O82492   2.471   5.159   3.839  0.5427 -0.6736  0.1893
20172WAT     H182493   2.482   5.147   3.934 -0.0793 -0.1501  0.3360
20172WAT     H282494   2.515   5.242   3.820  0.3158 -0.5729  0.0951
20172WAT    EPW82495   2.478   5.168   3.849  0.4308 -0.5913  0.1961
20173WAT      O82496   4.543   5.183   1.812 -0.0352  0.3603  0.0010
20173WAT     H182497   4.630   5.152   1.787 -0.0725 -0.9486  1.2992
20173WAT     H282498   4.510   5.229   1.735  0.4864 -2.0107 -1.7714
20173WAT    EPW82499   4.550   5.185   1.798  0.0288 -0.1249 -0.0615
20174WAT      O82500   5.112   3.189   6.648  0.0383  0.1268  0.3147
20174WAT     H182501   5.115   3.129   6.723 -1.5002 -0.8428 -0.3282
20174WAT     H282502   5.034   3.242   6.664  0.0285  0.3021 -0.3200
20174WAT    EPW82503   5.102   3.188   6.660 -0.1659  0.0221  0.1462
20175WAT      O82504   3.065   3.839   5.194  0.3776  0.2895  0.4178
20175WAT     H182505   3.090   3.903   5.261  1.0275  0.1786  0.2850
20175WAT     H282506   3.141   3.834   5.136 -0.1703  0.3604 -0.3175
20175WAT    EPW82507   3.078   3.847   5.195  0.3911  0.2843  0.3033
20176WAT      O82508   2.494   1.607   6.911 -0.5698 -0.2668 -0.3869
20176WAT     H182509   2.578   1.608   6.866 -1.1279 -0.0632 -1.4688
20176WAT     H282510   2.516   1.602   7.004  0.6075 -2.5965 -0.7299
20176WAT    EPW82511   2.508   1.607   6.917 -0.4882 -0.5472 -0.5746
20177WAT      O82512  -3.275  10.067   2.308  0.5991  0.1338  0.3225
20177WAT     H182513  -3.358  10.038   2.345 -0.3764  2.3158 -0.0044
20177WAT     H282514  -3.231  10.111   2.379  0.8476  0.2238  0.1135
20177WAT    EPW82515  -3.280  10.069   2.322  0.5032  0.4334  0.2518
20178WAT      O82516   2.982   1.359   7.036  0.0737  0.3258 -0.0129
20178WAT     H182517   2.962   1.449   7.063 -0.5084  0.8932 -2.1363
20178WAT     H282518   3.059   1.335   7.088 -0.4435  1.6171  1.4184
20178WAT    EPW82519   2.990   1.368   7.047 -0.0713  0.5709 -0.1042
20179WAT      O82520   6.978   2.974   2.350  0.2515 -0.5739 -0.2796
20179WAT     H182521   7.054   3.031   2.335 -1.7620  2.3713 -0.1369
20179WAT     H282522   7.013   2.902   2.403  2.5824  1.8951  1.8972
20179WAT    EPW82523   6.993   2.972   2.355  0.2935  0.1402  0.0263
20180WAT      O82524   7.100   0.685   4.444 -0.2386  0.0675 -0.1034
20180WAT     H182525   7.040   0.610   4.447  0.2634 -0.3212  2.7169
20180WAT     H282526   7.186   0.647   4.428 -0.0133  0.0191  1.1285
20180WAT    EPW82527   7.103   0.670   4.442 -0.1428  0.0098  0.4311
20181WAT      O82528   0.975   6.312   3.776  0.3644 -0.6640  0.3088
20181WAT     H182529   0.940   6.224   3.789  0.5761 -1.0131 -1.3153
20181WAT     H282530   1.014   6.310   3.689 -1.8195  1.7626 -0.8571
20181WAT    EPW82531   0.976   6.300   3.766  0.1043 -0.3901 -0.0591
20182WAT      O82532   6.994   0.086   4.094 -0.0346 -0.5007  0.1913
20182WAT     H182533   6.984   0.036   4.175  0.2470 -1.1002 -0.1353
20182WAT     H282534   6.946   0.168   4.110  0.2924 -0.4701  1.0792
20182WAT    EPW82535   6.986   0.091   4.107  0.0455 -0.5757  0.2656
20183WAT      O82536   1.140   4.158   7.752 -0.4169 -0.1946  0.5790
20183WAT     H182537   1.195   4.113   7.817 -0.5517  0.1757  0.9502
20183WAT     H282538   1.082   4.089   7.720  1.4911 -1.0674 -1.2139
20183WAT    EPW82539   1.140   4.143   7.757 -0.1831 -0.2608  0.3915
20184WAT      O82540   1.238   5.141   1.090  0.2505  0.9235 -0.1543
20184WAT     H182541   1.197   5.202   1.029 -1.5241  0.0742  0.1194
20184WAT     H282542   1.189   5.153   1.172  0.5363 -0.1407  0.1837
20184WAT    EPW82543   1.226   5.151   1.093  0.0542  0.6711 -0.0736
20185WAT      O82544  -1.084  10.340   3.371  1.1507  0.3845  0.3838
20185WAT     H182545  -1.153  10.303   3.315 -0.2060  1.2216  1.4523
20185WAT     H282546  -1.037  10.263   3.404 -0.1138 -0.2947  0.6755
20185WAT    EPW82547  -1.087  10.325   3.368  0.8050  0.4048  0.5631
20186WAT      O82548  -3.258   7.005   2.779 -0.1398 -0.3826  0.4185
20186WAT     H182549  -3.324   7.020   2.711 -0.6781 -0.0642  0.9998
20186WAT     H282550  -3.276   7.072   2.845  2.3435  1.3574 -0.5384
20186WAT    EPW82551  -3.269   7.016   2.779  0.1167 -0.1113  0.3691
20187WAT      O82552   3.574   5.447   1.784  0.1375 -0.3238  0.6788
20187WAT     H182553   3.621   5.521   1.823 -0.8744  0.7963 -0.1775
20187WAT     H282554   3.531   5.405   1.859 -0.6037  0.9405  0.9942
20187WAT    EPW82555   3.575   5.451   1.799 -0.0937 -0.0093  0.6075
20188WAT      O82556  -4.193   2.708   5.735 -0.5987 -0.2231 -0.1336
20188WAT     H182557  -4.128   2.774   5.711  0.7485 -1.3091  0.3740
20188WAT     H282558  -4.200   2.653   5.657 -0.3216 -0.5463  0.0639
20188WAT    EPW82559  -4.185   2.710   5.721 -0.3843 -0.4091 -0.0405
20189WAT      O82560  -1.327   8.471   6.194 -0.0782 -0.0613 -0.0422
20189WAT     H182561  -1.317   8.565   6.182  1.6246 -0.3386 -1.3430
20189WAT     H282562  -1.412   8.460   6.237 -0.1891  2.0601  0.3788
20189WAT    EPW82563  -1.337   8.482   6.198  0.1318  0.1817 -0.1583
20190WAT      O82564   3.609   1.531   0.589  0.6180  0.4447  0.2075
20190WAT     H182565   3.531   1.517   0.643  1.1625 -0.0193  0.8900
20190WAT     H282566   3.646   1.443   0.577  1.7886  0.7952  1.0543
20190WAT    EPW82567   3.604   1.517   0.595  0.8442  0.4297  0.4092
20191WAT      O82568   5.851   1.273   6.335 -0.2081  0.9817 -0.0251
20191WAT     H182569   5.907   1.296   6.261 -0.7962 -1.1138 -1.1951
20191WAT     H282570   5.910   1.264   6.409  1.2338 -1.9393 -1.3819
20191WAT    EPW82571   5.866   1.275   6.335 -0.0956  0.3201 -0.3583
20192WAT      O82572   0.634   6.886   0.849  0.5900  0.8399 -0.3648
20192WAT     H182573   0.707   6.852   0.901 -0.7256  1.1776  1.8471
20192WAT     H282574   0.559   6.832   0.876 -0.1489  0.9758 -2.0375
20192WAT    EPW82575   0.634   6.874   0.859  0.3190  0.9024 -0.2936
20193WAT      O82576   3.816  10.370   3.026 -0.4524 -0.4574 -0.4037
20193WAT     H182577   3.755  10.332   2.963 -1.5200 -1.5543  1.2223
20193WAT     H282578   3.812  10.312   3.102  1.4515  0.3316  0.3594
20193WAT    EPW82579   3.807  10.358   3.028 -0.3420 -0.4978 -0.0886
20194WAT      O82580  -2.609   3.908   6.999 -0.3491  0.4719 -0.5354
20194WAT     H182581  -2.648   3.952   7.075 -0.4854 -2.6133  1.3692
20194WAT     H282582  -2.685   3.879   6.948 -0.5060 -1.5084  0.7225
20194WAT    EPW82583  -2.624   3.910   7.002 -0.3878 -0.1961 -0.1180
20195WAT      O82584   0.379   7.969   6.815  0.7805 -0.0724 -0.1717
20195WAT     H182585   0.402   8.045   6.762 -0.3661  0.6776  0.3651
20195WAT     H282586   0.290   7.946   6.788 -0.3458  1.1097  2.2011
20195WAT    EPW82587   0.371   7.976   6.805  0.4807  0.1824  0.2120
20196WAT      O82588  -5.468   9.908   8.213 -0.9647  0.1640  0.2009
20196WAT     H182589  -5.514   9.974   8.162 -0.9982 -0.3532 -0.4530
20196WAT     H282590  -5.393   9.884   8.159 -0.4825  0.2684  0.8078
20196WAT    EPW82591  -5.464   9.914   8.199 -0.9055  0.1097  0.1945
20197WAT      O82592   2.370   6.415   4.438 -0.6420  0.3358 -0.4848
20197WAT     H182593   2.443   6.477   4.444 -1.6076  1.4372  0.4598
20197WAT     H282594   2.310   6.454   4.374 -0.2059 -0.8007 -1.6194
20197WAT    EPW82595   2.371   6.429   4.430 -0.7118  0.3314 -0.5100
20198WAT      O82596  -2.914   6.600   2.984 -0.3882  0.1038  0.3965
20198WAT     H182597  -2.840   6.660   2.987  0.7229 -1.0783 -1.3852
20198WAT     H282598  -2.913   6.565   2.895  0.0779 -3.7847  1.7393
20198WAT    EPW82599  -2.904   6.603   2.972 -0.1802 -0.5651  0.3386
20199WAT      O82600  -0.301   9.524   5.732 -0.5869  0.5236 -0.3012
20199WAT     H182601  -0.342   9.454   5.681  3.9618 -1.9505 -1.1177
20199WAT     H282602  -0.318   9.499   5.823 -0.5014 -0.6798 -0.5890
20199WAT    EPW82603  -0.309   9.511   5.737  0.0243  0.0386 -0.4466
20200WAT      O82604   4.893   1.460   6.088 -0.5309  0.3657  0.4003
20200WAT     H182605   4.955   1.518   6.043 -1.2631  0.8324 -0.0409
20200WAT     H282606   4.944   1.420   6.158 -0.0469  1.6967  0.8416
20200WAT    EPW82607   4.908   1.462   6.091 -0.5636  0.6028  0.4003
20201WAT      O82608   7.240   7.166   0.281  0.0149  0.4117  0.8944
20201WAT     H182609   7.292   7.245   0.268  2.9515 -1.6007 -0.7394
20201WAT     H282610   7.258   7.112   0.205 -2.6217 -1.5122  1.4870
20201WAT    EPW82611   7.249   7.169   0.270  0.0544 -0.1075  0.7570
20202WAT      O82612   5.521   0.141   0.974  0.0389 -0.1668 -0.6954
20202WAT     H182613   5.508   0.055   1.015 -0.5142  1.3771  2.7597
20202WAT     H282614   5.586   0.184   1.030 -0.8692  2.2326 -1.3688
20202WAT    EPW82615   5.528   0.135   0.987 -0.1535  0.3533 -0.3285
20203WAT      O82616  -0.125   0.306   6.967  0.0769 -0.3598 -0.4650
20203WAT     H182617  -0.209   0.275   6.932 -1.9234  1.5489  2.2221
20203WAT     H282618  -0.087   0.229   7.009 -2.5506 -0.4575  2.0722
20203WAT    EPW82619  -0.131   0.292   6.968 -0.5334 -0.1209  0.2239
20204WAT      O82620   1.566   5.097   6.120 -0.2630  0.1152 -0.0388
20204WAT     H182621   1.531   5.089   6.031 -2.2343 -1.6833  0.8106
20204WAT     H282622   1.550   5.188   6.145 -4.3329 -0.4934  0.1774
20204WAT    EPW82623   1.559   5.108   6.112 -1.0598 -0.2022  0.1016
20205WAT      O82624   1.943   2.605   0.385 -0.4380 -0.1863  0.3725
20205WAT     H182625   1.950   2.684   0.438 -2.6088  0.7558 -0.6465
20205WAT     H282626   1.956   2.533   0.448 -1.1547  0.9085  1.8322
20205WAT    EPW82627   1.946   2.606   0.400 -0.8188  0.0825  0.4306
20206WAT      O82628  -1.803   9.520   0.861  0.0636  0.4556 -0.3067
20206WAT     H182629  -1.809   9.598   0.916 -0.1670  0.1978  0.0376
20206WAT     H282630  -1.831   9.449   0.918 -0.3105  0.2034 -0.8061
20206WAT    EPW82631  -1.807   9.521   0.876 -0.0162  0.3886 -0.3272
20207WAT      O82632  -4.238   5.113   5.607  0.1295  0.2722 -0.5352
20207WAT     H182633  -4.171   5.096   5.541  1.3284 -0.6610  0.8702
20207WAT     H282634  -4.194   5.168   5.671 -1.0099  1.1352 -0.4692
20207WAT    EPW82635  -4.223   5.118   5.607  0.1373  0.2632 -0.3412
20208WAT      O82636   0.785   0.000   8.203 -0.3610  0.4526  0.2936
20208WAT     H182637   0.749   0.089   8.212  0.2272  0.6666  0.5680
20208WAT     H282638   0.864   0.011   8.150 -1.5701 -0.2448 -1.7709
20208WAT    EPW82639   0.790   0.013   8.197 -0.4429  0.3888  0.0572
20209WAT      O82640   6.751   4.683   3.808 -0.3420 -0.1352 -0.4852
20209WAT     H182641   6.837   4.660   3.772  0.0957 -0.0302  0.4539
20209WAT     H282642   6.770   4.751   3.873 -1.0724 -0.4520  0.0724
20209WAT    EPW82643   6.765   4.689   3.812 -0.3808 -0.1631 -0.2878
20210WAT      O82644   1.762   6.377   2.717 -0.2075 -0.3356 -0.0254
20210WAT     H182645   1.742   6.356   2.625 -1.5072 -1.1404  0.4081
20210WAT     H282646   1.677   6.375   2.760 -0.0957  3.2050  0.6353
20210WAT    EPW82647   1.748   6.374   2.710 -0.3642  0.0253  0.1189
20211WAT      O82648   6.619   7.831   0.874  0.3531 -0.3695  0.0137
20211WAT     H182649   6.659   7.877   0.947 -0.9406 -0.6412  0.9273
20211WAT     H282650   6.528   7.816   0.901 -0.5344  0.6063 -2.1285
20211WAT    EPW82651   6.612   7.835   0.887  0.0656 -0.2763 -0.1483
20212WAT      O82652  -3.139   4.149   4.895 -0.0962  0.3963 -0.2007
20212WAT     H182653  -3.112   4.119   4.808 -1.2618 -0.9015 -0.1502
20212WAT     H282654  -3.229   4.116   4.905 -0.2037  1.0484  1.2562
20212WAT    EPW82655  -3.148   4.141   4.885 -0.2642  0.3114 -0.0019
20213WAT      O82656   2.096   8.312   0.523 -0.0888  0.2771 -0.7948
20213WAT     H182657   2.088   8.359   0.440 -0.8190  2.7100  0.5362
20213WAT     H282658   2.170   8.355   0.568  1.5816 -2.2933 -0.9074
20213WAT    EPW82659   2.105   8.324   0.518  0.0350  0.2589 -0.6341
20214WAT      O82660   2.530   9.496   7.644 -0.2581  0.0347 -0.4695
20214WAT     H182661   2.601   9.471   7.703 -1.5291 -0.2956  0.9763
20214WAT     H282662   2.450   9.474   7.692 -1.3722  2.1059 -1.2607
20214WAT    EPW82663   2.529   9.490   7.658 -0.5726  0.2646 -0.3831
20215WAT      O82664   2.737   0.565   1.923  0.4046 -0.1226  0.7790
20215WAT     H182665   2.802   0.550   1.992 -0.7041 -0.6724  1.7351
20215WAT     H282666   2.736   0.660   1.911 -0.7027  0.1953  2.8780
20215WAT    EPW82667   2.746   0.575   1.930  0.1123 -0.1532  1.1819
20216WAT      O82668   1.133   3.577   6.294  0.2348  0.5799 -0.0642
20216WAT     H182669   1.217   3.601   6.256  1.3405 -2.2747  0.3525
20216WAT     H282670   1.091   3.521   6.229  0.4347 -1.1721  1.2255
20216WAT    EPW82671   1.139   3.573   6.280  0.4070 -0.0277  0.1607
20217WAT      O82672   3.487   8.124   2.673  0.2158  0.4308  0.4356
20217WAT     H182673   3.450   8.122   2.761 -2.5211  0.4982 -0.6173
20217WAT     H282674   3.431   8.184   2.624  1.5230  0.2351 -1.4104
20217WAT    EPW82675   3.475   8.131   2.678  0.0272  0.4139  0.0533
20218WAT      O82676  -5.013   0.483   8.032  0.7430 -0.6960 -0.4925
20218WAT     H182677  -5.013   0.517   7.943  1.1851 -0.0886 -0.2677
20218WAT     H282678  -5.020   0.388   8.021  0.8366 -0.6302 -1.1739
20218WAT    EPW82679  -5.014   0.475   8.019  0.8135 -0.6072 -0.5522
20219WAT      O82680   3.549   3.389   2.494  0.7198  0.0240 -0.3791
20219WAT     H182681   3.541   3.368   2.401 -1.0904  0.0612 -0.2731
20219WAT     H282682   3.565   3.305   2.536  1.6428  0.0174 -0.7150
20219WAT    EPW82683   3.550   3.375   2.487  0.6027  0.0280 -0.4094
20220WAT      O82684   1.104   4.773   0.728  0.4090  0.0313  0.0109
20220WAT     H182685   1.098   4.826   0.808 -1.1487 -1.0956  0.7049
20220WAT     H282686   1.031   4.803   0.674  0.0933 -0.7213  0.0004
20220WAT    EPW82687   1.093   4.784   0.731  0.1618 -0.2167  0.1011
20221WAT      O82688   4.256   3.955   8.525  0.3112 -0.2271 -0.0060
20221WAT     H182689   4.306   3.992   8.598 -0.1640  0.7766 -0.1687
20221WAT     H282690   4.299   3.990   8.447  0.0834 -0.3158 -0.1724
20221WAT    EPW82691   4.268   3.965   8.524  0.2186 -0.1065 -0.0496
20222WAT      O82692  -1.201   0.058   8.659  0.2602  0.5827 -0.9152
20222WAT     H182693  -1.134  -0.007   8.638  0.6818  1.0590 -1.0696
20222WAT     H282694  -1.152   0.137   8.681 -0.2456  1.4866 -2.7883
20222WAT    EPW82695  -1.186   0.060   8.659  0.2491  0.7648 -1.1826
20223WAT      O82696   6.970   5.758   3.201 -0.2224  0.1620 -0.0659
20223WAT     H182697   6.985   5.823   3.270  3.8433 -0.5488 -0.0181
20223WAT     H282698   6.940   5.680   3.248  0.8528  0.2103  0.7436
20223WAT    EPW82699   6.968   5.756   3.216  0.4556  0.0746  0.0472
20224WAT      O82700   5.534   0.629   7.154 -0.1746  0.2028  0.6443
20224WAT     H182701   5.510   0.565   7.088  2.7049  0.3130 -0.6480
20224WAT     H282702   5.537   0.579   7.236 -1.2957 -0.4951  0.2820
20224WAT    EPW82703   5.531   0.614   7.156  0.0572  0.1253  0.4261
20225WAT      O82704   0.382   0.072   3.142 -0.3071 -0.8815 -0.4123
20225WAT     H182705   0.379   0.135   3.070 -0.0129 -1.3446 -0.8305
20225WAT     H282706   0.442   0.110   3.206  0.2742 -0.9813 -0.8961
20225WAT    EPW82707   0.389   0.085   3.141 -0.1916 -0.9557 -0.5312
20226WAT      O82708   4.303   8.020   1.550  0.1613 -0.2905  0.0761
20226WAT     H182709   4.394   7.995   1.531  0.3592 -1.2146  2.0693
20226WAT     H282710   4.294   8.010   1.645 -1.7074  0.8933  0.0756
20226WAT    EPW82711   4.314   8.016   1.560 -0.0591 -0.2565  0.3390
20227WAT      O82712  -1.498   9.215   1.358 -0.1063 -0.1687 -0.3333
20227WAT     H182713  -1.482   9.285   1.295  0.8605 -0.0770  0.0046
20227WAT     H282714  -1.566   9.161   1.317  1.0415 -0.5504 -1.7881
20227WAT    EPW82715  -1.505   9.217   1.344  0.1726 -0.2069 -0.4807
20228WAT      O82716   1.766   0.371   1.479 -0.3176  0.0730  0.3182
20228WAT     H182717   1.844   0.316   1.471  0.1675  0.1222  3.4813
20228WAT     H282718   1.713   0.328   1.546 -1.5328  1.6879  0.4573
20228WAT    EPW82719   1.770   0.358   1.487 -0.4140  0.2925  0.7538
20229WAT      O82720   2.996   9.334   0.974  0.0799  0.5456  0.3536
20229WAT     H182721   3.025   9.389   1.046  2.0872  0.7840 -0.5879
20229WAT     H282722   2.976   9.250   1.016  0.4422  0.9056  1.2863
20229WAT    EPW82723   2.997   9.330   0.989  0.3924  0.6242  0.3524
20230WAT      O82724   7.579   7.350   1.207  0.5958 -0.4243  0.0566
20230WAT     H182725   7.559   7.277   1.266  0.6541 -1.8356 -1.5869
20230WAT     H282726   7.524   7.334   1.130  1.9430  0.2470 -1.0846
20230WAT    EPW82727   7.569   7.338   1.205  0.7811 -0.5219 -0.3107
20231WAT      O82728   5.840   5.813   4.330  1.0571  0.4654 -0.1498
20231WAT     H182729   5.927   5.839   4.361 -0.1422  2.3378  1.9499
20231WAT     H282730   5.782   5.831   4.404 -0.9606 -2.1140 -0.9497
20231WAT    EPW82731   5.844   5.818   4.344  0.6328  0.3719  0.0217
20232WAT      O82732   3.836   0.769   7.283  0.4093  0.2264 -0.1607
20232WAT     H182733   3.828   0.863   7.271  1.4674  0.1855 -1.4054
20232WAT     H282734   3.762   0.745   7.338 -0.4708  1.6253 -0.7028
20232WAT    EPW82735   3.826   0.778   7.289  0.4328  0.4055 -0.3965
20233WAT      O82736  -1.007   8.388   7.045 -0.0268  0.2644 -0.0970
20233WAT     H182737  -0.967   8.349   7.123 -0.7505  1.0412  0.6853
20233WAT     H282738  -1.031   8.476   7.073 -1.2121  0.2124 -0.9078
20233WAT    EPW82739  -1.005   8.395   7.059 -0.2787  0.3600 -0.1009
20234WAT      O82740  -3.284   8.365   6.262 -0.5282 -0.0043 -0.2061
20234WAT     H182741  -3.316   8.388   6.349  0.2257 -2.2207  0.7231
20234WAT     H282742  -3.216   8.430   6.243  0.4565 -0.4386  1.6225
20234WAT    EPW82743  -3.279   8.377   6.271 -0.2989 -0.3538  0.1576
20235WAT      O82744  -3.563   2.478   6.102  0.2990  0.2401  0.0420
20235WAT     H182745  -3.624   2.551   6.109  0.8769  0.7901 -0.6328
20235WAT     H282746  -3.566   2.452   6.010 -0.3629 -0.9972  0.3876
20235WAT    EPW82747  -3.572   2.484   6.091  0.2879  0.1494 -0.0014
20236WAT      O82748  -4.914   8.815   5.543 -0.3337  0.0120  0.3473
20236WAT     H182749  -4.970   8.764   5.485  0.0186 -0.4214  0.3816
20236WAT     H282750  -4.825   8.788   5.520 -0.0389  1.7568 -0.7238
20236WAT    EPW82751  -4.910   8.805   5.533 -0.2484  0.1850  0.2103
20237WAT      O82752   7.177   0.419   2.576  0.3711 -0.1766  0.1777
20237WAT     H182753   7.204   0.467   2.654  1.3797  0.5962 -0.6148
20237WAT     H282754   7.082   0.413   2.583  0.0249  3.0781 -0.2763
20237WAT    EPW82755   7.168   0.424   2.587  0.4585  0.3546  0.0134
20238WAT      O82756   4.742   7.694   5.547 -0.9338 -0.2761 -0.3014
20238WAT     H182757   4.758   7.742   5.466 -1.0495  3.5014  1.6913
20238WAT     H282758   4.829   7.669   5.578 -0.7452 -0.1965 -0.7614
20238WAT    EPW82759   4.755   7.697   5.540 -0.9243  0.2325 -0.0992
20239WAT      O82760   4.722   3.554   0.258 -0.9610 -0.2488 -0.4186
20239WAT     H182761   4.807   3.580   0.222 -0.8228 -1.2710 -0.8435
20239WAT     H282762   4.668   3.536   0.181 -0.8861 -1.7308 -0.1405
20239WAT    EPW82763   4.726   3.555   0.243 -0.9327 -0.5791 -0.4379
20240WAT      O82764   7.176   4.013   1.534 -0.8233  0.1054 -0.1628
20240WAT     H182765   7.221   4.045   1.456 -2.8424  2.0238 -0.6269
20240WAT     H282766   7.115   3.947   1.501 -2.8778  2.1013 -0.5416
20240WAT    EPW82767   7.174   4.008   1.520 -1.3607  0.6216 -0.2740
20241WAT      O82768  -1.086   6.949   0.442 -0.3960  0.2796 -0.5333
20241WAT     H182769  -1.142   6.990   0.376  0.5186 -0.1808 -1.6336
20241WAT     H282770  -1.049   7.022   0.491  0.5011  0.7735 -1.8810
20241WAT    EPW82771  -1.089   6.964   0.440 -0.1571  0.2840 -0.8562
20242WAT      O82772   0.164   1.663   0.960 -0.6603  0.7423  0.3293
20242WAT     H182773   0.166   1.709   0.876  0.2884  1.3018  0.6310
20242WAT     H282774   0.232   1.596   0.952  0.2558  1.5446  1.0230
20242WAT    EPW82775   0.173   1.660   0.948 -0.4143  0.9220  0.4606
20243WAT      O82776   2.914   0.899   0.529  1.2098  0.4598  0.6404
20243WAT     H182777   2.955   0.895   0.615  1.7414  0.5202  0.3919
20243WAT     H282778   2.820   0.903   0.547  1.2268 -0.9970  1.1782
20243WAT    EPW82779   2.907   0.899   0.542  1.2821  0.2757  0.6786
20244WAT      O82780  -0.453   7.325   0.777 -0.5176 -0.0144 -0.5364
20244WAT     H182781  -0.535   7.276   0.776 -0.6340  0.1460  0.3172
20244WAT     H282782  -0.481   7.417   0.773 -0.3802  0.0381 -0.2889
20244WAT    EPW82783  -0.468   7.331   0.777 -0.5148  0.0136 -0.3912
20245WAT      O82784  -1.024   1.242   8.130  0.1066 -0.1665  0.0496
20245WAT     H182785  -1.056   1.163   8.174  0.1453  0.6148  1.5401
20245WAT     H282786  -0.989   1.297   8.200 -0.7041  1.5655 -0.8307
20245WAT    EPW82787  -1.024   1.239   8.145  0.0048  0.1650  0.1302
20246WAT      O82788   6.591   3.268   0.186 -0.1025 -0.2154  0.5179
20246WAT     H182789   6.525   3.302   0.125 -0.4955  1.0860  1.6023
20246WAT     H282790   6.599   3.336   0.253  2.9533  0.0345  0.0303
20246WAT    EPW82791   6.583   3.281   0.187  0.2489 -0.0108  0.5966
20247WAT      O82792   3.761  -0.005   7.318 -0.3109  0.3708 -0.4929
20247WAT     H182793   3.774   0.090   7.322 -0.6261  0.3751  1.8951
20247WAT     H282794   3.693  -0.017   7.252 -0.9530  1.9102 -0.1492
20247WAT    EPW82795   3.754   0.006   7.310 -0.4371  0.5746 -0.1326
20248WAT      O82796   8.545   0.656   3.334  0.5574  0.1297  0.3296
20248WAT     H182797   8.606   0.623   3.268 -0.3144  1.6415 -1.3485
20248WAT     H282798   8.497   0.578   3.363 -0.7451 -0.3817 -2.7438
20248WAT    EPW82799   8.546   0.642   3.329  0.2708  0.2616 -0.2971
20249WAT      O82800   5.188   5.208   4.722 -0.9279  0.3531  0.1903
20249WAT     H182801   5.175   5.144   4.652  0.1131 -0.0046  0.3022
20249WAT     H282802   5.227   5.157   4.793  1.1128  1.3165 -0.1681
20249WAT    EPW82803   5.191   5.193   4.722 -0.5214  0.4330  0.1578
20250WAT      O82804  -3.760   0.607   8.171  0.7400 -0.1685 -0.2151
20250WAT     H182805  -3.720   0.544   8.231 -2.2941 -1.6624  0.4579
20250WAT     H282806  -3.837   0.639   8.218 -0.3054  0.6041 -2.3158
20250WAT    EPW82807  -3.765   0.603   8.185  0.2019 -0.2636 -0.4034
20251WAT      O82808   1.527  10.020   1.419 -0.2787  0.2490  0.1831
20251WAT     H182809   1.579  10.100   1.412  0.8537 -0.3761  1.1485
20251WAT     H282810   1.585   9.951   1.389 -0.6699 -0.4249  0.9396
20251WAT    EPW82811   1.541  10.021   1.414 -0.1810  0.0772  0.4102
20252WAT      O82812  -1.404   6.614   0.451 -0.5139 -0.4884 -0.2192
20252WAT     H182813  -1.466   6.686   0.464  1.2680  0.7589  2.3262
20252WAT     H282814  -1.394   6.607   0.356 -2.5902  0.9470 -0.6048
20252WAT    EPW82815  -1.411   6.623   0.440 -0.5527 -0.1345  0.0656
20253WAT      O82816  -3.025   9.295   2.332  0.8515  0.3384 -0.4301
20253WAT     H182817  -2.988   9.345   2.259 -1.0364  0.9612 -1.0047
20253WAT     H282818  -3.049   9.361   2.397 -0.8559  0.1327 -0.8252
20253WAT    EPW82819  -3.023   9.310   2.331  0.3773  0.3934 -0.5580
20254WAT      O82820   2.930   7.715   1.098  0.1397 -0.1300  0.3468
20254WAT     H182821   2.884   7.654   1.040  1.5483 -0.7116 -0.2144
20254WAT     H282822   3.006   7.742   1.047 -0.3172  1.9214  0.6930
20254WAT    EPW82823   2.934   7.710   1.084  0.2652  0.0639  0.3185
20255WAT      O82824   4.729   4.575   2.425  0.5392  0.1276  0.1655
20255WAT     H182825   4.683   4.656   2.401  1.1780  0.3851 -0.2268
20255WAT     H282826   4.687   4.507   2.372 -0.2638  0.1239  0.7859
20255WAT    EPW82827   4.717   4.577   2.414  0.5176  0.1612  0.1956
20256WAT      O82828  -0.216   4.871   4.863 -0.2668  0.7669 -0.4610
20256WAT     H182829  -0.220   4.917   4.779 -0.6088  1.8881  0.1452
20256WAT     H282830  -0.224   4.941   4.929 -0.9171 -0.1667  0.4891
20256WAT    EPW82831  -0.218   4.887   4.861 -0.3977  0.7918 -0.2558
20257WAT      O82832   4.341   1.777   1.973 -0.7845 -0.6994 -0.2183
20257WAT     H182833   4.431   1.754   1.996 -1.3313 -2.3678  0.4117
20257WAT     H282834   4.332   1.749   1.882 -0.7421 -0.7687 -0.2011
20257WAT    EPW82835   4.352   1.770   1.964 -0.8512 -0.9286 -0.1330
20258WAT      O82836   3.227   6.727   5.426  0.0962 -0.4951 -0.2201
20258WAT     H182837   3.145   6.690   5.393 -0.9934  0.8352  0.8674
20258WAT     H282838   3.295   6.672   5.387 -1.1957 -0.5016 -2.7212
20258WAT    EPW82839   3.225   6.715   5.416 -0.2180 -0.3204 -0.4065
20259WAT      O82840   6.587   0.782   0.383  0.3959 -0.0698 -0.0010
20259WAT     H182841   6.647   0.856   0.388 -0.3673  0.7445 -1.9493
20259WAT     H282842   6.621   0.729   0.311  0.4355 -1.1981  0.8130
20259WAT    EPW82843   6.600   0.784   0.374  0.3004 -0.1112 -0.1506
20260WAT      O82844   6.783   6.226   3.156 -0.3382 -0.5626 -0.0192
20260WAT     H182845   6.847   6.177   3.208  2.5369  1.9636 -0.8370
20260WAT     H282846   6.776   6.179   3.074  1.1910 -0.4623 -0.2295
20260WAT    EPW82847   6.791   6.213   3.152  0.2427 -0.2162 -0.1547
20261WAT      O82848   1.295   7.402   1.865 -0.4329 -0.0016  0.1287
20261WAT     H182849   1.369   7.427   1.920  0.8045 -2.6090 -0.1959
20261WAT     H282850   1.233   7.361   1.925  0.2454 -1.4766 -0.1338
20261WAT    EPW82851   1.297   7.400   1.880 -0.1802 -0.5400  0.0513
20262WAT      O82852  -1.989   5.772   5.685  0.0141  0.2634 -0.5942
20262WAT     H182853  -1.987   5.777   5.589  0.6760  1.0840 -0.5481
20262WAT     H282854  -1.916   5.715   5.708 -0.0878  0.1406 -0.5791
20262WAT    EPW82855  -1.979   5.765   5.675  0.0880  0.3555 -0.5860
20263WAT      O82856  -0.591   9.592   2.109 -0.5911  0.3152 -0.0242
20263WAT     H182857  -0.528   9.643   2.059  0.3551  0.3095  1.1060
20263WAT     H282858  -0.600   9.640   2.191 -0.3344 -0.8627  0.7203
20263WAT    EPW82859  -0.584   9.605   2.113 -0.4325  0.1593  0.2232
20264WAT      O82860  -2.203   3.952   1.605  0.6400  0.1648  0.9852
20264WAT     H182861  -2.168   3.892   1.539 -0.9181 -1.7083  1.7818
20264WAT     H282862  -2.297   3.939   1.602  0.4076  1.1997  2.5018
20264WAT    EPW82863  -2.211   3.943   1.596  0.4039  0.0541  1.2902
20265WAT      O82864  -4.794   6.518   8.567 -0.5364  0.1624 -0.1278
20265WAT     H182865  -4.839   6.434   8.563  1.2001 -0.9996  2.4294
20265WAT     H282866  -4.719   6.508   8.508  0.3413 -0.5888  1.0695
20265WAT    EPW82867  -4.790   6.506   8.559 -0.1917 -0.0899  0.3676
20266WAT      O82868   1.911   8.105   6.134 -0.2848 -0.4134 -0.3544
20266WAT     H182869   1.897   8.128   6.226 -1.7016 -1.1889 -0.3522
20266WAT     H282870   1.823   8.098   6.097  0.0599 -3.6750 -0.8440
20266WAT    EPW82871   1.898   8.107   6.141 -0.4262 -0.9456 -0.4187
20267WAT      O82872  -6.910   6.429   7.804 -0.4521  0.8972 -0.7354
20267WAT     H182873  -6.856   6.352   7.789 -1.6366  0.1427 -1.2432
20267WAT     H282874  -6.873   6.496   7.745 -2.4761 -0.7944 -4.2839
20267WAT    EPW82875  -6.898   6.428   7.794 -0.8752  0.5746 -1.2703
20268WAT      O82876   3.804   5.102   0.725  0.4014 -0.6050 -0.3047
20268WAT     H182877   3.883   5.078   0.677  0.2797  1.9756 -1.9840
20268WAT     H282878   3.735   5.047   0.687  1.1620 -2.3088  0.6360
20268WAT    EPW82879   3.805   5.091   0.713  0.4857 -0.4892 -0.4022
20269WAT      O82880  -2.047   1.075   3.864 -0.2394  0.2176  0.3365
20269WAT     H182881  -2.016   1.158   3.899 -0.4063  1.5214 -2.4222
20269WAT     H282882  -2.098   1.098   3.787 -2.4492 -2.3140  0.8823
20269WAT    EPW82883  -2.050   1.089   3.858 -0.5529  0.0557  0.0446
20270WAT      O82884   1.567   4.202   7.235 -0.1821  0.0334 -0.0383
20270WAT     H182885   1.578   4.166   7.323  1.3144  0.8810  0.1552
20270WAT     H282886   1.503   4.273   7.246  3.0579  3.0217  1.3330
20270WAT    EPW82887   1.560   4.207   7.248  0.4426  0.5395  0.1683
20271WAT      O82888  -1.840   2.012   7.738  0.1360  0.3940 -0.1118
20271WAT     H182889  -1.782   1.964   7.796  1.8235  1.2068 -1.0499
20271WAT     H282890  -1.925   1.969   7.749  0.5395  0.0786  2.3707
20271WAT    EPW82891  -1.843   2.000   7.747  0.4118  0.4597  0.0920
20272WAT      O82892   4.263   6.885   4.961 -0.1185 -0.1504 -0.3155
20272WAT     H182893   4.307   6.903   5.045 -0.4572 -1.3390  0.1386
20272WAT     H282894   4.189   6.830   4.985 -1.2463  0.9333 -1.2075
20272WAT    EPW82895   4.259   6.880   4.975 -0.3119 -0.1643 -0.3734
20273WAT      O82896  -2.129   9.853   3.504 -0.4628  0.7137  0.5524
20273WAT     H182897  -2.218   9.858   3.468 -0.4732  0.0472  0.4606
20273WAT     H282898  -2.122   9.763   3.537 -0.0041  0.9210  1.0449
20273WAT    EPW82899  -2.140   9.841   3.504 -0.4036  0.6533  0.6052
20274WAT      O82900  -2.654   7.822   2.895  0.1116 -0.2859  0.8313
20274WAT     H182901  -2.734   7.867   2.922  0.1890 -0.1070  0.7652
20274WAT     H282902  -2.660   7.735   2.934 -1.3937 -1.2297 -1.3316
20274WAT    EPW82903  -2.665   7.816   2.904 -0.0767 -0.3867  0.5373
20275WAT      O82904   2.134   8.018   2.139 -0.8110  0.2214  0.1983
20275WAT     H182905   2.188   8.094   2.159  1.9482 -0.6021 -3.1699
20275WAT     H282906   2.164   7.950   2.199 -0.6176  0.7301  0.6849
20275WAT    EPW82907   2.145   8.019   2.149 -0.4215  0.1802 -0.1818
20276WAT      O82908  -2.576   8.704   3.485  0.1634  0.4416  0.4272
20276WAT     H182909  -2.665   8.682   3.456  0.3669  1.0034 -0.6656
20276WAT     H282910  -2.571   8.669   3.574 -0.7228 -0.7321  0.0496
20276WAT    EPW82911  -2.587   8.696   3.493  0.0733  0.3610  0.2332
20277WAT      O82912  -2.543   1.652   6.142 -0.0377  0.0423 -0.6028
20277WAT     H182913  -2.488   1.726   6.117 -0.6094  0.4413 -0.6955
20277WAT     H282914  -2.580   1.677   6.227  0.8204 -0.7181  0.0201
20277WAT    EPW82915  -2.541   1.665   6.150  0.0001 -0.0054 -0.5329
20278WAT      O82916  -2.144   7.693   5.267  0.2076  0.5631  0.2862
20278WAT     H182917  -2.190   7.616   5.232 -1.0522  1.8700 -1.0492
20278WAT     H282918  -2.061   7.695   5.219 -0.5154  1.0080 -1.0000
20278WAT    EPW82919  -2.139   7.683   5.256 -0.0539  0.7942 -0.0596
20279WAT      O82920  -2.355   7.153   7.309  0.1169  0.0372 -0.4438
20279WAT     H182921  -2.337   7.145   7.215  0.0484 -0.8218 -0.3957
20279WAT     H282922  -2.277   7.193   7.346 -0.2689  1.3562 -1.0141
20279WAT    EPW82923  -2.342   7.157   7.301  0.0570  0.0980 -0.5126
20280WAT      O82924  -2.049   3.470   4.143  0.0301  0.4549 -0.0227
20280WAT     H182925  -2.058   3.562   4.168 -0.7285 -0.0653  1.7709
20280WAT     H282926  -2.070   3.422   4.223  0.8014 -1.2790 -0.8227
20280WAT    EPW82927  -2.053   3.476   4.157  0.0317  0.1576  0.1082
20281WAT      O82928   3.655   3.524   5.090 -0.2857 -0.6444 -1.0626
20281WAT     H182929   3.561   3.517   5.073 -0.9858  2.8579  0.3784
20281WAT     H282930   3.686   3.586   5.024  0.4334  0.2063  0.0394
20281WAT    EPW82931   3.646   3.532   5.079 -0.2831 -0.0702 -0.7274
20282WAT      O82932  -1.243   8.068   2.771  0.3865 -0.3079  0.2797
20282WAT     H182933  -1.219   8.132   2.705 -0.5565  0.2276  0.4428
20282WAT     H282934  -1.200   7.987   2.743  0.8186  0.1622 -0.4317
20282WAT    EPW82935  -1.234   8.066   2.759  0.3191 -0.1755  0.2074
20283WAT      O82936  -2.794   8.948   7.378  0.0518 -0.0410 -0.3840
20283WAT     H182937  -2.774   9.037   7.351 -0.1994  0.1087 -0.0812
20283WAT     H282938  -2.882   8.932   7.345  0.6372 -0.7094 -1.7482
20283WAT    EPW82939  -2.803   8.958   7.370  0.0960 -0.1092 -0.5240
20284WAT      O82940  -2.457   5.691   5.394  0.4091 -0.3907 -0.3248
20284WAT     H182941  -2.547   5.684   5.362 -0.0794 -2.7420  1.3090
20284WAT     H282942  -2.409   5.623   5.347  0.8469 -0.4829  0.2435
20284WAT    EPW82943  -2.463   5.681   5.383  0.4023 -0.7129 -0.0346
20285WAT      O82944  -1.055   3.233   0.563 -0.3512 -0.1485  0.5096
20285WAT     H182945  -1.001   3.158   0.589  1.4493  0.8237 -0.1770
20285WAT     H282946  -1.132   3.229   0.619  1.6943 -0.0797  3.5332
20285WAT    EPW82947  -1.058   3.223   0.574  0.1560 -0.0112  0.8178
20286WAT      O82948   1.783   7.480   2.196  0.7141 -0.0666 -0.3659
20286WAT     H182949   1.761   7.538   2.268  0.2508  1.3399 -1.5774
20286WAT     H282950   1.837   7.411   2.235 -0.5402 -0.0331  1.5067
20286WAT    EPW82951   1.787   7.479   2.210  0.4876  0.1233 -0.2786
20287WAT      O82952   0.632   4.728   0.846 -0.3519  0.9330 -0.2974
20287WAT     H182953   0.717   4.714   0.804  1.0422 -0.2718  2.5680
20287WAT     H282954   0.644   4.809   0.896  0.0022 -0.3746  1.8699
20287WAT    EPW82955   0.645   4.737   0.847 -0.1214  0.6015  0.3664
20288WAT      O82956   2.739   8.881   7.303 -0.0482 -0.2572  0.4678
20288WAT     H182957   2.712   8.911   7.216  0.2390  1.7430  1.0138
20288WAT     H282958   2.675   8.813   7.325  0.3251 -1.3628 -1.5797
20288WAT    EPW82959   2.727   8.876   7.294  0.0390 -0.1397  0.2699
20289WAT      O82960  -0.862   9.144   0.637 -0.6962 -0.7234 -0.8717
20289WAT     H182961  -0.872   9.112   0.547  3.3840  1.4149 -2.3280
20289WAT     H282962  -0.771   9.125   0.659 -1.0016  0.6986  2.0566
20289WAT    EPW82963  -0.851   9.137   0.628 -0.1983 -0.2532 -0.6776
20290WAT      O82964  -3.492   8.248   3.426  0.5939 -0.0273  0.2090
20290WAT     H182965  -3.406   8.281   3.452  1.8471 -2.4086 -0.5498
20290WAT     H282966  -3.509   8.289   3.341  1.0707  0.3358  0.2877
20290WAT    EPW82967  -3.483   8.257   3.418  0.8221 -0.2933  0.1194
20291WAT      O82968  -1.874   7.870   6.915  0.4516  0.2654  0.0317
20291WAT     H182969  -1.888   7.796   6.856  0.3509  1.9098 -2.1190
20291WAT     H282970  -1.839   7.830   6.995  1.5561 -2.0037 -1.4575
20291WAT    EPW82971  -1.871   7.855   6.918  0.5840  0.1831 -0.4485
20292WAT      O82972  -4.784   7.876   6.091  1.0802 -0.5658 -0.1510
20292WAT     H182973  -4.819   7.931   6.021 -1.9627  1.6615  2.7635
20292WAT     H282974  -4.726   7.934   6.140 -0.2681 -0.5728  1.5631
20292WAT    EPW82975  -4.781   7.891   6.088  0.5012 -0.2730  0.4594
20293WAT      O82976   4.729  10.173   2.710  0.0799 -0.3571  0.0643
20293WAT     H182977   4.686  10.130   2.635 -1.2184 -1.8251  1.5626
20293WAT     H282978   4.790  10.234   2.670 -2.5531  1.0242 -2.2477
20293WAT    EPW82979   4.731  10.175   2.695 -0.4387 -0.3686 -0.0430
20294WAT      O82980  -0.696   9.674   8.085 -0.3891 -0.2126  0.1031
20294WAT     H182981  -0.679   9.635   8.171  2.4459 -2.8815 -1.4848
20294WAT     H282982  -0.786   9.707   8.092 -0.7965 -1.5722  3.6066
20294WAT    EPW82983  -0.706   9.673   8.097 -0.0689 -0.7439  0.3557
20295WAT      O82984   6.013   7.413   1.086  0.0718 -0.2769  0.0156
20295WAT     H182985   6.105   7.431   1.070 -0.0064  1.9522  1.6061
20295WAT     H282986   5.967   7.487   1.046 -0.8284 -0.1763  1.1939
20295WAT    EPW82987   6.019   7.425   1.078 -0.0572  0.0305  0.3808
20296WAT      O82988  -0.975   0.368   7.555  0.3430  0.0281 -0.1635
20296WAT     H182989  -1.037   0.295   7.553  1.2912 -0.8310  0.7045
20296WAT     H282990  -0.949   0.375   7.647 -1.3550  2.9037  0.2484
20296WAT    EPW82991  -0.980   0.360   7.567  0.2441  0.2941  0.0055
20297WAT      O82992   4.837   3.173   2.927  0.5454  0.4935 -0.5009
20297WAT     H182993   4.874   3.259   2.946  1.6481 -0.2899  1.1433
20297WAT     H282994   4.912   3.114   2.927 -0.5448 -1.1433  2.8235
20297WAT    EPW82995   4.852   3.177   2.930  0.5469  0.1743  0.1545
20298WAT      O82996   1.669   6.280   8.041 -0.9908 -0.3550  0.1775
20298WAT     H182997   1.669   6.263   7.947 -1.0925  2.7182 -0.4992
20298WAT     H282998   1.589   6.330   8.057  0.1786  1.2893  1.3634
20298WAT    EPW82999   1.659   6.285   8.031 -0.8500  0.2673  0.2451
20299WAT      O83000   7.694   8.690   0.063 -0.1871  0.8515  0.0748
20299WAT     H183001   7.692   8.606   0.110  1.3347  0.4702 -0.4761
20299WAT     H283002   7.603   8.719   0.061 -0.6735 -0.5570  0.6974
20299WAT    EPW83003   7.682   8.683   0.069 -0.0508  0.6156  0.0843
20300WAT      O83004   6.390   4.466   0.631  0.1738  0.4189 -0.2220
20300WAT     H183005   6.322   4.521   0.670 -0.4254 -0.9497  0.7292
20300WAT     H283006   6.468   4.521   0.629 -0.2949  1.1532  1.1204
20300WAT    EPW83007   6.391   4.481   0.636  0.0331  0.3352  0.0805
20301WAT      O83008   6.785   0.796   5.577  0.0401  0.1771  0.2163
20301WAT     H183009   6.827   0.845   5.648 -2.1177  1.9958  0.3638
20301WAT     H283010   6.856   0.775   5.517  1.5404  0.7822  1.6858
20301WAT    EPW83011   6.800   0.800   5.579 -0.0467  0.4968  0.4296
20302WAT      O83012  -1.601   3.946   7.820  0.4628  0.5314 -0.5381
20302WAT     H183013  -1.620   3.903   7.736  0.3969 -1.2913  0.3658
20302WAT     H283014  -1.545   3.884   7.867  1.6573  2.1201  0.2452
20302WAT    EPW83015  -1.596   3.933   7.815  0.6117  0.5006 -0.3154
20303WAT      O83016   0.959   2.481   1.376 -0.2682  0.3958  0.1299
20303WAT     H183017   0.930   2.407   1.430 -0.7971 -1.3207 -2.3494
20303WAT     H283018   1.053   2.468   1.366 -0.3083  0.2478 -0.0485
20303WAT    EPW83019   0.967   2.470   1.382 -0.3433  0.1498 -0.2206
20304WAT      O83020  -1.716   1.363   6.922 -0.9941 -0.2014  0.5910
20304WAT     H183021  -1.802   1.402   6.909  0.4884  2.9191 -1.1626
20304WAT     H283022  -1.662   1.434   6.957  0.7530 -2.2701  2.4749
20304WAT    EPW83023  -1.720   1.377   6.925 -0.5682 -0.0626  0.6082
20305WAT      O83024   1.541   0.436   3.565  0.2821  0.2836 -0.1731
20305WAT     H183025   1.583   0.499   3.623  1.5418  0.0243 -0.7781
20305WAT     H283026   1.454   0.472   3.550  1.1389  2.1566 -0.9237
20305WAT    EPW83027   1.535   0.449   3.571  0.5613  0.4964 -0.3518
20306WAT      O83028  -1.632   4.874   0.272 -0.5310 -0.3659  0.4832
20306WAT     H183029  -1.676   4.915   0.347  0.4339 -1.4429  1.6919
20306WAT     H283030  -1.574   4.942   0.239  0.1112 -0.3019  1.6674
20306WAT    EPW83031  -1.630   4.888   0.278 -0.3191 -0.4995  0.7988
20307WAT      O83032  -2.524   2.361   4.324  0.0537 -0.6994 -0.6391
20307WAT     H183033  -2.452   2.366   4.261  0.9584 -0.9570  0.3422
20307WAT     H283034  -2.589   2.423   4.292  2.6005  3.0707  0.8446
20307WAT    EPW83035  -2.523   2.370   4.312  0.5090 -0.2362 -0.3142
20308WAT      O83036  -0.101   2.766   3.842 -0.1811 -0.3771  0.4240
20308WAT     H183037  -0.095   2.840   3.782 -2.3009  1.7522  2.5959
20308WAT     H283038  -0.050   2.792   3.919 -1.8078 -0.6272  1.6502
20308WAT    EPW83039  -0.094   2.779   3.845 -0.6752 -0.1293  0.8723
20309WAT      O83040   3.036   6.278   4.658 -0.7015  0.7921 -0.4470
20309WAT     H183041   3.072   6.189   4.651  0.0780  0.9401  1.3224
20309WAT     H283042   2.952   6.266   4.701  1.3172  1.1682  4.1608
20309WAT    EPW83043   3.030   6.264   4.663 -0.3324  0.8614  0.3941
20310WAT      O83044  -3.144   3.624   6.119  0.2465 -0.0420 -0.7001
20310WAT     H183045  -3.140   3.719   6.106 -2.3105  0.0531 -1.2920
20310WAT     H283046  -3.191   3.612   6.201  0.7631 -0.8196 -0.5033
20310WAT    EPW83047  -3.150   3.635   6.128 -0.0226 -0.1320 -0.7522
20311WAT      O83048   6.130   5.384   1.758  0.3519  0.4156 -0.6441
20311WAT     H183049   6.129   5.460   1.816  0.0312 -0.6713  0.8405
20311WAT     H283050   6.039   5.353   1.759  1.0165 -1.7390  1.2471
20311WAT    EPW83051   6.118   5.390   1.766  0.3972 -0.0119 -0.1988
20312WAT      O83052   8.144   0.397   0.690  0.0144 -0.5645 -0.3413
20312WAT     H183053   8.197   0.472   0.718 -1.8788 -0.3544  3.2325
20312WAT     H283054   8.208   0.331   0.663  1.8374  1.3090 -0.8272
20312WAT    EPW83055   8.160   0.398   0.690  0.0052 -0.2896  0.0660
20313WAT      O83056   0.768   2.697   6.788 -0.4428 -0.7169 -0.1252
20313WAT     H183057   0.716   2.641   6.731 -0.2598  0.2626 -1.3158
20313WAT     H283058   0.709   2.722   6.859 -2.1898  1.6242 -2.2522
20313WAT    EPW83059   0.753   2.693   6.790 -0.6491 -0.2789 -0.5627
20314WAT      O83060   2.761   4.034   6.330  0.1940  0.1754 -0.6862
20314WAT     H183061   2.799   3.980   6.262 -0.4495  1.1243 -1.8461
20314WAT     H283062   2.835   4.060   6.385  0.9348  0.4832 -1.8083
20314WAT    EPW83063   2.776   4.031   6.329  0.2068  0.3412 -0.9871
20315WAT      O83064   3.799   3.363   7.643 -0.1621  0.2124  0.2729
20315WAT     H183065   3.864   3.394   7.580 -1.6566  0.4642 -1.2055
20315WAT     H283066   3.835   3.389   7.728  2.0235 -0.3554 -0.4137
20315WAT    EPW83067   3.812   3.371   7.646 -0.0710  0.1708 -0.0126
20316WAT      O83068   4.274   4.351   6.278 -0.4426  0.5156  0.5867
20316WAT     H183069   4.311   4.398   6.203  0.0688 -0.5321  0.1538
20316WAT     H283070   4.210   4.291   6.239  1.0002 -1.2281  0.7557
20316WAT    EPW83071   4.270   4.349   6.263 -0.1848  0.1476  0.5522
20317WAT      O83072   0.495   2.762   4.798  0.6796  0.6492 -0.3415
20317WAT     H183073   0.476   2.727   4.711  0.8351 -0.5675  0.0849
20317WAT     H283074   0.575   2.715   4.825 -0.4395 -0.4672  1.2318
20317WAT    EPW83075   0.503   2.751   4.790  0.5525  0.3415 -0.0777
20318WAT      O83076   0.688   1.664   0.620  0.0447  0.3084  0.3889
20318WAT     H183077   0.721   1.574   0.619  1.5899  0.8572 -1.5145
20318WAT     H283078   0.594   1.655   0.602  0.2801 -0.8837 -0.3283
20318WAT    EPW83079   0.680   1.651   0.618  0.2796  0.2236  0.0433
20319WAT      O83080  -1.174   4.430   8.788  0.4520 -0.0466  0.2607
20319WAT     H183081  -1.225   4.445   8.708 -0.5809  2.3070  1.2542
20319WAT     H283082  -1.107   4.498   8.787 -0.8677  1.3941  2.3276
20319WAT    EPW83083  -1.172   4.441   8.778  0.1417  0.4539  0.6647
20320WAT      O83084  -4.027   9.725   7.812  0.8175  0.2609 -0.4519
20320WAT     H183085  -4.108   9.680   7.837  0.6384  1.0029  0.3885
20320WAT     H283086  -3.970   9.657   7.777 -0.2026 -0.2639 -1.1412
20320WAT    EPW83087  -4.031   9.710   7.811  0.6592  0.2899 -0.4320
20321WAT      O83088  -2.994   8.049   3.935 -0.4247 -0.8864 -0.8078
20321WAT     H183089  -2.950   7.986   3.991 -0.2950 -1.0737 -1.1165
20321WAT     H283090  -3.082   8.014   3.924 -0.3730 -0.9836 -0.9243
20321WAT    EPW83091  -3.000   8.036   3.941 -0.4008 -0.9236 -0.8639
20322WAT      O83092   5.229   0.811   3.366  0.4701  0.4890 -0.7072
20322WAT     H183093   5.254   0.720   3.382 -0.0627  0.1338 -1.8062
20322WAT     H283094   5.264   0.859   3.441  1.0255 -0.5728 -0.2682
20322WAT    EPW83095   5.237   0.805   3.378  0.4730  0.3021 -0.7942
20323WAT      O83096  -0.112   8.533   7.890 -0.2902 -0.1805  0.7744
20323WAT     H183097  -0.086   8.623   7.908 -0.8599  0.2938 -0.6377
20323WAT     H283098  -0.057   8.480   7.948  2.1282  0.8823 -0.4130
20323WAT    EPW83099  -0.102   8.538   7.900 -0.0464  0.0219  0.4318
20324WAT      O83100  -4.887   6.127   5.456  0.4609  0.1671 -0.5300
20324WAT     H183101  -4.952   6.197   5.451 -0.7518 -0.8025  0.7942
20324WAT     H283102  -4.837   6.135   5.374  0.1337  2.3139 -0.5933
20324WAT    EPW83103  -4.889   6.138   5.444  0.2577  0.3223 -0.3638
20325WAT      O83104   5.875   6.749   1.675 -0.0719 -0.0903 -0.3265
20325WAT     H183105   5.862   6.751   1.580 -0.2679  0.4370 -0.2913
20325WAT     H283106   5.822   6.675   1.704 -0.6241  0.2120 -0.5438
20325WAT    EPW83107   5.866   6.739   1.666 -0.1705  0.0193 -0.3505
20326WAT      O83108  -3.640   6.616   5.832 -0.2618 -0.0251  0.0055
20326WAT     H183109  -3.584   6.551   5.873  1.1406  0.6263 -0.7886
20326WAT     H283110  -3.606   6.625   5.743 -0.8349  1.2985 -0.1152
20326WAT    EPW83111  -3.629   6.609   5.825 -0.1525  0.2356 -0.1154
20327WAT      O83112   5.734   5.688   2.320 -0.0529  0.3594  0.3071
20327WAT     H183113   5.806   5.663   2.378  0.6020 -0.8434 -0.9610
20327WAT     H283114   5.679   5.745   2.374  1.2703  0.4455  1.6460
20327WAT    EPW83115   5.736   5.692   2.335  0.2079  0.2120  0.3166
20328WAT      O83116  -1.794   9.253   2.038  0.0901  0.5393 -0.0336
20328WAT     H183117  -1.822   9.307   2.112 -1.1446  0.2466 -0.2623
20328WAT     H283118  -1.735   9.188   2.076  1.5617  1.9950  0.2567
20328WAT    EPW83119  -1.790   9.252   2.053  0.1214  0.6928 -0.0255
20329WAT      O83120   0.068   1.871   5.392 -0.9200 -0.1621 -0.3433
20329WAT     H183121   0.007   1.943   5.411  0.1114  0.4355  0.8202
20329WAT     H283122   0.143   1.888   5.448 -1.3901 -3.1797  1.4303
20329WAT    EPW83123   0.070   1.883   5.402 -0.8460 -0.4813  0.0443
20330WAT      O83124  -1.204   1.415   5.411 -0.1043  0.0386 -0.0205
20330WAT     H183125  -1.123   1.462   5.395 -1.4792  2.0067 -1.8993
20330WAT     H283126  -1.213   1.357   5.335 -0.7292  0.3218 -0.1735
20330WAT    EPW83127  -1.195   1.414   5.399 -0.3681  0.3355 -0.2885
20331WAT      O83128   4.671   0.828   4.568  0.1266 -0.1338 -0.0064
20331WAT     H183129   4.660   0.803   4.659  0.6456  0.5807  0.2596
20331WAT     H283130   4.741   0.770   4.536  0.4886  0.1502  0.2676
20331WAT    EPW83131   4.679   0.817   4.575  0.2427 -0.0021  0.0648
20332WAT      O83132  -3.162   7.665   4.424  1.0019 -0.5523  0.2994
20332WAT     H183133  -3.215   7.648   4.346 -0.1618 -0.3748  1.0207
20332WAT     H283134  -3.101   7.592   4.429  0.4331 -1.0730 -0.2392
20332WAT    EPW83135  -3.161   7.653   4.414  0.7733 -0.5977  0.3235
20333WAT      O83136   0.334   6.415   5.791  0.1332  0.1603 -0.4540
20333WAT     H183137   0.331   6.488   5.728  0.3108  0.8478  0.3091
20333WAT     H283138   0.382   6.451   5.866 -0.6659 -0.4144  0.3517
20333WAT    EPW83139   0.340   6.430   5.792  0.0512  0.1752 -0.2472
20334WAT      O83140   2.041   5.821   3.186  0.1351 -0.9264 -0.2387
20334WAT     H183141   2.076   5.864   3.264 -0.4058 -0.7231 -0.0998
20334WAT     H283142   1.956   5.863   3.172 -1.1154 -2.9602  0.7837
20334WAT    EPW83143   2.034   5.832   3.195 -0.1012 -1.1678 -0.0855
20335WAT      O83144  -2.436   5.423   4.754 -0.4382 -0.5515 -0.4714
20335WAT     H183145  -2.419   5.482   4.828 -1.8278 -2.5294  1.5375
20335WAT     H283146  -2.414   5.475   4.677  1.2163  1.5769  1.2995
20335WAT    EPW83147  -2.431   5.438   4.754 -0.4032 -0.5317  0.0272
20336WAT      O83148   4.164   7.178   1.710  0.3286  0.0443  0.0650
20336WAT     H183149   4.076   7.197   1.677  0.5417  0.3984 -0.3147
20336WAT     H283150   4.203   7.264   1.723  0.3949 -0.0996  0.8646
20336WAT    EPW83151   4.157   7.192   1.707  0.3655  0.0720  0.1203
20337WAT      O83152   3.851   4.588   2.076 -0.0790  0.5529  0.3788
20337WAT     H183153   3.771   4.601   2.025  0.9853  2.2727 -0.9911
20337WAT     H283154   3.920   4.582   2.010  1.0720  0.2895  1.5667
20337WAT    EPW83155   3.850   4.589   2.061  0.2133  0.7451  0.3548
20338WAT      O83156  -2.980  10.185   3.533  0.4986 -0.0150 -0.1663
20338WAT     H183157  -2.993  10.186   3.438  1.1363  0.5172 -0.2572
20338WAT     H283158  -3.013  10.099   3.561  1.9527 -0.9255 -1.1138
20338WAT    EPW83159  -2.986  10.174   3.524  0.7745 -0.0648 -0.3031
20339WAT      O83160   2.561   8.707   2.697  0.1877  0.1728 -0.3380
20339WAT     H183161   2.639   8.762   2.703  0.4531 -0.3337  1.3545
20339WAT     H283162   2.509   8.746   2.626  0.6021  2.2833  0.4600
20339WAT    EPW83163   2.564   8.719   2.688  0.2774  0.3848 -0.0094
20340WAT      O83164   3.861   2.737   7.795 -0.5744  0.0235 -0.4941
20340WAT     H183165   3.816   2.665   7.749 -0.4853  0.1645 -0.8048
20340WAT     H283166   3.847   2.718   7.888 -3.0991  1.1619 -0.5424
20340WAT    EPW83167   3.853   2.725   7.801 -0.8957  0.1923 -0.5412
20341WAT      O83168  -1.354   3.572   6.386 -0.6862  0.1471 -0.5266
20341WAT     H183169  -1.411   3.499   6.362 -1.9161  0.0614  2.2233
20341WAT     H283170  -1.317   3.547   6.471 -4.7389  4.2837  3.0339
20341WAT    EPW83171  -1.357   3.559   6.394 -1.3829  0.6814  0.3057
20342WAT      O83172   6.006   8.895   2.081 -0.6147 -0.7669 -0.0789
20342WAT     H183173   6.039   8.821   2.132  1.9494  0.7964  0.7160
20342WAT     H283174   6.057   8.894   2.001  0.0404  0.5663  0.2909
20342WAT    EPW83175   6.017   8.885   2.077 -0.1900 -0.3848  0.0747
20343WAT      O83176   5.974   1.485   2.330 -0.0852 -0.1356  0.0938
20343WAT     H183177   6.037   1.419   2.302  2.0825  1.3052  1.3248
20343WAT     H283178   5.953   1.461   2.420  0.0312  0.3362  0.2498
20343WAT    EPW83179   5.979   1.473   2.338  0.2162  0.1166  0.2768
20344WAT      O83180  -3.757   6.964   8.727 -0.3052 -0.6458 -0.0970
20344WAT     H183181  -3.733   6.890   8.671  1.4961  0.6296 -1.1567
20344WAT     H283182  -3.797   7.027   8.666 -0.8350 -0.3187  0.5796
20344WAT    EPW83183  -3.759   6.963   8.711 -0.1374 -0.4344 -0.1473
20345WAT      O83184  -1.817   2.881   6.754  0.5650 -0.5403  0.2765
20345WAT     H183185  -1.742   2.933   6.784 -0.0786  1.9361 -1.9918
20345WAT     H283186  -1.826   2.904   6.661 -0.9867 -3.3553 -0.3896
20345WAT    EPW83187  -1.808   2.891   6.746  0.2754 -0.5850 -0.1106
20346WAT      O83188   2.937   4.336   6.544 -0.4756  0.4093  0.0412
20346WAT     H183189   2.926   4.295   6.630  1.8527  0.4820  0.4568
20346WAT     H283190   3.024   4.377   6.549  0.0224 -0.1612 -2.5634
20346WAT    EPW83191   2.947   4.336   6.556 -0.1028  0.3436 -0.2475
20347WAT      O83192   1.385   3.319   0.246  0.9311 -0.0170 -0.3655
20347WAT     H183193   1.331   3.257   0.296  1.9341 -0.5594  0.0600
20347WAT     H283194   1.321   3.375   0.202  0.0165  0.3200  1.3269
20347WAT    EPW83195   1.369   3.318   0.247  0.9428 -0.0441 -0.0861
20348WAT      O83196  -0.380   5.019   5.137  0.3684 -0.5314 -0.4370
20348WAT     H183197  -0.434   5.023   5.216 -1.8740 -1.1376 -1.8327
20348WAT     H283198  -0.437   5.051   5.067  2.5045  0.6489 -1.7550
20348WAT    EPW83199  -0.395   5.024   5.138  0.3544 -0.4556 -0.7949
20349WAT      O83200  -2.385   1.332   7.122  0.1321  0.0156 -0.6620
20349WAT     H183201  -2.430   1.292   7.048 -0.9962  0.5415 -0.2752
20349WAT     H283202  -2.303   1.282   7.130 -1.8418 -3.2988  0.7616
20349WAT    EPW83203  -2.380   1.320   7.114 -0.2772 -0.3521 -0.4232
20350WAT      O83204   2.316   9.830   4.684  0.1102  0.4228  0.0618
20350WAT     H183205   2.308   9.755   4.743 -1.8572  0.6248  0.1216
20350WAT     H283206   2.406   9.860   4.695  0.4662 -0.9476  1.2190
20350WAT    EPW83207   2.327   9.824   4.693 -0.1024  0.2689  0.2222
20351WAT      O83208   1.825   3.151   7.591 -0.4850  0.1374 -0.0435
20351WAT     H183209   1.806   3.161   7.498 -0.2469 -0.9204 -0.2122
20351WAT     H283210   1.904   3.098   7.594 -0.4593  0.2087  0.7658
20351WAT    EPW83211   1.833   3.145   7.579 -0.4503  0.0073  0.0408
20352WAT      O83212   0.680   9.633   6.263 -0.3286  0.4359  0.0727
20352WAT     H183213   0.628   9.639   6.343 -1.7171 -1.4210 -0.6116
20352WAT     H283214   0.746   9.566   6.282 -0.0490  0.6763 -0.0376
20352WAT    EPW83215   0.682   9.625   6.276 -0.4749  0.2227 -0.0322
20353WAT      O83216   4.832   0.838   2.645 -0.7463 -0.3964 -0.4455
20353WAT     H183217   4.895   0.813   2.712 -1.5943 -0.7682  0.2375
20353WAT     H283218   4.750   0.796   2.672 -1.4484  0.5948 -0.9679
20353WAT    EPW83219   4.829   0.829   2.657 -0.9508 -0.3147 -0.4243
20354WAT      O83220   2.836   4.043   5.826 -0.2264 -0.2982 -0.2576
20354WAT     H183221   2.817   4.008   5.914 -1.3238 -0.2265 -0.4474
20354WAT     H283222   2.794   3.980   5.767 -1.9579  1.1199 -0.6146
20354WAT    EPW83223   2.828   4.030   5.830 -0.5994 -0.1016 -0.3297
20355WAT      O83224   7.395   0.370   3.500  0.1294 -0.0282  0.1509
20355WAT     H183225   7.304   0.353   3.473  0.4652  0.3043 -1.2679
20355WAT     H283226   7.424   0.440   3.442  0.7016  1.1901  1.8635
20355WAT    EPW83227   7.387   0.377   3.489  0.2489  0.1763  0.1897
20356WAT      O83228  -0.087   2.178   2.765 -0.3014 -0.0456  0.3107
20356WAT     H183229  -0.121   2.096   2.729  0.9553 -0.9289  1.0704
20356WAT     H283230  -0.009   2.153   2.814  0.7009  1.7340 -0.2668
20356WAT    EPW83231  -0.081   2.164   2.766 -0.0035  0.0725  0.3347
20357WAT      O83232   5.958   1.578   4.148 -0.2480  0.1969  0.8745
20357WAT     H183233   5.950   1.672   4.168 -0.8572  0.7782 -1.7158
20357WAT     H283234   6.049   1.568   4.119 -0.7783  0.5218 -1.0287
20357WAT    EPW83235   5.969   1.589   4.147 -0.3982  0.3164  0.2818
20358WAT      O83236  -3.449   0.833   8.393 -0.3008 -0.8715  0.0147
20358WAT     H183237  -3.429   0.758   8.337  0.7601  0.3035 -1.2639
20358WAT     H283238  -3.455   0.907   8.333 -1.8409  0.0155  1.1772
20358WAT    EPW83239  -3.447   0.833   8.378 -0.3641 -0.5995 -0.0005
20359WAT      O83240   0.053   2.840   6.320  0.0848  0.2453  0.3257
20359WAT     H183241  -0.023   2.851   6.377 -0.2765 -0.8798  0.0829
20359WAT     H283242   0.021   2.860   6.232  0.4773  1.3188  0.4095
20359WAT    EPW83243   0.039   2.844   6.316  0.0889  0.2385  0.3047
20360WAT      O83244   2.956   3.607   6.931 -0.6965 -0.5853  0.3216
20360WAT     H183245   2.880   3.661   6.954 -0.8653 -1.5103  2.1316
20360WAT     H283246   3.025   3.671   6.913 -0.7712  0.2981  2.7880
20360WAT    EPW83247   2.955   3.623   6.932 -0.7287 -0.5908  0.8855
20361WAT      O83248  -4.364   6.568   8.023 -0.2722 -0.4488  0.1726
20361WAT     H183249  -4.278   6.544   7.989 -1.2907 -0.4180 -2.7274
20361WAT     H283250  -4.356   6.661   8.045  0.0608 -0.0125 -1.6154
20361WAT    EPW83251  -4.352   6.577   8.021 -0.3624 -0.3872 -0.4458
20362WAT      O83252   3.142   5.880   6.407 -0.5620 -0.1903  0.0166
20362WAT     H183253   3.094   5.912   6.330 -0.8510 -0.5479  0.0476
20362WAT     H283254   3.230   5.860   6.374  0.1129  2.0594  0.2940
20362WAT    EPW83255   3.148   5.882   6.392 -0.5112  0.0594  0.0572
20363WAT      O83256  -1.615   9.483   8.987 -0.0351 -0.1195 -0.3619
20363WAT     H183257  -1.646   9.572   9.003  0.4069 -0.0078 -0.0828
20363WAT     H283258  -1.611   9.476   8.892 -0.0579  0.1687 -0.3871
20363WAT    EPW83259  -1.619   9.494   8.976  0.0200 -0.0665 -0.3284
20364WAT      O83260   1.374   7.978   2.620  0.1739  0.0279 -0.3172
20364WAT     H183261   1.291   7.963   2.665  0.2678 -2.6829 -0.9294
20364WAT     H283262   1.432   8.012   2.689 -0.1051 -2.6018  1.3596
20364WAT    EPW83263   1.370   7.981   2.635  0.1495 -0.6762 -0.1768
20365WAT      O83264  -4.873   3.842   5.991 -0.0312  0.2250  0.0850
20365WAT     H183265  -4.807   3.875   5.931  0.0950 -3.7823 -2.3507
20365WAT     H283266  -4.822   3.799   6.060 -0.0559 -0.6090 -0.3986
20365WAT    EPW83267  -4.857   3.841   5.992 -0.0176 -0.4135 -0.2999
20366WAT      O83268   7.882   0.789   1.734  0.7289  0.2492  0.0617
20366WAT     H183269   7.974   0.811   1.752  1.5780 -0.9686 -2.2961
20366WAT     H283270   7.858   0.844   1.659 -0.7018  0.9826  1.0171
20366WAT    EPW83271   7.891   0.799   1.726  0.6523  0.1853 -0.1233
20367WAT      O83272  -3.238   8.558   6.777 -0.4430  0.2826  0.0628
20367WAT     H183273  -3.306   8.625   6.777  0.2033  1.1720  3.7278
20367WAT     H283274  -3.204   8.559   6.867  1.9426 -2.6270 -0.6543
20367WAT    EPW83275  -3.242   8.567   6.789 -0.0430  0.0157  0.4516
20368WAT      O83276   1.036   8.003   1.709 -0.2350 -0.6539  1.1837
20368WAT     H183277   0.951   7.966   1.735 -1.4714  0.1908 -1.3349
20368WAT     H283278   1.079   7.932   1.660 -1.3092  0.1162 -1.0244
20368WAT    EPW83279   1.031   7.989   1.706 -0.5398 -0.4408  0.5602
20369WAT      O83280   5.472   6.777   2.911  0.4712 -0.1077  0.1525
20369WAT     H183281   5.401   6.746   2.967 -2.2012  3.5683 -0.8144
20369WAT     H283282   5.523   6.835   2.968  0.9265 -0.4197  0.0687
20369WAT    EPW83283   5.470   6.781   2.926  0.1788  0.3359  0.0139
20370WAT      O83284   7.571   4.865   2.089 -1.5423 -0.7365  0.6545
20370WAT     H183285   7.496   4.856   2.148 -0.8062 -0.7302  1.6203
20370WAT     H283286   7.562   4.953   2.052 -1.6201 -0.4681  1.3078
20370WAT    EPW83287   7.560   4.875   2.092 -1.4555 -0.7002  0.8681
20371WAT      O83288   2.170   2.480   2.144 -0.4760  0.7423 -0.5952
20371WAT     H183289   2.226   2.553   2.168  1.4827 -0.0722 -2.4194
20371WAT     H283290   2.193   2.411   2.206 -0.1818  0.7231 -0.7269
20371WAT    EPW83291   2.180   2.480   2.155 -0.1788  0.6324 -0.8532
20372WAT      O83292   0.107   8.803   1.600 -0.0763 -0.0894 -0.8798
20372WAT     H183293   0.087   8.763   1.684  1.1551 -1.1469 -1.0613
20372WAT     H283294   0.159   8.881   1.622  0.9580 -0.8154 -0.6658
20372WAT    EPW83295   0.111   8.808   1.614  0.2226 -0.3247 -0.8755
20373WAT      O83296  -0.306   9.344   4.782  0.5624 -0.9901 -0.2326
20373WAT     H183297  -0.397   9.374   4.783  0.7158 -0.5104 -0.5764
20373WAT     H283298  -0.269   9.378   4.863  0.0416 -2.4593  0.6713
20373WAT    EPW83299  -0.313   9.352   4.793  0.5139 -1.1206 -0.1585
20374WAT      O83300  -1.899   5.512   0.938  0.0073  0.3349 -0.1550
20374WAT     H183301  -1.879   5.544   0.851  0.3802  0.1448 -0.1406
20374WAT     H283302  -1.905   5.417   0.929 -0.4676  0.3503 -0.0729
20374WAT    EPW83303  -1.897   5.503   0.926 -0.0062  0.3119 -0.1422
20375WAT      O83304  -2.466   3.149   4.924  0.3718  0.6298 -0.1703
20375WAT     H183305  -2.391   3.186   4.969  0.9200 -0.9539  0.2573
20375WAT     H283306  -2.529   3.128   4.993  0.0845  0.7060 -0.4024
20375WAT    EPW83307  -2.465   3.151   4.939  0.4063  0.4311 -0.1445
20376WAT      O83308   5.587   6.037   3.904 -0.4140  0.6635  0.5500
20376WAT     H183309   5.497   6.062   3.882 -0.2832  1.2364  0.6395
20376WAT     H283310   5.642   6.093   3.849 -0.1016  1.1639  1.3412
20376WAT    EPW83311   5.583   6.048   3.894 -0.3555  0.8051  0.6661
20377WAT      O83312  -5.120  10.358   7.153 -0.4226 -0.7349  0.0793
20377WAT     H183313  -5.095  10.266   7.162  0.0846 -0.4152  3.0014
20377WAT     H283314  -5.140  10.369   7.060  2.8942 -2.9078 -1.0672
20377WAT    EPW83315  -5.119  10.347   7.142  0.0818 -0.9794  0.3135
20378WAT      O83316   7.876   3.317   2.284  0.0101  0.0005  0.2252
20378WAT     H183317   7.847   3.282   2.368 -1.7894 -1.5841 -0.9833
20378WAT     H283318   7.941   3.255   2.253  0.7493  0.6386  0.4645
20378WAT    EPW83319   7.881   3.304   2.291 -0.1297 -0.1245  0.0974
20379WAT      O83320   0.920   1.728   4.423  0.1575  0.7449 -0.0113
20379WAT     H183321   0.939   1.657   4.484 -1.1770  1.3767  1.2131
20379WAT     H283322   0.915   1.806   4.479 -2.1023  1.1843 -0.7441
20379WAT    EPW83323   0.922   1.729   4.439 -0.3166  0.8862  0.0534
20380WAT      O83324  -2.808   2.808   6.256 -0.0189  0.4584 -0.2230
20380WAT     H183325  -2.841   2.763   6.179 -0.5367 -0.7713  0.6834
20380WAT     H283326  -2.748   2.746   6.297 -1.1048  0.3588  1.3119
20380WAT    EPW83327  -2.804   2.794   6.251 -0.2304  0.2831  0.0987
20381WAT      O83328   4.061   4.120   0.813  0.7605 -0.1363  0.1436
20381WAT     H183329   4.039   4.213   0.804  0.6327 -0.3051 -1.4073
20381WAT     H283330   4.152   4.115   0.784  1.7206 -0.0927  2.8078
20381WAT    EPW83331   4.070   4.132   0.808  0.8702 -0.1531  0.2905
20382WAT      O83332   1.000   4.822   6.966  0.1683 -0.2160  0.0346
20382WAT     H183333   1.085   4.780   6.949  0.7135  0.7993  0.1593
20382WAT     H283334   0.978   4.864   6.883  0.1958  0.2232  0.2487
20382WAT    EPW83335   1.009   4.822   6.953  0.2438 -0.0243  0.0792
20383WAT      O83336  -1.715   8.308   1.885  0.1976 -0.5819  0.0261
20383WAT     H183337  -1.706   8.361   1.806 -1.2359 -1.3274 -0.6626
20383WAT     H283338  -1.807   8.317   1.910  0.7375  0.1382  1.9946
20383WAT    EPW83339  -1.726   8.317   1.878  0.0798 -0.5851  0.1949
20384WAT      O83340  -2.082   7.099   8.945  0.0117 -0.5390 -0.2891
20384WAT     H183341  -2.020   7.028   8.934  0.3083 -0.2978 -0.1958
20384WAT     H283342  -2.105   7.125   8.855  0.3378 -0.3762 -0.3263
20384WAT    EPW83343  -2.077   7.093   8.931  0.0938 -0.4859 -0.2818
20385WAT      O83344   4.135   2.722   5.085  0.6426 -0.6201  0.4997
20385WAT     H183345   4.117   2.754   4.996 -2.0714 -1.2848  0.7237
20385WAT     H283346   4.181   2.794   5.127 -0.0376  0.6226 -0.7912
20385WAT    EPW83347   4.139   2.736   5.079  0.1950 -0.5438  0.3591
20386WAT      O83348  -3.934   2.051   6.893 -0.0049  0.1678  0.0412
20386WAT     H183349  -3.899   2.024   6.808 -1.1861  0.2286 -0.4959
20386WAT     H283350  -4.029   2.038   6.885 -0.0910 -0.3134  1.5423
20386WAT    EPW83351  -3.942   2.046   6.881 -0.1721  0.1124  0.1683
20387WAT      O83352   5.675   1.195   4.133  0.7614  0.8462  0.8341
20387WAT     H183353   5.583   1.206   4.158  0.8023  1.0412  0.9004
20387WAT     H283354   5.723   1.254   4.191  0.9619  0.4834  1.0386
20387WAT    EPW83355   5.669   1.204   4.144  0.7932  0.8241  0.8698
20388WAT      O83356   6.248   0.861   0.811  0.3223 -0.0920 -0.0405
20388WAT     H183357   6.212   0.866   0.899  1.0842 -0.3634  0.2914
20388WAT     H283358   6.171   0.849   0.755 -0.3482  1.8416  0.3896
20388WAT    EPW83359   6.233   0.860   0.815  0.3343  0.1273  0.0600
20389WAT      O83360  -0.984   9.842   8.977 -0.0624  0.5557  0.5084
20389WAT     H183361  -0.944   9.895   9.046  0.6595  1.3571 -0.4920
20389WAT     H283362  -1.005   9.905   8.908  0.2261 -0.3666 -0.4455
20389WAT    EPW83363  -0.982   9.858   8.977  0.0708  0.5395  0.2507
20390WAT      O83364   0.001  10.252   6.430 -0.2392 -0.0246 -0.0082
20390WAT     H183365  -0.067  10.274   6.367  1.8736  1.2484 -2.0193
20390WAT     H283366   0.020  10.335   6.474 -0.8003 -0.6366  1.4574
20390WAT    EPW83367  -0.005  10.266   6.427 -0.0345  0.0625 -0.0801
20391WAT      O83368   6.043   3.137   2.701 -0.0373  0.4419  0.2904
20391WAT     H183369   6.063   3.116   2.610 -1.6076 -1.1783  0.2538
20391WAT     H283370   5.999   3.221   2.697  0.3118  0.6030 -0.3922
20391WAT    EPW83371   6.040   3.145   2.688 -0.1984  0.2495  0.1956
20392WAT      O83372   5.380   4.785   4.349 -0.2648  0.2153  0.3314
20392WAT     H183373   5.473   4.807   4.358 -0.7267  1.5401  3.2872
20392WAT     H283374   5.352   4.768   4.439 -2.8437 -0.3521 -0.5198
20392WAT    EPW83375   5.389   4.786   4.362 -0.6659  0.3154  0.6089
20393WAT      O83376  -6.739   5.431   8.685 -0.3178  0.4175  0.5056
20393WAT     H183377  -6.801   5.392   8.747 -0.5856  2.2850  1.4785
20393WAT     H283378  -6.653   5.414   8.724 -0.1836 -1.6329 -0.5361
20393WAT    EPW83379  -6.736   5.424   8.698 -0.3352  0.3934  0.4959
20394WAT      O83380   3.820   5.043   8.448  0.0790 -1.2051 -0.1886
20394WAT     H183381   3.839   5.132   8.418  3.3537 -1.5320  0.5365
20394WAT     H283382   3.732   5.024   8.414 -0.4158  1.9979 -0.9711
20394WAT    EPW83383   3.811   5.052   8.439  0.4456 -0.8259 -0.1960
20395WAT      O83384  -2.975   9.028   5.792 -0.4412  0.0899 -0.0503
20395WAT     H183385  -3.021   9.092   5.847 -2.2124 -3.2248  2.7000
20395WAT     H283386  -3.026   9.025   5.712 -0.0783  2.2661 -0.4485
20395WAT    EPW83387  -2.988   9.036   5.789 -0.6269 -0.0601  0.2601
20396WAT      O83388   5.248   6.906   5.232  0.5385 -0.3189  0.0918
20396WAT     H183389   5.202   6.938   5.310  1.5632 -1.4529  1.1907
20396WAT     H283390   5.310   6.976   5.211  0.3546 -0.0642  0.3761
20396WAT    EPW83391   5.250   6.920   5.240  0.6495 -0.4351  0.2742
20397WAT      O83392  -3.403   3.757   8.413 -0.1358 -0.4477 -0.9349
20397WAT     H183393  -3.326   3.729   8.363 -0.2593  0.6318 -1.7695
20397WAT     H283394  -3.408   3.851   8.398 -2.0875 -0.6048 -1.5763
20397WAT    EPW83395  -3.393   3.765   8.405 -0.4096 -0.3260 -1.1296
20398WAT      O83396  -0.594   0.743   1.071 -0.3665 -0.4458  0.1649
20398WAT     H183397  -0.520   0.689   1.098 -2.4278 -3.1036  0.9317
20398WAT     H283398  -0.585   0.749   0.975  1.8432  1.0694  0.3651
20398WAT    EPW83399  -0.583   0.737   1.062 -0.3470 -0.5965  0.2925
20399WAT      O83400   1.688   6.641   0.077 -0.4697  0.1445  0.0161
20399WAT     H183401   1.652   6.728   0.098 -1.8957  0.2264 -2.4237
20399WAT     H283402   1.764   6.633   0.134 -0.9340  2.5134  1.1276
20399WAT    EPW83403   1.693   6.651   0.088 -0.7190  0.4678 -0.1591
20400WAT      O83404  -5.957   7.942   8.512  0.4365 -0.2456  0.7521
20400WAT     H183405  -5.881   7.992   8.539  0.5768 -0.7868  1.3809
20400WAT     H283406  -6.030   7.979   8.562  0.5929 -0.8608  1.4425
20400WAT    EPW83407  -5.957   7.954   8.522  0.4756 -0.3979  0.9260
20401WAT      O83408  -4.050   9.542   3.029 -0.4004  0.2794  0.8302
20401WAT     H183409  -4.030   9.631   3.057 -0.4544  1.2520 -1.9304
20401WAT     H283410  -3.987   9.488   3.077  2.1662  2.1995 -0.1510
20401WAT    EPW83411  -4.039   9.547   3.039 -0.0689  0.6609  0.3366
20402WAT      O83412   3.687   3.106   6.220 -0.0506  0.1690 -0.2277
20402WAT     H183413   3.617   3.081   6.160 -0.0817  1.0927 -0.5784
20402WAT     H283414   3.673   3.050   6.297  0.8845 -2.1174 -1.6143
20402WAT    EPW83415   3.676   3.095   6.222  0.0685 -0.0107 -0.4570
20403WAT      O83416   3.921   7.589   2.506 -0.1105  0.7578 -0.6503
20403WAT     H183417   3.995   7.606   2.447 -0.3903  2.5578 -0.5379
20403WAT     H283418   3.938   7.643   2.583 -0.7701 -0.0132  0.0590
20403WAT    EPW83419   3.933   7.598   2.508 -0.2344  0.8934 -0.5419
20404WAT      O83420   8.646   3.916   0.076  0.0097  0.1447  0.8812
20404WAT     H183421   8.583   3.931   0.146 -0.3790  0.5294  0.4549
20404WAT     H283422   8.630   3.987   0.013 -0.0475 -0.5172  0.1212
20404WAT    EPW83423   8.635   3.927   0.077 -0.0491  0.1081  0.7247
20405WAT      O83424  -0.729   8.090   0.956  0.5471 -0.0744  0.0518
20405WAT     H183425  -0.657   8.145   0.925 -0.0074  1.6155  1.6265
20405WAT     H283426  -0.697   8.050   1.036 -0.2621  0.7617  0.8181
20405WAT    EPW83427  -0.716   8.092   0.962  0.3673  0.2584  0.3605
20406WAT      O83428   1.266   6.272   0.646  0.6509 -0.0338 -0.3770
20406WAT     H183429   1.233   6.298   0.561  1.1157 -1.6646 -1.0904
20406WAT     H283430   1.227   6.335   0.707  0.2840  1.1375 -1.7573
20406WAT    EPW83431   1.257   6.284   0.643  0.6638 -0.0944 -0.6532
20407WAT      O83432  -2.587   9.507   6.130  0.0395 -0.2030 -0.2679
20407WAT     H183433  -2.496   9.490   6.155  0.0484 -0.6053 -0.5733
20407WAT     H283434  -2.630   9.532   6.212 -0.3472 -3.1654  0.5478
20407WAT    EPW83435  -2.581   9.508   6.144 -0.0104 -0.6471 -0.2007
20408WAT      O83436   7.703   2.178   4.021  0.1520  0.2093  0.1933
20408WAT     H183437   7.630   2.210   4.073  0.3022 -1.1644  1.3123
20408WAT     H283438   7.669   2.174   3.932 -0.5024  1.4299  0.3742
20408WAT    EPW83439   7.689   2.182   4.016  0.0856  0.1892  0.3648
20409WAT      O83440   3.241  10.132   0.786 -0.7777  0.1951  0.4580
20409WAT     H183441   3.292  10.061   0.746 -0.0336  0.7257  0.4664
20409WAT     H283442   3.217  10.188   0.713  0.4720  1.0948  0.7061
20409WAT    EPW83443   3.244  10.130   0.771 -0.5147  0.3839  0.4919
20410WAT      O83444   0.541   5.878   5.803 -0.6373  0.1948 -0.4271
20410WAT     H183445   0.480   5.942   5.765 -2.8301 -1.4350  0.1356
20410WAT     H283446   0.533   5.890   5.898 -2.5458 -2.0217 -0.2014
20410WAT    EPW83447   0.532   5.888   5.811 -1.1782 -0.3126 -0.3231
20411WAT      O83448  -2.063   5.061   8.111  0.0807 -0.0050 -0.8124
20411WAT     H183449  -2.118   5.006   8.054 -1.5281  0.1437  0.5118
20411WAT     H283450  -2.108   5.145   8.114 -0.1043 -0.1321  0.9623
20411WAT    EPW83451  -2.076   5.065   8.104 -0.1558 -0.0019 -0.4034
20412WAT      O83452  -2.475   1.247   5.069 -0.6149 -0.4063 -0.0044
20412WAT     H183453  -2.512   1.321   5.021  0.5406  0.5154  0.4828
20412WAT     H283454  -2.383   1.244   5.043 -0.0876 -0.2323  1.6778
20412WAT    EPW83455  -2.468   1.256   5.059 -0.3930 -0.2617  0.2816
20413WAT      O83456   1.004   9.536   7.188  0.3695 -0.1328 -0.8356
20413WAT     H183457   0.976   9.625   7.168 -0.8565 -0.7419 -1.9842
20413WAT     H283458   1.099   9.541   7.191  0.2764  1.4744  0.4789
20413WAT    EPW83459   1.013   9.548   7.186  0.1955 -0.0010 -0.8140
20414WAT      O83460   3.056   7.720   1.388  0.5183  0.2636  0.1251
20414WAT     H183461   3.003   7.790   1.350 -1.1503  0.2433  2.1834
20414WAT     H283462   3.094   7.674   1.313 -1.9202  0.6570 -1.4721
20414WAT    EPW83463   3.054   7.723   1.373 -0.0234  0.3130  0.1858
20415WAT      O83464  -0.811   0.562   7.391  0.4424 -0.5176 -0.3560
20415WAT     H183465  -0.859   0.507   7.453  2.3981 -2.1390 -0.1796
20415WAT     H283466  -0.801   0.507   7.313  0.7212  0.3335 -0.9362
20415WAT    EPW83467  -0.816   0.547   7.389  0.7371 -0.6192 -0.4094
20416WAT      O83468   1.940   0.572   4.570 -0.0388 -0.5309 -0.0659
20416WAT     H183469   2.014   0.632   4.574 -0.0302 -0.4886 -0.8031
20416WAT     H283470   1.874   0.611   4.627  0.2410 -0.2065  0.0371
20416WAT    EPW83471   1.941   0.585   4.578 -0.0008 -0.4825 -0.1495
20417WAT      O83472   4.090   5.127   7.643  0.0044 -0.0684 -0.1699
20417WAT     H183473   4.154   5.087   7.584  0.1180  0.5056 -0.4484
20417WAT     H283474   4.021   5.161   7.585  1.1827  2.4855 -0.2391
20417WAT    EPW83475   4.089   5.127   7.627  0.1748  0.3443 -0.2158
20418WAT      O83476   2.774   6.903   5.831  0.4971 -0.4340  0.2023
20418WAT     H183477   2.843   6.942   5.884  1.9537 -0.7086 -1.4184
20418WAT     H283478   2.817   6.875   5.750 -1.4591 -0.8461 -0.7807
20418WAT    EPW83479   2.789   6.904   5.827  0.4313 -0.5245 -0.1411
20419WAT      O83480   7.865   5.238   1.108 -0.2178  0.2216  0.0202
20419WAT     H183481   7.845   5.163   1.052 -0.8980 -0.4335  1.1162
20419WAT     H283482   7.958   5.255   1.093 -0.7345  1.1940 -2.6369
20419WAT    EPW83483   7.874   5.231   1.098 -0.3755  0.2637 -0.1857
20420WAT      O83484  -5.483   5.252   8.839 -0.3565 -0.1792 -0.4776
20420WAT     H183485  -5.506   5.159   8.842 -0.1538 -0.3656 -2.7930
20420WAT     H283486  -5.395   5.255   8.877 -0.1708 -1.0289 -0.8042
20420WAT    EPW83487  -5.474   5.240   8.844 -0.3052 -0.3159 -0.8259
20421WAT      O83488  -2.433   9.237   3.207  0.5086  0.0386 -0.8749
20421WAT     H183489  -2.456   9.279   3.124  1.0102  1.9970 -0.0904
20421WAT     H283490  -2.487   9.283   3.272 -0.4427 -1.9684 -0.1509
20421WAT    EPW83491  -2.443   9.249   3.204  0.4493  0.0324 -0.6759
20422WAT      O83492   5.759   6.804   0.022  0.3574 -0.2603  0.6467
20422WAT     H183493   5.848   6.781   0.047  0.5891  0.1007  0.1868
20422WAT     H283494   5.703   6.742   0.069  0.8510 -0.4887  0.9360
20422WAT    EPW83495   5.763   6.793   0.031  0.4531 -0.2428  0.6242
20423WAT      O83496   7.286   0.344   0.912  0.1460 -0.5643  0.4102
20423WAT     H183497   7.362   0.297   0.944  0.3438 -1.4508 -1.2637
20423WAT     H283498   7.212   0.287   0.932  0.0428 -0.2256  1.0120
20423WAT    EPW83499   7.286   0.330   0.919  0.1585 -0.6366  0.2688
20424WAT      O83500   2.982   6.017   0.903 -0.0931  0.0711  0.0884
20424WAT     H183501   2.988   5.986   0.993 -3.2074 -2.8837 -0.4931
20424WAT     H283502   2.946   6.106   0.911  1.4333  0.6113  1.6963
20424WAT    EPW83503   2.978   6.025   0.916 -0.3024 -0.2472  0.2238
20425WAT      O83504  -2.580   2.967   5.133  0.1198 -0.0015 -0.3269
20425WAT     H183505  -2.489   2.938   5.134  0.1078 -0.1034 -1.1401
20425WAT     H283506  -2.582   3.042   5.193  0.6337 -0.2820  0.0515
20425WAT    EPW83507  -2.568   2.973   5.141  0.1860 -0.0519 -0.3843
20426WAT      O83508   5.320   7.303   4.737  0.0703 -0.4700 -0.4364
20426WAT     H183509   5.270   7.334   4.661  0.2587 -4.3099 -2.3633
20426WAT     H283510   5.256   7.294   4.807 -1.6953 -3.2024 -2.2151
20426WAT    EPW83511   5.305   7.306   4.736 -0.1376 -1.3371 -0.9251
20427WAT      O83512   4.378   5.110   2.636  0.1253  0.3584 -0.2731
20427WAT     H183513   4.358   5.199   2.607  2.7701  1.0660 -0.2045
20427WAT     H283514   4.450   5.121   2.697 -1.2392 -1.6561  1.8326
20427WAT    EPW83515   4.385   5.123   2.640  0.2942  0.1860  0.0137
20428WAT      O83516  -1.210   1.955   8.722 -0.0502  0.6821  0.3856
20428WAT     H183517  -1.273   1.885   8.705  0.5897  0.3143 -0.5771
20428WAT     H283518  -1.213   1.968   8.817  0.2777 -1.0963  0.6687
20428WAT    EPW83519  -1.219   1.948   8.732  0.0775  0.3990  0.2961
20429WAT      O83520  -0.899   2.011   7.480 -0.1122 -0.1152  0.6160
20429WAT     H183521  -0.873   2.070   7.551  1.6389 -1.1425  0.8738
20429WAT     H283522  -0.887   1.924   7.516  1.5153 -0.6734 -1.1597
20429WAT    EPW83523  -0.894   2.008   7.494  0.3335 -0.3242  0.4158
20430WAT      O83524  -1.620   1.175   5.310 -0.2653 -1.2557  0.0783
20430WAT     H183525  -1.670   1.105   5.353  0.6519 -1.4002  0.9390
20430WAT     H283526  -1.571   1.217   5.381 -1.7165  1.1029 -0.2002
20430WAT    EPW83527  -1.620   1.171   5.325 -0.3358 -0.9637  0.1552
20431WAT      O83528   3.226   1.280   7.180  0.5992 -0.7706  0.3828
20431WAT     H183529   3.301   1.284   7.121 -2.0279  3.7123 -3.2423
20431WAT     H283530   3.239   1.354   7.240  0.4317 -1.8298  1.7834
20431WAT    EPW83531   3.238   1.290   7.180  0.2306 -0.3190  0.0894
20432WAT      O83532   6.787   6.184   1.131  0.3440 -0.7595  0.0773
20432WAT     H183533   6.738   6.104   1.112 -0.4024 -0.2616 -0.1695
20432WAT     H283534   6.794   6.185   1.227  0.5943 -1.2525  0.0650
20432WAT    EPW83535   6.781   6.174   1.141  0.2785 -0.7589  0.0431
20433WAT      O83536   3.751   1.645   2.510  0.2953 -0.1532  0.4819
20433WAT     H183537   3.841   1.655   2.541  1.0285  0.4016 -1.6739
20433WAT     H283538   3.734   1.551   2.513  1.2840 -0.3504  0.0407
20433WAT    EPW83539   3.760   1.634   2.514  0.5224 -0.1060  0.1394
20434WAT      O83540   4.355   3.941   8.278 -0.6267 -0.1918 -0.4785
20434WAT     H183541   4.270   3.904   8.300 -0.9834 -0.5744 -2.3898
20434WAT     H283542   4.340   3.992   8.199  0.9073 -0.2116 -0.8199
20434WAT    EPW83543   4.342   3.943   8.271 -0.4714 -0.2449 -0.7753
20435WAT      O83544   3.323   6.525   1.790 -0.3356 -0.3904  0.2824
20435WAT     H183545   3.297   6.614   1.764 -3.6118 -0.9480  1.2266
20435WAT     H283546   3.356   6.534   1.879 -0.3915 -0.1141  0.2756
20435WAT    EPW83547   3.324   6.538   1.798 -0.7751 -0.4277  0.4060
20436WAT      O83548   6.579   7.422   2.344  0.3533 -0.5676  0.7573
20436WAT     H183549   6.648   7.445   2.280  0.0666 -0.7739  0.3704
20436WAT     H283550   6.593   7.329   2.360  1.2412 -0.2495  1.9951
20436WAT    EPW83551   6.590   7.413   2.337  0.4327 -0.5529  0.8695
20437WAT      O83552   2.033   1.945   8.295 -0.6620  0.1797 -0.4635
20437WAT     H183553   2.123   1.915   8.287 -0.3162  0.6765  1.2533
20437WAT     H283554   1.997   1.936   8.206  0.7082 -1.1304 -0.9283
20437WAT    EPW83555   2.040   1.940   8.282 -0.4358  0.0725 -0.2985
20438WAT      O83556   6.217   1.152   0.709 -0.2924  0.1380  0.4305
20438WAT     H183557   6.163   1.128   0.785 -0.6893  0.8107  0.3693
20438WAT     H283558   6.247   1.241   0.728 -1.2673  0.7221 -0.6697
20438WAT    EPW83559   6.214   1.161   0.721 -0.4733  0.3037  0.2773
20439WAT      O83560   5.940   4.384   2.699 -0.1672  0.3383 -0.2492
20439WAT     H183561   5.856   4.408   2.660  0.5767  3.2301 -0.3054
20439WAT     H283562   5.998   4.456   2.677  3.3159 -2.8475 -2.8390
20439WAT    EPW83563   5.936   4.396   2.691  0.3903  0.2992 -0.5983
20440WAT      O83564  -4.166  10.117   5.794  0.6917 -0.5164 -0.4460
20440WAT     H183565  -4.258  10.120   5.766 -0.6180  1.4140  3.3527
20440WAT     H283566  -4.138  10.208   5.795  2.6232 -1.0488 -1.1709
20440WAT    EPW83567  -4.175  10.129   5.790  0.7737 -0.3319 -0.0405
20441WAT      O83568  -3.722   4.296   6.539  0.4003 -0.4114  0.4864
20441WAT     H183569  -3.633   4.262   6.549  0.4162 -1.1335 -1.7299
20441WAT     H283570  -3.712   4.377   6.489 -0.2841 -1.2682 -1.0937
20441WAT    EPW83571  -3.709   4.302   6.534  0.3121 -0.6196 -0.0143
20442WAT      O83572   4.735   0.729   3.373  0.3887  0.2734 -0.0784
20442WAT     H183573   4.761   0.703   3.285 -2.0082 -1.8023 -0.2714
20442WAT     H283574   4.689   0.812   3.361  0.7935  0.4218 -0.6533
20442WAT    EPW83575   4.733   0.737   3.360  0.1259  0.0192 -0.1796
20443WAT      O83576   1.013   8.181   0.500  0.0105  0.3877  0.2853
20443WAT     H183577   0.984   8.272   0.510 -0.9202  0.3229 -1.3807
20443WAT     H283578   0.944   8.139   0.448  0.5814 -1.1956  0.7323
20443WAT    EPW83579   1.000   8.187   0.494 -0.0369  0.1702  0.1245
20444WAT      O83580   2.748   4.388   3.170 -0.4910  0.0530  0.1266
20444WAT     H183581   2.829   4.382   3.118 -0.1412  0.0761  0.6565
20444WAT     H283582   2.725   4.481   3.167 -1.5612 -0.2252 -1.5891
20444WAT    EPW83583   2.756   4.400   3.163 -0.5860  0.0193 -0.0298
20445WAT      O83584  -1.523  10.113   2.825  0.3973  0.6455  0.1378
20445WAT     H183585  -1.560  10.115   2.913 -0.6531 -0.9650 -0.2164
20445WAT     H283586  -1.593  10.150   2.770  0.9662  1.4512 -0.0616
20445WAT    EPW83587  -1.537  10.118   2.829  0.3338  0.5393  0.0647
20446WAT      O83588  -0.090   7.686   3.239 -0.5043 -0.1170  0.4361
20446WAT     H183589  -0.057   7.617   3.182  1.3019  1.5705 -0.6790
20446WAT     H283590  -0.171   7.716   3.197  0.4310  0.6129 -0.9003
20446WAT    EPW83591  -0.097   7.681   3.226 -0.1427  0.2017  0.1127
20447WAT      O83592   5.266   2.662   1.371  0.9669  0.6164  0.2568
20447WAT     H183593   5.201   2.634   1.307 -1.3807  3.3741  1.2263
20447WAT     H283594   5.335   2.704   1.319 -0.1338  1.4343 -0.5856
20447WAT    EPW83595   5.267   2.664   1.356  0.5121  1.0880  0.2735
20448WAT      O83596   2.565   2.102   2.876  0.0078 -0.3085 -0.1939
20448WAT     H183597   2.615   2.033   2.920  1.8368  0.0128 -1.6589
20448WAT     H283598   2.597   2.184   2.914 -1.5338 -0.1709  0.9098
20448WAT    EPW83599   2.576   2.103   2.887  0.0457 -0.2480 -0.2415
20449WAT      O83600   4.270   3.993   4.343 -0.3779  0.3277  0.1216
20449WAT     H183601   4.304   3.988   4.433 -1.8928 -1.2565  0.6636
20449WAT     H283602   4.332   4.050   4.297 -0.0784  1.9725  2.3976
20449WAT    EPW83603   4.282   4.000   4.349 -0.5383  0.3357  0.4933
20450WAT      O83604   5.079   2.816   6.146 -0.4986  0.3430 -0.3947
20450WAT     H183605   5.128   2.898   6.144  1.7327 -0.9163 -0.7524
20450WAT     H283606   5.132   2.755   6.095 -1.8861 -1.4365  0.1824
20450WAT    EPW83607   5.092   2.819   6.139 -0.3872 -0.0578 -0.3660
20451WAT      O83608   4.203   8.128   0.847 -0.8215  0.1160  0.0726
20451WAT     H183609   4.170   8.206   0.892 -0.5237 -1.3548  3.0359
20451WAT     H283610   4.128   8.069   0.845 -0.1245 -0.8310  1.0679
20451WAT    EPW83611   4.189   8.131   0.852 -0.6905 -0.2027  0.5947
20452WAT      O83612  -2.110   7.639   3.001  0.4515 -0.9007  0.0706
20452WAT     H183613  -2.058   7.707   2.958  0.9947 -1.0030  0.5562
20452WAT     H283614  -2.152   7.592   2.929  0.6272 -0.4938 -0.3009
20452WAT    EPW83615  -2.109   7.642   2.986  0.5463 -0.8607  0.0856
20453WAT      O83616   1.135   2.304   0.645 -0.0489 -0.2755  0.0373
20453WAT     H183617   1.226   2.292   0.671  0.0798 -1.7304 -0.9328
20453WAT     H283618   1.089   2.229   0.683  0.0069 -2.0178 -2.9916
20453WAT    EPW83619   1.140   2.292   0.653 -0.0246 -0.6974 -0.4902
20454WAT      O83620   3.973   1.377   5.565  0.1924  0.4879  0.2308
20454WAT     H183621   4.000   1.448   5.623  1.7001 -0.8863  1.2940
20454WAT     H283622   3.953   1.305   5.624 -3.9537  0.7034 -0.6116
20454WAT    EPW83623   3.974   1.377   5.581 -0.1554  0.3351  0.2599
20455WAT      O83624   4.591   7.417   4.973  0.2767 -0.0671 -0.7975
20455WAT     H183625   4.662   7.353   4.973 -0.3829 -0.8719  1.0001
20455WAT     H283626   4.511   7.364   4.978 -0.2393  0.8276  2.2211
20455WAT    EPW83627   4.589   7.401   4.974  0.1218 -0.0551 -0.1621
20456WAT      O83628   7.683   0.252   3.900 -0.2823  0.2380 -0.6384
20456WAT     H183629   7.660   0.289   3.815  0.9883  1.5623 -0.4495
20456WAT     H283630   7.661   0.320   3.963 -0.4973 -0.4299  0.0223
20456WAT    EPW83631   7.677   0.266   3.897 -0.1431  0.3245 -0.5263
20457WAT      O83632  -3.031   7.408   0.937 -0.1086  0.1949 -0.8123
20457WAT     H183633  -2.947   7.452   0.952  0.1108  0.0075 -1.4442
20457WAT     H283634  -3.046   7.357   1.016 -0.1516  1.0621 -0.2488
20457WAT    EPW83635  -3.022   7.407   0.949 -0.0855  0.2844 -0.8214
20458WAT      O83636  -2.514   6.519   8.676  0.1815  0.0200  0.5681
20458WAT     H183637  -2.586   6.472   8.632 -0.3257  0.8239  0.5293
20458WAT     H283638  -2.517   6.487   8.766 -0.0605 -0.1327  0.5081
20458WAT    EPW83639  -2.524   6.508   8.682  0.0826  0.1059  0.5550
20459WAT      O83640  -2.439   7.364   4.699 -0.3283  0.1415  0.3728
20459WAT     H183641  -2.515   7.340   4.645 -0.8566 -0.8887  1.5454
20459WAT     H283642  -2.420   7.455   4.673 -2.4182  0.6874  0.5822
20459WAT    EPW83643  -2.447   7.373   4.688 -0.6737  0.0777  0.5550
20460WAT      O83644  -1.949   3.510   8.571  0.1568 -0.5659  0.6350
20460WAT     H183645  -1.857   3.536   8.576  0.0429 -0.0843  0.2830
20460WAT     H283646  -1.961   3.449   8.644  1.0151 -1.4555  0.0569
20460WAT    EPW83647  -1.939   3.505   8.582  0.2550 -0.6196  0.5126
20461WAT      O83648  -3.438   7.776   2.580 -0.3066  0.5993  0.0096
20461WAT     H183649  -3.460   7.869   2.573 -3.0078 -0.0005 -0.4107
20461WAT     H283650  -3.442   7.757   2.674  0.0196  0.8361  0.0743
20461WAT    EPW83651  -3.442   7.786   2.591 -0.6199  0.5515 -0.0373
20462WAT      O83652  -2.840   7.390   3.967  0.0956  0.0604  0.4056
20462WAT     H183653  -2.797   7.339   3.898 -1.2016 -0.2350 -0.2117
20462WAT     H283654  -2.830   7.337   4.046  0.1561 -0.3871  0.1001
20462WAT    EPW83655  -2.833   7.377   3.968 -0.0675 -0.0377  0.2840
20463WAT      O83656   4.716   2.577   6.078 -0.0600 -0.5357 -0.0556
20463WAT     H183657   4.771   2.505   6.048  2.7759  2.1775 -2.1229
20463WAT     H283658   4.705   2.632   6.000 -2.0925  1.2615  1.3722
20463WAT    EPW83659   4.722   2.575   6.064  0.0460  0.0592 -0.1400
20464WAT      O83660   0.019   4.385   3.350 -0.4337 -0.4395  0.8950
20464WAT     H183661   0.071   4.306   3.370  0.8729  0.7909  2.6731
20464WAT     H283662  -0.062   4.374   3.400  0.7009  0.3048  3.0260
20464WAT    EPW83663   0.015   4.373   3.360 -0.1117 -0.1793  1.4107
20465WAT      O83664  -0.358   6.890   0.999  0.1174 -0.1147 -0.0379
20465WAT     H183665  -0.308   6.808   0.998 -1.3254 -1.0379 -1.1580
20465WAT     H283666  -0.328   6.937   0.921 -0.7984 -0.7406 -0.8002
20465WAT    EPW83667  -0.348   6.885   0.989 -0.1937 -0.3190 -0.2862
20466WAT      O83668  -0.960  10.102   8.534 -0.7651  0.4596  0.1369
20466WAT     H183669  -0.911  10.052   8.468 -0.9858 -0.1024  0.4004
20466WAT     H283670  -0.893  10.132   8.595 -1.0390 -3.8032  2.9034
20466WAT    EPW83671  -0.945  10.100   8.533 -0.8304 -0.1764  0.5369
20467WAT      O83672  -6.756   9.549   6.371  0.4976 -0.1694  0.1901
20467WAT     H183673  -6.674   9.512   6.401 -0.6249 -1.0499  2.3447
20467WAT     H283674  -6.814   9.474   6.361 -0.2885  0.5132 -0.5724
20467WAT    EPW83675  -6.753   9.535   6.373  0.2458 -0.1955  0.3738
20468WAT      O83676   2.979   9.198   2.533 -0.0929 -0.5113  0.0436
20468WAT     H183677   2.978   9.251   2.454  1.8959  0.2673  0.4790
20468WAT     H283678   3.021   9.116   2.508  0.4077 -0.3205  0.2376
20468WAT    EPW83679   2.984   9.194   2.520  0.2354 -0.3834  0.1265
20469WAT      O83680  -4.945   3.327   7.347  0.0240  0.8994 -0.2981
20469WAT     H183681  -4.933   3.328   7.442  0.5957 -2.0084 -0.2490
20469WAT     H283682  -5.038   3.349   7.335 -0.2841  0.4751  1.0197
20469WAT    EPW83683  -4.956   3.330   7.358  0.0589  0.4599 -0.1178
20470WAT      O83684   4.112   8.605   4.793 -0.0619  0.0195 -0.3592
20470WAT     H183685   4.158   8.555   4.861  1.3729  1.7581  0.0453
20470WAT     H283686   4.163   8.686   4.786 -1.4669  0.8079 -1.9746
20470WAT    EPW83687   4.125   8.609   4.801 -0.0579  0.3529 -0.5190
20471WAT      O83688  -0.326   6.501   5.982 -0.0597  0.4467  0.0453
20471WAT     H183689  -0.349   6.592   5.967  1.0496  0.7118 -0.1309
20471WAT     H283690  -0.399   6.451   5.945  0.4880  1.1911 -2.1921
20471WAT    EPW83691  -0.338   6.506   5.975  0.1588  0.5796 -0.2730
20472WAT      O83692  -4.571   2.438   7.991 -0.1534  0.3813  0.0872
20472WAT     H183693  -4.598   2.347   7.995 -1.9431  0.6332 -2.8671
20472WAT     H283694  -4.487   2.441   8.037  1.7673 -3.4827 -2.6334
20472WAT    EPW83695  -4.564   2.427   7.998 -0.1364 -0.0950 -0.6614
20473WAT      O83696  -2.856   3.801   6.926  0.1988 -0.5983  0.5242
20473WAT     H183697  -2.944   3.808   6.888  0.7981  2.2025 -0.5838
20473WAT     H283698  -2.849   3.709   6.952 -1.7337 -1.8086 -2.6300
20473WAT    EPW83699  -2.867   3.790   6.924  0.0230 -0.3885 -0.0381
20474WAT      O83700   3.186   0.076   5.639  0.2421 -0.1281 -0.2413
20474WAT     H183701   3.104   0.124   5.649 -0.9565 -2.0760 -0.3269
20474WAT     H283702   3.251   0.132   5.682 -0.6186  2.6010 -2.1962
20474WAT    EPW83703   3.184   0.090   5.646 -0.0296 -0.0250 -0.5107
20475WAT      O83704   0.982   1.892   1.252  0.6149  0.8473  0.5163
20475WAT     H183705   0.956   1.807   1.286  1.5633 -0.9565 -2.8834
20475WAT     H283706   1.071   1.905   1.284  0.8716  0.0175  0.1507
20475WAT    EPW83707   0.990   1.883   1.261  0.7738  0.4999  0.0197
20476WAT      O83708   4.368   1.595   5.379 -0.2823 -0.5300 -0.2094
20476WAT     H183709   4.280   1.623   5.353  1.0521  2.3452 -2.1844
20476WAT     H283710   4.383   1.639   5.462  0.2181  1.3434 -1.2281
20476WAT    EPW83711   4.358   1.605   5.386 -0.0403  0.0964 -0.6042
20477WAT      O83712   1.475   2.159   1.381  0.0164  0.2671  0.0258
20477WAT     H183713   1.504   2.220   1.313  1.9455  1.7546  2.0176
20477WAT     H283714   1.532   2.082   1.371  0.0306  0.3182 -0.2836
20477WAT    EPW83715   1.486   2.157   1.371  0.2728  0.4700  0.2478
20478WAT      O83716   3.000   4.161   7.579 -0.0209  0.2917 -0.0513
20478WAT     H183717   3.046   4.107   7.644  0.7647  0.9941  0.0002
20478WAT     H283718   3.064   4.174   7.509 -1.0587 -0.9702 -1.2853
20478WAT    EPW83719   3.015   4.156   7.579 -0.0541  0.2179 -0.2072
20479WAT      O83720  -0.883   6.953   2.560 -0.1831 -0.6661 -0.1130
20479WAT     H183721  -0.886   6.872   2.611 -3.0775  0.5589  1.9391
20479WAT     H283722  -0.965   6.953   2.511 -0.0617  0.8182 -0.3662
20479WAT    EPW83723  -0.894   6.942   2.560 -0.5489 -0.3090  0.1243
20480WAT      O83724   7.209   7.730   0.004 -0.6720  0.4419  0.1518
20480WAT     H183725   7.117   7.756   0.010 -0.9320  1.5237 -4.6454
20480WAT     H283726   7.212   7.643   0.044 -3.5968  0.6635  1.1056
20480WAT    EPW83727   7.197   7.722   0.010 -1.0920  0.6139 -0.3551
20481WAT      O83728   7.303   0.235   2.035 -0.0204 -0.0448 -0.6352
20481WAT     H183729   7.332   0.295   2.105 -0.0904 -0.6617 -0.0708
20481WAT     H283730   7.350   0.266   1.958  1.5774 -0.5351  0.0959
20481WAT    EPW83731   7.313   0.247   2.034  0.1812 -0.1908 -0.4644
20482WAT      O83732   6.518   0.668   0.689  0.1930 -0.7262 -0.6523
20482WAT     H183733   6.550   0.723   0.618  0.5943 -0.5224 -0.3169
20482WAT     H283734   6.424   0.682   0.690  0.5043  1.7466  0.9026
20482WAT    EPW83735   6.510   0.677   0.680  0.2871 -0.3732 -0.4030
20483WAT      O83736   4.105   0.099   6.664 -0.3584  0.1400  0.2705
20483WAT     H183737   4.064   0.139   6.740 -0.5389  2.8903 -1.1499
20483WAT     H283738   4.198   0.095   6.685 -0.3201  1.4760  0.4416
20483WAT    EPW83739   4.112   0.104   6.677 -0.3769  0.6790  0.1059
20484WAT      O83740   8.003   6.916   0.601 -0.0418  0.6019 -0.0201
20484WAT     H183741   8.023   6.989   0.659 -0.1337  1.4382 -1.0046
20484WAT     H283742   8.043   6.941   0.517 -2.0451  0.6042 -1.0155
20484WAT    EPW83743   8.011   6.929   0.597 -0.3181  0.7126 -0.2812
20485WAT      O83744   4.810   3.488   2.167 -0.1917  0.8705 -0.6993
20485WAT     H183745   4.771   3.551   2.226 -1.0683  0.1534 -0.4943
20485WAT     H283746   4.761   3.407   2.181  0.6901  0.2198 -1.1824
20485WAT    EPW83747   4.799   3.486   2.177 -0.1912  0.6900 -0.7360
20486WAT      O83748  -0.687   9.244   4.581  0.0403 -0.3807  0.4764
20486WAT     H183749  -0.681   9.180   4.651  0.8838  0.8749  1.5856
20486WAT     H283750  -0.677   9.192   4.501  1.1434 -1.5797  1.3485
20486WAT    EPW83751  -0.685   9.229   4.579  0.2970 -0.3738  0.7377
20487WAT      O83752   3.699   5.857   3.086 -0.1836 -0.2574 -0.9047
20487WAT     H183753   3.666   5.924   3.146  1.0929  1.8851 -2.4383
20487WAT     H283754   3.620   5.813   3.053 -1.1171  0.8285 -0.1971
20487WAT    EPW83755   3.684   5.860   3.089 -0.1383  0.1686 -1.0135
20488WAT      O83756   2.190   3.592   0.433 -0.3076  0.2837 -0.6667
20488WAT     H183757   2.218   3.626   0.517 -2.1617  0.7832 -0.2038
20488WAT     H283758   2.237   3.509   0.423  3.1970  2.1552 -1.1672
20488WAT    EPW83759   2.200   3.585   0.442 -0.0899  0.5965 -0.6717
20489WAT      O83760   4.398   5.993   4.951  0.1107  0.0567 -0.1573
20489WAT     H183761   4.460   5.991   4.878 -1.6555 -1.9639 -1.7077
20489WAT     H283762   4.399   5.904   4.986 -1.8411 -0.0119 -0.1822
20489WAT    EPW83763   4.406   5.981   4.946 -0.3796 -0.2191 -0.3653
20490WAT      O83764   4.223   4.576   3.676 -0.5564  0.6784 -0.0885
20490WAT     H183765   4.252   4.637   3.607  0.5355 -1.8158 -2.0019
20490WAT     H283766   4.258   4.491   3.649  0.8236 -0.3324  4.1343
20490WAT    EPW83767   4.232   4.573   3.663 -0.2303  0.2162  0.2161
20491WAT      O83768   2.812   6.419   8.363  0.7115 -0.4094 -0.1833
20491WAT     H183769   2.891   6.470   8.346  0.2044  0.4263 -0.0696
20491WAT     H283770   2.811   6.353   8.294  1.2908 -0.1652 -0.4332
20491WAT    EPW83771   2.823   6.417   8.352  0.7211 -0.2670 -0.2012
20492WAT      O83772   0.638   6.585   0.674  0.0281  0.1285  0.3580
20492WAT     H183773   0.713   6.642   0.658 -1.4554  2.1022  0.1072
20492WAT     H283774   0.617   6.598   0.766 -1.0844  1.0101  0.0040
20492WAT    EPW83775   0.645   6.594   0.684 -0.3143  0.5050  0.2782
20493WAT      O83776   2.622   1.191   4.600 -0.3450 -0.0033  0.5967
20493WAT     H183777   2.658   1.273   4.633  1.0247  0.5839 -2.0649
20493WAT     H283778   2.692   1.127   4.615 -0.5414 -0.1931  0.7012
20493WAT    EPW83779   2.636   1.193   4.606 -0.1903  0.0491  0.2594
20494WAT      O83780   8.310   2.099   0.848 -0.6637 -0.3482  0.0238
20494WAT     H183781   8.361   2.034   0.800  0.6993  0.3773  0.4435
20494WAT     H283782   8.312   2.177   0.793 -1.9001 -0.4854 -0.2580
20494WAT    EPW83783   8.317   2.100   0.834 -0.6471 -0.2706  0.0420
20495WAT      O83784   1.804   8.383   4.910 -0.1609  0.5980  0.4779
20495WAT     H183785   1.781   8.425   4.827  0.6290  0.1042 -0.0026
20495WAT     H283786   1.828   8.293   4.886 -3.0031 -0.5984  1.6127
20495WAT    EPW83787   1.804   8.376   4.896 -0.4316  0.3748  0.5641
20496WAT      O83788  -6.331   9.739   5.573 -0.6025 -0.1182 -0.6131
20496WAT     H183789  -6.290   9.763   5.656 -1.2137 -2.3494  0.4140
20496WAT     H283790  -6.267   9.683   5.529 -1.3676 -1.2878 -0.2962
20496WAT    EPW83791  -6.317   9.735   5.578 -0.7839 -0.5665 -0.4358
20497WAT      O83792  -1.286   9.184   5.074  0.2993 -0.0490 -0.1095
20497WAT     H183793  -1.255   9.257   5.127 -0.9841  1.2233 -1.0368
20497WAT     H283794  -1.370   9.161   5.112 -0.1034  0.1185 -0.8760
20497WAT    EPW83795  -1.293   9.190   5.086  0.0769  0.1407 -0.3328
20498WAT      O83796   1.092   9.348   8.577 -0.0841  0.2937  0.1290
20498WAT     H183797   1.107   9.290   8.503  1.2324  0.8775 -0.0870
20498WAT     H283798   1.119   9.298   8.654 -2.1757 -0.5971  0.3504
20498WAT    EPW83799   1.097   9.334   8.578 -0.1863  0.2537  0.1297
20499WAT      O83800   7.435   0.849   1.991 -0.6703 -0.1929  0.9366
20499WAT     H183801   7.368   0.866   1.925 -0.7399  0.9275  1.2699
20499WAT     H283802   7.462   0.759   1.975 -1.2613 -0.2046 -0.0973
20499WAT    EPW83803   7.430   0.839   1.980 -0.7572 -0.0466  0.8441
20500WAT      O83804  -0.955   9.791   2.798 -0.4554  0.8516  0.3477
20500WAT     H183805  -0.868   9.756   2.819 -0.5643 -0.5130 -1.2772
20500WAT     H283806  -1.016   9.724   2.829 -0.6799 -0.4648 -2.6042
20500WAT    EPW83807  -0.951   9.778   2.805 -0.4994  0.4973 -0.2558
20501WAT      O83808   5.775   3.376   1.613 -0.0147 -0.3106  0.2409
20501WAT     H183809   5.783   3.438   1.541 -1.8574  0.4310  0.6228
20501WAT     H283810   5.821   3.298   1.583  1.7614  0.9565 -0.5377
20501WAT    EPW83811   5.782   3.374   1.600 -0.0236 -0.0458  0.1886
20502WAT      O83812  -3.371   6.712   4.957 -0.1648 -0.0201 -0.4829
20502WAT     H183813  -3.438   6.656   4.918 -0.0506  0.2129 -1.0217
20502WAT     H283814  -3.296   6.703   4.899  0.4641 -0.6951  0.4068
20502WAT    EPW83815  -3.370   6.703   4.944 -0.0669 -0.0782 -0.4368
20503WAT      O83816   2.088   4.007   2.591  0.1822 -0.0941 -0.0619
20503WAT     H183817   2.144   3.935   2.619  1.2937  1.0602  0.7901
20503WAT     H283818   2.100   4.075   2.657 -1.4612  0.5967 -0.4073
20503WAT    EPW83819   2.097   4.007   2.603  0.1121  0.1495  0.0050
20504WAT      O83820  -1.490   5.317   3.871 -0.5218  0.1048 -0.1819
20504WAT     H183821  -1.580   5.329   3.841 -0.1341  2.5190 -0.5848
20504WAT     H283822  -1.461   5.405   3.896  1.2757 -0.8267  1.3028
20504WAT    EPW83823  -1.498   5.330   3.870 -0.2336  0.3004 -0.0392
20505WAT      O83824   3.754   0.944   0.295 -0.7745 -0.4134  0.4440
20505WAT     H183825   3.811   0.980   0.227  2.1314 -1.5414  2.0714
20505WAT     H283826   3.672   0.992   0.286  0.8029  2.2237 -1.3363
20505WAT    EPW83827   3.751   0.955   0.285 -0.1832 -0.2143  0.4238
20506WAT      O83828   8.946   0.794   0.602  0.4182  0.3670  0.0733
20506WAT     H183829   8.865   0.746   0.585  0.0695  0.9087  0.1628
20506WAT     H283830   8.959   0.846   0.523  0.3402  0.7393  0.2992
20506WAT    EPW83831   8.937   0.795   0.589  0.3619  0.4875  0.1149
20507WAT      O83832   3.155   9.994   5.814  0.3792  0.0516  0.3001
20507WAT     H183833   3.205  10.036   5.744 -3.3607  0.8157 -2.1862
20507WAT     H283834   3.136   9.907   5.781 -1.3155  0.3676  0.3541
20507WAT    EPW83835   3.159   9.988   5.800 -0.3376  0.1941 -0.0207
20508WAT      O83836   8.760   2.341   0.823 -0.2103  0.5394 -0.0313
20508WAT     H183837   8.723   2.257   0.850  1.2348  0.0611  0.5686
20508WAT     H283838   8.717   2.405   0.879 -0.6187  0.0846  0.1859
20508WAT    EPW83839   8.749   2.338   0.834 -0.0739  0.4163  0.0765
20509WAT      O83840  -1.699   6.704   0.205 -0.1068  0.5881  0.5000
20509WAT     H183841  -1.649   6.638   0.157  0.3035  0.9634  0.4039
20509WAT     H283842  -1.761   6.654   0.258  0.4458  0.1151  0.7044
20509WAT    EPW83843  -1.701   6.689   0.206  0.0203  0.5753  0.5143
20510WAT      O83844   3.761   1.984   2.987 -0.8778 -0.1749 -0.3125
20510WAT     H183845   3.814   2.063   2.980 -0.9257 -0.1597 -0.4863
20510WAT     H283846   3.731   1.966   2.898 -3.1682  1.1826  0.1094
20510WAT    EPW83847   3.764   1.992   2.975 -1.1861  0.0061 -0.2798
20511WAT      O83848   2.665   6.985   8.479 -1.1658  0.2981  0.1645
20511WAT     H183849   2.680   6.924   8.551 -0.3371  1.0159  0.6280
20511WAT     H283850   2.709   6.946   8.404  0.2715  0.7886  0.7106
20511WAT    EPW83851   2.672   6.972   8.479 -0.8669  0.4573  0.2971
20512WAT      O83852   6.374   2.801   0.344  0.0070  0.6141 -0.8879
20512WAT     H183853   6.361   2.893   0.319 -1.4517  0.8314  0.5260
20512WAT     H283854   6.459   2.801   0.388 -0.5872  1.5931  0.3248
20512WAT    EPW83855   6.384   2.813   0.347 -0.2637  0.7720 -0.5415
20513WAT      O83856  -0.043   6.747   5.746  0.0450  0.7405  0.0126
20513WAT     H183857  -0.098   6.817   5.711 -0.8273  0.9125  1.6607
20513WAT     H283858  -0.058   6.749   5.840  0.1622 -1.5199  0.1366
20513WAT    EPW83859  -0.052   6.757   5.754 -0.0546  0.4652  0.2463
20514WAT      O83860  -0.315   8.147   1.674 -0.3498  0.6876  0.3394
20514WAT     H183861  -0.373   8.208   1.718 -0.3513 -0.8781  2.7025
20514WAT     H283862  -0.353   8.061   1.691  1.5936 -0.2459  0.2822
20514WAT    EPW83863  -0.328   8.143   1.682 -0.0937  0.3576  0.6435
20515WAT      O83864   7.059   3.513   1.543  0.3169 -0.2460 -0.3025
20515WAT     H183865   7.002   3.578   1.583 -0.5319 -1.0741 -0.1346
20515WAT     H283866   7.046   3.433   1.595  3.5270  0.1470  1.3894
20515WAT    EPW83867   7.050   3.511   1.555  0.6282 -0.3033 -0.0573
20516WAT      O83868  -5.509   6.108   6.138  0.8798  0.1423  0.4766
20516WAT     H183869  -5.417   6.087   6.120  1.6250  2.2492  1.5203
20516WAT     H283870  -5.508   6.200   6.162 -1.7338  0.5860 -0.8156
20516WAT    EPW83871  -5.496   6.117   6.139  0.6332  0.4787  0.4437
20517WAT      O83872   0.808   7.668   7.606 -0.0794  0.0446  0.8488
20517WAT     H183873   0.837   7.674   7.515 -0.2958 -1.2171  0.6856
20517WAT     H283874   0.765   7.583   7.612  0.0535  0.0534  2.1654
20517WAT    EPW83875   0.806   7.658   7.595 -0.0904 -0.1206  1.0009
20518WAT      O83876   4.061   9.733   5.177  0.4769 -0.1390  0.1632
20518WAT     H183877   4.122   9.714   5.248 -0.0725  1.0938  0.9924
20518WAT     H283878   3.977   9.748   5.221  0.1655  0.8211 -0.7153
20518WAT    EPW83879   4.058   9.732   5.192  0.3631  0.1502  0.1569
20519WAT      O83880   0.878   0.444   1.261 -0.0509 -0.5880  0.2085
20519WAT     H183881   0.806   0.498   1.226  0.0449 -1.5627 -1.6063
20519WAT     H283882   0.952   0.464   1.205  0.2915 -1.7593  0.2291
20519WAT    EPW83883   0.878   0.454   1.249  0.0069 -0.8711 -0.0282
20520WAT      O83884  -5.802   4.876   8.513 -0.4282  0.0483  0.7222
20520WAT     H183885  -5.747   4.886   8.435  0.6101 -0.0611  1.4158
20520WAT     H283886  -5.789   4.957   8.562  0.7793 -0.8172  1.9001
20520WAT    EPW83887  -5.793   4.888   8.509 -0.1321 -0.0806  0.9689
20521WAT      O83888   3.992   7.529   2.998 -0.4831  0.0248  0.5186
20521WAT     H183889   3.938   7.450   2.996 -0.8572  0.2379 -2.1153
20521WAT     H283890   3.947   7.587   3.059 -0.6299 -1.4862  1.9010
20521WAT    EPW83891   3.979   7.526   3.006 -0.5518 -0.1464  0.3535
20522WAT      O83892  -0.222   9.959   1.117 -0.1311  0.0101 -0.0769
20522WAT     H183893  -0.253  10.003   1.038  0.2796  1.4629  0.5417
20522WAT     H283894  -0.301   9.929   1.161 -0.4435  0.4472 -0.3371
20522WAT    EPW83895  -0.236   9.961   1.113 -0.1182  0.2594 -0.0297
20523WAT      O83896   5.535   9.846   2.408  0.0081 -0.1696  0.5849
20523WAT     H183897   5.599   9.888   2.351 -1.3838  0.1323 -0.8184
20523WAT     H283898   5.492   9.919   2.454  1.3798 -0.4233  2.3883
20523WAT    EPW83899   5.538   9.861   2.407  0.0055 -0.1631  0.6378
20524WAT      O83900  -4.057   6.966   3.533 -0.2758 -0.0394 -0.4656
20524WAT     H183901  -4.085   6.942   3.445  0.0903 -1.3401 -0.2397
20524WAT     H283902  -4.049   6.883   3.580  0.3378  0.5730  0.5557
20524WAT    EPW83903  -4.060   6.952   3.528 -0.1466 -0.1302 -0.3011
20525WAT      O83904  -3.167   9.147   6.829 -0.1084  0.1368 -0.0022
20525WAT     H183905  -3.174   9.056   6.801 -0.5343  0.1874 -0.0719
20525WAT     H283906  -3.116   9.144   6.910 -1.5583 -0.3637  0.9413
20525WAT    EPW83907  -3.161   9.135   6.836 -0.3557  0.0772  0.1130
20526WAT      O83908   5.101   8.837   0.398 -0.3020 -0.1973 -0.1305
20526WAT     H183909   5.134   8.915   0.354  1.6508 -0.7490  0.2680
20526WAT     H283910   5.010   8.831   0.370 -1.0876  3.1934  1.2155
20526WAT    EPW83911   5.093   8.846   0.388 -0.1481  0.1769  0.0996
20527WAT      O83912   1.578   0.135   0.648  0.1339 -0.0454 -0.6925
20527WAT     H183913   1.634   0.097   0.716 -1.6329 -2.1599 -0.3233
20527WAT     H283914   1.542   0.213   0.689 -0.4730 -0.9903  0.6469
20527WAT    EPW83915   1.581   0.140   0.662 -0.1792 -0.4489 -0.4672
20528WAT      O83916   1.297   0.545   8.397  0.4262 -0.0322 -0.5799
20528WAT     H183917   1.375   0.489   8.393  1.7228  1.6769 -0.2361
20528WAT     H283918   1.328   0.626   8.438 -1.6464  0.5243 -0.0201
20528WAT    EPW83919   1.311   0.548   8.402  0.3238  0.2666 -0.4606
20529WAT      O83920  -2.146   8.239   2.762 -0.0365  0.6639  0.4461
20529WAT     H183921  -2.211   8.280   2.819 -1.9712 -1.2517 -0.2466
20529WAT     H283922  -2.175   8.258   2.673  2.3621  2.7104 -0.0089
20529WAT    EPW83923  -2.158   8.247   2.758  0.0247  0.6809  0.2947
20530WAT      O83924   5.313   8.325   2.296  0.0473  0.6237 -0.6402
20530WAT     H183925   5.260   8.259   2.251 -1.0398  1.7876 -1.1386
20530WAT     H283926   5.396   8.281   2.313  0.0250 -0.3030 -2.5920
20530WAT    EPW83927   5.317   8.310   2.292 -0.0992  0.6547 -0.9634
20531WAT      O83928   2.563   7.742   0.514  0.0405 -0.5087  0.4873
20531WAT     H183929   2.583   7.702   0.599 -0.4780 -0.3967  0.6674
20531WAT     H283930   2.596   7.680   0.449  1.7716  0.0754  0.7648
20531WAT    EPW83931   2.570   7.729   0.517  0.2004 -0.4170  0.5477
20532WAT      O83932   1.324   2.847   1.071 -0.6941  0.8714 -0.1848
20532WAT     H183933   1.272   2.909   1.121  0.0104 -0.3621  2.1915
20532WAT     H283934   1.395   2.820   1.130  1.1458  0.5131 -2.3852
20532WAT    EPW83935   1.327   2.852   1.085 -0.3585  0.6615 -0.1616
20533WAT      O83936   7.704   4.734   2.438  0.6235 -0.0208  0.2530
20533WAT     H183937   7.761   4.795   2.391  1.8661  0.0084  1.6878
20533WAT     H283938   7.622   4.782   2.450 -0.2476 -0.5161 -2.9259
20533WAT    EPW83939   7.701   4.748   2.434  0.6726 -0.0823  0.0230
20534WAT      O83940  -2.796   8.492   1.710 -0.1719  0.2258  0.3369
20534WAT     H183941  -2.770   8.524   1.624 -0.5839 -1.3948 -0.4247
20534WAT     H283942  -2.727   8.430   1.735  0.3391  1.2208  1.5460
20534WAT    EPW83943  -2.783   8.488   1.702 -0.1588  0.1431  0.3959
20535WAT      O83944   3.166   5.071   3.249  0.1796 -0.1588  0.3550
20535WAT     H183945   3.217   4.990   3.253  2.0354  0.8983 -0.2588
20535WAT     H283946   3.185   5.107   3.162 -1.0080  0.6955  0.4181
20535WAT    EPW83947   3.175   5.065   3.238  0.2677  0.0935  0.2824
20536WAT      O83948   3.710   0.148   3.519  0.1305 -0.1320  0.3047
20536WAT     H183949   3.663   0.064   3.516  1.9653 -1.1981 -0.3121
20536WAT     H283950   3.669   0.201   3.450 -1.0923 -0.4686  0.7433
20536WAT    EPW83951   3.698   0.144   3.509  0.2111 -0.3170  0.2812
20537WAT      O83952   1.645   6.524   7.903 -0.1885  0.3399  0.2386
20537WAT     H183953   1.587   6.502   7.830  0.6306 -0.7312 -0.1015
20537WAT     H283954   1.588   6.570   7.965 -1.0795  0.5486 -0.6976
20537WAT    EPW83955   1.630   6.527   7.901 -0.1979  0.2260  0.0703
20538WAT      O83956  -5.119   7.605   6.750 -0.2272 -0.1483  0.2987
20538WAT     H183957  -5.181   7.661   6.703 -0.2575 -1.8148 -1.8445
20538WAT     H283958  -5.110   7.528   6.693  0.6477 -1.8095  2.5635
20538WAT    EPW83959  -5.126   7.602   6.736 -0.1159 -0.5872  0.3147
20539WAT      O83960  -0.981   9.028   3.657  0.4225  0.1598  0.0452
20539WAT     H183961  -1.002   8.936   3.641  0.5639 -0.1188  1.3562
20539WAT     H283962  -1.055   9.060   3.709  1.7290 -0.0157  2.0869
20539WAT    EPW83963  -0.994   9.020   3.661  0.6135  0.0997  0.4873
20540WAT      O83964  -2.635   0.205   4.307 -0.1805  0.3273  0.2150
20540WAT     H183965  -2.724   0.232   4.330 -0.4534 -1.6440  1.7951
20540WAT     H283966  -2.641   0.109   4.300  2.1443 -0.0252  2.0166
20540WAT    EPW83967  -2.648   0.196   4.309  0.0901  0.0208  0.6609
20541WAT      O83968   4.541   8.931   4.753  0.2213  0.1036 -0.9166
20541WAT     H183969   4.629   8.966   4.739  0.6546 -0.8990 -0.8427
20541WAT     H283970   4.524   8.944   4.846  1.4973 -2.2313 -0.2743
20541WAT    EPW83971   4.550   8.937   4.764  0.4468 -0.3366 -0.8221
20542WAT      O83972  -6.740   7.486   8.647  0.3636 -0.3242  0.0503
20542WAT     H183973  -6.674   7.554   8.632 -0.1471  0.0275 -0.6617
20542WAT     H283974  -6.772   7.464   8.559 -1.1076  0.1552  0.4376
20542WAT    EPW83975  -6.735   7.492   8.633  0.1023 -0.2146  0.0076
20543WAT      O83976  -3.009  10.124   4.310  0.5447 -0.0446  0.4473
20543WAT     H183977  -2.970  10.167   4.386 -1.5456  0.1089  1.4959
20543WAT     H283978  -3.038  10.039   4.343 -2.4728  0.9085  0.5194
20543WAT    EPW83979  -3.008  10.118   4.324 -0.1290  0.1011  0.5951
20544WAT      O83980  -2.403   6.669   2.793  0.0647 -0.8262  0.3066
20544WAT     H183981  -2.358   6.596   2.836 -2.2337 -1.1969  2.3482
20544WAT     H283982  -2.411   6.735   2.862 -1.7055 -0.4512 -0.2172
20544WAT    EPW83983  -2.398   6.668   2.808 -0.4719 -0.8256  0.5069
20545WAT      O83984   4.113   2.892   3.992 -0.1906  0.2420 -0.1438
20545WAT     H183985   4.181   2.885   3.925 -1.0976 -2.7715 -0.8833
20545WAT     H283986   4.034   2.859   3.951 -0.8042 -1.6940  2.3490
20545WAT    EPW83987   4.112   2.887   3.978 -0.3912 -0.4108  0.0874
20546WAT      O83988   0.874  10.016   3.857  0.2163  0.0248 -0.3657
20546WAT     H183989   0.845  10.079   3.790 -0.7926  1.0165  0.9524
20546WAT     H283990   0.955  10.054   3.891  1.0253 -0.7576 -1.3620
20546WAT    EPW83991   0.881  10.030   3.852  0.1899  0.0525 -0.3232
20547WAT      O83992   1.301   6.829   5.411 -0.1778 -0.3010 -0.2811
20547WAT     H183993   1.275   6.766   5.344  0.5338  1.3740 -2.2133
20547WAT     H283994   1.395   6.816   5.421 -0.2353 -0.3641  0.2453
20547WAT    EPW83995   1.310   6.819   5.404 -0.0916 -0.0887 -0.4663
20548WAT      O83996   0.070   8.430   2.584  0.5115 -0.0579 -0.2282
20548WAT     H183997   0.008   8.375   2.537 -1.3029 -0.3132  2.2378
20548WAT     H283998   0.143   8.372   2.605 -0.9663 -1.3986  1.5585
20548WAT    EPW83999   0.071   8.415   2.581  0.0773 -0.2685  0.3328
20549WAT      O84000  -3.467   8.812   3.339 -0.2502 -0.0954 -0.8775
20549WAT     H184001  -3.513   8.728   3.333  0.7964 -0.5996 -2.2834
20549WAT     H284002  -3.438   8.830   3.250  4.2645 -0.9775  0.1753
20549WAT    EPW84003  -3.469   8.804   3.327  0.4833 -0.2780 -0.9241
20550WAT      O84004  -0.614   4.206   8.811 -0.1854  0.0288  0.2302
20550WAT     H184005  -0.688   4.254   8.775  1.0141  2.1366  0.3906
20550WAT     H284006  -0.543   4.221   8.748  0.2949 -1.4103  0.3931
20550WAT    EPW84007  -0.614   4.215   8.798  0.0362  0.1171  0.2728
20551WAT      O84008   3.983   8.946   1.574  0.6532 -0.3125  0.4366
20551WAT     H184009   3.958   8.862   1.612 -1.3468 -0.2899 -0.6857
20551WAT     H284010   3.940   9.011   1.630  0.1666 -0.1612 -0.1026
20551WAT    EPW84011   3.974   8.943   1.586  0.3252 -0.2894  0.2174
20552WAT      O84012  -3.058   2.973   4.749  0.3626  0.0454 -0.5845
20552WAT     H184013  -3.062   3.040   4.680  1.9813  1.0147  0.2074
20552WAT     H284014  -3.111   3.008   4.820  0.8030  0.2733 -0.3623
20552WAT    EPW84015  -3.065   2.987   4.749  0.6342  0.2033 -0.4508
20553WAT      O84016   2.447   7.281   3.399  0.0797  0.3442 -0.1320
20553WAT     H184017   2.490   7.197   3.419 -1.7082 -0.6162 -0.1606
20553WAT     H284018   2.511   7.327   3.344  1.7926 -0.2742  1.2260
20553WAT    EPW84019   2.461   7.276   3.394  0.0699  0.1361  0.0433
20554WAT      O84020   7.119   4.319   0.191 -0.2502  0.3331  0.1324
20554WAT     H184021   7.175   4.294   0.264  1.0211 -0.1651 -0.9513
20554WAT     H284022   7.115   4.241   0.136 -2.4748  0.1954  0.4065
20554WAT    EPW84023   7.126   4.305   0.193 -0.3760  0.2494  0.0256
20555WAT      O84024   8.499   4.200   0.161  0.0777 -0.1735 -0.5771
20555WAT     H184025   8.408   4.174   0.179 -0.4025  0.4374 -1.9874
20555WAT     H284026   8.509   4.285   0.204 -0.1443 -0.0707 -0.7259
20555WAT    EPW84027   8.488   4.208   0.169 -0.0148 -0.0792 -0.7828
20556WAT      O84028   2.499   9.531   1.686  0.4279 -0.3520  0.4889
20556WAT     H184029   2.574   9.473   1.701 -0.0119 -0.9739  0.3115
20556WAT     H284030   2.500   9.590   1.760  0.4711 -1.0382  1.0479
20556WAT    EPW84031   2.509   9.531   1.697  0.3756 -0.5245  0.5392
20557WAT      O84032   0.482   5.306   4.983  0.3401 -0.1568 -0.6515
20557WAT     H184033   0.499   5.364   4.908 -0.4805  1.0916  0.0871
20557WAT     H284034   0.437   5.230   4.944  0.4298  0.2065 -1.4985
20557WAT    EPW84035   0.478   5.304   4.968  0.2437  0.0558 -0.6659
20558WAT      O84036   0.885   4.960   1.153 -0.7239  1.1373  0.2672
20558WAT     H184037   0.815   4.895   1.157  0.4510 -0.1165  2.1468
20558WAT     H284038   0.923   4.961   1.241  2.6873  0.4561 -1.0120
20558WAT    EPW84039   0.881   4.951   1.165 -0.1190  0.8821  0.3464
20559WAT      O84040  -0.231   7.014   3.232 -0.2605  0.8257 -0.2277
20559WAT     H184041  -0.158   7.048   3.285  0.2959 -1.6731  0.7230
20559WAT     H284042  -0.308   7.028   3.286  0.3117 -1.7972  1.4695
20559WAT    EPW84043  -0.231   7.021   3.246 -0.1116  0.1500  0.1216
20560WAT      O84044  -1.725   5.608   4.765 -0.3133 -0.7034 -0.2491
20560WAT     H184045  -1.735   5.695   4.804 -0.6511  0.4011 -2.5893
20560WAT     H284046  -1.809   5.565   4.780 -0.5315 -0.2111 -0.0278
20560WAT    EPW84047  -1.737   5.614   4.772 -0.3867 -0.4928 -0.5283
20561WAT      O84048   2.619   4.948   4.212 -0.4213 -0.0928 -0.1427
20561WAT     H184049   2.617   4.969   4.306 -1.5352 -1.1171  0.0889
20561WAT     H284050   2.534   4.906   4.196  0.5451 -1.7019 -1.1964
20561WAT    EPW84051   2.607   4.945   4.222 -0.4407 -0.4401 -0.2511
20562WAT      O84052   4.863  10.177   3.786 -0.4445 -0.1254 -0.1166
20562WAT     H184053   4.825  10.204   3.702 -1.7133 -1.7913 -0.1387
20562WAT     H284054   4.850  10.082   3.789 -0.6344 -0.0870  2.0680
20562WAT    EPW84055   4.856  10.168   3.775 -0.6371 -0.3405  0.1687
20563WAT      O84056   6.366   0.173   3.065 -0.7088 -0.1725 -0.1837
20563WAT     H184057   6.290   0.230   3.081 -0.1739  0.3838  0.4295
20563WAT     H284058   6.435   0.210   3.120  0.2820 -0.1012 -1.4405
20563WAT    EPW84059   6.365   0.186   3.074 -0.5076 -0.0897 -0.2686
20564WAT      O84060   7.276   2.536   1.306  0.1893 -0.1464 -0.2534
20564WAT     H184061   7.304   2.534   1.397  0.1352  1.8515 -0.1422
20564WAT     H284062   7.193   2.583   1.307  0.8670  1.1528 -1.4463
20564WAT    EPW84063   7.269   2.542   1.318  0.2716  0.2884 -0.3961
20565WAT      O84064   5.133   6.183   4.277  0.7355  0.4756  0.3898
20565WAT     H184065   5.068   6.252   4.292 -1.0438 -0.7285 -1.2007
20565WAT     H284066   5.132   6.131   4.357  1.7655  1.9854  1.4265
20565WAT    EPW84067   5.124   6.185   4.290  0.6366  0.5159  0.3169
20566WAT      O84068  -4.382   4.635   7.542  0.4760 -0.1340  0.3181
20566WAT     H184069  -4.440   4.668   7.611 -1.1140 -1.5420 -0.2818
20566WAT     H284070  -4.302   4.687   7.551 -0.8208  1.8238  1.2586
20566WAT    EPW84071  -4.379   4.647   7.552  0.0951 -0.0615  0.3633
20567WAT      O84072   0.252   3.445   6.371  0.3711 -0.3602 -0.1599
20567WAT     H184073   0.191   3.373   6.385 -0.4980  0.2590 -0.6169
20567WAT     H284074   0.231   3.508   6.441  1.1124 -0.5364  0.2302
20567WAT    EPW84075   0.241   3.444   6.383  0.3542 -0.3018 -0.1688
20568WAT      O84076  -6.316   9.176   7.072  0.0465 -0.2327  0.8072
20568WAT     H184077  -6.221   9.187   7.067  0.1381 -1.2332  0.1999
20568WAT     H284078  -6.329   9.084   7.094 -0.7833 -0.0684  1.0472
20568WAT    EPW84079  -6.305   9.165   7.074 -0.0508 -0.3428  0.7589
20569WAT      O84080   0.156   7.490   6.422  0.1292  0.0742  0.0569
20569WAT     H184081   0.129   7.502   6.513  0.4677 -1.9361  0.4629
20569WAT     H284082   0.209   7.410   6.423  0.6669  0.3644 -1.8091
20569WAT    EPW84083   0.159   7.481   6.434  0.2448 -0.1526 -0.1357
20570WAT      O84084  -4.448   8.192   7.534 -0.1731  0.2392 -0.3510
20570WAT     H184085  -4.431   8.162   7.623  0.1558 -1.0318 -0.8172
20570WAT     H284086  -4.425   8.118   7.478  1.1243  1.5185 -1.6220
20570WAT    EPW84087  -4.443   8.179   7.538  0.0415  0.2403 -0.5801
20571WAT      O84088   1.968   7.211   3.702  0.4138  0.0480 -0.0698
20571WAT     H184089   1.881   7.223   3.664  1.3199  2.4108 -1.6514
20571WAT     H284090   2.027   7.218   3.628  2.0212 -0.7681  1.0808
20571WAT    EPW84091   1.964   7.213   3.687  0.7453  0.2520 -0.1266
20572WAT      O84092  -0.053   9.435   8.042  0.1537 -0.0560  0.3331
20572WAT     H184093  -0.062   9.508   7.980  2.7518  0.2549  0.1897
20572WAT     H284094  -0.009   9.366   7.993 -0.6045 -1.0450  0.9891
20572WAT    EPW84095  -0.048   9.436   8.028  0.3964 -0.1454  0.4010
20573WAT      O84096   3.823   4.050   5.091  0.7768 -0.5749 -0.1530
20573WAT     H184097   3.904   4.091   5.060 -0.2527  0.9889 -0.9281
20573WAT     H284098   3.834   4.045   5.186  1.5773  0.0800 -0.2015
20573WAT    EPW84099   3.835   4.055   5.099  0.7466 -0.2823 -0.2615
20574WAT      O84100   0.672   0.687   4.122 -0.4101  0.1644  0.3145
20574WAT     H184101   0.605   0.674   4.189 -0.6067 -1.5337 -0.1589
20574WAT     H284102   0.746   0.633   4.151  0.3443  1.1544  0.2743
20574WAT    EPW84103   0.673   0.678   4.135 -0.3365  0.0710  0.2468
20575WAT      O84104  -0.198   1.207   2.834 -1.0993 -0.1095 -0.7314
20575WAT     H184105  -0.248   1.226   2.913 -1.4655  0.5868 -1.1266
20575WAT     H284106  -0.237   1.127   2.799  1.5942 -2.8665  1.9126
20575WAT    EPW84107  -0.210   1.199   2.840 -0.7924 -0.3813 -0.4348
20576WAT      O84108   1.234   5.095   2.649  0.7488  0.4965  0.2644
20576WAT     H184109   1.253   5.170   2.704 -1.2668  0.2543  1.3627
20576WAT     H284110   1.213   5.025   2.711  0.4357 -0.3564 -0.7799
20576WAT    EPW84111   1.234   5.095   2.665  0.4416  0.3519  0.2714
20577WAT      O84112   2.582   1.970   4.170  0.4754  0.1093 -0.3538
20577WAT     H184113   2.513   1.904   4.176  2.0604 -1.7210 -1.2062
20577WAT     H284114   2.628   1.963   4.254  0.4732  0.3680 -0.3296
20577WAT    EPW84115   2.579   1.960   4.182  0.6841 -0.0980 -0.4630
20578WAT      O84116  -3.132   8.669   1.747  0.2016 -0.6565  0.8178
20578WAT     H184117  -3.174   8.643   1.829 -0.6194 -2.4338 -0.1050
20578WAT     H284118  -3.201   8.715   1.699 -0.3036 -2.2133 -0.0492
20578WAT    EPW84119  -3.147   8.671   1.751  0.0267 -1.0962  0.5817
20579WAT      O84120   2.507   3.941   6.260 -0.2452 -0.7639 -0.2547
20579WAT     H184121   2.425   3.987   6.276 -0.0330 -0.4206 -0.1353
20579WAT     H284122   2.574   4.009   6.266 -0.0481 -0.8325 -1.4453
20579WAT    EPW84123   2.505   3.956   6.263 -0.1913 -0.7277 -0.3960
20580WAT      O84124   0.520   9.867   0.271 -0.3940 -0.2293  0.2052
20580WAT     H184125   0.581   9.795   0.289  2.4161  2.1399  0.8897
20580WAT     H284126   0.499   9.902   0.358  2.2430  2.7246 -0.1968
20580WAT    EPW84127   0.525   9.862   0.285  0.3245  0.4725  0.2425
20581WAT      O84128   1.951   2.724   1.640  0.5650  0.0427 -0.9244
20581WAT     H184129   1.969   2.766   1.556  2.5130  0.5043 -0.3336
20581WAT     H284130   2.037   2.716   1.682 -0.1350 -1.7569  0.3010
20581WAT    EPW84131   1.965   2.728   1.635  0.7296 -0.1339 -0.6848
20582WAT      O84132   5.954   1.549   5.976  0.1175  0.0343 -1.1489
20582WAT     H184133   5.954   1.636   6.016 -0.3945 -0.6093  0.3189
20582WAT     H284134   5.866   1.539   5.939 -0.3151 -0.3823 -0.0584
20582WAT    EPW84135   5.942   1.559   5.977 -0.0072 -0.1056 -0.8113
20583WAT      O84136   7.630   0.266   4.293 -0.1386 -0.4455  0.6484
20583WAT     H184137   7.549   0.297   4.333 -1.7504 -3.3811  0.0130
20583WAT     H284138   7.697   0.279   4.360 -1.1366  1.7944  1.3105
20583WAT    EPW84139   7.628   0.272   4.307 -0.4830 -0.5373  0.6521
20584WAT      O84140  -0.411   9.161  -0.016  0.4436  0.3104  0.1427
20584WAT     H184141  -0.460   9.078  -0.010  2.1546 -0.6599  1.3687
20584WAT     H284142  -0.342   9.153   0.049  0.6771  2.7376  0.2755
20584WAT    EPW84143  -0.409   9.149  -0.007  0.7001  0.5026  0.3219
20585WAT      O84144   2.771   2.240   8.003 -0.3148 -0.1061 -0.0596
20585WAT     H184145   2.807   2.295   7.934  1.7305  0.9705  1.7198
20585WAT     H284146   2.843   2.179   8.024 -1.6517 -1.8467 -0.2904
20585WAT    EPW84147   2.785   2.239   7.997 -0.2214 -0.1935  0.1447
20586WAT      O84148   5.405   3.425   6.157  0.1875  0.3026 -0.5917
20586WAT     H184149   5.449   3.504   6.190  1.0322 -0.5760  0.5003
20586WAT     H284150   5.403   3.367   6.233  0.8572 -1.2544 -1.7157
20586WAT    EPW84151   5.411   3.428   6.172  0.3872 -0.0187 -0.5958
20587WAT      O84152   6.282   0.922   1.207 -0.2298 -0.5904  0.1683
20587WAT     H184153   6.364   0.967   1.192  0.8441 -1.9063  1.6754
20587WAT     H284154   6.222   0.989   1.240 -0.9991  1.1739 -4.1555
20587WAT    EPW84155   6.285   0.937   1.209 -0.1893 -0.5313 -0.2032
20588WAT      O84156  -4.025   7.448   5.553  0.6266  0.5896  0.1133
20588WAT     H184157  -4.099   7.393   5.530 -0.6031  1.6109  1.4609
20588WAT     H284158  -4.001   7.419   5.642 -0.1763  2.2967  0.9345
20588WAT    EPW84159  -4.031   7.437   5.562  0.3583  0.9494  0.3991
20589WAT      O84160   0.418   3.654   6.579 -0.6536 -0.3698  0.1232
20589WAT     H184161   0.434   3.637   6.486 -0.8936 -2.3600  0.4082
20589WAT     H284162   0.397   3.747   6.583  3.6263  0.8548 -1.2291
20589WAT    EPW84163   0.417   3.664   6.567 -0.1208 -0.4706 -0.0176
20590WAT      O84164  -0.835   2.729   1.732  0.1395  0.4034  0.2989
20590WAT     H184165  -0.815   2.790   1.660  0.1840  0.3800  0.2910
20590WAT     H284166  -0.856   2.785   1.806 -0.1147  0.4263  0.2111
20590WAT    EPW84167  -0.835   2.745   1.732  0.1118  0.4032  0.2863
20591WAT      O84168   4.939   2.630   0.999  0.2727  0.0701 -0.3876
20591WAT     H184169   4.915   2.557   0.941 -1.4750 -0.0097  0.3610
20591WAT     H284170   4.908   2.708   0.954  2.2450  0.4114 -1.2396
20591WAT    EPW84171   4.932   2.630   0.986  0.3023  0.1045 -0.4012
20592WAT      O84172  -0.637   4.693   6.379 -0.1522  0.3642  0.2746
20592WAT     H184173  -0.623   4.628   6.448  0.5472  0.4352  0.2082
20592WAT     H284174  -0.731   4.707   6.378 -0.9941 -3.6223 -2.3686
20592WAT    EPW84175  -0.647   4.686   6.388 -0.1710 -0.1521 -0.0830
20593WAT      O84176  -4.068   1.758   7.100 -0.6019 -0.6061 -0.6048
20593WAT     H184177  -4.007   1.728   7.032 -1.0905 -2.2682 -0.3662
20593WAT     H284178  -4.034   1.721   7.181 -2.0617 -1.8563 -0.5128
20593WAT    EPW84179  -4.056   1.749   7.102 -0.8588 -0.9903 -0.5612
20594WAT      O84180   7.436   3.266   0.796 -0.0077 -0.7248 -0.0126
20594WAT     H184181   7.497   3.283   0.868 -0.7929  0.4258  0.3987
20594WAT     H284182   7.435   3.171   0.788 -0.9232 -0.9754  2.4108
20594WAT    EPW84183   7.444   3.256   0.804 -0.2320 -0.6061  0.3613
20595WAT      O84184  -1.561   7.498   5.055 -0.2981 -0.3001 -0.3298
20595WAT     H184185  -1.652   7.485   5.030  0.0199 -0.7339 -1.3040
20595WAT     H284186  -1.565   7.562   5.126 -1.3167  0.1458 -0.7654
20595WAT    EPW84187  -1.573   7.505   5.061 -0.3905 -0.2985 -0.5157
20596WAT      O84188   2.602   9.095   0.605  0.0444  0.2152 -0.6252
20596WAT     H184189   2.668   9.162   0.590 -0.4975  1.2140  1.1869
20596WAT     H284190   2.643   9.033   0.665 -0.5025  0.6142  0.1753
20596WAT    EPW84191   2.616   9.096   0.611 -0.0992  0.3996 -0.2806
20597WAT      O84192  -7.925   9.818   8.739 -0.0042 -0.4301 -0.3043
20597WAT     H184193  -7.849   9.761   8.749  0.8446  0.6337 -0.5003
20597WAT     H284194  -7.967   9.789   8.658  0.3482 -0.8538 -0.3335
20597WAT    EPW84195  -7.921   9.807   8.729  0.1543 -0.3457 -0.3343
20598WAT      O84196  -2.622   5.450   2.203 -0.4531 -0.1129 -0.1754
20598WAT     H184197  -2.537   5.407   2.191 -0.6540 -0.6491  0.2632
20598WAT     H284198  -2.669   5.392   2.263 -0.1038  1.5660  1.8419
20598WAT    EPW84199  -2.617   5.437   2.209 -0.4336  0.0379  0.1485
20599WAT      O84200  -1.780   5.821   3.798  0.3954 -1.0390  0.4697
20599WAT     H184201  -1.793   5.732   3.832  1.4003 -1.7186 -0.8441
20599WAT     H284202  -1.750   5.809   3.708  1.6751  0.5907  0.6239
20599WAT    EPW84203  -1.777   5.808   3.791  0.6967 -0.9136  0.3167
20600WAT      O84204  -1.858   5.611   1.203 -0.1140 -0.4741 -0.2237
20600WAT     H184205  -1.939   5.597   1.252  1.7719 -4.6722  2.2158
20600WAT     H284206  -1.878   5.582   1.114 -1.0922 -2.6615  0.6360
20600WAT    EPW84207  -1.872   5.605   1.198  0.0057 -1.3163  0.2114
20601WAT      O84208  -2.022   5.095   3.733 -0.3147  0.7374 -0.3284
20601WAT     H184209  -2.108   5.123   3.702 -0.3484 -0.5257 -1.4511
20601WAT     H284210  -2.033   5.002   3.755  1.3880 -0.2677 -3.2193
20601WAT    EPW84211  -2.035   5.086   3.732 -0.0945  0.4382 -0.8578
20602WAT      O84212   0.487   2.427   5.108  0.0543 -0.1366 -0.5922
20602WAT     H184213   0.470   2.420   5.202 -1.9214 -1.0033 -0.9667
20602WAT     H284214   0.558   2.490   5.102  0.8927 -0.7711  1.5346
20602WAT    EPW84215   0.494   2.434   5.120 -0.0957 -0.3346 -0.3612
20603WAT      O84216  -4.365  10.172   7.187  0.5224 -0.3157 -0.2194
20603WAT     H184217  -4.286  10.224   7.172 -0.0863  0.5241 -0.5569
20603WAT     H284218  -4.429  10.206   7.124 -0.1153 -0.9775  0.0544
20603WAT    EPW84219  -4.363  10.183   7.177  0.3579 -0.2923 -0.2279
20604WAT      O84220   0.538   9.718   6.522  0.1406  0.3177 -0.3534
20604WAT     H184221   0.449   9.680   6.519  0.2932 -0.0296 -0.6263
20604WAT     H284222   0.532   9.796   6.468  0.3205 -0.4171 -1.4773
20604WAT    EPW84223   0.525   9.723   6.515  0.1844  0.1745 -0.5376
20605WAT      O84224   0.658   6.953   1.872  0.6084 -0.5805  0.1809
20605WAT     H184225   0.672   7.047   1.890  0.1800 -0.8052  1.9183
20605WAT     H284226   0.611   6.951   1.789  1.2242  0.7095 -0.2304
20605WAT    EPW84227   0.654   6.965   1.864  0.6332 -0.4401  0.3558
20606WAT      O84228   0.369   2.314   7.170 -0.2947 -0.4316  0.8701
20606WAT     H184229   0.442   2.272   7.217 -0.7180  1.3791  3.3569
20606WAT     H284230   0.292   2.293   7.223 -0.8987  1.2210  0.6879
20606WAT    EPW84231   0.369   2.305   7.183 -0.4302  0.0252  1.1740
20607WAT      O84232  -1.080   8.136   2.558  0.9046  0.1128  0.6079
20607WAT     H184233  -1.002   8.138   2.502  0.2475  1.1869 -0.3398
20607WAT     H284234  -1.143   8.191   2.511 -0.0553  0.1403  1.8861
20607WAT    EPW84235  -1.078   8.143   2.544  0.6913  0.2580  0.6516
20608WAT      O84236  -0.414   0.879   4.234 -0.2381  0.1206  0.1112
20608WAT     H184237  -0.448   0.791   4.249  2.4665 -1.2232 -1.0545
20608WAT     H284238  -0.374   0.875   4.147  0.5844  2.3047  0.3228
20608WAT    EPW84239  -0.413   0.867   4.224  0.2271  0.2314 -0.0145
20609WAT      O84240  -3.533   9.573   3.424  1.1215  0.0481  0.4891
20609WAT     H184241  -3.584   9.645   3.386  0.1457 -0.9548 -0.2025
20609WAT     H284242  -3.496   9.609   3.504  0.4420  1.2346  0.2983
20609WAT    EPW84243  -3.535   9.587   3.430  0.9032  0.0725  0.3726
20610WAT      O84244   3.751   3.111   6.515 -0.1388 -0.1497 -1.0936
20610WAT     H184245   3.844   3.091   6.506 -0.0047  0.7008 -1.7170
20610WAT     H284246   3.749   3.193   6.564 -0.6092 -0.6768 -0.1886
20610WAT    EPW84247   3.763   3.119   6.520 -0.1831 -0.1070 -1.0564
20611WAT      O84248  -2.324   8.786   0.922  0.0153  0.2341  0.6065
20611WAT     H184249  -2.273   8.866   0.918  1.3264 -0.4770  1.8964
20611WAT     H284250  -2.374   8.794   1.003 -0.8500  0.3094  0.0693
20611WAT    EPW84251  -2.324   8.797   0.932  0.0740  0.1502  0.7058
20612WAT      O84252   3.928   2.291   8.580  0.1046  0.7763 -0.1509
20612WAT     H184253   3.919   2.336   8.496 -0.2171  0.7243 -0.1472
20612WAT     H284254   3.920   2.198   8.558  1.2921  0.6755 -0.2303
20612WAT    EPW84255   3.925   2.285   8.566  0.2189  0.7561 -0.1612
20613WAT      O84256   5.094   8.047   0.994  0.9511 -0.1095  0.0804
20613WAT     H184257   5.102   8.139   1.019 -0.1086  1.4220 -4.2701
20613WAT     H284258   5.173   8.006   1.029  0.5298  1.8516  3.8789
20613WAT    EPW84259   5.106   8.054   1.002  0.7555  0.3514  0.0076
20614WAT      O84260  -3.456   9.580   2.725 -0.3104  0.8881  0.3780
20614WAT     H184261  -3.488   9.668   2.703 -1.5042  0.5749  0.7552
20614WAT     H284262  -3.444   9.583   2.819  1.8610  1.3120  0.1269
20614WAT    EPW84263  -3.459   9.592   2.734 -0.1817  0.9027  0.3947
20615WAT      O84264   0.819   1.498   1.087  1.0488  0.7497 -0.1246
20615WAT     H184265   0.730   1.532   1.080  0.6505 -0.5948 -3.3739
20615WAT     H284266   0.871   1.555   1.029  1.8982  0.3235  0.1980
20615WAT    EPW84267   0.814   1.510   1.078  1.1083  0.5162 -0.5106
20616WAT      O84268   2.825   8.336   3.376 -0.0400 -0.3460 -0.1414
20616WAT     H184269   2.896   8.289   3.420  0.9688  1.3876  0.1648
20616WAT     H284270   2.808   8.412   3.432 -1.3997 -0.1548 -0.7785
20616WAT    EPW84271   2.832   8.340   3.389 -0.0862 -0.0925 -0.1851
20617WAT      O84272   1.645   1.562   3.411  0.0845  0.2360  0.4826
20617WAT     H184273   1.602   1.585   3.328  1.2916  0.4575 -0.1044
20617WAT     H284274   1.611   1.475   3.432  0.0601 -0.0027 -0.4712
20617WAT    EPW84275   1.635   1.553   3.403  0.2404  0.2337  0.2793
20618WAT      O84276  -2.820   7.880   6.459 -0.2268 -0.0696  0.4774
20618WAT     H184277  -2.774   7.964   6.459 -0.1158 -0.1291  0.3770
20618WAT     H284278  -2.749   7.815   6.455 -0.3391 -0.1520 -0.5424
20618WAT    EPW84279  -2.804   7.882   6.458 -0.2269 -0.0882  0.3300
20619WAT      O84280  -1.683   9.400   3.285  0.3581 -0.0175 -0.4035
20619WAT     H184281  -1.629   9.367   3.213 -1.9706 -1.9906 -1.4018
20619WAT     H284282  -1.656   9.350   3.361  1.1895  0.3713 -0.4307
20619WAT    EPW84283  -1.673   9.389   3.286  0.1606 -0.2260 -0.5388
20620WAT      O84284   5.867   0.524   2.756  0.2892 -0.4267  0.3563
20620WAT     H184285   5.830   0.458   2.697  1.4934 -0.5945 -0.2292
20620WAT     H284286   5.811   0.519   2.834 -0.2663 -1.4149 -0.0781
20620WAT    EPW84287   5.855   0.514   2.758  0.3748 -0.5792  0.2218
20621WAT      O84288  -1.774   5.760  -0.006 -1.1544  0.1902 -0.5055
20621WAT     H184289  -1.796   5.735   0.084 -1.5794  0.2218 -0.5977
20621WAT     H284290  -1.679   5.771  -0.005 -0.9892 -1.0899 -0.3891
20621WAT    EPW84291  -1.764   5.758   0.006 -1.1886  0.0255 -0.5023
20622WAT      O84292  -2.330   3.515   7.258  0.2711  0.0618  0.3940
20622WAT     H184293  -2.338   3.587   7.195 -1.0768 -1.4888 -1.3302
20622WAT     H284294  -2.372   3.441   7.214  1.0534 -1.6223  2.3561
20622WAT    EPW84295  -2.336   3.515   7.244  0.1965 -0.3649  0.4253
20623WAT      O84296   1.365   8.071   7.090  0.2426 -0.3510 -0.7137
20623WAT     H184297   1.293   8.033   7.140  1.0679  2.5811  3.2590
20623WAT     H284298   1.324   8.141   7.038 -0.1237 -0.4800 -0.5990
20623WAT    EPW84299   1.350   8.075   7.089  0.3031  0.0186 -0.1745
20624WAT      O84300   6.830   2.646   2.961  0.3695 -0.0596 -0.2328
20624WAT     H184301   6.782   2.712   3.011 -1.5607 -1.5455 -0.0045
20624WAT     H284302   6.847   2.689   2.877  2.2103  1.8807  1.0209
20624WAT    EPW84303   6.826   2.661   2.956  0.3579  0.0002 -0.0373
20625WAT      O84304  -2.378   4.975   1.399  0.0173  0.1804  0.1201
20625WAT     H184305  -2.362   4.993   1.491 -1.1744  1.5083  0.0948
20625WAT     H284306  -2.300   4.927   1.370 -0.7530 -2.7748  2.4507
20625WAT    EPW84307  -2.366   4.971   1.407 -0.2414 -0.0341  0.4241
20626WAT      O84308   4.597   3.447   8.270 -0.1001  0.2428  0.0223
20626WAT     H184309   4.573   3.533   8.236 -2.5363 -0.7910 -1.1521
20626WAT     H284310   4.517   3.414   8.311  1.3417 -0.6869  2.2545
20626WAT    EPW84311   4.583   3.454   8.271 -0.2315 -0.0162  0.1616
20627WAT      O84312   0.492   4.447   1.528 -0.4152 -0.2383  0.0725
20627WAT     H184313   0.569   4.422   1.578  0.2864  2.0444  0.2720
20627WAT     H284314   0.514   4.533   1.491 -2.6170  0.1985 -0.3972
20627WAT    EPW84315   0.505   4.455   1.529 -0.6131  0.1206  0.0368
20628WAT      O84316  -3.530   6.035   2.420  0.0233  0.3370  1.1201
20628WAT     H184317  -3.495   5.993   2.499  0.2841 -0.6046  0.5194
20628WAT     H284318  -3.514   6.129   2.434  0.9591  0.0965  1.7558
20628WAT    EPW84319  -3.523   6.042   2.432  0.1811  0.1810  1.1249
20629WAT      O84320   5.135   2.211   2.662 -0.8055 -0.2337 -0.6365
20629WAT     H184321   5.041   2.199   2.671 -0.5471 -2.1852  0.0649
20629WAT     H284322   5.170   2.122   2.655  0.9476  0.4634 -1.3046
20629WAT    EPW84323   5.128   2.198   2.662 -0.5403 -0.3990 -0.6322
20630WAT      O84324  -1.048   3.125   8.586 -0.6388  0.6434 -0.3179
20630WAT     H184325  -1.117   3.063   8.560  0.8078 -0.3024 -2.1638
20630WAT     H284326  -0.969   3.072   8.590 -0.0585  1.5286  2.6151
20630WAT    EPW84327  -1.047   3.110   8.583 -0.3715  0.6354 -0.1745
20631WAT      O84328   4.697   3.719   6.171  0.5061 -0.4595  0.2898
20631WAT     H184329   4.772   3.711   6.230 -0.2999  1.1638  1.5937
20631WAT     H284330   4.622   3.693   6.223 -0.2686  1.3310  0.1510
20631WAT    EPW84331   4.697   3.715   6.186  0.2973 -0.0092  0.4435
20632WAT      O84332   2.390   2.740   7.714  0.1943  1.0548  0.0290
20632WAT     H184333   2.479   2.736   7.748 -0.0930  0.9810  0.7742
20632WAT     H284334   2.348   2.810   7.764 -0.5960  0.1254  0.7097
20632WAT    EPW84335   2.396   2.749   7.725  0.0522  0.9226  0.2170
20633WAT      O84336   5.969   4.181   3.750  0.0223 -0.7261 -0.8306
20633WAT     H184337   5.998   4.090   3.740  0.6561 -0.7044  0.5791
20633WAT     H284338   5.981   4.199   3.843 -3.2330 -0.2668 -0.3867
20633WAT    EPW84339   5.974   4.171   3.761 -0.3235 -0.6628 -0.5862
20634WAT      O84340  -6.036   6.772   8.902 -0.3905 -0.4263  0.1325
20634WAT     H184341  -6.063   6.728   8.821 -1.0543 -1.6035  0.9730
20634WAT     H284342  -6.098   6.741   8.968  1.5805 -1.3770  1.6306
20634WAT    EPW84343  -6.048   6.762   8.900 -0.2182 -0.7071  0.4411
20635WAT      O84344   6.690   8.477   2.007  0.3011 -0.1982  0.0909
20635WAT     H184345   6.674   8.567   2.036  2.1330 -0.2183  1.3305
20635WAT     H284346   6.636   8.467   1.929 -1.2393  1.4155  0.8796
20635WAT    EPW84347   6.681   8.488   2.001  0.3397  0.0119  0.3585
20636WAT      O84348  -4.813   7.981   6.998  0.1822  0.1725  0.7319
20636WAT     H184349  -4.841   8.031   6.921 -0.1036  1.5655  1.7071
20636WAT     H284350  -4.847   8.031   7.072 -1.7364 -2.4145  1.7509
20636WAT    EPW84351  -4.821   7.994   6.998 -0.1085  0.0153  0.9949
20637WAT      O84352  -1.559   1.932   1.760 -0.5762  0.4159  0.2659
20637WAT     H184353  -1.495   1.865   1.733 -0.6947  0.4128 -0.0176
20637WAT     H284354  -1.567   1.989   1.683 -0.7357  0.5537  0.3847
20637WAT    EPW84355  -1.552   1.930   1.746 -0.6129  0.4337  0.2442
20638WAT      O84356  -1.204   4.854   0.367 -0.3057 -0.1070  0.2442
20638WAT     H184357  -1.240   4.880   0.281 -0.3397 -1.2493 -0.1094
20638WAT     H284358  -1.274   4.803   0.407  0.3984 -1.1608  0.1550
20638WAT    EPW84359  -1.218   4.851   0.361 -0.2173 -0.3965  0.1858
20639WAT      O84360  -0.450   7.750   2.632  0.1511  0.1717 -0.2512
20639WAT     H184361  -0.483   7.800   2.558 -1.1279 -1.4392 -0.8347
20639WAT     H284362  -0.498   7.785   2.707 -2.0461 -1.2567 -0.9076
20639WAT    EPW84363  -0.461   7.761   2.632 -0.3074 -0.2291 -0.4146
20640WAT      O84364  -1.395   6.071   2.386 -0.1744 -1.0000 -0.1951
20640WAT     H184365  -1.366   6.024   2.464  0.3658 -1.6953 -0.8043
20640WAT     H284366  -1.371   6.014   2.313 -1.1452 -0.6054 -0.8476
20640WAT    EPW84367  -1.388   6.057   2.386 -0.2313 -1.0395 -0.3614
20641WAT      O84368  -4.157   9.597   4.034 -0.0286  0.0595 -0.7222
20641WAT     H184369  -4.099   9.573   3.962 -2.7866  1.6234 -3.7094
20641WAT     H284370  -4.202   9.676   4.003 -0.9441  1.2306  3.0483
20641WAT    EPW84371  -4.155   9.604   4.021 -0.5133  0.4201 -0.6189
20642WAT      O84372  -0.457   9.148   7.145 -0.3056 -0.0070 -0.0758
20642WAT     H184373  -0.531   9.090   7.124 -0.1520 -0.3629  0.3468
20642WAT     H284374  -0.396   9.092   7.194  0.0879  0.3747 -0.1210
20642WAT    EPW84375  -0.459   9.133   7.149 -0.2334 -0.0038 -0.0260
20643WAT      O84376   2.827   0.928   5.466 -0.2430  0.0452  0.1665
20643WAT     H184377   2.814   0.835   5.448  1.0627  0.1559 -1.6219
20643WAT     H284378   2.740   0.967   5.453 -0.3010 -0.5876 -1.6460
20643WAT    EPW84379   2.814   0.921   5.462 -0.0786 -0.0237 -0.3083
20644WAT      O84380   2.682   1.585   4.031  0.5819 -0.2778 -0.2004
20644WAT     H184381   2.680   1.647   4.105 -1.4363 -1.8219  1.1413
20644WAT     H284382   2.772   1.590   3.999  0.3219  4.0876 -0.8855
20644WAT    EPW84383   2.694   1.594   4.037  0.2815  0.0943 -0.1137
20645WAT      O84384   9.228   0.709   0.031  0.6521  0.1247 -0.3159
20645WAT     H184385   9.175   0.787   0.047 -1.1222 -1.0544 -0.2737
20645WAT     H284386   9.239   0.707  -0.064 -1.6855 -1.0119 -0.6350
20645WAT    EPW84387   9.223   0.719   0.020  0.1101 -0.1807 -0.3524
20646WAT      O84388  -0.410   2.548   4.496  0.5010  0.6008 -0.0221
20646WAT     H184389  -0.406   2.480   4.430  0.0370 -1.5255  2.0077
20646WAT     H284390  -0.321   2.583   4.501  0.3926  1.3175 -2.1749
20646WAT    EPW84391  -0.398   2.544   4.488  0.4255  0.4148 -0.0384
20647WAT      O84392  -3.308   3.956   7.310  0.1598 -0.0440 -0.1336
20647WAT     H184393  -3.289   4.046   7.337  2.6601 -0.7366  0.6875
20647WAT     H284394  -3.246   3.939   7.239 -0.1191 -1.1824 -0.1219
20647WAT    EPW84395  -3.297   3.966   7.304  0.4528 -0.2854 -0.0236
20648WAT      O84396   4.171   9.783   3.649 -0.0918 -0.3667  0.2950
20648WAT     H184397   4.209   9.853   3.596  0.9478 -0.6147  0.6807
20648WAT     H284398   4.092   9.757   3.602  0.3476  0.0095 -0.6756
20648WAT    EPW84399   4.166   9.789   3.636  0.1032 -0.3495  0.2178
20649WAT      O84400  -6.964   7.050   7.582 -0.1071  0.2492 -0.2222
20649WAT     H184401  -6.925   7.085   7.502  0.3271 -1.0833 -0.6208
20649WAT     H284402  -7.018   7.122   7.616 -1.5079  0.3560 -2.5031
20649WAT    EPW84403  -6.966   7.064   7.576 -0.2346  0.0875 -0.5755
20650WAT      O84404   5.123   4.076   0.992  0.3344  0.3572 -0.1687
20650WAT     H184405   5.095   4.131   1.065 -0.0745  1.4386 -1.0959
20650WAT     H284406   5.069   4.106   0.918  0.8917 -0.5477 -0.9641
20650WAT    EPW84407   5.112   4.088   0.992  0.3541  0.3805 -0.3959
20651WAT      O84408   2.406   0.380  -0.000 -0.4896 -0.0776 -0.1180
20651WAT     H184409   2.363   0.355   0.082  1.1334 -2.1948  0.1674
20651WAT     H284410   2.448   0.464   0.019 -2.3052  0.7661  0.3561
20651WAT    EPW84411   2.406   0.387   0.013 -0.5150 -0.2458 -0.0176
20652WAT      O84412   2.409   2.402   1.981  0.9653  0.8219  0.4385
20652WAT     H184413   2.443   2.316   2.005  1.1097  0.6509 -0.3394
20652WAT     H284414   2.326   2.410   2.029  0.2068 -0.3828 -0.5960
20652WAT    EPW84415   2.402   2.392   1.990  0.8844  0.6405  0.1994
20653WAT      O84416  -2.312   2.888   2.575  0.9579 -0.6643 -0.1492
20653WAT     H184417  -2.401   2.897   2.609 -0.3422 -1.6705 -2.9549
20653WAT     H284418  -2.260   2.951   2.625 -2.1121  2.8042 -0.9165
20653WAT    EPW84419  -2.317   2.897   2.586  0.3815 -0.3396 -0.6205
20654WAT      O84420  -5.409   6.798   8.165 -0.5316  1.3927 -0.4169
20654WAT     H184421  -5.491   6.791   8.117 -0.2085  1.3949 -0.9716
20654WAT     H284422  -5.418   6.737   8.238 -0.4171  0.2180 -1.3525
20654WAT    EPW84423  -5.421   6.789   8.169 -0.4740  1.2379 -0.6137
20655WAT      O84424   4.429   2.675   6.559 -0.7065  0.4030 -0.4581
20655WAT     H184425   4.508   2.727   6.541 -0.8862  0.8202 -0.0585
20655WAT     H284426   4.457   2.611   6.624 -0.7866  0.7903 -0.0392
20655WAT    EPW84427   4.443   2.674   6.565 -0.7408  0.5090 -0.3500
20656WAT      O84428   0.034   3.783   3.719  0.4449 -0.3152  0.1111
20656WAT     H184429   0.053   3.817   3.806  0.3696 -0.0908  0.0406
20656WAT     H284430  -0.011   3.855   3.674 -1.0994 -1.0263  0.4548
20656WAT    EPW84431   0.031   3.797   3.725  0.2313 -0.3793  0.1471
20657WAT      O84432   6.349   7.006   0.666  0.7022  0.5123  0.2372
20657WAT     H184433   6.291   6.935   0.640 -0.1525  1.0311  0.6944
20657WAT     H284434   6.414   7.012   0.595  1.2624 -1.2196  0.5618
20657WAT    EPW84435   6.350   6.998   0.653  0.6633  0.3524  0.3403
20658WAT      O84436   1.959   8.114   3.164 -0.2703  0.2805 -0.4726
20658WAT     H184437   1.998   8.188   3.211  1.7302 -1.5152  0.9094
20658WAT     H284438   1.999   8.118   3.077 -0.2131  0.8365 -0.4262
20658WAT    EPW84439   1.970   8.125   3.159  0.0011  0.1173 -0.2842
20659WAT      O84440   6.820   5.127   1.993  1.0675 -0.2069  0.5174
20659WAT     H184441   6.791   5.200   1.939 -2.4412 -0.4952  1.7301
20659WAT     H284442   6.771   5.052   1.961  3.1393 -1.6671  0.5625
20659WAT    EPW84443   6.810   5.127   1.982  0.8781 -0.4373  0.6833
20660WAT      O84444  -7.772  10.001   7.343 -0.0671  0.3755  0.2416
20660WAT     H184445  -7.729   9.922   7.375  1.4350  1.2756  0.5210
20660WAT     H284446  -7.822  10.033   7.418  0.3513  0.3844  0.5189
20660WAT    EPW84447  -7.773   9.994   7.357  0.1864  0.4954  0.3150
20661WAT      O84448  -1.377   4.136   8.300 -0.1303  0.1158 -0.2755
20661WAT     H184449  -1.301   4.192   8.309 -0.0508 -0.1879  1.0895
20661WAT     H284450  -1.353   4.074   8.231  0.3296  0.8413 -0.7785
20661WAT    EPW84451  -1.364   4.135   8.292 -0.0592  0.1717 -0.1612
20662WAT      O84452  -0.678   3.206   6.641  0.0619 -0.1351  0.2096
20662WAT     H184453  -0.703   3.144   6.710 -1.3871  0.0622 -0.1120
20662WAT     H284454  -0.684   3.155   6.560 -0.3173  0.1962  0.0271
20662WAT    EPW84455  -0.682   3.191   6.639 -0.1792 -0.0653  0.1431
20663WAT      O84456  -7.575   8.497   7.644 -1.0193  0.2145  0.9535
20663WAT     H184457  -7.598   8.419   7.594 -1.7408 -0.0193  1.6188
20663WAT     H284458  -7.556   8.564   7.578 -3.4669  0.3768  0.2881
20663WAT    EPW84459  -7.576   8.496   7.629 -1.4372  0.2050  0.9537
20664WAT      O84460  -7.578   8.739   7.468  0.4481  0.1097  0.7275
20664WAT     H184461  -7.643   8.750   7.538  3.4646 -3.3511  4.5226
20664WAT     H284462  -7.505   8.795   7.495  1.2562 -0.4429 -0.2612
20664WAT    EPW84463  -7.577   8.748   7.481  0.9527 -0.4191  1.0974
20665WAT      O84464  -5.107   6.575   4.629  0.0970  0.1672  0.6739
20665WAT     H184465  -5.103   6.631   4.551 -0.3252  0.9465  1.1963
20665WAT     H284466  -5.024   6.528   4.629  0.4400  0.7515  0.1860
20665WAT    EPW84467  -5.096   6.576   4.619  0.0865  0.3469  0.6783
20666WAT      O84468   8.192   4.584   1.326  0.7802  0.5137  0.6459
20666WAT     H184469   8.109   4.582   1.373 -1.2297 -0.7289 -2.6188
20666WAT     H284470   8.194   4.670   1.283  0.2379 -0.1008 -0.6787
20666WAT    EPW84471   8.181   4.595   1.326  0.4435  0.2687  0.0406
20667WAT      O84472   1.680   3.609   5.817  0.5111 -0.1972  0.6582
20667WAT     H184473   1.767   3.615   5.776 -0.4326  1.3983 -1.3173
20667WAT     H284474   1.636   3.538   5.769  0.1226  0.2350  0.3674
20667WAT    EPW84475   1.686   3.600   5.805  0.3354  0.0702  0.3593
20668WAT      O84476   4.905   0.450   2.888  0.3095 -0.1817  0.4838
20668WAT     H184477   4.919   0.366   2.933  0.1532 -0.5568 -0.1593
20668WAT     H284478   4.822   0.482   2.923 -2.2122 -2.6367 -2.7240
20668WAT    EPW84479   4.896   0.443   2.899 -0.0439 -0.5550 -0.0242
20669WAT      O84480   2.968   2.810   1.375 -0.2118  0.1647  0.4952
20669WAT     H184481   3.021   2.741   1.335  0.3578  0.4357  0.7673
20669WAT     H284482   2.882   2.770   1.387 -0.5669  0.2415 -1.4742
20669WAT    EPW84483   2.964   2.796   1.371 -0.1836  0.2106  0.2713
20670WAT      O84484   3.170   1.187   8.941  0.5993 -0.0302  0.1472
20670WAT     H184485   3.216   1.260   8.898 -0.5217  0.5115 -0.1809
20670WAT     H284486   3.104   1.230   8.996 -0.9626 -0.8025 -1.0505
20670WAT    EPW84487   3.167   1.203   8.943  0.2453 -0.0606 -0.0539
20671WAT      O84488   0.843   0.779   7.179 -0.4038 -0.5624 -0.1458
20671WAT     H184489   0.754   0.765   7.210  0.1191 -1.6461  0.9671
20671WAT     H284490   0.897   0.729   7.240  0.9480 -0.0781 -0.9151
20671WAT    EPW84491   0.838   0.770   7.191 -0.1566 -0.6415 -0.1006
20672WAT      O84492  -0.928   7.479   2.097  0.0290 -0.5200  0.1006
20672WAT     H184493  -0.902   7.387   2.096  0.5978 -0.3887  1.1787
20672WAT     H284494  -0.945   7.501   2.006 -0.0137 -1.6664 -0.1748
20672WAT    EPW84495  -0.927   7.470   2.085  0.0984 -0.6540  0.2065
20673WAT      O84496   4.920   7.019   3.516 -0.0275 -0.1172 -0.0599
20673WAT     H184497   4.897   6.972   3.596  0.0028  0.9544  0.5938
20673WAT     H284498   4.947   7.106   3.546 -2.0961  1.0622 -1.3938
20673WAT    EPW84499   4.921   7.024   3.531 -0.2966  0.1798 -0.1496
20674WAT      O84500  -3.054   8.210   4.554  0.0863  0.3802  0.1173
20674WAT     H184501  -2.972   8.161   4.545 -1.6757 -2.9125  0.3457
20674WAT     H284502  -3.067   8.217   4.649  0.1095  0.9459  0.0808
20674WAT    EPW84503  -3.045   8.205   4.566 -0.1431  0.0210  0.1428
20675WAT      O84504   1.661   8.310   0.776  0.2092  0.1620 -1.2633
20675WAT     H184505   1.739   8.358   0.746  1.4476 -1.8977 -1.5263
20675WAT     H284506   1.671   8.222   0.740 -2.9779  0.1668 -2.4308
20675WAT    EPW84507   1.673   8.305   0.767 -0.0478 -0.1087 -1.4520
20676WAT      O84508  -0.321   3.122   3.144  0.4740 -0.0690  0.4714
20676WAT     H184509  -0.253   3.083   3.199 -1.4489 -2.2686  1.5011
20676WAT     H284510  -0.403   3.099   3.188 -1.0243  1.0587 -1.5434
20676WAT    EPW84511  -0.323   3.114   3.157  0.0228 -0.2103  0.3414
20677WAT      O84512  -6.911   7.075   8.746 -0.1132  0.0630  0.5827
20677WAT     H184513  -6.921   6.980   8.746 -0.9587  0.1387  1.1800
20677WAT     H284514  -6.929   7.102   8.836 -0.0384  0.8056  0.3884
20677WAT    EPW84515  -6.915   7.066   8.758 -0.2151  0.1709  0.6356
20678WAT      O84516   3.683   5.367   2.766 -0.2573  0.9430 -0.3917
20678WAT     H184517   3.685   5.402   2.677 -1.2771  3.6838  0.5672
20678WAT     H284518   3.708   5.275   2.756 -0.0473  1.2326 -3.4449
20678WAT    EPW84519   3.687   5.359   2.753 -0.3641  1.3425 -0.6679
20679WAT      O84520  -3.752   7.309   8.235 -0.2260  0.1522 -0.0900
20679WAT     H184521  -3.802   7.368   8.291 -0.4203  3.6675 -3.5261
20679WAT     H284522  -3.660   7.332   8.252 -0.2593  0.7650 -0.6973
20679WAT    EPW84523  -3.746   7.320   8.245 -0.2561  0.6967 -0.6232
20680WAT      O84524  -3.721   3.029   8.515  0.5840  0.2144  0.8275
20680WAT     H184525  -3.682   3.116   8.526  1.4112  0.0119 -0.3026
20680WAT     H284526  -3.705   3.007   8.423  0.4685 -1.1707  1.1116
20680WAT    EPW84527  -3.714   3.037   8.504  0.6778  0.0050  0.7162
20681WAT      O84528  -1.637   8.368   8.817  0.0428  0.1204  0.0984
20681WAT     H184529  -1.635   8.415   8.733  0.8989  0.5279  0.3402
20681WAT     H284530  -1.729   8.369   8.842 -0.0051  1.3960 -0.0584
20681WAT    EPW84531  -1.649   8.374   8.809  0.1494  0.3424  0.1097
20682WAT      O84532   6.790   7.355   0.782 -0.0392 -0.1652  0.8600
20682WAT     H184533   6.749   7.374   0.697  1.4759  2.3133  0.6027
20682WAT     H284534   6.760   7.425   0.839 -0.3220 -1.3176  2.1755
20682WAT    EPW84535   6.781   7.367   0.778  0.1233  0.0100  0.9996
20683WAT      O84536  -5.046   8.567   7.351 -0.3240  0.5413 -0.0848
20683WAT     H184537  -5.086   8.559   7.438 -0.3992  1.5135 -0.0152
20683WAT     H284538  -5.117   8.596   7.294 -0.0696  0.7980 -0.2765
20683WAT    EPW84539  -5.061   8.570   7.355 -0.3002  0.7029 -0.1009
20684WAT      O84540   5.976   3.377   0.558 -0.1386 -0.9512  0.6098
20684WAT     H184541   5.953   3.461   0.518  1.0699 -0.7304  0.3514
20684WAT     H284542   5.923   3.373   0.637 -0.9807 -0.4196  0.0918
20684WAT    EPW84543   5.966   3.388   0.563 -0.0904 -0.8520  0.5074
20685WAT      O84544   2.585   4.447   5.945 -0.0334  0.4123 -0.8878
20685WAT     H184545   2.666   4.424   5.899  1.6601  0.3834  1.8396
20685WAT     H284546   2.550   4.363   5.973  0.1229  0.5153 -0.3638
20685WAT    EPW84547   2.591   4.433   5.943  0.2105  0.4222 -0.4590
20686WAT      O84548  -3.640   7.839   4.614  0.4573  0.0699 -0.1142
20686WAT     H184549  -3.627   7.917   4.560 -1.7770 -0.2707 -1.2746
20686WAT     H284550  -3.583   7.773   4.575 -0.0572  0.2340 -1.1871
20686WAT    EPW84551  -3.631   7.841   4.602  0.0947  0.0465 -0.4086
20687WAT      O84552   1.809   9.954   5.067 -0.3443  0.1817  0.3739
20687WAT     H184553   1.858   9.928   5.145  0.2914  0.8050  0.1933
20687WAT     H284554   1.729   9.902   5.071  0.7488 -1.5815  0.1627
20687WAT    EPW84555   1.805   9.944   5.078 -0.1163  0.0315  0.3221
20688WAT      O84556  -1.419   2.975   2.333  0.7613 -0.0335 -0.6663
20688WAT     H184557  -1.449   3.039   2.397  0.7983 -0.5593 -0.1215
20688WAT     H284558  -1.404   3.026   2.253 -1.9218  0.2174 -1.0987
20688WAT    EPW84559  -1.421   2.990   2.331  0.4122 -0.0697 -0.6515
20689WAT      O84560   3.046   2.692   7.671  0.1515 -0.0104  0.9194
20689WAT     H184561   2.995   2.762   7.630  0.2439 -0.5472 -0.1548
20689WAT     H284562   3.126   2.736   7.701 -0.1630  0.5030  1.0167
20689WAT    EPW84563   3.050   2.707   7.669  0.1222 -0.0135  0.7906
20690WAT      O84564   2.248   5.080   7.581  0.3086  0.3319  0.1729
20690WAT     H184565   2.304   5.146   7.621  0.1694  0.6328 -0.1206
20690WAT     H284566   2.229   5.115   7.493 -0.9012  0.5817  0.5127
20690WAT    EPW84567   2.253   5.093   7.574  0.1307  0.4046  0.1788
20691WAT      O84568  -7.643  10.331   8.642 -0.3056  0.3965  0.6536
20691WAT     H184569  -7.733  10.298   8.642 -0.6180  1.1189 -0.7932
20691WAT     H284570  -7.596  10.274   8.702 -1.0450 -1.9627 -0.8632
20691WAT    EPW84571  -7.649  10.319   8.650 -0.4444  0.1807  0.2627
20692WAT      O84572  -1.303   4.210   3.822  0.4544  0.4516 -1.0497
20692WAT     H184573  -1.348   4.169   3.748  0.7173  0.3052 -1.1321
20692WAT     H284574  -1.222   4.244   3.785  0.2579  1.0118 -0.9706
20692WAT    EPW84575  -1.298   4.209   3.807  0.4632  0.5062 -1.0501
20693WAT      O84576   1.369   8.813   6.376  0.0256  0.0791  0.2504
20693WAT     H184577   1.421   8.782   6.450 -0.3037 -0.8235  0.1201
20693WAT     H284578   1.329   8.894   6.406 -0.1529 -0.3088  1.0914
20693WAT    EPW84579   1.371   8.819   6.390 -0.0414 -0.0911  0.3440
20694WAT      O84580  -3.862   4.019   4.285 -0.3150 -0.1970  0.6748
20694WAT     H184581  -3.888   4.073   4.211  1.6300 -1.0696 -0.7277
20694WAT     H284582  -3.777   3.983   4.260  1.3889  0.9996  4.1446
20694WAT    EPW84583  -3.854   4.022   4.272  0.1662 -0.1543  0.9475
20695WAT      O84584   0.860   4.372   5.321 -0.2534  0.4584 -0.1409
20695WAT     H184585   0.811   4.318   5.382  1.4425 -2.6671 -1.3009
20695WAT     H284586   0.881   4.451   5.370 -2.3353 -0.1431  1.9064
20695WAT    EPW84587   0.856   4.375   5.335 -0.3043 -0.0329 -0.0238
20696WAT      O84588  -3.837   8.705   6.351  0.0790 -0.1207 -0.4309
20696WAT     H184589  -3.850   8.685   6.259  2.4013 -1.0014 -0.6268
20696WAT     H284590  -3.804   8.624   6.389  0.3340  0.5743  0.9023
20696WAT    EPW84591  -3.834   8.692   6.344  0.4190 -0.1454 -0.2806
20697WAT      O84592  -1.424   8.486   5.070  0.4391  0.0955 -0.3438
20697WAT     H184593  -1.352   8.482   5.006 -0.8564  0.7605 -1.9139
20697WAT     H284594  -1.502   8.502   5.017 -0.6918  0.7475  1.4280
20697WAT    EPW84595  -1.425   8.488   5.055  0.1191  0.2689 -0.3171
20698WAT      O84596   1.177   5.164   8.647  0.3124 -0.1307  0.5840
20698WAT     H184597   1.159   5.070   8.642  0.9831 -0.2816  0.9752
20698WAT     H284598   1.136   5.201   8.568  1.0625 -0.9086 -0.1855
20698WAT    EPW84599   1.169   5.157   8.636  0.4998 -0.2532  0.5345
20699WAT      O84600  -0.362   7.361   4.974 -0.7959  0.1153  0.6538
20699WAT     H184601  -0.445   7.340   5.017 -0.1814  1.1201  2.4368
20699WAT     H284602  -0.360   7.456   4.970  0.1634  0.0997  0.4042
20699WAT    EPW84603  -0.373   7.371   4.979 -0.5883  0.2456  0.8559
20700WAT      O84604   0.529   1.293   2.589  0.9869 -0.2466  0.2295
20700WAT     H184605   0.603   1.326   2.537 -0.8693  0.7953 -1.9112
20700WAT     H284606   0.503   1.212   2.546  0.9721 -0.7150  1.0928
20700WAT    EPW84607   0.536   1.287   2.577  0.7401 -0.1709  0.0610
20701WAT      O84608   5.055   6.164   3.535 -0.3290 -0.1057 -0.2116
20701WAT     H184609   5.128   6.103   3.524 -0.9685 -0.5437 -2.4639
20701WAT     H284610   5.003   6.127   3.607  1.1313 -0.2707  0.8185
20701WAT    EPW84611   5.058   6.151   3.543 -0.2208 -0.1853 -0.3729
20702WAT      O84612   2.962   6.014   7.605  0.3971 -0.0423 -0.3558
20702WAT     H184613   2.983   5.924   7.631 -1.3136 -0.1449  0.8270
20702WAT     H284614   2.873   6.028   7.636  0.3507  1.8293 -1.1873
20702WAT    EPW84615   2.953   6.004   7.613  0.1652  0.1912 -0.3095
20703WAT      O84616  -2.966   8.597   8.762 -0.5675 -0.1920  0.8833
20703WAT     H184617  -2.965   8.653   8.685  1.4454 -0.4988  0.6211
20703WAT     H284618  -2.939   8.655   8.834 -2.5100  0.1133  1.4081
20703WAT    EPW84619  -2.962   8.612   8.761 -0.5583 -0.1917  0.9179
20704WAT      O84620  -0.196   6.297   5.167 -0.0910 -0.0962  0.1565
20704WAT     H184621  -0.104   6.322   5.174 -0.1602 -0.1496  1.3306
20704WAT     H284622  -0.214   6.249   5.247 -1.0656 -0.3669 -0.2135
20704WAT    EPW84623  -0.186   6.294   5.178 -0.2287 -0.1390  0.2627
20705WAT      O84624  -1.260   2.256   8.807 -0.5821 -0.7663  0.2818
20705WAT     H184625  -1.310   2.264   8.888 -0.8165 -0.7680  0.1396
20705WAT     H284626  -1.323   2.277   8.738 -0.5735 -1.4673  0.0525
20705WAT    EPW84627  -1.275   2.260   8.809 -0.6118 -0.8590  0.2332
20706WAT      O84628   3.984   4.304   1.865 -0.3340 -0.2265 -0.7702
20706WAT     H184629   4.032   4.369   1.917 -0.4044 -0.8371  0.0774
20706WAT     H284630   3.911   4.278   1.921  0.7830 -2.4831 -0.2346
20706WAT    EPW84631   3.981   4.309   1.879 -0.1960 -0.6046 -0.5878
20707WAT      O84632   4.460   5.123   1.447  0.0559 -0.2323 -0.0754
20707WAT     H184633   4.545   5.152   1.481  0.2388 -1.8112  0.9192
20707WAT     H284634   4.483   5.059   1.379 -0.3384 -0.3813 -0.0680
20707WAT    EPW84635   4.474   5.119   1.442  0.0279 -0.4604  0.0568
20708WAT      O84636  -5.883  10.200   4.782 -0.1156 -0.4905 -0.9216
20708WAT     H184637  -5.907  10.115   4.819  0.6653 -1.2702 -2.1315
20708WAT     H284638  -5.910  10.194   4.691 -0.9477  0.9468 -0.7861
20708WAT    EPW84639  -5.890  10.188   4.775 -0.1225 -0.4034 -1.0633
20709WAT      O84640  -1.276   4.644   1.729 -0.4572  0.3165 -0.5912
20709WAT     H184641  -1.230   4.561   1.717 -0.5005 -0.0677  1.4492
20709WAT     H284642  -1.360   4.633   1.684  0.1452 -0.1469 -1.6402
20709WAT    EPW84643  -1.281   4.632   1.722 -0.3834  0.2048 -0.4604
20710WAT      O84644   1.526   3.442   4.070 -0.4237  0.0394 -0.5116
20710WAT     H184645   1.603   3.488   4.037 -0.3812  2.4131  2.4090
20710WAT     H284646   1.457   3.460   4.006  0.8669 -0.2373 -2.0327
20710WAT    EPW84647   1.527   3.450   4.058 -0.2479  0.3160 -0.3271
20711WAT      O84648  -2.612   1.873   8.986  0.4092  0.0223  0.5171
20711WAT     H184649  -2.679   1.938   8.969  0.4655  0.0841  0.5299
20711WAT     H284650  -2.614   1.815   8.910  0.6943  0.3252  0.2716
20711WAT    EPW84651  -2.621   1.874   8.974  0.4542  0.0704  0.4864
20712WAT      O84652  -0.276   2.875   2.972 -0.1604  0.0199 -0.3997
20712WAT     H184653  -0.318   2.913   3.049 -1.0158  1.6074 -1.5848
20712WAT     H284654  -0.348   2.832   2.925  0.4628 -1.4658 -0.0289
20712WAT    EPW84655  -0.291   2.874   2.976 -0.1910  0.0333 -0.5071
20713WAT      O84656   1.160   1.423   1.117  0.1868  0.0264  0.1991
20713WAT     H184657   1.154   1.356   1.049 -0.3802  1.0272 -0.7888
20713WAT     H284658   1.187   1.376   1.195  2.5184 -0.9732 -1.0878
20713WAT    EPW84659   1.163   1.408   1.118  0.4196  0.0266 -0.1009
20714WAT      O84660   5.961   7.651   0.928 -0.4588  0.0566 -0.0409
20714WAT     H184661   5.906   7.681   1.000 -0.9893  0.8495 -0.7464
20714WAT     H284662   5.902   7.595   0.876 -0.6817  1.0632 -0.9052
20714WAT    EPW84663   5.946   7.647   0.930 -0.5581  0.2940 -0.2479
20715WAT      O84664   3.871   0.413   2.654  0.4693 -0.4359  0.5016
20715WAT     H184665   3.966   0.411   2.648  0.5293 -1.1263  1.3534
20715WAT     H284666   3.840   0.411   2.563  1.2603 -1.1435  0.2413
20715WAT    EPW84667   3.879   0.413   2.641  0.5816 -0.6203  0.5796
20716WAT      O84668   2.229   6.918   0.310  0.1512 -0.3234 -0.7788
20716WAT     H184669   2.294   6.850   0.328  1.2701  0.7529 -0.5271
20716WAT     H284670   2.278   6.984   0.260 -0.4695  0.9742  0.2672
20716WAT    EPW84671   2.244   6.918   0.306  0.2168 -0.0103 -0.6077
20717WAT      O84672  -3.702   9.784   4.745  0.3366 -0.4944  0.5150
20717WAT     H184673  -3.676   9.866   4.703 -0.3332  0.1133  1.2593
20717WAT     H284674  -3.685   9.717   4.679 -1.6830  0.5392 -1.1714
20717WAT    EPW84675  -3.696   9.786   4.731 -0.0181 -0.2780  0.3908
20718WAT      O84676  -2.316   2.393   4.109 -0.1735  0.0899  0.4372
20718WAT     H184677  -2.251   2.363   4.046  1.1108 -0.1848  1.8344
20718WAT     H284678  -2.264   2.427   4.182 -1.6075 -0.5633  1.7982
20718WAT    EPW84679  -2.301   2.394   4.110 -0.1932 -0.0324  0.8008
20719WAT      O84680  -4.706   4.603   8.460  0.7092 -0.4307  0.1492
20719WAT     H184681  -4.682   4.636   8.547  2.9005  1.4565 -1.0803
20719WAT     H284682  -4.630   4.553   8.431  0.2212 -0.5858 -0.9075
20719WAT    EPW84683  -4.693   4.601   8.468  0.9341 -0.2022 -0.1526
20720WAT      O84684   2.551   8.695   5.840 -0.0666  0.0509  0.2457
20720WAT     H184685   2.456   8.711   5.838 -0.0256  0.2691 -1.1010
20720WAT     H284686   2.564   8.622   5.779  0.7996  1.1408 -0.9369
20720WAT    EPW84687   2.540   8.687   5.831  0.0530  0.2236 -0.0880
20721WAT      O84688   5.954   0.758   5.057  0.4622 -0.4761  0.0375
20721WAT     H184689   6.010   0.747   4.981  0.4330  0.8773 -0.2160
20721WAT     H284690   5.956   0.853   5.074 -3.1937 -0.0143 -1.1511
20721WAT    EPW84691   5.962   0.769   5.049 -0.0241 -0.2367 -0.1528
20722WAT      O84692   2.048   3.813   6.792 -0.1524 -0.5504  0.1869
20722WAT     H184693   1.987   3.778   6.728 -1.3227  1.6412  0.0112
20722WAT     H284694   2.006   3.798   6.877  0.9007 -2.4772  0.4242
20722WAT    EPW84695   2.035   3.806   6.795 -0.1678 -0.5155  0.1950
20723WAT      O84696   1.689  10.226   8.728 -0.0119  0.4074 -0.4704
20723WAT     H184697   1.742  10.215   8.807 -0.8207 -0.2806 -0.0020
20723WAT     H284698   1.614  10.278   8.756 -1.1232 -1.1746 -0.3705
20723WAT    EPW84699   1.686  10.231   8.742 -0.2651  0.1078 -0.3958
20724WAT      O84700   5.998   4.166   4.602 -0.3682 -0.1975 -0.0961
20724WAT     H184701   5.915   4.133   4.635 -0.3681  0.9674  1.1619
20724WAT     H284702   6.064   4.128   4.661 -0.0431 -0.7435 -0.8000
20724WAT    EPW84703   5.996   4.157   4.614 -0.3254 -0.1159 -0.0231
20725WAT      O84704  -5.082   9.488   6.068  0.1296 -0.6602 -0.5853
20725WAT     H184705  -5.170   9.501   6.031  0.3904 -0.6000 -1.2028
20725WAT     H284706  -5.097   9.470   6.161 -0.2986  3.4193  0.2903
20725WAT    EPW84707  -5.096   9.487   6.075  0.1078 -0.1140 -0.5512
20726WAT      O84708  -0.723   9.833   4.982 -0.0915 -0.5147  0.2699
20726WAT     H184709  -0.785   9.827   4.909 -0.0900 -1.5685  0.3396
20726WAT     H284710  -0.672   9.911   4.963 -2.1744  1.0574  0.8069
20726WAT    EPW84711  -0.725   9.842   4.970 -0.3660 -0.4463  0.3500
20727WAT      O84712   1.210   0.652   3.886 -0.3720 -0.0593 -0.4030
20727WAT     H184713   1.180   0.741   3.870 -0.4007 -0.1759 -1.0385
20727WAT     H284714   1.278   0.638   3.820  0.8543  0.0762  0.7719
20727WAT    EPW84715   1.215   0.662   3.875 -0.2141 -0.0568 -0.3320
20728WAT      O84716   4.550  10.034   1.217  0.2475 -0.0282 -0.2149
20728WAT     H184717   4.610   9.978   1.265  0.5769 -0.4007 -1.0317
20728WAT     H284718   4.467   9.985   1.217  0.2588 -0.0467 -0.0612
20728WAT    EPW84719   4.547  10.020   1.223  0.2923 -0.0796 -0.3023
20729WAT      O84720   1.147   2.666   5.687 -0.0910  0.0140  0.6333
20729WAT     H184721   1.172   2.607   5.615  1.9086  1.8816 -0.3373
20729WAT     H284722   1.202   2.638   5.760 -1.6599 -1.4691  1.3211
20729WAT    EPW84723   1.157   2.654   5.687 -0.0342  0.0647  0.5960
20730WAT      O84724  -6.688   9.329   7.672 -0.2633  0.0540 -1.3024
20730WAT     H184725  -6.746   9.284   7.610  1.1661 -3.4535 -0.3423
20730WAT     H284726  -6.744   9.344   7.749 -0.6071 -0.8548 -1.3575
20730WAT    EPW84727  -6.703   9.325   7.674 -0.1202 -0.5283 -1.1828
20731WAT      O84728  -1.019   3.515   0.582 -0.8323 -0.0514 -0.0189
20731WAT     H184729  -1.056   3.533   0.668 -0.9082  2.1161 -0.4467
20731WAT     H284730  -1.027   3.420   0.572 -0.1657 -0.4613  2.6191
20731WAT    EPW84731  -1.025   3.504   0.592 -0.7544  0.1805  0.2727
20732WAT      O84732  -5.757   2.879   8.036  0.1376 -0.7965  0.2724
20732WAT     H184733  -5.714   2.940   8.095  0.5580 -0.2056 -0.6087
20732WAT     H284734  -5.844   2.866   8.073  0.8404 -1.5226  1.7478
20732WAT    EPW84735  -5.763   2.886   8.048  0.2856 -0.8143  0.3510
20733WAT      O84736   1.530   4.277   6.112 -0.2558  0.3327 -0.6411
20733WAT     H184737   1.536   4.287   6.017 -3.7066 -0.2240 -1.0758
20733WAT     H284738   1.483   4.356   6.141  3.4985  2.1275  1.2072
20733WAT    EPW84739   1.524   4.289   6.103 -0.2158  0.4959 -0.4547
20734WAT      O84740  -1.862   4.555   4.597  0.6585 -0.6484  0.6889
20734WAT     H184741  -1.895   4.552   4.686  1.1353 -0.6710  0.8667
20734WAT     H284742  -1.935   4.527   4.543  0.0750  0.2429  0.9963
20734WAT    EPW84743  -1.876   4.551   4.601  0.6444 -0.5338  0.7529
20735WAT      O84744   0.608   7.498   4.233 -0.5009 -0.2685  0.3476
20735WAT     H184745   0.596   7.451   4.151  1.0575  0.7427 -0.5059
20735WAT     H284746   0.605   7.430   4.300  3.2747 -1.9943 -0.9367
20735WAT    EPW84747   0.606   7.483   4.231  0.2026 -0.3629  0.0656
20736WAT      O84748  -3.081   6.926   6.702  0.8170 -0.1168 -0.6640
20736WAT     H184749  -3.028   7.003   6.722  0.5958 -0.2610  0.5626
20736WAT     H284750  -3.019   6.862   6.668  1.3749 -0.1054  0.2778
20736WAT    EPW84751  -3.066   6.927   6.700  0.8613 -0.1345 -0.3779
20737WAT      O84752  -1.577   7.384   0.138  0.6289 -0.8017  0.1380
20737WAT     H184753  -1.539   7.432   0.212  0.0300 -1.0304  0.6072
20737WAT     H284754  -1.667   7.365   0.166  0.5380 -1.2883 -0.4672
20737WAT    EPW84755  -1.584   7.388   0.151  0.5379 -0.8960  0.1201
20738WAT      O84756  -3.024   4.282   5.133 -0.4356 -0.0967 -0.3250
20738WAT     H184757  -3.070   4.256   5.213  0.6927 -0.3457  0.2713
20738WAT     H284758  -2.945   4.227   5.132  0.9681  1.8198 -0.1403
20738WAT    EPW84759  -3.020   4.271   5.143 -0.1017  0.1233 -0.2222
20739WAT      O84760  -0.522   5.936   5.097 -0.8452 -0.2824  0.3799
20739WAT     H184761  -0.543   6.024   5.129 -1.9283  0.4172 -1.9987
20739WAT     H284762  -0.431   5.943   5.067 -0.7474 -0.1377  0.7052
20739WAT    EPW84763  -0.512   5.949   5.097 -0.9752 -0.1712  0.1092
20740WAT      O84764   5.169   8.321   0.990  0.0754 -0.0818 -0.8509
20740WAT     H184765   5.097   8.348   0.933  1.1820 -0.5586 -2.5442
20740WAT     H284766   5.159   8.376   1.068 -1.4695  0.6336 -1.5075
20740WAT    EPW84767   5.158   8.332   0.993  0.0176 -0.0505 -1.1608
20741WAT      O84768   1.002   3.470   6.073 -0.0612  0.4344 -0.3936
20741WAT     H184769   0.942   3.434   6.008 -1.7549  0.0978  1.2538
20741WAT     H284770   1.010   3.563   6.050 -2.9532  0.9911  0.5144
20741WAT    EPW84771   0.995   3.478   6.061 -0.6661  0.4635 -0.0565
20742WAT      O84772   5.256   7.462   1.346  0.4553 -0.6023  0.2204
20742WAT     H184773   5.193   7.486   1.414  1.1395  0.7476  0.4177
20742WAT     H284774   5.222   7.381   1.308 -0.5848 -0.7046  1.3399
20742WAT    EPW84775   5.243   7.454   1.350  0.4084 -0.4377  0.3941
20743WAT      O84776  -0.258   3.372   6.882 -0.2189  0.1303  0.3978
20743WAT     H184777  -0.248   3.412   6.795 -1.9885  0.9708  0.5337
20743WAT     H284778  -0.169   3.344   6.905  0.1163 -1.2758 -2.1955
20743WAT    EPW84779  -0.245   3.374   6.873 -0.4081  0.0557  0.0737
20744WAT      O84780   6.088   5.546   0.009  0.1846 -0.8017 -0.2496
20744WAT     H184781   6.102   5.459   0.045  0.9306  0.8554  3.9887
20744WAT     H284782   5.995   5.547  -0.015  0.0680 -2.6128 -0.0328
20744WAT    EPW84783   6.077   5.534   0.010  0.2677 -0.8223  0.3380
20745WAT      O84784  -1.318   5.107   1.703 -0.3688 -0.3747 -0.0002
20745WAT     H184785  -1.253   5.040   1.722  0.2492  0.3293  0.4561
20745WAT     H284786  -1.324   5.109   1.608  0.4477 -0.2967 -0.0562
20745WAT    EPW84787  -1.310   5.099   1.693 -0.1796 -0.2713  0.0526
20746WAT      O84788   3.582   8.268   4.856  0.4024  0.2301  0.2139
20746WAT     H184789   3.612   8.212   4.784  0.0564 -0.3088  0.4835
20746WAT     H284790   3.554   8.349   4.813 -2.4732 -1.0785 -0.6539
20746WAT    EPW84791   3.582   8.271   4.841 -0.0225 -0.0134  0.1349
20747WAT      O84792  -0.695   5.162   3.865 -0.1799 -0.3386  0.2894
20747WAT     H184793  -0.783   5.193   3.845 -0.0062  0.2899  0.4781
20747WAT     H284794  -0.695   5.070   3.837 -0.8556 -0.3123  0.1843
20747WAT    EPW84795  -0.707   5.154   3.859 -0.2461 -0.2525  0.3005
20748WAT      O84796   7.589   2.316   1.306 -0.8432 -0.5159  0.1145
20748WAT     H184797   7.518   2.253   1.304 -1.1074 -0.2541  0.7855
20748WAT     H284798   7.669   2.264   1.313 -0.8369 -0.8733 -2.0496
20748WAT    EPW84799   7.590   2.301   1.306 -0.8771 -0.5286 -0.0824
20749WAT      O84800  -5.671   9.633   8.276 -0.4205  0.4093 -0.2120
20749WAT     H184801  -5.582   9.661   8.255 -0.9914  2.2888 -0.3616
20749WAT     H284802  -5.683   9.662   8.367  0.2517 -2.9710  1.0961
20749WAT    EPW84803  -5.661   9.640   8.285 -0.4072  0.2117 -0.0596
20750WAT      O84804  -2.490   8.285   2.294 -0.0121 -0.4292  0.3105
20750WAT     H184805  -2.540   8.228   2.353 -0.4185  0.4253  0.8114
20750WAT     H284806  -2.556   8.322   2.235  0.2159 -0.3281  0.1201
20750WAT    EPW84807  -2.506   8.282   2.294 -0.0356 -0.3028  0.3514
20751WAT      O84808  -7.987   9.360   8.579  0.9377  0.2150  0.2411
20751WAT     H184809  -8.067   9.347   8.529  0.4521 -0.8950  1.2743
20751WAT     H284810  -7.973   9.278   8.626  1.1936  1.2935  2.1849
20751WAT    EPW84811  -7.995   9.348   8.579  0.9074  0.2108  0.6337
20752WAT      O84812   2.270   2.966   0.034  0.5193  0.4704 -0.2390
20752WAT     H184813   2.323   2.922  -0.033 -0.8016  1.3550 -1.9525
20752WAT     H284814   2.285   3.060   0.019 -0.7765  0.7148 -0.1855
20752WAT    EPW84815   2.279   2.973   0.023  0.1742  0.6193 -0.4580
20753WAT      O84816  -0.438   9.294   7.457  0.7766  0.2695  0.5052
20753WAT     H184817  -0.497   9.227   7.422  1.3202 -0.6834  1.3704
20753WAT     H284818  -0.400   9.335   7.379 -0.0200 -0.0144 -0.0409
20753WAT    EPW84819  -0.441   9.290   7.442  0.7433  0.1063  0.5472
20754WAT      O84820   5.574   1.605   6.106 -0.1612  0.3360 -0.1494
20754WAT     H184821   5.504   1.642   6.160  0.5144  0.0645  0.9209
20754WAT     H284822   5.655   1.633   6.149  0.3765 -0.8031 -0.3952
20754WAT    EPW84823   5.575   1.614   6.119 -0.0012  0.1500 -0.0408
20755WAT      O84824  -5.294   9.863   4.214 -0.2483 -0.5019  0.1053
20755WAT     H184825  -5.301   9.949   4.171  1.5297 -0.1213  0.5158
20755WAT     H284826  -5.297   9.882   4.307  0.8562 -0.8050  0.2105
20755WAT    EPW84827  -5.295   9.877   4.220  0.1318 -0.4911  0.1733
20756WAT      O84828   8.073   6.263   1.185  0.1301  0.3286  0.3845
20756WAT     H184829   7.977   6.264   1.188 -0.1646 -1.1779 -3.4736
20756WAT     H284830   8.094   6.248   1.093  4.1275  0.9313  1.0377
20756WAT    EPW84831   8.063   6.261   1.174  0.6180  0.2093 -0.0382
20757WAT      O84832  -4.508   9.190   5.535  0.0360  0.3199  0.3575
20757WAT     H184833  -4.467   9.136   5.467  1.3456  1.6834  0.0228
20757WAT     H284834  -4.445   9.260   5.552 -1.6669  1.8606  0.6524
20757WAT    EPW84835  -4.495   9.192   5.528 -0.0160  0.7029  0.3521
20758WAT      O84836  -1.487   7.982   8.075  0.2358  0.4199 -0.2079
20758WAT     H184837  -1.519   7.900   8.038 -0.1869 -0.6439  2.3110
20758WAT     H284838  -1.424   8.015   8.010  0.8994 -2.2007 -1.0015
20758WAT    EPW84839  -1.483   7.976   8.061  0.2676 -0.0660  0.0196
20759WAT      O84840   6.630   0.697   2.187 -0.6554  0.7149 -0.2923
20759WAT     H184841   6.563   0.734   2.245  0.4395 -0.5795  1.8864
20759WAT     H284842   6.697   0.765   2.183  0.3685 -0.0650  1.9898
20759WAT    EPW84843   6.630   0.711   2.194 -0.3762  0.4413  0.2960
20760WAT      O84844  -1.010   9.310   3.566 -0.0562 -0.2529  0.3343
20760WAT     H184845  -1.087   9.285   3.515 -0.9181  0.4591  1.2481
20760WAT     H284846  -0.967   9.226   3.585 -0.8433 -0.7017  0.1873
20760WAT    EPW84847  -1.014   9.295   3.562 -0.2737 -0.2179  0.4354
20761WAT      O84848  -1.283   2.189   3.381 -0.3933 -0.2108 -0.2695
20761WAT     H184849  -1.206   2.207   3.436  2.4158 -2.4932 -3.0765
20761WAT     H284850  -1.332   2.123   3.430 -0.7438  1.3627  1.6336
20761WAT    EPW84851  -1.279   2.183   3.394 -0.0690 -0.3042 -0.3889
20762WAT      O84852   3.447   4.367   3.428  0.5558 -0.1554  0.0653
20762WAT     H184853   3.534   4.371   3.389  0.1841  0.2958 -0.7561
20762WAT     H284854   3.388   4.385   3.355 -0.2367 -0.6534  0.5688
20762WAT    EPW84855   3.450   4.370   3.413  0.4022 -0.1614  0.0234
20763WAT      O84856  -1.228   3.610   5.359  0.0258  0.0406 -0.0871
20763WAT     H184857  -1.294   3.663   5.403  0.1212 -0.4384  0.6400
20763WAT     H284858  -1.145   3.638   5.398  0.0586 -0.7775  0.4563
20763WAT    EPW84859  -1.226   3.621   5.370  0.0427 -0.1304  0.0803
20764WAT      O84860   2.049  10.076   8.714  0.4717 -0.3812 -0.0071
20764WAT     H184861   2.096  10.108   8.638  0.0378 -1.9202 -0.9659
20764WAT     H284862   2.112  10.083   8.786  0.4589  2.3628 -0.1433
20764WAT    EPW84863   2.063  10.081   8.714  0.4128 -0.2222 -0.1516
20765WAT      O84864  -5.598   2.745   7.638  0.2951 -0.1616 -0.0910
20765WAT     H184865  -5.623   2.696   7.559 -3.6792  0.2784  0.6824
20765WAT     H284866  -5.550   2.681   7.691 -0.7402 -1.8208 -1.0516
20765WAT    EPW84867  -5.595   2.730   7.635 -0.3655 -0.3225 -0.1156
20766WAT      O84868   6.219   3.701   1.879 -0.2625 -0.2825 -0.7130
20766WAT     H184869   6.235   3.669   1.968  0.7868 -2.4517 -1.6089
20766WAT     H284870   6.131   3.672   1.858  0.7236 -2.9563 -1.5654
20766WAT    EPW84871   6.210   3.693   1.888  0.0060 -0.9212 -0.9436
20767WAT      O84872  -0.840   0.202   4.664 -0.4520 -0.0188  0.1230
20767WAT     H184873  -0.856   0.136   4.596  1.5086 -1.4247  0.8988
20767WAT     H284874  -0.846   0.152   4.746 -0.8417  1.2226  0.8681
20767WAT    EPW84875  -0.843   0.186   4.666 -0.2448 -0.0405  0.3235
20768WAT      O84876   1.797   4.401   7.948  0.7550  0.4272 -0.3854
20768WAT     H184877   1.881   4.428   7.911  0.7365 -0.5277 -1.1832
20768WAT     H284878   1.796   4.306   7.935  1.1015 -0.1055  2.8164
20768WAT    EPW84879   1.808   4.392   7.941  0.7982  0.2310 -0.0684
20769WAT      O84880  -1.037   5.462   5.054 -0.4359 -0.3412  0.0281
20769WAT     H184881  -1.064   5.540   5.102  2.6712 -0.0039  1.4533
20769WAT     H284882  -1.003   5.496   4.971 -1.4101 -0.4842 -0.4513
20769WAT    EPW84883  -1.036   5.477   5.049 -0.1546 -0.3154  0.1528
20770WAT      O84884   0.076   4.540   8.922  0.2611  0.8582 -0.4876
20770WAT     H184885   0.022   4.551   8.844 -2.0786 -0.7266  0.7787
20770WAT     H284886   0.138   4.471   8.899 -1.3484 -0.6352 -0.6025
20770WAT    EPW84887   0.077   4.532   8.909 -0.2598  0.4520 -0.3357
20771WAT      O84888   5.608   4.510   3.219 -0.1707 -0.1795  0.7507
20771WAT     H184889   5.666   4.551   3.283 -0.8991  0.1203  1.2264
20771WAT     H284890   5.567   4.438   3.267 -1.5460  0.7131  0.9770
20771WAT    EPW84891   5.610   4.506   3.234 -0.4480 -0.0222  0.8434
20772WAT      O84892   6.027   3.577   0.861 -0.0524  0.1742 -0.3918
20772WAT     H184893   6.040   3.519   0.936  1.4398  1.1536  0.1592
20772WAT     H284894   5.956   3.537   0.811  1.3371 -2.4995 -0.4115
20772WAT    EPW84895   6.019   3.564   0.864  0.3278 -0.0492 -0.3217
20773WAT      O84896   5.359   6.430   3.953  0.2393  0.1721 -0.3557
20773WAT     H184897   5.434   6.486   3.933  1.2606 -0.6596  0.9654
20773WAT     H284898   5.386   6.379   4.029 -0.2534 -2.7959 -1.9713
20773WAT    EPW84899   5.372   6.430   3.960  0.3090 -0.3288 -0.3946
20774WAT      O84900  -2.718   4.565   4.400 -0.2523  0.3240 -0.4296
20774WAT     H184901  -2.685   4.540   4.313  0.3437  0.5466 -0.2724
20774WAT     H284902  -2.748   4.655   4.389 -1.0558  0.0409 -0.6345
20774WAT    EPW84903  -2.718   4.573   4.387 -0.2795  0.3159 -0.4358
20775WAT      O84904   6.601   5.746   3.320 -0.0956  0.0408 -0.1762
20775WAT     H184905   6.598   5.837   3.346  0.2938  0.8567 -2.6876
20775WAT     H284906   6.683   5.713   3.357  0.3245  1.0389 -0.1846
20775WAT    EPW84907   6.611   5.753   3.328  0.0114  0.2801 -0.5085
20776WAT      O84908  -2.849   8.106   2.470  0.4334  0.0018  0.7025
20776WAT     H184909  -2.909   8.044   2.510 -0.4324  1.4222  1.6987
20776WAT     H284910  -2.904   8.181   2.445  1.7145  1.2855  1.5327
20776WAT    EPW84911  -2.864   8.108   2.472  0.4882  0.3581  0.9433
20777WAT      O84912   2.941   4.754   6.173  0.5514  0.3694  0.3312
20777WAT     H184913   2.943   4.847   6.194 -0.2600  0.0214  2.0670
20777WAT     H284914   2.852   4.739   6.140  0.8363  0.2908 -0.4204
20777WAT    EPW84915   2.929   4.764   6.171  0.4821  0.3133  0.4611
20778WAT      O84916  -3.822   1.763   8.476 -0.1964 -0.2578  0.2911
20778WAT     H184917  -3.847   1.853   8.456 -2.2096 -0.9781 -0.8054
20778WAT     H284918  -3.860   1.746   8.562  1.1501  0.2433  1.0131
20778WAT    EPW84919  -3.830   1.772   8.484 -0.2844 -0.2867  0.2422
20779WAT      O84920   6.095   7.696   3.409 -0.9929 -0.0674 -0.8064
20779WAT     H184921   6.184   7.676   3.438 -0.8547  1.4793 -0.0579
20779WAT     H284922   6.048   7.613   3.417  0.2919 -0.8441 -0.9345
20779WAT    EPW84923   6.101   7.683   3.414 -0.8054  0.0339 -0.7246
20780WAT      O84924   2.354   5.059   3.436  0.5811 -0.5057 -0.1201
20780WAT     H184925   2.442   5.022   3.438  1.0554  0.5925  1.0388
20780WAT     H284926   2.356   5.122   3.365  0.6667 -0.6231 -0.2228
20780WAT    EPW84927   2.366   5.062   3.427  0.6549 -0.3762  0.0191
20781WAT      O84928   5.097   7.147   2.951  0.5149  0.3443 -0.3333
20781WAT     H184929   5.074   7.227   2.999  1.3190  0.1575  0.3951
20781WAT     H284930   5.063   7.076   3.006 -0.4368  0.1788 -1.1103
20781WAT    EPW84931   5.090   7.148   2.965  0.4954  0.2978 -0.3397
20782WAT      O84932   2.977   3.892   2.825 -0.2281 -0.5178  0.0418
20782WAT     H184933   2.965   3.926   2.737 -1.0823 -2.9849 -0.8839
20782WAT     H284934   2.901   3.924   2.874  0.7891  1.7389  0.2435
20782WAT    EPW84935   2.966   3.901   2.820 -0.2066 -0.5455 -0.0538
20783WAT      O84936   4.322   7.918   0.490 -0.4479  0.3733  0.4017
20783WAT     H184937   4.349   8.005   0.461  1.7858 -0.1797  0.6516
20783WAT     H284938   4.260   7.936   0.561 -1.8646  1.7100 -1.0697
20783WAT    EPW84939   4.317   7.932   0.496 -0.3402  0.4766  0.2405
20784WAT      O84940   2.166   7.257   6.149  0.2782  0.0391 -0.8446
20784WAT     H184941   2.165   7.292   6.238 -1.7810 -0.7044 -0.5313
20784WAT     H284942   2.134   7.328   6.095  1.0761  0.3306 -0.9524
20784WAT    EPW84943   2.162   7.271   6.154  0.1118 -0.0205 -0.8175
20785WAT      O84944   3.893   7.811   5.090  0.2121 -0.3322 -0.2771
20785WAT     H184945   3.816   7.810   5.146  0.5900 -2.3260  0.2765
20785WAT     H284946   3.887   7.894   5.042 -1.7337  0.0014  0.4700
20785WAT    EPW84947   3.882   7.822   5.091  0.0052 -0.5510 -0.1054
20786WAT      O84948  -8.267   8.585   8.779  0.1980  0.0998 -0.8290
20786WAT     H184949  -8.324   8.568   8.704 -1.5897 -2.9904  1.0252
20786WAT     H284950  -8.199   8.518   8.773  1.1199  0.9904 -0.6335
20786WAT    EPW84951  -8.266   8.574   8.768  0.0839 -0.1898 -0.5589
20787WAT      O84952   4.080   1.167   3.232  0.0376  0.6200 -0.0857
20787WAT     H184953   4.077   1.262   3.225 -0.3500  0.5574 -0.9706
20787WAT     H284954   4.006   1.144   3.287 -0.2340  0.7924 -0.3795
20787WAT    EPW84955   4.070   1.177   3.238 -0.0494  0.6346 -0.2410
20788WAT      O84956   4.753   8.379   2.396  0.5643 -0.3759 -0.2924
20788WAT     H184957   4.794   8.460   2.368  0.3586 -0.1815 -0.0391
20788WAT     H284958   4.700   8.404   2.472 -2.4193  0.0456 -2.3198
20788WAT    EPW84959   4.751   8.393   2.402  0.1435 -0.2947 -0.5263
20789WAT      O84960   1.039   6.146   8.366 -0.4636 -0.1624  0.6205
20789WAT     H184961   1.091   6.138   8.286  1.4131  0.4044  1.7415
20789WAT     H284962   0.987   6.225   8.353  1.7899  1.4656  0.9748
20789WAT    EPW84963   1.039   6.155   8.354  0.0811  0.1271  0.8149
20790WAT      O84964  -1.775   8.728   1.242  0.3749  0.0167  0.2233
20790WAT     H184965  -1.823   8.785   1.182  1.1048 -0.7619 -1.1596
20790WAT     H284966  -1.839   8.704   1.308 -0.2180  1.6207  0.2921
20790WAT    EPW84967  -1.790   8.733   1.243  0.3930  0.1259  0.0499
20791WAT      O84968   1.164   9.080   2.513  0.4427  0.3195 -0.2736
20791WAT     H184969   1.259   9.071   2.500  0.6087 -3.5408  2.0871
20791WAT     H284970   1.153   9.082   2.608 -1.8849 -3.5381 -0.2416
20791WAT    EPW84971   1.175   9.079   2.524  0.1576 -0.6986  0.0420
20792WAT      O84972   1.615   9.781   5.107 -0.1347 -0.2759  0.1860
20792WAT     H184973   1.598   9.727   5.030  0.6513 -0.6997  0.2933
20792WAT     H284974   1.685   9.735   5.153  1.4142  1.4223 -0.3407
20792WAT    EPW84975   1.622   9.768   5.103  0.1733 -0.1078  0.1307
20793WAT      O84976   6.020   0.425   5.324 -0.2608 -0.1846 -0.8626
20793WAT     H184977   6.025   0.514   5.360  0.8054 -1.0171  1.1773
20793WAT     H284978   5.926   0.404   5.327 -0.3977  0.4671 -0.3035
20793WAT    EPW84979   6.008   0.434   5.329 -0.1380 -0.2084 -0.5198
20794WAT      O84980  -4.952   3.306   8.072  0.2336 -0.1284  0.4164
20794WAT     H184981  -4.902   3.248   8.014  3.9357  1.8060  1.4002
20794WAT     H284982  -5.043   3.291   8.047  1.4185 -1.2987 -4.0931
20794WAT    EPW84983  -4.958   3.297   8.061  0.8781 -0.0278 -0.0486
20795WAT      O84984  -0.219   6.937   8.716 -0.3736  0.4865 -0.0688
20795WAT     H184985  -0.248   6.858   8.761  3.4796 -0.8611  0.4673
20795WAT     H284986  -0.214   7.003   8.785  2.0103 -0.5616  0.8638
20795WAT    EPW84987  -0.222   6.935   8.731  0.4490  0.1702  0.1254
20796WAT      O84988  -2.449   7.706   0.646 -0.4136  0.5222 -0.3268
20796WAT     H184989  -2.452   7.613   0.625  2.9054 -0.2078  1.7426
20796WAT     H284990  -2.528   7.721   0.699 -0.0269 -1.6210  0.9529
20796WAT    EPW84991  -2.460   7.696   0.651  0.0751  0.1433  0.1149
20797WAT      O84992   5.775   0.239   5.042 -0.5405 -0.2721 -0.0514
20797WAT     H184993   5.691   0.278   5.065 -0.5020 -1.8810  3.4349
20797WAT     H284994   5.836   0.313   5.044 -1.2197  0.2934  1.6030
20797WAT    EPW84995   5.772   0.254   5.045 -0.6251 -0.4097  0.6266
20798WAT      O84996  -0.336  10.285   3.884  0.3478  0.3862  0.2944
20798WAT     H184997  -0.327  10.329   3.969 -0.3406 -0.5749  0.8829
20798WAT     H284998  -0.267  10.219   3.883 -0.9007 -0.9725  0.9982
20798WAT    EPW84999  -0.326  10.282   3.895  0.0923  0.0801  0.4649
20799WAT      O85000   1.838   1.735   3.753 -0.2567  0.0059 -0.0151
20799WAT     H185001   1.797   1.649   3.764 -0.4831 -0.0100 -0.9149
20799WAT     H285002   1.765   1.796   3.752 -0.0651  0.2596  1.0583
20799WAT    EPW85003   1.823   1.732   3.754 -0.2613  0.0373  0.0079
20800WAT      O85004  -3.383   5.062   4.546 -0.7980  0.1271 -1.3346
20800WAT     H185005  -3.336   5.110   4.615  0.3191 -0.6953 -1.4860
20800WAT     H285006  -3.413   5.130   4.486 -1.9541  0.8798  0.0377
20800WAT    EPW85007  -3.381   5.078   4.547 -0.8031  0.1178 -1.1735
20801WAT      O85008  -1.611  10.006   6.967  0.5408 -0.2172 -0.0535
20801WAT     H185009  -1.517  10.007   6.952  0.3299 -1.2156 -1.8351
20801WAT     H285010  -1.627   9.928   7.020  0.8657  0.9345  1.7998
20801WAT    EPW85011  -1.601   9.996   6.972  0.5558 -0.1969 -0.0441
20802WAT      O85012   0.141   8.485   4.145  0.7986 -0.2495  0.0928
20802WAT     H185013   0.056   8.449   4.119  1.3428 -1.0077 -0.6814
20802WAT     H285014   0.120   8.571   4.180 -0.1163  0.3361 -1.7483
20802WAT    EPW85015   0.127   8.492   4.146  0.7497 -0.2723 -0.2522
20803WAT      O85016  -1.285   3.175   0.972  0.2145 -0.1128 -0.1059
20803WAT     H185017  -1.306   3.189   0.880  2.3011 -2.6994 -1.1104
20803WAT     H285018  -1.191   3.195   0.978  0.5673 -1.8378  0.9464
20803WAT    EPW85019  -1.275   3.180   0.960  0.5362 -0.6814 -0.0996
20804WAT      O85020   2.321   5.202   5.780 -0.1291  0.5147 -0.9597
20804WAT     H185021   2.275   5.281   5.808 -0.0813  0.6125 -1.1548
20804WAT     H285022   2.369   5.229   5.702  0.3661  0.4487 -0.6823
20804WAT    EPW85023   2.322   5.216   5.773 -0.0575  0.5186 -0.9489
20805WAT      O85024   3.642   1.060   5.708  0.2078  0.2597 -0.3779
20805WAT     H185025   3.721   1.007   5.719 -0.8927 -1.3134  0.3616
20805WAT     H285026   3.577   1.000   5.673 -0.7488  1.4589 -0.7325
20805WAT    EPW85027   3.644   1.045   5.705 -0.0635  0.2104 -0.3271
20806WAT      O85028   5.165   7.956   3.381  0.2072  0.3319 -0.2788
20806WAT     H185029   5.251   7.917   3.398 -0.5859 -1.0034  0.9118
20806WAT     H285030   5.105   7.881   3.377 -1.0818  1.3079  0.0299
20806WAT    EPW85031   5.168   7.941   3.382 -0.0672  0.2844 -0.0811
20807WAT      O85032  -2.121   6.656   4.881 -0.4723 -0.2173  0.5808
20807WAT     H185033  -2.040   6.677   4.928  0.4804 -0.3969 -0.9401
20807WAT     H285034  -2.092   6.622   4.796 -2.1516  0.0344 -0.1289
20807WAT    EPW85035  -2.107   6.654   4.876 -0.5682 -0.2077  0.2866
20808WAT      O85036   2.992   1.938   7.356  0.3404 -0.0730  0.5866
20808WAT     H185037   2.998   1.901   7.268  3.8562 -2.1622  1.5086
20808WAT     H285038   3.050   1.883   7.409  1.4509  3.4291  3.3922
20808WAT    EPW85039   3.001   1.926   7.352  0.9507  0.1134  1.0784
20809WAT      O85040   0.005   1.795   1.481 -0.4259 -0.0108 -0.2649
20809WAT     H185041  -0.070   1.841   1.518 -0.7009 -0.7340  0.0948
20809WAT     H285042   0.008   1.822   1.390  0.9235  2.7115  0.4698
20809WAT    EPW85043  -0.004   1.805   1.474 -0.2842  0.2528 -0.1206
20810WAT      O85044  -3.624   5.777   4.385 -0.4291 -0.2629 -0.2518
20810WAT     H185045  -3.671   5.779   4.468  0.4421  0.2205  0.2392
20810WAT     H285046  -3.671   5.840   4.330  0.1159  0.8358  0.5101
20810WAT    EPW85047  -3.637   5.786   4.389 -0.2424 -0.0544 -0.0863
20811WAT      O85048  -2.198   2.661   2.668  0.2391  0.5773  0.0192
20811WAT     H185049  -2.140   2.716   2.721 -0.2912  1.6046 -0.4490
20811WAT     H285050  -2.267   2.720   2.639  0.4899  0.0295 -1.7925
20811WAT    EPW85051  -2.200   2.676   2.671  0.2023  0.6405 -0.2815
20812WAT      O85052  -1.841   3.441   6.104 -0.3003  0.1064 -0.2837
20812WAT     H185053  -1.808   3.521   6.146 -0.7744  0.2709 -0.2199
20812WAT     H285054  -1.930   3.464   6.077  0.5020  0.5414 -2.7988
20812WAT    EPW85055  -1.848   3.455   6.106 -0.2570  0.1854 -0.6070
20813WAT      O85056  -2.551   4.966   8.614 -0.0372  0.4911 -0.2741
20813WAT     H185057  -2.572   4.883   8.570  0.1473 -0.0550  0.6455
20813WAT     H285058  -2.491   4.941   8.684 -1.4466  1.1330  1.2219
20813WAT    EPW85059  -2.546   4.952   8.617 -0.1987  0.5038  0.0443
20814WAT      O85060   6.892   0.238   2.123 -0.0551 -0.1368 -0.2133
20814WAT     H185061   6.848   0.322   2.134 -0.3344 -0.3222  0.1015
20814WAT     H285062   6.974   0.247   2.172 -0.6640 -0.4794  0.8981
20814WAT    EPW85063   6.897   0.250   2.131 -0.1724 -0.2065 -0.0253
20815WAT      O85064  -2.422   9.317   5.906 -0.2525 -0.7339 -0.5857
20815WAT     H185065  -2.471   9.283   5.980 -0.9727 -0.8950 -1.1239
20815WAT     H285066  -2.458   9.404   5.890 -0.0097 -0.6465 -0.6605
20815WAT    EPW85067  -2.433   9.324   5.913 -0.3154 -0.7434 -0.6666
20816WAT      O85068   5.090   6.892   0.504  0.0976 -0.2042  0.1626
20816WAT     H185069   5.061   6.934   0.585  1.1858 -0.7442  0.8723
20816WAT     H285070   5.180   6.925   0.492  0.7221 -1.7484  0.3655
20816WAT    EPW85071   5.098   6.902   0.513  0.3238 -0.4792  0.2830
20817WAT      O85072   1.035   2.384   5.554  0.3765  0.2312 -0.1231
20817WAT     H185073   1.128   2.360   5.551  0.4895  0.6677 -0.1244
20817WAT     H285074   1.019   2.407   5.646  0.0505 -0.6910  0.0667
20817WAT    EPW85075   1.045   2.384   5.566  0.3484  0.1671 -0.0982
20818WAT      O85076   3.121   0.772   5.900 -0.0260 -0.7701  0.5044
20818WAT     H185077   3.137   0.848   5.956  2.1642 -0.1104 -0.8710
20818WAT     H285078   3.056   0.802   5.836  0.1807 -0.3226  0.5002
20818WAT    EPW85079   3.115   0.786   5.899  0.2902 -0.6241  0.3226
20819WAT      O85080  -3.014   9.045   1.074  0.0197 -0.4097  0.8572
20819WAT     H185081  -2.936   9.028   1.022  0.3999 -0.9388  1.5746
20819WAT     H285082  -3.003   9.134   1.106 -0.4731  0.1189 -0.3710
20819WAT    EPW85083  -3.002   9.054   1.072  0.0049 -0.4101  0.7899
20820WAT      O85084  -0.050   1.629   7.192  0.2660 -0.3640 -0.3762
20820WAT     H185085  -0.116   1.609   7.258  1.4356 -1.2785  0.5629
20820WAT     H285086  -0.079   1.581   7.114 -1.1811  0.8088 -0.5908
20820WAT    EPW85087  -0.062   1.620   7.190  0.2294 -0.3300 -0.2806
20821WAT      O85088  -5.272   8.823   5.214  0.1118 -0.2332  0.3570
20821WAT     H185089  -5.221   8.844   5.292  0.5022 -3.1504  1.0000
20821WAT     H285090  -5.297   8.732   5.225 -2.6677  0.1995 -1.4272
20821WAT    EPW85091  -5.269   8.814   5.226 -0.2034 -0.5608  0.2062
20822WAT      O85092   3.144   5.185   1.462  0.2497  0.6645  0.1128
20822WAT     H185093   3.123   5.119   1.396  2.9766  0.1306 -0.3230
20822WAT     H285094   3.239   5.180   1.473  0.2423  2.7303  1.9999
20822WAT    EPW85095   3.153   5.176   1.455  0.6084  0.8664  0.3042
20823WAT      O85096  -0.256   2.970   5.716  0.4692  0.1311  1.0728
20823WAT     H185097  -0.293   2.946   5.631  2.6590 -0.9184  0.3451
20823WAT     H285098  -0.297   2.911   5.778 -1.4566  1.1678  0.8762
20823WAT    EPW85099  -0.266   2.959   5.713  0.5040  0.1295  0.9508
20824WAT      O85100   1.802   3.371   1.313 -0.1481 -0.0646  0.0210
20824WAT     H185101   1.774   3.428   1.385 -0.5411 -0.1673 -0.0508
20824WAT     H285102   1.800   3.283   1.349 -3.4052 -0.5374 -0.9474
20824WAT    EPW85103   1.798   3.367   1.327 -0.6295 -0.1405 -0.1162
20825WAT      O85104   8.623   0.998   0.919 -0.1996  0.1907  0.3559
20825WAT     H185105   8.717   0.993   0.906 -0.2530 -0.9465  0.2777
20825WAT     H285106   8.606   1.090   0.940  0.7264  0.7364 -1.1479
20825WAT    EPW85107   8.633   1.010   0.920 -0.0844  0.1127  0.1473
20826WAT      O85108  -4.302  10.088   1.829 -0.7378  1.0530  0.2925
20826WAT     H185109  -4.221  10.104   1.878 -2.2266  0.5037  3.2155
20826WAT     H285110  -4.337  10.176   1.813  1.0899  1.3795 -2.3965
20826WAT    EPW85111  -4.296  10.102   1.834 -0.6933  1.0238  0.3233
20827WAT      O85112   4.840   2.398   2.563 -0.6928 -0.0402 -0.2240
20827WAT     H185113   4.782   2.365   2.632  3.0585 -3.7293  1.6768
20827WAT     H285114   4.785   2.406   2.486 -3.9345 -2.0752  1.6481
20827WAT    EPW85115   4.825   2.394   2.562 -0.6256 -0.7951  0.2737
20828WAT      O85116  -0.322   4.919   3.462  0.0695 -0.0172 -0.1250
20828WAT     H185117  -0.407   4.963   3.467  0.1864  0.1370  0.7061
20828WAT     H285118  -0.262   4.987   3.432 -0.3696 -0.5394 -2.3069
20828WAT    EPW85119  -0.325   4.934   3.459  0.0270 -0.0658 -0.3033
20829WAT      O85120   5.204   1.530   3.712 -1.3306 -0.6256  0.1153
20829WAT     H185121   5.230   1.621   3.725 -1.7369 -0.3239 -1.0845
20829WAT     H285122   5.195   1.495   3.801  1.1058 -0.1835  0.6078
20829WAT    EPW85123   5.206   1.538   3.726 -1.0629 -0.5275  0.0221
20830WAT      O85124   0.990   3.003   3.437  0.1958 -0.5087  0.0615
20830WAT     H185125   0.903   3.009   3.477  0.3987  1.7831  0.3011
20830WAT     H285126   1.051   3.020   3.508  0.6332  1.9122 -0.8029
20830WAT    EPW85127   0.987   3.006   3.451  0.2802  0.1129 -0.0210
20831WAT      O85128   5.378   2.416   7.063 -0.8118 -0.0294 -0.0814
20831WAT     H185129   5.432   2.431   7.141  2.9201  3.5090 -2.9049
20831WAT     H285130   5.310   2.483   7.068 -0.8249 -0.0653  0.2857
20831WAT    EPW85131   5.376   2.427   7.074 -0.3214  0.4326 -0.4053
20832WAT      O85132   5.122   9.284   2.638 -0.1584 -0.0082  0.2098
20832WAT     H185133   5.190   9.274   2.704 -0.4430  1.6470  0.8203
20832WAT     H285134   5.154   9.237   2.562  1.3010  0.0728  0.7485
20832WAT    EPW85135   5.135   9.277   2.637 -0.0036  0.2208  0.3614
20833WAT      O85136   3.140   7.953   7.894 -0.2227  0.1697 -0.2708
20833WAT     H185137   3.075   7.979   7.958  0.4356  1.3894 -0.0629
20833WAT     H285138   3.217   7.930   7.946  0.8367  2.6503 -0.5967
20833WAT    EPW85139   3.142   7.953   7.909  0.0039  0.6578 -0.2866
20834WAT      O85140   3.084   0.943   0.114 -0.0163 -0.2804  0.0635
20834WAT     H185141   3.021   0.871   0.115  0.7116 -0.9582 -1.1092
20834WAT     H285142   3.153   0.916   0.174 -0.1067 -0.2223  0.1936
20834WAT    EPW85143   3.084   0.930   0.122  0.0678 -0.3622 -0.0740
20835WAT      O85144  -1.318   3.190   6.697 -0.1248  0.3877 -0.1476
20835WAT     H185145  -1.359   3.226   6.775 -1.4861  2.1934 -1.6042
20835WAT     H285146  -1.244   3.249   6.680  1.4838 -1.2254  0.8879
20835WAT    EPW85147  -1.313   3.203   6.705 -0.0922  0.4129 -0.2034
20836WAT      O85148   5.545   3.012   0.835  0.2134 -0.0195 -0.0587
20836WAT     H185149   5.599   2.986   0.761  1.3593  0.9332  0.4283
20836WAT     H285150   5.479   2.942   0.841  0.6152 -0.5589 -1.4169
20836WAT    EPW85151   5.543   2.999   0.826  0.4175  0.0350 -0.1736
20837WAT      O85152  -3.683   8.149   6.334  0.0556 -0.0943 -0.0270
20837WAT     H185153  -3.629   8.116   6.406 -2.9060  1.4072  3.2061
20837WAT     H285154  -3.766   8.102   6.344 -0.5731  0.4458 -2.3003
20837WAT    EPW85155  -3.687   8.139   6.345 -0.4179  0.1750  0.0997
20838WAT      O85156   0.824   4.103   5.715 -0.4974  0.4563 -0.2056
20838WAT     H185157   0.835   4.198   5.716 -2.0194  0.7120  2.3047
20838WAT     H285158   0.747   4.088   5.770  1.0250 -2.3616  1.3615
20838WAT    EPW85159   0.815   4.114   5.722 -0.4973  0.1185  0.3324
20839WAT      O85160  -2.085   0.291   5.635 -0.9464 -0.2790  0.2031
20839WAT     H185161  -2.050   0.376   5.663  0.8782 -1.0497  0.3687
20839WAT     H285162  -2.088   0.297   5.539  0.5576 -0.5072  0.1185
20839WAT    EPW85163  -2.081   0.303   5.626 -0.5074 -0.4107  0.2139
20840WAT      O85164  -2.506   7.381   3.732 -0.5533 -0.8414  0.0621
20840WAT     H185165  -2.422   7.427   3.733 -1.5473  1.1295  1.3093
20840WAT     H285166  -2.495   7.311   3.669  1.8073 -0.2279 -0.2950
20840WAT    EPW85167  -2.494   7.378   3.724 -0.3730 -0.5007  0.1795
20841WAT      O85168   2.775   5.092   1.649  0.2640  0.5272 -0.1063
20841WAT     H185169   2.791   5.040   1.570  2.8790 -0.4071  0.9179
20841WAT     H285170   2.733   5.172   1.617 -0.1536 -0.4722 -2.2312
20841WAT    EPW85171   2.772   5.096   1.635  0.5538  0.2720 -0.2515
20842WAT      O85172   4.593   3.674   1.370 -0.5444  0.3468 -0.2392
20842WAT     H185173   4.591   3.661   1.465 -0.5161 -0.5693 -0.3523
20842WAT     H285174   4.504   3.702   1.348 -1.0524 -1.1137 -0.1467
20842WAT    EPW85175   4.581   3.676   1.380 -0.6077  0.0334 -0.2419
20843WAT      O85176   0.420   9.112   4.248 -0.5595  0.1238  0.0983
20843WAT     H185177   0.462   9.175   4.306  0.7360  2.6695 -3.2930
20843WAT     H285178   0.345   9.160   4.211  0.1885 -0.3915 -2.2328
20843WAT    EPW85179   0.415   9.127   4.250 -0.2900  0.3915 -0.6564
20844WAT      O85180   1.009   3.272   2.351  0.3644  0.5408 -0.2180
20844WAT     H185181   1.005   3.177   2.363 -0.6496  0.4837 -0.9278
20844WAT     H285182   1.008   3.285   2.257 -0.5084  1.2826 -0.1232
20844WAT    EPW85183   1.008   3.262   2.340  0.1156  0.6311 -0.2991
20845WAT      O85184  -6.280   3.071   8.727  0.2568  0.2322 -0.2012
20845WAT     H185185  -6.328   3.000   8.685 -2.5960  2.4940 -1.0748
20845WAT     H285186  -6.289   3.055   8.821 -2.3669  0.6121 -0.3377
20845WAT    EPW85187  -6.287   3.059   8.734 -0.4654  0.5805 -0.3343
20846WAT      O85188   4.280   1.261   8.160 -0.1463  0.6920  0.2732
20846WAT     H185189   4.197   1.264   8.112  0.4181  2.5188 -0.7169
20846WAT     H285190   4.265   1.200   8.231 -1.3662 -1.3464 -1.6097
20846WAT    EPW85191   4.267   1.254   8.163 -0.2329  0.6640 -0.1054
20847WAT      O85192  -0.355   8.903   8.025 -0.0993  0.3405 -0.2515
20847WAT     H185193  -0.334   8.813   8.001 -1.6730 -0.0237 -0.3210
20847WAT     H285194  -0.404   8.895   8.107  1.2653  1.2672  0.7033
20847WAT    EPW85195  -0.358   8.890   8.033 -0.1269  0.4148 -0.1345
20848WAT      O85196  -6.792   9.866   7.540  0.5543 -0.1064  0.0400
20848WAT     H185197  -6.779   9.960   7.545 -0.5346  0.2060 -1.9777
20848WAT     H285198  -6.707   9.831   7.512  0.1223  0.6995 -2.5211
20848WAT    EPW85199  -6.779   9.874   7.537  0.3538  0.0410 -0.5636
20849WAT      O85200  -0.650   5.356   2.381 -0.1994  0.0132  0.3565
20849WAT     H185201  -0.713   5.288   2.404  0.4823 -0.8014 -0.0915
20849WAT     H285202  -0.601   5.372   2.462 -0.0522 -0.3846  0.3494
20849WAT    EPW85203  -0.652   5.349   2.394 -0.0900 -0.1469  0.2965
20850WAT      O85204   0.920   0.243   6.788 -0.2584 -0.0761 -0.1292
20850WAT     H185205   0.892   0.262   6.699 -2.1222 -0.8268  0.2424
20850WAT     H285206   0.989   0.307   6.806  0.1736  0.0707 -2.0901
20850WAT    EPW85207   0.925   0.254   6.779 -0.4473 -0.1558 -0.3388
20851WAT      O85208  -3.862   4.207   5.397  0.2168  0.4795  0.2245
20851WAT     H185209  -3.767   4.211   5.406  0.2604  0.6794 -0.2952
20851WAT     H285210  -3.892   4.295   5.421  0.2557  0.7309 -0.6192
20851WAT    EPW85211  -3.853   4.219   5.401  0.2277  0.5388  0.0448
20852WAT      O85212   5.654   2.748   2.070 -0.0450 -0.5413 -0.0083
20852WAT     H185213   5.746   2.732   2.094  0.7558  4.0769  1.0137
20852WAT     H285214   5.605   2.683   2.119  2.5310 -1.2078  1.9426
20852WAT    EPW85215   5.660   2.738   2.080  0.4003 -0.0201  0.3839
20853WAT      O85216  -0.689   2.628   2.204  0.0553  0.0304 -0.4600
20853WAT     H185217  -0.726   2.649   2.290  2.2115  1.2468  0.2645
20853WAT     H285218  -0.645   2.544   2.218  0.3649  0.2047 -0.3721
20853WAT    EPW85219  -0.688   2.619   2.217  0.3805  0.2137 -0.3529
20854WAT      O85220   2.316   5.800   0.032 -0.1085  0.0780 -0.3599
20854WAT     H185221   2.371   5.770   0.104 -1.9028 -2.1878  0.1656
20854WAT     H285222   2.353   5.757  -0.045  0.2555  0.4668 -0.4107
20854WAT    EPW85223   2.328   5.791   0.031 -0.2971 -0.1695 -0.2973
20855WAT      O85224  -0.860   5.264   4.840 -0.6383 -0.7042 -0.0771
20855WAT     H185225  -0.932   5.236   4.783 -1.3269 -0.0526  0.4558
20855WAT     H285226  -0.903   5.310   4.912  0.3188 -0.2628  0.2277
20855WAT    EPW85227  -0.875   5.266   4.842 -0.6028 -0.5600  0.0334
20856WAT      O85228   5.747   6.321   2.778  0.4874 -0.1503 -0.4954
20856WAT     H185229   5.807   6.393   2.763 -1.7299  1.9452 -0.0165
20856WAT     H285230   5.766   6.292   2.867 -0.0909  1.4631  0.1930
20856WAT    EPW85231   5.757   6.326   2.788  0.1185  0.3388 -0.3414
20857WAT      O85232   6.285   1.012   3.686 -0.0814  0.1065 -0.8614
20857WAT     H185233   6.341   0.936   3.700 -3.7152 -2.5945  0.8107
20857WAT     H285234   6.288   1.060   3.770  1.1943  1.1523 -1.4712
20857WAT    EPW85235   6.293   1.009   3.699 -0.3922 -0.1118 -0.7213
20858WAT      O85236  10.072   0.477   0.656  0.2385  0.0763 -0.0224
20858WAT     H185237  10.038   0.477   0.566  0.2366  0.9224 -0.0308
20858WAT     H285238   9.996   0.492   0.711  0.2855 -0.1341  0.0983
20858WAT    EPW85239  10.058   0.479   0.651  0.2446  0.1602 -0.0075
20859WAT      O85240   3.252   6.425   0.304 -0.2868  0.1894  0.1651
20859WAT     H185241   3.242   6.330   0.311  1.2730 -0.0060  0.1545
20859WAT     H285242   3.235   6.458   0.392  0.4311 -0.2478  0.4794
20859WAT    EPW85243   3.248   6.417   0.316  0.0137  0.1059  0.2051
20860WAT      O85244   3.039   6.998   8.134  0.7243  0.1177 -0.1192
20860WAT     H185245   3.012   7.088   8.113 -0.1314 -0.1968 -0.4070
20860WAT     H285246   3.059   7.000   8.227  3.6709  1.3189 -0.6770
20860WAT    EPW85247   3.038   7.010   8.143  1.0000  0.2344 -0.2308
20861WAT      O85248  -0.605   6.027   4.566  0.2022  0.3447 -0.1812
20861WAT     H185249  -0.527   5.976   4.547 -0.4349 -0.7122 -0.0098
20861WAT     H285250  -0.579   6.084   4.638  1.2220  1.0305 -1.0455
20861WAT    EPW85251  -0.591   6.028   4.573  0.2527  0.2959 -0.2725
20862WAT      O85252   2.946   7.941   6.146  0.4204 -0.7724 -0.1712
20862WAT     H185253   2.879   7.960   6.081 -0.8015 -0.2179  1.1812
20862WAT     H285254   3.025   7.982   6.112  0.0511 -1.3097 -1.7317
20862WAT    EPW85255   2.948   7.949   6.133  0.2106 -0.7701 -0.1986
20863WAT      O85256   3.749   6.890   2.476  0.1356  0.0864  0.2781
20863WAT     H185257   3.762   6.827   2.405 -0.0039  0.7141 -0.3180
20863WAT     H285258   3.727   6.837   2.552  1.5856 -0.6899  0.1843
20863WAT    EPW85259   3.748   6.875   2.477  0.3085  0.0668  0.1870
20864WAT      O85260  -3.269   7.272   6.917 -0.0325 -0.2719  0.4944
20864WAT     H185261  -3.203   7.329   6.955 -0.4221 -0.2193  1.1013
20864WAT     H285262  -3.310   7.324   6.848  0.1742 -0.1053  0.4991
20864WAT    EPW85263  -3.266   7.286   6.913 -0.0566 -0.2427  0.5751
20865WAT      O85264  -2.035   1.636   2.561  0.1628 -0.4946  0.1782
20865WAT     H185265  -2.006   1.550   2.533  1.3633  0.3852 -1.4692
20865WAT     H285266  -1.964   1.670   2.615 -0.5448 -0.7260  1.2850
20865WAT    EPW85267  -2.022   1.629   2.564  0.2278 -0.4090  0.1069
20866WAT      O85268  -2.499   8.875   4.762 -0.0475  0.2502 -0.2372
20866WAT     H185269  -2.468   8.832   4.841  0.6069  1.3476  0.1311
20866WAT     H285270  -2.480   8.813   4.691  0.5074 -0.2322  0.3233
20866WAT    EPW85271  -2.492   8.861   4.763  0.1119  0.3314 -0.1147
20867WAT      O85272  -0.171   6.015   3.757 -0.3011  0.3553  0.2197
20867WAT     H185273  -0.085   6.056   3.757  0.0619 -0.3438 -1.5874
20867WAT     H285274  -0.203   6.025   3.668 -2.2555  0.8656  0.9128
20867WAT    EPW85275  -0.164   6.022   3.745 -0.5110  0.3302  0.0728
20868WAT      O85276  -1.413   6.612   1.157  0.9280 -0.8467 -0.1481
20868WAT     H185277  -1.378   6.701   1.163 -1.0767 -0.0688  1.1011
20868WAT     H285278  -1.438   6.590   1.247 -1.2014 -1.5365 -0.8652
20868WAT    EPW85279  -1.412   6.621   1.170  0.3827 -0.8352 -0.0779
20869WAT      O85280   3.781   6.217   4.637 -0.1550  0.3467  0.1876
20869WAT     H185281   3.700   6.172   4.660 -0.1186  0.3093  0.2422
20869WAT     H285282   3.842   6.146   4.616 -0.2497  0.3852 -0.2310
20869WAT    EPW85283   3.778   6.202   4.637 -0.1628  0.3469  0.1397
20870WAT      O85284   8.497   0.763   1.012 -0.5861  0.6970 -0.0882
20870WAT     H185285   8.531   0.836   0.961 -2.6810  1.0411 -1.1066
20870WAT     H285286   8.402   0.776   1.011 -0.8681 -0.8840  1.5095
20870WAT    EPW85287   8.489   0.774   1.005 -0.8993  0.5339 -0.0117
20871WAT      O85288   0.284   7.278   8.443  0.2085 -0.6336  0.4879
20871WAT     H185289   0.369   7.285   8.399  0.4934  0.7600  1.1880
20871WAT     H285290   0.257   7.188   8.429  1.7164 -1.0497  0.0732
20871WAT    EPW85291   0.292   7.267   8.436  0.4450 -0.5047  0.5255
20872WAT      O85292  -1.216   4.486   6.157 -0.1983  0.2806  0.1725
20872WAT     H185293  -1.202   4.463   6.065  1.7134  1.3842  0.1483
20872WAT     H285294  -1.267   4.568   6.153 -0.6458  0.0040  0.1229
20872WAT    EPW85295  -1.221   4.494   6.144 -0.0052  0.3901  0.1626
20873WAT      O85296  -0.172   9.919   6.803  0.6371 -0.2309  0.5600
20873WAT     H185297  -0.145   9.942   6.714 -1.7510 -1.9022 -0.7198
20873WAT     H285298  -0.160   9.824   6.807  0.3484 -0.2290  1.9256
20873WAT    EPW85299  -0.167   9.909   6.792  0.2841 -0.4511  0.5715
20874WAT      O85300   5.822   9.544   1.360 -0.3618 -0.7447  0.0635
20874WAT     H185301   5.801   9.456   1.390 -0.3287 -0.5121  0.8014
20874WAT     H285302   5.902   9.567   1.407 -0.1394 -0.4800 -0.4385
20874WAT    EPW85303   5.830   9.536   1.371 -0.3281 -0.6790  0.0946
20875WAT      O85304   5.109   5.431   0.699 -0.0511  0.1637 -0.1420
20875WAT     H185305   5.095   5.440   0.793 -2.3741  3.1317 -0.6372
20875WAT     H285306   5.189   5.481   0.682  1.4275 -1.8860  0.3825
20875WAT    EPW85307   5.118   5.439   0.709 -0.1624  0.2847 -0.1382
20876WAT      O85308  -2.505   3.358   6.546  0.4080  0.0351  0.5024
20876WAT     H185309  -2.531   3.325   6.460  1.8444 -0.4143  0.2088
20876WAT     H285310  -2.531   3.290   6.608  0.1700 -0.0360  0.3229
20876WAT    EPW85311  -2.512   3.345   6.543  0.5661 -0.0336  0.4399
20877WAT      O85312  -5.187   9.648   6.539 -0.2152  0.2078  0.4750
20877WAT     H185313  -5.245   9.719   6.511  0.0868  0.5126  0.6205
20877WAT     H285314  -5.200   9.644   6.634  0.9805  1.1620  0.7007
20877WAT    EPW85315  -5.197   9.657   6.548 -0.0176  0.3738  0.5238
20878WAT      O85316   4.630   2.734   2.532 -0.2903  0.3162  0.6702
20878WAT     H185317   4.541   2.750   2.502 -0.8632 -1.2065  1.4370
20878WAT     H285318   4.685   2.780   2.469 -1.6260  2.4946  0.9947
20878WAT    EPW85319   4.625   2.742   2.520 -0.5422  0.4027  0.8141
20879WAT      O85320  -4.008   3.624   7.076 -0.8778  0.7508  0.5751
20879WAT     H185321  -4.067   3.581   7.138  0.2073 -3.8239 -1.2187
20879WAT     H285322  -3.925   3.579   7.086 -0.3540  0.5133 -3.3441
20879WAT    EPW85323  -4.005   3.613   7.086 -0.6657  0.1162 -0.1786
20880WAT      O85324   4.859   1.629   3.547  0.9077  0.4048  0.0429
20880WAT     H185325   4.781   1.575   3.561  1.2065 -0.2681 -0.8273
20880WAT     H285326   4.828   1.703   3.494  0.7343  0.4786  0.2465
20880WAT    EPW85327   4.844   1.632   3.542  0.9243  0.3257 -0.0451
20881WAT      O85328   4.457   5.937   3.850  0.2838  0.7233 -0.6752
20881WAT     H185329   4.394   5.958   3.780 -0.8566  1.3485  0.4908
20881WAT     H285330   4.407   5.950   3.931  2.0356  1.6258  0.3044
20881WAT    EPW85331   4.442   5.942   3.851  0.3643  0.9248 -0.3923
20882WAT      O85332   7.288   5.206   0.929 -0.4485 -0.1138  0.6284
20882WAT     H185333   7.356   5.157   0.975  1.5525 -0.4636 -2.3536
20882WAT     H285334   7.336   5.275   0.883 -2.5734  1.5518  0.7687
20882WAT    EPW85335   7.303   5.208   0.929 -0.4652  0.0598  0.2536
20883WAT      O85336  -1.912   8.113   4.509  0.0468 -0.8130 -0.9687
20883WAT     H185337  -1.938   8.202   4.482  0.9245 -0.4695 -0.6907
20883WAT     H285338  -1.883   8.072   4.427 -2.0948 -1.4961 -1.4606
20883WAT    EPW85339  -1.912   8.120   4.494 -0.1199 -0.8578 -0.9971
20884WAT      O85340   4.071   0.060   4.013  0.5301  0.4406 -0.0744
20884WAT     H185341   3.983   0.081   4.044  0.6136  0.1345  0.3857
20884WAT     H285342   4.130   0.111   4.068  0.6745  0.0150  0.1764
20884WAT    EPW85343   4.067   0.069   4.024  0.5603  0.3441  0.0196
20885WAT      O85344   5.219   9.285   2.058 -0.5136 -0.3406 -0.3088
20885WAT     H185345   5.153   9.317   1.997  0.1546 -0.6664 -1.2188
20885WAT     H285346   5.280   9.358   2.070  0.8473 -1.1093 -2.1572
20885WAT    EPW85347   5.218   9.298   2.052 -0.2458 -0.4849 -0.6726
20886WAT      O85348   3.383   6.750   5.693 -0.4605  0.1676 -0.9958
20886WAT     H185349   3.325   6.692   5.643 -0.8820 -0.0710 -0.2484
20886WAT     H285350   3.444   6.785   5.628  2.0295 -3.6835 -1.0068
20886WAT    EPW85351   3.383   6.747   5.678 -0.1876 -0.3717 -0.8986
20887WAT      O85352   7.032   0.889   4.270 -0.5848 -0.2820  0.5731
20887WAT     H185353   6.955   0.853   4.227  1.1441 -1.6181 -1.5877
20887WAT     H285354   7.068   0.817   4.321 -0.6004  0.2709  1.3982
20887WAT    EPW85355   7.026   0.875   4.271 -0.3586 -0.3853  0.3970
20888WAT      O85356   3.903   2.382   0.143  0.1214 -0.3465 -0.3048
20888WAT     H185357   3.828   2.439   0.160  2.1199  1.8974  1.8229
20888WAT     H285358   3.932   2.407   0.055 -0.5740  0.0458 -0.4319
20888WAT    EPW85359   3.897   2.393   0.133  0.2933  0.0012 -0.0409
20889WAT      O85360  -1.016   0.589   3.991  0.4680 -0.6326  0.2864
20889WAT     H185361  -1.004   0.595   4.085 -2.2407  0.9900  0.6321
20889WAT     H285362  -1.017   0.495   3.973  3.6042 -0.9826  1.3824
20889WAT    EPW85363  -1.015   0.577   4.001  0.5245 -0.4647  0.4765
20890WAT      O85364   6.236  -0.005   4.283 -0.1165 -0.0768  0.1344
20890WAT     H185365   6.168  -0.010   4.350  1.3926  0.4252  1.7982
20890WAT     H285366   6.281   0.078   4.301 -0.4468  0.7262 -2.3499
20890WAT    EPW85367   6.233   0.005   4.294  0.0391  0.0953  0.0262
20891WAT      O85368   7.137   1.573   3.844  0.2809  0.4050 -0.0862
20891WAT     H185369   7.162   1.511   3.775  1.6450 -1.0449  1.6293
20891WAT     H285370   7.041   1.570   3.845  0.2930 -0.9470 -0.6920
20891WAT    EPW85371   7.128   1.564   3.835  0.4623  0.0355  0.0601
20892WAT      O85372   2.899   5.346   6.038 -0.0167  0.0767  0.0308
20892WAT     H185373   2.944   5.273   5.996  0.4236 -0.0531  0.7079
20892WAT     H285374   2.966   5.387   6.094 -0.0895  1.3518 -0.7649
20892WAT    EPW85375   2.914   5.342   6.040  0.0317  0.2277  0.0150
20893WAT      O85376  -1.308   7.797   8.160 -0.3162  0.7485 -0.4242
20893WAT     H185377  -1.263   7.830   8.239  2.9922  0.2792 -1.9315
20893WAT     H285378  -1.381   7.857   8.147  0.6040  2.4085  1.5438
20893WAT    EPW85379  -1.311   7.809   8.169  0.2415  0.9055 -0.3633
20894WAT      O85380  -2.485   6.988   5.047 -0.5850 -0.1724  0.8947
20894WAT     H185381  -2.458   6.947   4.965  0.5586 -2.7962  2.4401
20894WAT     H285382  -2.423   7.060   5.059  1.9791 -2.2629  1.3062
20894WAT    EPW85383  -2.473   6.992   5.038 -0.0960 -0.7942  1.1528
20895WAT      O85384   5.018  10.370   1.959 -0.2888 -0.8780 -0.9470
20895WAT     H185385   4.979  10.333   2.038  2.8161 -0.2863  1.0580
20895WAT     H285386   4.979  10.321   1.887 -0.7537 -3.8513  1.1788
20895WAT    EPW85387   5.008  10.359   1.960  0.0596 -1.1921 -0.4021
20896WAT      O85388  -2.740   4.803   2.123 -0.9784  0.1430 -0.1600
20896WAT     H185389  -2.746   4.899   2.115 -0.8070  0.1873  0.2322
20896WAT     H285390  -2.689   4.776   2.047 -1.5392  0.3011 -0.6044
20896WAT    EPW85391  -2.734   4.812   2.112 -1.0297  0.1698 -0.1669
20897WAT      O85392   5.145   6.802   3.652 -0.9479 -0.0178  0.9655
20897WAT     H185393   5.108   6.806   3.740 -2.5914  0.0832  0.3039
20897WAT     H285394   5.109   6.878   3.607  1.1916  0.9011  0.6415
20897WAT    EPW85395   5.136   6.813   3.658 -0.8826  0.1166  0.8355
20898WAT      O85396   5.995   3.488   1.841 -0.5616 -0.0902 -0.4745
20898WAT     H185397   6.012   3.428   1.768  0.6459  0.4453 -0.6508
20898WAT     H285398   5.942   3.557   1.803 -1.7494 -0.8915 -0.3291
20898WAT    EPW85399   5.990   3.489   1.826 -0.5589 -0.1253 -0.4786
20899WAT      O85400  -0.424   9.311   5.611  0.0341 -0.7139 -0.1877
20899WAT     H185401  -0.436   9.236   5.669  1.7653 -1.0678 -0.2442
20899WAT     H285402  -0.363   9.281   5.544  2.1257  1.1779  0.7317
20899WAT    EPW85403  -0.417   9.297   5.610  0.5383 -0.5107 -0.0739
20900WAT      O85404   2.817   3.803   1.345 -0.3328 -0.0254 -0.5413
20900WAT     H185405   2.730   3.840   1.354  0.5495  1.9011  0.6539
20900WAT     H285406   2.875   3.878   1.332  1.2134 -1.2039 -0.8777
20900WAT    EPW85407   2.813   3.818   1.345 -0.0125  0.0732 -0.4280
20901WAT      O85408  -6.311   9.576   7.523 -0.8168 -0.1569  0.0824
20901WAT     H185409  -6.389   9.630   7.510 -1.4302 -1.0194  0.0401
20901WAT     H285410  -6.345   9.495   7.561  0.0563 -0.5721  0.0015
20901WAT    EPW85411  -6.326   9.572   7.526 -0.7825 -0.3252  0.0663
20902WAT      O85412   1.366   0.059   4.802 -0.5314 -0.2726  0.2733
20902WAT     H185413   1.329   0.139   4.837 -0.6089 -0.7504  1.3098
20902WAT     H285414   1.444   0.087   4.754 -0.4200  0.3926  0.8404
20902WAT    EPW85415   1.372   0.073   4.800 -0.5269 -0.2479  0.4849
20903WAT      O85416   3.183   7.973   3.003 -0.4068 -0.8423  0.5475
20903WAT     H185417   3.112   7.985   3.067 -1.0824  0.2246 -0.3702
20903WAT     H285418   3.144   7.997   2.919  0.7511 -1.2696 -0.1355
20903WAT    EPW85419   3.168   7.978   3.001 -0.3433 -0.7579  0.3363
20904WAT      O85420  -2.353   8.213   2.071  0.0789  0.7674  0.4632
20904WAT     H185421  -2.392   8.236   2.155  1.9649  2.2279  1.0063
20904WAT     H285422  -2.382   8.282   2.011  1.7970  1.9573  0.9087
20904WAT    EPW85423  -2.362   8.225   2.074  0.5543  1.1172  0.5937
20905WAT      O85424  -3.671  10.083   4.348  0.9881 -0.3640  0.4783
20905WAT     H185425  -3.596  10.072   4.405  2.2080 -1.3825 -1.2351
20905WAT     H285426  -3.722  10.003   4.360  0.3410  0.1463  1.3246
20905WAT    EPW85427  -3.668  10.071   4.357  1.0637 -0.4311  0.3641
20906WAT      O85428  -2.619   0.468   8.185  0.1287 -0.1853 -0.5975
20906WAT     H185429  -2.701   0.428   8.156  0.9330 -2.3118 -0.1784
20906WAT     H285430  -2.578   0.498   8.104 -0.1454 -1.0186 -1.0681
20906WAT    EPW85431  -2.624   0.467   8.170  0.1986 -0.5757 -0.6042
20907WAT      O85432   2.653   4.483   4.111 -0.1687  0.1376 -0.9549
20907WAT     H185433   2.635   4.470   4.205 -4.2197 -1.1501 -1.7030
20907WAT     H285434   2.673   4.577   4.104 -1.3423  0.6168  1.0580
20907WAT    EPW85435   2.653   4.494   4.123 -0.8578  0.0310 -0.7882
20908WAT      O85436   4.138   8.046   5.578 -0.0473  0.8629 -0.6291
20908WAT     H185437   4.077   8.120   5.572 -0.8422  0.2363 -0.4250
20908WAT     H285438   4.145   8.013   5.488 -1.3301 -0.0911 -0.4072
20908WAT    EPW85439   4.131   8.051   5.565 -0.3214  0.6547 -0.5732
20909WAT      O85440   7.937   1.319   1.272 -0.1873  0.1012  0.2815
20909WAT     H185441   8.027   1.351   1.279 -0.6650  1.4992  0.3071
20909WAT     H285442   7.892   1.356   1.347 -1.2549  1.0725 -0.8017
20909WAT    EPW85443   7.943   1.328   1.283 -0.3910  0.4137  0.1420
20910WAT      O85444   6.913   3.157   3.401  0.1291  0.3036  0.1235
20910WAT     H185445   6.888   3.117   3.485 -1.9264  1.1483 -0.0101
20910WAT     H285446   6.935   3.248   3.424  3.4537 -0.4051  0.2364
20910WAT    EPW85447   6.912   3.164   3.415  0.2966  0.3215  0.1208
20911WAT      O85448   8.891   2.681   1.625  0.4298 -0.1228  0.6113
20911WAT     H185449   8.967   2.624   1.639 -0.9210 -1.6922  2.1200
20911WAT     H285450   8.895   2.705   1.533  2.2563 -0.8928  0.4465
20911WAT    EPW85451   8.901   2.676   1.615  0.4930 -0.4313  0.7886
20912WAT      O85452  -2.538   9.672   4.766 -0.2418 -0.0726  0.3745
20912WAT     H185453  -2.470   9.634   4.821  0.0857  0.7095  0.5234
20912WAT     H285454  -2.493   9.692   4.684 -1.1574 -3.1631 -1.0658
20912WAT    EPW85455  -2.523   9.669   4.762 -0.3195 -0.3772  0.2041
20913WAT      O85456   2.259   3.154   8.743  0.2108  0.1835 -0.3960
20913WAT     H185457   2.188   3.207   8.706 -0.1188 -1.3448 -2.0844
20913WAT     H285458   2.281   3.092   8.674  1.7655 -0.7627  0.8798
20913WAT    EPW85459   2.252   3.153   8.729  0.3723 -0.1428 -0.4501
20914WAT      O85460   6.839   8.685   0.733 -0.4745 -0.2290 -0.0445
20914WAT     H185461   6.764   8.662   0.788 -0.4164 -0.6383 -0.1340
20914WAT     H285462   6.901   8.728   0.792 -1.3595  1.3885 -0.2382
20914WAT    EPW85463   6.837   8.687   0.748 -0.5836 -0.0696 -0.0819
20915WAT      O85464   6.362   6.206   3.791 -0.1813 -0.5713 -0.3552
20915WAT     H185465   6.377   6.115   3.764  0.1014 -0.2461 -1.3300
20915WAT     H285466   6.326   6.248   3.713  0.2154  0.2941 -0.0792
20915WAT    EPW85467   6.359   6.199   3.777 -0.0918 -0.4144 -0.4474
20916WAT      O85468   1.329   5.822   4.468  0.1126  0.0792 -0.0324
20916WAT     H185469   1.306   5.729   4.460  0.5169 -0.3610  2.8671
20916WAT     H285470   1.251   5.863   4.504  0.8734  0.2455  1.5219
20916WAT    EPW85471   1.316   5.815   4.471  0.2663  0.0432  0.5550
20917WAT      O85472   2.657   8.011   7.366 -0.4176  1.1029 -0.1628
20917WAT     H185473   2.568   8.042   7.383 -0.7752  0.4271 -0.7761
20917WAT     H285474   2.675   8.038   7.276 -0.8046 -0.6006 -0.7834
20917WAT    EPW85475   2.648   8.019   7.356 -0.5157  0.7896 -0.3254
20918WAT      O85476  -1.581   2.676   2.358 -0.1822 -0.3152 -0.2187
20918WAT     H185477  -1.486   2.675   2.367 -0.1502  1.8475  0.1238
20918WAT     H285478  -1.613   2.701   2.445 -0.9809  0.2987 -0.6746
20918WAT    EPW85479  -1.573   2.679   2.371 -0.2834  0.0510 -0.2337
20919WAT      O85480   6.673   4.168   3.497 -0.2576  0.0673  0.8083
20919WAT     H185481   6.697   4.152   3.588  1.4247 -0.8033  0.2690
20919WAT     H285482   6.649   4.261   3.494  0.9032  0.4304  1.9185
20919WAT    EPW85483   6.673   4.178   3.508  0.1173  0.0005  0.8837
20920WAT      O85484  -3.971   2.328   7.261  0.6799  0.3887 -0.9365
20920WAT     H185485  -4.011   2.249   7.226 -0.0490 -0.8905  2.4807
20920WAT     H285486  -4.039   2.395   7.252 -0.6889 -0.7063  0.8727
20920WAT    EPW85487  -3.985   2.327   7.255  0.4033  0.0756 -0.2472
20921WAT      O85488   4.740   1.159   7.990 -0.1318  0.0080 -0.3880
20921WAT     H185489   4.752   1.080   7.939 -1.4110 -0.6253  0.2528
20921WAT     H285490   4.645   1.166   8.002  0.0327  1.0471  0.4649
20921WAT    EPW85491   4.729   1.150   7.985 -0.2787  0.0615 -0.1910
20922WAT      O85492   3.969   0.315   6.807  0.5980 -0.0994 -0.2253
20922WAT     H185493   4.063   0.329   6.796  0.6150 -1.2617 -1.8966
20922WAT     H285494   3.933   0.324   6.719 -0.5795 -1.5419  0.0739
20922WAT    EPW85495   3.977   0.318   6.794  0.4450 -0.4430 -0.4063
20923WAT      O85496   8.387   2.973   0.942  0.0153 -0.1447 -0.3020
20923WAT     H185497   8.456   3.039   0.934  0.4805 -0.5548  0.2236
20923WAT     H285498   8.401   2.914   0.868 -1.7015  1.4898 -2.0385
20923WAT    EPW85499   8.398   2.974   0.931 -0.1497  0.0168 -0.4617
20924WAT      O85500  -4.388   6.459   5.268  0.2850  0.1941 -0.7280
20924WAT     H185501  -4.379   6.521   5.340  1.9508 -1.1918  0.3582
20924WAT     H285502  -4.430   6.509   5.198  1.0588  2.3708  0.2643
20924WAT    EPW85503  -4.392   6.474   5.268  0.6068  0.2983 -0.4539
20925WAT      O85504  -2.679   7.300   4.525 -0.4575 -0.4395  0.1459
20925WAT     H185505  -2.686   7.380   4.473  0.2464  0.1069  0.8805
20925WAT     H285506  -2.764   7.257   4.513 -1.0389  0.6603  0.1546
20925WAT    EPW85507  -2.691   7.305   4.516 -0.4412 -0.2222  0.2437
20926WAT      O85508   4.030   6.695   4.851 -0.1526 -0.3086 -0.3642
20926WAT     H185509   3.971   6.628   4.815 -0.4987 -0.4103  0.3666
20926WAT     H285510   4.090   6.715   4.779 -0.8781 -0.4342 -1.0217
20926WAT    EPW85511   4.030   6.689   4.837 -0.2940 -0.3386 -0.3545
20927WAT      O85512   5.958   3.787   4.698 -0.2271 -0.4833  0.7882
20927WAT     H185513   5.996   3.849   4.636  0.0417 -0.8636  0.5611
20927WAT     H285514   5.952   3.705   4.648  1.3483 -1.1941  1.6729
20927WAT    EPW85515   5.962   3.784   4.683  0.0160 -0.6272  0.8748
20928WAT      O85516   4.585   4.786   6.992  0.1746  0.4009 -0.4433
20928WAT     H185517   4.524   4.859   6.996  1.4750  1.4591  1.1933
20928WAT     H285518   4.643   4.807   6.919 -0.3398  0.2282 -0.9167
20928WAT    EPW85519   4.584   4.798   6.983  0.2782  0.5178 -0.2899
20929WAT      O85520  -2.722   9.257   8.091  0.6470 -0.1551  0.2427
20929WAT     H185521  -2.721   9.294   8.179 -0.9863 -2.0336  1.1108
20929WAT     H285522  -2.774   9.318   8.040 -1.1764 -0.6651  1.4073
20929WAT    EPW85523  -2.728   9.270   8.096  0.1910 -0.4702  0.5107
20930WAT      O85524   2.182   2.996   8.970 -0.2089  0.5256 -0.1627
20930WAT     H185525   2.218   3.068   8.918 -0.0339  0.9992  0.6051
20930WAT     H285526   2.209   2.917   8.923 -1.9533  0.9598 -2.0542
20930WAT    EPW85527   2.190   2.995   8.957 -0.4160  0.6456 -0.3109
20931WAT      O85528   0.446   6.410   3.379 -0.3298 -0.3000  0.4511
20931WAT     H185529   0.437   6.389   3.286  0.1607  0.1267  0.2993
20931WAT     H285530   0.416   6.501   3.386  3.2513  1.0969 -0.0332
20931WAT    EPW85531   0.441   6.419   3.368  0.2072 -0.0596  0.3672
20932WAT      O85532  -0.754   6.987   1.600  0.1149  0.2494 -0.1729
20932WAT     H185533  -0.794   7.022   1.680  1.5852  0.8483  0.3329
20932WAT     H285534  -0.681   7.046   1.582 -0.0136 -0.0483 -1.8182
20932WAT    EPW85535  -0.750   6.999   1.608  0.2919  0.2892 -0.3232
20933WAT      O85536   1.189   5.946   2.318  0.5178  0.2570 -0.1813
20933WAT     H185537   1.199   5.855   2.291 -0.5402  0.1884 -0.3802
20933WAT     H285538   1.241   5.995   2.255 -2.0709  0.1227 -2.6505
20933WAT    EPW85539   1.197   5.941   2.306  0.0368  0.2301 -0.5332
20934WAT      O85540  -5.610   4.723   6.757 -0.1955 -0.4392  0.4296
20934WAT     H185541  -5.681   4.746   6.697 -0.5205 -0.2499  0.8851
20934WAT     H285542  -5.636   4.639   6.795 -0.1792 -0.3640  0.6061
20934WAT    EPW85543  -5.623   4.715   6.754 -0.2363 -0.4044  0.5131
20935WAT      O85544  -5.167  10.154   4.586 -0.2329  0.4473 -0.1546
20935WAT     H185545  -5.235  10.217   4.562 -0.2602 -0.4160 -2.5361
20935WAT     H285546  -5.121  10.135   4.505  1.0715 -1.0949  0.8813
20935WAT    EPW85547  -5.170  10.159   4.572 -0.0646  0.1302 -0.3321
20936WAT      O85548  -0.309   5.649   6.068 -0.0411 -0.3796  0.4228
20936WAT     H185549  -0.396   5.687   6.055 -0.8062 -1.7016  1.4119
20936WAT     H285550  -0.256   5.721   6.101 -1.4090 -0.0716  2.1009
20936WAT    EPW85551  -0.314   5.663   6.071 -0.3225 -0.5136  0.7746
20937WAT      O85552   8.012   2.348   2.421  0.3344 -0.3369  0.9204
20937WAT     H185553   8.069   2.423   2.437  1.9008 -0.6921 -2.1551
20937WAT     H285554   7.924   2.380   2.439  1.1259  1.5120  1.8289
20937WAT    EPW85555   8.008   2.362   2.426  0.6452 -0.1400  0.6346
20938WAT      O85556  -1.956   4.247   4.870  0.0752 -0.0759 -0.2038
20938WAT     H185557  -1.993   4.330   4.840  0.1767 -0.5127 -1.6401
20938WAT     H285558  -1.876   4.272   4.916 -1.5622  0.8248  2.3653
20938WAT    EPW85559  -1.950   4.261   4.872 -0.1273 -0.0148 -0.0544
20939WAT      O85560   7.139   2.157   0.562  0.2790 -0.2089 -0.1353
20939WAT     H185561   7.172   2.125   0.646  0.4858 -0.8915 -0.4700
20939WAT     H285562   7.144   2.252   0.569  1.0987 -0.2734  0.3058
20939WAT    EPW85563   7.144   2.165   0.574  0.4144 -0.3073 -0.1212
20940WAT      O85564   2.844   9.706   7.253  0.5470  0.1197 -0.2121
20940WAT     H185565   2.910   9.731   7.188  0.5856 -1.6008 -0.9083
20940WAT     H285566   2.780   9.655   7.203 -0.9608  1.1343  0.5900
20940WAT    EPW85567   2.844   9.702   7.238  0.3531  0.0267 -0.1981
20941WAT      O85568   4.800   3.848   2.207  0.0043  0.0622 -0.0341
20941WAT     H185569   4.788   3.918   2.272  1.6006 -0.7454  1.2156
20941WAT     H285570   4.722   3.794   2.214 -1.2514  1.6785 -1.0052
20941WAT    EPW85571   4.788   3.850   2.216  0.0491  0.1688  0.0026
20942WAT      O85572   5.373   1.344   1.140 -0.9597 -0.0012 -0.0746
20942WAT     H185573   5.434   1.386   1.079 -2.0715  1.0165 -0.5388
20942WAT     H285574   5.390   1.250   1.130  1.2494  0.2691  0.6262
20942WAT    EPW85575   5.383   1.337   1.130 -0.8149  0.1687 -0.0434
20943WAT      O85576  -1.965   8.286   8.265 -0.5829 -0.1574 -0.2764
20943WAT     H185577  -2.027   8.336   8.213 -2.6284  0.9805  2.9518
20943WAT     H285578  -2.004   8.199   8.271  0.0918 -0.5453 -1.2602
20943WAT    EPW85579  -1.978   8.281   8.259 -0.7637 -0.0587  0.0200
20944WAT      O85580  -2.351   8.942   8.188  0.0082 -0.0879  0.0027
20944WAT     H185581  -2.390   8.949   8.275 -0.3996 -0.0079 -0.1801
20944WAT     H285582  -2.422   8.969   8.128 -0.7033 -2.8874 -0.5560
20944WAT    EPW85583  -2.366   8.947   8.191 -0.1394 -0.4468 -0.0949
20945WAT      O85584  -0.891   8.424   2.481 -0.3164  0.1122 -0.7817
20945WAT     H185585  -0.836   8.428   2.403 -1.8437 -0.2578 -1.9322
20945WAT     H285586  -0.978   8.405   2.447 -0.7164 -1.8730  1.1578
20945WAT    EPW85587  -0.895   8.422   2.466 -0.5706 -0.1984 -0.6776
20946WAT      O85588   5.023   7.685   2.491  0.3953 -0.8944 -0.6589
20946WAT     H185589   5.021   7.717   2.582 -0.1843  0.4120 -1.0964
20946WAT     H285590   4.930   7.677   2.468  0.5121  0.0861 -1.5446
20946WAT    EPW85591   5.010   7.688   2.500  0.3343 -0.5929 -0.8334
20947WAT      O85592   2.853   7.039   7.463 -0.4941 -0.3927  0.1922
20947WAT     H185593   2.895   7.042   7.549  2.6062 -2.1903 -1.0722
20947WAT     H285594   2.909   7.094   7.407 -0.7032 -1.5926 -1.2633
20947WAT    EPW85595   2.866   7.047   7.467 -0.1128 -0.7880 -0.1667
20948WAT      O85596   3.205   3.889   1.451 -0.2396  0.6549  0.3337
20948WAT     H185597   3.180   3.832   1.378 -0.8165  0.2966  0.7999
20948WAT     H285598   3.299   3.871   1.463 -0.4735 -0.4333  0.6633
20948WAT    EPW85599   3.214   3.879   1.443 -0.3467  0.4641  0.4386
20949WAT      O85600   4.440   9.789   0.979 -0.0950  0.5050 -0.2481
20949WAT     H185601   4.396   9.707   0.957  1.7273 -0.0966 -1.9324
20949WAT     H285602   4.493   9.768   1.056 -0.3143  0.3557 -0.1366
20949WAT    EPW85603   4.442   9.775   0.987  0.1163  0.4058 -0.4555
20950WAT      O85604  -2.431   9.153   2.785  0.4216  0.8396  0.3783
20950WAT     H185605  -2.449   9.123   2.696 -1.9932  0.5600  0.9022
20950WAT     H285606  -2.363   9.094   2.817 -2.1063 -2.3178  0.3568
20950WAT    EPW85607  -2.424   9.142   2.778 -0.2303  0.3862  0.4445
20951WAT      O85608  -0.995   8.833   8.591 -1.0193 -0.6026  0.3699
20951WAT     H185609  -0.961   8.798   8.674  1.0494  0.1834 -0.0722
20951WAT     H285610  -1.005   8.757   8.535  0.2533 -0.8875  0.4857
20951WAT    EPW85611  -0.992   8.819   8.595 -0.5786 -0.5360  0.3271
20952WAT      O85612   4.868   8.137   5.240 -0.2233  0.6163  0.0249
20952WAT     H185613   4.834   8.057   5.198 -1.1037  0.7443  0.4629
20952WAT     H285614   4.900   8.108   5.325  1.7512  0.3215 -0.7607
20952WAT    EPW85615   4.867   8.122   5.245 -0.0792  0.5941 -0.0210
20953WAT      O85616   1.014  10.237   0.087  0.1987  0.1868 -0.0721
20953WAT     H185617   0.983  10.222   0.176  2.2895  0.4382  0.7317
20953WAT     H285618   0.961  10.177   0.034  1.0662 -2.3427  1.7297
20953WAT    EPW85619   1.003  10.227   0.092  0.5889 -0.1135  0.2716
20954WAT      O85620  -0.941   5.821   2.598  0.0813 -0.2912  0.0737
20954WAT     H185621  -0.998   5.887   2.637  0.2859  0.8108 -1.4307
20954WAT     H285622  -0.992   5.740   2.604 -2.9133  1.0425 -3.5419
20954WAT    EPW85623  -0.955   5.819   2.604 -0.2867  0.0300 -0.6015
20955WAT      O85624   5.042   9.034   1.720  0.2650 -0.3596  0.0826
20955WAT     H185625   5.000   9.054   1.803 -0.3024 -0.8598 -0.0841
20955WAT     H285626   4.976   8.987   1.670 -0.4625  2.3254 -1.7491
20955WAT    EPW85627   5.028   9.031   1.724  0.0944 -0.0710 -0.1810
20956WAT      O85628  -0.345   9.421   6.004  0.6367  0.4312 -0.4198
20956WAT     H185629  -0.421   9.362   6.008 -0.6510  1.9997 -0.8195
20956WAT     H285630  -0.270   9.362   5.995 -0.3529 -1.2606  1.5446
20956WAT    EPW85631  -0.345   9.406   6.003  0.3363  0.4148 -0.2131
20957WAT      O85632  -3.704   9.318   8.932 -0.6328  1.1116 -0.3199
20957WAT     H185633  -3.781   9.371   8.950 -1.5369 -0.2366 -0.0420
20957WAT     H285634  -3.735   9.252   8.869  0.4606  0.9572 -0.7133
20957WAT    EPW85635  -3.718   9.316   8.926 -0.6078  0.9136 -0.3352
20958WAT      O85636   4.352   8.776   4.029  0.0804 -0.1448 -0.3558
20958WAT     H185637   4.374   8.705   3.968  2.3667  0.0404  0.1349
20958WAT     H285638   4.399   8.753   4.110 -0.4281  1.1184  0.3323
20958WAT    EPW85639   4.361   8.764   4.032  0.3147  0.0463 -0.2005
20959WAT      O85640   0.930   0.589   4.093 -0.1589 -0.0858 -0.2022
20959WAT     H185641   0.979   0.547   4.164 -2.4299 -1.3254  0.7323
20959WAT     H285642   0.963   0.678   4.091 -0.1090  0.0524  2.5603
20959WAT    EPW85643   0.941   0.595   4.102 -0.4518 -0.2311  0.2856
20960WAT      O85644   7.799   1.604   1.766  0.0542 -0.0015  0.4201
20960WAT     H185645   7.878   1.657   1.781 -0.2795 -0.1012  3.0334
20960WAT     H285646   7.738   1.665   1.724  0.0909  1.4232  2.2909
20960WAT    EPW85647   7.802   1.619   1.762  0.0150  0.1733  1.0116
20961WAT      O85648   1.056   9.010   4.379  0.1430  0.1395 -0.2661
20961WAT     H185649   0.973   8.966   4.358  0.7098 -1.3932  0.5910
20961WAT     H285650   1.059   9.084   4.318 -1.3232 -0.4152 -1.0748
20961WAT    EPW85651   1.045   9.014   4.368  0.0244 -0.1359 -0.2596
20962WAT      O85652   6.799   2.303   1.234 -0.3677  0.2601  0.0396
20962WAT     H185653   6.884   2.260   1.233 -0.9477 -0.9528  0.4486
20962WAT     H285654   6.758   2.272   1.315 -1.7650 -0.3464 -0.8562
20962WAT    EPW85655   6.805   2.293   1.245 -0.6285  0.0201 -0.0246
20963WAT      O85656  -1.173   5.487   0.031  0.3308 -0.4092  0.3890
20963WAT     H185657  -1.213   5.407  -0.003 -0.2229  0.7259 -1.8031
20963WAT     H285658  -1.086   5.490  -0.010  0.4209  0.0240  0.6037
20963WAT    EPW85659  -1.167   5.477   0.021  0.2699 -0.2024  0.1283
20964WAT      O85660  -0.358   5.732   0.702  0.1909  0.7541  0.3693
20964WAT     H185661  -0.335   5.799   0.766  2.2081 -0.3623  0.9128
20964WAT     H285662  -0.304   5.656   0.727  0.1309 -0.1168 -1.9359
20964WAT    EPW85663  -0.348   5.731   0.714  0.4491  0.4921  0.1370
20965WAT      O85664   0.660   4.629   4.635  0.5649 -0.6346  0.0838
20965WAT     H185665   0.693   4.713   4.603 -0.6440 -0.5968 -1.1771
20965WAT     H285666   0.730   4.595   4.690  0.5683  1.8190  1.7712
20965WAT    EPW85667   0.673   4.636   4.638  0.4059 -0.3061  0.1402
20966WAT      O85668   5.626   4.408   5.821 -0.2509  0.0221  0.0127
20966WAT     H185669   5.608   4.478   5.758 -0.1286  0.1020  0.0671
20966WAT     H285670   5.700   4.440   5.872 -0.6848  0.1948  0.5540
20966WAT    EPW85671   5.633   4.422   5.819 -0.2918  0.0556  0.0913
20967WAT      O85672   5.413   6.604   1.902 -0.5714 -0.1199  0.3024
20967WAT     H185673   5.342   6.649   1.855 -1.0290 -1.3635 -0.2368
20967WAT     H285674   5.475   6.674   1.923  1.2152  0.2722 -4.7489
20967WAT    EPW85675   5.412   6.619   1.898 -0.3963 -0.2322 -0.4350
20968WAT      O85676   2.946   2.280   7.734 -0.0346  0.0213 -0.8311
20968WAT     H185677   2.870   2.302   7.679 -1.3628 -0.9889  0.4987
20968WAT     H285678   2.972   2.363   7.773 -1.0215  0.2611 -0.6514
20968WAT    EPW85679   2.939   2.294   7.732 -0.3399 -0.0805 -0.6320
20969WAT      O85680   5.067  10.092   0.303  0.1063  0.1369 -0.3824
20969WAT     H185681   4.997  10.154   0.326  0.4176  0.1716  0.4960
20969WAT     H285682   5.090  10.115   0.213  0.4379  1.5313  0.0225
20969WAT    EPW85683   5.061  10.103   0.294  0.1910  0.3257 -0.2131
20970WAT      O85684   2.152   8.130   3.583  0.2143 -0.0337 -0.4557
20970WAT     H185685   2.076   8.188   3.592  1.8963  2.0875  1.2963
20970WAT     H285686   2.221   8.188   3.550  1.5724 -1.4250 -0.1423
20970WAT    EPW85687   2.151   8.146   3.580  0.6152  0.0625 -0.1833
20971WAT      O85688  -3.531   9.579   4.149  0.3404  0.1796  0.5689
20971WAT     H185689  -3.599   9.512   4.139 -0.0107  0.6284 -0.0985
20971WAT     H285690  -3.476   9.570   4.072 -0.4097  1.4350 -0.1451
20971WAT    EPW85691  -3.533   9.569   4.138  0.1951  0.4044  0.3867
20972WAT      O85692   0.179   9.429   7.352 -0.5349 -0.1836 -0.4825
20972WAT     H185693   0.260   9.378   7.362 -0.7877 -0.0742  3.7773
20972WAT     H285694   0.188   9.501   7.415 -2.6109  1.7895 -2.2836
20972WAT    EPW85695   0.191   9.432   7.362 -0.8420  0.0911 -0.1583
20973WAT      O85696   3.371   4.376   4.507 -0.2604 -0.0193 -0.0207
20973WAT     H185697   3.388   4.434   4.582 -1.3699 -0.5339  0.6628
20973WAT     H285698   3.324   4.431   4.444 -0.8793 -0.0226  0.4219
20973WAT    EPW85699   3.367   4.391   4.509 -0.4883 -0.0875  0.1278
20974WAT      O85700   2.293   3.769   2.668 -0.2352 -0.4678  0.4007
20974WAT     H185701   2.337   3.842   2.711  0.5992 -1.7546  1.8707
20974WAT     H285702   2.365   3.717   2.631 -0.8950  0.2745 -2.1598
20974WAT    EPW85703   2.309   3.772   2.669 -0.2122 -0.5397  0.2568
20975WAT      O85704   5.761   4.910   1.212  0.5423 -0.0028 -0.3337
20975WAT     H185705   5.769   4.815   1.213 -1.0311 -0.2132 -2.2076
20975WAT     H285706   5.746   4.932   1.120 -1.7116  1.7946  0.3794
20975WAT    EPW85707   5.760   4.900   1.200  0.0377  0.2065 -0.4867
20976WAT      O85708   1.526   8.949   4.609  0.0199 -0.0862  0.0778
20976WAT     H185709   1.605   8.945   4.663  1.1563  1.3458 -1.3618
20976WAT     H285710   1.544   8.889   4.536  0.9244  2.0069 -1.5461
20976WAT    EPW85711   1.539   8.940   4.606  0.2891  0.3786 -0.3262
20977WAT      O85712  -7.966   9.809   8.448 -0.1478  1.0862  0.4689
20977WAT     H185713  -8.042   9.762   8.413 -0.2071  0.9596  0.7624
20977WAT     H285714  -7.938   9.867   8.377 -0.0434  0.5689  0.0802
20977WAT    EPW85715  -7.972   9.810   8.434 -0.1421  1.0014  0.4559
20978WAT      O85716   4.027   1.465   0.536 -0.0689 -0.5763 -0.0524
20978WAT     H185717   3.985   1.382   0.512 -3.3934  0.3968  1.7416
20978WAT     H285718   4.044   1.456   0.630 -0.1035  0.6396  0.0794
20978WAT    EPW85719   4.024   1.453   0.546 -0.5119 -0.2875  0.2016
20979WAT      O85720   4.304   0.395   3.678  0.2101  0.0834 -0.1778
20979WAT     H185721   4.300   0.350   3.594 -0.3753  0.6239 -0.4451
20979WAT     H285722   4.377   0.353   3.724  0.3561 -0.4042 -0.8404
20979WAT    EPW85723   4.313   0.383   3.673  0.1521  0.0904 -0.3004
20980WAT      O85724   5.182   4.534   1.654 -0.9744  0.3256 -0.3215
20980WAT     H185725   5.184   4.534   1.558 -0.6743  1.6405 -0.3382
20980WAT     H285726   5.238   4.460   1.679  0.7764  1.3012 -1.1678
20980WAT    EPW85727   5.190   4.524   1.645 -0.7038  0.6280 -0.4354
20981WAT      O85728  -4.483   8.637   7.426 -0.7925 -0.1764 -0.1446
20981WAT     H185729  -4.475   8.676   7.513 -0.3835 -0.4346 -0.0678
20981WAT     H285730  -4.445   8.701   7.367 -0.4627 -0.2941 -0.0596
20981WAT    EPW85731  -4.477   8.650   7.430 -0.6950 -0.2260 -0.1233
20982WAT      O85732  -4.042   9.969   3.450  1.0740  1.1326  0.3834
20982WAT     H185733  -4.024   9.925   3.367 -1.1133 -2.3304  1.5527
20982WAT     H285734  -3.979   9.930   3.512  0.1356  0.7740  1.1313
20982WAT    EPW85735  -4.031   9.958   3.447  0.6616  0.6285  0.6362
20983WAT      O85736  -0.479   6.405   0.293 -0.4919  0.4079 -0.2863
20983WAT     H185737  -0.510   6.351   0.221 -1.0917  0.7312 -0.2827
20983WAT     H285738  -0.536   6.382   0.367  0.4519 -0.2990  0.2411
20983WAT    EPW85739  -0.491   6.395   0.293 -0.4466  0.3574 -0.2163
20984WAT      O85740   1.201   7.238   8.785  0.5723 -0.5300 -0.4673
20984WAT     H185741   1.224   7.331   8.796  0.2634 -0.1447 -2.6938
20984WAT     H285742   1.105   7.238   8.782  0.5645 -0.9665 -0.3103
20984WAT    EPW85743   1.191   7.251   8.786  0.5305 -0.5367 -0.7405
20985WAT      O85744   5.862   0.462   2.347  0.6189  0.9517  0.1969
20985WAT     H185745   5.875   0.507   2.430  2.4176 -1.0343  1.0675
20985WAT     H285746   5.864   0.369   2.368 -1.7857  0.3433 -1.7027
20985WAT    EPW85747   5.864   0.456   2.361  0.5388  0.6095  0.0613
20986WAT      O85748  -1.243   7.535   1.156 -0.2833 -0.1561 -0.2562
20986WAT     H185749  -1.265   7.592   1.230 -1.6014  0.4528 -1.0864
20986WAT     H285750  -1.321   7.536   1.101 -0.6640 -3.3466  0.0282
20986WAT    EPW85751  -1.257   7.543   1.159 -0.5074 -0.4964 -0.3282
20987WAT      O85752   4.861   4.194   7.170  0.7375 -0.2853 -0.2610
20987WAT     H185753   4.780   4.176   7.218  1.3657 -3.3394 -0.1558
20987WAT     H285754   4.925   4.217   7.238 -0.0368  2.6190 -0.3815
20987WAT    EPW85755   4.859   4.194   7.185  0.7181 -0.3052 -0.2630
20988WAT      O85756  -0.264   4.378   3.946  0.3859 -0.0272 -0.4475
20988WAT     H185757  -0.263   4.460   3.996 -2.4104 -0.9559  1.3747
20988WAT     H285758  -0.185   4.332   3.975  0.5350  0.8600  0.6481
20988WAT    EPW85759  -0.254   4.383   3.956  0.0368 -0.0327 -0.0627
20989WAT      O85760   6.957   4.074   2.250 -0.1902  0.1264  0.0951
20989WAT     H185761   6.958   4.156   2.299  0.3680 -0.6233  1.3682
20989WAT     H285762   6.904   4.015   2.303  0.1253 -0.6062 -0.3909
20989WAT    EPW85763   6.950   4.077   2.263 -0.0749 -0.0691  0.1990
20990WAT      O85764   4.841   1.052   4.767 -0.4140 -0.2866 -0.5392
20990WAT     H185765   4.828   1.111   4.841  1.2485  0.4283 -0.7682
20990WAT     H285766   4.777   0.982   4.780  0.9689 -1.1414  2.5762
20990WAT    EPW85767   4.831   1.051   4.778 -0.0124 -0.3051 -0.1585
20991WAT      O85768   0.668   9.138   1.892 -0.0936 -0.0297  0.2541
20991WAT     H185769   0.682   9.214   1.948 -1.8374  0.9720 -0.6053
20991WAT     H285770   0.721   9.156   1.814  1.0484 -0.6659  0.8501
20991WAT    EPW85771   0.677   9.150   1.889 -0.1729  0.0186  0.2194
20992WAT      O85772   4.510   6.980   0.351  0.5027 -0.2252 -0.2269
20992WAT     H185773   4.491   6.985   0.444  2.9623 -2.2058  0.4671
20992WAT     H285774   4.476   6.895   0.324  1.6057 -0.5421 -0.6563
20992WAT    EPW85775   4.503   6.970   0.359  0.9727 -0.5281 -0.1920
20993WAT      O85776   7.454   4.939   2.400  0.3120  1.5204 -0.5156
20993WAT     H185777   7.512   5.015   2.395 -0.4308  2.2507  1.1338
20993WAT     H285778   7.401   4.954   2.478  0.3430 -0.8810  0.0378
20993WAT    EPW85779   7.454   4.951   2.409  0.2182  1.3001 -0.2251
20994WAT      O85780   1.739  10.313   3.143  0.0952 -0.1039  0.3215
20994WAT     H185781   1.757  10.346   3.231  0.3272  1.2703 -0.2017
20994WAT     H285782   1.651  10.344   3.123  0.9281  1.8001 -0.8160
20994WAT    EPW85783   1.730  10.322   3.152  0.2356  0.3281  0.1024
20995WAT      O85784  -4.335   4.583   5.620  0.2276 -0.3960  1.0119
20995WAT     H185785  -4.397   4.610   5.688 -0.9706 -0.0830 -0.1465
20995WAT     H285786  -4.321   4.490   5.635  4.3015  0.4910  4.9920
20995WAT    EPW85787  -4.341   4.574   5.631  0.6068 -0.2377  1.3840
20996WAT      O85788   8.981   0.193   2.690 -0.0112 -0.1167 -0.1169
20996WAT     H185789   9.023   0.268   2.733  0.7890 -0.8541  0.4189
20996WAT     H285790   8.981   0.215   2.597 -2.9758  2.1204  0.2531
20996WAT    EPW85791   8.986   0.206   2.684 -0.2966  0.0811  0.0025
20997WAT      O85792  -2.706   9.934   5.903  0.2346  0.1770 -0.0205
20997WAT     H185793  -2.676   9.970   5.820 -3.3389  0.4467 -1.3743
20997WAT     H285794  -2.695  10.006   5.966  1.7909  0.3934 -0.4960
20997WAT    EPW85795  -2.700   9.948   5.901 -0.0315  0.2408 -0.2618
20998WAT      O85796  -0.318   1.267   6.055 -0.5281  0.2017 -0.3494
20998WAT     H185797  -0.257   1.226   6.116 -0.5732  1.6423  0.7291
20998WAT     H285798  -0.269   1.339   6.016 -1.5683  1.5744  0.7547
20998WAT    EPW85799  -0.304   1.271   6.058 -0.6712  0.5727 -0.0618
20999WAT      O85800   1.920   6.631   4.970  0.7200  0.0332 -0.2207
20999WAT     H185801   1.985   6.701   4.964  0.4132  0.2509 -1.0357
20999WAT     H285802   1.968   6.558   5.011  1.2732  0.4328 -0.1455
20999WAT    EPW85803   1.935   6.630   4.975  0.7524  0.1147 -0.3181
21000WAT      O85804  -2.800   1.691   4.559  0.0185 -0.2216 -0.3921
21000WAT     H185805  -2.742   1.765   4.573 -0.1557 -0.3489  1.1948
21000WAT     H285806  -2.757   1.618   4.603 -0.2040 -0.8714 -1.2425
21000WAT    EPW85807  -2.787   1.691   4.567 -0.0339 -0.3241 -0.2952
21001WAT      O85808   4.518   1.500   4.762  0.7998 -0.4690  0.2580
21001WAT     H185809   4.493   1.425   4.708  0.5503  3.3041 -5.7157
21001WAT     H285810   4.605   1.525   4.730  0.5514  2.2351  1.4235
21001WAT    EPW85811   4.526   1.493   4.751  0.7341  0.3853 -0.3760
21002WAT      O85812   0.203   3.040   0.400  0.2094 -0.1036 -0.1506
21002WAT     H185813   0.253   2.965   0.367 -1.2203 -0.7847 -0.8875
21002WAT     H285814   0.238   3.114   0.351 -0.7276 -0.8525 -2.0859
21002WAT    EPW85815   0.214   3.040   0.389 -0.1027 -0.2923 -0.5030
21003WAT      O85816   0.827   9.921   5.395 -0.1531 -0.9437  0.3220
21003WAT     H185817   0.866   9.988   5.451 -1.6892 -0.3016  0.6831
21003WAT     H285818   0.816   9.845   5.453  0.0880 -0.9592  0.3491
21003WAT    EPW85819   0.830   9.920   5.410 -0.3239 -0.8612  0.3731
21004WAT      O85820   2.197   7.760   6.801  0.0864  0.3567 -0.1965
21004WAT     H185821   2.146   7.786   6.724  0.2369 -0.3179 -0.5282
21004WAT     H285822   2.288   7.770   6.774  0.1493 -0.5266 -0.3434
21004WAT    EPW85823   2.203   7.765   6.787  0.1146  0.1512 -0.2596
21005WAT      O85824   1.879   3.616   0.388  0.1023 -0.5399  0.1072
21005WAT     H185825   1.923   3.660   0.461  3.0976 -1.3503 -1.0643
21005WAT     H285826   1.850   3.532   0.426 -1.3827  0.3894  1.1347
21005WAT    EPW85827   1.881   3.611   0.403  0.3015 -0.5242  0.0882
21006WAT      O85828   4.660   2.000   1.274  0.2486  0.4692 -0.0745
21006WAT     H185829   4.740   2.026   1.229 -0.4202  0.7027 -1.1640
21006WAT     H285830   4.607   1.957   1.207 -0.1818 -0.4889  0.8410
21006WAT    EPW85831   4.663   1.998   1.259  0.1035  0.3737 -0.0975
21007WAT      O85832   0.725   7.499   5.453 -0.6458  0.2757  0.1459
21007WAT     H185833   0.693   7.570   5.509 -1.6116 -0.9498  1.1894
21007WAT     H285834   0.819   7.496   5.472 -0.4817  1.6007 -0.3158
21007WAT    EPW85835   0.733   7.508   5.463 -0.7516  0.2890  0.2227
21008WAT      O85836  -0.322   0.796   5.717 -0.0513 -0.5187  0.1937
21008WAT     H185837  -0.278   0.793   5.633 -1.1369 -2.8155 -0.3745
21008WAT     H285838  -0.294   0.717   5.762  0.9146  0.9158  2.2702
21008WAT    EPW85839  -0.313   0.785   5.712 -0.0671 -0.6325  0.3927
21009WAT      O85840   2.618   6.227   5.364 -0.0632  0.0554  0.5101
21009WAT     H185841   2.615   6.136   5.394 -0.0901  0.0553  0.5070
21009WAT     H285842   2.607   6.220   5.269  1.4235 -0.0513  0.3256
21009WAT    EPW85843   2.616   6.214   5.355  0.1293  0.0412  0.4852
21010WAT      O85844   2.277   2.497   4.610 -0.0595 -0.7306 -0.3062
21010WAT     H185845   2.287   2.407   4.640  0.2868 -1.1076 -1.4984
21010WAT     H285846   2.297   2.550   4.687  0.9269 -1.6513  0.1011
21010WAT    EPW85847   2.281   2.492   4.624  0.1162 -0.9018 -0.4096
21011WAT      O85848  -4.149   2.494   7.863  0.7539 -0.2169 -0.0586
21011WAT     H185849  -4.208   2.421   7.884  1.7759 -0.7261  1.1676
21011WAT     H285850  -4.115   2.473   7.776 -0.5735 -0.0965 -0.6268
21011WAT    EPW85851  -4.152   2.481   7.854  0.7136 -0.2682  0.0284
21012WAT      O85852  -2.318   7.028   2.807  0.0143 -0.2239  0.5552
21012WAT     H185853  -2.391   6.985   2.851 -1.2157  0.2508 -0.9438
21012WAT     H285854  -2.331   7.121   2.822  0.3851 -0.1375  0.3756
21012WAT    EPW85855  -2.329   7.035   2.815 -0.0991 -0.1500  0.3337
21013WAT      O85856   7.361   1.082   2.969 -0.1214 -0.5246  0.0838
21013WAT     H185857   7.437   1.046   3.014  0.9489 -1.0141 -1.9904
21013WAT     H285858   7.397   1.146   2.909 -1.6240  0.9881  0.7287
21013WAT    EPW85859   7.375   1.085   2.967 -0.1786 -0.3896 -0.1047
21014WAT      O85860  -1.475   1.966   6.910  0.0246 -0.1097 -0.1278
21014WAT     H185861  -1.551   1.918   6.942  0.1123 -0.4522 -0.4230
21014WAT     H285862  -1.437   1.909   6.843 -0.0973  0.5456 -0.7704
21014WAT    EPW85863  -1.480   1.953   6.905  0.0201 -0.0685 -0.2518
21015WAT      O85864   2.912   6.308   5.525  0.3784  0.0975  0.0130
21015WAT     H185865   2.832   6.337   5.569  0.1554 -0.7507  0.1889
21015WAT     H285866   2.981   6.315   5.591 -0.1306 -2.1089  0.8725
21015WAT    EPW85867   2.911   6.313   5.539  0.2818 -0.3054  0.1495
21016WAT      O85868  -0.003   4.975   1.311  0.0397 -0.2965 -0.3443
21016WAT     H185869  -0.002   4.883   1.283  0.7894  0.0156 -1.4093
21016WAT     H285870  -0.090   4.987   1.351 -1.2409 -0.7044 -2.8319
21016WAT    EPW85871  -0.014   4.965   1.313 -0.0304 -0.3090 -0.8129
21017WAT      O85872   3.769   8.129   3.272 -0.1681 -0.3405  0.1929
21017WAT     H185873   3.779   8.153   3.179  0.7427 -1.0881  0.0827
21017WAT     H285874   3.752   8.212   3.316 -2.5186 -0.1779 -0.8584
21017WAT    EPW85875   3.768   8.143   3.265 -0.3581 -0.4177  0.0397
21018WAT      O85876   5.459   3.005   3.675 -0.4947  0.0449 -0.7658
21018WAT     H185877   5.417   2.923   3.650 -0.3353  0.4305 -2.4361
21018WAT     H285878   5.553   2.988   3.668 -0.4532  0.2404 -0.7048
21018WAT    EPW85879   5.466   2.992   3.670 -0.4683  0.1215 -0.9781
21019WAT      O85880   1.990   0.384   3.295  0.3568  0.4818 -0.1663
21019WAT     H185881   1.960   0.336   3.372 -2.1399  0.7780 -0.8476
21019WAT     H285882   1.948   0.470   3.302  0.1086  0.5411 -1.7911
21019WAT    EPW85883   1.980   0.389   3.306 -0.0052  0.5287 -0.4705
21020WAT      O85884   0.388   3.899   7.687 -0.6791 -0.8582  0.3638
21020WAT     H185885   0.392   3.835   7.758 -1.9420 -0.7226  0.5833
21020WAT     H285886   0.372   3.982   7.731  1.1168 -0.3209  0.0944
21020WAT    EPW85887   0.387   3.901   7.702 -0.6088 -0.7695  0.3574
21021WAT      O85888   3.589   4.016   0.308  0.3620  0.0366  0.2157
21021WAT     H185889   3.509   3.964   0.315  0.7482 -0.6659 -0.4846
21021WAT     H285890   3.576   4.087   0.371 -0.6659 -0.2526  0.3551
21021WAT    EPW85891   3.577   4.018   0.317  0.2774 -0.0942  0.1417
21022WAT      O85892   3.802   7.895   0.481  0.6983 -0.6425 -0.3043
21022WAT     H185893   3.879   7.929   0.435  0.2134  0.7181 -0.1301
21022WAT     H285894   3.727   7.934   0.437  0.1323 -1.2181  0.1244
21022WAT    EPW85895   3.803   7.904   0.469  0.5598 -0.5388 -0.2248
21023WAT      O85896  -1.533   2.998   8.686 -0.0932 -0.2739  0.3408
21023WAT     H185897  -1.620   3.030   8.708  0.0700 -0.5433  1.4897
21023WAT     H285898  -1.497   2.968   8.770  2.3355  2.7462  0.5430
21023WAT    EPW85899  -1.539   2.998   8.700  0.2487  0.0889  0.5188
21024WAT      O85900  -1.435   9.064   3.975 -0.1366 -0.0678 -0.3233
21024WAT     H185901  -1.515   9.013   3.978  0.6229 -1.7106 -3.4078
21024WAT     H285902  -1.365   8.998   3.972  1.1207  1.2350 -0.7633
21024WAT    EPW85903  -1.436   9.048   3.975  0.1294 -0.1125 -0.7882
21025WAT      O85904  -0.613   2.808   6.105 -0.5089  0.3616  0.3452
21025WAT     H185905  -0.680   2.757   6.059  1.2771 -2.2496  0.4322
21025WAT     H285906  -0.544   2.822   6.041  0.1811  0.3558  1.0610
21025WAT    EPW85907  -0.613   2.803   6.091 -0.1823  0.0165  0.4508
21026WAT      O85908   0.535  10.219   1.846 -0.2317 -0.1160 -0.1142
21026WAT     H185909   0.459  10.271   1.872 -0.8557 -0.8399 -0.4346
21026WAT     H285910   0.605  10.282   1.836 -1.2769  0.8595 -1.7678
21026WAT    EPW85911   0.534  10.234   1.848 -0.4519 -0.0825 -0.3746
21027WAT      O85912  -2.158   7.217   7.544 -0.2617 -0.0052  1.1660
21027WAT     H185913  -2.163   7.313   7.546 -1.8109 -0.0594  1.6406
21027WAT     H285914  -2.070   7.198   7.514 -0.4853  1.6001 -0.7321
21027WAT    EPW85915  -2.147   7.227   7.540 -0.4954  0.1996  0.9782
21028WAT      O85916  -0.803   5.281   5.214 -0.1631 -0.8050 -0.6153
21028WAT     H185917  -0.842   5.369   5.211 -0.2625 -0.8458 -3.1519
21028WAT     H285918  -0.878   5.222   5.224 -0.0592 -0.6417  1.5588
21028WAT    EPW85919  -0.818   5.285   5.215 -0.1625 -0.7887 -0.6630
21029WAT      O85920  -1.375   4.860   3.509  0.1780 -0.1767  0.4854
21029WAT     H185921  -1.299   4.900   3.551 -0.3097 -0.6560  1.8565
21029WAT     H285922  -1.391   4.781   3.559 -0.7517 -0.4965 -0.2922
21029WAT    EPW85923  -1.367   4.855   3.521 -0.0089 -0.2820  0.5637
21030WAT      O85924  -1.057   5.010   5.722 -0.0247  0.4192 -0.4152
21030WAT     H185925  -1.104   4.938   5.765 -1.6884  1.1119 -0.9816
21030WAT     H285926  -0.988   4.968   5.671 -0.1174 -0.6571  0.3255
21030WAT    EPW85927  -1.054   4.995   5.721 -0.2564  0.3686 -0.3922
21031WAT      O85928   5.101   0.533   6.049 -0.5886  0.5422 -0.2614
21031WAT     H185929   5.117   0.574   6.133 -0.8516  0.9802 -0.4195
21031WAT     H285930   5.039   0.592   6.005  0.5627  1.0510 -1.3018
21031WAT    EPW85931   5.095   0.546   6.054 -0.4714  0.6671 -0.4196
21032WAT      O85932   4.885   1.954   1.782  0.0252 -0.0109 -0.3616
21032WAT     H185933   4.797   1.951   1.745  0.2619  2.6361 -1.3730
21032WAT     H285934   4.940   1.986   1.711  1.3905  0.5273  0.8844
21032WAT    EPW85935   4.881   1.958   1.768  0.2367  0.4092 -0.3306
21033WAT      O85936  -1.799   9.524   8.366 -0.6734  0.1748 -0.5568
21033WAT     H185937  -1.806   9.565   8.452 -0.7108 -2.5405  0.8350
21033WAT     H285938  -1.705   9.508   8.355 -0.7779 -0.5056 -0.4928
21033WAT    EPW85939  -1.787   9.527   8.376 -0.6921 -0.2732 -0.3648
21034WAT      O85940   3.782   3.687   3.104  0.6835 -0.5292  0.0979
21034WAT     H185941   3.720   3.744   3.059 -0.5427 -1.0885  1.0352
21034WAT     H285942   3.868   3.723   3.081  0.1512 -0.9038 -2.8280
21034WAT    EPW85943   3.786   3.699   3.095  0.4516 -0.6523 -0.1644
21035WAT      O85944   1.103   7.366   8.310  0.3527 -0.0951 -0.0318
21035WAT     H185945   1.144   7.288   8.347 -1.9656 -0.3163  2.3821
21035WAT     H285946   1.112   7.355   8.215  2.1400 -2.0863  0.2776
21035WAT    EPW85947   1.110   7.354   8.302  0.2826 -0.3870  0.3271
21036WAT      O85948  -1.636   4.029   5.497  0.3519  0.1988  0.5003
21036WAT     H185949  -1.553   4.075   5.482  0.8723 -0.8928 -0.0764
21036WAT     H285950  -1.631   3.951   5.441 -1.7872  0.9341 -0.8267
21036WAT    EPW85951  -1.624   4.025   5.488  0.1385  0.1519  0.2494
21037WAT      O85952  -0.263   8.981   5.527  0.6755  0.2435 -0.3733
21037WAT     H185953  -0.203   9.026   5.587 -0.6343  2.0733 -0.3667
21037WAT     H285954  -0.328   9.048   5.503  0.4178 -0.7847 -2.8276
21037WAT    EPW85955  -0.264   8.996   5.532  0.4687  0.3495 -0.6962
21038WAT      O85956   1.792   3.053   6.420  0.8782 -0.0256  0.0400
21038WAT     H185957   1.850   2.978   6.411  3.0115  1.6500 -1.1393
21038WAT     H285958   1.816   3.093   6.503  0.6279  0.0588  0.0725
21038WAT    EPW85959   1.803   3.048   6.430  1.1265  0.2064 -0.1111
21039WAT      O85960   1.016   0.170   2.127  0.3888  0.4385 -0.1467
21039WAT     H185961   0.938   0.205   2.085 -0.1366  2.2227  2.0926
21039WAT     H285962   1.081   0.241   2.122  0.8995  0.0334  0.4591
21039WAT    EPW85963   1.015   0.184   2.121  0.3869  0.6204  0.2284
21040WAT      O85964  -5.080   5.538   8.539 -0.7055  0.0296  0.2007
21040WAT     H185965  -5.017   5.513   8.606 -1.1552 -2.2619 -0.1466
21040WAT     H285966  -5.165   5.531   8.583 -0.9591 -0.8928 -0.4077
21040WAT    EPW85967  -5.083   5.534   8.554 -0.7982 -0.3943  0.0744
21041WAT      O85968   0.950   9.815   0.386 -0.6321 -0.0273  0.4184
21041WAT     H185969   0.934   9.731   0.430 -1.9785 -0.4536 -0.8188
21041WAT     H285970   0.894   9.877   0.433  1.1375  0.4497  2.0064
21041WAT    EPW85971   0.941   9.812   0.398 -0.5763 -0.0205  0.4647
21042WAT      O85972   2.414   8.541   7.848 -0.0388 -0.3882 -0.2871
21042WAT     H185973   2.457   8.626   7.858 -1.8542  0.4179  1.0902
21042WAT     H285974   2.365   8.529   7.929 -0.7086 -2.2550 -0.9198
21042WAT    EPW85975   2.413   8.551   7.860 -0.3666 -0.5279 -0.1888
21043WAT      O85976  -3.110   1.490   6.254  0.5636  0.3815 -0.5014
21043WAT     H185977  -3.132   1.490   6.161  0.2090  0.0859 -0.4207
21043WAT     H285978  -3.015   1.498   6.257  0.4788  1.9598 -0.8644
21043WAT    EPW85979  -3.101   1.491   6.242  0.5057  0.5507 -0.5386
21044WAT      O85980   8.161   5.930   0.203 -0.2846 -0.2553 -0.6019
21044WAT     H185981   8.115   5.848   0.188  2.0498 -1.3399 -2.5461
21044WAT     H285982   8.183   5.962   0.115 -0.2744  1.9785  0.1325
21044WAT    EPW85983   8.158   5.924   0.189  0.0243 -0.1037 -0.7614
21045WAT      O85984   1.642   2.561   8.685  0.0053 -0.2532 -0.0635
21045WAT     H185985   1.572   2.516   8.732 -0.6806 -1.2249 -1.9222
21045WAT     H285986   1.604   2.643   8.655 -0.4467 -0.8716 -1.2482
21045WAT    EPW85987   1.628   2.566   8.687 -0.1448 -0.4630 -0.4649
21046WAT      O85988  -5.078   8.367   4.260 -0.1145  0.3250 -0.5275
21046WAT     H185989  -5.088   8.286   4.210 -1.1919  1.5771 -2.4568
21046WAT     H285990  -5.018   8.420   4.207 -0.6508  1.3929 -0.0886
21046WAT    EPW85991  -5.071   8.363   4.247 -0.3273  0.6304 -0.7241
21047WAT      O85992   3.830   0.712   4.997  0.0655 -0.3593  0.1747
21047WAT     H185993   3.887   0.636   4.983  0.4452 -0.0653  0.1302
21047WAT     H285994   3.861   0.750   5.079  0.8593  0.6209 -0.5551
21047WAT    EPW85995   3.842   0.707   5.006  0.2202 -0.1912  0.0725
21048WAT      O85996   0.776   9.777   8.598  0.5178 -0.7012  0.1784
21048WAT     H185997   0.726   9.843   8.646 -1.2041 -1.0245 -1.0938
21048WAT     H285998   0.717   9.702   8.590  1.0853 -1.0137 -1.5740
21048WAT    EPW85999   0.762   9.776   8.603  0.3655 -0.7849 -0.2203
21049WAT      O86000  -4.592   9.544   5.196  0.3925 -0.1860  0.8682
21049WAT     H186001  -4.575   9.638   5.200  1.4194 -0.3240  0.1791
21049WAT     H286002  -4.681   9.534   5.231  0.2128  1.0546  0.8112
21049WAT    EPW86003  -4.602   9.555   5.201  0.5043 -0.0405  0.7696
21050WAT      O86004   0.422  10.173   7.698 -0.5997 -0.9045 -0.2631
21050WAT     H186005   0.365  10.163   7.621 -1.5278 -0.0761  0.3007
21050WAT     H286006   0.510  10.154   7.664 -1.0835 -1.3078 -1.3582
21050WAT    EPW86007   0.426  10.169   7.683 -0.7859 -0.8483 -0.3331
21051WAT      O86008  -5.931   8.287   8.100 -0.5142  0.5517  0.1363
21051WAT     H186009  -5.897   8.239   8.024 -0.0181 -0.8632  1.2142
21051WAT     H286010  -5.973   8.220   8.154  1.4103  1.0475  2.3898
21051WAT    EPW86011  -5.932   8.272   8.097 -0.1950  0.4306  0.5755
21052WAT      O86012  -0.528   3.189   0.527 -0.4722  0.3310 -0.0144
21052WAT     H186013  -0.604   3.191   0.586 -0.8976  1.1655 -0.5758
21052WAT     H286014  -0.565   3.177   0.440  0.0650  0.4901 -0.2659
21052WAT    EPW86015  -0.543   3.188   0.524 -0.4575  0.4621 -0.1217
21053WAT      O86016  -2.903   4.045   5.387 -0.4036  0.4101 -0.6411
21053WAT     H186017  -2.944   3.970   5.342 -0.4397 -0.2822  0.5064
21053WAT     H286018  -2.812   4.018   5.401 -0.9705 -0.4787  1.8962
21053WAT    EPW86019  -2.896   4.031   5.383 -0.4832  0.2015 -0.1547
21054WAT      O86020  -1.299   8.717   6.135 -0.0904 -0.1770 -0.2284
21054WAT     H186021  -1.320   8.782   6.069 -0.3739 -0.7551 -0.7186
21054WAT     H286022  -1.316   8.761   6.218  0.2130  0.5351 -0.5370
21054WAT    EPW86023  -1.304   8.731   6.137 -0.0878 -0.1597 -0.3338
21055WAT      O86024  -4.699   2.983   8.850  0.0227  0.2971  0.0523
21055WAT     H186025  -4.757   2.911   8.874  2.2571 -1.4132  0.6410
21055WAT     H286026  -4.751   3.037   8.790 -1.6981 -1.8596 -0.5119
21055WAT    EPW86027  -4.714   2.981   8.845  0.0904 -0.2130  0.0553
21056WAT      O86028  -0.314   9.060   0.287  0.1404 -0.6897 -0.0757
21056WAT     H186029  -0.264   8.978   0.287  0.8917 -0.2459 -0.7099
21056WAT     H286030  -0.315   9.087   0.379 -1.1106 -1.9748  0.3425
21056WAT    EPW86031  -0.308   9.052   0.300  0.0745 -0.8006 -0.1042
21057WAT      O86032   1.583   8.103   3.653 -0.8573 -1.1794  0.1435
21057WAT     H186033   1.569   8.108   3.558 -0.6515 -2.4210  0.0265
21057WAT     H286034   1.674   8.074   3.661 -1.3502 -2.6876  0.6649
21057WAT    EPW86035   1.594   8.100   3.641 -0.8951 -1.5421  0.1969
21058WAT      O86036   0.997   6.457   8.395  0.1906 -0.0737 -0.0841
21058WAT     H186037   1.052   6.447   8.473  0.6382  3.5086  0.2481
21058WAT     H286038   0.924   6.513   8.424 -0.6784 -0.2574 -1.7868
21058WAT    EPW86039   0.995   6.463   8.409  0.1350  0.3746 -0.2646
21059WAT      O86040   1.690   6.353   4.076  0.1598 -0.6288 -0.6082
21059WAT     H186041   1.737   6.431   4.048  2.3734 -1.2525  1.0174
21059WAT     H286042   1.688   6.359   4.172  0.2010 -2.4078 -0.4563
21059WAT    EPW86043   1.696   6.364   4.085  0.4572 -0.9458 -0.3736
21060WAT      O86044   3.654   1.029   4.317 -0.4402  0.4065  0.6823
21060WAT     H186045   3.608   1.062   4.394 -0.7845  0.9009  0.2785
21060WAT     H286046   3.588   1.034   4.247 -0.7096 -1.7532  0.7324
21060WAT    EPW86047   3.639   1.034   4.318 -0.5212  0.1869  0.6359
21061WAT      O86048   2.368   6.241   5.476 -0.5008 -0.8957  0.1549
21061WAT     H186049   2.382   6.206   5.564  0.0545 -3.8149 -0.9887
21061WAT     H286050   2.456   6.261   5.444 -0.5103 -1.6348 -0.3724
21061WAT    EPW86051   2.382   6.239   5.483 -0.4288 -1.3781 -0.0656
21062WAT      O86052   4.525   9.511   4.210  0.2600  0.0099  0.1967
21062WAT     H186053   4.493   9.572   4.143 -2.8759 -0.7051  0.8600
21062WAT     H286054   4.464   9.438   4.207  0.5645 -0.5086  3.1381
21062WAT    EPW86055   4.513   9.510   4.201 -0.1132 -0.1526  0.6721
21063WAT      O86056   1.118   7.900   2.735 -0.0254  0.4880  0.0064
21063WAT     H186057   1.128   7.812   2.772  2.8753  1.7424  2.6770
21063WAT     H286058   1.045   7.938   2.783  0.3815  0.3485  0.7561
21063WAT    EPW86059   1.110   7.894   2.746  0.4108  0.6349  0.4575
21064WAT      O86060   0.286   4.830   8.426  0.4765  0.1503 -0.2064
21064WAT     H186061   0.242   4.757   8.383 -0.8739  0.3500  0.7800
21064WAT     H286062   0.290   4.898   8.359  1.5644 -0.7196 -1.0725
21064WAT    EPW86063   0.281   4.830   8.412  0.4418  0.0620 -0.1907
21065WAT      O86064  -0.985   6.697   0.283  0.0720  0.8777 -0.1759
21065WAT     H186065  -1.029   6.774   0.318 -1.1195  0.1457  0.0085
21065WAT     H286066  -1.041   6.666   0.212  1.6231  1.3855 -1.7030
21065WAT    EPW86067  -0.998   6.703   0.278  0.1194  0.8481 -0.3530
21066WAT      O86068   5.722   4.546   4.796  1.0453 -0.2202 -0.4867
21066WAT     H186069   5.691   4.537   4.705  1.7578 -1.6188 -0.6211
21066WAT     H286070   5.717   4.457   4.831 -0.7318  0.5452  1.3806
21066WAT    EPW86071   5.717   4.533   4.789  0.9050 -0.3037 -0.2580
21067WAT      O86072   4.400   3.375   0.571  1.0491 -0.4814 -0.2548
21067WAT     H186073   4.439   3.436   0.509 -1.9104  1.7226 -0.1388
21067WAT     H286074   4.435   3.400   0.656 -0.2191  1.2439 -0.1940
21067WAT    EPW86075   4.410   3.386   0.574  0.4914  0.0368 -0.2314
21068WAT      O86076  -2.301   3.895   7.331  0.3545  0.1389  0.8867
21068WAT     H186077  -2.374   3.911   7.391 -0.5974 -0.1033 -0.1641
21068WAT     H286078  -2.335   3.830   7.269  1.4759  0.0004  0.3923
21068WAT    EPW86079  -2.315   3.889   7.330  0.3768  0.0888  0.6828
21069WAT      O86080   5.899   3.436   5.216 -0.1986 -0.4374  0.4075
21069WAT     H186081   5.870   3.477   5.134  0.3993 -0.3547  0.2341
21069WAT     H286082   5.865   3.346   5.210 -0.3614 -0.3633  0.1820
21069WAT    EPW86083   5.890   3.429   5.204 -0.1411 -0.4166  0.3548
21070WAT      O86084   1.347   2.005   3.951 -0.5599 -0.1618 -0.0270
21070WAT     H186085   1.253   1.989   3.946 -0.6173  0.0553  0.3015
21070WAT     H286086   1.376   1.954   4.027 -0.8117  1.5353  1.2682
21070WAT    EPW86087   1.338   1.996   3.960 -0.6007  0.0907  0.1872
21071WAT      O86088  -0.323   5.296   2.034 -0.1051  0.3295  0.2775
21071WAT     H186089  -0.333   5.266   1.944 -0.5701  1.7404 -0.1580
21071WAT     H286090  -0.245   5.351   2.033 -1.1669  1.8875  0.2966
21071WAT    EPW86091  -0.314   5.299   2.022 -0.3065  0.7212  0.2226
21072WAT      O86092   4.170   4.202   3.383 -0.3804 -0.1370  0.2617
21072WAT     H186093   4.144   4.271   3.323  0.1256 -1.5491 -1.6801
21072WAT     H286094   4.089   4.180   3.431 -1.0233  0.3751 -0.5627
21072WAT    EPW86095   4.156   4.208   3.382 -0.3984 -0.2556 -0.1031
21073WAT      O86096   4.904   1.066   4.096 -0.3309  0.1350 -0.1181
21073WAT     H186097   4.973   1.128   4.121  0.8744 -1.3628  0.4832
21073WAT     H286098   4.866   1.039   4.180 -0.3780 -0.4148 -0.3135
21073WAT    EPW86099   4.908   1.070   4.110 -0.1781 -0.1351 -0.0646
21074WAT      O86100   8.275   5.798   0.907 -0.0069 -0.3863 -0.5348
21074WAT     H186101   8.322   5.716   0.920  1.2644  0.1626 -1.4588
21074WAT     H286102   8.282   5.843   0.991  1.2959 -0.2482 -0.6976
21074WAT    EPW86103   8.282   5.793   0.920  0.3324 -0.2954 -0.6781
21075WAT      O86104   0.826   9.674   4.908 -0.0342  0.4729  0.5428
21075WAT     H186105   0.838   9.579   4.918 -0.9853  0.3604  0.8069
21075WAT     H286106   0.765   9.683   4.835  0.2947  0.9001  0.3177
21075WAT    EPW86107   0.819   9.662   4.900 -0.1163  0.5140  0.5481
21076WAT      O86108   0.414   4.224   2.347 -0.2494 -0.3780 -0.4087
21076WAT     H186109   0.383   4.182   2.427 -2.2720 -1.1985 -1.5485
21076WAT     H286110   0.444   4.311   2.375 -0.6218 -0.7599  1.2611
21076WAT    EPW86111   0.414   4.230   2.361 -0.5653 -0.5364 -0.3388
21077WAT      O86112  -3.689   5.319   8.223 -0.2153  0.2045 -0.1136
21077WAT     H186113  -3.604   5.299   8.182 -0.7868  1.1214 -1.8598
21077WAT     H286114  -3.689   5.414   8.233 -0.5294  0.0898  1.1123
21077WAT    EPW86115  -3.678   5.329   8.219 -0.3321  0.3102 -0.1826
21078WAT      O86116   1.011   5.622   2.393 -0.7483 -0.3873  0.0520
21078WAT     H186117   0.915   5.621   2.384 -0.9039  0.4602  1.3586
21078WAT     H286118   1.026   5.654   2.482  0.7594 -0.4442 -0.1641
21078WAT    EPW86119   1.000   5.626   2.404 -0.5700 -0.2830  0.1957
21079WAT      O86120  10.021   0.389   1.157  0.3130  0.3336 -0.3738
21079WAT     H186121   9.927   0.373   1.152  0.1847  0.2711  1.4865
21079WAT     H286122  10.060   0.301   1.165  0.4699  0.3952 -0.4551
21079WAT    EPW86123  10.014   0.375   1.157  0.3166  0.3335 -0.1391
21080WAT      O86124  -0.684   6.397   2.912  0.5316 -0.4719 -0.3104
21080WAT     H186125  -0.772   6.419   2.941  0.6968 -1.5225  1.0983
21080WAT     H286126  -0.663   6.463   2.846  0.4766  2.7631  2.6001
21080WAT    EPW86127  -0.692   6.409   2.907  0.5461 -0.1836  0.2593
21081WAT      O86128   8.822   3.480   1.143  0.3987 -0.0777  0.6763
21081WAT     H186129   8.787   3.566   1.167  2.0101  1.2969 -1.4562
21081WAT     H286130   8.753   3.441   1.089  0.6820  1.0960 -0.5956
21081WAT    EPW86131   8.808   3.486   1.139  0.6485  0.2584  0.2273
21082WAT      O86132  -0.050   2.204   6.467 -0.2372 -0.5111 -0.9435
21082WAT     H186133  -0.099   2.275   6.509 -0.8414  0.0769 -2.5956
21082WAT     H286134   0.033   2.244   6.441  0.2460 -0.9431 -0.1199
21082WAT    EPW86135  -0.046   2.219   6.469 -0.2531 -0.4905 -1.0529
21083WAT      O86136   2.866   6.421   2.218  0.0374 -0.5570 -0.0559
21083WAT     H186137   2.793   6.473   2.185  1.3445  0.1110 -2.1614
21083WAT     H286138   2.923   6.485   2.261 -0.4911 -1.0488  1.4444
21083WAT    EPW86139   2.864   6.436   2.219  0.1400 -0.5338 -0.1357
21084WAT      O86140   1.837   9.825   6.081 -0.0435  0.0837  0.5590
21084WAT     H186141   1.873   9.897   6.132 -0.7060  0.5252  0.4142
21084WAT     H286142   1.767   9.790   6.135  0.9232 -1.1263  1.0788
21084WAT    EPW86143   1.833   9.830   6.095 -0.0034 -0.0176  0.6084
21085WAT      O86144   1.418   3.772   3.161  0.6383 -0.2726 -0.7576
21085WAT     H186145   1.337   3.752   3.207  0.8181 -0.4030 -0.4920
21085WAT     H286146   1.407   3.731   3.075 -0.7858  2.2040 -1.8417
21085WAT    EPW86147   1.406   3.764   3.156  0.4742  0.0370 -0.8656
21086WAT      O86148   4.318   5.468   0.082 -0.0657  0.8384 -0.6837
21086WAT     H186149   4.309   5.557   0.046  2.6816  0.0787 -3.7086
21086WAT     H286150   4.287   5.411   0.012 -0.4893 -0.6574  0.6768
21086WAT    EPW86151   4.313   5.473   0.068  0.2408  0.5410 -0.9033
21087WAT      O86152   3.419   6.099   1.481  0.1396  0.2780  0.2073
21087WAT     H186153   3.512   6.098   1.459 -0.0646  0.0373 -0.7271
21087WAT     H286154   3.396   6.192   1.482  0.8073  0.4610  2.4486
21087WAT    EPW86155   3.428   6.112   1.478  0.2007  0.2704  0.3796
21088WAT      O86156   4.362   9.865   4.981 -0.0956 -0.1690  0.5487
21088WAT     H186157   4.306   9.843   4.907 -1.1855 -1.1802  1.6386
21088WAT     H286158   4.340   9.800   5.049  1.5528  0.1242  1.4298
21088WAT    EPW86159   4.352   9.853   4.980 -0.0219 -0.2637  0.8085
21089WAT      O86160  -0.620   9.777   4.562  0.2443  0.2159  0.1157
21089WAT     H186161  -0.531   9.788   4.595  0.1019  0.2383  0.4975
21089WAT     H286162  -0.626   9.684   4.540 -0.1932 -0.1956  1.7775
21089WAT    EPW86163  -0.609   9.766   4.564  0.1678  0.1645  0.3853
21090WAT      O86164   8.003   1.837   3.635  0.4682  0.1210  0.0761
21090WAT     H186165   7.979   1.779   3.562  0.7007 -0.7717  0.6831
21090WAT     H286166   8.095   1.859   3.619  0.7036 -0.5756  0.4036
21090WAT    EPW86167   8.012   1.832   3.623  0.5302 -0.0887  0.1993
21091WAT      O86168  -1.408   9.152   5.778  0.1442  0.4090 -0.0551
21091WAT     H186169  -1.502   9.132   5.776 -0.0744  1.4163 -0.7951
21091WAT     H286170  -1.392   9.198   5.696  1.0113  1.4560  0.6743
21091WAT    EPW86171  -1.418   9.155   5.767  0.2297  0.6800 -0.0563
21092WAT      O86172  -5.388   6.348   5.554 -0.2009  0.4798  0.5253
21092WAT     H186173  -5.422   6.264   5.525 -0.2439  1.4071 -2.3947
21092WAT     H286174  -5.466   6.400   5.574 -0.2092  0.2012  1.2386
21092WAT    EPW86175  -5.403   6.344   5.553 -0.2077  0.5653  0.2344
21093WAT      O86176  -0.026   6.347   7.054  0.5414  0.0931 -0.1296
21093WAT     H186177   0.046   6.290   7.081  1.7536  1.3078 -0.7022
21093WAT     H286178  -0.100   6.288   7.043  1.9552 -1.5258 -1.5619
21093WAT    EPW86179  -0.026   6.331   7.056  0.8877  0.0398 -0.3941
21094WAT      O86180  -3.015   8.759   2.821  0.3185  0.4978  0.4880
21094WAT     H186181  -2.987   8.769   2.731  0.6771 -0.4268  0.4824
21094WAT     H286182  -3.092   8.702   2.816  0.6706 -0.0214  0.7991
21094WAT    EPW86183  -3.022   8.753   2.809  0.4122  0.3076  0.5283
21095WAT      O86184  -1.118   6.145   1.579 -0.2966  0.4551  0.7498
21095WAT     H186185  -1.133   6.223   1.525 -0.8072 -0.4356 -0.4395
21095WAT     H286186  -1.160   6.074   1.530 -0.6187 -0.4265  2.2441
21095WAT    EPW86187  -1.126   6.146   1.565 -0.4065  0.2213  0.7900
21096WAT      O86188   2.941   1.639   3.861 -0.4603  0.2958  0.5689
21096WAT     H186189   2.903   1.589   3.789 -2.6568  1.4241  0.8630
21096WAT     H286190   2.973   1.572   3.922 -0.8367 -0.6970 -0.2819
21096WAT    EPW86191   2.941   1.623   3.859 -0.7997  0.3136  0.4954
21097WAT      O86192   2.915   3.466   7.649 -0.3263  0.7167 -0.0255
21097WAT     H186193   2.919   3.483   7.555 -2.5606  1.8596  0.0206
21097WAT     H286194   2.857   3.534   7.684 -0.8290 -0.6191  1.9426
21097WAT    EPW86195   2.908   3.477   7.642 -0.6872  0.6913  0.2401
21098WAT      O86196  -2.613   9.694   4.345  0.5302 -0.5127  0.2454
21098WAT     H186197  -2.546   9.726   4.406 -0.7165 -0.7607  1.8028
21098WAT     H286198  -2.582   9.608   4.318  0.8712 -0.6148  0.9291
21098WAT    EPW86199  -2.600   9.687   4.349  0.4108 -0.5589  0.5410
21099WAT      O86200   3.889   4.417   1.083  0.7250 -0.8761  0.7239
21099WAT     H186201   3.882   4.510   1.102 -0.7835 -0.7360 -0.3580
21099WAT     H286202   3.804   4.380   1.107 -0.8267 -0.9441 -3.8468
21099WAT    EPW86203   3.877   4.424   1.089  0.3214 -0.8664 -0.0216
21100WAT      O86204   6.360   3.999   2.584  0.4215 -0.1600 -0.4922
21100WAT     H186205   6.347   3.923   2.528 -1.8683  0.1214 -0.4694
21100WAT     H286206   6.359   3.963   2.673 -0.9283 -0.1142 -0.4694
21100WAT    EPW86207   6.358   3.984   2.589 -0.0587 -0.1168 -0.4861
21101WAT      O86208  -7.210   9.399   6.435  0.6403 -0.3869  0.4240
21101WAT     H186209  -7.185   9.480   6.391  0.7218 -1.8638 -2.4415
21101WAT     H286210  -7.126   9.361   6.462  0.9320 -1.1879 -1.4645
21101WAT    EPW86211  -7.195   9.405   6.433  0.6893 -0.6876 -0.2029
21102WAT      O86212  -3.431   7.075   5.902 -0.1860  0.0022 -0.3912
21102WAT     H186213  -3.349   7.027   5.910 -0.3164 -0.3787 -1.2114
21102WAT     H286214  -3.420   7.152   5.958  0.3646 -0.5328  0.2469
21102WAT    EPW86215  -3.419   7.079   5.910 -0.1305 -0.1185 -0.4153
21103WAT      O86216   2.787   9.997   7.225  0.4417 -0.1831 -0.3663
21103WAT     H186217   2.833   9.917   7.251 -1.5195 -0.6527  2.1337
21103WAT     H286218   2.699   9.967   7.204  0.0255  1.1682 -0.6232
21103WAT    EPW86219   2.781   9.982   7.226  0.1281 -0.0668 -0.0703
21104WAT      O86220   1.398   5.638   0.193  0.4200 -1.3102 -0.2861
21104WAT     H186221   1.457   5.643   0.118 -1.6183 -1.5560 -2.0172
21104WAT     H286222   1.318   5.598   0.158 -1.3047  0.2996  1.5457
21104WAT    EPW86223   1.395   5.634   0.179 -0.0762 -1.1301 -0.2728
21105WAT      O86224   5.861   2.346   5.296 -0.4355  0.4920 -0.0212
21105WAT     H186225   5.829   2.436   5.308 -0.0035  0.6685 -0.1801
21105WAT     H286226   5.792   2.303   5.245 -0.5569  0.7895 -0.1138
21105WAT    EPW86227   5.848   2.352   5.291 -0.3946  0.5544 -0.0546
21106WAT      O86228  -3.368   2.882   6.519 -0.5171 -0.7962 -0.0430
21106WAT     H186229  -3.413   2.808   6.477  0.1740  0.2077 -2.7071
21106WAT     H286230  -3.371   2.952   6.455 -2.1760  2.0218  2.8111
21106WAT    EPW86231  -3.375   2.881   6.505 -0.6448 -0.2922 -0.0179
21107WAT      O86232  -3.771   5.611   3.835 -0.2932 -0.4923 -0.1690
21107WAT     H186233  -3.739   5.530   3.875 -0.4628 -1.5970 -2.1330
21107WAT     H286234  -3.737   5.680   3.890  2.2097 -1.7956  0.0515
21107WAT    EPW86235  -3.762   5.609   3.847  0.0144 -0.8099 -0.3990
21108WAT      O86236  -2.856   1.916   6.349  0.0294 -0.0659  0.6152
21108WAT     H186237  -2.942   1.880   6.328 -0.3271  0.9723  0.2424
21108WAT     H286238  -2.869   1.958   6.434  0.3670 -0.5377  0.9059
21108WAT    EPW86239  -2.869   1.916   6.358  0.0268  0.0088  0.6044
21109WAT      O86240   4.987   3.420   5.614 -0.1759 -0.4290  0.0982
21109WAT     H186241   5.017   3.480   5.682 -0.0694 -0.8681  0.4404
21109WAT     H286242   4.962   3.477   5.541 -1.0074  0.0965  0.7758
21109WAT    EPW86243   4.987   3.435   5.613 -0.2716 -0.4176  0.2327
21110WAT      O86244   2.531   2.278   7.264  0.7048 -0.2464  0.1742
21110WAT     H186245   2.516   2.371   7.276 -1.2229 -0.4412 -0.3864
21110WAT     H286246   2.494   2.258   7.178 -2.6925 -2.2149  1.8862
21110WAT    EPW86247   2.524   2.287   7.254  0.0024 -0.5317  0.3262
21111WAT      O86248   0.206   6.299   0.617  0.1272  0.1205 -0.0858
21111WAT     H186249   0.268   6.358   0.660  0.1850 -0.9974  1.4500
21111WAT     H286250   0.194   6.228   0.680 -0.8144 -0.9291 -1.4111
21111WAT    EPW86251   0.213   6.297   0.631  0.0106 -0.1652 -0.0580
21112WAT      O86252   1.216   5.093   6.382 -0.3273 -0.3788  0.2330
21112WAT     H186253   1.204   5.007   6.341 -3.0148 -0.3822  0.8779
21112WAT     H286254   1.278   5.076   6.453 -2.1841 -2.2639  1.5236
21112WAT    EPW86255   1.223   5.079   6.386 -0.9266 -0.6275  0.4880
21113WAT      O86256  -6.507   3.800   8.518  0.2829 -0.3693 -0.4057
21113WAT     H186257  -6.589   3.846   8.503  0.2799 -0.3145 -0.2300
21113WAT     H286258  -6.462   3.803   8.434  1.0979  1.5969  0.0440
21113WAT    EPW86259  -6.512   3.807   8.505  0.3901 -0.1028 -0.3233
21114WAT      O86260  -7.702   9.650   8.939  0.7631 -0.3126  0.3769
21114WAT     H186261  -7.621   9.660   8.890 -0.1008 -1.5850 -1.4210
21114WAT     H286262  -7.679   9.593   9.012  1.6526  0.0149  0.3648
21114WAT    EPW86263  -7.689   9.644   8.942  0.7665 -0.4373  0.1378
21115WAT      O86264   5.320   4.243   5.304 -0.0127 -0.7896 -0.0499
21115WAT     H186265   5.412   4.226   5.325  0.0117  1.9715  2.6251
21115WAT     H286266   5.297   4.321   5.354 -3.4664 -0.5294 -1.7265
21115WAT    EPW86267   5.329   4.251   5.313 -0.4649 -0.3910  0.0820
21116WAT      O86268  -2.462   9.445   6.777 -0.7551  0.3635  0.2277
21116WAT     H186269  -2.421   9.489   6.702 -3.0414  0.9583 -0.7344
21116WAT     H286270  -2.425   9.489   6.854  0.1806  1.0409 -0.5891
21116WAT    EPW86271  -2.452   9.456   6.777 -0.9332  0.5312 -0.0069
21117WAT      O86272  -3.860   8.917   1.261 -0.2477 -0.0798  0.0802
21117WAT     H186273  -3.854   8.831   1.303  0.5924 -0.2319 -0.3228
21117WAT     H286274  -3.832   8.902   1.171 -0.9623  0.4522 -0.2334
21117WAT    EPW86275  -3.855   8.904   1.255 -0.2311 -0.0296 -0.0143
21118WAT      O86276   3.472   6.158   5.771  0.3947 -0.0570 -0.3635
21118WAT     H186277   3.467   6.070   5.733  0.9591  0.0606 -0.7262
21118WAT     H286278   3.544   6.153   5.833 -2.0349 -0.9298  2.5953
21118WAT    EPW86279   3.481   6.146   5.774  0.1487 -0.1566 -0.0210
21119WAT      O86280   2.104   7.987   1.218 -0.3996 -0.6018 -0.4494
21119WAT     H186281   2.082   8.079   1.199  1.4524 -0.0021  0.0836
21119WAT     H286282   2.128   7.951   1.133  0.6627 -0.0481 -0.3971
21119WAT    EPW86283   2.104   7.995   1.204 -0.0153 -0.4497 -0.3722
21120WAT      O86284  -8.261   9.141   8.764  0.0686  0.5420 -0.7091
21120WAT     H186285  -8.249   9.236   8.755 -0.8299  0.6615 -0.6636
21120WAT     H286286  -8.260   9.125   8.858 -3.2140  0.9988 -0.4814
21120WAT    EPW86287  -8.259   9.152   8.775 -0.4826  0.6185 -0.6728
21121WAT      O86288   2.214   5.511   1.845  0.7366 -0.0059  0.0137
21121WAT     H186289   2.272   5.534   1.918 -0.1250 -0.1430  0.7655
21121WAT     H286290   2.240   5.423   1.820  0.4571 -0.3117  0.7661
21121WAT    EPW86291   2.225   5.503   1.852  0.5862 -0.0644  0.2121
21122WAT      O86292   4.308   4.742   3.201 -0.4819  0.0642 -0.6436
21122WAT     H186293   4.331   4.817   3.147  0.9627 -0.0146 -0.1830
21122WAT     H286294   4.247   4.691   3.146 -2.6891  2.2699 -0.3783
21122WAT    EPW86295   4.303   4.745   3.186 -0.5822  0.3445 -0.5479
21123WAT      O86296  -3.055   1.870   5.175 -0.1053 -0.2787  0.4431
21123WAT     H186297  -3.002   1.872   5.095  1.4241  0.6079  1.4404
21123WAT     H286298  -3.073   1.777   5.188 -1.0731 -0.4002 -1.3263
21123WAT    EPW86299  -3.051   1.858   5.166 -0.0311 -0.1778  0.3414
21124WAT      O86300   4.485   2.779   1.168  0.9205  0.6235 -0.9299
21124WAT     H186301   4.488   2.749   1.077 -1.7742  0.1569 -0.9510
21124WAT     H286302   4.482   2.699   1.220  1.1492  0.8859 -0.5031
21124WAT    EPW86303   4.485   2.765   1.163  0.5953  0.5965 -0.8764
21125WAT      O86304  -3.000  10.161   8.819  0.2588 -0.1321 -0.4084
21125WAT     H186305  -3.053  10.194   8.746  1.2937 -0.3785 -1.3188
21125WAT     H286306  -2.913  10.197   8.802  0.6103 -0.5381  0.4923
21125WAT    EPW86307  -2.995  10.170   8.807  0.4417 -0.2179 -0.4096
21126WAT      O86308  -3.427   4.907   7.999 -1.0426  0.3701 -0.4566
21126WAT     H186309  -3.345   4.952   8.019 -1.6641  2.1389 -1.6735
21126WAT     H286310  -3.400   4.822   7.964  0.4167  1.7803 -2.9934
21126WAT    EPW86311  -3.413   4.902   7.997 -0.9321  0.7894 -0.9518
21127WAT      O86312  -3.991   7.615   5.314  0.0918  0.5728 -0.7295
21127WAT     H186313  -4.035   7.698   5.330 -0.1735  0.2274  0.3689
21127WAT     H286314  -3.988   7.572   5.399  1.5089  0.0735 -1.0057
21127WAT    EPW86315  -3.996   7.620   5.327  0.2437  0.4613 -0.6211
21128WAT      O86316   4.927   3.476   5.288  0.0746 -0.8918  0.9750
21128WAT     H186317   5.009   3.509   5.323 -0.6530  1.7028  0.4821
21128WAT     H286318   4.910   3.395   5.337  2.5093 -1.1144  1.5721
21128WAT    EPW86319   4.935   3.469   5.299  0.2999 -0.5790  0.9887
21129WAT      O86320   2.132   0.827   2.177  0.0380 -0.2475 -0.1121
21129WAT     H186321   2.096   0.884   2.245  0.2809 -2.0832  1.6247
21129WAT     H286322   2.104   0.868   2.095 -2.2095  0.8028  1.0892
21129WAT    EPW86323   2.124   0.840   2.175 -0.2265 -0.3512  0.2754
21130WAT      O86324   1.584  10.120   0.289  0.0097  0.0738  0.0131
21130WAT     H186325   1.553  10.203   0.253 -1.1863 -1.4824 -2.8183
21130WAT     H286326   1.640  10.083   0.221  0.5064 -1.4677  1.1930
21130WAT    EPW86327   1.587  10.126   0.275 -0.0826 -0.3347 -0.2047
21131WAT      O86328   0.186   3.399   4.044  0.1021 -0.1553 -0.2507
21131WAT     H186329   0.265   3.451   4.057  0.3301 -1.1075  3.3292
21131WAT     H286330   0.214   3.324   3.992  0.9664  0.6948 -1.0446
21131WAT    EPW86331   0.200   3.396   4.039  0.2462 -0.1688  0.1168
21132WAT      O86332   3.429   3.659   0.031  0.4430  0.2852  0.0370
21132WAT     H186333   3.434   3.564   0.044  0.7589 -0.1395 -2.5365
21132WAT     H286334   3.381   3.691   0.107  1.2721 -1.7679  1.5518
21132WAT    EPW86335   3.423   3.650   0.043  0.5940 -0.0416 -0.1026
21133WAT      O86336  -0.679   3.927   3.962 -0.2563 -0.4465 -0.1186
21133WAT     H186337  -0.663   3.914   4.055  1.0652  0.6143 -0.1664
21133WAT     H286338  -0.728   3.849   3.935 -0.1398 -1.0523  1.3241
21133WAT    EPW86339  -0.683   3.915   3.970 -0.0666 -0.3866  0.0654
21134WAT      O86340   6.421   2.096   5.423 -0.1916 -0.3285 -0.4913
21134WAT     H186341   6.426   2.070   5.331  3.0217 -1.3012 -0.1623
21134WAT     H286342   6.456   2.184   5.426  0.2545 -0.5142 -0.1302
21134WAT    EPW86343   6.426   2.104   5.411  0.2911 -0.4812 -0.4001
21135WAT      O86344   2.555  10.097   4.175 -0.1198 -0.0840  0.1449
21135WAT     H186345   2.501  10.155   4.121 -0.6623 -0.2728  0.4792
21135WAT     H286346   2.614  10.157   4.221 -2.4258  0.5575  2.5399
21135WAT    EPW86347   2.556  10.113   4.174 -0.4956 -0.0248  0.5050
21136WAT      O86348  -3.096   4.072   4.116  0.1442  0.8513 -0.1250
21136WAT     H186349  -3.078   4.143   4.176 -0.0348  1.8411 -1.2030
21136WAT     H286350  -3.048   3.997   4.151  3.1808  2.3483 -0.7695
21136WAT    EPW86351  -3.087   4.071   4.128  0.5212  1.1792 -0.3524
21137WAT      O86352  -1.860   7.107   1.416 -0.8727  0.4001  0.2271
21137WAT     H186353  -1.866   7.194   1.375 -0.4408  0.7990  0.9861
21137WAT     H286354  -1.784   7.067   1.375 -0.1486  0.9872  0.9729
21137WAT    EPW86355  -1.851   7.113   1.405 -0.7203  0.5302  0.4255
21138WAT      O86356  -6.992   8.510   8.913  0.0725  0.0411 -0.3756
21138WAT     H186357  -7.045   8.564   8.854  0.1610  0.7716  0.1988
21138WAT     H286358  -6.911   8.493   8.865  0.6521  1.6560 -0.0167
21138WAT    EPW86359  -6.988   8.515   8.899  0.1605  0.3505 -0.2518
21139WAT      O86360   0.299  10.029   1.556 -0.0183 -0.7408 -0.0385
21139WAT     H186361   0.224  10.087   1.542 -1.9406 -2.1417  3.3428
21139WAT     H286362   0.268   9.943   1.526  1.7217 -0.7352 -2.1445
21139WAT    EPW86363   0.285  10.025   1.550 -0.0423 -0.9246  0.1297
21140WAT      O86364   0.781   0.347   0.539 -0.2061 -0.1490  0.0727
21140WAT     H186365   0.859   0.342   0.483  0.3397 -3.0904  0.9105
21140WAT     H286366   0.793   0.276   0.603 -2.8386  0.3266  1.2193
21140WAT    EPW86367   0.793   0.337   0.540 -0.4813 -0.4743  0.3344
21141WAT      O86368  -7.106   8.052   7.230 -0.4543 -0.3209  0.2571
21141WAT     H186369  -7.034   7.990   7.238 -1.0484 -1.0103  0.3681
21141WAT     H286370  -7.149   8.050   7.316  0.0016  0.8624  0.5399
21141WAT    EPW86371  -7.102   8.044   7.243 -0.4725 -0.2561  0.3090
21142WAT      O86372  -1.867   8.727   3.835 -0.7949  0.2548  0.1062
21142WAT     H186373  -1.785   8.727   3.786 -0.4320  2.4698  0.5702
21142WAT     H286374  -1.883   8.636   3.857  1.4172 -0.2613 -0.2150
21142WAT    EPW86375  -1.858   8.715   3.831 -0.4553  0.4787  0.1252
21143WAT      O86376   4.316   4.106   1.055 -0.2037  0.2291 -0.0420
21143WAT     H186377   4.391   4.047   1.063 -0.0808  0.3692 -0.1512
21143WAT     H286378   4.275   4.083   0.972 -2.2611 -2.1329  1.4842
21143WAT    EPW86379   4.321   4.095   1.046 -0.4590 -0.0639  0.1449
21144WAT      O86380  -1.469   6.914   2.091  0.0381 -0.4109  0.1175
21144WAT     H186381  -1.396   6.965   2.057  0.6545 -1.5931 -0.3956
21144WAT     H286382  -1.446   6.895   2.182  0.4265 -0.8780 -0.0778
21144WAT    EPW86383  -1.457   6.918   2.098  0.1706 -0.6285  0.0240
21145WAT      O86384   0.486   8.857   8.095 -0.3254  0.4014  0.8180
21145WAT     H186385   0.485   8.953   8.091  3.2115  0.5449  0.7800
21145WAT     H286386   0.465   8.837   8.186  0.3767  1.3159  1.1997
21145WAT    EPW86387   0.483   8.867   8.107  0.2337  0.5412  0.8631
21146WAT      O86388   6.186   1.518   6.514  0.1615 -0.7578  0.1270
21146WAT     H186389   6.193   1.569   6.594 -0.5614 -0.2281 -0.1444
21146WAT     H286390   6.121   1.451   6.533 -3.3668  1.9757 -1.3251
21146WAT    EPW86391   6.179   1.515   6.527 -0.3991 -0.3273 -0.1001
21147WAT      O86392   4.359   3.415   6.993  1.6036 -0.1365 -0.0968
21147WAT     H186393   4.338   3.474   7.066  1.9503  0.4603 -0.4656
21147WAT     H286394   4.290   3.349   6.994  1.4252  0.0554  0.5686
21147WAT    EPW86395   4.347   3.414   7.003  1.6258 -0.0324 -0.0575
21148WAT      O86396   2.460   1.683   6.267 -0.1726  0.1190 -1.0456
21148WAT     H186397   2.518   1.686   6.342 -1.6581  0.3188  0.1481
21148WAT     H286398   2.444   1.590   6.253 -2.7796  0.0589  1.3245
21148WAT    EPW86399   2.465   1.671   6.275 -0.7123  0.1374 -0.5755
21149WAT      O86400   2.939   1.455   0.522 -0.3174  0.3718 -0.6905
21149WAT     H186401   2.906   1.365   0.524 -1.4804  0.7913  0.1296
21149WAT     H286402   3.006   1.455   0.454  1.8002 -1.8035  1.1987
21149WAT    EPW86403   2.943   1.443   0.513 -0.1915  0.1402 -0.3332
21150WAT      O86404   4.337   3.594   7.164  0.3248 -0.7064 -0.1138
21150WAT     H186405   4.378   3.676   7.135 -1.4158  0.5206  0.7634
21150WAT     H286406   4.332   3.602   7.259  1.4769 -2.5350  0.1613
21150WAT    EPW86407   4.342   3.605   7.173  0.2470 -0.7857  0.0381
21151WAT      O86408  -2.902   2.340   3.787 -0.9369  0.3897  0.2985
21151WAT     H186409  -2.934   2.251   3.796  0.9651 -0.2322  1.3189
21151WAT     H286410  -2.921   2.363   3.696 -0.1991 -1.5794 -0.4019
21151WAT    EPW86411  -2.908   2.332   3.776 -0.5889  0.0482  0.3407
21152WAT      O86412   2.506   1.379   2.532 -0.0463 -0.8738  0.3945
21152WAT     H186413   2.423   1.402   2.490 -0.5277 -1.4126  1.0172
21152WAT     H286414   2.480   1.330   2.610  0.8933 -1.7548  0.1710
21152WAT    EPW86415   2.492   1.376   2.537  0.0141 -1.0611  0.4470
21153WAT      O86416   0.555   3.736   8.133 -0.5533 -0.6091  0.4227
21153WAT     H186417   0.641   3.738   8.175 -0.9347  2.1773  1.2835
21153WAT     H286418   0.493   3.727   8.205 -1.0648  0.3211  0.1211
21153WAT    EPW86419   0.558   3.735   8.148 -0.6711 -0.1190  0.4969
21154WAT      O86420  -4.991   7.473   4.471 -0.5134 -0.3330 -0.1865
21154WAT     H186421  -4.967   7.405   4.535  2.5064 -0.4212 -1.2626
21154WAT     H286422  -5.057   7.431   4.416 -2.3900 -0.6147  2.1123
21154WAT    EPW86423  -4.997   7.458   4.472 -0.3629 -0.3817 -0.0253
21155WAT      O86424  -0.178   0.380   7.813  0.4839 -0.0461  0.8136
21155WAT     H186425  -0.239   0.368   7.741 -0.3458 -0.1920  1.5234
21155WAT     H286426  -0.095   0.402   7.771  0.5670 -2.2255 -0.2934
21155WAT    EPW86427  -0.175   0.381   7.798  0.3854 -0.3528  0.7613
21156WAT      O86428   2.899   2.705   6.056 -0.0038 -0.2588 -0.8122
21156WAT     H186429   2.868   2.746   5.975  1.0463  0.1365 -1.0323
21156WAT     H286430   2.968   2.764   6.087  1.4072 -1.7413 -1.0193
21156WAT    EPW86431   2.904   2.718   6.050  0.3207 -0.4022 -0.8688
21157WAT      O86432  -4.565   2.754   8.420  0.2930 -0.2316 -0.3126
21157WAT     H186433  -4.560   2.679   8.361  3.2695  0.7555 -1.5004
21157WAT     H286434  -4.525   2.826   8.371 -1.8557  2.0229  1.0131
21157WAT    EPW86435  -4.559   2.754   8.406  0.4022  0.1959 -0.2947
21158WAT      O86436   0.655   1.750   1.966 -0.1545 -0.1903 -0.2205
21158WAT     H186437   0.627   1.819   1.906  0.7656 -1.8770 -2.7462
21158WAT     H286438   0.579   1.692   1.973 -0.1369 -0.1947 -0.0586
21158WAT    EPW86439   0.641   1.751   1.959 -0.0308 -0.4134 -0.5322
21159WAT      O86440  -3.969   3.800   6.083 -0.3328  0.1220  0.3677
21159WAT     H186441  -4.023   3.866   6.125 -0.7559  0.2778 -0.3991
21159WAT     H286442  -3.927   3.845   6.010 -0.5841 -0.4287 -0.1315
21159WAT    EPW86443  -3.971   3.814   6.079 -0.4218  0.0700  0.2005
21160WAT      O86444   0.233   7.649   4.012  0.2263 -1.4135 -0.2449
21160WAT     H186445   0.246   7.589   4.085  0.0073 -0.5182  0.5436
21160WAT     H286446   0.138   7.650   3.998  0.1758 -0.8241  0.1172
21160WAT    EPW86447   0.222   7.641   4.020  0.1907 -1.2178 -0.0932
21161WAT      O86448  -3.440   9.512   7.561  0.1523  0.1188 -0.5431
21161WAT     H186449  -3.366   9.573   7.566 -1.3940  2.1782 -1.0617
21161WAT     H286450  -3.447   9.475   7.649  0.0537  2.1300  0.3538
21161WAT    EPW86451  -3.431   9.515   7.573 -0.0646  0.6557 -0.4933
21162WAT      O86452   4.808   9.849   2.759  0.2841  0.6154  0.2159
21162WAT     H186453   4.866   9.835   2.684 -1.3140 -1.6998 -0.7130
21162WAT     H286454   4.801   9.944   2.766  2.6144  0.9442 -0.8143
21162WAT    EPW86455   4.815   9.860   2.750  0.3808  0.3538 -0.0426
21163WAT      O86456   6.021   1.272   6.547 -0.1780 -0.5429  0.1100
21163WAT     H186457   5.944   1.233   6.587 -2.2104  1.1546 -1.8284
21163WAT     H286458   6.093   1.212   6.567 -2.4776 -3.5973 -0.1280
21163WAT    EPW86459   6.020   1.259   6.555 -0.7493 -0.7218 -0.1769
21164WAT      O86460   2.955   0.161   8.309  0.0064  0.5437  0.5695
21164WAT     H186461   2.970   0.099   8.238 -0.4066  1.8250 -0.6911
21164WAT     H286462   3.019   0.138   8.375  0.0240 -1.0566  0.0368
21164WAT    EPW86463   2.965   0.150   8.308 -0.0458  0.5016  0.3324
21165WAT      O86464   5.727   1.737   2.779  0.1942  0.4322 -0.3138
21165WAT     H186465   5.745   1.764   2.689 -0.2616  0.5365 -0.3730
21165WAT     H286466   5.656   1.674   2.771 -0.3062  0.9472  0.0355
21165WAT    EPW86467   5.720   1.732   2.766  0.0679  0.5139 -0.2756
21166WAT      O86468   5.667   2.148   1.448  0.3793 -0.2786 -0.5542
21166WAT     H186469   5.638   2.238   1.436 -1.7950 -1.2499 -3.8101
21166WAT     H286470   5.633   2.123   1.534 -2.8140  0.7747 -1.3797
21166WAT    EPW86471   5.659   2.156   1.458 -0.3285 -0.2679 -1.0926
21167WAT      O86472  -5.774   2.232   8.835 -0.1174  0.1959  0.6678
21167WAT     H186473  -5.765   2.137   8.824 -0.2757  0.2869 -0.4307
21167WAT     H286474  -5.837   2.257   8.768 -1.8534  0.7794  2.4578
21167WAT    EPW86475  -5.781   2.223   8.825 -0.3672  0.2849  0.7591
21168WAT      O86476  -4.345   6.535   5.791  1.0021  0.4845  0.2376
21168WAT     H186477  -4.379   6.448   5.812  1.6507 -0.3292 -1.8161
21168WAT     H286478  -4.274   6.519   5.728 -1.3880  2.5995 -3.3877
21168WAT    EPW86479  -4.340   6.522   5.785  0.7722  0.6561 -0.5112
21169WAT      O86480  -6.586   7.249   6.699 -0.4000  0.1490 -0.1181
21169WAT     H186481  -6.588   7.189   6.773  0.9048  0.9294  0.5857
21169WAT     H286482  -6.501   7.292   6.705 -1.3841  2.2787 -0.4297
21169WAT    EPW86483  -6.575   7.247   6.709 -0.3579  0.5329 -0.0660
21170WAT      O86484  -4.049   8.129   6.567  0.1477  0.4013  0.3413
21170WAT     H186485  -3.989   8.178   6.623  1.4138 -0.3678 -0.3198
21170WAT     H286486  -4.098   8.073   6.627  0.6872  0.4117  0.7941
21170WAT    EPW86487  -4.048   8.128   6.582  0.3858  0.3014  0.3138
21171WAT      O86488  -2.039   7.797   7.299 -0.2626 -0.0094 -0.2022
21171WAT     H186489  -2.029   7.722   7.241  1.0312  1.1254 -1.5351
21171WAT     H286490  -2.065   7.869   7.242 -0.6227  0.7746  0.9024
21171WAT    EPW86491  -2.041   7.796   7.284 -0.1395  0.2437 -0.2325
21172WAT      O86492   0.643   4.544   6.600 -0.5481  0.0937  0.5260
21172WAT     H186493   0.554   4.529   6.631 -0.7568 -0.1972 -0.1991
21172WAT     H286494   0.645   4.505   6.513 -0.0920  1.2687 -0.0061
21172WAT    EPW86495   0.632   4.537   6.593 -0.5155  0.2100  0.3603
21173WAT      O86496   3.290   3.789   7.397 -0.4643 -0.8009 -0.3490
21173WAT     H186497   3.385   3.779   7.388 -0.1844  1.1821 -0.0394
21173WAT     H286498   3.253   3.728   7.333  1.0085 -1.6419 -0.4408
21173WAT    EPW86499   3.298   3.779   7.387 -0.2332 -0.6504 -0.3200
21174WAT      O86500  -5.086   6.795   6.206 -0.2037  0.7730 -0.0119
21174WAT     H186501  -5.133   6.871   6.171 -1.6926  0.9273  2.1643
21174WAT     H286502  -5.077   6.813   6.299  2.0247 -0.4268  0.0707
21174WAT    EPW86503  -5.091   6.808   6.213 -0.1061  0.6351  0.2861
21175WAT      O86504   0.910   4.042   1.727  0.2268 -0.4843  0.0719
21175WAT     H186505   0.858   3.966   1.753 -1.7155  1.2507  1.6917
21175WAT     H286506   0.859   4.117   1.758  1.2770  1.5839 -2.7859
21175WAT    EPW86507   0.896   4.042   1.735  0.1091  0.0174 -0.0914
21176WAT      O86508  -1.395   1.694   6.049  0.3825  0.1686 -0.0211
21176WAT     H186509  -1.368   1.630   6.114  1.3708  1.0649  0.4771
21176WAT     H286510  -1.389   1.778   6.094  0.4687  0.7436 -1.0779
21176WAT    EPW86511  -1.391   1.697   6.063  0.5242  0.3626 -0.0949
21177WAT      O86512   4.683   7.303   0.746  0.0645  0.2862  0.4336
21177WAT     H186513   4.714   7.363   0.813  3.3309 -0.1581 -0.4541
21177WAT     H286514   4.743   7.317   0.672 -0.6984 -2.1850 -0.7737
21177WAT    EPW86515   4.695   7.312   0.745  0.3946 -0.0982  0.1573
21178WAT      O86516   0.751   8.101   6.903  0.0607 -0.1801 -0.1444
21178WAT     H186517   0.683   8.083   6.968 -1.7289 -3.6216 -2.6422
21178WAT     H286518   0.811   8.027   6.910 -0.0491 -0.5048 -2.1905
21178WAT    EPW86519   0.750   8.089   6.913 -0.1898 -0.6766 -0.7436
21179WAT      O86520  -1.045   8.749   5.252  0.1102 -1.4002 -0.1699
21179WAT     H186521  -1.040   8.756   5.157  1.0619  0.5890 -0.0251
21179WAT     H286522  -0.962   8.707   5.277  0.0638 -1.4986 -0.1794
21179WAT    EPW86523  -1.033   8.744   5.243  0.2296 -1.1511 -0.1519
21180WAT      O86524  -5.396   9.651   5.058  0.2944  0.1151  0.1209
21180WAT     H186525  -5.384   9.574   5.002  1.2091  0.6042 -0.3882
21180WAT     H286526  -5.308   9.689   5.065 -0.1334  1.0913  0.3959
21180WAT    EPW86527  -5.383   9.646   5.052  0.3586  0.3090  0.0901
21181WAT      O86528  -1.317   8.510   1.337 -0.4677 -0.2234 -0.0481
21181WAT     H186529  -1.322   8.460   1.256  0.4292 -2.6652  1.2826
21181WAT     H286530  -1.390   8.478   1.390  1.8832 -2.6660  2.0423
21181WAT    EPW86531  -1.327   8.499   1.333 -0.0393 -0.8674  0.4031
21182WAT      O86532   2.329   9.534   4.160  0.3924 -0.5238 -0.4052
21182WAT     H186533   2.404   9.488   4.199 -0.5057 -1.6819 -0.0121
21182WAT     H286534   2.253   9.482   4.184 -0.6733  1.1648  0.0290
21182WAT    EPW86535   2.329   9.521   4.168  0.1334 -0.4535 -0.2961
21183WAT      O86536   4.155   7.639   6.673  0.3740 -0.2848  0.6574
21183WAT     H186537   4.146   7.544   6.675  1.6474 -0.4453 -0.1570
21183WAT     H286538   4.126   7.664   6.585 -0.0349  0.1087  0.8953
21183WAT    EPW86539   4.150   7.630   6.662  0.4880 -0.2539  0.5813
21184WAT      O86540   0.183   5.437   0.453 -0.6343 -0.0418 -0.2567
21184WAT     H186541   0.196   5.354   0.499  0.5947 -0.1570 -0.7801
21184WAT     H286542   0.090   5.457   0.467 -0.8937 -1.3671  0.0955
21184WAT    EPW86543   0.172   5.428   0.461 -0.5064 -0.2317 -0.2793
21185WAT      O86544   0.861   0.471   5.959  0.6095 -0.0551  0.4243
21185WAT     H186545   0.867   0.510   6.046 -2.4605  0.1049  0.6530
21185WAT     H286546   0.823   0.540   5.905  0.5266 -0.8554 -0.5648
21185WAT    EPW86547   0.857   0.485   5.963  0.1937 -0.1396  0.3240
21186WAT      O86548   3.735   7.223   3.704  0.0111 -0.3976 -0.5586
21186WAT     H186549   3.767   7.197   3.790 -1.3493  2.0468  0.7922
21186WAT     H286550   3.724   7.318   3.710 -1.9856 -0.3970 -2.8036
21186WAT    EPW86551   3.738   7.232   3.716 -0.4318 -0.0751 -0.6765
21187WAT      O86552   4.060   9.421   3.376 -0.1749  0.0316  0.0064
21187WAT     H186553   4.015   9.339   3.359  0.3818 -0.0405 -1.2842
21187WAT     H286554   4.084   9.417   3.469 -1.0855 -0.7805  0.2163
21187WAT    EPW86555   4.058   9.410   3.386 -0.2215 -0.0854 -0.1360
21188WAT      O86556   6.140   2.472   5.778 -0.4962  0.7954  0.2516
21188WAT     H186557   6.136   2.471   5.682 -1.2761  0.9020  0.2781
21188WAT     H286558   6.136   2.565   5.801 -1.4527  0.7201  0.4227
21188WAT    EPW86559   6.139   2.484   5.768 -0.7250  0.7995  0.2778
21189WAT      O86560  -0.323   5.137   2.553  0.3828  0.0516 -0.3522
21189WAT     H186561  -0.288   5.203   2.493  2.4633  0.1415  0.8906
21189WAT     H286562  -0.386   5.184   2.607  3.5191  1.7908  2.1318
21189WAT    EPW86563  -0.327   5.152   2.552  1.0709  0.2928  0.1394
21190WAT      O86564  -2.276   7.218   8.117 -0.2096  0.1742 -0.6416
21190WAT     H186565  -2.238   7.132   8.134 -0.1101  0.2859 -0.2881
21190WAT     H286566  -2.201   7.278   8.117 -0.2882  0.2728 -0.7921
21190WAT    EPW86567  -2.261   7.215   8.119 -0.2068  0.2019 -0.6151
21191WAT      O86568   1.143   5.532   0.100 -0.2562 -0.1206  0.2138
21191WAT     H186569   1.056   5.544   0.137 -0.7045  0.5522 -1.0029
21191WAT     H286570   1.128   5.524   0.005  1.0045  0.0462 -0.0140
21191WAT    EPW86571   1.130   5.532   0.092 -0.1491 -0.0098  0.0233
21192WAT      O86572   3.652   2.174   0.766  0.5735  0.7941  0.3860
21192WAT     H186573   3.720   2.242   0.772  1.7440 -0.3301  0.3941
21192WAT     H286574   3.698   2.098   0.729 -0.1382 -0.6858  2.3649
21192WAT    EPW86575   3.667   2.173   0.762  0.6341  0.4507  0.6480
21193WAT      O86576   3.084   9.088   7.014  0.0706 -0.2996 -0.1689
21193WAT     H186577   3.067   9.144   7.089  1.0298 -1.0169  0.6055
21193WAT     H286578   3.059   9.001   7.042  0.0440 -0.5137 -0.8271
21193WAT    EPW86579   3.078   9.084   7.027  0.1936 -0.4225 -0.1538
21194WAT      O86580   5.886   4.666   1.306  0.3975 -0.8674 -0.3435
21194WAT     H186581   5.891   4.708   1.392 -0.0170  0.9595 -1.1531
21194WAT     H286582   5.825   4.593   1.318  0.2723 -0.5832  0.8886
21194WAT    EPW86583   5.879   4.662   1.319  0.3264 -0.5889 -0.2877
21195WAT      O86584   3.967   3.109   6.137 -0.7782 -0.3551  0.3400
21195WAT     H186585   4.026   3.053   6.187 -0.8941  0.3141  1.2424
21195WAT     H286586   3.898   3.133   6.199  0.3037  2.3965  0.6088
21195WAT    EPW86587   3.966   3.105   6.152 -0.6508  0.0960  0.4945
21196WAT      O86588   4.823   6.826   3.692 -0.0806  0.2101  0.2953
21196WAT     H186589   4.731   6.845   3.708 -0.6057 -0.1223 -1.9708
21196WAT     H286590   4.827   6.731   3.682  0.1742  0.3596 -1.2410
21196WAT    EPW86591   4.812   6.816   3.693 -0.1163  0.1862 -0.2062
21197WAT      O86592   0.193   0.431   0.880 -0.1858  0.2867  0.1707
21197WAT     H186593   0.231   0.519   0.876  0.0130  0.3265  1.8462
21197WAT     H286594   0.136   0.433   0.957 -2.0978 -0.3656 -1.1554
21197WAT    EPW86595   0.190   0.443   0.890 -0.4117  0.2059  0.2168
21198WAT      O86596  -3.100   5.780   5.973  0.3266  0.5567  0.4607
21198WAT     H186597  -3.060   5.699   6.005  0.6012  0.3242 -0.4242
21198WAT     H286598  -3.095   5.772   5.877  0.6147  1.7402  0.3605
21198WAT    EPW86599  -3.094   5.768   5.964  0.4008  0.6821  0.3307
21199WAT      O86600   4.837   1.376   5.810  0.1099  0.4519  0.4243
21199WAT     H186601   4.822   1.355   5.903  1.9910 -1.1673  0.4375
21199WAT     H286602   4.862   1.468   5.810 -3.5895  1.6040  1.0041
21199WAT    EPW86603   4.839   1.385   5.823 -0.1299  0.3904  0.5023
21200WAT      O86604  -0.352   9.128   2.401  0.1548  0.3194 -0.1867
21200WAT     H186605  -0.386   9.189   2.335 -1.4842 -0.9449 -0.5883
21200WAT     H286606  -0.429   9.076   2.426  1.1617 -0.5013  1.3308
21200WAT    EPW86607  -0.367   9.129   2.395  0.0714  0.0443 -0.0396
21201WAT      O86608   3.199   0.266   2.385 -0.0861  0.3181  0.7044
21201WAT     H186609   3.195   0.192   2.445 -0.9479  0.0716  0.3539
21201WAT     H286610   3.217   0.342   2.442  3.5049 -0.4417  0.8111
21201WAT    EPW86611   3.201   0.267   2.401  0.2738  0.1853  0.6722
21202WAT      O86612  -1.986   3.071   3.212 -0.1381 -0.0616  0.4700
21202WAT     H186613  -1.961   3.104   3.126  0.7419 -0.1242  0.6878
21202WAT     H286614  -2.081   3.061   3.208  0.0193 -1.3379 -0.9506
21202WAT    EPW86615  -1.995   3.074   3.200 -0.0013 -0.2381  0.3114
21203WAT      O86616   5.079   5.056   5.036  0.0596 -0.2379 -0.4128
21203WAT     H186617   5.169   5.082   5.015  0.0865 -0.6480 -0.8263
21203WAT     H286618   5.039   5.135   5.072  1.4627 -0.7870  2.6574
21203WAT    EPW86619   5.086   5.070   5.038  0.2482 -0.3643 -0.0625
21204WAT      O86620   3.666   3.117   7.659 -0.0328  0.1024 -0.3652
21204WAT     H186621   3.708   3.200   7.635  1.2346  0.0931  1.5239
21204WAT     H286622   3.581   3.143   7.695 -0.3806  0.4013 -1.3627
21204WAT    EPW86623   3.660   3.132   7.661  0.0886  0.1405 -0.2477
21205WAT      O86624   8.006   0.808   0.828 -0.0999 -0.5346 -0.1502
21205WAT     H186625   7.947   0.884   0.831 -0.5913 -0.8525 -1.2363
21205WAT     H286626   7.948   0.733   0.830  0.4048 -0.9175  1.3092
21205WAT    EPW86627   7.991   0.808   0.829 -0.0980 -0.6270 -0.1009
21206WAT      O86628   1.434   1.066   6.814 -0.6500 -0.3646  0.5028
21206WAT     H186629   1.464   1.058   6.905 -2.2954  0.4316  1.1619
21206WAT     H286630   1.341   1.043   6.818 -1.0980  1.0911 -0.7237
21206WAT    EPW86631   1.426   1.062   6.827 -0.9262 -0.0676  0.4280
21207WAT      O86632  -1.571   9.570   7.787 -0.4929  0.3031 -0.9336
21207WAT     H186633  -1.544   9.505   7.723  1.6003  0.7960 -0.6564
21207WAT     H286634  -1.580   9.651   7.737  0.2968  0.5021 -0.7783
21207WAT    EPW86635  -1.569   9.572   7.772 -0.1126  0.3943 -0.8764
21208WAT      O86636   0.354   8.152   0.625  0.6479 -0.0502  0.5727
21208WAT     H186637   0.429   8.111   0.581  0.7542 -0.2080  0.8924
21208WAT     H286638   0.325   8.220   0.565  1.4179  0.4047  0.6977
21208WAT    EPW86639   0.360   8.155   0.611  0.7635 -0.0114  0.6313
21209WAT      O86640  -3.432   6.356   5.858  0.1648  0.0566  0.6372
21209WAT     H186641  -3.419   6.395   5.771 -0.0789  1.8508  1.3426
21209WAT     H286642  -3.353   6.380   5.906  0.0212 -0.3688  1.0843
21209WAT    EPW86643  -3.420   6.365   5.853  0.1137  0.2372  0.7892
21210WAT      O86644  -1.688   1.645   8.532 -0.2044  0.2190  0.0294
21210WAT     H186645  -1.701   1.655   8.626  0.3827 -0.9386  0.2456
21210WAT     H286646  -1.737   1.566   8.509  1.6719 -0.9520 -0.1651
21210WAT    EPW86647  -1.696   1.636   8.541  0.1205 -0.0882  0.0324
21211WAT      O86648   1.505   1.793   6.527  0.7047  0.1370 -0.0505
21211WAT     H186649   1.526   1.736   6.453 -0.3065 -1.6625  0.9702
21211WAT     H286650   1.453   1.737   6.586  0.6152  1.8069  1.5350
21211WAT    EPW86651   1.501   1.778   6.525  0.5595  0.1199  0.2933
21212WAT      O86652   2.229   9.453   6.701  0.4386  0.1022  0.1387
21212WAT     H186653   2.205   9.537   6.662 -3.4454 -0.6440  0.5018
21212WAT     H286654   2.293   9.416   6.640 -1.6153  1.1415 -2.8620
21212WAT    EPW86655   2.234   9.459   6.688 -0.3445  0.1407 -0.2091
21213WAT      O86656  -4.049   8.568   1.935 -0.2062 -0.0828  0.9288
21213WAT     H186657  -4.051   8.565   1.839 -0.1531  0.6812  0.8927
21213WAT     H286658  -4.134   8.534   1.963 -0.1372 -0.5171  0.6214
21213WAT    EPW86659  -4.060   8.563   1.926 -0.1900 -0.0391  0.8835
21214WAT      O86660   2.642   4.764   6.571 -0.4646 -0.5793 -0.3590
21214WAT     H186661   2.654   4.803   6.485  1.3241  0.9630  0.5168
21214WAT     H286662   2.704   4.811   6.627 -1.7389 -1.3615  1.8181
21214WAT    EPW86663   2.652   4.776   6.567 -0.3967 -0.4790  0.0436
21215WAT      O86664   0.801   7.105   4.379  0.7237 -0.1176  0.3820
21215WAT     H186665   0.753   7.035   4.333 -1.2382  1.8003 -0.6955
21215WAT     H286666   0.843   7.061   4.452  0.3798 -2.5820 -0.7920
21215WAT    EPW86667   0.800   7.090   4.382  0.4196 -0.1898  0.0849
21216WAT      O86668   2.978   3.501   2.048 -0.0289  0.3159 -0.1279
21216WAT     H186669   3.007   3.414   2.076 -2.0373 -1.1538 -2.1872
21216WAT     H286670   2.976   3.553   2.128 -0.2417 -1.9898  1.4618
21216WAT    EPW86671   2.982   3.496   2.062 -0.3219 -0.1819 -0.1898
21217WAT      O86672   6.765   5.086   2.610  0.0271 -0.1326  0.0365
21217WAT     H186673   6.698   5.141   2.569  0.2821 -0.2282 -0.5112
21217WAT     H286674   6.820   5.057   2.537  0.8723  0.2219  0.5278
21217WAT    EPW86675   6.763   5.089   2.595  0.1724 -0.0985  0.0291
21218WAT      O86676  -0.611   3.575   5.014  0.1686 -0.3090 -0.5398
21218WAT     H186677  -0.555   3.509   5.055  0.0318 -1.1163 -1.6125
21218WAT     H286678  -0.683   3.525   4.976 -0.3426  0.5419 -0.7194
21218WAT    EPW86679  -0.613   3.559   5.015  0.0832 -0.3031 -0.7050
21219WAT      O86680   2.980   1.238   8.700  0.4755  0.4498  0.1801
21219WAT     H186681   2.927   1.200   8.770  0.0236  1.1265  0.2116
21219WAT     H286682   2.916   1.263   8.633  0.8951 -0.0904 -0.4290
21219WAT    EPW86683   2.964   1.236   8.700  0.4712  0.4678  0.1035
21220WAT      O86684   7.219   0.989   1.101 -0.5069 -0.2448  0.2064
21220WAT     H186685   7.168   0.910   1.119 -0.8341  0.3303  2.0581
21220WAT     H286686   7.161   1.061   1.127 -0.1568  0.6249 -1.2898
21220WAT    EPW86687   7.205   0.988   1.107 -0.5038 -0.0543  0.2533
21221WAT      O86688  -0.762   9.889   4.328 -0.0212 -0.4024 -0.3552
21221WAT     H186689  -0.702   9.879   4.402  0.3359 -0.1453 -0.6066
21221WAT     H286690  -0.810   9.969   4.347 -0.1176 -0.4777 -0.2756
21221WAT    EPW86691  -0.761   9.898   4.340  0.0132 -0.3786 -0.3779
21222WAT      O86692  -2.340   0.667   7.626 -0.6074 -0.1323  0.1327
21222WAT     H186693  -2.296   0.745   7.661  0.3975 -0.6201 -0.0176
21222WAT     H286694  -2.300   0.653   7.540  0.0598 -1.4725  0.6372
21222WAT    EPW86695  -2.329   0.676   7.619 -0.3870 -0.3734  0.1795
21223WAT      O86696  -0.537   7.921   7.735  0.0370 -0.2438  0.1287
21223WAT     H186697  -0.602   7.965   7.682  0.8158  0.2540 -0.4312
21223WAT     H286698  -0.497   7.857   7.675 -2.3597 -3.1859  1.3723
21223WAT    EPW86699  -0.540   7.918   7.720 -0.1764 -0.5662  0.2189
21224WAT      O86700  -3.208   9.691   7.592 -1.1070  0.1413  0.6130
21224WAT     H186701  -3.118   9.657   7.587 -0.7642  1.0748  0.1821
21224WAT     H286702  -3.204   9.760   7.658 -1.2967  0.7845 -0.0312
21224WAT    EPW86703  -3.195   9.696   7.600 -1.0867  0.3490  0.4711
21225WAT      O86704  -3.585   2.066   7.043  0.1704 -1.0226  0.4637
21225WAT     H186705  -3.674   2.100   7.051  1.0366  0.9675  3.0400
21225WAT     H286706  -3.546   2.115   6.971  0.4079  1.2952  2.0767
21225WAT    EPW86707  -3.591   2.077   7.035  0.3159 -0.4544  1.0164
21226WAT      O86708  -1.001   3.932   7.146  0.5499 -0.4337 -0.8865
21226WAT     H186709  -1.050   3.982   7.081 -2.5468 -1.9260  0.0933
21226WAT     H286710  -0.979   3.995   7.214 -0.3009  0.2570 -1.2425
21226WAT    EPW86711  -1.005   3.947   7.147  0.0292 -0.5392 -0.8042
21227WAT      O86712  -0.910   1.958   2.918  0.1021  0.7176  0.3151
21227WAT     H186713  -0.905   2.052   2.904 -0.5273  0.7230  0.0908
21227WAT     H286714  -0.977   1.928   2.857 -0.0757  0.2025  0.7485
21227WAT    EPW86715  -0.919   1.966   2.908 -0.0044  0.6503  0.3427
21228WAT      O86716   1.635   2.824   5.842 -0.1750 -0.3228 -0.7718
21228WAT     H186717   1.618   2.761   5.772  1.8330 -0.4207 -1.2323
21228WAT     H286718   1.548   2.855   5.867 -1.0852 -1.7900 -1.8988
21228WAT    EPW86719   1.621   2.820   5.836 -0.0302 -0.5292 -0.9811
21229WAT      O86720  -0.879   7.352   8.283  0.4067  0.0212  0.1792
21229WAT     H186721  -0.920   7.285   8.337 -0.2182  0.2090 -0.0586
21229WAT     H286722  -0.789   7.321   8.271  1.1784  0.9176  2.9154
21229WAT    EPW86723  -0.872   7.339   8.288  0.4260  0.1643  0.5088
21230WAT      O86724  -3.954   4.455   5.541  0.2487 -0.8254 -0.0423
21230WAT     H186725  -3.889   4.524   5.535  0.7569 -1.1585  1.2315
21230WAT     H286726  -4.027   4.486   5.488  1.1849 -0.1639 -0.9861
21230WAT    EPW86727  -3.955   4.468   5.533  0.4392 -0.7823  0.0012
21231WAT      O86728  -2.559   2.224   5.351 -0.1649 -0.3220  0.1939
21231WAT     H186729  -2.574   2.130   5.353 -2.7501  0.0283  1.4404
21231WAT     H286730  -2.612   2.255   5.277  2.3730  0.0041 -1.6265
21231WAT    EPW86731  -2.568   2.216   5.341 -0.1712 -0.2328  0.1180
21232WAT      O86732   5.196   4.769   4.126  0.6003  0.9865 -0.1467
21232WAT     H186733   5.250   4.771   4.047  0.4367  2.0880 -0.2402
21232WAT     H286734   5.259   4.781   4.197  0.4387  3.0908 -0.2987
21232WAT    EPW86735   5.212   4.770   4.125  0.5574  1.4093 -0.1793
21233WAT      O86736  -5.209   7.008   6.079 -0.2393  0.3689 -0.0040
21233WAT     H186737  -5.240   6.979   5.993 -1.2689  1.4380 -0.0261
21233WAT     H286738  -5.180   7.098   6.065 -2.5714  1.3905  1.1691
21233WAT    EPW86739  -5.209   7.016   6.066 -0.6828  0.6444  0.1478
21234WAT      O86740   4.266   4.485   4.937 -0.4073 -0.1322  0.0694
21234WAT     H186741   4.336   4.483   5.002 -2.4691  0.7978  2.4443
21234WAT     H286742   4.272   4.572   4.899 -2.1931  1.2286  2.6429
21234WAT    EPW86743   4.276   4.496   4.940 -0.9148  0.1700  0.7219
21235WAT      O86744   4.672   1.163   5.463  0.2280 -0.2109  0.2180
21235WAT     H186745   4.740   1.155   5.397  1.5728 -0.4246  1.5937
21235WAT     H286746   4.600   1.208   5.417 -0.1982 -3.1683 -2.3191
21235WAT    EPW86747   4.671   1.168   5.448  0.3490 -0.6291  0.0648
21236WAT      O86748  -7.159   7.011   8.031 -0.9117  0.2226  0.0245
21236WAT     H186749  -7.198   7.087   7.987 -1.6923  0.0983  0.4708
21236WAT     H286750  -7.081   6.991   7.981  0.4179  2.5306  1.0305
21236WAT    EPW86751  -7.154   7.018   8.019 -0.8395  0.5105  0.2160
21237WAT      O86752   4.603   4.697   5.692  0.3173  0.0805  0.1248
21237WAT     H186753   4.593   4.790   5.710 -1.9619 -0.3602  1.5343
21237WAT     H286754   4.515   4.666   5.672  0.6988 -2.1016  1.4560
21237WAT    EPW86755   4.590   4.705   5.692  0.0670 -0.2654  0.4864
21238WAT      O86756  -6.817   6.453   7.512  0.2395 -0.6111 -0.5770
21238WAT     H186757  -6.749   6.415   7.456 -2.4203 -3.8146 -2.0197
21238WAT     H286758  -6.846   6.531   7.466  2.2617  0.3201 -0.3634
21238WAT    EPW86759  -6.812   6.458   7.499  0.1554 -0.9108 -0.7393
21239WAT      O86760  -0.747   5.021   8.652  0.3480 -0.4931  0.7556
21239WAT     H186761  -0.652   5.028   8.666  0.3915 -1.5719  1.0693
21239WAT     H286762  -0.785   5.044   8.736  0.3605 -0.7427  0.8303
21239WAT    EPW86763  -0.739   5.025   8.665  0.3554 -0.6683  0.8073
21240WAT      O86764   2.663   4.047   3.968  0.2106 -0.3188  0.5356
21240WAT     H186765   2.715   3.988   4.023  1.4779 -0.8025 -1.1052
21240WAT     H286766   2.575   4.044   4.006  0.4918 -2.4610  1.1446
21240WAT    EPW86767   2.658   4.038   3.980  0.4147 -0.6652  0.3994
21241WAT      O86768   0.188   6.916   3.840  0.1901 -0.4552  0.9411
21241WAT     H186769   0.240   6.879   3.912  0.6902  0.2855  0.9708
21241WAT     H286770   0.098   6.906   3.869  0.4116  0.8019  2.1815
21241WAT    EPW86771   0.183   6.910   3.854  0.2852 -0.1917  1.1086
21242WAT      O86772  -0.783   9.061   6.013 -0.2011  0.2118  0.3488
21242WAT     H186773  -0.848   9.009   5.965 -0.2770 -0.7667  1.4653
21242WAT     H286774  -0.707   9.004   6.021 -0.2306  0.3043  1.4760
21242WAT    EPW86775  -0.782   9.047   6.008 -0.2150  0.0949  0.6447
21243WAT      O86776   2.712   4.722   2.719 -1.0927  0.1137  0.0856
21243WAT     H186777   2.734   4.638   2.680  0.3063  0.6214 -0.2874
21243WAT     H286778   2.638   4.754   2.668 -0.2874  0.0453 -1.1591
21243WAT    EPW86779   2.705   4.715   2.707 -0.8019  0.1717 -0.1279
21244WAT      O86780  -6.522   4.770   8.526  0.2598 -0.8533 -0.0867
21244WAT     H186781  -6.487   4.741   8.610  0.0395  0.1422  0.3605
21244WAT     H286782  -6.571   4.849   8.546 -0.0696 -0.7764 -1.1085
21244WAT    EPW86783  -6.524   4.776   8.539  0.1874 -0.7119 -0.1626
21245WAT      O86784  -2.753   5.502   1.956  0.6103 -0.1840  0.1150
21245WAT     H186785  -2.711   5.477   2.038 -0.1289 -1.0077  0.2560
21245WAT     H286786  -2.838   5.457   1.958  0.3261  0.2888 -0.8153
21245WAT    EPW86787  -2.759   5.493   1.967  0.4754 -0.2303  0.0108
21246WAT      O86788   7.668   2.388   0.236  0.2465  0.1145  0.3114
21246WAT     H186789   7.753   2.432   0.237  0.2913  0.1184 -1.1800
21246WAT     H286790   7.640   2.392   0.145 -1.3650  0.1039  0.7708
21246WAT    EPW86791   7.676   2.394   0.224  0.0398  0.1135  0.1753
21247WAT      O86792  -3.754   5.273   6.917  0.1809 -0.0349  0.7764
21247WAT     H186793  -3.713   5.320   6.844 -0.3297  1.1011  1.2023
21247WAT     H286794  -3.834   5.323   6.936 -1.2138 -1.9641  0.2341
21247WAT    EPW86795  -3.759   5.286   6.910 -0.0703 -0.1397  0.7610
21248WAT      O86796   5.978   7.427   2.819 -0.5612 -0.2999  0.4637
21248WAT     H186797   6.004   7.336   2.836  0.0947  0.0810  1.5652
21248WAT     H286798   5.905   7.419   2.757 -0.7248 -1.5939  0.7851
21248WAT    EPW86799   5.972   7.414   2.813 -0.4964 -0.4201  0.6514
21249WAT      O86800   1.052   8.419   4.803 -0.3297  0.8342 -0.1589
21249WAT     H186801   1.024   8.402   4.892 -0.0639 -0.8514 -0.3539
21249WAT     H286802   1.005   8.498   4.776 -0.5283  1.2619  1.3978
21249WAT    EPW86803   1.042   8.427   4.811 -0.3209  0.6680  0.0207
21250WAT      O86804   4.574   2.874   3.940  0.0352  0.4016 -0.5799
21250WAT     H186805   4.644   2.861   3.877  1.1601  1.0618  0.4763
21250WAT     H286806   4.577   2.798   3.997 -0.0443  0.4749 -0.4754
21250WAT    EPW86807   4.583   2.862   3.939  0.1731  0.4984 -0.4268
21251WAT      O86808   2.778   2.030   2.625  0.5664 -0.6344 -0.4070
21251WAT     H186809   2.855   1.987   2.589  2.0739  0.0212  1.8202
21251WAT     H286810   2.813   2.092   2.690 -1.8592 -0.8677  1.2629
21251WAT    EPW86811   2.793   2.033   2.629  0.4452 -0.5788  0.1069
21252WAT      O86812   5.690   1.382   1.640  0.8170 -0.8872 -0.0294
21252WAT     H186813   5.731   1.445   1.581 -0.0216  0.3279  0.6301
21252WAT     H286814   5.637   1.326   1.583 -0.9540  1.0193 -0.4042
21252WAT    EPW86815   5.688   1.383   1.625  0.4728 -0.4755  0.0082
21253WAT      O86816  -1.591   3.052   6.821 -0.2875 -0.1420  0.6480
21253WAT     H186817  -1.534   3.059   6.897  2.3318  0.8309 -1.2355
21253WAT     H286818  -1.533   3.026   6.749 -1.5635  3.3790 -1.9769
21253WAT    EPW86819  -1.576   3.050   6.821 -0.1103  0.4507  0.0532
21254WAT      O86820   0.966   1.342   8.303 -0.6171  0.1281  0.5400
21254WAT     H186821   0.890   1.309   8.255  0.1595 -0.1168 -0.5382
21254WAT     H286822   0.930   1.367   8.389 -1.8010 -0.5372  0.2655
21254WAT    EPW86823   0.951   1.341   8.308 -0.6708  0.0080  0.3614
21255WAT      O86824   2.759   2.205   6.868 -0.2828 -0.2436  0.8996
21255WAT     H186825   2.768   2.300   6.856 -1.7017 -0.0361  1.2669
21255WAT     H286826   2.826   2.182   6.932  1.4254  0.1516 -0.6766
21255WAT    EPW86827   2.769   2.214   6.875 -0.2447 -0.1640  0.7403
21256WAT      O86828  -1.219   4.346   2.610 -0.0711 -0.4246  0.3371
21256WAT     H186829  -1.244   4.318   2.698  0.0030  0.8866  0.7889
21256WAT     H286830  -1.302   4.358   2.564 -0.2115  0.9917  0.9123
21256WAT    EPW86831  -1.233   4.344   2.615 -0.0799 -0.0648  0.4727
21257WAT      O86832  -1.188   6.787   6.627 -0.8697 -0.9329 -0.6807
21257WAT     H186833  -1.114   6.783   6.566 -0.0015  0.6770  0.1815
21257WAT     H286834  -1.263   6.755   6.576  0.0471 -0.7946 -2.1962
21257WAT    EPW86835  -1.188   6.782   6.612 -0.6343 -0.7021 -0.7668
21258WAT      O86836  -5.280   2.296   8.059 -0.0555  1.4538 -0.1303
21258WAT     H186837  -5.329   2.324   7.981 -0.9335 -0.5936 -0.3672
21258WAT     H286838  -5.340   2.311   8.132 -0.0172  1.4394 -0.0962
21258WAT    EPW86839  -5.295   2.302   8.058 -0.1662  1.1818 -0.1574
21259WAT      O86840   3.796   7.825   1.224  0.8866  0.1973 -0.0321
21259WAT     H186841   3.805   7.805   1.131 -1.6093 -3.2068  0.2994
21259WAT     H286842   3.708   7.860   1.233  0.6155 -0.7563  1.2114
21259WAT    EPW86843   3.786   7.827   1.213  0.5217 -0.3774  0.1757
21260WAT      O86844  -3.065   9.793   4.380 -0.5918 -0.0931  0.5610
21260WAT     H186845  -3.134   9.842   4.335 -1.1904 -0.4377  1.0962
21260WAT     H286846  -3.108   9.753   4.455  0.1860 -0.3382  0.8928
21260WAT    EPW86847  -3.080   9.794   4.384 -0.5680 -0.1707  0.6754
21261WAT      O86848   0.333   7.882   6.460 -0.3068 -0.0295  0.0715
21261WAT     H186849   0.283   7.864   6.539 -1.9381 -0.9781 -1.1358
21261WAT     H286850   0.410   7.930   6.491 -0.5833 -0.9147  2.2902
21261WAT    EPW86851   0.337   7.886   6.474 -0.5584 -0.2713  0.2048
21262WAT      O86852   1.298   1.590   3.464 -0.1348  0.0006 -0.7465
21262WAT     H186853   1.223   1.557   3.414 -0.6118  1.1979 -0.8586
21262WAT     H286854   1.319   1.673   3.423 -0.3114  0.8516  0.7999
21262WAT    EPW86855   1.291   1.597   3.452 -0.2210  0.2707 -0.5573
21263WAT      O86856  -2.913   2.775   7.880  0.8265 -0.8133  0.2740
21263WAT     H186857  -2.901   2.705   7.943  1.4513 -0.6508  0.3459
21263WAT     H286858  -3.006   2.796   7.884  0.3451 -2.5399 -0.7227
21263WAT    EPW86859  -2.923   2.769   7.889  0.8454 -1.0196  0.1521
21264WAT      O86860   3.225   9.247   4.542 -0.5860 -0.3896 -0.1790
21264WAT     H186861   3.291   9.253   4.473 -0.3149 -2.2152 -0.1398
21264WAT     H286862   3.187   9.160   4.530 -0.9791 -0.4920  1.5753
21264WAT    EPW86863   3.229   9.236   4.532 -0.6022 -0.6437  0.0575
21265WAT      O86864   9.939   0.811   0.936  0.0762  0.4811  0.2626
21265WAT     H186865   9.975   0.724   0.949 -1.8832 -0.4572 -0.1490
21265WAT     H286866   9.931   0.847   1.025  1.1973  0.3890  0.4089
21265WAT    EPW86867   9.942   0.804   0.950 -0.0343  0.3452  0.2276
21266WAT      O86868   1.787   1.410   1.115  0.4853  0.2780 -0.3538
21266WAT     H186869   1.722   1.395   1.047 -1.8162  0.6815  1.5977
21266WAT     H286870   1.812   1.502   1.104  0.3478  0.2620 -0.8137
21266WAT    EPW86871   1.782   1.420   1.105  0.1636  0.3291 -0.1572
21267WAT      O86872   0.872   5.657   2.737  0.0902  0.3184 -0.1453
21267WAT     H186873   0.794   5.605   2.714  1.0779  0.2463 -4.1220
21267WAT     H286874   0.938   5.592   2.760  0.4380 -0.0552 -2.0681
21267WAT    EPW86875   0.870   5.642   2.737  0.2663  0.2596 -0.9234
21268WAT      O86876  -6.969   6.929   7.856 -0.4242  0.3214 -0.3701
21268WAT     H186877  -6.962   6.987   7.780 -1.5580  0.2270 -0.5628
21268WAT     H286878  -6.973   6.841   7.818  0.5445  0.1571 -0.1146
21268WAT    EPW86879  -6.969   6.925   7.841 -0.4461  0.2873 -0.3619
21269WAT      O86880  -1.394   9.339   0.461  0.1185 -0.3271 -0.0741
21269WAT     H186881  -1.488   9.350   0.479  0.2332  0.9047 -0.1855
21269WAT     H286882  -1.353   9.334   0.547 -0.1775 -2.3370  0.0038
21269WAT    EPW86883  -1.401   9.340   0.475  0.0946 -0.4296 -0.0785
21270WAT      O86884  -4.713   7.075   8.187 -0.3177  0.2995  0.1996
21270WAT     H186885  -4.676   7.004   8.239  0.6984  0.9689  0.4229
21270WAT     H286886  -4.804   7.081   8.215 -0.3840 -0.8088  0.2741
21270WAT    EPW86887  -4.720   7.067   8.197 -0.1924  0.2418  0.2389
21271WAT      O86888   4.039   0.912   2.168 -0.8090 -0.0302  0.6444
21271WAT     H186889   3.994   0.828   2.178  0.8744 -0.7872  2.5996
21271WAT     H286890   4.093   0.920   2.247  1.5430  1.3524 -0.9785
21271WAT    EPW86891   4.040   0.902   2.180 -0.2766  0.0523  0.6883
21272WAT      O86892   6.113   7.541   3.041 -0.3148  0.0260 -0.6419
21272WAT     H186893   6.075   7.513   2.958  0.2292  0.7286 -1.1317
21272WAT     H286894   6.059   7.496   3.107 -3.2704  2.4305 -1.2003
21272WAT    EPW86895   6.101   7.531   3.039 -0.6330  0.4358 -0.7802
21273WAT      O86896   3.461   6.517   2.866 -0.6541 -0.0900 -0.1266
21273WAT     H186897   3.449   6.538   2.959 -0.9746 -0.2588 -0.1294
21273WAT     H286898   3.536   6.457   2.865 -0.5439  0.0439  0.0068
21273WAT    EPW86899   3.470   6.512   2.878 -0.6818 -0.0947 -0.1093
21274WAT      O86900  -0.150   9.162   1.547  0.1070  0.0651 -0.0055
21274WAT     H186901  -0.137   9.071   1.522 -2.1974  0.3853 -2.9335
21274WAT     H286902  -0.209   9.158   1.623 -0.5086 -0.8978 -0.5216
21274WAT    EPW86903  -0.156   9.150   1.554 -0.2782 -0.0200 -0.4598
21275WAT      O86904  -1.691   6.268   4.254  0.4022 -0.0399 -0.1420
21275WAT     H186905  -1.707   6.358   4.225 -1.1471 -0.0606  0.5283
21275WAT     H286906  -1.656   6.277   4.342 -0.7553 -0.0908  0.3399
21275WAT    EPW86907  -1.689   6.281   4.262  0.0452 -0.0494  0.0100
21276WAT      O86908  -3.657   5.904   3.173  0.1828  0.1766 -0.9166
21276WAT     H186909  -3.692   5.956   3.245  0.3834 -1.3187  0.3228
21276WAT     H286910  -3.565   5.931   3.167 -0.0136  0.8112 -1.0762
21276WAT    EPW86911  -3.650   5.915   3.182  0.1832  0.0632 -0.7741
21277WAT      O86912   1.559   4.674   6.651  0.4408  0.0316 -0.0072
21277WAT     H186913   1.555   4.744   6.586  0.8809 -0.5343 -0.6522
21277WAT     H286914   1.529   4.715   6.732 -1.2597  0.4243 -0.8135
21277WAT    EPW86915   1.555   4.689   6.653  0.2747  0.0088 -0.1988
21278WAT      O86916  -1.108   5.067   2.145  0.1425 -0.7458  0.5674
21278WAT     H186917  -1.087   5.052   2.237  1.3598 -1.2495  0.2396
21278WAT     H286918  -1.130   4.980   2.111  0.2720 -0.6609  0.2601
21278WAT    EPW86919  -1.108   5.053   2.153  0.3202 -0.8008  0.4838
21279WAT      O86920  -4.094   1.234   7.312  0.6531 -0.5379 -0.6574
21279WAT     H186921  -4.030   1.295   7.348 -1.5171  2.1904 -1.0480
21279WAT     H286922  -4.104   1.262   7.220 -0.0029 -1.8606 -1.0106
21279WAT    EPW86923  -4.087   1.246   7.304  0.2804 -0.3525 -0.7555
21280WAT      O86924   1.538   8.378   4.200  0.0260 -0.0317  0.2121
21280WAT     H186925   1.454   8.394   4.156  0.2993 -0.7494 -0.6234
21280WAT     H286926   1.543   8.282   4.208  1.8365 -0.2253 -2.0475
21280WAT    EPW86927   1.527   8.367   4.195  0.3009 -0.1526 -0.1960
21281WAT      O86928   4.024   1.255   4.500 -0.2160 -0.1932  0.1658
21281WAT     H186929   4.097   1.193   4.490 -0.6630 -1.0941  1.9544
21281WAT     H286930   3.949   1.210   4.461 -0.4726 -0.6945  1.1886
21281WAT    EPW86931   4.024   1.241   4.493 -0.3085 -0.3781  0.5367
21282WAT      O86932   4.572   5.099   2.833 -0.4026  0.1823 -0.4884
21282WAT     H186933   4.619   5.171   2.791  0.0916 -1.1712 -2.4154
21282WAT     H286934   4.607   5.020   2.791 -2.8576 -1.0211 -0.4612
21282WAT    EPW86935   4.583   5.098   2.822 -0.6614 -0.1547 -0.7391
21283WAT      O86936  -3.567   6.246   3.352  0.2039  0.2720  0.2046
21283WAT     H186937  -3.618   6.315   3.309 -0.2729  0.9436  1.7860
21283WAT     H286938  -3.632   6.179   3.374  0.3559  0.1660  0.3323
21283WAT    EPW86939  -3.583   6.246   3.349  0.1611  0.3467  0.4300
21284WAT      O86940  -4.653   6.868   7.665  1.0679 -0.1877  0.1467
21284WAT     H186941  -4.581   6.880   7.603  1.5897 -0.7451  0.6257
21284WAT     H286942  -4.731   6.895   7.617  1.3169 -1.6035 -1.1353
21284WAT    EPW86943  -4.654   6.873   7.651  1.1697 -0.4480  0.0405
21285WAT      O86944  -7.908  10.007   7.091 -0.1045 -0.5395  0.9409
21285WAT     H186945  -7.870  10.005   7.179 -0.2082 -0.3391  0.9903
21285WAT     H286946  -7.897  10.097   7.062 -2.0749 -0.0299  1.6309
21285WAT    EPW86947  -7.902  10.019   7.099 -0.3781 -0.4458  1.0386
21286WAT      O86948  -0.695   6.080   8.835  0.7873 -0.2307 -0.0911
21286WAT     H186949  -0.681   5.987   8.815 -0.6229 -0.5696  0.3588
21286WAT     H286950  -0.644   6.126   8.768 -0.8826 -1.3288 -2.2850
21286WAT    EPW86951  -0.687   6.074   8.823  0.3810 -0.4203 -0.3214
21287WAT      O86952   1.555   7.840   3.000 -0.0844 -0.8217  0.6785
21287WAT     H186953   1.581   7.793   2.921 -0.8885 -0.3813  0.1327
21287WAT     H286954   1.593   7.790   3.072  1.3657 -0.7687 -0.0163
21287WAT    EPW86955   1.563   7.827   2.999  0.0008 -0.7565  0.5149
21288WAT      O86956   9.230   0.830   1.591 -0.3025 -0.5636  0.5523
21288WAT     H186957   9.277   0.807   1.511 -0.9429  1.7642 -0.5620
21288WAT     H286958   9.285   0.895   1.634 -2.2594  2.1569 -0.7338
21288WAT    EPW86959   9.243   0.835   1.586 -0.6452  0.1023  0.2357
21289WAT      O86960  -0.853   7.392   1.448 -0.8560  0.5354  0.8843
21289WAT     H186961  -0.796   7.353   1.514  0.6171  1.8808  0.4769
21289WAT     H286962  -0.887   7.318   1.397 -0.0319 -0.3380  1.5887
21289WAT    EPW86963  -0.850   7.377   1.450 -0.5530  0.5977  0.9235
21290WAT      O86964  -1.274   3.740   6.782  0.7517  0.3657  0.3665
21290WAT     H186965  -1.311   3.723   6.869  1.2664 -1.6974  0.2409
21290WAT     H286966  -1.322   3.816   6.750 -1.1359 -0.2720  1.4982
21290WAT    EPW86967  -1.285   3.747   6.789  0.5707  0.0094  0.4992
21291WAT      O86968   2.718   1.684   5.714  0.1375  0.4912 -0.4194
21291WAT     H186969   2.681   1.647   5.633 -1.4581 -0.5115  0.7240
21291WAT     H286970   2.807   1.709   5.689 -1.4108  3.9494 -3.6271
21291WAT    EPW86971   2.725   1.683   5.700 -0.2772  0.8150 -0.6917
21292WAT      O86972   1.709   6.963   3.877  0.1744 -0.6575  0.3080
21292WAT     H186973   1.752   6.894   3.826  1.0972  1.0419 -1.3556
21292WAT     H286974   1.636   6.990   3.822  0.7071  0.6684  0.2221
21292WAT    EPW86975   1.705   6.957   3.863  0.3664 -0.2582  0.0774
21293WAT      O86976  -0.918   1.769   7.576  0.1903  0.0930  0.3073
21293WAT     H186977  -0.906   1.675   7.586  0.1249  0.2155  1.8434
21293WAT     H286978  -1.010   1.780   7.555  0.0688 -0.1603  0.7002
21293WAT    EPW86979  -0.928   1.758   7.575  0.1656  0.0758  0.5617
21294WAT      O86980   3.254   2.446   1.644 -0.8205  0.1451 -0.1768
21294WAT     H186981   3.303   2.365   1.652 -2.4133 -0.6835  2.1901
21294WAT     H286982   3.321   2.515   1.644  0.4598 -1.0617 -0.5803
21294WAT    EPW86983   3.269   2.445   1.645 -0.8618 -0.1233  0.0821
21295WAT      O86984   4.315   4.465   5.470  0.6138  0.3360 -0.2032
21295WAT     H186985   4.294   4.555   5.446  0.6967 -0.0518 -1.8192
21295WAT     H286986   4.407   4.455   5.444  0.0332 -0.8028 -1.9400
21295WAT    EPW86987   4.324   4.476   5.464  0.5484  0.1347 -0.6454
21296WAT      O86988  -6.104   4.799   7.608 -0.2247  0.1111  0.1277
21296WAT     H186989  -6.123   4.707   7.626 -1.3017  0.3895  0.5117
21296WAT     H286990  -6.136   4.846   7.685  0.8989  0.7521  0.2187
21296WAT    EPW86991  -6.111   4.793   7.620 -0.2186  0.2325  0.1903
21297WAT      O86992  -4.165   4.737   8.769  0.5026  0.5174 -0.7031
21297WAT     H186993  -4.097   4.670   8.772 -1.1958 -1.2997 -0.9578
21297WAT     H286994  -4.126   4.809   8.719  2.9267  0.4435  0.8868
21297WAT    EPW86995  -4.151   4.738   8.763  0.5982  0.2680 -0.5269
21298WAT      O86996  -3.743   3.007   8.220  0.8260 -0.7046 -0.3694
21298WAT     H186997  -3.828   3.050   8.234  2.9732  2.8711  4.1408
21298WAT     H286998  -3.702   3.058   8.150  1.6179  2.1877  1.9845
21298WAT    EPW86999  -3.749   3.020   8.212  1.2137  0.1485  0.5360
21299WAT      O87000   0.715   3.213   2.464  0.2604  0.1359 -0.2249
21299WAT     H187001   0.782   3.275   2.492 -1.1258  1.5470  0.1360
21299WAT     H287002   0.651   3.267   2.417 -0.3759 -1.2424 -1.0046
21299WAT    EPW87003   0.715   3.228   2.462 -0.0063  0.1403 -0.2800
21300WAT      O87004   2.779   6.391   7.206  0.2870  0.8173  1.1951
21300WAT     H187005   2.819   6.476   7.185  1.4814 -0.1512 -0.7575
21300WAT     H287006   2.852   6.329   7.203 -0.6189 -0.3553  2.2283
21300WAT    EPW87007   2.794   6.394   7.203  0.3251  0.5348  1.0736
21301WAT      O87008   3.317   4.241   8.169  0.3361 -0.3946  0.4422
21301WAT     H187009   3.271   4.258   8.251  1.9747  0.2466  1.2725
21301WAT     H287010   3.377   4.314   8.160  2.2577 -1.9256  0.2039
21301WAT    EPW87011   3.319   4.253   8.179  0.8057 -0.5119  0.5198
21302WAT      O87012  -2.739   1.139   3.894 -0.0186  0.0758 -0.7472
21302WAT     H187013  -2.807   1.198   3.862 -1.2892 -2.7855 -3.9223
21302WAT     H287014  -2.663   1.158   3.840 -0.0310 -0.2726 -0.8938
21302WAT    EPW87015  -2.738   1.149   3.883 -0.1878 -0.3476 -1.1852
21303WAT      O87016  -0.124   2.393   4.536 -0.1191  0.5318 -0.1901
21303WAT     H187017  -0.159   2.311   4.501  1.6089 -0.6940  0.7628
21303WAT     H287018  -0.036   2.398   4.498  0.6466  0.7407  1.5299
21303WAT    EPW87019  -0.117   2.383   4.526  0.2098  0.3977  0.1626
21304WAT      O87020   5.645   8.970   3.454  0.8536 -1.0078  0.0226
21304WAT     H187021   5.658   8.928   3.538  2.6966  0.3175  0.4612
21304WAT     H287022   5.690   8.913   3.391  2.3728 -0.3141  0.4494
21304WAT    EPW87023   5.652   8.957   3.457  1.2970 -0.7415  0.1367
21305WAT      O87024   4.961   2.120   0.498 -0.7818  0.0389 -0.4507
21305WAT     H187025   4.880   2.098   0.544 -1.4985  3.1159 -0.0266
21305WAT     H287026   4.935   2.135   0.408 -1.1597  2.8295  0.0315
21305WAT    EPW87027   4.947   2.119   0.492 -0.9260  0.8128 -0.3312
21306WAT      O87028   4.356   8.155   0.366  0.0498 -0.1725 -0.1088
21306WAT     H187029   4.440   8.173   0.323  0.7319 -0.0242  1.2434
21306WAT     H287030   4.345   8.226   0.429 -2.1336  0.9872 -1.6487
21306WAT    EPW87031   4.366   8.166   0.368 -0.1483  0.0000 -0.1335
21307WAT      O87032  -0.637   2.111   6.699  0.4002  0.0829  0.3080
21307WAT     H187033  -0.662   2.027   6.662 -0.0343  1.0802 -1.8374
21307WAT     H287034  -0.695   2.174   6.656 -0.8208  1.3132  3.4609
21307WAT    EPW87035  -0.648   2.109   6.689  0.1819  0.3767  0.4411
21308WAT      O87036   5.328   4.781   6.189  0.9730 -0.2706 -0.0812
21308WAT     H187037   5.379   4.708   6.223  1.8282 -1.1699 -3.0268
21308WAT     H287038   5.391   4.835   6.142 -0.0273  1.1915  0.1688
21308WAT    EPW87039   5.343   4.779   6.187  0.9539 -0.1962 -0.4368
21309WAT      O87040  -0.335   8.825   3.753 -0.8316  0.2602  0.2998
21309WAT     H187041  -0.356   8.746   3.703 -1.4266 -0.0988  1.0826
21309WAT     H287042  -0.355   8.801   3.844  1.4274  0.4555  0.9171
21309WAT    EPW87043  -0.340   8.812   3.758 -0.6121  0.2389  0.4845
21310WAT      O87044  -4.720   1.171   7.167  0.2119  0.0436 -0.2852
21310WAT     H187045  -4.734   1.235   7.236  0.2756 -0.7555  0.4800
21310WAT     H287046  -4.804   1.127   7.156  0.6322 -0.9820  0.4736
21310WAT    EPW87047  -4.733   1.174   7.175  0.2756 -0.1971 -0.0842
21311WAT      O87048  -3.034  10.190   1.565  0.7406  0.1740  0.6577
21311WAT     H187049  -2.995  10.103   1.558  0.9222  0.3876 -1.4399
21311WAT     H287050  -3.120  10.181   1.524  0.6186  0.9035  0.7387
21311WAT    EPW87051  -3.040  10.177   1.559  0.7484  0.2980  0.3918
21312WAT      O87052   5.350   2.062   6.819 -0.0378  0.0588 -0.0577
21312WAT     H187053   5.425   2.022   6.775  1.0545  0.7103  1.1320
21312WAT     H287054   5.363   2.157   6.806 -0.9265  0.1592 -0.2472
21312WAT    EPW87055   5.362   2.070   6.811 -0.0110  0.1580  0.0741
21313WAT      O87056   3.272   7.411   7.893 -0.2370 -0.0941 -0.6863
21313WAT     H187057   3.261   7.473   7.965 -0.2548  0.0081 -0.7746
21313WAT     H287058   3.312   7.463   7.823 -1.6106  0.2126 -1.2939
21313WAT    EPW87059   3.275   7.426   7.893 -0.4206 -0.0403 -0.7780
21314WAT      O87060  -5.075   6.215   7.729 -0.0000  0.1134  0.7188
21314WAT     H187061  -5.050   6.126   7.753 -2.6582 -0.4729  1.6833
21314WAT     H287062  -5.012   6.271   7.774  1.1820 -1.2224  0.8054
21314WAT    EPW87063  -5.063   6.211   7.738 -0.1945 -0.1404  0.8574
21315WAT      O87064  -3.352   9.409   5.976  0.3949 -0.1082 -0.2401
21315WAT     H187065  -3.412   9.408   6.050 -0.2210  0.1593 -0.7290
21315WAT     H287066  -3.346   9.501   5.950  2.4228  0.1510  0.9120
21315WAT    EPW87067  -3.359   9.421   5.982  0.5811 -0.0386 -0.1526
21316WAT      O87068   1.327   7.691   1.289  0.0066 -0.1536  0.4395
21316WAT     H187069   1.320   7.613   1.344  1.9953  0.7921  2.2033
21316WAT     H287070   1.363   7.658   1.206  0.8753 -1.1355  1.1700
21316WAT    EPW87071   1.331   7.676   1.285  0.3835 -0.1585  0.7685
21317WAT      O87072   4.713   4.614   7.204  0.2543  0.5084  0.0970
21317WAT     H187073   4.788   4.619   7.144  0.9090  1.7601  0.9622
21317WAT     H287074   4.642   4.658   7.158  0.3656  0.2949 -0.2825
21317WAT    EPW87075   4.714   4.621   7.190  0.3552  0.6454  0.1612
21318WAT      O87076   3.218   4.632   8.377  0.1094 -0.1196  0.2586
21318WAT     H187077   3.274   4.634   8.300 -3.0501 -2.3425 -2.3935
21318WAT     H287078   3.275   4.600   8.447  2.4487 -0.9764 -1.8797
21318WAT    EPW87079   3.233   4.628   8.376  0.0012 -0.5260 -0.3734
21319WAT      O87080   5.795   6.155   0.592  0.6587 -0.2306 -0.2832
21319WAT     H187081   5.782   6.152   0.497  1.3065 -0.6804 -0.3606
21319WAT     H287082   5.874   6.208   0.604 -1.2185  2.7262  0.2087
21319WAT    EPW87083   5.804   6.162   0.581  0.4966  0.1001 -0.2285
21320WAT      O87084   8.835   0.449   0.105  0.3554  0.6974  0.0971
21320WAT     H187085   8.894   0.446   0.030 -1.0603  1.6966 -1.1047
21320WAT     H287086   8.806   0.540   0.110 -0.9938  0.2612  0.7248
21320WAT    EPW87087   8.839   0.460   0.096 -0.0095  0.7717  0.0214
21321WAT      O87088   3.948   0.724   5.937 -0.7015  0.3176 -0.4739
21321WAT     H187089   3.922   0.635   5.913  0.7994 -0.5204  0.7986
21321WAT     H287090   3.896   0.781   5.880 -2.5224 -1.3230 -0.5472
21321WAT    EPW87091   3.938   0.720   5.926 -0.7436 -0.0094 -0.3157
21322WAT      O87092  -0.562   6.803   4.018 -0.6399  0.2881  0.1609
21322WAT     H187093  -0.634   6.824   3.959 -0.5378 -1.4977 -0.6582
21322WAT     H287094  -0.491   6.777   3.959  0.8068  2.2393  0.9313
21322WAT    EPW87095  -0.562   6.802   4.002 -0.4357  0.3099  0.1547
21323WAT      O87096   2.554  10.116   5.195 -0.4422 -0.0181 -0.0889
21323WAT     H187097   2.509  10.111   5.280 -0.9237 -0.2974 -0.3538
21323WAT     H287098   2.645  10.136   5.217 -0.3198 -1.1997  0.5590
21323WAT    EPW87099   2.560  10.118   5.210 -0.4896 -0.2108 -0.0384
21324WAT      O87100   2.095   0.603   0.367  0.2582 -0.3236  0.0394
21324WAT     H187101   2.080   0.680   0.423  0.8794  1.1430 -1.6896
21324WAT     H287102   2.173   0.562   0.403  1.5375  1.4634 -0.5921
21324WAT    EPW87103   2.103   0.608   0.380  0.5088  0.1056 -0.2719
21325WAT      O87104  -2.569   0.485   7.469 -0.7963 -0.2853  0.3235
21325WAT     H187105  -2.516   0.405   7.470 -0.3156  0.0394  1.5961
21325WAT     H287106  -2.647   0.461   7.418 -0.5084 -1.4712  0.4222
21325WAT    EPW87107  -2.573   0.471   7.462 -0.6950 -0.3989  0.5043
21326WAT      O87108  -0.948  10.257   6.040  0.1503  0.5861  0.4823
21326WAT     H187109  -0.910  10.343   6.061 -0.2269  0.8908 -0.0611
21326WAT     H287110  -0.902  10.196   6.098  1.4033  0.9616 -0.0754
21326WAT    EPW87111  -0.937  10.261   6.050  0.2658  0.6757  0.3371
21327WAT      O87112   0.256   8.727   8.346 -0.6263  0.5236  0.9060
21327WAT     H187113   0.261   8.820   8.326  0.1393  0.3514  0.1783
21327WAT     H287114   0.341   8.706   8.386 -0.1618 -0.1317 -0.3295
21327WAT    EPW87115   0.268   8.736   8.348 -0.4641  0.4148  0.6471
21328WAT      O87116   1.451   4.116   0.096  0.3377  0.7105  0.0359
21328WAT     H187117   1.476   4.208   0.092  0.3163  0.7083 -0.1312
21328WAT     H287118   1.413   4.097   0.011  1.4246  0.2394 -0.3638
21328WAT    EPW87119   1.449   4.126   0.084  0.4783  0.6480 -0.0389
21329WAT      O87120   6.845   4.377   0.668  0.3456 -0.2735  0.8571
21329WAT     H187121   6.869   4.467   0.690 -0.2168  0.2605 -0.6195
21329WAT     H287122   6.758   4.385   0.629 -0.2837 -1.6257  1.9280
21329WAT    EPW87123   6.837   4.390   0.666  0.1884 -0.3815  0.8036
21330WAT      O87124  -0.426   5.040   1.267 -0.6041 -0.1386 -0.6387
21330WAT     H187125  -0.493   4.999   1.322  1.0324 -1.6553  0.3371
21330WAT     H287126  -0.367   5.083   1.329  0.0533  0.0524 -1.3759
21330WAT    EPW87127  -0.427   5.040   1.283 -0.3016 -0.3133 -0.6072
21331WAT      O87128   3.197   2.416   3.051 -0.0886  0.1088  0.3776
21331WAT     H187129   3.169   2.341   3.103 -1.8599  0.7026  0.3410
21331WAT     H287130   3.119   2.471   3.044  0.4268  0.6842 -1.8025
21331WAT    EPW87131   3.183   2.413   3.057 -0.2544  0.2631  0.0854
21332WAT      O87132   1.210   2.746   4.851  0.0018 -0.1008 -0.2432
21332WAT     H187133   1.181   2.739   4.941  0.1988 -1.0199 -0.2454
21332WAT     H287134   1.130   2.765   4.801 -0.7690 -3.0170 -0.3046
21332WAT    EPW87135   1.196   2.748   4.856 -0.0739 -0.6067 -0.2518
21333WAT      O87136   0.768   1.840   3.874 -0.5871  0.0318  0.4441
21333WAT     H187137   0.783   1.833   3.969 -0.0094  1.6854  0.5134
21333WAT     H287138   0.677   1.814   3.862 -1.1875  1.3835  1.7052
21333WAT    EPW87139   0.758   1.836   3.885 -0.5901  0.4281  0.6195
21334WAT      O87140   2.434   1.488   4.135 -0.4330 -0.3368  0.9625
21334WAT     H187141   2.400   1.576   4.144  0.5660  0.1152  0.5055
21334WAT     H287142   2.514   1.498   4.082 -0.3381 -1.5123  0.8452
21334WAT    EPW87143   2.440   1.501   4.129 -0.2888 -0.4322  0.8867
21335WAT      O87144   2.603   9.457   0.500  0.5230 -1.2585  0.9588
21335WAT     H187145   2.535   9.395   0.473  0.7618 -0.9035 -0.5211
21335WAT     H287146   2.616   9.513   0.424 -0.6045  1.4815  2.6504
21335WAT    EPW87147   2.596   9.456   0.487  0.4058 -0.8502  0.9868
21336WAT      O87148   7.846   5.472   1.346 -0.7277 -0.7834  0.2423
21336WAT     H187149   7.934   5.499   1.372 -0.3573  0.3529 -1.9641
21336WAT     H287150   7.810   5.548   1.301 -1.5617 -2.3132 -1.8314
21336WAT    EPW87151   7.853   5.486   1.344 -0.7887 -0.8354 -0.3222
21337WAT      O87152   1.698  10.219   7.216 -0.0819  0.2820  0.0112
21337WAT     H187153   1.651  10.143   7.181 -1.3341  0.5155  1.1071
21337WAT     H287154   1.667  10.227   7.306  0.4008  1.8033  0.0733
21337WAT    EPW87155   1.688  10.210   7.223 -0.1834  0.5136  0.1643
21338WAT      O87156   1.148   3.209   6.888  0.1770 -0.6140  0.2571
21338WAT     H187157   1.135   3.275   6.819 -0.7742  0.7602  1.6879
21338WAT     H287158   1.238   3.224   6.918  0.7943 -1.5982 -1.0355
21338WAT    EPW87159   1.158   3.220   6.883  0.1329 -0.5625  0.2754
21339WAT      O87160   0.486   9.647   6.811  0.5625 -0.9358 -0.3656
21339WAT     H187161   0.535   9.700   6.748  1.2770 -1.7807 -0.5360
21339WAT     H287162   0.400   9.688   6.815  0.6957 -0.5201 -1.4490
21339WAT    EPW87163   0.481   9.659   6.803  0.6743 -0.9923 -0.5312
21340WAT      O87164  -0.056   1.644   4.115  0.1843 -0.5532  0.0322
21340WAT     H187165  -0.054   1.699   4.036 -0.3475  0.1231  0.4786
21340WAT     H287166  -0.023   1.559   4.085  1.3519  0.0873 -0.6062
21340WAT    EPW87167  -0.051   1.640   4.100  0.2682 -0.3796  0.0069
21341WAT      O87168   1.271   2.713   5.296 -0.0522 -0.8251 -0.6352
21341WAT     H187169   1.320   2.795   5.289  0.4138 -1.0893 -0.4435
21341WAT     H287170   1.296   2.663   5.218  1.5985 -1.8337  0.4995
21341WAT    EPW87171   1.281   2.717   5.285  0.2270 -0.9929 -0.4604
21342WAT      O87172  -2.391   8.890   8.535 -0.2314  1.2018 -0.1768
21342WAT     H187173  -2.430   8.897   8.622  1.3572  0.9751  0.5876
21342WAT     H287174  -2.315   8.948   8.537  0.2094  0.6936 -1.1907
21342WAT    EPW87175  -2.386   8.898   8.547  0.0362  1.1048 -0.2093
21343WAT      O87176  -3.045   9.073   7.055 -0.4631  0.1228 -0.6514
21343WAT     H187177  -2.951   9.091   7.059 -0.6796  1.6578 -1.6970
21343WAT     H287178  -3.051   8.978   7.065  1.1572  0.0448 -0.0831
21343WAT    EPW87179  -3.033   9.063   7.057 -0.2780  0.3152 -0.7143
21344WAT      O87180   3.078   6.850   6.288  0.1490  0.4039 -0.1694
21344WAT     H187181   3.010   6.890   6.234 -1.9654 -1.8940  0.5718
21344WAT     H287182   3.154   6.906   6.277 -2.3683  4.4082  0.5616
21344WAT    EPW87183   3.079   6.863   6.280 -0.4621  0.6289  0.0248
21345WAT      O87184  -0.010   1.038   7.509 -0.1892  0.6369 -0.0748
21345WAT     H187185  -0.090   1.090   7.513 -0.5562  0.1770 -0.9762
21345WAT     H287186   0.009   1.015   7.600 -1.0846  0.7527  0.1513
21345WAT    EPW87187  -0.019   1.042   7.521 -0.3557  0.5915 -0.1638
21346WAT      O87188  -4.988   6.901   8.186 -0.8216  0.2432 -0.5403
21346WAT     H187189  -5.058   6.963   8.205  1.3939  3.3694 -1.6148
21346WAT     H287190  -4.964   6.865   8.271  0.6047  4.2864  1.0295
21346WAT    EPW87191  -4.994   6.904   8.200 -0.3412  1.1888 -0.4749
21347WAT      O87192   3.136   4.272   8.511  0.2339  0.3935 -0.6670
21347WAT     H187193   3.211   4.214   8.521  1.2474  1.5940 -1.1336
21347WAT     H287194   3.100   4.281   8.599  0.1484 -0.7959 -0.5635
21347WAT    EPW87195   3.141   4.265   8.524  0.3564  0.3948 -0.7148
21348WAT      O87196   1.290   9.899   8.091 -0.1216  0.0304 -0.0056
21348WAT     H187197   1.295   9.957   8.015 -0.7688  0.2939  0.1398
21348WAT     H287198   1.314   9.955   8.166 -0.4355  0.0303  0.0964
21348WAT    EPW87199   1.294   9.914   8.091 -0.2483  0.0648  0.0267
21349WAT      O87200   5.119   5.859   4.337 -0.4842  0.0186 -0.6065
21349WAT     H187201   5.098   5.797   4.408  2.5935 -2.0062 -1.2805
21349WAT     H287202   5.058   5.836   4.267 -0.0080 -1.6341 -0.5047
21349WAT    EPW87203   5.108   5.848   4.337 -0.0155 -0.4666 -0.6821
21350WAT      O87204  -4.349   2.256   7.879 -0.6688  0.3722 -0.2727
21350WAT     H187205  -4.281   2.189   7.891 -1.1025  0.3696  2.9374
21350WAT     H287206  -4.422   2.208   7.840 -0.0176 -0.3984 -0.5866
21350WAT    EPW87207  -4.350   2.241   7.875 -0.6402  0.2704  0.1092
21351WAT      O87208   8.819   1.349   2.445  0.1381 -0.4252 -0.1275
21351WAT     H187209   8.912   1.367   2.431  0.1454 -0.5829 -0.2894
21351WAT     H287210   8.810   1.341   2.540  0.1030  0.5768 -0.0384
21351WAT    EPW87211   8.830   1.350   2.456  0.1345 -0.3138 -0.1371
21352WAT      O87212  -2.642   1.747   6.397  0.6651  0.6557  0.4191
21352WAT     H187213  -2.667   1.678   6.459 -1.5688  0.1175 -0.9694
21352WAT     H287214  -2.720   1.802   6.390  1.9282  2.5365  0.3992
21352WAT    EPW87215  -2.655   1.745   6.404  0.5372  0.8328  0.2334
21353WAT      O87216  -3.599   3.308   6.733  0.3016  0.1741  0.0715
21353WAT     H187217  -3.639   3.366   6.798 -0.2706  1.0619 -1.0368
21353WAT     H287218  -3.505   3.325   6.741  0.2543  0.1198  0.7995
21353WAT    EPW87219  -3.592   3.318   6.743  0.2198  0.2840  0.0215
21354WAT      O87220  -1.378   1.043   7.442 -0.1207 -0.3880 -0.0276
21354WAT     H187221  -1.469   1.014   7.452 -0.3594  0.0627 -0.7830
21354WAT     H287222  -1.379   1.094   7.361  0.8283 -0.4519 -0.0804
21354WAT    EPW87223  -1.390   1.046   7.433 -0.0269 -0.3370 -0.1342
21355WAT      O87224   3.847   3.976   3.559  0.7714 -0.5477 -0.0374
21355WAT     H187225   3.902   3.969   3.638  1.1650  3.3981  0.2512
21355WAT     H287226   3.758   3.963   3.591  0.8890  1.3141  1.2593
21355WAT    EPW87227   3.843   3.973   3.574  0.8389  0.2183  0.1717
21356WAT      O87228   4.647   4.923   4.298 -0.8602 -0.3132  0.0114
21356WAT     H187229   4.627   4.843   4.347  0.7310 -0.4494  0.4906
21356WAT     H287230   4.722   4.900   4.245  1.1984  1.4883  1.9449
21356WAT    EPW87231   4.654   4.909   4.298 -0.3788 -0.0935  0.3297
21357WAT      O87232   0.960   0.987   4.753 -0.6924  0.3873  0.5663
21357WAT     H187233   0.898   1.012   4.685  0.9006 -0.4912 -1.3049
21357WAT     H287234   1.023   1.059   4.756 -0.2059 -0.0285  0.4011
21357WAT    EPW87235   0.960   1.000   4.744 -0.4181  0.2166  0.2978
21358WAT      O87236  -1.326   6.942   6.997 -0.1285 -0.2702 -0.0725
21358WAT     H187237  -1.255   6.971   6.939 -0.4788 -0.9999 -0.8904
21358WAT     H287238  -1.327   7.006   7.067 -1.4347  2.2345 -2.2022
21358WAT    EPW87239  -1.317   6.954   6.998 -0.3470 -0.0362 -0.4611
21359WAT      O87240  -3.721   6.870   2.466 -0.4555 -0.1075  0.6670
21359WAT     H187241  -3.700   6.785   2.505 -1.6988 -0.1411  1.3084
21359WAT     H287242  -3.713   6.855   2.371  0.2860 -0.6616  0.8110
21359WAT    EPW87243  -3.718   6.857   2.458 -0.5217 -0.1850  0.7706
21360WAT      O87244   6.014   0.585   0.529 -0.3022 -0.0953  0.2332
21360WAT     H187245   6.091   0.594   0.585  0.0513 -0.0607 -0.2497
21360WAT     H287246   5.996   0.674   0.499 -1.9007  0.2856  2.1077
21360WAT    EPW87247   6.022   0.598   0.533 -0.4663 -0.0405  0.4168
21361WAT      O87248   0.004   1.370   4.696 -0.1838  0.4167  0.3578
21361WAT     H187249   0.014   1.296   4.636 -1.4585 -1.3399  2.1705
21361WAT     H287250   0.065   1.436   4.663  0.9843 -1.4091 -1.3784
21361WAT    EPW87251   0.014   1.369   4.684 -0.1979 -0.0557  0.3679
21362WAT      O87252  -3.776  10.277   4.960 -0.0729 -0.0647  0.1904
21362WAT     H187253  -3.750  10.347   4.901 -2.4784  1.7857  1.1419
21362WAT     H287254  -3.693  10.242   4.993  1.2544  0.6576 -2.1632
21362WAT    EPW87255  -3.762  10.282   4.957 -0.2151  0.2742  0.0057
21363WAT      O87256   4.353   1.770   6.767  1.0841  0.2906 -0.2336
21363WAT     H187257   4.362   1.676   6.747 -1.0304  0.1347 -0.6440
21363WAT     H287258   4.322   1.808   6.685  3.0444  1.6129 -0.4396
21363WAT    EPW87259   4.350   1.762   6.753  1.0638  0.4445 -0.3147
21364WAT      O87260   3.068   3.278   0.734  0.2305  0.8569 -0.3257
21364WAT     H187261   3.159   3.265   0.708  0.7410  0.5816  1.4742
21364WAT     H287262   3.048   3.367   0.705  2.3652  2.4305  2.5530
21364WAT    EPW87263   3.077   3.288   0.727  0.5795  1.0282  0.2914
21365WAT      O87264  -4.178   9.483   8.302  0.0199 -0.1160 -0.3091
21365WAT     H187265  -4.125   9.527   8.236 -0.4260 -0.3937 -0.8629
21365WAT     H287266  -4.235   9.425   8.252 -3.0365  2.3978 -0.0999
21365WAT    EPW87267  -4.179   9.481   8.287 -0.4423  0.1793 -0.3543
21366WAT      O87268   0.828   8.042   0.315 -0.1172 -0.1461 -0.3467
21366WAT     H187269   0.766   7.969   0.305 -0.5633  0.4015 -1.7118
21366WAT     H287270   0.772   8.118   0.332  0.0390  0.6108 -2.9285
21366WAT    EPW87271   0.812   8.042   0.316 -0.1554  0.0262 -0.8673
21367WAT      O87272  -1.899   8.104   3.060 -0.4531 -0.2585 -0.6151
21367WAT     H187273  -1.869   8.051   3.134 -0.7178  0.6934  0.1919
21367WAT     H287274  -1.863   8.191   3.076  0.3455 -0.2577 -2.1482
21367WAT    EPW87275  -1.890   8.108   3.072 -0.3827 -0.1330 -0.7108
21368WAT      O87276   1.508   4.155   8.517 -0.6640 -0.2721 -0.8704
21368WAT     H187277   1.517   4.199   8.601 -1.3894  0.6962 -1.2778
21368WAT     H287278   1.545   4.217   8.453 -1.3377 -0.4200 -1.4132
21368WAT    EPW87279   1.514   4.169   8.519 -0.8485 -0.1640 -0.9961
21369WAT      O87280   1.834   1.523   0.699  0.4737  0.0939 -0.3793
21369WAT     H187281   1.897   1.589   0.673  0.6063 -0.1220 -0.6098
21369WAT     H287282   1.887   1.449   0.728  0.3281 -0.2011 -0.8618
21369WAT    EPW87283   1.849   1.522   0.699  0.4719  0.0265 -0.4734
21370WAT      O87284   4.227   0.383   6.797 -0.5353  0.4082  0.4331
21370WAT     H187285   4.301   0.328   6.773 -0.8409 -0.3350  1.1549
21370WAT     H287286   4.238   0.397   6.891 -0.8367  1.0310  0.3820
21370WAT    EPW87287   4.239   0.378   6.806 -0.6154  0.3923  0.5217
21371WAT      O87288   5.072   2.514   3.797 -0.2871 -0.3704  0.2212
21371WAT     H187289   5.010   2.446   3.773  1.5332 -2.2100  0.4145
21371WAT     H287290   5.019   2.581   3.840 -2.1862 -1.5363 -0.1830
21371WAT    EPW87291   5.057   2.514   3.800 -0.2973 -0.7666  0.1935
21372WAT      O87292   1.696   1.459   1.961  0.2913  0.3203 -0.1506
21372WAT     H187293   1.704   1.369   1.930 -1.0657  0.1968 -0.2357
21372WAT     H287294   1.609   1.486   1.932 -0.4260  0.7399  2.1564
21372WAT    EPW87295   1.685   1.450   1.953  0.0176  0.3594  0.1425
21373WAT      O87296  -5.138   9.550   3.249 -0.2657  0.3200  0.6920
21373WAT     H187297  -5.063   9.535   3.307  1.3125  1.7873 -0.8791
21373WAT     H287298  -5.139   9.644   3.235 -0.5138  0.0066 -1.7382
21373WAT    EPW87299  -5.128   9.560   3.255 -0.0901  0.4721  0.1643
21374WAT      O87300   4.353   7.074   1.535 -0.3364  0.8037  0.4190
21374WAT     H187301   4.441   7.108   1.552 -0.3529  1.1933 -0.2502
21374WAT     H287302   4.307   7.085   1.618  0.6092 -0.5734  1.1636
21374WAT    EPW87303   4.359   7.080   1.548 -0.2139  0.6735  0.4290
21375WAT      O87304   8.355   1.723   2.429 -0.2883 -0.1646 -0.5331
21375WAT     H187305   8.285   1.660   2.446 -1.2482  0.2169 -2.7358
21375WAT     H287306   8.399   1.691   2.350 -0.3347  1.4969 -1.2930
21375WAT    EPW87307   8.352   1.711   2.421 -0.4210  0.1048 -0.9239
21376WAT      O87308   0.498   1.239   6.760  0.4207  0.1122 -0.0186
21376WAT     H187309   0.426   1.301   6.772  0.9863  0.7396  0.1787
21376WAT     H287310   0.477   1.193   6.679 -1.3511 -1.2909  1.1487
21376WAT    EPW87311   0.486   1.241   6.751  0.2616  0.0098  0.1612
21377WAT      O87312   0.016   6.465   4.606 -0.6712  0.7887  0.6440
21377WAT     H187313   0.029   6.491   4.697  0.3309  1.3535  0.3571
21377WAT     H287314   0.008   6.370   4.608 -0.5718  0.7918  1.3141
21377WAT    EPW87315   0.017   6.456   4.618 -0.5259  0.8636  0.6945
21378WAT      O87316   2.491   1.764   3.379  0.0408 -0.0892  0.1305
21378WAT     H187317   2.525   1.717   3.455 -1.0926  0.3386  0.9386
21378WAT     H287318   2.396   1.751   3.384 -0.0419 -0.1830 -1.3105
21378WAT    EPW87319   2.483   1.756   3.390 -0.1194 -0.0452  0.0470
21379WAT      O87320   3.628   8.673   1.033 -0.4302  0.1161  0.4022
21379WAT     H187321   3.632   8.767   1.047 -0.8683  0.1167  0.5330
21379WAT     H287322   3.534   8.653   1.032 -0.3971 -0.0909 -1.1074
21379WAT    EPW87323   3.616   8.683   1.035 -0.4836  0.0892  0.2204
21380WAT      O87324   4.551   6.664   1.991  0.6116 -0.1765 -1.1235
21380WAT     H187325   4.486   6.599   2.016  0.0987  0.1807 -1.5092
21380WAT     H287326   4.542   6.671   1.896  1.3319 -0.2477 -1.2044
21380WAT    EPW87327   4.542   6.656   1.982  0.6390 -0.1388 -1.1850
21381WAT      O87328   0.293   4.737   0.119 -0.1328  0.3021  1.0602
21381WAT     H187329   0.280   4.752   0.212  3.3927 -0.3571  1.8041
21381WAT     H287330   0.388   4.731   0.109 -0.4566 -2.7895 -2.0819
21381WAT    EPW87331   0.304   4.738   0.130  0.2895 -0.1926  0.7439
21382WAT      O87332   5.676   0.333   1.152 -0.0574  0.2897  0.2205
21382WAT     H187333   5.694   0.423   1.125 -0.5259  0.7723  1.4497
21382WAT     H287334   5.744   0.281   1.108 -1.0337  0.9373 -2.2065
21382WAT    EPW87335   5.688   0.338   1.143 -0.2480  0.4388  0.0626
21383WAT      O87336  -1.378   9.046   7.076 -0.6285 -0.2285  0.6082
21383WAT     H187337  -1.382   9.096   6.994 -1.9225 -1.5738 -0.2032
21383WAT     H287338  -1.373   8.955   7.048 -1.6515 -0.7549  2.0186
21383WAT    EPW87339  -1.378   9.041   7.061 -0.9341 -0.4749  0.6871
21384WAT      O87340   1.852   0.186   6.431  0.7609 -0.4847 -0.2332
21384WAT     H187341   1.935   0.151   6.399  1.1905 -0.3444  0.6813
21384WAT     H287342   1.866   0.280   6.437  0.3704 -0.4036 -0.5242
21384WAT    EPW87343   1.865   0.194   6.428  0.7660 -0.4555 -0.1509
21385WAT      O87344  -2.927   1.324   4.142 -0.1538  0.5235 -0.5748
21385WAT     H187345  -2.968   1.248   4.101  1.1632  0.3130 -1.5882
21385WAT     H287346  -2.874   1.363   4.073  3.9573 -1.1098  1.2616
21385WAT    EPW87347  -2.925   1.319   4.128  0.5621  0.2804 -0.4663
21386WAT      O87348  -1.875  10.129   5.811  0.5579  0.4702  0.7805
21386WAT     H187349  -1.954  10.131   5.756  0.3258 -1.6580  0.9271
21386WAT     H287350  -1.879  10.210   5.862 -1.2973  0.6323  0.4557
21386WAT    EPW87351  -1.886  10.140   5.811  0.2826  0.2108  0.7570
21387WAT      O87352   4.050   9.013   2.437  0.5752  0.0044 -0.2348
21387WAT     H187353   4.001   8.967   2.505 -0.8257  1.2680 -0.3387
21387WAT     H287354   4.095   8.944   2.389 -3.1066 -1.6564 -1.7261
21387WAT    EPW87355   4.049   8.998   2.440 -0.0954 -0.0477 -0.4451
21388WAT      O87356  -2.335   5.573   7.260  0.0434 -0.3624 -0.0211
21388WAT     H187357  -2.390   5.496   7.274  2.2793 -2.1696 -0.6419
21388WAT     H287358  -2.282   5.580   7.340  0.0335  0.3964 -0.0747
21388WAT    EPW87359  -2.336   5.564   7.272  0.3369 -0.5007 -0.1099
21389WAT      O87360  -2.319   6.872   4.590 -0.5522 -0.6232 -0.5897
21389WAT     H187361  -2.304   6.790   4.543 -2.6514 -0.5951 -1.4189
21389WAT     H287362  -2.372   6.925   4.530 -2.4612 -0.1636  1.3805
21389WAT    EPW87363  -2.324   6.868   4.576 -1.0809 -0.5589 -0.4392
21390WAT      O87364   0.932   8.828   0.738 -0.4774  0.8433 -0.2189
21390WAT     H187365   0.903   8.745   0.700  0.2655 -0.4031  1.7883
21390WAT     H287366   0.874   8.841   0.814  1.6613  0.2891  1.5862
21390WAT    EPW87367   0.920   8.819   0.743 -0.0973  0.6061  0.2839
21391WAT      O87368  -5.568   5.867   8.218  0.3246  0.5592 -0.3768
21391WAT     H187369  -5.586   5.828   8.133 -1.2527  2.1560 -0.8471
21391WAT     H287370  -5.632   5.827   8.277 -1.7970  2.7380 -1.0113
21391WAT    EPW87371  -5.579   5.857   8.215 -0.1633  1.0571 -0.5226
21392WAT      O87372   4.752   5.465   2.240 -0.4019  0.0616  0.4543
21392WAT     H187373   4.829   5.450   2.185 -1.6998  1.2875 -1.8412
21392WAT     H287374   4.745   5.387   2.294  1.8654 -0.5004  0.0287
21392WAT    EPW87375   4.762   5.453   2.240 -0.2742  0.1490  0.0955
21393WAT      O87376  -1.346   2.971   1.750  0.2318  0.6568 -0.3395
21393WAT     H187377  -1.282   3.042   1.746  0.7159  0.1538 -1.8825
21393WAT     H287378  -1.423   3.005   1.704 -0.2473  0.8745  0.6000
21393WAT    EPW87379  -1.348   2.985   1.744  0.2324  0.6192 -0.4191
21394WAT      O87380  -1.524   8.155   0.062  0.4775  0.3123 -0.7852
21394WAT     H187381  -1.441   8.200   0.079  0.3486 -0.2589  1.6959
21394WAT     H287382  -1.559   8.135   0.149 -0.9451 -1.9006 -1.7770
21394WAT    EPW87383  -1.518   8.159   0.076  0.2729 -0.0548 -0.5888
21395WAT      O87384   1.568   6.753   2.338 -0.5382 -0.1550 -0.1785
21395WAT     H187385   1.480   6.766   2.301 -1.8743  0.2426  2.8546
21395WAT     H287386   1.594   6.841   2.367 -0.0813 -0.6250  0.8670
21395WAT    EPW87387   1.560   6.767   2.337 -0.6542 -0.1645  0.3594
21396WAT      O87388   5.578   6.641   0.185 -0.2699 -0.7005  0.1239
21396WAT     H187389   5.489   6.608   0.172 -0.5117  0.2784 -0.8096
21396WAT     H287390   5.633   6.562   0.182 -0.7321 -1.0567 -2.9934
21396WAT    EPW87391   5.574   6.626   0.183 -0.3629 -0.6182 -0.4103
21397WAT      O87392   4.875   2.648   4.514  0.1750  0.5478 -0.1361
21397WAT     H187393   4.925   2.567   4.514 -0.4828  0.1081 -1.5847
21397WAT     H287394   4.840   2.656   4.603  1.0583 -0.2339  0.2852
21397WAT    EPW87395   4.877   2.638   4.525  0.2048  0.3867 -0.2716
21398WAT      O87396   3.968   0.501   4.876 -0.9217  0.7177  0.5891
21398WAT     H187397   3.973   0.519   4.782  0.1977 -0.5459  0.3734
21398WAT     H287398   4.040   0.551   4.914  2.2329 -2.9507 -0.0189
21398WAT    EPW87399   3.978   0.510   4.869 -0.3580  0.0672  0.4804
21399WAT      O87400   1.110   5.951   3.006  0.3943 -0.2585 -0.0117
21399WAT     H187401   1.197   5.940   3.044  1.2599 -0.0488 -1.8045
21399WAT     H287402   1.050   5.947   3.080  1.8888 -0.9364  1.2080
21399WAT    EPW87403   1.113   5.949   3.021  0.7056 -0.3200 -0.0873
21400WAT      O87404   2.078   7.196   8.101 -0.7721 -0.3092  0.2954
21400WAT     H187405   2.088   7.111   8.056 -3.2933  0.6840 -2.4584
21400WAT     H287406   2.073   7.260   8.030  2.0206  2.4203  2.2775
21400WAT    EPW87407   2.079   7.193   8.085 -0.7364  0.1819  0.1936
21401WAT      O87408   0.539   4.131   2.896 -0.1872  0.4603  0.9556
21401WAT     H187409   0.463   4.074   2.887  2.1273 -2.5843 -2.2291
21401WAT     H287410   0.567   4.121   2.987 -1.2951 -1.5830  1.1101
21401WAT    EPW87411   0.533   4.122   2.907 -0.0281 -0.2108  0.5560
21402WAT      O87412   4.470   1.803   4.332  0.0110 -0.7235  0.0684
21402WAT     H187413   4.408   1.810   4.259  0.1567 -0.7455 -0.0605
21402WAT     H287414   4.441   1.726   4.381 -0.7648 -0.0514  0.6881
21402WAT    EPW87415   4.458   1.794   4.329 -0.0722 -0.6378  0.1330
21403WAT      O87416   9.261   0.236   1.617 -0.6834 -0.5695 -0.1585
21403WAT     H187417   9.277   0.145   1.642  0.5073 -0.5422 -0.7513
21403WAT     H287418   9.173   0.235   1.579 -0.8976 -1.3606  0.3271
21403WAT    EPW87419   9.252   0.224   1.615 -0.5546 -0.6703 -0.1726
21404WAT      O87420   6.070   8.633   1.782  0.0979 -0.2637 -0.2899
21404WAT     H187421   6.122   8.555   1.803 -1.3331 -0.9501  0.8789
21404WAT     H287422   5.979   8.603   1.787 -0.4425  0.9863 -1.9357
21404WAT    EPW87423   6.065   8.618   1.786 -0.1621 -0.1893 -0.3529
21405WAT      O87424  -1.487   1.976   5.401  0.0505  0.0598  0.0873
21405WAT     H187425  -1.468   2.064   5.366 -2.9940 -0.0007 -2.1198
21405WAT     H287426  -1.432   1.918   5.349  1.3231  0.5310  0.8605
21405WAT    EPW87427  -1.477   1.980   5.389 -0.1832  0.1140 -0.1016
21406WAT      O87428   3.276   8.468   2.959 -0.0711 -0.3148  0.4526
21406WAT     H187429   3.352   8.518   2.928 -1.4670  1.4819 -0.2798
21406WAT     H287430   3.240   8.522   3.030 -2.7007  0.8288 -1.5786
21406WAT    EPW87431   3.282   8.482   2.964 -0.6020  0.0730  0.0881
21407WAT      O87432   0.008  10.064   4.143 -0.0274  0.8861 -0.3661
21407WAT     H187433   0.014   9.971   4.123 -0.2986  0.9226 -0.6415
21407WAT     H287434  -0.086  10.082   4.143 -0.1071  0.7367  1.7264
21407WAT    EPW87435  -0.004  10.054   4.140 -0.0737  0.8707 -0.1264
21408WAT      O87436   1.735  10.330   7.625 -0.6820  0.0996  0.3833
21408WAT     H187437   1.782  10.412   7.639 -0.7980  0.5936 -1.7391
21408WAT     H287438   1.804  10.264   7.612 -0.5923  0.1115  0.7855
21408WAT    EPW87439   1.750  10.332   7.625 -0.6855  0.1664  0.1564
21409WAT      O87440   2.194   3.201   1.843 -1.0386 -0.3074  0.7032
21409WAT     H187441   2.282   3.171   1.868 -1.4097 -1.5981  0.5363
21409WAT     H287442   2.167   3.140   1.775 -1.4352  1.0625 -0.4037
21409WAT    EPW87443   2.202   3.189   1.837 -1.1399 -0.2970  0.5352
21410WAT      O87444   1.657   5.875   3.767 -0.0400  0.0458 -0.6755
21410WAT     H187445   1.598   5.802   3.785  0.0488 -0.4278 -2.1595
21410WAT     H287446   1.734   5.858   3.821 -1.6084  1.2808  2.1987
21410WAT    EPW87447   1.660   5.863   3.777 -0.2352  0.1464 -0.4921
21411WAT      O87448   1.806   0.485   6.832 -0.2378 -0.4807 -0.4561
21411WAT     H187449   1.857   0.531   6.898 -0.0590  0.9729 -1.5626
21411WAT     H287450   1.748   0.552   6.795 -1.2499 -1.5506 -0.8886
21411WAT    EPW87451   1.805   0.500   6.835 -0.3477 -0.4301 -0.6590
21412WAT      O87452  -1.056   5.128   5.233 -0.1649  0.5373  0.5886
21412WAT     H187453  -1.122   5.187   5.195 -0.5587 -0.2201  0.0579
21412WAT     H287454  -1.099   5.090   5.309 -0.1623  0.3959  0.5184
21412WAT    EPW87455  -1.070   5.131   5.238 -0.2165  0.4187  0.5095
21413WAT      O87456   5.737   9.282   1.398  0.7897  0.5803  0.1374
21413WAT     H187457   5.648   9.317   1.406  1.5320  3.8583 -2.9464
21413WAT     H287458   5.727   9.206   1.341 -0.0435  1.1562 -0.5184
21413WAT    EPW87459   5.724   9.277   1.391  0.7777  1.0886 -0.3558
21414WAT      O87460   3.413   4.475   5.929 -0.8796 -0.4913 -0.1029
21414WAT     H187461   3.425   4.538   5.858 -1.4111 -1.0440 -0.6978
21414WAT     H287462   3.497   4.428   5.935 -0.2208  0.7554  0.8471
21414WAT    EPW87463   3.426   4.477   5.921 -0.8627 -0.3998 -0.0563
21415WAT      O87464  -4.461   6.852   6.419  0.1504  0.2563 -0.8257
21415WAT     H187465  -4.491   6.819   6.334 -2.3376 -0.7419  0.3233
21415WAT     H287466  -4.366   6.839   6.418 -0.0619 -1.7348 -2.6314
21415WAT    EPW87467  -4.452   6.846   6.408 -0.2058 -0.1378 -0.9124
21416WAT      O87468  -2.699   7.263   7.109 -0.4086  0.7770  0.5308
21416WAT     H187469  -2.626   7.320   7.132  0.0600  0.6184 -0.5306
21416WAT     H287470  -2.777   7.320   7.117 -0.1833  0.9780  1.5281
21416WAT    EPW87471  -2.700   7.278   7.113 -0.3170  0.7827  0.5224
21417WAT      O87472   1.183   5.647   3.712  0.1755  0.3736  0.2312
21417WAT     H187473   1.125   5.672   3.783  0.4122  1.1206  0.1769
21417WAT     H287474   1.199   5.554   3.725  2.1509  0.9380  2.6187
21417WAT    EPW87475   1.178   5.638   3.723  0.4673  0.5467  0.5388
21418WAT      O87476  -6.214   5.989   8.053 -0.3181 -0.0855 -0.4590
21418WAT     H187477  -6.217   6.080   8.024 -1.6226  0.2883  0.7036
21418WAT     H287478  -6.190   5.995   8.146  2.2295 -1.1235 -0.9812
21418WAT    EPW87479  -6.212   6.002   8.062 -0.1540 -0.1733 -0.3748
21419WAT      O87480   1.689   1.509   5.657 -0.2731 -0.8128 -0.1282
21419WAT     H187481   1.703   1.415   5.643 -1.1394 -1.1174  0.9527
21419WAT     H287482   1.596   1.516   5.677  0.1640  0.0189  1.7834
21419WAT    EPW87483   1.679   1.497   5.657 -0.3297 -0.7433  0.2663
21420WAT      O87484   2.000   1.905   2.806 -0.6308  0.1346  0.2216
21420WAT     H187485   2.001   1.993   2.844 -0.1046  0.1685  0.1377
21420WAT     H287486   1.911   1.873   2.822 -0.6830  0.4946  0.6783
21420WAT    EPW87487   1.988   1.913   2.813 -0.5684  0.1865  0.2706
21421WAT      O87488   0.462   3.157   4.568 -0.2781  0.0970  0.3754
21421WAT     H187489   0.526   3.087   4.552 -1.9050 -1.1650 -0.9435
21421WAT     H287490   0.512   3.223   4.616  1.5741 -1.5509  0.8961
21421WAT    EPW87491   0.477   3.156   4.572 -0.2484 -0.2868  0.2704
21422WAT      O87492  -0.669   9.929   2.378 -0.3134  0.3785  0.3148
21422WAT     H187493  -0.600   9.959   2.437 -0.6629  1.2529  0.2966
21422WAT     H287494  -0.749   9.933   2.430 -0.5328  0.5962 -0.0316
21422WAT    EPW87495  -0.670   9.934   2.392 -0.3884  0.5226  0.2667
21423WAT      O87496  -0.107   9.388   2.554  0.4306  0.2217  0.3346
21423WAT     H187497  -0.094   9.384   2.649  1.3918 -0.2930  0.1970
21423WAT     H287498  -0.048   9.322   2.519  0.8953  1.1526 -0.7026
21423WAT    EPW87499  -0.098   9.379   2.562  0.6186  0.2766  0.1796
21424WAT      O87500  -0.115   5.419   6.069  0.2569  1.0063  0.7534
21424WAT     H187501  -0.192   5.462   6.106 -1.3407  0.7321 -1.9916
21424WAT     H287502  -0.079   5.482   6.007  2.1707  1.0343  1.7990
21424WAT    EPW87503  -0.120   5.433   6.066  0.2986  0.9737  0.5293
21425WAT      O87504   8.087   1.599   1.944 -0.0654  0.1240 -0.2644
21425WAT     H187505   8.019   1.555   1.995  0.5303 -0.2860  0.1904
21425WAT     H287506   8.131   1.528   1.898  0.6907  0.2665  0.2213
21425WAT    EPW87507   8.083   1.584   1.945  0.1130  0.0888 -0.1404
21426WAT      O87508   0.234   5.052   0.239 -0.0633 -0.2347  0.0967
21426WAT     H187509   0.289   4.997   0.183 -1.5216 -0.7110 -0.9320
21426WAT     H287510   0.261   5.029   0.329  0.2975 -1.6400 -0.3379
21426WAT    EPW87511   0.245   5.041   0.244 -0.2080 -0.4830 -0.0963
21427WAT      O87512   1.904   0.412   6.180 -0.7286  0.2330  0.3360
21427WAT     H187513   1.983   0.373   6.218 -1.0527  0.7315  1.5901
21427WAT     H287514   1.844   0.339   6.170 -0.9127  0.1922  1.5651
21427WAT    EPW87515   1.907   0.397   6.184 -0.7957  0.2934  0.6635
21428WAT      O87516   1.902   2.561   4.214 -0.6363 -0.3059  0.3815
21428WAT     H187517   1.965   2.601   4.273  0.3417 -0.9106 -0.2223
21428WAT     H287518   1.920   2.467   4.219  0.0201 -0.3325 -1.4237
21428WAT    EPW87519   1.913   2.554   4.222 -0.4207 -0.3891  0.0634
21429WAT      O87520  -1.268  10.190   6.272 -0.1982 -0.1207  1.1898
21429WAT     H187521  -1.254  10.247   6.348 -0.4705 -0.3069  1.3865
21429WAT     H287522  -1.360  10.204   6.249 -0.1401 -0.1347  0.9514
21429WAT    EPW87523  -1.278  10.199   6.279 -0.2264 -0.1469  1.1845
21430WAT      O87524   5.358   5.350   3.290 -0.2577 -0.3875 -0.1087
21430WAT     H187525   5.448   5.380   3.304 -0.1553 -0.0346 -1.3598
21430WAT     H287526   5.305   5.412   3.340 -0.1758  3.1131 -3.8077
21430WAT    EPW87527   5.363   5.362   3.299 -0.2332  0.1206 -0.7616
21431WAT      O87528  -0.572   4.546   5.252  0.0085  0.1780 -0.6763
21431WAT     H187529  -0.508   4.476   5.247 -1.0157 -0.8173 -0.2316
21431WAT     H287530  -0.645   4.509   5.303 -2.1974  0.2553 -3.5425
21431WAT    EPW87531  -0.573   4.532   5.258 -0.4175  0.0570 -0.9956
21432WAT      O87532   0.248   1.589   2.203  0.0191 -0.0768  0.1502
21432WAT     H187533   0.236   1.643   2.124 -2.8199 -1.4316 -0.4762
21432WAT     H287534   0.199   1.635   2.271  2.7965  1.3049  1.3831
21432WAT    EPW87535   0.240   1.602   2.201  0.0109 -0.0732  0.2302
21433WAT      O87536  -4.619   2.806   6.187 -0.1780  0.2660  0.0863
21433WAT     H187537  -4.600   2.733   6.246  1.9157  0.0210 -0.7844
21433WAT     H287538  -4.705   2.837   6.213 -0.5864 -1.7346  1.2812
21433WAT    EPW87539  -4.628   2.801   6.198  0.0441 -0.0302  0.1287
21434WAT      O87540   7.230   1.254   5.211 -0.5200  1.2026  0.5173
21434WAT     H187541   7.297   1.321   5.203 -0.9804  1.6823  0.6233
21434WAT     H287542   7.168   1.273   5.140  0.3828 -0.3310 -0.7545
21434WAT    EPW87543   7.230   1.265   5.200 -0.4616  1.0635  0.3636
21435WAT      O87544   5.699   2.823   3.791  0.4241 -0.0662 -0.9663
21435WAT     H187545   5.687   2.761   3.863 -0.8019  0.9494 -0.2457
21435WAT     H287546   5.735   2.901   3.832  0.3325  0.2991 -1.5600
21435WAT    EPW87547   5.702   2.825   3.806  0.2503  0.1159 -0.9495
21436WAT      O87548   3.490   1.374   2.362  0.1501  0.6170 -0.1190
21436WAT     H187549   3.516   1.454   2.316  0.6524 -0.6505 -2.1686
21436WAT     H287550   3.395   1.370   2.350  0.3112  0.1247 -1.4478
21436WAT    EPW87551   3.481   1.384   2.354  0.2376  0.3849 -0.5647
21437WAT      O87552  -7.333   5.673   8.672 -0.1648  0.3257 -0.3921
21437WAT     H187553  -7.248   5.688   8.713  0.2061  0.7019 -1.2727
21437WAT     H287554  -7.312   5.632   8.588 -0.7262  1.8582 -1.3291
21437WAT    EPW87555  -7.319   5.670   8.666 -0.1899  0.5774 -0.6318
21438WAT      O87556   0.016   2.769   5.584 -0.4039 -0.0520  0.3994
21438WAT     H187557   0.042   2.727   5.502 -1.1639 -1.0818  0.6694
21438WAT     H287558  -0.044   2.838   5.558 -0.7107 -0.4305  0.0942
21438WAT    EPW87559   0.012   2.773   5.570 -0.5446 -0.2377  0.3948
21439WAT      O87560   0.236   0.331   6.223 -0.0716 -0.1674 -0.0579
21439WAT     H187561   0.243   0.236   6.214  1.1615  0.0124 -1.5871
21439WAT     H287562   0.292   0.365   6.152 -0.1632  1.6873  0.7159
21439WAT    EPW87563   0.244   0.323   6.212  0.0789  0.1010 -0.1574
21440WAT      O87564   1.373   6.632   8.927  0.3389 -0.6150  0.2930
21440WAT     H187565   1.287   6.614   8.887 -0.2661 -1.7571  2.0368
21440WAT     H287566   1.423   6.674   8.857 -0.4600 -3.0486 -1.8887
21440WAT    EPW87567   1.368   6.635   8.912  0.1537 -1.0867  0.2351
21441WAT      O87568   1.672   2.576   2.109  0.8602 -0.6326 -0.1601
21441WAT     H187569   1.609   2.504   2.112 -3.4996  2.7429  0.7737
21441WAT     H287570   1.652   2.627   2.188  3.6906  1.6140 -0.7546
21441WAT    EPW87571   1.661   2.574   2.120  0.6585  0.1090 -0.1153
21442WAT      O87572  -0.151   4.289   8.809  0.0085 -0.0859  0.5070
21442WAT     H187573  -0.078   4.314   8.752 -0.0554 -2.7745 -0.8896
21442WAT     H287574  -0.187   4.210   8.770 -0.0477 -2.1561  4.2394
21442WAT    EPW87575  -0.146   4.282   8.796 -0.0074 -0.7136  0.8149
21443WAT      O87576  -6.937   6.043   8.054 -0.2312  0.4265 -0.6817
21443WAT     H187577  -7.006   5.979   8.037 -0.2234  0.6304 -1.5232
21443WAT     H287578  -6.856   5.992   8.054 -0.3485  0.2365 -0.0210
21443WAT    EPW87579  -6.935   6.028   8.051 -0.2456  0.4284 -0.7052
21444WAT      O87580  -0.576   3.416   6.176  1.2374 -0.5725 -0.2488
21444WAT     H187581  -0.549   3.459   6.094 -1.1436  1.1681 -0.2291
21444WAT     H287582  -0.591   3.489   6.236  1.8033 -1.7732  1.4039
21444WAT    EPW87583  -0.574   3.432   6.173  0.9980 -0.5013 -0.0284
21445WAT      O87584   4.579   0.855   4.008 -0.2755  0.4144  0.6733
21445WAT     H187585   4.596   0.819   3.921 -0.9147  0.7582  0.4062
21445WAT     H287586   4.653   0.913   4.024 -0.0210  0.1519  0.4751
21445WAT    EPW87587   4.591   0.858   3.999 -0.3264  0.4251  0.6119
21446WAT      O87588   3.149   0.314   8.945 -0.0499  1.1695  0.1999
21446WAT     H187589   3.105   0.319   8.860  0.0456  2.6793  0.2078
21446WAT     H287590   3.172   0.405   8.965  0.2045  0.7999  1.6998
21446WAT    EPW87591   3.146   0.327   8.937 -0.0037  1.3199  0.3986
21447WAT      O87592   1.794   9.294   6.136 -0.1516 -0.1451  0.0509
21447WAT     H187593   1.792   9.219   6.195 -2.4706  0.4538  0.8604
21447WAT     H287594   1.851   9.358   6.179  0.8855 -0.9629 -0.0678
21447WAT    EPW87595   1.801   9.293   6.149 -0.3207 -0.1740  0.1419
21448WAT      O87596  -2.291   1.838   6.056  0.1758 -0.3852 -0.3968
21448WAT     H187597  -2.227   1.825   6.127  1.3088  1.4475 -1.0083
21448WAT     H287598  -2.244   1.890   5.991 -1.4484 -0.3963 -1.6361
21448WAT    EPW87599  -2.276   1.843   6.057  0.1111 -0.1449 -0.6409
21449WAT      O87600  -2.311   7.092   5.803 -0.0131 -0.2969 -0.3378
21449WAT     H187601  -2.391   7.106   5.854  2.0545  1.0920  2.8994
21449WAT     H287602  -2.335   7.027   5.737 -2.8860 -2.7786  2.8060
21449WAT    EPW87603  -2.325   7.086   5.801 -0.1193 -0.4411  0.5038
21450WAT      O87604   5.780   0.549   7.047 -0.1054 -0.0120 -1.0034
21450WAT     H187605   5.693   0.571   7.078 -0.3546 -1.3163 -0.7446
21450WAT     H287606   5.767   0.519   6.957  0.0845 -0.1678 -0.9806
21450WAT    EPW87607   5.767   0.548   7.039 -0.1132 -0.2046 -0.9663
21451WAT      O87608  -7.919   8.513   8.171  0.0136  0.3168  0.5166
21451WAT     H187609  -7.998   8.560   8.197  1.0385  1.5241  1.5688
21451WAT     H287610  -7.848   8.559   8.215  1.3066 -0.8083 -0.3117
21451WAT    EPW87611  -7.920   8.525   8.180  0.3195  0.3276  0.5460
21452WAT      O87612  -5.947   3.284   8.696 -0.5997  0.4119  0.4482
21452WAT     H187613  -5.939   3.205   8.749  0.3574 -0.4380 -0.8947
21452WAT     H287614  -5.900   3.351   8.746 -0.7873 -0.0439  1.2536
21452WAT    EPW87615  -5.940   3.283   8.710 -0.4981  0.2397  0.3777
21453WAT      O87616   3.463   7.289   2.451 -0.5759  0.2907  0.5087
21453WAT     H187617   3.472   7.379   2.484  0.7628  0.9662 -1.4452
21453WAT     H287618   3.553   7.263   2.429 -0.9540 -1.5148  0.9580
21453WAT    EPW87619   3.476   7.298   2.452 -0.4492  0.1416  0.3102
21454WAT      O87620  -7.454   9.658   8.794 -0.1209  0.7423  0.1277
21454WAT     H187621  -7.365   9.676   8.764 -0.2358 -0.2349 -0.8812
21454WAT     H287622  -7.506   9.655   8.714 -0.7595 -0.2584  0.5551
21454WAT    EPW87623  -7.449   9.660   8.779 -0.2203  0.4816  0.0510
21455WAT      O87624   2.588   2.397   1.753 -0.6843  0.1974 -0.2596
21455WAT     H187625   2.509   2.379   1.805 -2.1427  0.2570 -2.3310
21455WAT     H287626   2.635   2.463   1.803 -2.6303  1.1298  0.4378
21455WAT    EPW87627   2.584   2.403   1.766 -1.1332  0.3282 -0.4408
21456WAT      O87628   0.010   0.817   1.426  0.3012  0.4504  0.2542
21456WAT     H187629  -0.086   0.821   1.428  0.3207  0.9908  0.6916
21456WAT     H287630   0.036   0.909   1.423  0.8140  0.3588  1.3688
21456WAT    EPW87631   0.000   0.830   1.426  0.3714  0.5096  0.4589
21457WAT      O87632   3.251   2.745   2.077  0.7446 -0.6518  0.3584
21457WAT     H187633   3.184   2.786   2.022  0.6653 -1.0514  0.1557
21457WAT     H287634   3.233   2.651   2.071  0.5344 -0.6880  1.3170
21457WAT    EPW87635   3.240   2.738   2.069  0.7064 -0.7093  0.4581
21458WAT      O87636   2.251   6.427   6.629 -0.6873  0.5946  0.7943
21458WAT     H187637   2.159   6.447   6.646 -0.9811  0.3982 -0.4581
21458WAT     H287638   2.292   6.512   6.615 -2.0076  0.7416 -4.9068
21458WAT    EPW87639   2.245   6.441   6.629 -0.9001  0.5882 -0.1228
21459WAT      O87640   0.304   8.801   1.207 -0.0507 -0.3628  0.2123
21459WAT     H187641   0.225   8.813   1.155 -0.7642  1.0926  1.5281
21459WAT     H287642   0.339   8.716   1.179 -0.5599  0.1868 -2.3170
21459WAT    EPW87643   0.298   8.791   1.197 -0.2119 -0.0982  0.0523
21460WAT      O87644   3.907   4.492   3.296  0.1427  0.2292  0.3614
21460WAT     H187645   3.821   4.448   3.298 -0.6862  1.6637 -1.2211
21460WAT     H287646   3.889   4.577   3.256  2.4578  0.2620 -0.7259
21460WAT    EPW87647   3.893   4.497   3.291  0.3388  0.4227  0.0093
21461WAT      O87648  -1.734   8.852   6.985 -0.8014  0.1455 -0.2265
21461WAT     H187649  -1.677   8.818   6.916 -0.5898 -0.4198  0.2134
21461WAT     H287650  -1.675   8.873   7.057 -0.9811  1.0738 -0.3482
21461WAT    EPW87651  -1.719   8.850   6.985 -0.7972  0.1936 -0.1845
21462WAT      O87652   0.724   9.401   4.473  0.2302 -0.2207  0.2649
21462WAT     H187653   0.790   9.462   4.441 -0.1979 -0.7113 -1.7447
21462WAT     H287654   0.653   9.407   4.409 -0.3790 -1.8595  0.7225
21462WAT    EPW87655   0.723   9.410   4.460  0.0934 -0.5016  0.0601
21463WAT      O87656   5.265   9.514   0.309  0.2356  0.0617  0.4333
21463WAT     H187657   5.178   9.478   0.288  1.2371 -1.6884 -1.0087
21463WAT     H287658   5.313   9.440   0.346  1.3087  0.8555  0.6814
21463WAT    EPW87659   5.260   9.499   0.311  0.5093 -0.0644  0.2759
21464WAT      O87660   1.213  10.082   6.448 -0.2741 -0.0960  0.0487
21464WAT     H187661   1.184  10.119   6.532  1.2095 -1.3593  1.1811
21464WAT     H287662   1.203  10.154   6.386 -3.7658  0.1629  0.7221
21464WAT    EPW87663   1.208  10.096   6.451 -0.5389 -0.2289  0.2868
21465WAT      O87664  -0.894   1.673   1.164 -0.2447  0.0983 -0.0539
21465WAT     H187665  -0.946   1.650   1.240  0.8286 -0.2474  0.5945
21465WAT     H287666  -0.818   1.614   1.167  0.7376  1.2960 -0.3656
21465WAT    EPW87667  -0.891   1.662   1.174  0.0264  0.2106 -0.0095
21466WAT      O87668   1.311   0.899   5.507  0.2059  0.3327 -0.1837
21466WAT     H187669   1.354   0.972   5.462 -1.1863  0.4079 -1.4732
21466WAT     H287670   1.330   0.823   5.451  0.2210  0.0226  0.2394
21466WAT    EPW87671   1.319   0.899   5.494  0.0243  0.3018 -0.2978
21467WAT      O87672   5.090   8.184   3.254  0.1948  0.0902 -0.1216
21467WAT     H187673   5.093   8.090   3.273 -1.3103  0.0374 -0.0120
21467WAT     H287674   5.001   8.211   3.280 -0.3418  0.9991 -2.5950
21467WAT    EPW87675   5.078   8.175   3.260 -0.0744  0.2036 -0.4333
21468WAT      O87676  -0.429   4.339   4.970  0.3364 -0.0068 -0.7537
21468WAT     H187677  -0.480   4.271   5.013 -0.9217  1.4223  0.1182
21468WAT     H287678  -0.494   4.403   4.939  1.5108  3.1274  2.5360
21468WAT    EPW87679  -0.444   4.339   4.971  0.3253  0.5951 -0.2050
21469WAT      O87680   6.068   7.186   1.253 -0.4229  0.0722 -0.0630
21469WAT     H187681   6.160   7.158   1.251 -0.8546 -1.4849  0.4587
21469WAT     H287682   6.068   7.270   1.207  1.0519 -0.5121 -1.2301
21469WAT    EPW87683   6.080   7.194   1.247 -0.2854 -0.2100 -0.1481
21470WAT      O87684   3.918   9.611   2.792  0.0083  0.0035 -0.7409
21470WAT     H187685   3.852   9.611   2.722  0.2649  0.4565 -0.9882
21470WAT     H287686   3.985   9.671   2.761  0.3415 -0.1401 -0.3016
21470WAT    EPW87687   3.918   9.619   2.779  0.0862  0.0439 -0.7156
21471WAT      O87688  -3.339   9.993   0.439 -0.5402 -0.1692 -0.1744
21471WAT     H187689  -3.395   9.915   0.439 -0.3164 -0.4153 -2.4214
21471WAT     H287690  -3.351  10.032   0.525  0.0051 -3.1486  1.3930
21471WAT    EPW87691  -3.348   9.988   0.450 -0.4387 -0.5946 -0.2640
21472WAT      O87692   4.843   5.711   4.238  0.5884  0.1733  0.4119
21472WAT     H187693   4.873   5.623   4.259 -3.1100 -1.0024  1.5201
21472WAT     H287694   4.785   5.735   4.310 -0.1136  2.7045 -0.8431
21472WAT    EPW87695   4.840   5.703   4.250  0.0081  0.3521  0.3924
21473WAT      O87696  -2.210   0.429   6.946  0.6375  0.0179 -0.1015
21473WAT     H187697  -2.136   0.483   6.920  2.1343 -0.0432  3.3819
21473WAT     H287698  -2.239   0.467   7.029 -1.0888 -1.9596  0.2888
21473WAT    EPW87699  -2.204   0.441   6.954  0.6073 -0.2510  0.4094
21474WAT      O87700  -6.093   6.324   7.526 -0.8630  0.3086  0.7673
21474WAT     H187701  -6.035   6.322   7.602 -0.5548 -0.9156  0.5233
21474WAT     H287702  -6.171   6.370   7.556 -0.3860  0.6079  1.5611
21474WAT    EPW87703  -6.095   6.329   7.540 -0.7596  0.1864  0.8399
21475WAT      O87704  -1.663   2.688   7.570 -0.1526 -0.7409  0.3994
21475WAT     H187705  -1.710   2.676   7.653  0.9698  1.6496  1.4831
21475WAT     H287706  -1.607   2.763   7.586  0.8240 -0.8210 -2.2687
21475WAT    EPW87707  -1.662   2.696   7.583  0.1242 -0.4362  0.1903
21476WAT      O87708   7.791   2.210   1.024 -0.4628  0.1728 -0.2171
21476WAT     H187709   7.810   2.272   1.095 -1.9202  0.7864 -0.3413
21476WAT     H287710   7.864   2.222   0.963  1.3939 -1.0913  1.5921
21476WAT    EPW87711   7.803   2.220   1.026 -0.4101  0.0871  0.0051
21477WAT      O87712   4.744   4.097   1.957 -0.7849  0.2383 -0.2048
21477WAT     H187713   4.824   4.050   1.979 -1.0501  0.5359  1.5259
21477WAT     H287714   4.754   4.183   1.998 -2.6018 -0.2335  1.3909
21477WAT    EPW87715   4.755   4.102   1.965 -1.0595  0.2153  0.2339
21478WAT      O87716  -4.142   3.293   7.176 -0.1068 -0.0272 -0.7893
21478WAT     H187717  -4.183   3.220   7.223  2.2835 -1.3302 -0.5823
21478WAT     H287718  -4.202   3.366   7.190 -0.8520 -1.0198  2.0388
21478WAT    EPW87719  -4.155   3.293   7.184  0.1101 -0.3299 -0.3891
21479WAT      O87720  -2.320   0.475   4.146  0.5504 -0.0684 -0.1512
21479WAT     H187721  -2.254   0.408   4.161 -0.2519 -1.3963 -2.1650
21479WAT     H287722  -2.273   0.558   4.157  3.4055 -0.8752 -4.0760
21479WAT    EPW87723  -2.305   0.477   4.149  0.8212 -0.3500 -0.9346
21480WAT      O87724   0.777   1.303   1.984  0.6901  0.2796  0.3858
21480WAT     H187725   0.745   1.213   1.976 -1.3600  0.8519  1.3750
21480WAT     H287726   0.700   1.353   2.013  1.3561  2.6389 -1.5329
21480WAT    EPW87727   0.762   1.298   1.987  0.5076  0.6663  0.2631
21481WAT      O87728   5.143   3.731   4.062 -0.3763 -0.2395  0.3906
21481WAT     H187729   5.174   3.803   4.117 -0.7426 -0.2118  0.5674
21481WAT     H287730   5.219   3.674   4.052  0.6644  1.3655 -1.7782
21481WAT    EPW87731   5.157   3.733   4.068 -0.2873 -0.0242  0.1278
21482WAT      O87732   0.712   8.517   8.335  0.4482  0.0919 -0.1545
21482WAT     H187733   0.693   8.460   8.410  0.1699  0.4684  0.0688
21482WAT     H287734   0.691   8.463   8.259 -0.2411  0.0357  0.0616
21482WAT    EPW87735   0.706   8.502   8.335  0.3206  0.1345 -0.0963
21483WAT      O87736   0.235   9.890   5.271 -0.1465 -0.2949  0.1183
21483WAT     H187737   0.166   9.831   5.241  0.0534  0.4222 -1.8660
21483WAT     H287738   0.188   9.965   5.307 -0.4060 -0.0820 -0.6584
21483WAT    EPW87739   0.219   9.892   5.272 -0.1544 -0.1721 -0.2458
21484WAT      O87740  -0.272   7.111   8.460  0.3898  0.0212 -0.4714
21484WAT     H187741  -0.256   7.078   8.549 -0.1972  0.8226 -0.0570
21484WAT     H287742  -0.265   7.033   8.404 -0.7462 -0.7822  0.4542
21484WAT    EPW87743  -0.269   7.096   8.464  0.1626  0.0207 -0.2947
21485WAT      O87744   4.255   5.441   5.613  0.8575 -1.0072  0.0235
21485WAT     H187745   4.317   5.496   5.660 -0.4215  0.0262  0.5601
21485WAT     H287746   4.286   5.352   5.628  1.3121 -0.6183  1.6352
21485WAT    EPW87747   4.267   5.437   5.621  0.7489 -0.8194  0.3068
21486WAT      O87748   5.552   0.259   8.023  0.5485  0.0494  0.2910
21486WAT     H187749   5.538   0.316   8.098 -0.2160 -0.0116  0.2067
21486WAT     H287750   5.533   0.314   7.947  0.0884 -0.2270  0.1975
21486WAT    EPW87751   5.548   0.274   8.023  0.3872  0.0049  0.2670
21487WAT      O87752   4.951   0.563   4.839 -0.9007  0.4698  0.0592
21487WAT     H187753   4.926   0.647   4.877  0.8499  1.4350 -0.7660
21487WAT     H287754   4.995   0.587   4.757  1.1108 -1.1053  0.5845
21487WAT    EPW87755   4.954   0.577   4.833 -0.4046  0.3894  0.0196
21488WAT      O87756   4.263   6.912   3.983 -0.4000  0.3490  0.0762
21488WAT     H187757   4.261   6.868   3.898 -1.5996 -0.4605  0.5010
21488WAT     H287758   4.331   6.865   4.032  0.4782  0.9833 -0.4872
21488WAT    EPW87759   4.272   6.900   3.979 -0.4425  0.3259  0.0579
21489WAT      O87760  -0.584   0.951   1.628 -0.0342  0.2086  0.0297
21489WAT     H187761  -0.515   0.973   1.565  2.0897  0.1605  2.1843
21489WAT     H287762  -0.587   1.026   1.688 -1.4111 -0.0893  0.3737
21489WAT    EPW87763  -0.575   0.964   1.628  0.0643  0.1630  0.3593
21490WAT      O87764   0.910   5.740   0.026  0.1078 -0.3380 -0.2785
21490WAT     H187765   0.885   5.699  -0.057  0.0532  2.4334 -1.7329
21490WAT     H287766   0.832   5.789   0.054  0.8358  0.5681  0.2271
21490WAT    EPW87767   0.897   5.741   0.019  0.1966  0.1471 -0.4036
21491WAT      O87768   0.498   1.256   1.224 -0.6965  0.1652 -0.0202
21491WAT     H187769   0.575   1.231   1.173 -1.4211 -1.5262 -0.3836
21491WAT     H287770   0.533   1.302   1.300  0.5036  1.4145 -1.2594
21491WAT    EPW87771   0.513   1.259   1.227 -0.6338  0.1069 -0.2316
21492WAT      O87772  -2.337   7.864   8.475  0.0500  0.4805 -0.3270
21492WAT     H187773  -2.364   7.816   8.554 -1.4276 -1.5598 -1.9394
21492WAT     H287774  -2.242   7.864   8.479  0.0500 -0.9489  0.7108
21492WAT    EPW87775  -2.328   7.857   8.486 -0.1450  0.0231 -0.4029
21493WAT      O87776   3.501   1.599   2.204 -0.0640 -0.2332  0.0253
21493WAT     H187777   3.409   1.611   2.181 -0.2166  1.9431  1.4457
21493WAT     H287778   3.522   1.676   2.258  2.1373 -1.4819  1.0798
21493WAT    EPW87779   3.491   1.611   2.208  0.2061 -0.1108  0.3517
21494WAT      O87780  -1.619   3.648   1.216  0.9268 -0.3142 -0.4083
21494WAT     H187781  -1.661   3.686   1.139 -0.4714 -2.1259 -0.6187
21494WAT     H287782  -1.529   3.680   1.213  0.9892 -0.5025 -2.9469
21494WAT    EPW87783  -1.613   3.657   1.205  0.7506 -0.5780 -0.7709
21495WAT      O87784   4.469   1.701   5.835 -0.6588  0.0574  0.3177
21495WAT     H187785   4.454   1.608   5.854 -0.4053  0.3280  1.9609
21495WAT     H287786   4.563   1.713   5.849 -0.7374  0.6153  0.3609
21495WAT    EPW87787   4.479   1.690   5.839 -0.6359  0.1667  0.5403
21496WAT      O87788  -0.861   8.376   1.327 -0.1835 -0.2813 -0.3124
21496WAT     H187789  -0.795   8.340   1.386 -2.5975 -1.6071  1.7404
21496WAT     H287790  -0.817   8.451   1.286  2.3761 -0.7086  1.3936
21496WAT    EPW87791  -0.847   8.382   1.329 -0.1643 -0.5126  0.1833
21497WAT      O87792   3.571   3.548   7.826  0.1372  0.2495  0.6871
21497WAT     H187793   3.527   3.629   7.854 -1.5901 -0.7788  1.1486
21497WAT     H287794   3.662   3.560   7.852  0.5930  3.1493 -1.7203
21497WAT    EPW87795   3.577   3.561   7.833 -0.0305  0.4963  0.4303
21498WAT      O87796   5.058   5.930   2.175 -1.0216  0.7960 -0.0832
21498WAT     H187797   5.116   5.955   2.247 -0.9864 -0.1391  0.2237
21498WAT     H287798   5.083   5.988   2.103 -0.2435  0.9332  0.2899
21498WAT    EPW87799   5.069   5.941   2.175 -0.9143  0.6909  0.0064
21499WAT      O87800   4.419   9.051   3.997 -0.2585  0.3666  0.3381
21499WAT     H187801   4.509   9.060   4.029  0.0136  0.2514 -0.3902
21499WAT     H287802   4.396   8.960   4.016  1.0519 -0.7100 -2.6399
21499WAT    EPW87803   4.428   9.040   4.004 -0.0496  0.2093 -0.1507
21500WAT      O87804   1.674   8.243   2.117  0.2095 -0.2480  0.3654
21500WAT     H187805   1.618   8.177   2.159  0.7107 -1.4323 -0.7549
21500WAT     H287806   1.743   8.192   2.074  0.7639  1.0359 -0.3354
21500WAT    EPW87807   1.676   8.227   2.117  0.3487 -0.2351  0.1252
21501WAT      O87808   0.399   8.792   1.984 -0.9049 -0.0299 -0.4295
21501WAT     H187809   0.382   8.714   2.036 -0.1572 -0.0771 -0.2428
21501WAT     H287810   0.474   8.769   1.930  0.0323  0.9144  0.4247
21501WAT    EPW87811   0.406   8.779   1.984 -0.6827  0.0887 -0.2922
21502WAT      O87812   1.901  10.287   4.712  0.7232 -0.7309  0.4762
21502WAT     H187813   1.863  10.316   4.629  0.8341  1.3446  1.1028
21502WAT     H287814   1.964  10.355   4.735  0.8355 -1.3561  2.1774
21502WAT    EPW87815   1.904  10.300   4.704  0.7526 -0.5398  0.7832
21503WAT      O87816   4.778   1.964   0.283 -0.4537 -0.1801 -0.7908
21503WAT     H187817   4.864   1.942   0.246 -1.3068 -1.6032 -2.0747
21503WAT     H287818   4.746   1.881   0.318 -1.1859  0.4002 -0.0621
21503WAT    EPW87819   4.785   1.950   0.283 -0.6628 -0.2913 -0.8641
21504WAT      O87820  -4.883   9.933   3.778  0.6470 -0.0041 -0.4047
21504WAT     H187821  -4.955   9.996   3.765 -0.0621 -0.8656 -0.7566
21504WAT     H287822  -4.804   9.982   3.755 -0.1133 -0.0852 -3.7471
21504WAT    EPW87823  -4.882   9.948   3.773  0.4535 -0.1283 -0.8919
21505WAT      O87824   1.966   9.686   2.000 -0.4910 -0.3508 -0.1181
21505WAT     H187825   1.893   9.747   2.011 -0.1398  0.3935 -1.6452
21505WAT     H287826   2.041   9.730   2.039 -0.5144 -0.4122 -0.0025
21505WAT    EPW87827   1.966   9.700   2.007 -0.4478 -0.2608 -0.3043
21506WAT      O87828  -0.855   2.119   8.697 -0.4690  0.1991 -1.0710
21506WAT     H187829  -0.851   2.183   8.625  0.1778  0.1524 -1.0802
21506WAT     H287830  -0.810   2.042   8.662 -0.5128  0.0339 -0.7601
21506WAT    EPW87831  -0.848   2.118   8.683 -0.3895  0.1711 -1.0314
21507WAT      O87832   8.716   0.177   1.498 -0.5161 -0.5236  0.0378
21507WAT     H187833   8.676   0.202   1.582 -3.1904 -0.3270 -1.1918
21507WAT     H287834   8.698   0.251   1.440  0.2293 -1.1615 -1.0534
21507WAT    EPW87835   8.708   0.190   1.502 -0.7706 -0.5818 -0.2683
21508WAT      O87836  -1.480   2.721   8.294  0.3298  0.0739 -0.4748
21508WAT     H187837  -1.475   2.817   8.291  0.6329  0.0270 -1.7410
21508WAT     H287838  -1.456   2.700   8.384 -1.1403  1.2539  0.2505
21508WAT    EPW87839  -1.476   2.731   8.306  0.1758  0.2233 -0.5465
21509WAT      O87840  -1.062   3.544   6.534 -0.5489 -0.0373  0.2358
21509WAT     H187841  -0.996   3.614   6.536 -0.5896 -0.0104  0.8129
21509WAT     H287842  -1.036   3.489   6.460 -1.2264  1.2669 -1.0136
21509WAT    EPW87843  -1.050   3.546   6.524 -0.6437  0.1382  0.1471
21510WAT      O87844  -1.529  10.346   3.638 -0.1813  0.6883 -0.1312
21510WAT     H187845  -1.563  10.364   3.726  2.1570  1.6591  0.6601
21510WAT     H287846  -1.434  10.355   3.647  0.3460 -1.5661 -2.2303
21510WAT    EPW87847  -1.521  10.349   3.651  0.1966  0.5188 -0.3037
21511WAT      O87848   3.910   3.975   5.347  0.6509  0.4768 -0.6750
21511WAT     H187849   3.866   3.897   5.315  1.3109  0.1123 -0.6977
21511WAT     H287850   4.001   3.965   5.320  0.5224  1.8235 -1.7579
21511WAT    EPW87851   3.916   3.964   5.339  0.7209  0.6064 -0.8206
21512WAT      O87852   3.297   1.850   2.159  0.2991 -0.4029  0.2713
21512WAT     H187853   3.339   1.925   2.201  0.0818  1.6313 -2.7535
21512WAT     H287854   3.263   1.797   2.231  2.4146  1.2137  2.6206
21512WAT    EPW87855   3.298   1.853   2.174  0.5494  0.0787  0.1823
21513WAT      O87856   0.132   9.552   1.226 -0.3126  0.0079 -0.0548
21513WAT     H187857   0.178   9.629   1.261 -2.1768  1.7965 -1.2624
21513WAT     H287858   0.191   9.516   1.161 -0.2234  1.7692 -1.0120
21513WAT    EPW87859   0.146   9.558   1.222 -0.5467  0.4764 -0.3402
21514WAT      O87860  -0.965   9.592   3.440  0.1366 -0.0294  0.3267
21514WAT     H187861  -1.034   9.609   3.376  0.5957  1.8850  0.2802
21514WAT     H287862  -1.003   9.614   3.524 -0.3240 -2.1302  0.7075
21514WAT    EPW87863  -0.979   9.597   3.442  0.1364 -0.0544  0.3707
21515WAT      O87864  -5.252   9.875   4.613 -0.2218 -0.7499  0.1643
21515WAT     H187865  -5.298   9.940   4.560 -2.6277 -0.7354  2.0976
21515WAT     H287866  -5.321   9.821   4.651  1.1975 -0.2686  3.8763
21515WAT    EPW87867  -5.267   9.876   4.611 -0.3517 -0.6843  0.9089
21516WAT      O87868   7.570   1.444   2.469 -0.3380  0.4310 -0.0681
21516WAT     H187869   7.639   1.423   2.532 -0.9611 -0.3733  0.3707
21516WAT     H287870   7.495   1.393   2.498 -0.1690 -1.3425 -2.4279
21516WAT    EPW87871   7.569   1.434   2.481 -0.3979  0.0910 -0.3215
21517WAT      O87872  -1.837   5.968   4.059  0.1430  0.1083  0.1886
21517WAT     H187873  -1.742   5.974   4.047  0.1774  1.4179  0.8672
21517WAT     H287874  -1.858   5.877   4.040  0.8787  0.6891 -4.5766
21517WAT    EPW87875  -1.827   5.957   4.055  0.2446  0.3576 -0.3502
21518WAT      O87876   3.692   8.946   0.734  0.1054 -0.0463  0.2580
21518WAT     H187877   3.602   8.977   0.746  0.1898 -0.0951  1.1243
21518WAT     H287878   3.713   8.964   0.643 -1.0894 -0.8293 -0.1929
21518WAT    EPW87879   3.683   8.952   0.724 -0.0411 -0.1559  0.3128
21519WAT      O87880   0.289   1.109   0.590 -0.0287  0.6141  0.4280
21519WAT     H187881   0.249   1.193   0.612  0.3763  0.1545  3.3183
21519WAT     H287882   0.374   1.111   0.634  0.7830 -0.6159 -1.0040
21519WAT    EPW87883   0.295   1.120   0.599  0.1318  0.3912  0.6203
21520WAT      O87884   0.276   9.377   2.388 -0.5962 -0.6010  0.2623
21520WAT     H187885   0.342   9.326   2.341 -0.0536  0.5315 -0.2214
21520WAT     H287886   0.320   9.459   2.410 -2.1612  0.6382 -1.0268
21520WAT    EPW87887   0.290   9.381   2.385 -0.7310 -0.2885  0.0285
21521WAT      O87888   1.123   5.147   0.262 -0.5382 -0.2532  0.6016
21521WAT     H187889   1.219   5.146   0.266 -0.5535  0.1905  2.2226
21521WAT     H287890   1.096   5.066   0.306 -0.8815  0.6415  2.1203
21521WAT    EPW87891   1.132   5.136   0.269 -0.5856 -0.0768  1.0157
21522WAT      O87892   3.016   9.924   0.429  0.0877 -0.1434 -0.1586
21522WAT     H187893   3.060   9.991   0.378  0.4325 -0.8694 -0.8411
21522WAT     H287894   3.084   9.858   0.446 -0.2028 -0.2595  0.6200
21522WAT    EPW87895   3.031   9.924   0.425  0.0949 -0.2546 -0.1459
21523WAT      O87896   1.778   0.259   8.062 -1.1162  0.3527  0.1759
21523WAT     H187897   1.689   0.225   8.066 -1.6221  1.1572 -2.4774
21523WAT     H287898   1.769   0.349   8.030  0.5875  1.0691  1.4766
21523WAT    EPW87899   1.765   0.266   8.059 -0.9582  0.5533 -0.0029
21524WAT      O87900  -3.204   7.781   7.161 -0.5322  0.8650 -0.6967
21524WAT     H187901  -3.212   7.707   7.100  0.0258  0.5375 -0.3876
21524WAT     H287902  -3.277   7.839   7.139 -0.8114  0.3555 -1.1330
21524WAT    EPW87903  -3.215   7.779   7.150 -0.4953  0.7546 -0.7136
21525WAT      O87904  -6.570   6.334   7.341 -0.1655  0.1108  0.4081
21525WAT     H187905  -6.550   6.426   7.323  2.1377 -0.1217  1.4831
21525WAT     H287906  -6.512   6.285   7.284  0.3264 -0.6472  1.5330
21525WAT    EPW87907  -6.560   6.340   7.331  0.2031 -0.0198  0.6981
21526WAT      O87908  -5.604   2.365   8.544 -0.6667 -0.5703  0.2756
21526WAT     H187909  -5.660   2.440   8.564 -0.7546 -0.9085  1.3500
21526WAT     H287910  -5.655   2.289   8.572  0.4349 -0.8669  1.5463
21526WAT    EPW87911  -5.618   2.365   8.550 -0.5329 -0.6540  0.5846
21527WAT      O87912   1.749   9.632   2.291  0.4964  0.2730  0.3755
21527WAT     H187913   1.723   9.711   2.338 -1.3731  0.4226 -0.7957
21527WAT     H287914   1.686   9.566   2.319  1.1955 -0.4392  0.3031
21527WAT    EPW87915   1.738   9.634   2.301  0.3420  0.1984  0.2115
21528WAT      O87916  -3.485   9.511   2.405  0.4117 -0.3684 -0.2610
21528WAT     H187917  -3.558   9.553   2.451 -0.3610 -1.3129 -0.5953
21528WAT     H287918  -3.418   9.580   2.398 -0.4712  0.5349 -0.0159
21528WAT    EPW87919  -3.486   9.526   2.410  0.1934 -0.3738 -0.2728
21529WAT      O87920  -4.518   4.915   7.566 -0.1562 -0.4086 -0.7102
21529WAT     H187921  -4.466   4.921   7.646  0.3438 -1.8052 -0.9013
21529WAT     H287922  -4.596   4.967   7.584  0.3978  0.0928  0.3213
21529WAT    EPW87923  -4.522   4.922   7.579 -0.0172 -0.5264 -0.5994
21530WAT      O87924   3.020   5.617   8.679 -0.1952  0.2382  0.0773
21530WAT     H187925   3.057   5.542   8.632 -0.4753 -0.6949  1.2920
21530WAT     H287926   3.042   5.692   8.624 -2.2962 -0.9542 -2.6516
21530WAT    EPW87927   3.028   5.617   8.666 -0.5091 -0.0422 -0.1225
21531WAT      O87928  -4.319   9.451   4.198 -0.2883 -0.1760  0.0828
21531WAT     H187929  -4.266   9.494   4.130  0.2147 -0.5573  0.2257
21531WAT     H287930  -4.383   9.399   4.150 -2.2140  2.2257 -0.1330
21531WAT    EPW87931  -4.320   9.450   4.183 -0.4761  0.0906  0.0732
21532WAT      O87932   1.532   1.673   0.700 -0.4762  0.7262 -0.0185
21532WAT     H187933   1.497   1.725   0.627 -1.1099 -1.4234 -1.3457
21532WAT     H287934   1.590   1.610   0.658 -0.5942 -0.3546  1.3686
21532WAT    EPW87935   1.535   1.671   0.685 -0.5754  0.3002 -0.0106
21533WAT      O87936   2.116   1.865   6.727  0.5002  0.3766 -0.0846
21533WAT     H187937   2.112   1.945   6.675  0.7936  1.2009  1.1258
21533WAT     H287938   2.030   1.860   6.770  0.1827 -0.4097 -0.7797
21533WAT    EPW87939   2.104   1.875   6.726  0.4970  0.3816 -0.0167
21534WAT      O87940   0.667   9.504   7.009 -0.2002  0.6141 -0.0255
21534WAT     H187941   0.592   9.551   7.046 -2.8581 -2.0484 -1.5830
21534WAT     H287942   0.683   9.548   6.925  0.6366  1.7147  0.6758
21534WAT    EPW87943   0.659   9.516   7.003 -0.4404  0.4082 -0.1385
21535WAT      O87944  -0.307   6.491   6.245  0.6498  0.7924 -0.9672
21535WAT     H187945  -0.227   6.540   6.263  0.3331  1.3790 -1.1289
21535WAT     H287946  -0.307   6.477   6.151  0.8323  0.3116 -0.8986
21535WAT    EPW87947  -0.297   6.496   6.235  0.6321  0.8063 -0.9794
21536WAT      O87948  -5.239   7.066   5.193 -0.5101 -0.1528  0.0392
21536WAT     H187949  -5.323   7.103   5.219 -1.3951 -3.0421  1.6920
21536WAT     H287950  -5.258   7.019   5.112  0.0960  1.0712 -0.8430
21536WAT    EPW87951  -5.252   7.065   5.186 -0.5469 -0.3724  0.1407
21537WAT      O87952   3.214   8.203   6.270 -0.1175  0.3177  0.0079
21537WAT     H187953   3.196   8.116   6.306 -0.8788  1.0238  1.4064
21537WAT     H287954   3.262   8.248   6.339  2.3636  0.2970 -1.5711
21537WAT    EPW87955   3.218   8.197   6.283  0.1092  0.4082 -0.0157
21538WAT      O87956  -4.307   8.547   8.494  0.6453 -0.3168  0.3722
21538WAT     H187957  -4.223   8.593   8.504  1.7977 -1.7249 -1.8803
21538WAT     H287958  -4.282   8.456   8.482 -1.1673 -0.6753 -1.0165
21538WAT    EPW87959  -4.293   8.541   8.494  0.5581 -0.5498 -0.1078
21539WAT      O87960  -0.306   4.261   1.395  0.1852 -0.3427 -0.4984
21539WAT     H187961  -0.366   4.189   1.413  0.2559  0.2526  2.6041
21539WAT     H287962  -0.259   4.233   1.316 -1.3454 -2.6384 -0.7035
21539WAT    EPW87963  -0.307   4.248   1.387 -0.0073 -0.5670 -0.1162
21540WAT      O87964   0.118   3.605   6.563  0.6900  0.1412  0.5906
21540WAT     H187965   0.069   3.523   6.571  1.3499 -0.3914 -0.5611
21540WAT     H287966   0.174   3.607   6.641 -0.5786  0.3851  1.5280
21540WAT    EPW87967   0.119   3.594   6.575  0.6097  0.1031  0.5624
21541WAT      O87968   7.911   3.716   1.501  0.1445 -0.1772  0.1535
21541WAT     H187969   7.846   3.705   1.432  1.2284 -0.1254 -0.8961
21541WAT     H287970   7.863   3.758   1.572 -1.1813 -0.9477 -0.2533
21541WAT    EPW87971   7.896   3.720   1.501  0.1128 -0.2719 -0.0386
21542WAT      O87972  -4.449   9.442   4.451 -0.1740  0.5943 -0.2241
21542WAT     H187973  -4.405   9.439   4.366  0.7831  1.9765  0.1927
21542WAT     H287974  -4.401   9.380   4.506  0.9442  1.6883  0.0690
21542WAT    EPW87975  -4.437   9.433   4.447  0.0997  0.9212 -0.1304
21543WAT      O87976   6.299   5.507   2.249  0.3979  0.7350  0.1086
21543WAT     H187977   6.339   5.424   2.224 -0.1418  0.5772 -0.2519
21543WAT     H287978   6.363   5.574   2.224 -0.2556  0.6170 -2.0417
21543WAT    EPW87979   6.313   5.505   2.243  0.2406  0.6988 -0.2226
21544WAT      O87980  -1.188   8.323   5.517  0.3518  0.1133 -0.1602
21544WAT     H187981  -1.230   8.276   5.589 -0.2022 -1.4728 -1.4756
21544WAT     H287982  -1.094   8.317   5.536  0.1897  0.7051  0.9837
21544WAT    EPW87983  -1.181   8.316   5.529  0.2573 -0.0176 -0.1829
21545WAT      O87984  -5.717   3.262   8.406 -0.8082 -0.3549  0.3606
21545WAT     H187985  -5.699   3.342   8.457  1.2563  0.7567 -1.8922
21545WAT     H287986  -5.745   3.198   8.472  0.0728  1.4386  2.6456
21545WAT    EPW87987  -5.718   3.264   8.422 -0.4196  0.0283  0.3648
21546WAT      O87988  -1.332   9.531   3.576 -0.3797  0.3241  0.2970
21546WAT     H187989  -1.252   9.570   3.612 -1.4376 -0.4598  3.8539
21546WAT     H287990  -1.300   9.461   3.519  1.4201  1.7966 -0.6349
21546WAT    EPW87991  -1.317   9.527   3.573 -0.2819  0.4148  0.6433
21547WAT      O87992  -0.317   1.614   5.804  0.2758 -0.4289 -0.5255
21547WAT     H187993  -0.359   1.690   5.845 -0.3925 -0.5054 -1.0416
21547WAT     H287994  -0.295   1.644   5.716  0.7731 -0.5754 -0.4490
21547WAT    EPW87995  -0.320   1.628   5.798  0.2533 -0.4584 -0.5834
21548WAT      O87996   5.239   1.739   6.665  0.3978 -0.1021 -0.7056
21548WAT     H187997   5.190   1.657   6.668 -0.6955  0.5586  1.0099
21548WAT     H287998   5.178   1.801   6.626  0.5755  0.2854 -0.3651
21548WAT    EPW87999   5.224   1.736   6.660  0.2768  0.0361 -0.4344
21549WAT      O88000   1.644   6.887   7.693 -0.1725  0.2025 -0.2896
21549WAT     H188001   1.599   6.866   7.775 -2.3031  1.0575 -1.1505
21549WAT     H288002   1.732   6.911   7.719 -1.1190  1.5526  1.9015
21549WAT    EPW88003   1.650   6.887   7.707 -0.5784  0.4933 -0.1142
21550WAT      O88004   1.642   1.024   2.354  0.3674  0.3509 -0.4625
21550WAT     H188005   1.729   1.004   2.387  0.3501 -0.7976 -1.0415
21550WAT     H288006   1.624   1.113   2.383  1.2522  0.1752  0.6638
21550WAT    EPW88007   1.651   1.033   2.362  0.4818  0.1763 -0.3904
21551WAT      O88008   7.503   0.829   4.161 -0.4515  0.0434  0.1698
21551WAT     H188009   7.436   0.773   4.120 -0.9344  1.0854 -0.5019
21551WAT     H288010   7.485   0.822   4.255  1.4880 -3.4275  0.4645
21551WAT    EPW88011   7.491   0.821   4.168 -0.2592 -0.2770  0.1202
21552WAT      O88012  -0.553   9.470   4.777  0.2950 -0.1713 -0.4229
21552WAT     H188013  -0.602   9.395   4.810  1.6128 -0.7410  0.3365
21552WAT     H288014  -0.612   9.511   4.714 -1.0997 -0.8705  0.3695
21552WAT    EPW88015  -0.567   9.465   4.773  0.2849 -0.3390 -0.2179
21553WAT      O88016   0.489   2.670   7.353 -0.7955  0.2364  0.0112
21553WAT     H188017   0.481   2.719   7.435  2.4222  0.8935  0.0462
21553WAT     H288018   0.563   2.711   7.308 -1.9655 -0.6156 -2.8982
21553WAT    EPW88019   0.497   2.682   7.358 -0.5254  0.2108 -0.3679
21554WAT      O88020   6.652   8.114   1.660 -0.1355 -0.8277 -0.0147
21554WAT     H188021   6.731   8.122   1.607  1.1621  0.4555  1.9756
21554WAT     H288022   6.583   8.154   1.607  0.6397 -1.3876 -1.5160
21554WAT    EPW88023   6.653   8.120   1.646  0.1378 -0.7324  0.0498
21555WAT      O88024   3.172   4.888   5.986 -0.0698  1.4687 -0.1610
21555WAT     H188025   3.091   4.842   6.006  0.5278  0.1365 -0.6840
21555WAT     H288026   3.156   4.927   5.900 -0.3194  1.6238 -0.0460
21555WAT    EPW88027   3.159   4.887   5.977 -0.0238  1.3137 -0.2148
21556WAT      O88028   6.659   3.265   2.180 -0.2217  0.4214  0.1023
21556WAT     H188029   6.637   3.352   2.214  0.7121  1.8111 -2.4962
21556WAT     H288030   6.578   3.234   2.140 -0.6014  0.0002  1.1795
21556WAT    EPW88031   6.646   3.273   2.179 -0.1485  0.5491 -0.0983
21557WAT      O88032  -1.821   3.183   4.225  0.0608 -0.4960 -0.1494
21557WAT     H188033  -1.907   3.158   4.190 -1.5442  1.7918  1.7665
21557WAT     H288034  -1.801   3.265   4.181  1.4445 -1.1589 -0.7894
21557WAT    EPW88035  -1.830   3.191   4.215  0.0316 -0.2816  0.0186
21558WAT      O88036  -3.982   4.254   5.745 -0.7858  0.1533  0.2597
21558WAT     H188037  -3.894   4.222   5.763 -0.8735 -0.0654  0.2976
21558WAT     H288038  -3.970   4.322   5.678 -0.8743 -2.0325 -2.1208
21558WAT    EPW88039  -3.969   4.259   5.738 -0.8090 -0.1638 -0.0494
21559WAT      O88040   7.336   4.125   2.330  0.6159  0.3314  0.0117
21559WAT     H188041   7.317   4.038   2.363  0.5229  0.1399 -0.5445
21559WAT     H288042   7.312   4.122   2.238 -0.3399  1.2425  0.2154
21559WAT    EPW88043   7.331   4.113   2.322  0.4776  0.4263 -0.0349
21560WAT      O88044  -2.808   5.674   1.587 -0.0581  0.4701  0.6102
21560WAT     H188045  -2.879   5.718   1.635  1.4502  1.8084  1.7293
21560WAT     H288046  -2.771   5.742   1.531 -0.3390 -0.5150 -0.8408
21560WAT    EPW88047  -2.813   5.688   1.586  0.1038  0.5169  0.5664
21561WAT      O88048   0.868  10.247   4.339  0.7237  0.3373  0.9862
21561WAT     H188049   0.953  10.252   4.295  0.4438  0.5743  0.4602
21561WAT     H288050   0.877  10.305   4.415  0.7470  1.0750  0.4383
21561WAT    EPW88051   0.881  10.256   4.343  0.6899  0.4659  0.8445
21562WAT      O88052   2.146   3.475   2.416 -0.1208 -0.9261  0.0909
21562WAT     H188053   2.184   3.388   2.425 -0.5084 -1.2751 -1.3980
21562WAT     H288054   2.081   3.466   2.347 -0.9683  0.2960  0.6821
21562WAT    EPW88055   2.142   3.463   2.408 -0.2837 -0.8110 -0.0275
21563WAT      O88056   0.033   0.464   2.765  0.2110  0.4692  0.1098
21563WAT     H188057  -0.002   0.545   2.803  0.4052  1.1347 -1.0980
21563WAT     H288058  -0.032   0.438   2.700  0.1860 -0.3215  0.4385
21563WAT    EPW88059   0.020   0.471   2.762  0.2333  0.4527 -0.0062
21564WAT      O88060   1.285   9.035   8.511 -0.0385  0.5184 -0.5944
21564WAT     H188061   1.328   9.114   8.543 -1.1717  1.0499 -0.3252
21564WAT     H288062   1.254   8.990   8.590  2.3850 -1.3168 -0.5756
21564WAT    EPW88063   1.286   9.039   8.526  0.1316  0.3467 -0.5560
21565WAT      O88064   1.056   9.499   8.869 -0.4463 -0.3721 -0.0749
21565WAT     H188065   1.111   9.573   8.844  1.8899 -1.7260  0.7104
21565WAT     H288066   1.036   9.514   8.962  1.8952 -1.6831  0.7358
21565WAT    EPW88067   1.060   9.510   8.878  0.1707 -0.7234  0.1359
21566WAT      O88068   6.338   3.275   2.113  0.2613 -0.4373  0.5048
21566WAT     H188069   6.336   3.260   2.019  0.4966 -1.8910  0.7049
21566WAT     H288070   6.339   3.370   2.122 -0.0535 -0.2729 -0.9448
21566WAT    EPW88071   6.338   3.286   2.102  0.2511 -0.6073  0.3401
21567WAT      O88072   0.594   9.288   3.516 -0.6183 -0.1449 -0.4627
21567WAT     H188073   0.554   9.375   3.511 -1.7119 -0.6623 -3.9513
21567WAT     H288074   0.688   9.304   3.519 -0.7362  1.2495 -2.3471
21567WAT    EPW88075   0.601   9.302   3.516 -0.7781 -0.0291 -1.1714
21568WAT      O88076  -3.148   7.605   0.727 -0.2764  0.4380 -0.7210
21568WAT     H188077  -3.140   7.688   0.775  0.8159  0.7768 -1.4427
21568WAT     H288078  -3.095   7.543   0.777 -0.8354  0.2491 -0.3558
21568WAT    EPW88079  -3.140   7.608   0.740 -0.2060  0.4580 -0.7680
21569WAT      O88080  -0.345  10.064   1.562  0.3398 -0.4765  0.1026
21569WAT     H188081  -0.257  10.045   1.594 -0.1495  0.3224  2.0424
21569WAT     H288082  -0.353  10.011   1.482  2.8170 -0.0067 -0.5393
21569WAT    EPW88083  -0.335  10.054   1.555  0.6020 -0.3090  0.2738
21570WAT      O88084   5.733   5.484   2.538  0.1416 -0.1508  0.2571
21570WAT     H188085   5.686   5.545   2.595 -1.1634 -0.9483  0.0507
21570WAT     H288086   5.818   5.527   2.524 -0.5901  1.4491  0.4124
21570WAT    EPW88087   5.738   5.498   2.544 -0.1268 -0.0451  0.2503
21571WAT      O88088   0.606   9.035   2.405 -0.1984  0.0327  0.2268
21571WAT     H188089   0.629   9.028   2.312  2.0267 -1.5604  0.8135
21571WAT     H288090   0.646   9.116   2.434  1.8893 -1.0284  0.4531
21571WAT    EPW88091   0.614   9.045   2.396  0.3705 -0.3176  0.3340
21572WAT      O88092   1.388   4.003   3.577 -0.0973 -0.3431 -0.2295
21572WAT     H188093   1.295   3.994   3.555  0.2311 -1.0947 -1.3745
21572WAT     H288094   1.433   3.950   3.512  1.1267 -0.2228  0.4947
21572WAT    EPW88095   1.381   3.995   3.566  0.1074 -0.4263 -0.2849
21573WAT      O88096   1.196   1.175   4.451 -0.1276  0.1721  0.4239
21573WAT     H188097   1.111   1.131   4.451 -0.1187  0.1075 -1.0793
21573WAT     H288098   1.256   1.111   4.414  0.3083  0.7063  0.1958
21573WAT    EPW88099   1.192   1.161   4.446 -0.0689  0.2339  0.1955
21574WAT      O88100   1.306   7.711   3.672 -0.2314 -0.2326 -0.1949
21574WAT     H188101   1.369   7.699   3.602 -0.1405 -0.9363 -0.0083
21574WAT     H288102   1.287   7.622   3.703 -1.1434 -0.0220 -0.0996
21574WAT    EPW88103   1.312   7.698   3.667 -0.3396 -0.2975 -0.1577
21575WAT      O88104   8.068   1.400   3.826 -0.6755 -0.2552 -0.9965
21575WAT     H188105   8.133   1.469   3.845 -0.9356 -0.1111 -0.6350
21575WAT     H288106   8.029   1.428   3.743 -1.2829  0.4131 -0.4965
21575WAT    EPW88107   8.072   1.413   3.818 -0.7896 -0.1481 -0.8829
21576WAT      O88108   1.222   9.972   2.539  0.5216 -0.0463  0.4329
21576WAT     H188109   1.136  10.008   2.558  0.3963 -1.4573  2.9460
21576WAT     H288110   1.281  10.016   2.600  1.7065  1.0560 -1.3894
21576WAT    EPW88111   1.219   9.982   2.549  0.6614 -0.0873  0.5239
21577WAT      O88112   5.238   9.935   0.553 -0.8501  0.1505  0.3861
21577WAT     H188113   5.257   9.882   0.476 -3.0476  0.8615 -0.7368
21577WAT     H288114   5.166   9.992   0.526 -2.2929 -0.1267  3.2060
21577WAT    EPW88115   5.231   9.936   0.540 -1.3301  0.2079  0.6099
21578WAT      O88116   4.287   1.524   2.914  0.1825 -0.7036  0.5532
21578WAT     H188117   4.246   1.459   2.857  1.8087 -0.8516 -0.5137
21578WAT     H288118   4.234   1.523   2.993 -1.3802 -1.4278 -0.4478
21578WAT    EPW88119   4.275   1.515   2.917  0.1907 -0.8186  0.2805
21579WAT      O88120  -1.385   7.901   5.623 -0.0712 -0.2636 -0.1359
21579WAT     H188121  -1.307   7.866   5.581 -0.4424  0.9597 -1.9672
21579WAT     H288122  -1.370   7.996   5.624 -0.5401 -0.1756  1.6274
21579WAT    EPW88123  -1.372   7.909   5.617 -0.1820 -0.0906 -0.1450
21580WAT      O88124  -3.260   9.240   5.534 -0.0663 -0.0261 -0.4133
21580WAT     H188125  -3.267   9.144   5.527 -0.5803 -0.0239 -0.0310
21580WAT     H288126  -3.318   9.262   5.607  0.8419  0.4805  0.1691
21580WAT    EPW88127  -3.269   9.230   5.543 -0.0143  0.0415 -0.2861
21581WAT      O88128  -7.812  10.117   7.727 -0.3608  0.0766  0.0291
21581WAT     H188129  -7.847  10.203   7.750  1.2468  1.1394 -1.3548
21581WAT     H288130  -7.850  10.097   7.641  2.2756  1.2507 -1.4998
21581WAT    EPW88131  -7.822  10.126   7.719  0.1991  0.3715 -0.3552
21582WAT      O88132   0.676   2.383   6.917 -0.2239 -0.0147  0.3012
21582WAT     H188133   0.685   2.384   6.822 -0.0155 -0.7056  0.3081
21582WAT     H288134   0.755   2.339   6.948 -0.9116 -1.0062  0.7121
21582WAT    EPW88135   0.688   2.377   6.909 -0.2871 -0.2366  0.3562
21583WAT      O88136   0.505   8.255   2.334  0.3098 -0.3186  0.0800
21583WAT     H188137   0.433   8.268   2.271 -0.9962 -0.5356  1.4824
21583WAT     H288138   0.541   8.169   2.311  0.2084 -0.1571 -0.7145
21583WAT    EPW88139   0.500   8.245   2.322  0.1242 -0.3262  0.1602
21584WAT      O88140  -1.163   4.824   8.486  0.1882  0.3166  0.2171
21584WAT     H188141  -1.128   4.843   8.399 -0.4382  4.2849  0.6688
21584WAT     H288142  -1.258   4.832   8.476  0.1282  1.2207  1.2948
21584WAT    EPW88143  -1.171   4.827   8.473  0.0977  0.9594  0.4187
21585WAT      O88144  -3.769   8.523   1.724 -0.1934 -0.0855  0.0911
21585WAT     H188145  -3.710   8.598   1.717 -0.8194  0.5021  1.0212
21585WAT     H288146  -3.851   8.552   1.685  0.1275 -0.9324 -1.2784
21585WAT    EPW88147  -3.772   8.536   1.718 -0.2337 -0.1197  0.0332
21586WAT      O88148   5.241   4.797   5.207 -0.5262 -0.3061 -0.5537
21586WAT     H188149   5.161   4.747   5.191  0.7657 -1.8985 -2.6912
21586WAT     H288150   5.277   4.760   5.288 -1.9554  0.5092  0.4875
21586WAT    EPW88151   5.235   4.786   5.216 -0.5441 -0.4086 -0.6981
21587WAT      O88152   3.591   3.231   1.066  0.3505 -0.0476 -0.4560
21587WAT     H188153   3.539   3.298   1.021  1.0448  0.8184  0.0108
21587WAT     H288154   3.618   3.172   0.997  0.3169  0.5453 -0.9880
21587WAT    EPW88155   3.587   3.232   1.051  0.4376  0.1447 -0.4646
21588WAT      O88156  -4.041   3.246   7.986 -0.2902  0.3692 -0.0674
21588WAT     H188157  -4.126   3.229   8.028  0.6404 -1.2379  1.2835
21588WAT     H288158  -3.980   3.256   8.059  1.9808 -5.3629 -0.6511
21588WAT    EPW88159  -4.045   3.245   8.001  0.1318 -0.5988  0.0339
21589WAT      O88160   3.949   6.393   2.418 -0.0933 -0.0268  0.6746
21589WAT     H188161   3.959   6.327   2.485  1.0471 -0.2021  0.3404
21589WAT     H288162   3.915   6.346   2.342 -3.2211  0.4707  1.6260
21589WAT    EPW88163   3.946   6.378   2.417 -0.3552  0.0157  0.7559
21590WAT      O88164   1.141   1.903   0.503  0.0410  0.0826 -0.2506
21590WAT     H188165   1.081   1.903   0.578 -0.2290  0.2547 -0.4629
21590WAT     H288166   1.157   1.996   0.486  3.0295  0.1197  1.8969
21590WAT    EPW88167   1.135   1.916   0.511  0.3995  0.1102  0.0046
21591WAT      O88168   4.388   0.026   8.882 -0.2451  0.0380  0.2945
21591WAT     H188169   4.445   0.099   8.906  2.1427 -1.1964 -1.2871
21591WAT     H288170   4.442  -0.052   8.895 -0.8496 -1.0793 -3.0029
21591WAT    EPW88171   4.402   0.025   8.887 -0.0100 -0.2722 -0.3490
21592WAT      O88172   3.297   1.884   5.530  0.4508  0.0459  0.5701
21592WAT     H188173   3.263   1.869   5.442 -0.5844 -1.5618  1.2003
21592WAT     H288174   3.354   1.808   5.546  0.4730  0.2245  1.3629
21592WAT    EPW88175   3.300   1.872   5.520  0.3172 -0.1426  0.7577
21593WAT      O88176  -1.156   2.549   1.923 -0.1319  0.3816 -0.1407
21593WAT     H188177  -1.240   2.517   1.955  0.7142 -1.7220  0.0856
21593WAT     H288178  -1.179   2.603   1.847 -1.8498  2.1646  1.5408
21593WAT    EPW88179  -1.170   2.552   1.917 -0.2469  0.3394  0.1109
21594WAT      O88180   1.576   5.595   4.326 -0.0187  0.5169 -0.5539
21594WAT     H188181   1.494   5.601   4.276  1.0211 -1.2403 -2.6035
21594WAT     H288182   1.550   5.618   4.415 -3.2128 -1.8816 -0.6585
21594WAT    EPW88183   1.562   5.599   4.331 -0.3028 -0.0312 -0.8378
21595WAT      O88184   0.741   9.069   7.541 -0.2262 -0.2337 -0.6442
21595WAT     H188185   0.801   8.998   7.560  0.4060 -0.3157 -2.7997
21595WAT     H288186   0.657   9.026   7.525 -0.8858 -0.1428  1.9865
21595WAT    EPW88187   0.737   9.054   7.542 -0.2298 -0.2327 -0.5815
21596WAT      O88188  -0.902   9.580   6.467  0.0962 -0.4300 -0.7757
21596WAT     H188189  -0.914   9.666   6.508 -0.8300 -1.3068  0.9159
21596WAT     H288190  -0.929   9.593   6.376  0.9656  1.2949 -0.8316
21596WAT    EPW88191  -0.908   9.593   6.460  0.0887 -0.3181 -0.5598
21597WAT      O88192   2.847   9.138   7.379 -0.4794 -0.7881 -0.2656
21597WAT     H188193   2.808   9.212   7.332 -0.6830  0.5426  1.8421
21597WAT     H288194   2.808   9.061   7.339 -2.2705  0.3526 -0.8406
21597WAT    EPW88195   2.837   9.138   7.367 -0.7424 -0.4621 -0.0634
21598WAT      O88196   4.048   4.743   3.024 -0.1688 -1.3996  0.1546
21598WAT     H188197   4.069   4.650   3.023 -0.7366 -1.5340  0.2324
21598WAT     H288198   4.015   4.759   3.113 -0.2440 -1.1664  0.0868
21598WAT    EPW88199   4.046   4.733   3.036 -0.2537 -1.3864  0.1559
21599WAT      O88200   7.712   5.659   0.689  0.5697  0.6922 -0.5244
21599WAT     H188201   7.784   5.607   0.726  0.7325  1.3607  0.1178
21599WAT     H288202   7.681   5.712   0.762  0.9502  2.1026 -1.3571
21599WAT    EPW88203   7.717   5.659   0.703  0.6416  0.9663 -0.5495
21600WAT      O88204   9.748   0.386   1.156 -0.1131 -0.0973  0.1388
21600WAT     H188205   9.692   0.320   1.198  0.6852 -0.7010  0.2634
21600WAT     H288206   9.753   0.457   1.221  0.2443 -0.5682  0.6340
21600WAT    EPW88207   9.741   0.387   1.170  0.0396 -0.2390  0.2206
21601WAT      O88208   2.103   3.911   7.455 -0.0236 -0.0326  0.6497
21601WAT     H188209   2.167   3.981   7.472  2.4507 -1.4216 -2.1156
21601WAT     H288210   2.060   3.937   7.374 -1.3005 -0.3013  1.2173
21601WAT    EPW88211   2.106   3.924   7.447  0.1343 -0.2512  0.3600
21602WAT      O88212   1.486   9.957   6.712 -0.3871 -0.5361  0.0186
21602WAT     H188213   1.561   9.943   6.654 -0.9447 -2.9002 -0.2258
21602WAT     H288214   1.484  10.052   6.726  2.7753 -0.4018  0.2382
21602WAT    EPW88215   1.496   9.968   6.706 -0.0435 -0.8307  0.0153
21603WAT      O88216   7.453   3.330   1.326 -0.4245  0.1483  0.0777
21603WAT     H188217   7.506   3.344   1.247 -2.0323 -0.5621 -1.1923
21603WAT     H288218   7.476   3.242   1.355  0.5357  0.5978  0.7214
21603WAT    EPW88219   7.463   3.320   1.319 -0.5100  0.1140 -0.0049
21604WAT      O88220  -4.030   5.319   5.000 -0.5725 -0.5176  0.3083
21604WAT     H188221  -4.032   5.364   4.915 -1.7688  1.0252  1.0910
21604WAT     H288222  -3.964   5.366   5.051 -0.7551 -0.6177  0.6430
21604WAT    EPW88223  -4.022   5.331   4.995 -0.7544 -0.3273  0.4559
21605WAT      O88224  -3.971   5.180   8.996  0.2584 -0.4412 -0.4567
21605WAT     H188225  -3.912   5.121   8.949 -2.7549 -3.9897 -0.1562
21605WAT     H288226  -4.015   5.230   8.928  0.8033 -0.5904 -0.9199
21605WAT    EPW88227  -3.969   5.179   8.981 -0.0672 -0.9286 -0.4783
21606WAT      O88228   3.797   3.329   2.179  0.1159  0.6650 -0.0821
21606WAT     H188229   3.862   3.374   2.125  1.1202  0.1066  0.6172
21606WAT     H288230   3.839   3.246   2.202 -0.7673  0.3848  0.5720
21606WAT    EPW88231   3.811   3.324   2.175  0.1318  0.5543  0.0964
21607WAT      O88232  -5.608   4.473   7.529  0.4971  0.1488  0.4883
21607WAT     H188233  -5.603   4.378   7.515 -3.5366 -0.0196 -1.4080
21607WAT     H288234  -5.694   4.486   7.571  2.0812  2.8581  3.2865
21607WAT    EPW88235  -5.619   4.462   7.533  0.1740  0.4840  0.6073
21608WAT      O88236   2.324   9.515   8.358 -0.2093  0.3282  0.9579
21608WAT     H188237   2.408   9.471   8.370 -0.0734  0.1810 -0.3408
21608WAT     H288238   2.345   9.595   8.309 -1.0331 -0.8576 -1.5191
21608WAT    EPW88239   2.337   9.520   8.353 -0.2999  0.1526  0.4597
21609WAT      O88240   6.128   1.789   4.983 -0.0530  0.9348  0.0548
21609WAT     H188241   6.215   1.783   4.943 -0.3943  1.3656 -0.7792
21609WAT     H288242   6.090   1.702   4.970 -0.5031  1.3162 -1.4058
21609WAT    EPW88243   6.135   1.777   4.976 -0.1571  1.0419 -0.2480
21610WAT      O88244   1.209   8.532   1.720 -0.2081 -0.0804 -0.7869
21610WAT     H188245   1.182   8.520   1.811  3.1608  0.2653  0.3997
21610WAT     H288246   1.231   8.443   1.690  0.9984  0.0504 -0.3705
21610WAT    EPW88247   1.209   8.518   1.728  0.3954 -0.0172 -0.5754
21611WAT      O88248   3.033   8.977   6.318  0.0442  1.3019 -0.2549
21611WAT     H188249   2.973   9.014   6.253  0.4061  0.9340 -0.8038
21611WAT     H288250   3.072   9.054   6.360  0.5586  1.5751 -1.1778
21611WAT    EPW88251   3.030   8.992   6.315  0.1599  1.2894 -0.4492
21612WAT      O88252  -0.049   7.492   5.912  0.1353 -0.6588  0.0622
21612WAT     H188253   0.032   7.541   5.927 -0.6695  1.1198 -1.1238
21612WAT     H288254  -0.047   7.471   5.819 -0.5611 -0.9998  0.1240
21612WAT    EPW88255  -0.038   7.496   5.902 -0.0627 -0.4692 -0.0861
21613WAT      O88256   3.014   8.182   2.421 -0.5283  0.4746 -0.0502
21613WAT     H188257   2.931   8.157   2.461 -0.9167 -0.6976 -1.4942
21613WAT     H288258   3.016   8.135   2.337 -0.0255  3.1870 -1.7117
21613WAT    EPW88259   3.003   8.173   2.415 -0.5132  0.6776 -0.4599
21614WAT      O88260   0.398   5.607   3.286  0.5120  0.1413 -0.0299
21614WAT     H188261   0.474   5.557   3.318  0.6559  1.2931  1.5732
21614WAT     H288262   0.425   5.640   3.201  1.5934  0.0200  0.2483
21614WAT    EPW88263   0.412   5.604   3.279  0.6736  0.2770  0.2183
21615WAT      O88264  -5.568  10.355   6.907  0.0345  0.8120  0.0690
21615WAT     H188265  -5.626  10.278   6.910 -0.0597  0.8998  0.4733
21615WAT     H288266  -5.622  10.427   6.938 -0.4382  1.4140 -1.9461
21615WAT    EPW88267  -5.583  10.354   6.911 -0.0401  0.9027 -0.1433
21616WAT      O88268   2.641   6.576   2.887  0.6299 -0.0985 -0.0842
21616WAT     H188269   2.627   6.494   2.934  0.5334  0.0809  0.2042
21616WAT     H288270   2.657   6.640   2.956 -0.5775  0.3806 -0.2324
21616WAT    EPW88271   2.642   6.574   2.902  0.4579 -0.0117 -0.0657
21617WAT      O88272   0.942   1.598   3.608  0.7141  0.2579  0.1435
21617WAT     H188273   1.011   1.552   3.656  0.9756 -2.0100 -2.1898
21617WAT     H288274   0.988   1.670   3.565  1.1887  0.0586  0.3044
21617WAT    EPW88275   0.957   1.601   3.609  0.8112 -0.0675 -0.1431
21618WAT      O88276   7.162   1.377   5.469 -0.8479 -0.4519 -0.5850
21618WAT     H188277   7.169   1.329   5.386 -0.8814 -2.6511  0.6061
21618WAT     H288278   7.069   1.396   5.477 -0.9296 -0.7509 -0.7803
21618WAT    EPW88279   7.151   1.373   5.459 -0.8631 -0.7814 -0.4537
21619WAT      O88280  -0.602   4.579   6.819  0.4155 -0.0943 -0.9368
21619WAT     H188281  -0.545   4.569   6.743  1.5624  0.2563 -0.1464
21619WAT     H288282  -0.675   4.631   6.787  0.8758  0.0467 -1.7972
21619WAT    EPW88283  -0.604   4.584   6.804  0.6275 -0.0293 -0.9463
21620WAT      O88284   1.933   5.835   6.876 -0.7095  0.2090 -0.5024
21620WAT     H188285   1.944   5.846   6.781  0.6504  0.0021 -0.3840
21620WAT     H288286   1.902   5.745   6.886 -1.4367  0.4154 -0.7674
21620WAT    EPW88287   1.930   5.825   6.864 -0.6260  0.2091 -0.5217
21621WAT      O88288  -2.498   0.284   8.524  0.0457 -0.4121  0.1652
21621WAT     H188289  -2.414   0.254   8.490  0.5036 -1.2597  1.9172
21621WAT     H288290  -2.514   0.366   8.479  1.0234 -1.0244 -1.3757
21621WAT    EPW88291  -2.489   0.291   8.514  0.2350 -0.6047  0.1931
21622WAT      O88292   0.351   5.298   2.296  0.2503  0.4248  0.6154
21622WAT     H188293   0.432   5.256   2.323  0.4652  0.4186 -0.0089
21622WAT     H288294   0.290   5.225   2.281  0.2791  0.4001  0.6197
21622WAT    EPW88295   0.353   5.283   2.297  0.2825  0.4206  0.5336
21623WAT      O88296   3.573   9.799   4.918  0.0231 -0.0497 -1.2589
21623WAT     H188297   3.652   9.833   4.959 -0.6172 -0.1818  0.1499
21623WAT     H288298   3.501   9.836   4.969 -0.9210  1.1005 -3.2728
21623WAT    EPW88299   3.574   9.808   4.930 -0.1858  0.0849 -1.3387
21624WAT      O88300  -4.518   3.977   6.252  0.0248 -0.3423  0.5441
21624WAT     H188301  -4.454   4.000   6.319 -0.3774 -0.5978  1.0260
21624WAT     H288302  -4.582   4.048   6.256 -0.5679 -0.8906  1.1875
21624WAT    EPW88303  -4.518   3.989   6.262 -0.1063 -0.4482  0.6926
21625WAT      O88304  -2.166   4.396   6.442  0.4380 -0.1763 -0.1962
21625WAT     H188305  -2.172   4.474   6.497 -0.6855 -0.5311  0.2133
21625WAT     H288306  -2.074   4.391   6.417  0.6108  0.9990  0.1774
21625WAT    EPW88307  -2.154   4.405   6.446  0.3127 -0.0682 -0.0927
21626WAT      O88308   9.296   2.006   0.049  0.0598  0.1534  0.4465
21626WAT     H188309   9.341   2.049  -0.024  1.0265  0.9564  1.4850
21626WAT     H288310   9.206   1.994   0.017  0.6686 -0.3678 -1.2080
21626WAT    EPW88311   9.290   2.010   0.035  0.2676  0.1905  0.3653
21627WAT      O88312  -4.160   9.275   1.545 -0.1576  0.2255  0.1857
21627WAT     H188313  -4.249   9.241   1.554 -0.1207  0.1345  0.2115
21627WAT     H288314  -4.156   9.308   1.455  0.0103 -0.4312 -0.0566
21627WAT    EPW88315  -4.171   9.274   1.534 -0.1304  0.1273  0.1571
21628WAT      O88316   2.731   2.517   5.155  0.0902 -0.3959  0.0956
21628WAT     H188317   2.772   2.590   5.200 -0.0881  1.3108 -2.3215
21628WAT     H288318   2.799   2.449   5.152  1.1826  0.6657  0.0868
21628WAT    EPW88319   2.745   2.518   5.160  0.2108 -0.0308 -0.2244
21629WAT      O88320   1.464   0.374   7.886  0.3585 -0.1956 -0.5289
21629WAT     H188321   1.470   0.467   7.862 -0.1400 -0.7017 -2.9321
21629WAT     H288322   1.390   0.371   7.947 -0.1323  0.9196 -1.0159
21629WAT    EPW88323   1.455   0.386   7.891  0.2280 -0.1152 -0.9103
21630WAT      O88324   4.453   2.522   1.288 -0.0173 -0.5248  0.6428
21630WAT     H188325   4.418   2.436   1.265 -2.0954  0.0296  1.5738
21630WAT     H288326   4.507   2.506   1.366 -0.4000 -0.9823  0.8148
21630WAT    EPW88327   4.456   2.509   1.296 -0.3419 -0.5120  0.7883
21631WAT      O88328   3.492   5.231   0.927 -0.1981 -0.0248 -0.1276
21631WAT     H188329   3.436   5.189   0.860 -2.8268 -1.0588  2.4834
21631WAT     H288330   3.431   5.284   0.978  1.3742 -0.5296  2.3949
21631WAT    EPW88331   3.476   5.232   0.925 -0.3375 -0.2277  0.5495
21632WAT      O88332   2.436   2.303   7.779  0.0410  0.2144  0.1304
21632WAT     H188333   2.413   2.323   7.688 -3.0458  0.2148  0.7930
21632WAT     H288334   2.421   2.209   7.787 -0.0807  0.2836  0.7314
21632WAT    EPW88335   2.431   2.293   7.768 -0.3823  0.2236  0.2971
21633WAT      O88336  -3.472   2.868   6.031 -1.0134  0.2131  0.3961
21633WAT     H188337  -3.398   2.832   6.079 -2.3365 -1.9064  0.9861
21633WAT     H288338  -3.445   2.863   5.939 -0.1211  0.2630  0.6412
21633WAT    EPW88339  -3.459   2.863   6.025 -1.0701 -0.0600  0.5062
21634WAT      O88340  -0.759   8.688   5.229  0.3678 -0.1926  0.4574
21634WAT     H188341  -0.787   8.611   5.180 -0.3730 -0.3631  1.1296
21634WAT     H288342  -0.748   8.756   5.163  1.6676 -1.0267 -0.2355
21634WAT    EPW88343  -0.761   8.687   5.214  0.4415 -0.3247  0.4547
21635WAT      O88344   1.092   9.773   2.908 -0.3327 -0.1555  0.1092
21635WAT     H188345   1.017   9.827   2.931 -0.2943  0.3458 -0.8951
21635WAT     H288346   1.063   9.719   2.835  0.4172  0.4189 -0.6415
21635WAT    EPW88347   1.078   9.773   2.902 -0.2287 -0.0138 -0.1223
21636WAT      O88348   2.810   5.697   3.750 -0.3990 -0.4669 -0.0507
21636WAT     H188349   2.776   5.727   3.665 -2.1597  2.1376  1.4394
21636WAT     H288350   2.902   5.725   3.750 -0.0065 -1.6173 -1.5255
21636WAT    EPW88351   2.818   5.705   3.739 -0.5795 -0.2751 -0.0488
21637WAT      O88352   1.339   3.171   3.138 -0.7000  0.9191  0.6072
21637WAT     H188353   1.266   3.173   3.200 -1.7757  1.2959 -0.6158
21637WAT     H288354   1.334   3.084   3.098 -1.1216  1.2876 -0.1766
21637WAT    EPW88355   1.329   3.160   3.141 -0.8975  1.0175  0.3425
21638WAT      O88356  -1.593   1.122   2.718  0.3277 -0.2409 -0.0846
21638WAT     H188357  -1.558   1.211   2.726 -2.3280  0.9216 -0.4094
21638WAT     H288358  -1.575   1.098   2.627 -0.0967  0.5085 -0.3799
21638WAT    EPW88359  -1.586   1.131   2.707 -0.0785  0.0113 -0.1664
21639WAT      O88360  -0.166   6.629   6.835  0.7901  0.0090  0.1043
21639WAT     H188361  -0.120   6.604   6.916 -0.1257 -1.4067  0.2262
21639WAT     H288362  -0.189   6.545   6.795 -3.3999  0.5076  1.0309
21639WAT    EPW88363  -0.163   6.614   6.840  0.1167 -0.1121  0.2427
21640WAT      O88364   2.743   3.154   3.606  0.2006 -0.3260 -0.1685
21640WAT     H188365   2.777   3.065   3.593 -0.0943 -0.3320 -0.9142
21640WAT     H288366   2.753   3.196   3.521 -1.6065 -0.3139 -0.4087
21640WAT    EPW88367   2.749   3.148   3.593 -0.0768 -0.3251 -0.2985
21641WAT      O88368   9.160   3.584   0.290  0.3807  0.3875 -0.8378
21641WAT     H188369   9.158   3.555   0.199  0.8258 -0.9997 -0.4158
21641WAT     H288370   9.234   3.644   0.295  1.3656 -0.7927 -1.0327
21641WAT    EPW88371   9.169   3.588   0.279  0.5689  0.0488 -0.8079
21642WAT      O88372  -0.841   3.180   2.314  0.1518  0.2132 -0.0563
21642WAT     H188373  -0.810   3.147   2.229 -0.6978  0.3562 -0.4291
21642WAT     H288374  -0.872   3.102   2.360 -0.6986  0.3012 -0.4485
21642WAT    EPW88375  -0.841   3.166   2.309 -0.0724  0.2437 -0.1571
21643WAT      O88376  -0.289   0.150   2.890 -0.1027 -0.4826 -1.0876
21643WAT     H188377  -0.198   0.153   2.918  0.3508  0.4241 -2.5843
21643WAT     H288378  -0.335   0.112   2.964  1.6664 -2.1474 -0.7675
21643WAT    EPW88379  -0.283   0.145   2.903  0.1904 -0.5826 -1.2428
21644WAT      O88380  -5.152   8.018   4.460 -0.3392  0.2380 -1.0140
21644WAT     H188381  -5.061   7.992   4.448 -0.2168  0.5935 -0.8853
21644WAT     H288382  -5.198   7.938   4.485 -0.1481 -0.0338 -1.5198
21644WAT    EPW88383  -5.146   8.004   4.462 -0.2978  0.2489 -1.0636
21645WAT      O88384  -0.550   7.286   2.571  0.2489 -0.3475  0.1448
21645WAT     H188385  -0.614   7.220   2.597 -2.2718  1.1816 -1.7807
21645WAT     H288386  -0.472   7.236   2.548 -1.4285 -2.6513 -0.8466
21645WAT    EPW88387  -0.548   7.271   2.571 -0.3048 -0.4497 -0.2398
21646WAT      O88388   4.010   0.764   2.557 -0.4771 -0.0826 -1.0724
21646WAT     H188389   4.056   0.842   2.525 -1.0897  1.5185  1.6253
21646WAT     H288390   4.074   0.718   2.610 -1.1078  0.6257  0.3575
21646WAT    EPW88391   4.025   0.768   2.559 -0.6413  0.2220 -0.5280
21647WAT      O88392  -3.111   6.673   5.278 -0.4456 -0.7249  0.2884
21647WAT     H188393  -3.069   6.704   5.358  0.8918  0.2493 -0.7529
21647WAT     H288394  -3.103   6.746   5.217  0.5805 -2.2041 -1.4412
21647WAT    EPW88395  -3.104   6.686   5.281 -0.1339 -0.7915 -0.0772
21648WAT      O88396   4.885   3.618   6.763 -0.1280  0.0485 -0.5934
21648WAT     H188397   4.980   3.605   6.753 -0.4103 -3.8151  0.1177
21648WAT     H288398   4.875   3.650   6.853  0.5043  1.2000 -0.9176
21648WAT    EPW88399   4.896   3.621   6.774 -0.0818 -0.3091 -0.5424
21649WAT      O88400  -1.771   3.064   4.776  0.7396  0.1094 -0.3528
21649WAT     H188401  -1.813   3.008   4.842  0.4186 -0.5478 -1.1041
21649WAT     H288402  -1.768   3.150   4.818 -2.5542  0.5264 -0.6719
21649WAT    EPW88403  -1.776   3.068   4.791  0.2627  0.0777 -0.4940
21650WAT      O88404   0.409   0.545   6.109 -0.3909  0.4273  0.4792
21650WAT     H188405   0.496   0.513   6.087 -0.8597 -1.0648  0.6589
21650WAT     H288406   0.369   0.566   6.025  0.5863  2.4291  0.4738
21650WAT    EPW88407   0.415   0.543   6.095 -0.3238  0.4945  0.5021
21651WAT      O88408   2.473   4.797   8.109  1.1006 -0.5582 -0.5427
21651WAT     H188409   2.495   4.843   8.029 -0.0263  2.4585  0.7526
21651WAT     H288410   2.538   4.827   8.173 -1.0452  1.2634  0.9390
21651WAT    EPW88411   2.485   4.807   8.107  0.6689  0.0799 -0.1764
21652WAT      O88412   0.273   6.816   1.234 -0.2201 -0.3757  0.4526
21652WAT     H188413   0.310   6.779   1.154 -2.0389  3.1408 -2.3072
21652WAT     H288414   0.265   6.742   1.294 -2.2298 -4.1746 -3.9257
21652WAT    EPW88415   0.277   6.802   1.232 -0.7250 -0.4132 -0.4889
21653WAT      O88416  -2.086   3.103   1.848 -0.0805  0.8607 -0.0758
21653WAT     H188417  -2.077   3.039   1.778  1.0392  0.3824  0.4865
21653WAT     H288418  -2.031   3.177   1.821 -1.5311  1.7158 -0.8241
21653WAT    EPW88419  -2.078   3.104   1.835 -0.1241  0.9104 -0.1003
21654WAT      O88420   3.014   3.120   3.269 -0.6238 -0.1984  0.3188
21654WAT     H188421   3.077   3.052   3.249 -0.1359  1.2257 -3.8228
21654WAT     H288422   2.935   3.072   3.295  0.2608 -2.2559 -0.5862
21654WAT    EPW88423   3.012   3.105   3.270 -0.4429 -0.2820 -0.3468
21655WAT      O88424   1.906   1.606   6.670  0.5391  0.2512 -0.2466
21655WAT     H188425   1.943   1.530   6.713  1.6150  0.8338 -0.1143
21655WAT     H288426   1.981   1.649   6.628 -0.0725  1.1351 -0.4689
21655WAT    EPW88427   1.921   1.602   6.670  0.6003  0.4446 -0.2587
21656WAT      O88428   3.846   8.589   4.918  0.6678 -0.0124 -0.6140
21656WAT     H188429   3.921   8.636   4.882  1.2159  1.3098  2.0053
21656WAT     H288430   3.879   8.551   5.000 -1.8927  2.5121  1.8422
21656WAT    EPW88431   3.860   8.590   4.924  0.4023  0.4954  0.0553
21657WAT      O88432   3.969   5.470   5.656 -0.3741 -0.1987 -0.3416
21657WAT     H188433   4.047   5.415   5.659  0.2104  0.5591 -1.2531
21657WAT     H288434   3.904   5.418   5.609 -0.0884 -0.4217 -0.4874
21657WAT    EPW88435   3.970   5.456   5.650 -0.2593 -0.1280 -0.4811
21658WAT      O88436   0.216   9.431   2.974 -0.0377  0.1248  0.3166
21658WAT     H188437   0.288   9.425   2.911  0.3817  0.6698  0.7417
21658WAT     H288438   0.191   9.340   2.991  0.5424 -0.0640  0.1612
21658WAT    EPW88439   0.222   9.418   2.968  0.0942  0.1717  0.3521
21659WAT      O88440   0.785   4.071   4.051  0.5824  0.1919  0.3877
21659WAT     H188441   0.745   3.989   4.078  1.0252 -0.1680 -0.0172
21659WAT     H288442   0.879   4.058   4.066  0.9261 -0.2617 -1.8194
21659WAT    EPW88443   0.792   4.059   4.056  0.6862  0.0846  0.0432
21660WAT      O88444   2.918   1.719   0.521 -0.0205  0.0706 -0.1812
21660WAT     H188445   2.926   1.624   0.510  1.1584  0.1196  0.0765
21660WAT     H288446   2.989   1.756   0.468 -0.4858  0.8150 -0.3049
21660WAT    EPW88447   2.929   1.711   0.513  0.0736  0.1752 -0.1635
21661WAT      O88448  -2.510   3.931   5.793  0.4636 -0.0946 -0.4078
21661WAT     H188449  -2.454   4.002   5.762  1.6433 -0.7666  0.0968
21661WAT     H288450  -2.483   3.917   5.884 -1.5064  0.4748  0.3124
21661WAT    EPW88451  -2.499   3.939   5.801  0.3594 -0.1080 -0.2463
21662WAT      O88452   5.511   1.084   4.666 -0.6840  0.3437  0.6917
21662WAT     H188453   5.483   0.997   4.636  1.8766  0.0559 -1.2213
21662WAT     H288454   5.442   1.112   4.726 -3.7015 -1.2336 -1.7550
21662WAT    EPW88455   5.498   1.076   4.670 -0.7439  0.0978  0.1168
21663WAT      O88456  -1.501   8.601   8.662  0.2893  0.1632  0.1889
21663WAT     H188457  -1.415   8.560   8.658  0.6776  0.9424  0.3379
21663WAT     H288458  -1.541   8.582   8.577  0.5603 -0.2890  0.1583
21663WAT    EPW88459  -1.495   8.593   8.650  0.3762  0.2065  0.2046
21664WAT      O88460   3.178   1.481   7.341 -0.3938 -0.5449  0.6062
21664WAT     H188461   3.203   1.570   7.363 -2.1405  0.1304 -0.0085
21664WAT     H288462   3.128   1.450   7.417  1.8871 -1.7776  1.7033
21664WAT    EPW88463   3.175   1.488   7.354 -0.3234 -0.6184  0.6697
21665WAT      O88464   0.049   4.971   3.976 -0.2858  0.4765 -0.5959
21665WAT     H188465  -0.022   4.989   3.914  0.4180  2.1193 -0.9870
21665WAT     H288466   0.105   4.909   3.931 -0.1584  1.1113 -1.3277
21665WAT    EPW88467   0.047   4.965   3.962 -0.1762  0.7770 -0.7440
21666WAT      O88468   3.049   6.442   6.274 -0.2049  0.1278 -0.3368
21666WAT     H188469   3.125   6.440   6.214 -0.1860  1.0173 -0.3623
21666WAT     H288470   3.087   6.435   6.361 -0.1883 -0.6169 -0.4009
21666WAT    EPW88471   3.064   6.441   6.277 -0.2003  0.1469 -0.3486
21667WAT      O88472   9.087   1.129   1.459 -0.0329 -0.6084 -0.3403
21667WAT     H188473   9.117   1.142   1.549  2.8539  0.4595 -1.3496
21667WAT     H288474   9.167   1.128   1.407 -1.5735 -1.6749 -2.8834
21667WAT    EPW88475   9.101   1.130   1.464  0.1450 -0.6083 -0.8088
21668WAT      O88476   4.877   4.375   6.916 -0.0270 -0.0935 -0.5344
21668WAT     H188477   4.789   4.409   6.897 -1.2002 -2.3929  0.3669
21668WAT     H288478   4.864   4.313   6.987  2.5658  0.3661  0.4464
21668WAT    EPW88479   4.864   4.371   6.923  0.1605 -0.3359 -0.2863
21669WAT      O88480   3.007   0.316   5.931  0.3593  0.2223  0.7291
21669WAT     H188481   3.024   0.396   5.981 -3.2676  0.2409  2.2377
21669WAT     H288482   2.968   0.347   5.850 -0.2144  0.0249  0.9270
21669WAT    EPW88483   3.004   0.331   5.927 -0.1948  0.1987  0.9542
21670WAT      O88484  -0.739   8.078   5.542 -0.5543  0.6411 -0.2525
21670WAT     H188485  -0.644   8.086   5.535 -0.4644 -0.5277 -0.5605
21670WAT     H288486  -0.760   7.996   5.496 -1.6917  0.8117 -0.0729
21670WAT    EPW88487  -0.729   8.068   5.535 -0.6925  0.5097 -0.2694
21671WAT      O88488  -0.391   2.479   7.303 -0.7594 -0.0025  0.0568
21671WAT     H188489  -0.377   2.557   7.250 -0.1085  0.3247  0.6814
21671WAT     H288490  -0.444   2.421   7.249  0.7525 -0.1213 -1.3444
21671WAT    EPW88491  -0.397   2.481   7.289 -0.4742  0.0250 -0.0458
21672WAT      O88492   1.579   2.301   2.085  0.7106  0.2611 -0.4386
21672WAT     H188493   1.589   2.281   1.992 -0.2928 -0.7108 -0.3507
21672WAT     H288494   1.544   2.221   2.124  1.1681  0.6355  0.7945
21672WAT    EPW88495   1.576   2.288   2.078  0.6385  0.1823 -0.2644
21673WAT      O88496   5.630   4.248   3.360  0.0648  0.0819  0.2131
21673WAT     H188497   5.717   4.262   3.396  0.3681 -1.4371  0.1057
21673WAT     H288498   5.605   4.160   3.388 -1.0222  0.1022 -0.5925
21673WAT    EPW88499   5.638   4.239   3.368 -0.0386 -0.1156  0.0927
21674WAT      O88500   1.221   5.015   5.509  0.4402  0.9566 -0.5761
21674WAT     H188501   1.170   4.979   5.436 -0.3854  2.0923 -0.5719
21674WAT     H288502   1.180   5.098   5.529 -0.4153 -0.0392  2.3172
21674WAT    EPW88503   1.209   5.021   5.502  0.2185  0.9754 -0.1941
21675WAT      O88504   0.185   8.367   7.773  0.2385  0.6294  0.0764
21675WAT     H188505   0.268   8.414   7.777 -0.6987  2.2737  2.3623
21675WAT     H288506   0.129   8.421   7.718  0.2577  0.2454 -0.3247
21675WAT    EPW88507   0.189   8.380   7.766  0.1174  0.7954  0.3252
21676WAT      O88508  -2.454   8.814   2.930 -0.4544  0.0315  0.3390
21676WAT     H188509  -2.459   8.727   2.970 -0.8935  0.1610  0.5706
21676WAT     H288510  -2.494   8.873   2.994 -0.1618  0.4057  0.1802
21676WAT    EPW88511  -2.460   8.810   2.943 -0.4736  0.0978  0.3486
21677WAT      O88512   1.383   6.117   2.197 -0.1639 -0.4262 -0.0221
21677WAT     H188513   1.429   6.191   2.237  2.4941 -2.0375  0.1768
21677WAT     H288514   1.424   6.108   2.111  0.1566 -2.0973  0.2689
21677WAT    EPW88515   1.395   6.126   2.191  0.2290 -0.8593  0.0424
21678WAT      O88516  -0.875   0.986   1.484 -0.4956  0.9334 -0.1095
21678WAT     H188517  -0.791   0.951   1.513 -0.8783  1.1983  1.4063
21678WAT     H288518  -0.939   0.949   1.545 -1.1959  2.3947  0.0926
21678WAT    EPW88519  -0.872   0.977   1.496 -0.6384  1.1611  0.1171
21679WAT      O88520   0.699   9.960   7.857  0.0499  0.1571 -0.0312
21679WAT     H188521   0.705  10.013   7.936  1.5943  1.4429 -0.9419
21679WAT     H288522   0.761   9.889   7.871  2.1864  1.7366 -0.9934
21679WAT    EPW88523   0.708   9.957   7.869  0.5354  0.5355 -0.2782
21680WAT      O88524  -1.786   4.724   3.301  0.1887  0.7577  0.1180
21680WAT     H188525  -1.831   4.672   3.234  3.0228 -0.3129 -1.1178
21680WAT     H288526  -1.807   4.679   3.383  0.1183 -0.5489 -0.5862
21680WAT    EPW88527  -1.794   4.711   3.303  0.5532  0.4439 -0.1378
21681WAT      O88528  -3.788   8.801   2.166 -0.1239 -0.6593 -0.2409
21681WAT     H188529  -3.869   8.751   2.176 -1.1444  0.6729 -1.4904
21681WAT     H288530  -3.746   8.794   2.252 -0.1158 -3.7216 -0.3851
21681WAT    EPW88531  -3.794   8.794   2.179 -0.2575 -0.8879 -0.4247
21682WAT      O88532   6.355   4.131   1.061  0.0941  0.0786 -0.4042
21682WAT     H188533   6.344   4.218   1.022  0.3839 -0.5921 -2.0985
21682WAT     H288534   6.290   4.077   1.016  0.2552 -0.6895  0.2752
21682WAT    EPW88535   6.345   4.136   1.050  0.1538 -0.1111 -0.5381
21683WAT      O88536   4.775   3.790   3.076 -0.5023  0.3077 -0.0715
21683WAT     H188537   4.790   3.710   3.127 -1.1305 -0.4129 -0.9869
21683WAT     H288538   4.772   3.860   3.142 -0.8727 -0.5366  0.8413
21683WAT    EPW88539   4.777   3.789   3.092 -0.6342  0.1012 -0.0719
21684WAT      O88540  -2.374   8.838   5.404 -0.2074  0.3527 -0.6889
21684WAT     H188541  -2.321   8.758   5.396  0.1626  0.3774  1.1038
21684WAT     H288542  -2.464   8.806   5.408 -0.0296 -0.0333  0.5073
21684WAT    EPW88543  -2.379   8.823   5.403 -0.1351  0.3052 -0.2944
21685WAT      O88544  -1.280   2.959   7.356 -0.5569  0.6732  0.5571
21685WAT     H188545  -1.348   2.924   7.414  1.0651  0.5587  2.5228
21685WAT     H288546  -1.214   2.890   7.353 -0.1023  1.1389 -0.5598
21685WAT    EPW88547  -1.280   2.945   7.363 -0.2830  0.7195  0.6690
21686WAT      O88548   4.415   9.732   3.121 -0.5533  0.4883 -0.2421
21686WAT     H188549   4.335   9.693   3.087 -0.6513  0.3067  0.1868
21686WAT     H288550   4.386   9.810   3.168 -0.5749 -0.0127  0.6034
21686WAT    EPW88551   4.401   9.737   3.123 -0.5691  0.3982 -0.0740
21687WAT      O88552   4.895   0.325   4.046  0.3811 -0.2601  0.5987
21687WAT     H188553   4.912   0.416   4.019 -1.2371  1.2330  3.9641
21687WAT     H288554   4.904   0.327   4.142 -0.9859 -3.3739  0.9133
21687WAT    EPW88555   4.899   0.337   4.055 -0.0126 -0.4738  1.0841
21688WAT      O88556  -0.223   9.340   0.954  0.5125 -0.1229 -0.0802
21688WAT     H188557  -0.277   9.290   1.015  0.3252 -1.5725 -1.3746
21688WAT     H288558  -0.285   9.393   0.904  0.3859 -0.8729 -0.7372
21688WAT    EPW88559  -0.238   9.340   0.956  0.4711 -0.4125 -0.3376
21689WAT      O88560  -5.281   2.668   7.252  0.8280 -0.5019  0.2381
21689WAT     H188561  -5.342   2.598   7.275 -0.9989  0.5724 -1.1177
21689WAT     H288562  -5.198   2.623   7.238  0.3735 -2.0336  1.9842
21689WAT    EPW88563  -5.278   2.653   7.253  0.5271 -0.5621  0.2897
21690WAT      O88564   1.200   9.742   8.927  0.3112  0.0026 -0.5583
21690WAT     H188565   1.253   9.780   8.857  2.3461 -2.0120 -0.2551
21690WAT     H288566   1.264   9.716   8.994 -1.3464 -0.1298  1.0734
21690WAT    EPW88567   1.216   9.743   8.927  0.3609 -0.2809 -0.3033
21691WAT      O88568   1.527   8.286   6.883 -0.8664  0.3319  0.1095
21691WAT     H188569   1.593   8.352   6.907  1.1827 -0.5785 -2.5636
21691WAT     H288570   1.564   8.203   6.912 -1.3767 -0.0898 -0.4262
21691WAT    EPW88571   1.540   8.284   6.890 -0.6634  0.1564 -0.3135
21692WAT      O88572   2.500   7.091   4.470  0.2305  0.2749 -0.0405
21692WAT     H188573   2.502   7.113   4.563  0.3574 -1.4009  0.3709
21692WAT     H288574   2.465   7.170   4.428  0.3866  1.1359  1.3889
21692WAT    EPW88575   2.496   7.105   4.477  0.2679  0.1674  0.2022
21693WAT      O88576   3.099   9.912   0.872 -0.0667 -0.2176 -0.1742
21693WAT     H188577   3.089   9.982   0.936 -0.3246  1.0102 -1.5000
21693WAT     H288578   3.188   9.923   0.838 -0.4370  0.1077 -1.0769
21693WAT    EPW88579   3.109   9.923   0.876 -0.1497 -0.0134 -0.4681
21694WAT      O88580  -1.739   0.432   6.152 -0.0737 -0.3453 -0.5697
21694WAT     H188581  -1.832   0.450   6.145 -0.6597 -2.4684  0.9536
21694WAT     H288582  -1.701   0.514   6.186 -1.8185 -0.3150  1.4625
21694WAT    EPW88583  -1.746   0.445   6.156 -0.3811 -0.6213 -0.1009
21695WAT      O88584   5.336   6.950   3.396 -0.0951 -0.7386  0.8218
21695WAT     H188585   5.414   6.932   3.449  0.2694  0.9108  0.8966
21695WAT     H288586   5.302   6.864   3.373  2.4073 -1.5422 -0.1944
21695WAT    EPW88587   5.342   6.937   3.400  0.2830 -0.6270  0.6975
21696WAT      O88588   3.931   1.892   5.769  0.3101 -0.4280  0.1099
21696WAT     H188589   3.889   1.933   5.844 -0.9798  1.9257 -1.7618
21696WAT     H288590   4.023   1.918   5.776  0.0940  0.2272  0.5937
21696WAT    EPW88591   3.938   1.901   5.780  0.1116 -0.0311 -0.0732
21697WAT      O88592  -2.845   9.819   7.991 -0.2909 -0.1523  0.5039
21697WAT     H188593  -2.781   9.757   8.025  1.1654  0.7543 -0.4507
21697WAT     H288594  -2.869   9.783   7.905  0.8946  0.7925 -0.2457
21697WAT    EPW88595  -2.840   9.806   7.984  0.0576  0.0920  0.2789
21698WAT      O88596   4.238   6.425   0.216 -0.0849  0.2447  0.1426
21698WAT     H188597   4.261   6.333   0.213 -2.0680 -0.2794 -0.7672
21698WAT     H288598   4.287   6.464   0.143 -0.9687 -0.5660 -0.9180
21698WAT    EPW88599   4.247   6.418   0.206 -0.4630  0.0684 -0.1172
21699WAT      O88600  -1.186   0.526   2.593 -0.0100  0.2952  0.4277
21699WAT     H188601  -1.197   0.619   2.613 -0.6785  0.5631 -1.0743
21699WAT     H288602  -1.169   0.523   2.499 -0.6636 -1.1457  0.3278
21699WAT    EPW88603  -1.186   0.538   2.583 -0.1844  0.1405  0.2165
21700WAT      O88604   7.019   1.767   0.535  0.3771 -0.4094 -0.8268
21700WAT     H188605   7.098   1.822   0.536 -0.4902  0.9055 -2.1037
21700WAT     H288606   6.983   1.776   0.623  1.9516 -1.5272 -0.0195
21700WAT    EPW88607   7.025   1.775   0.547  0.4702 -0.3834 -0.8888
21701WAT      O88608   8.722   3.146   1.336 -0.5103  0.3185 -0.2162
21701WAT     H188609   8.639   3.098   1.346 -2.1065  2.9531  0.0164
21701WAT     H288610   8.708   3.229   1.381  2.8083  0.3334  1.0833
21701WAT    EPW88611   8.709   3.150   1.343 -0.2832  0.6679 -0.0141
21702WAT      O88612  -2.290  10.007   4.971  0.1682 -0.1161 -0.0024
21702WAT     H188613  -2.209  10.053   4.948  0.9781 -1.7521 -0.6533
21702WAT     H288614  -2.352  10.032   4.902 -0.3343  2.1486  1.2056
21702WAT    EPW88615  -2.287  10.016   4.959  0.2089 -0.0329  0.0710
21703WAT      O88616   7.807   1.009   0.814  0.3448  0.6184  0.8447
21703WAT     H188617   7.745   0.947   0.775  0.0428 -0.3462  2.7629
21703WAT     H288618   7.788   1.092   0.770 -1.7713  0.1720  0.8012
21703WAT    EPW88619   7.796   1.011   0.803  0.0257  0.4324  1.0920
21704WAT      O88620   6.052   0.808   1.081  0.2351  0.7034  0.1641
21704WAT     H188621   6.004   0.746   1.135 -1.0222 -0.3862 -2.0631
21704WAT     H288622   6.133   0.825   1.129 -0.5572 -0.6049  2.0701
21704WAT    EPW88623   6.056   0.802   1.094 -0.0353  0.3871  0.1218
21705WAT      O88624  -1.067   1.486   6.626  0.4457 -0.1880  0.6379
21705WAT     H188625  -1.021   1.570   6.620  1.8593 -0.9040  1.1631
21705WAT     H288626  -1.029   1.432   6.557 -0.1884 -0.5336  0.5491
21705WAT    EPW88627  -1.056   1.490   6.616  0.5485 -0.3280  0.6955
21706WAT      O88628   5.713   1.346   4.740 -0.1400  0.4354 -0.1686
21706WAT     H188629   5.731   1.402   4.664  0.8442 -0.1391 -0.3759
21706WAT     H288630   5.798   1.308   4.763 -0.1870  1.4676  1.9449
21706WAT    EPW88631   5.726   1.348   4.733 -0.0162  0.4957  0.0830
21707WAT      O88632   3.964   7.368   1.760  0.0191 -0.2245  0.1444
21707WAT     H188633   4.001   7.402   1.679  1.7218 -0.9007  0.6117
21707WAT     H288634   3.993   7.430   1.827 -1.0392  0.1044  0.3325
21707WAT    EPW88635   3.972   7.381   1.758  0.1042 -0.2704  0.2308
21708WAT      O88636   6.361   2.854   3.647  0.6046  0.2428 -0.0878
21708WAT     H188637   6.416   2.896   3.581  0.7477  0.5959  0.2537
21708WAT     H288638   6.271   2.866   3.615  0.5561  1.7514  0.5167
21708WAT    EPW88639   6.356   2.861   3.634  0.6170  0.4883  0.0370
21709WAT      O88640  -0.604   9.237   0.358  0.2648  0.0693  0.0068
21709WAT     H188641  -0.563   9.314   0.320  0.3106 -0.5612 -1.2553
21709WAT     H288642  -0.555   9.163   0.322  0.3967 -0.5652  1.4036
21709WAT    EPW88643  -0.592   9.237   0.348  0.2882 -0.0978  0.0245
21710WAT      O88644  -1.221   7.000   5.303 -0.3358  0.1640 -0.2320
21710WAT     H188645  -1.297   7.015   5.247  0.4411  1.5185 -0.9832
21710WAT     H288646  -1.146   7.019   5.247  0.5140  0.3488  0.9286
21710WAT    EPW88647  -1.221   7.004   5.288 -0.1212  0.3672 -0.1779
21711WAT      O88648  -5.772   4.269   7.757 -0.4773  0.1786  0.7831
21711WAT     H188649  -5.720   4.226   7.689 -0.4298 -1.6181  1.8882
21711WAT     H288650  -5.820   4.337   7.710 -0.5106 -1.0336 -1.0847
21711WAT    EPW88651  -5.771   4.272   7.742 -0.4754 -0.2182  0.6826
21712WAT      O88652   2.792   6.278   6.068 -0.3086  0.0885 -0.4261
21712WAT     H188653   2.841   6.244   6.142 -0.0236 -0.7208 -0.9810
21712WAT     H288654   2.814   6.371   6.065  0.0506  0.0228  0.2079
21712WAT    EPW88655   2.801   6.286   6.077 -0.2235 -0.0269 -0.4156
21713WAT      O88656  -7.097  10.006   8.806  0.1608  0.2866  0.2640
21713WAT     H188657  -7.040  10.076   8.776 -0.6618  1.2889  0.9723
21713WAT     H288658  -7.079   9.997   8.899 -1.1183  0.9205  0.5976
21713WAT    EPW88659  -7.087  10.014   8.814 -0.1163  0.5021  0.4015
21714WAT      O88660   4.895   7.443   0.915 -0.7247 -0.2585 -0.4076
21714WAT     H188661   4.840   7.502   0.968 -1.0852 -1.7111  0.8978
21714WAT     H288662   4.961   7.501   0.877 -1.6277  1.1424  0.0494
21714WAT    EPW88663   4.896   7.459   0.917 -0.8914 -0.2654 -0.1752
21715WAT      O88664   4.966   2.298   7.757  0.8809  1.0708 -0.0657
21715WAT     H188665   4.961   2.356   7.681 -1.9739  2.1532  0.8235
21715WAT     H288666   4.962   2.356   7.833  1.2041 -0.1180  0.8979
21715WAT    EPW88667   4.965   2.313   7.757  0.5469  1.0567  0.1786
21716WAT      O88668   2.306   5.521   7.957 -0.0487 -0.3431  0.3751
21716WAT     H188669   2.255   5.569   8.022 -0.0886 -1.6723  1.3430
21716WAT     H288670   2.259   5.439   7.945  1.0623 -0.9682  0.1920
21716WAT    EPW88671   2.293   5.517   7.964  0.0926 -0.6008  0.4785
21717WAT      O88672  -1.490   1.895   2.317  0.7986 -0.7188  0.3840
21717WAT     H188673  -1.416   1.839   2.342  0.4633 -1.0906  0.5595
21717WAT     H288674  -1.567   1.839   2.327  0.5030 -0.3704  0.0897
21717WAT    EPW88675  -1.490   1.880   2.322  0.7154 -0.7219  0.3684
21718WAT      O88676   1.640   2.263   6.541 -0.0114 -0.2342 -0.1024
21718WAT     H188677   1.654   2.205   6.616 -1.3670 -1.0748 -0.4532
21718WAT     H288678   1.727   2.295   6.519  0.4496 -0.1274  1.6914
21718WAT    EPW88679   1.653   2.259   6.548 -0.1294 -0.3310  0.0882
21719WAT      O88680   2.309   8.418   2.560 -0.0303 -0.1486 -0.4524
21719WAT     H188681   2.281   8.334   2.597 -0.9813  0.6121  0.6048
21719WAT     H288682   2.402   8.425   2.585 -0.4185 -0.0648  1.0503
21719WAT    EPW88683   2.318   8.407   2.568 -0.2071 -0.0372 -0.1148
21720WAT      O88684   1.196   5.272   5.302  0.0200  0.4026  0.2552
21720WAT     H188685   1.111   5.228   5.311  0.1929  0.1197  0.5017
21720WAT     H288686   1.223   5.254   5.212 -0.1718  0.4736  0.1831
21720WAT    EPW88687   1.188   5.264   5.291  0.0175  0.3748  0.2782
21721WAT      O88688  -1.689   5.151   0.948  0.1078  0.6627  0.3585
21721WAT     H188689  -1.774   5.183   0.979  0.7098  2.0013  0.6764
21721WAT     H288690  -1.671   5.203   0.869  0.3792 -0.0200 -0.0407
21721WAT    EPW88691  -1.698   5.162   0.941  0.2230  0.7491  0.3478
21722WAT      O88692   4.756   9.092   0.613  0.4362 -0.7661  0.0823
21722WAT     H188693   4.801   9.159   0.561  1.6830  0.5660  2.6788
21722WAT     H288694   4.792   9.009   0.581  1.5553  0.0247 -0.8209
21722WAT    EPW88695   4.767   9.090   0.602  0.7484 -0.4864  0.3057
21723WAT      O88696  -2.312   1.716   3.595  0.3017 -0.2438 -0.3172
21723WAT     H188697  -2.263   1.701   3.515  0.3658  0.0128 -0.3265
21723WAT     H288698  -2.251   1.761   3.653  0.2768 -0.4901 -0.1002
21723WAT    EPW88699  -2.298   1.720   3.592  0.3070 -0.2425 -0.2898
21724WAT      O88700   1.955   7.661   8.297  0.3797 -0.4821  1.0143
21724WAT     H188701   1.889   7.673   8.366 -0.4771 -0.9731  0.2979
21724WAT     H288702   1.960   7.566   8.286  1.2568 -0.4557  1.0867
21724WAT    EPW88703   1.947   7.650   8.305  0.3824 -0.5434  0.9298
21725WAT      O88704  -3.057   1.799   8.909 -0.5827 -0.2155  0.6683
21725WAT     H188705  -3.070   1.740   8.984  2.1598 -2.0711 -0.1579
21725WAT     H288706  -3.008   1.872   8.946 -2.5564  0.8561  1.3558
21725WAT    EPW88707  -3.052   1.801   8.924 -0.4812 -0.3188  0.6504
21726WAT      O88708   2.335   3.391   0.314 -1.0464  0.0861  0.5985
21726WAT     H188709   2.287   3.356   0.239 -1.2468  2.7613 -0.6419
21726WAT     H288710   2.426   3.394   0.285 -1.2471  1.9885  0.0206
21726WAT    EPW88711   2.341   3.387   0.300 -1.0993  0.6899  0.3587
21727WAT      O88712   4.782   5.200   6.456 -0.6229 -0.0045  0.0970
21727WAT     H188713   4.793   5.165   6.367 -0.0794  0.9178 -0.2157
21727WAT     H288714   4.870   5.225   6.483 -1.0475  1.7090  0.0332
21727WAT    EPW88715   4.795   5.199   6.448 -0.6073  0.3431  0.0472
21728WAT      O88716  -1.238   4.451   5.460 -0.4079 -0.2909 -0.1731
21728WAT     H188717  -1.250   4.452   5.365 -0.4370 -0.8057 -0.1815
21728WAT     H288718  -1.296   4.381   5.491  1.3633 -1.7841 -0.0554
21728WAT    EPW88719  -1.247   4.442   5.452 -0.1781 -0.5558 -0.1583
21729WAT      O88720   4.326   6.664   4.686  0.1081  0.1336 -0.6352
21729WAT     H188721   4.333   6.571   4.666  2.4699  0.2881 -0.8144
21729WAT     H288722   4.352   6.671   4.778  0.5383  0.6932 -0.7972
21729WAT    EPW88723   4.330   6.653   4.696  0.4764  0.2277 -0.6802
21730WAT      O88724   4.679   3.027   2.772 -0.7376 -0.4878  0.1005
21730WAT     H188725   4.731   3.004   2.696  0.1615 -2.3816  1.2168
21730WAT     H288726   4.736   3.082   2.825 -1.6076  1.4292 -0.8455
21730WAT    EPW88727   4.693   3.031   2.769 -0.7336 -0.4847  0.1229
21731WAT      O88728  -2.242   5.457   2.401 -0.2735 -0.2413  0.2580
21731WAT     H188729  -2.157   5.413   2.399 -0.9362 -1.5376 -0.5751
21731WAT     H288730  -2.222   5.549   2.385  0.9516 -0.5663 -0.1692
21731WAT    EPW88731  -2.228   5.463   2.399 -0.1994 -0.4551  0.0918
21732WAT      O88732   7.862   4.542   2.227 -0.5443 -0.1377  0.1726
21732WAT     H188733   7.908   4.459   2.242 -1.8675 -0.8368  0.5329
21732WAT     H288734   7.865   4.554   2.132  1.9189  0.7728  0.3150
21732WAT    EPW88735   7.868   4.532   2.217 -0.3941 -0.1097  0.2389
21733WAT      O88736   1.629   5.221   3.143 -0.1094  0.1800 -0.2235
21733WAT     H188737   1.581   5.227   3.226  0.2839 -2.1162  0.2202
21733WAT     H288738   1.669   5.135   3.145  1.3636  0.7759 -2.0593
21733WAT    EPW88739   1.628   5.211   3.155  0.1367 -0.0441 -0.4071
21734WAT      O88740   0.811   1.998   2.100  1.0831 -0.6328 -0.3130
21734WAT     H188741   0.782   2.077   2.055  2.6094 -0.0332 -0.2946
21734WAT     H288742   0.744   1.932   2.079 -1.0209  0.9964  0.8579
21734WAT    EPW88743   0.798   2.000   2.091  1.0069 -0.3389 -0.1562
21735WAT      O88744   0.066   2.426   0.710  0.6424  0.4081 -0.7372
21735WAT     H188745   0.039   2.337   0.732 -1.0549  1.3105  1.2801
21735WAT     H288746   0.155   2.433   0.743  0.0258  0.0539  1.1237
21735WAT    EPW88747   0.074   2.415   0.718  0.3372  0.4803 -0.2257
21736WAT      O88748   2.941   7.925   5.369  0.6333 -0.7396  0.9743
21736WAT     H188749   3.013   7.873   5.333 -1.0797 -2.4400 -0.1404
21736WAT     H288750   2.920   7.988   5.301  2.8643  1.7622  2.4148
21736WAT    EPW88751   2.948   7.926   5.355  0.7015 -0.6340  1.0173
21737WAT      O88752   5.607   2.224   5.210  0.4059 -0.7268  0.2708
21737WAT     H188753   5.529   2.188   5.253  0.7763 -1.5582  0.2759
21737WAT     H288754   5.626   2.162   5.139 -1.0982  1.4026 -2.1696
21737WAT    EPW88755   5.600   2.211   5.206  0.2563 -0.5556 -0.0503
21738WAT      O88756  -3.537   9.645   1.259  0.4448  0.2796  0.0609
21738WAT     H188757  -3.470   9.583   1.231 -1.8551 -2.4121  0.1721
21738WAT     H288758  -3.498   9.689   1.335  1.4916 -2.4272  1.2045
21738WAT    EPW88759  -3.523   9.643   1.265  0.2795 -0.4325  0.2264
21739WAT      O88760   3.863   1.783   1.236  0.5298  0.5233  0.1659
21739WAT     H188761   3.895   1.817   1.319 -0.5077  1.5332  0.1662
21739WAT     H288762   3.893   1.847   1.171  2.4669 -0.9152 -0.4570
21739WAT    EPW88763   3.871   1.796   1.238  0.6485  0.4668  0.0838
21740WAT      O88764  -3.898   8.422   6.275  0.1742  0.2835 -0.3988
21740WAT     H188765  -3.815   8.382   6.299 -0.0891 -1.1511 -1.6716
21740WAT     H288766  -3.964   8.368   6.318 -0.1560 -0.0039 -1.2417
21740WAT    EPW88767  -3.896   8.410   6.284  0.0960  0.0563 -0.6778
21741WAT      O88768   2.567   8.667   7.112 -0.0786  0.3593  0.1468
21741WAT     H188769   2.593   8.666   7.020  1.6562  0.4982  0.6186
21741WAT     H288770   2.640   8.627   7.159 -1.8174 -1.7463  1.2764
21741WAT    EPW88771   2.580   8.662   7.106 -0.0792  0.0997  0.3579
21742WAT      O88772   0.772   4.188   2.199  0.1284  0.0133  0.6259
21742WAT     H188773   0.684   4.164   2.172  0.1330  0.1462  0.4862
21742WAT     H288774   0.829   4.125   2.154  0.0804 -0.3113  1.0208
21742WAT    EPW88775   0.768   4.177   2.189  0.1227 -0.0122  0.6596
21743WAT      O88776  -0.973   8.557   7.689  0.7252  0.1168  0.7358
21743WAT     H188777  -0.889   8.569   7.732  0.6817  2.4815  0.3108
21743WAT     H288778  -0.952   8.555   7.595  0.3649  0.2472  0.6507
21743WAT    EPW88779  -0.959   8.558   7.682  0.6720  0.4454  0.6683
21744WAT      O88780  -1.773   7.310   8.769 -0.1881 -0.4437  0.4481
21744WAT     H188781  -1.702   7.367   8.739  0.1259 -0.4325  1.1912
21744WAT     H288782  -1.780   7.328   8.863  0.2639 -1.9970  0.7992
21744WAT    EPW88783  -1.764   7.320   8.777 -0.0871 -0.6471  0.5922
21745WAT      O88784  -4.093   8.975   6.157  0.8442 -0.9073 -0.2390
21745WAT     H188785  -4.167   8.914   6.153 -0.0820  0.2090 -2.6435
21745WAT     H288786  -4.062   8.980   6.066  1.0371  1.9393 -0.1045
21745WAT    EPW88787  -4.099   8.968   6.144  0.7474 -0.3848 -0.5383
21746WAT      O88788  -1.394   0.099   4.595  0.1164  0.1353 -0.2211
21746WAT     H188789  -1.388   0.188   4.630 -2.8332 -0.2773  1.7971
21746WAT     H288790  -1.372   0.043   4.669 -1.9277 -0.7597 -0.2096
21746WAT    EPW88791  -1.391   0.103   4.610 -0.5422 -0.0372  0.0467
21747WAT      O88792   6.478   1.383   5.549 -0.8372  0.6313 -0.3884
21747WAT     H188793   6.399   1.330   5.538  0.2150 -2.3407  3.6490
21747WAT     H288794   6.447   1.464   5.589 -1.9766 -0.0415  0.1479
21747WAT    EPW88795   6.464   1.386   5.553 -0.8488  0.1506  0.2148
21748WAT      O88796   3.570   5.340   0.570  0.0454 -0.0645 -0.0979
21748WAT     H188797   3.565   5.258   0.620 -0.8288  0.4365  0.6523
21748WAT     H288798   3.482   5.377   0.575  0.4621  0.9899 -0.3330
21748WAT    EPW88799   3.558   5.334   0.577 -0.0149  0.1407 -0.0299
21749WAT      O88800   0.428   9.634   7.147  0.4518  0.3239  0.4488
21749WAT     H188801   0.367   9.609   7.217 -0.4401  1.2973  0.0559
21749WAT     H288802   0.494   9.688   7.190  1.0277 -0.6928  0.8708
21749WAT    EPW88803   0.428   9.638   7.162  0.4102  0.3185  0.4525
21750WAT      O88804   1.945   0.766   7.749 -0.4997 -0.7165 -0.4408
21750WAT     H188805   1.886   0.692   7.740 -2.0355  0.4920 -0.6763
21750WAT     H288806   1.958   0.775   7.843 -0.9034 -0.8166 -0.3766
21750WAT    EPW88807   1.939   0.757   7.760 -0.7555 -0.5703 -0.4635
21751WAT      O88808   2.410   9.712   7.253 -0.2996  0.3416 -0.3680
21751WAT     H188809   2.338   9.755   7.207  0.2070 -0.3020 -1.8173
21751WAT     H288810   2.446   9.650   7.189  2.9828  2.1832 -0.5333
21751WAT    EPW88811   2.405   9.709   7.239  0.2002  0.4997 -0.5810
21752WAT      O88812  -0.974   2.407   4.916  0.3503 -0.7030 -0.8417
21752WAT     H188813  -0.927   2.490   4.920  0.8271 -0.9805  2.7809
21752WAT     H288814  -1.065   2.430   4.935  0.5192 -0.9602  0.3883
21752WAT    EPW88815  -0.980   2.421   4.919  0.4355 -0.7734 -0.2017
21753WAT      O88816   2.536   7.774   8.257  0.5267 -0.0248  0.4939
21753WAT     H188817   2.568   7.713   8.325 -1.3665 -2.2738 -0.4823
21753WAT     H288818   2.581   7.746   8.178 -1.0313 -0.8648 -0.1492
21753WAT    EPW88819   2.546   7.762   8.256  0.0715 -0.4325  0.2804
21754WAT      O88820   1.560   2.688   7.121  0.2992  0.1145 -0.2803
21754WAT     H188821   1.633   2.638   7.158 -0.2304 -2.1622 -2.0897
21754WAT     H288822   1.481   2.641   7.150 -0.3688  1.2220 -0.2190
21754WAT    EPW88823   1.559   2.676   7.130  0.1412 -0.0397 -0.5109
21755WAT      O88824   2.630   8.348   6.375 -0.1823 -0.1039 -0.3469
21755WAT     H188825   2.578   8.429   6.379  0.0328  0.1056 -1.3555
21755WAT     H288826   2.699   8.361   6.440  1.3633  1.6658 -2.2077
21755WAT    EPW88827   2.632   8.361   6.384  0.0499  0.1574 -0.7253
21756WAT      O88828   6.547   9.433   0.697 -0.6067 -0.2862 -0.4542
21756WAT     H188829   6.492   9.485   0.638 -1.2136 -0.7439 -0.3092
21756WAT     H288830   6.552   9.484   0.777  0.1411  0.2924 -0.8566
21756WAT    EPW88831   6.540   9.446   0.699 -0.5884 -0.2699 -0.4882
21757WAT      O88832   5.668   1.895   2.991  0.6482 -0.1442  0.3071
21757WAT     H188833   5.635   1.981   2.965 -2.4924 -1.3030  0.0309
21757WAT     H288834   5.701   1.856   2.910  0.0008 -0.0304 -0.0183
21757WAT    EPW88835   5.668   1.902   2.977  0.1488 -0.2820  0.2278
21758WAT      O88836  -4.213   3.202   5.337 -0.4448  0.2288 -0.2632
21758WAT     H188837  -4.211   3.113   5.371  0.1138  0.6278  0.7781
21758WAT     H288838  -4.211   3.258   5.415  0.3588  1.1607 -0.9280
21758WAT    EPW88839  -4.212   3.198   5.352 -0.2651  0.4044 -0.2136
21759WAT      O88840  -0.673   2.442   8.262  0.4282 -0.6116  0.3932
21759WAT     H188841  -0.631   2.404   8.185  1.0792 -0.1499  0.5098
21759WAT     H288842  -0.649   2.535   8.258 -2.2013  0.1170 -0.6103
21759WAT    EPW88843  -0.664   2.449   8.251  0.1673 -0.4547  0.2761
21760WAT      O88844  -1.180   0.332   8.202 -0.4959  0.3105  0.2254
21760WAT     H188845  -1.095   0.328   8.159 -0.1189  0.1204  0.9781
21760WAT     H288846  -1.169   0.398   8.271 -0.9826  0.3555  0.2656
21760WAT    EPW88847  -1.167   0.340   8.206 -0.5103  0.2914  0.3300
21761WAT      O88848   5.564   3.639   1.993 -0.9832 -0.1024 -0.1108
21761WAT     H188849   5.512   3.622   2.071 -0.8897  0.2921  0.0379
21761WAT     H288850   5.645   3.589   2.007 -1.0602 -0.2122 -0.0579
21761WAT    EPW88851   5.568   3.630   2.005 -0.9809 -0.0648 -0.0842
21762WAT      O88852  -1.469   1.444   3.412  0.7028  0.9909 -0.8111
21762WAT     H188853  -1.508   1.358   3.393  0.0667  1.4464 -1.6060
21762WAT     H288854  -1.544   1.502   3.425  1.1257  1.3207  0.3227
21762WAT    EPW88855  -1.484   1.440   3.412  0.6747  1.0944 -0.7664
21763WAT      O88856  -0.934   3.024   3.314  0.0419  0.6630  0.5890
21763WAT     H188857  -0.916   2.970   3.237 -0.5587  1.8021 -0.3730
21763WAT     H288858  -0.955   3.110   3.279  1.1335  1.5967  2.0870
21763WAT    EPW88859  -0.934   3.028   3.299  0.1067  0.9364  0.6597
21764WAT      O88860  -1.320   5.239   3.626 -0.0981  0.8472 -0.1605
21764WAT     H188861  -1.384   5.261   3.694  0.8004  1.0703  0.6432
21764WAT     H288862  -1.356   5.277   3.546  0.1148  3.0645  0.7066
21764WAT    EPW88863  -1.333   5.247   3.625  0.0485  1.1692  0.0598
21765WAT      O88864   6.191   0.115   0.558 -0.4135  0.2461  0.1432
21765WAT     H188865   6.261   0.180   0.566 -0.2381  0.4018 -2.0144
21765WAT     H288866   6.220   0.042   0.612  1.2358  0.4794 -0.3745
21765WAT    EPW88867   6.204   0.114   0.566 -0.1726  0.2974 -0.2096
21766WAT      O88868   0.093   9.424   5.167 -0.1742  0.2607 -0.1935
21766WAT     H188869   0.071   9.407   5.259  1.1153  0.2611  0.1317
21766WAT     H288870   0.162   9.362   5.147  0.3239  0.9970 -0.8305
21766WAT    EPW88871   0.099   9.414   5.177  0.0616  0.3576 -0.2346
21767WAT      O88872   1.857   4.061   1.280  0.7568  0.4664  0.6443
21767WAT     H188873   1.941   4.026   1.252  0.2901 -0.1417 -0.0507
21767WAT     H288874   1.815   3.988   1.326  0.0167  0.2770 -0.2950
21767WAT    EPW88875   1.862   4.046   1.283  0.5976  0.3612  0.4287
21768WAT      O88876  -0.320   0.857   6.583  0.6289 -0.5835  0.1636
21768WAT     H188877  -0.302   0.949   6.566 -0.0645 -0.4325  0.2205
21768WAT     H288878  -0.243   0.811   6.549  0.4633 -0.0795 -0.9397
21768WAT    EPW88879  -0.308   0.863   6.576  0.5156 -0.4971  0.0257
21769WAT      O88880   0.151   1.239   2.858 -0.0371 -0.0726  0.3187
21769WAT     H188881   0.059   1.243   2.883  0.3654  1.1651  1.8156
21769WAT     H288882   0.170   1.146   2.848 -1.2631 -0.3794  0.7236
21769WAT    EPW88883   0.141   1.227   2.860 -0.1457  0.0502  0.5695
21770WAT      O88884  -4.172   1.144   8.975 -0.0584  0.7016  0.2672
21770WAT     H188885  -4.190   1.199   8.898  0.0556 -1.2877 -1.2680
21770WAT     H288886  -4.080   1.121   8.966 -0.5826 -1.3795 -0.3057
21770WAT    EPW88887  -4.162   1.148   8.963 -0.1125  0.1647 -0.0105
21771WAT      O88888  -2.873   0.008   8.090  0.1358  0.2916 -0.5817
21771WAT     H188889  -2.819   0.082   8.118 -1.3641  1.6678 -1.1979
21771WAT     H288890  -2.919  -0.020   8.169  0.2385  0.4308 -0.4723
21771WAT    EPW88891  -2.872   0.014   8.104 -0.0485  0.4914 -0.6485
21772WAT      O88892   0.143   2.053   8.726 -0.5232  0.4074  0.4308
21772WAT     H188893   0.103   1.972   8.696 -2.1668  1.8429 -1.5079
21772WAT     H288894   0.230   2.027   8.757 -2.1549 -2.5501  3.0869
21772WAT    EPW88895   0.149   2.039   8.726 -0.9552  0.2067  0.5250
21773WAT      O88896  -2.530   6.439   6.188  0.3475 -0.2145 -0.0502
21773WAT     H188897  -2.581   6.359   6.201  1.8346 -0.9247  1.8090
21773WAT     H288898  -2.515   6.472   6.277  2.4301  0.3803 -0.5713
21773WAT    EPW88899  -2.535   6.433   6.202  0.8183 -0.2296  0.1264
21774WAT      O88900   4.152   0.802   3.330  0.0573 -0.1822  0.1566
21774WAT     H188901   4.176   0.887   3.367  0.6420  0.1213 -0.8833
21774WAT     H288902   4.191   0.738   3.389  1.9372  0.2917 -0.5199
21774WAT    EPW88903   4.160   0.805   3.342  0.3822 -0.0796 -0.0697
21775WAT      O88904   7.916   2.837   0.574  0.5362  0.1625  0.2225
21775WAT     H188905   7.989   2.836   0.636  1.7974  1.4778 -1.1630
21775WAT     H288906   7.952   2.877   0.495 -1.7246  0.9802 -0.4782
21775WAT    EPW88907   7.931   2.842   0.571  0.4044  0.4438 -0.0526
21776WAT      O88908  -1.445   7.928   1.570 -0.1290 -0.0265 -0.6123
21776WAT     H188909  -1.429   8.021   1.587  1.1436 -0.2509 -0.5296
21776WAT     H288910  -1.467   7.892   1.656  0.4997 -0.0249 -0.4531
21776WAT    EPW88911  -1.446   7.936   1.584  0.1217 -0.0558 -0.5804
21777WAT      O88912   5.310   8.838   3.127  0.9864  0.3568  0.1030
21777WAT     H188913   5.314   8.914   3.185 -0.0383  0.5998 -0.1203
21777WAT     H288914   5.312   8.763   3.187 -0.3677  0.6107  0.5055
21777WAT    EPW88915   5.311   8.838   3.143  0.6728  0.4220  0.1266
21778WAT      O88916   4.865   9.278   0.415 -0.1873 -0.2232  0.0404
21778WAT     H188917   4.813   9.355   0.438 -0.1734 -0.0234 -0.6000
21778WAT     H288918   4.811   9.230   0.353 -0.1506 -0.6806  0.3590
21778WAT    EPW88919   4.851   9.282   0.410 -0.1805 -0.2575 -0.0021
21779WAT      O88920  -3.099   2.592   7.024 -0.0021  0.5351  0.6180
21779WAT     H188921  -3.166   2.616   6.961  1.1104 -3.0917 -2.3696
21779WAT     H288922  -3.046   2.671   7.035 -2.9738  2.6360  0.8357
21779WAT    EPW88923  -3.101   2.605   7.018 -0.2474  0.3338  0.2527
21780WAT      O88924   1.897   8.543   3.614 -0.8317  0.6108  0.4067
21780WAT     H188925   1.878   8.453   3.587  0.4866  0.0019  1.3556
21780WAT     H288926   1.873   8.597   3.539 -2.4287 -0.4320  0.1200
21780WAT    EPW88927   1.891   8.538   3.601 -0.8684  0.3929  0.4940
21781WAT      O88928   2.925   9.223   2.854 -0.1202  0.0643 -0.2054
21781WAT     H188929   2.976   9.229   2.774 -1.3224 -0.8994 -1.0665
21781WAT     H288930   2.886   9.136   2.853  0.4926 -0.3041  1.8496
21781WAT    EPW88931   2.927   9.212   2.844 -0.1980 -0.1116 -0.0479
21782WAT      O88932  -1.919   5.260   1.546 -0.4339  0.5803  0.0886
21782WAT     H188933  -1.911   5.354   1.530 -2.9950  1.1699  1.6015
21782WAT     H288934  -1.871   5.244   1.627  3.8059 -0.4233 -2.3462
21782WAT    EPW88935  -1.912   5.270   1.555 -0.2125  0.5257 -0.0330
21783WAT      O88936   1.684   0.441   4.022 -0.4245 -0.4932  0.0982
21783WAT     H188937   1.608   0.393   4.053 -0.0906 -0.0690  1.6273
21783WAT     H288938   1.711   0.496   4.096 -0.1271  1.2378 -1.2342
21783WAT    EPW88939   1.678   0.442   4.036 -0.3412 -0.2089  0.1242
21784WAT      O88940   6.739   0.250   4.165 -0.3314 -0.1393 -0.1212
21784WAT     H188941   6.753   0.321   4.227  0.8814 -1.2304  0.9102
21784WAT     H288942   6.647   0.227   4.174 -0.1253 -0.4172  1.4488
21784WAT    EPW88943   6.729   0.256   4.174 -0.1440 -0.3199  0.2220
21785WAT      O88944   1.677   6.203   6.179  0.0730  0.4188  0.0046
21785WAT     H188945   1.754   6.201   6.122  0.0533  3.7961 -0.3062
21785WAT     H288946   1.624   6.274   6.145 -1.0931  1.0325  2.8376
21785WAT    EPW88947   1.680   6.212   6.167 -0.0834  0.9453  0.3371
21786WAT      O88948   5.348   4.959   5.801  0.8504  0.3201  0.1945
21786WAT     H188949   5.333   5.034   5.743 -0.8390  0.2873  0.5501
21786WAT     H288950   5.367   4.886   5.742 -3.0413 -0.2525 -0.5851
21786WAT    EPW88951   5.349   4.959   5.786  0.1142  0.2401  0.1385
21787WAT      O88952   3.130   5.341   6.845 -0.1513  0.5119 -0.5611
21787WAT     H188953   3.131   5.262   6.900 -1.7739  1.6553  1.2309
21787WAT     H288954   3.221   5.352   6.817  0.4008 -1.0825  0.4753
21787WAT    EPW88955   3.142   5.332   6.848 -0.2925  0.4525 -0.1881
21788WAT      O88956  -0.377   7.373   1.668 -0.1755 -0.8051  0.3484
21788WAT     H188957  -0.348   7.283   1.683  2.0845  0.1141  2.2072
21788WAT     H288958  -0.426   7.395   1.747 -0.2609 -0.2526  0.1444
21788WAT    EPW88959  -0.379   7.364   1.681  0.1113 -0.6108  0.5667
21789WAT      O88960   4.284   3.535   3.378  0.4825  0.5814  0.2331
21789WAT     H188961   4.350   3.476   3.343  1.3223  0.8758  1.2649
21789WAT     H288962   4.241   3.572   3.301  2.8042  1.8178 -0.5747
21789WAT    EPW88963   4.287   3.532   3.363  0.8996  0.7832  0.2626
21790WAT      O88964   1.669   7.970   8.725  0.1807 -0.7959  0.7387
21790WAT     H188965   1.759   8.001   8.730 -0.0225 -0.0294 -0.0793
21790WAT     H288966   1.619   8.047   8.699 -0.8969 -0.9003  2.3288
21790WAT    EPW88967   1.674   7.984   8.723  0.0117 -0.7086  0.8402
21791WAT      O88968   4.058   2.357   4.288 -0.9426 -0.2282 -0.2134
21791WAT     H188969   4.022   2.443   4.265 -0.1154 -0.0320 -0.8390
21791WAT     H288970   3.991   2.295   4.259 -2.4659  0.2560  2.0745
21791WAT    EPW88971   4.045   2.360   4.281 -1.0343 -0.1384  0.0060
21792WAT      O88972  -1.108   4.006   4.844 -0.1992 -0.5427 -0.3974
21792WAT     H188973  -1.139   4.077   4.787  3.2556 -1.4140 -3.8057
21792WAT     H288974  -1.069   4.052   4.918  0.1798  1.0837 -1.5281
21792WAT    EPW88975  -1.107   4.022   4.846  0.3064 -0.4430 -0.9961
21793WAT      O88976  -2.661   3.655   7.880  0.6048  0.4908  0.2986
21793WAT     H188977  -2.714   3.654   7.960 -0.4573 -1.2949 -0.3719
21793WAT     H288978  -2.721   3.687   7.812  0.5108 -1.0515 -0.3717
21793WAT    EPW88979  -2.676   3.659   7.882  0.4523  0.0519  0.1216
21794WAT      O88980   7.036   0.130   2.832 -0.0674 -0.3914  0.6288
21794WAT     H188981   7.062   0.081   2.910 -1.1972 -3.3614 -0.7414
21794WAT     H288982   6.956   0.175   2.858 -0.1560 -0.9445  1.3327
21794WAT    EPW88983   7.029   0.130   2.846 -0.2282 -0.8561  0.5410
21795WAT      O88984  -3.491   3.318   5.608  0.1754 -0.1448 -0.3930
21795WAT     H188985  -3.516   3.389   5.549 -1.7937 -1.7799 -1.6793
21795WAT     H288986  -3.560   3.315   5.673  0.6184 -0.4407  0.0734
21795WAT    EPW88987  -3.503   3.327   5.609 -0.0260 -0.3995 -0.5012
21796WAT      O88988   3.455   0.350   3.083  0.1813 -0.4670 -0.0543
21796WAT     H188989   3.389   0.413   3.055  1.0121 -0.5425 -2.3779
21796WAT     H288990   3.513   0.341   3.008  3.2042  0.0118  2.0466
21796WAT    EPW88991   3.454   0.357   3.069  0.6896 -0.4138 -0.0837
21797WAT      O88992   1.696   1.603   3.006 -0.2978  0.1521 -0.2823
21797WAT     H188993   1.753   1.564   3.072 -2.6247 -1.4523  0.9365
21797WAT     H288994   1.752   1.664   2.959  1.7786  0.5530  2.4363
21797WAT    EPW88995   1.711   1.606   3.009 -0.3309 -0.0066  0.2371
21798WAT      O88996   6.894   4.343   4.095  0.1270 -0.0981  0.3323
21798WAT     H188997   6.951   4.267   4.109 -1.3510 -1.3970 -0.4464
21798WAT     H288998   6.941   4.397   4.032  1.9207  0.4882  2.0536
21798WAT    EPW88999   6.908   4.340   4.089  0.1686 -0.1919  0.4563
21799WAT      O89000   0.794   4.296   2.511  1.0512 -0.1243 -0.2836
21799WAT     H189001   0.818   4.259   2.596 -0.6667  0.4353  0.4852
21799WAT     H289002   0.699   4.287   2.507  1.0138  0.6116 -1.7992
21799WAT    EPW89003   0.785   4.290   2.521  0.8197  0.0465 -0.3821
21800WAT      O89004   3.719   8.251   6.119 -0.2516 -0.5794  0.1395
21800WAT     H189005   3.636   8.228   6.077 -0.9144 -1.7653  2.0081
21800WAT     H289006   3.738   8.177   6.176  0.5973  0.9705  1.9471
21800WAT    EPW89007   3.711   8.238   6.121 -0.2270 -0.5312  0.6242
21801WAT      O89008   4.557   4.079   2.351  0.2885 -0.3184  0.5435
21801WAT     H189009   4.570   4.065   2.257 -0.8677 -0.7580  0.4356
21801WAT     H289010   4.622   4.146   2.374  0.2547  0.1638 -0.6715
21801WAT    EPW89011   4.568   4.086   2.341  0.1314 -0.3130  0.3691
21802WAT      O89012   3.913   6.096   1.115 -0.0891 -0.1706 -0.4484
21802WAT     H189013   3.888   6.044   1.038  0.2816 -1.1187  0.0662
21802WAT     H289014   3.920   6.033   1.186  0.2063  0.6108  0.2328
21802WAT    EPW89015   3.911   6.081   1.114 -0.0012 -0.1926 -0.2907
21803WAT      O89016   3.756   6.813   6.257  0.0337 -0.0403  0.0911
21803WAT     H189017   3.809   6.734   6.254 -1.3136 -0.9894 -2.6223
21803WAT     H289018   3.784   6.863   6.180 -1.2001  0.6482  0.0601
21803WAT    EPW89019   3.766   6.809   6.246 -0.3066 -0.0746 -0.2708
21804WAT      O89020   3.270   7.300   1.342 -0.3715 -0.9419  0.0088
21804WAT     H189021   3.213   7.372   1.370  0.1619  0.2000 -1.7053
21804WAT     H289022   3.256   7.232   1.408 -2.5677 -0.1297  0.4775
21804WAT    EPW89023   3.261   7.300   1.354 -0.5908 -0.6843 -0.1554
21805WAT      O89024   3.718   1.278   6.919 -0.3551  0.4564  0.4793
21805WAT     H189025   3.735   1.210   6.853 -0.6921 -0.4191  1.2699
21805WAT     H289026   3.714   1.359   6.868  0.3944 -0.0572 -0.4498
21805WAT    EPW89027   3.720   1.280   6.903 -0.3006  0.2732  0.4611
21806WAT      O89028   2.445   0.276   3.065  0.6767  0.2640 -0.7016
21806WAT     H189029   2.428   0.247   2.975  2.4561 -0.2903 -0.8982
21806WAT     H289030   2.470   0.368   3.056  0.4305  0.3281 -0.7264
21806WAT    EPW89031   2.446   0.285   3.052  0.8789  0.1994 -0.7308
21807WAT      O89032   1.733   1.035   1.618 -0.4325 -0.0632 -0.3608
21807WAT     H189033   1.658   1.081   1.580 -1.6456 -0.6775  1.1917
21807WAT     H289034   1.695   0.977   1.684  1.5193  0.4169  1.2742
21807WAT    EPW89035   1.718   1.033   1.622 -0.3350 -0.0809  0.0596
21808WAT      O89036  -3.400   2.076   6.075  0.2940  0.3471  0.9737
21808WAT     H189037  -3.306   2.093   6.071  0.1607  0.8687 -0.6821
21808WAT     H289038  -3.407   1.982   6.092  1.1670 -0.1966 -1.3024
21808WAT    EPW89039  -3.389   2.066   6.077  0.3916  0.3442  0.4551
21809WAT      O89040  -2.813   9.600   8.383 -0.4430  0.0433 -0.4261
21809WAT     H189041  -2.902   9.573   8.363 -1.0547  0.4453  1.5436
21809WAT     H289042  -2.771   9.609   8.298 -2.7406  1.3683 -1.5155
21809WAT    EPW89043  -2.819   9.598   8.369 -0.8267  0.2708 -0.3104
21810WAT      O89044   0.769   8.491   3.440  0.5428  0.3566 -1.1981
21810WAT     H189045   0.709   8.541   3.496  2.5790 -0.0270  1.5284
21810WAT     H289046   0.827   8.558   3.402  0.7610  0.4076 -0.7761
21810WAT    EPW89047   0.769   8.507   3.442  0.8401  0.3123 -0.7830
21811WAT      O89048   0.041   9.757   7.070  0.8047 -0.2385  0.0839
21811WAT     H189049   0.028   9.681   7.127 -0.8883 -0.6243 -0.7483
21811WAT     H289050  -0.037   9.811   7.083 -0.7528 -1.3626 -3.3036
21811WAT    EPW89051   0.029   9.754   7.079  0.3760 -0.4373 -0.4725
21812WAT      O89052  -3.779   7.619   6.833 -0.1162  0.0576  0.0144
21812WAT     H189053  -3.706   7.674   6.861 -0.2370  0.4101 -0.3601
21812WAT     H289054  -3.746   7.529   6.840 -1.0355 -0.1909  4.2056
21812WAT    EPW89055  -3.765   7.614   6.838 -0.2533  0.0713  0.5178
21813WAT      O89056   3.494  10.289   1.554  0.1973  0.6269  0.0006
21813WAT     H189057   3.431  10.361   1.554  0.8939  1.3364 -2.6342
21813WAT     H289058   3.480  10.245   1.470  1.3675 -0.8996  0.5564
21813WAT    EPW89059   3.484  10.293   1.543  0.4435  0.5193 -0.2736
21814WAT      O89060   4.544   6.952   3.302 -0.3361 -0.4153 -0.2300
21814WAT     H189061   4.468   7.003   3.277 -0.2693 -0.6741 -0.9861
21814WAT     H289062   4.513   6.861   3.304 -0.1738 -0.4682 -0.0353
21814WAT    EPW89063   4.530   6.947   3.299 -0.3059 -0.4566 -0.3040
21815WAT      O89064   0.359   2.551   0.028  0.6620  0.0221 -0.5290
21815WAT     H189065   0.268   2.580   0.031  1.6097  3.4014 -0.8602
21815WAT     H289066   0.368   2.513  -0.059 -0.2332  0.3371 -0.7762
21815WAT    EPW89067   0.348   2.550   0.017  0.6689  0.5094 -0.6053
21816WAT      O89068   0.308   0.579   3.495 -0.8462 -0.1564  0.2879
21816WAT     H189069   0.322   0.622   3.579  0.7279 -1.4978  0.7860
21816WAT     H289070   0.240   0.514   3.512  0.1208 -1.0630  0.8133
21816WAT    EPW89071   0.301   0.576   3.508 -0.5111 -0.4529  0.4230
21817WAT      O89072  -0.725   4.179   3.258 -0.0379  0.0750 -0.1891
21817WAT     H189073  -0.638   4.187   3.298 -0.4235 -1.0586  0.9670
21817WAT     H289074  -0.716   4.110   3.193 -0.0010  0.1565 -0.2698
21817WAT    EPW89075  -0.713   4.171   3.255 -0.0839 -0.0639 -0.0472
21818WAT      O89076   1.749   0.038   4.954  0.1077 -0.0895 -0.3459
21818WAT     H189077   1.703   0.116   4.986  0.9884  0.8933 -1.3971
21818WAT     H289078   1.747   0.046   4.859  0.2676 -1.3450 -0.4731
21818WAT    EPW89079   1.742   0.049   4.946  0.2450 -0.1254 -0.5012
21819WAT      O89080   7.010   1.328   5.011  0.1623 -0.5784 -0.2455
21819WAT     H189081   7.022   1.276   4.932  0.5859  0.9123 -1.2216
21819WAT     H289082   6.997   1.417   4.978 -1.0638 -0.1412  1.3224
21819WAT    EPW89083   7.010   1.333   4.996  0.0565 -0.3241 -0.1676
21820WAT      O89084  -3.041   6.298   8.431 -0.5590 -0.4622  0.1554
21820WAT     H189085  -3.071   6.276   8.343 -1.9891 -1.4506  0.8526
21820WAT     H289086  -3.094   6.244   8.489  1.6268 -1.2431  1.5644
21820WAT    EPW89087  -3.052   6.288   8.427 -0.4593 -0.6955  0.4334
21821WAT      O89088  -0.994   6.046   8.724  0.1983 -0.8511 -0.6451
21821WAT     H189089  -1.029   6.001   8.647 -0.3105 -0.1092 -0.8651
21821WAT     H289090  -0.909   6.079   8.696  0.2155 -0.9777 -0.7415
21821WAT    EPW89091  -0.987   6.044   8.710  0.1335 -0.7701 -0.6866
21822WAT      O89092  -6.876   7.152   8.085 -0.3020 -0.0231  0.1446
21822WAT     H189093  -6.894   7.063   8.056  0.1201  0.1599 -0.7192
21822WAT     H289094  -6.780   7.156   8.091 -0.3351  0.2779  0.4929
21822WAT    EPW89095  -6.865   7.141   8.082 -0.2506  0.0408  0.0768
21823WAT      O89096   3.358   8.908   2.876 -0.5016  0.1994 -0.0288
21823WAT     H189097   3.293   8.880   2.811 -0.8427  0.8086  0.0542
21823WAT     H289098   3.330   8.866   2.957 -0.1294 -0.4860 -0.2377
21823WAT    EPW89099   3.346   8.899   2.878 -0.4976  0.1893 -0.0455
21824WAT      O89100  -2.780   0.441   4.647  0.4000 -0.2178  0.0477
21824WAT     H189101  -2.830   0.379   4.593 -0.1431  1.0398 -0.9195
21824WAT     H289102  -2.844   0.474   4.711  0.1519  0.8457 -0.7279
21824WAT    EPW89103  -2.795   0.437   4.648  0.2956  0.0883 -0.1824
21825WAT      O89104  -2.459   8.555   2.006  0.2723 -0.1418 -0.0380
21825WAT     H189105  -2.424   8.568   2.094  0.2941  1.3419 -0.2316
21825WAT     H289106  -2.463   8.644   1.969 -0.8761 -0.6087 -1.0920
21825WAT    EPW89107  -2.455   8.569   2.013  0.1237 -0.0072 -0.2025
21826WAT      O89108   2.110   0.125   7.275 -0.0039  0.0175  0.7424
21826WAT     H189109   2.129   0.050   7.332 -1.1909  0.6600  2.0393
21826WAT     H289110   2.175   0.119   7.205  0.1203 -2.0478  0.9705
21826WAT    EPW89111   2.121   0.114   7.273 -0.1441 -0.1701  0.9437
21827WAT      O89112  -1.603   5.088   7.048  0.0034 -0.2741  0.2769
21827WAT     H189113  -1.629   5.006   7.091 -2.5519  1.4939  2.4317
21827WAT     H289114  -1.664   5.153   7.081  2.0878  2.6363 -1.1202
21827WAT    EPW89115  -1.614   5.086   7.058 -0.0587  0.3431  0.3769
21828WAT      O89116   4.679   1.204   4.051 -0.5513  0.0556  0.3842
21828WAT     H189117   4.658   1.214   4.144 -0.3323  2.5326  0.2308
21828WAT     H289118   4.769   1.170   4.050 -0.7834 -0.6213  1.0366
21828WAT    EPW89119   4.688   1.201   4.063 -0.5531  0.2930  0.4499
21829WAT      O89120  -0.344   5.230   3.216  1.0072  0.5906  1.4707
21829WAT     H189121  -0.402   5.155   3.231 -0.0512  0.9131 -0.6205
21829WAT     H289122  -0.339   5.238   3.121  0.3806  3.6627  1.5883
21829WAT    EPW89123  -0.351   5.221   3.206  0.7850  1.0386  1.2103
21830WAT      O89124  -1.466   1.001   8.838 -0.6802 -0.1252  0.5902
21830WAT     H189125  -1.557   0.994   8.809 -0.4709  0.8325 -0.3763
21830WAT     H289126  -1.459   0.939   8.910 -0.8378 -3.7961 -2.2788
21830WAT    EPW89127  -1.477   0.992   8.844 -0.6734 -0.4830  0.0839
21831WAT      O89128  -1.299   4.578   2.986 -0.4616  0.0883 -0.0078
21831WAT     H189129  -1.341   4.494   2.969 -0.1350 -0.0454 -0.1474
21831WAT     H289130  -1.225   4.557   3.043  0.3397  0.1114 -1.0036
21831WAT    EPW89131  -1.295   4.564   2.991 -0.3129  0.0737 -0.1576
21832WAT      O89132   0.773   3.126   6.046  0.6767  0.7046 -0.2969
21832WAT     H189133   0.726   3.185   6.106 -3.0674 -1.4260 -0.8474
21832WAT     H289134   0.770   3.170   5.962  0.2695  0.9013 -0.1829
21832WAT    EPW89135   0.767   3.140   6.043  0.1291  0.4494 -0.3545
21833WAT      O89136   1.811   4.832   4.361  0.3037  0.0551  0.3318
21833WAT     H189137   1.796   4.923   4.386 -0.8335 -0.6648  2.4993
21833WAT     H289138   1.753   4.781   4.418  0.9542 -2.0529 -0.7672
21833WAT    EPW89139   1.801   4.837   4.372  0.2394 -0.3178  0.4728
21834WAT      O89140   6.161   4.185   4.373  0.7482 -0.7280 -0.2008
21834WAT     H189141   6.098   4.158   4.439  1.0165 -1.2449 -0.1550
21834WAT     H289142   6.192   4.271   4.403  0.3909 -0.6701  0.0003
21834WAT    EPW89143   6.157   4.193   4.385  0.7367 -0.7885 -0.1683
21835WAT      O89144  -1.413   3.128   3.148 -0.1158 -0.3709 -0.4960
21835WAT     H189145  -1.346   3.067   3.117 -0.6211 -0.9580 -0.4433
21835WAT     H289146  -1.396   3.136   3.242  0.1838 -0.1394 -0.5697
21835WAT    EPW89147  -1.402   3.121   3.157 -0.1429 -0.4179 -0.4989
21836WAT      O89148  -3.344   3.634   3.696 -0.6246  0.2373 -0.2574
21836WAT     H189149  -3.407   3.675   3.637 -2.0105 -1.4958 -0.0928
21836WAT     H289150  -3.380   3.546   3.711  1.0047 -0.2412  1.1593
21836WAT    EPW89151  -3.357   3.627   3.690 -0.5925 -0.0544 -0.0488
21837WAT      O89152   0.846   8.725   8.093  0.7792 -0.1807 -0.2323
21837WAT     H189153   0.919   8.665   8.076 -0.4126 -1.8443  0.1627
21837WAT     H289154   0.862   8.800   8.036  2.0539 -1.1419 -1.1955
21837WAT    EPW89155   0.858   8.727   8.083  0.7901 -0.5269 -0.3071
21838WAT      O89156  -2.198   4.125   1.969 -0.0980  0.3955  0.1779
21838WAT     H189157  -2.292   4.142   1.965 -0.4122 -0.9771  1.0574
21838WAT     H289158  -2.191   4.035   2.002  1.5301  0.9924  1.6407
21838WAT    EPW89159  -2.209   4.115   1.973  0.0753  0.2933  0.4868
21839WAT      O89160   6.733   0.600   1.033  0.0030  0.2866  0.5020
21839WAT     H189161   6.737   0.675   0.974 -0.6246 -1.9720 -2.7165
21839WAT     H289162   6.821   0.562   1.029 -0.6236 -1.1344 -0.9171
21839WAT    EPW89163   6.745   0.605   1.024 -0.1624 -0.1987 -0.1097
21840WAT      O89164   2.907   2.000   1.196  0.1261 -0.0515 -0.2862
21840WAT     H189165   2.872   1.958   1.117  1.0085 -0.3749 -0.5066
21840WAT     H289166   2.973   1.940   1.229  0.4952  0.5686  0.1189
21840WAT    EPW89167   2.911   1.987   1.190  0.2912 -0.0123 -0.2618
21841WAT      O89168  -0.779   2.314   2.493  1.1322 -0.3663 -0.2987
21841WAT     H189169  -0.817   2.229   2.471 -1.0032  0.4799 -0.1563
21841WAT     H289170  -0.838   2.350   2.559 -0.0468  2.6623 -2.7553
21841WAT    EPW89171  -0.792   2.308   2.499  0.6951  0.1447 -0.6039
21842WAT      O89172   4.099   8.492   0.670  0.3758 -0.7017 -0.8102
21842WAT     H189173   4.012   8.484   0.632  0.9877  3.8429 -4.0298
21842WAT     H289174   4.155   8.517   0.596  3.7373 -0.2107  1.6438
21842WAT    EPW89175   4.095   8.494   0.655  0.9000 -0.0372 -0.9111
21843WAT      O89176   3.480   9.085   4.729  0.3670 -0.0024 -0.2819
21843WAT     H189177   3.533   9.164   4.727  0.9095 -0.3611 -0.4902
21843WAT     H289178   3.522   9.030   4.795  0.0129 -0.1288 -0.1602
21843WAT    EPW89179   3.492   9.088   4.737  0.3918 -0.0668 -0.2933
21844WAT      O89180  -6.387   9.864   6.667 -0.9559 -0.7874 -0.1293
21844WAT     H189181  -6.364   9.947   6.710  1.2960 -2.0755  1.3478
21844WAT     H289182  -6.461   9.886   6.611 -0.2091  2.3160 -0.0801
21844WAT    EPW89183  -6.393   9.878   6.665 -0.5603 -0.5479  0.0720
21845WAT      O89184  -0.653   7.854   0.398  0.0546  0.2966  0.2149
21845WAT     H189185  -0.744   7.848   0.372  0.4079 -0.1088 -0.9712
21845WAT     H289186  -0.636   7.773   0.445  0.5093 -0.9176 -1.9294
21845WAT    EPW89187  -0.662   7.843   0.401  0.1611  0.0830 -0.2244
21846WAT      O89188   1.458   3.005   0.265 -0.0021  0.0623 -0.2383
21846WAT     H189189   1.455   2.995   0.170  2.3345  1.9185 -0.5957
21846WAT     H289190   1.536   2.956   0.292 -3.0627 -4.4930  1.5044
21846WAT    EPW89191   1.468   2.997   0.256 -0.0976 -0.2936 -0.0556
21847WAT      O89192   5.116   2.298   4.045  0.3683 -0.2235 -0.0849
21847WAT     H189193   5.098   2.355   3.970  3.2580  0.5906 -0.2714
21847WAT     H289194   5.146   2.216   4.005 -1.3663 -1.0561  0.2190
21847WAT    EPW89195   5.118   2.295   4.030  0.5205 -0.2259 -0.0694
21848WAT      O89196   3.528   5.329   8.510 -0.4608  0.3296 -1.0784
21848WAT     H189197   3.453   5.383   8.533  0.6763  1.5781 -0.1991
21848WAT     H289198   3.598   5.360   8.566  0.5895 -1.1725 -1.5058
21848WAT    EPW89199   3.527   5.340   8.520 -0.1723  0.2961 -1.0190
21849WAT      O89200   1.131   5.819   5.086 -0.0130 -0.2214  0.3410
21849WAT     H189201   1.058   5.759   5.071  1.7138 -3.0008  2.0691
21849WAT     H289202   1.182   5.815   5.005 -1.3825  1.2716 -0.6456
21849WAT    EPW89203   1.128   5.810   5.073  0.0342 -0.3910  0.4387
21850WAT      O89204   2.284   0.262   7.647 -0.6580 -0.5109 -0.1768
21850WAT     H189205   2.275   0.251   7.741 -1.4702  1.7840  0.0618
21850WAT     H289206   2.379   0.270   7.633 -0.5374 -0.8116  0.4301
21850WAT    EPW89207   2.295   0.261   7.657 -0.7492 -0.2479 -0.0653
21851WAT      O89208   6.993   2.368   3.418 -0.6942  0.0416  0.2276
21851WAT     H189209   7.016   2.369   3.325  0.4089 -0.5766  0.4752
21851WAT     H289210   7.028   2.285   3.450 -1.2266  0.1677  1.1593
21851WAT    EPW89211   7.001   2.357   3.410 -0.6187 -0.0232  0.3833
21852WAT      O89212  -6.746   6.828   7.654 -0.2580  0.4097 -0.2270
21852WAT     H189213  -6.733   6.796   7.565 -1.0946 -0.2186 -0.1335
21852WAT     H289214  -6.800   6.907   7.644 -1.2123 -0.2240 -0.2260
21852WAT    EPW89215  -6.752   6.834   7.641 -0.4942  0.2432 -0.2146
21853WAT      O89216  -1.409   5.775   1.835  0.0990  0.4466  0.2174
21853WAT     H189217  -1.336   5.743   1.782  1.1202  0.3820  1.6276
21853WAT     H289218  -1.484   5.723   1.806  1.1788 -1.4349  0.6606
21853WAT    EPW89219  -1.409   5.764   1.824  0.3761  0.1900  0.4619
21854WAT      O89220   3.157   2.961   4.280  0.8590  0.1103 -0.7036
21854WAT     H189221   3.235   2.949   4.333 -0.1942  0.3908  1.0015
21854WAT     H289222   3.129   3.051   4.298 -1.1423 -0.6993  0.6374
21854WAT    EPW89223   3.163   2.971   4.289  0.4561  0.0405 -0.3018
21855WAT      O89224   2.207   5.079   4.069 -0.0438 -1.1081  0.1120
21855WAT     H189225   2.171   5.140   4.005  2.3636 -0.3538 -0.6177
21855WAT     H289226   2.159   4.997   4.054 -1.1483 -0.2906 -1.0123
21855WAT    EPW89227   2.196   5.076   4.059  0.1279 -0.9007 -0.1326
21856WAT      O89228   1.835   2.591   8.863  0.1904 -0.0544  0.0536
21856WAT     H189229   1.921   2.591   8.822  0.2902 -0.4696  0.2621
21856WAT     H289230   1.774   2.578   8.790  0.3500 -0.5319  0.0038
21856WAT    EPW89231   1.838   2.589   8.848  0.2246 -0.1721  0.0744
21857WAT      O89232   6.967   5.372   0.809  0.9806  0.0592  0.0587
21857WAT     H189233   7.057   5.347   0.833  0.7660 -1.0559 -0.2656
21857WAT     H289234   6.956   5.340   0.720 -0.3490 -1.4709  0.7294
21857WAT    EPW89235   6.978   5.365   0.801  0.7768 -0.2897  0.1044
21858WAT      O89236  -0.630   6.080   0.124 -0.1583  0.0055 -0.3599
21858WAT     H189237  -0.550   6.039   0.091 -0.7601 -0.2835 -1.4957
21858WAT     H289238  -0.632   6.166   0.083  0.5583  0.8239  1.2080
21858WAT    EPW89239  -0.620   6.086   0.114 -0.1431  0.0753 -0.3029
21859WAT      O89240   7.024   0.687   2.390  0.9900 -0.0533  0.7238
21859WAT     H189241   6.983   0.693   2.304  1.1773 -1.8403  0.4826
21859WAT     H289242   7.117   0.681   2.372  0.9445 -1.9286  0.9322
21859WAT    EPW89243   7.031   0.687   2.376  1.0087 -0.5364  0.7195
21860WAT      O89244  -4.372   7.178   3.207 -0.0673  0.3654 -0.1735
21860WAT     H189245  -4.369   7.094   3.161 -3.1661  0.4830 -0.8032
21860WAT     H289246  -4.459   7.213   3.188  0.0340  2.3846  2.4463
21860WAT    EPW89247  -4.383   7.172   3.198 -0.4628  0.6471  0.0889
21861WAT      O89248   3.359   7.154   3.900  0.1490 -0.0210  0.5050
21861WAT     H189249   3.338   7.151   3.807  1.2294 -1.8359  0.2690
21861WAT     H289250   3.287   7.106   3.941  0.7848 -1.1569  0.3335
21861WAT    EPW89251   3.346   7.147   3.893  0.3754 -0.4103  0.4513
21862WAT      O89252  -2.823   7.835   1.436  0.3293  0.1041  0.6394
21862WAT     H189253  -2.739   7.802   1.406 -1.1163 -3.6505  0.1841
21862WAT     H289254  -2.860   7.879   1.360  1.1381  0.2275  0.3098
21862WAT    EPW89255  -2.817   7.837   1.422  0.2455 -0.3750  0.5358
21863WAT      O89256  -0.933   1.747   7.995  0.4876 -0.1561 -0.0458
21863WAT     H189257  -0.947   1.842   7.985 -0.7215 -0.4700 -1.7209
21863WAT     H289258  -0.990   1.708   7.929  0.7495 -2.0848  0.8281
21863WAT    EPW89259  -0.942   1.755   7.985  0.3627 -0.4519 -0.1516
21864WAT      O89260  -0.548   4.889   3.987 -0.4133 -0.2063  0.4182
21864WAT     H189261  -0.592   4.900   4.071 -0.5149 -0.4665  0.4022
21864WAT     H289262  -0.547   4.794   3.974  1.6963 -0.3416  1.2391
21864WAT    EPW89263  -0.554   4.878   3.997 -0.1485 -0.2584  0.5244
21865WAT      O89264   3.156   9.992   2.116  0.1567  0.3952  0.2919
21865WAT     H189265   3.227  10.056   2.113  0.4542  0.1301  1.5541
21865WAT     H289266   3.104  10.012   2.038  2.1739 -0.0927 -1.2789
21865WAT    EPW89267   3.158  10.003   2.105  0.4621  0.2956  0.2512
21866WAT      O89268  -3.392   2.182   6.896 -0.1589  0.0702 -0.3965
21866WAT     H189269  -3.333   2.189   6.820  2.2370  0.1230  1.3453
21866WAT     H289270  -3.407   2.272   6.923 -0.2459  0.0154 -0.2633
21866WAT    EPW89271  -3.386   2.195   6.890  0.1456  0.0700 -0.1493
21867WAT      O89272   1.211   2.202   6.298  0.1749  0.6839  0.0585
21867WAT     H189273   1.304   2.227   6.292  0.5532  0.0060  2.3279
21867WAT     H289274   1.164   2.286   6.298  1.1902  1.4326  3.9362
21867WAT    EPW89275   1.217   2.216   6.297  0.3588  0.6932  0.8693
21868WAT      O89276   6.507   6.508   2.458  0.2476  0.0232 -0.9018
21868WAT     H189277   6.599   6.518   2.484  0.1907 -0.7430 -0.3750
21868WAT     H289278   6.506   6.431   2.400  0.0221  0.3767 -1.3746
21868WAT    EPW89279   6.519   6.499   2.454  0.2103 -0.0310 -0.8948
21869WAT      O89280   3.780   2.350   6.576 -0.5463  0.7084 -0.3475
21869WAT     H189281   3.785   2.277   6.637  0.1904  1.7214  0.8441
21869WAT     H289282   3.694   2.388   6.590  0.1798  1.8660  1.2040
21869WAT    EPW89283   3.769   2.346   6.586 -0.3533  0.9947  0.0143
21870WAT      O89284  -0.507   9.101   5.765  0.1609 -0.0521 -0.4956
21870WAT     H189285  -0.503   9.038   5.836 -0.6396 -0.2538 -0.6140
21870WAT     H289286  -0.534   9.050   5.689  1.8763 -0.0133 -1.1808
21870WAT    EPW89287  -0.510   9.086   5.764  0.2816 -0.0734 -0.6015
21871WAT      O89288  -3.935   4.505   3.968 -0.6712  0.3984  0.7339
21871WAT     H189289  -3.915   4.514   4.062  0.8649 -0.4282  0.5255
21871WAT     H289290  -3.882   4.430   3.940 -0.3172  1.2562 -1.0152
21871WAT    EPW89291  -3.925   4.496   3.977 -0.4219  0.4025  0.4759
21872WAT      O89292  -4.831   6.768   4.497 -0.6787  0.2210  0.3622
21872WAT     H189293  -4.736   6.768   4.510 -0.7613 -0.1107  1.0071
21872WAT     H289294  -4.843   6.806   4.410  0.1041 -0.6158 -0.1339
21872WAT    EPW89295  -4.820   6.773   4.487 -0.5865  0.0670  0.3817
21873WAT      O89296   3.291   9.112   5.171  1.1302  0.4816 -0.4494
21873WAT     H189297   3.242   9.036   5.202  1.4292  0.0627 -0.9994
21873WAT     H289298   3.225   9.180   5.160  0.9563  0.5363  0.7303
21873WAT    EPW89299   3.276   9.111   5.174  1.1468  0.4334 -0.3664
21874WAT      O89300   0.226   1.508   8.746  0.6966  0.6319  0.7420
21874WAT     H189301   0.185   1.541   8.826  0.6526 -0.2053  1.0852
21874WAT     H289302   0.169   1.538   8.676  0.2263  0.6069  1.1064
21874WAT    EPW89303   0.213   1.516   8.747  0.6288  0.5181  0.8354
21875WAT      O89304   7.536   6.500   1.022 -0.3423 -0.6031 -0.3290
21875WAT     H189305   7.543   6.568   0.955  0.5436 -1.1372 -0.7909
21875WAT     H289306   7.456   6.451   0.998 -1.1283  0.4046  0.1546
21875WAT    EPW89307   7.526   6.502   1.010 -0.3290 -0.5407 -0.3262
21876WAT      O89308   6.533   3.099   3.279  0.3966  0.4253 -0.2826
21876WAT     H189309   6.520   3.091   3.374  1.5413 -0.7945 -0.1931
21876WAT     H289310   6.558   3.190   3.266 -1.4327  1.0570  0.3483
21876WAT    EPW89311   6.534   3.110   3.290  0.3064  0.3477 -0.1875
21877WAT      O89312   1.996   5.287   5.705  0.0449  0.1538 -0.4362
21877WAT     H189313   1.950   5.232   5.768 -0.1665  0.6619 -0.1484
21877WAT     H289314   1.927   5.332   5.657  0.1147 -1.5847 -2.2948
21877WAT    EPW89315   1.981   5.285   5.707  0.0262 -0.0083 -0.6435
21878WAT      O89316   6.115   2.059   5.889  0.3585 -0.3779 -0.5141
21878WAT     H189317   6.060   2.113   5.832  0.5176 -0.5836 -0.8666
21878WAT     H289318   6.147   2.120   5.956  0.7496  0.0322 -1.0602
21878WAT    EPW89319   6.112   2.074   5.890  0.4311 -0.3510 -0.6325
21879WAT      O89320   2.121   8.874   8.200  0.4460 -0.2302  0.5872
21879WAT     H189321   2.106   8.839   8.112 -2.3335  0.2120  0.7834
21879WAT     H289322   2.158   8.961   8.185 -3.1639  1.3278 -0.4399
21879WAT    EPW89323   2.124   8.881   8.186 -0.3968  0.0339  0.4778
21880WAT      O89324   1.938   9.683   1.533  0.1237 -0.7794  0.2892
21880WAT     H189325   1.904   9.618   1.471 -2.2369  1.6555 -1.1690
21880WAT     H289326   2.000   9.734   1.482 -2.1691  1.5339 -0.4281
21880WAT    EPW89327   1.941   9.681   1.518 -0.4900 -0.1535  0.0023
21881WAT      O89328   1.855   1.380   3.262 -0.1971  0.3787  0.6452
21881WAT     H189329   1.860   1.307   3.323 -3.4871 -1.2554 -0.7733
21881WAT     H289330   1.775   1.426   3.286 -0.0602  1.3746 -0.6666
21881WAT    EPW89331   1.845   1.376   3.273 -0.6130  0.2946  0.2850
21882WAT      O89332   2.011   5.017   8.677  0.3558 -0.3436  0.0346
21882WAT     H189333   2.092   5.050   8.717 -0.7623 -0.7710  2.8830
21882WAT     H289334   2.036   4.998   8.586  2.5399  2.6530 -0.1388
21882WAT    EPW89335   2.025   5.019   8.670  0.4964 -0.0048  0.3877
21883WAT      O89336  -2.581   7.187   7.456  0.2559 -1.1524  0.7984
21883WAT     H189337  -2.507   7.158   7.402 -1.6078 -4.0834 -0.4679
21883WAT     H289338  -2.567   7.145   7.540  0.4219 -1.1133  0.7894
21883WAT    EPW89339  -2.570   7.177   7.460  0.0319 -1.5337  0.6301
21884WAT      O89340   1.489   8.506   2.370  0.1348  0.4222 -0.2462
21884WAT     H189341   1.525   8.560   2.300 -1.6323  0.8506 -0.8872
21884WAT     H289342   1.497   8.416   2.338 -2.3996  0.6959 -1.9766
21884WAT    EPW89343   1.495   8.501   2.357 -0.4325  0.5150 -0.5590
21885WAT      O89344   4.853   1.474   7.027  0.2035  0.1122  0.6859
21885WAT     H189345   4.772   1.502   6.985  0.6175  0.3037 -0.0042
21885WAT     H289346   4.846   1.507   7.117 -0.0235  1.0555  0.3351
21885WAT    EPW89347   4.842   1.482   7.034  0.2279  0.2618  0.5486
21886WAT      O89348   0.896   7.554   4.283 -0.8035 -0.4101  0.6699
21886WAT     H189349   0.803   7.560   4.305 -0.6490 -0.3236  1.3377
21886WAT     H289350   0.907   7.613   4.209 -1.6076 -1.7283 -0.5505
21886WAT    EPW89351   0.885   7.563   4.276 -0.8892 -0.5724  0.5970
21887WAT      O89352   1.275   2.715   1.530  0.3614 -0.1330  0.6511
21887WAT     H189353   1.237   2.802   1.522 -3.1194 -1.5129  0.4220
21887WAT     H289354   1.280   2.700   1.625 -0.0491 -0.0902  0.6796
21887WAT    EPW89355   1.271   2.724   1.542 -0.1518 -0.3095  0.6247
21888WAT      O89356  -5.990   4.813   8.296  0.5630  0.5349  0.3365
21888WAT     H189357  -6.080   4.786   8.312  0.5770  1.3698  2.0792
21888WAT     H289358  -5.945   4.798   8.379  1.3228  2.7770  0.4220
21888WAT    EPW89359  -5.996   4.808   8.309  0.6649  0.9406  0.5774
21889WAT      O89360   8.138   1.845   3.084 -1.3385 -0.1450  0.2128
21889WAT     H189361   8.218   1.875   3.128 -1.4347  1.7647 -0.8268
21889WAT     H289362   8.124   1.756   3.119  2.1356 -1.2495 -0.7851
21889WAT    EPW89363   8.147   1.837   3.095 -0.8926 -0.0387 -0.0559
21890WAT      O89364  -5.105   7.324   4.823 -0.4233 -0.0864 -0.5664
21890WAT     H189365  -5.171   7.259   4.801  0.5452 -1.0895 -0.5851
21890WAT     H289366  -5.025   7.274   4.838  0.0801  0.9951  0.5707
21890WAT    EPW89367  -5.103   7.309   4.822 -0.2294 -0.0761 -0.4187
21891WAT      O89368  -2.467   7.332   2.667 -0.5928 -0.0563  0.5633
21891WAT     H189369  -2.489   7.303   2.578 -1.5792 -2.0487  1.3911
21891WAT     H289370  -2.477   7.427   2.664 -1.6254 -0.1703 -1.1919
21891WAT    EPW89371  -2.471   7.341   2.655 -0.8591 -0.3340  0.4410
21892WAT      O89372   0.616   7.961   6.423 -0.2964 -0.3706 -0.9486
21892WAT     H189373   0.605   7.987   6.331 -0.6188  1.3356 -0.4521
21892WAT     H289374   0.679   8.024   6.458  0.4279 -1.4882 -0.1709
21892WAT    EPW89375   0.623   7.972   6.415 -0.2434 -0.2928 -0.7806
21893WAT      O89376  -1.320   9.688   5.091 -0.2797  0.3384 -0.7073
21893WAT     H189377  -1.407   9.713   5.059  0.2463  1.6295 -1.2322
21893WAT     H289378  -1.272   9.662   5.012 -0.4474 -1.2926 -0.3057
21893WAT    EPW89379  -1.325   9.688   5.076 -0.2325  0.2937 -0.7236
21894WAT      O89380   6.268   7.243   0.236 -0.6893 -0.0011 -0.0806
21894WAT     H189381   6.219   7.317   0.271  0.5665  0.6647  0.3695
21894WAT     H289382   6.333   7.223   0.305 -0.6842 -1.1979 -0.4092
21894WAT    EPW89383   6.270   7.250   0.250 -0.5231 -0.0710 -0.0646
21895WAT      O89384   0.293   3.679   1.134 -0.3924  0.1657 -0.7229
21895WAT     H189385   0.352   3.739   1.178 -1.6493  1.7906 -1.1553
21895WAT     H289386   0.330   3.667   1.046  1.4249 -2.0777  0.2407
21895WAT    EPW89387   0.305   3.685   1.128 -0.3185  0.0842 -0.6529
21896WAT      O89388   6.958   5.664   1.748  0.1644  0.3446 -0.2187
21896WAT     H189389   6.968   5.698   1.837  0.1451  0.2909 -0.1962
21896WAT     H289390   6.870   5.627   1.745  1.1024 -2.1455  0.5967
21896WAT    EPW89391   6.948   5.663   1.759  0.2856  0.0091 -0.1081
21897WAT      O89392   0.224   4.152   4.248  0.1715  0.0518 -0.4168
21897WAT     H189393   0.314   4.171   4.276 -0.1688  0.6426  0.3167
21897WAT     H289394   0.172   4.223   4.286 -0.6732 -0.5540 -0.4195
21897WAT    EPW89395   0.229   4.164   4.257  0.0152  0.0501 -0.3204
21898WAT      O89396  -1.810   2.265   4.679 -0.8691 -0.1920  0.1674
21898WAT     H189397  -1.902   2.260   4.653 -1.2339  2.1635  0.7537
21898WAT     H289398  -1.813   2.283   4.773  0.2341 -1.2946  0.4317
21898WAT    EPW89399  -1.822   2.267   4.688 -0.7716 -0.0268  0.2794
21899WAT      O89400   3.820   1.175   5.454  0.0733 -0.4001  0.1881
21899WAT     H189401   3.877   1.249   5.477  0.9931  0.7862 -4.7594
21899WAT     H289402   3.880   1.105   5.429 -0.7752 -1.5081  1.1427
21899WAT    EPW89403   3.835   1.175   5.454  0.0826 -0.3898 -0.3386
21900WAT      O89404  -1.765   5.080   7.697  0.2654 -0.2770 -0.0248
21900WAT     H189405  -1.764   5.072   7.602 -1.0982 -0.3779 -0.0491
21900WAT     H289406  -1.673   5.074   7.723  0.4690 -3.3730 -1.0784
21900WAT    EPW89407  -1.753   5.079   7.688  0.1124 -0.6986 -0.1669
21901WAT      O89408   1.648   8.931   5.011  0.4294 -0.0460 -0.0334
21901WAT     H189409   1.700   9.010   4.995  2.3259 -1.5363 -1.6847
21901WAT     H289410   1.702   8.877   5.067 -1.0574 -0.0505  1.4839
21901WAT    EPW89411   1.662   8.934   5.016  0.4835 -0.2432 -0.0510
21902WAT      O89412   1.904   5.859   7.158  0.2772  0.3234 -0.2544
21902WAT     H189413   1.935   5.881   7.070  1.3615  2.6419  0.6134
21902WAT     H289414   1.810   5.849   7.148  0.3754  0.5765 -1.6788
21902WAT    EPW89415   1.896   5.861   7.145  0.4331  0.6628 -0.3276
21903WAT      O89416   7.219   5.649   2.583 -0.0729 -0.0532  0.1169
21903WAT     H189417   7.210   5.698   2.664 -0.1344 -0.5720  0.4259
21903WAT     H289418   7.287   5.584   2.601  0.1150  0.0148 -0.3361
21903WAT    EPW89419   7.227   5.647   2.596 -0.0563 -0.1125  0.0980
21904WAT      O89420  -0.084   0.220   8.030  0.1078 -0.3730 -0.2271
21904WAT     H189421  -0.120   0.275   7.961  0.9064 -1.6511 -1.7168
21904WAT     H289422  -0.122   0.133   8.016 -0.0163 -0.5852  1.1944
21904WAT    EPW89423  -0.094   0.216   8.019  0.1967 -0.5695 -0.2360
21905WAT      O89424  -0.312   7.288   7.301 -0.3354  0.0904  1.0676
21905WAT     H189425  -0.344   7.261   7.215  0.9409 -2.6904  1.3599
21905WAT     H289426  -0.379   7.258   7.362  0.6261 -1.7314  1.3084
21905WAT    EPW89427  -0.325   7.281   7.297 -0.0403 -0.5169  1.1380
21906WAT      O89428  -1.000   5.123   0.207 -0.1769  0.4029  0.5705
21906WAT     H189429  -1.088   5.090   0.193  0.1885  0.7637 -4.2679
21906WAT     H289430  -1.012   5.214   0.235 -1.3142  0.2066  0.7434
21906WAT    EPW89431  -1.013   5.131   0.209 -0.2787  0.4246 -0.0449
21907WAT      O89432   0.854   9.582   1.900  0.6314  0.2876 -0.3270
21907WAT     H189433   0.820   9.629   1.824 -0.3618  0.4160  0.1738
21907WAT     H289434   0.907   9.646   1.947  0.2127  0.5810 -0.2482
21907WAT    EPW89435   0.856   9.596   1.896  0.4452  0.3433 -0.2505
21908WAT      O89436   3.136   4.885   0.542  0.1988 -0.7344 -0.9228
21908WAT     H189437   3.050   4.914   0.572 -0.0685 -2.4868  0.1386
21908WAT     H289438   3.194   4.961   0.558 -0.4514 -0.6870  1.7247
21908WAT    EPW89439   3.133   4.899   0.548  0.0777 -0.9594 -0.4336
21909WAT      O89440  -4.665   7.637   5.326 -0.3310 -0.5280 -0.7276
21909WAT     H189441  -4.707   7.632   5.411 -0.5685 -0.1026 -0.8173
21909WAT     H289442  -4.678   7.727   5.298  0.3948 -0.4624 -0.8849
21909WAT    EPW89443  -4.672   7.648   5.333 -0.2668 -0.4635 -0.7601
21910WAT      O89444   7.003   1.352   4.102  0.7601 -0.4236 -0.4871
21910WAT     H189445   7.093   1.330   4.080  1.6432  0.2143  2.1093
21910WAT     H289446   6.970   1.397   4.024  3.0862  0.3842 -1.0998
21910WAT    EPW89447   7.010   1.355   4.089  1.1835 -0.2329 -0.2253
21911WAT      O89448   0.267   9.791   6.878 -1.0146 -0.2086  0.1663
21911WAT     H189449   0.232   9.863   6.824 -1.0420 -0.6280 -0.3926
21911WAT     H289450   0.205   9.783   6.950  0.2802  1.9263  1.6128
21911WAT    EPW89451   0.254   9.799   6.880 -0.8474  0.0181  0.2835
21912WAT      O89452   3.480   2.400   7.579 -0.3197  0.9108  0.4588
21912WAT     H189453   3.443   2.390   7.666 -1.5366  0.3582 -0.0942
21912WAT     H289454   3.417   2.454   7.532  0.0857  0.8163 -0.2144
21912WAT    EPW89455   3.467   2.406   7.584 -0.4268  0.8255  0.2971
21913WAT      O89456  -1.423   3.578   6.024 -0.4414  0.1948  0.5651
21913WAT     H189457  -1.431   3.628   5.943 -0.1267 -0.3644  0.1799
21913WAT     H289458  -1.343   3.526   6.012 -1.3134 -1.1777  0.5193
21913WAT    EPW89459  -1.413   3.578   6.011 -0.5149 -0.0600  0.5083
21914WAT      O89460  -0.482   6.568   8.056  0.1365  0.0652 -0.6233
21914WAT     H189461  -0.454   6.495   8.001  0.5451 -0.5852  0.4224
21914WAT     H289462  -0.564   6.539   8.095  0.8988 -0.3339  0.7168
21914WAT    EPW89463  -0.489   6.555   8.054  0.2910 -0.0730 -0.3085
21915WAT      O89464   3.543   9.066   6.942  0.1308 -0.4540  0.9275
21915WAT     H189465   3.611   9.000   6.958 -0.0286 -0.6584  0.7670
21915WAT     H289466   3.461   9.024   6.967  0.2373  0.4688  3.0282
21915WAT    EPW89467   3.541   9.052   6.947  0.1239 -0.3595  1.1837
21916WAT      O89468   1.014   2.400   3.828  0.0496  0.0740 -0.4675
21916WAT     H189469   1.016   2.380   3.921  0.2097  0.6075 -0.3493
21916WAT     H289470   1.080   2.469   3.817  0.3956 -0.3453 -1.0643
21916WAT    EPW89471   1.023   2.407   3.839  0.1164  0.0890 -0.5305
21917WAT      O89472  -3.645   7.780   3.226 -0.0778  0.5103  0.3502
21917WAT     H189473  -3.716   7.775   3.290 -0.8081  1.8925 -0.2957
21917WAT     H289474  -3.653   7.700   3.174 -2.2471  1.3320 -0.7445
21917WAT    EPW89475  -3.656   7.769   3.227 -0.4603  0.8013  0.1206
21918WAT      O89476   1.059   3.370   6.680 -0.1102 -0.0381 -0.5749
21918WAT     H189477   1.062   3.346   6.587  1.0043 -0.2280 -0.5088
21918WAT     H289478   0.997   3.442   6.684 -1.2054 -0.9110 -1.2531
21918WAT    EPW89479   1.051   3.376   6.668 -0.1077 -0.1782 -0.6557
21919WAT      O89480   0.128   6.086   0.789 -0.4854  0.0541 -0.1330
21919WAT     H189481   0.167   6.112   0.873 -0.9273  2.7951 -0.6689
21919WAT     H289482   0.164   5.999   0.772  0.5909 -0.0663  2.2921
21919WAT    EPW89483   0.138   6.078   0.798 -0.4017  0.3996  0.1162
21920WAT      O89484   7.759   4.894   0.219  0.0900  0.0806  0.4701
21920WAT     H189485   7.684   4.929   0.268  0.2033 -0.6634  1.1938
21920WAT     H289486   7.724   4.819   0.171  0.0137  0.7200 -0.4987
21920WAT    EPW89487   7.745   4.889   0.219  0.0949  0.0668  0.4378
21921WAT      O89488  -1.911   4.101   3.989 -0.1922 -0.5955 -1.4340
21921WAT     H189489  -1.950   4.159   3.924  1.7114  2.6224  0.0050
21921WAT     H289490  -1.943   4.134   4.073  0.7548 -1.8258 -0.5479
21921WAT    EPW89491  -1.920   4.113   3.992  0.1838 -0.3335 -1.1272
21922WAT      O89492   3.690   7.245   1.372 -0.7284 -0.2045 -0.0198
21922WAT     H189493   3.624   7.210   1.431  0.3864 -1.1694  0.6812
21922WAT     H289494   3.652   7.327   1.340 -2.1362 -0.5986  0.5696
21922WAT    EPW89495   3.676   7.251   1.375 -0.7670 -0.3836  0.1504
21923WAT      O89496   4.511   9.452   2.087  0.0866 -0.5184  0.5591
21923WAT     H189497   4.554   9.440   2.002  2.9313  1.2136  1.6282
21923WAT     H289498   4.501   9.363   2.120  0.0937 -1.1555 -1.0305
21923WAT    EPW89499   4.515   9.439   2.080  0.4628 -0.3738  0.4904
21924WAT      O89500   0.977   8.392   5.072  0.1993 -0.3786  0.3828
21924WAT     H189501   1.055   8.448   5.073 -1.5511  2.4105 -1.8360
21924WAT     H289502   1.010   8.305   5.095  3.5817  1.0024  1.4565
21924WAT    EPW89503   0.992   8.388   5.075  0.4146  0.1717  0.2317
21925WAT      O89504  -3.305   6.166   5.665  0.3921 -0.2644 -0.3501
21925WAT     H189505  -3.302   6.198   5.755  0.5928 -1.1003 -0.0489
21925WAT     H289506  -3.327   6.243   5.613  1.2295  0.4406  0.3036
21925WAT    EPW89507  -3.308   6.180   5.670  0.5291 -0.2818 -0.2241
21926WAT      O89508  -1.406   3.309   7.254  0.1633  0.5894 -0.5596
21926WAT     H189509  -1.474   3.255   7.295  0.0189  1.8765  0.9825
21926WAT     H289510  -1.328   3.294   7.308  0.4202  1.0774 -0.7908
21926WAT    EPW89511  -1.405   3.300   7.266  0.1782  0.8235 -0.3867
21927WAT      O89512   4.855   3.030   1.472 -0.8104 -0.3334  0.2936
21927WAT     H189513   4.768   2.991   1.459 -0.9966  0.1301  0.1298
21927WAT     H289514   4.837   3.121   1.496 -0.5257 -1.0694  3.9469
21927WAT    EPW89515   4.841   3.037   1.474 -0.7975 -0.3693  0.7538
21928WAT      O89516   0.786   9.728   0.111  0.0826 -0.2237  0.8041
21928WAT     H189517   0.833   9.775   0.042 -0.3380  0.5506  1.0383
21928WAT     H289518   0.849   9.722   0.183  0.5412 -1.0808  0.3493
21928WAT    EPW89519   0.801   9.734   0.112  0.0876 -0.2346  0.7750
21929WAT      O89520  -2.787   0.685   8.497  0.1248 -0.0589 -0.0187
21929WAT     H189521  -2.789   0.596   8.462  1.1974 -1.2744  2.7488
21929WAT     H289522  -2.694   0.703   8.510 -0.1973  0.4018  1.8694
21929WAT    EPW89523  -2.775   0.675   8.494  0.2238 -0.1585  0.5956
21930WAT      O89524  -0.277   0.560   1.518 -0.3804 -0.0720 -0.0421
21930WAT     H189525  -0.360   0.561   1.471 -0.9739 -0.4051  0.9506
21930WAT     H289526  -0.237   0.477   1.493 -0.2119  0.2171 -0.7427
21930WAT    EPW89527  -0.283   0.549   1.509 -0.4365 -0.0778 -0.0036
21931WAT      O89528   1.331   8.423   8.799 -0.1364  0.0049 -0.0933
21931WAT     H189529   1.247   8.406   8.843 -0.1537 -0.0062 -0.1313
21931WAT     H289530   1.320   8.511   8.762 -0.6447 -0.5500 -1.3029
21931WAT    EPW89531   1.318   8.432   8.800 -0.2058 -0.0701 -0.2580
21932WAT      O89532  -5.894   8.938   7.658  0.2213 -0.3549 -0.4809
21932WAT     H189533  -5.975   8.979   7.628 -0.2243 -2.9819 -3.3426
21932WAT     H289534  -5.906   8.927   7.752 -2.4510 -0.0662 -0.7097
21932WAT    EPW89535  -5.906   8.942   7.667 -0.1900 -0.6633 -0.8886
21933WAT      O89536  -3.955   3.445   8.495 -0.2314  0.0674 -0.9790
21933WAT     H189537  -3.991   3.480   8.577  0.6115  0.7692 -0.9014
21933WAT     H289538  -4.025   3.459   8.431 -1.2799 -1.3716 -0.1988
21933WAT    EPW89539  -3.969   3.451   8.498 -0.2586 -0.0298 -0.8659
21934WAT      O89540   0.826   2.100   3.436 -0.3578  0.3437 -0.2411
21934WAT     H189541   0.773   2.170   3.398 -1.1950  0.1980  0.6158
21934WAT     H289542   0.909   2.142   3.460 -0.4815  0.8156 -0.6319
21934WAT    EPW89543   0.830   2.115   3.434 -0.4845  0.3866 -0.1796
21935WAT      O89544  -7.883   9.605   8.179 -0.7838 -0.4534  0.4426
21935WAT     H189545  -7.849   9.586   8.267  0.3061 -0.2387  0.0849
21935WAT     H289546  -7.968   9.561   8.176 -1.3801  0.4598  2.0037
21935WAT    EPW89547  -7.890   9.597   8.190 -0.7186 -0.3047  0.6013
21936WAT      O89548   5.845   0.133   3.424  0.0961  0.4847 -0.1312
21936WAT     H189549   5.838   0.171   3.336  0.8144 -0.8724 -0.8018
21936WAT     H289550   5.818   0.042   3.413  1.7288 -0.1386  0.7143
21936WAT    EPW89551   5.841   0.126   3.411  0.4060  0.2235 -0.1082
21937WAT      O89552   2.863   2.832   4.190 -0.3518  0.3273 -0.4979
21937WAT     H189553   2.800   2.880   4.137 -1.9092 -0.2229  0.7925
21937WAT     H289554   2.844   2.858   4.280  1.0538 -0.1185 -0.0406
21937WAT    EPW89555   2.852   2.842   4.195 -0.3718  0.1960 -0.2675
21938WAT      O89556   2.167   3.496   2.700 -0.5468  0.7272 -0.1441
21938WAT     H189557   2.196   3.585   2.718 -0.7383  0.6055  0.8174
21938WAT     H289558   2.160   3.492   2.604  2.1924  0.8597 -0.4173
21938WAT    EPW89559   2.170   3.507   2.690 -0.2109  0.7286 -0.0534
21939WAT      O89560  -0.333   2.450   8.960 -0.2384  0.9262  0.8858
21939WAT     H189561  -0.312   2.481   8.872  3.3008 -0.3954  1.0859
21939WAT     H289562  -0.291   2.513   9.019  2.4174 -1.0800  1.3667
21939WAT    EPW89563  -0.324   2.462   8.956  0.5787  0.4873  0.9756
21940WAT      O89564  -0.187   9.383   3.205 -0.2755 -0.5263 -0.0458
21940WAT     H189565  -0.107   9.435   3.206 -0.8325  0.6719 -3.5032
21940WAT     H289566  -0.253   9.441   3.243  0.0342 -0.6799  0.7532
21940WAT    EPW89567  -0.185   9.398   3.210 -0.3081 -0.3886 -0.3964
21941WAT      O89568   0.589   6.608   5.563 -0.0264  0.4702  0.1652
21941WAT     H189569   0.650   6.662   5.512 -0.5016 -0.4060 -1.4086
21941WAT     H289570   0.607   6.631   5.654  1.9410  0.9894 -0.3071
21941WAT    EPW89571   0.600   6.618   5.568  0.1705  0.4232 -0.1047
21942WAT      O89572  -0.564   6.065   3.565  0.0194 -0.4379 -0.6024
21942WAT     H189573  -0.470   6.082   3.557 -0.0817  0.2664 -0.3026
21942WAT     H289574  -0.586   6.018   3.484  0.6617 -0.7721 -0.5922
21942WAT    EPW89575  -0.554   6.061   3.553  0.0908 -0.3891 -0.5615
21943WAT      O89576   1.350   9.478   3.506  0.3891  1.0173  0.3695
21943WAT     H189577   1.393   9.562   3.514 -0.1370  1.2267  1.0977
21943WAT     H289578   1.335   9.467   3.412 -0.0399  1.9981  0.3103
21943WAT    EPW89579   1.353   9.487   3.495  0.2631  1.1744  0.4576
21944WAT      O89580  -2.591   9.812   4.089  1.0393 -0.4812  0.3753
21944WAT     H189581  -2.596   9.795   4.183 -3.6000 -1.3409  0.2143
21944WAT     H289582  -2.592   9.724   4.050  3.3808 -0.1487 -0.6176
21944WAT    EPW89583  -2.592   9.798   4.096  0.7364 -0.5503  0.2232
21945WAT      O89584  -2.655   4.553   8.068 -0.0564 -1.0187  0.0766
21945WAT     H189585  -2.669   4.468   8.026 -0.1211 -0.6217 -0.7343
21945WAT     H289586  -2.708   4.614   8.016  1.7652 -0.0912 -0.8019
21945WAT    EPW89587  -2.664   4.550   8.056  0.1752 -0.8438 -0.1459
21946WAT      O89588   7.958   3.379   1.235  0.0868  0.2650  0.3415
21946WAT     H189589   8.045   3.417   1.221  0.9223 -1.0079  1.7785
21946WAT     H289590   7.973   3.285   1.234 -1.0402  0.0395  1.8321
21946WAT    EPW89591   7.972   3.372   1.233  0.0482  0.0674  0.7277
21947WAT      O89592   0.681   1.224   5.316 -0.0201 -0.6658 -0.5856
21947WAT     H189593   0.640   1.306   5.287  0.4475 -0.2225 -0.0067
21947WAT     H289594   0.645   1.208   5.403  0.1323 -0.9056 -0.5649
21947WAT    EPW89595   0.671   1.232   5.324  0.0617 -0.6389 -0.5064
21948WAT      O89596  -0.720   2.491   1.352 -0.2104 -0.3535 -0.1002
21948WAT     H189597  -0.808   2.509   1.386  0.7983  2.0937  1.4287
21948WAT     H289598  -0.668   2.468   1.429  0.9116  0.1135 -0.6927
21948WAT    EPW89599  -0.725   2.490   1.366  0.0707  0.0309  0.0232
21949WAT      O89600  -0.772   7.856   6.832  0.3201 -0.1328  0.1763
21949WAT     H189601  -0.793   7.847   6.739  1.1791  3.7974 -0.5806
21949WAT     H289602  -0.680   7.882   6.834 -0.1597  1.6689  1.9423
21949WAT    EPW89603  -0.763   7.858   6.820  0.3701  0.6232  0.3092
21950WAT      O89604  -3.568   7.594   7.184 -0.0222 -0.5436 -0.2723
21950WAT     H189605  -3.558   7.661   7.252 -0.5439 -1.3189  0.5877
21950WAT     H289606  -3.546   7.640   7.103  0.0907  0.5469  0.3454
21950WAT    EPW89607  -3.564   7.609   7.183 -0.0761 -0.5021 -0.0775
21951WAT      O89608   6.796   3.855   0.351 -0.0265  0.0760  0.2056
21951WAT     H189609   6.839   3.934   0.384  0.2657 -1.0193  2.6212
21951WAT     H289610   6.742   3.887   0.278  3.2370  1.8350 -1.7134
21951WAT    EPW89611   6.795   3.870   0.346  0.4425  0.1634  0.2711
21952WAT      O89612   4.625   6.892   4.589 -0.1051  0.2944  0.6094
21952WAT     H189613   4.712   6.859   4.564 -1.0312 -1.1412 -0.9540
21952WAT     H289614   4.606   6.849   4.672  0.1335 -0.4032  0.3068
21952WAT    EPW89615   4.634   6.882   4.597 -0.1957  0.0131  0.3633
21953WAT      O89616   0.459   0.868   7.536 -0.4867 -0.3116 -0.2278
21953WAT     H189617   0.508   0.919   7.472 -1.5065 -0.2934 -1.0334
21953WAT     H289618   0.492   0.779   7.527  1.5191  0.1841  1.3964
21953WAT    EPW89619   0.469   0.863   7.527 -0.3566 -0.2438 -0.1199
21954WAT      O89620  -5.249   8.009   5.400  0.2586 -0.1958  0.1408
21954WAT     H189621  -5.201   8.064   5.337  0.0890  0.5821  0.6700
21954WAT     H289622  -5.225   8.045   5.486 -1.0437  0.0313  0.4308
21954WAT    EPW89623  -5.239   8.021   5.403  0.0646 -0.0634  0.2487
21955WAT      O89624  -1.590   5.507   8.552  0.4445 -0.4348  0.3835
21955WAT     H189625  -1.670   5.548   8.586 -1.8077 -2.2843 -2.2475
21955WAT     H289626  -1.556   5.571   8.489 -0.2592 -0.5422 -0.1160
21955WAT    EPW89627  -1.596   5.521   8.548  0.0547 -0.6931 -0.0291
21956WAT      O89628   1.127   2.898   6.081 -0.4167 -0.5406 -0.3726
21956WAT     H189629   1.073   2.967   6.119  1.5502  0.8289  0.0526
21956WAT     H289630   1.078   2.817   6.099 -1.9841  0.5614  0.5580
21956WAT    EPW89631   1.113   2.896   6.089 -0.3640 -0.2146 -0.1938
21957WAT      O89632   1.770   4.464   4.204  0.1353  0.0787  0.8626
21957WAT     H189633   1.800   4.502   4.286 -0.8130  0.6767  0.9498
21957WAT     H289634   1.844   4.413   4.172  3.1331  4.9808 -1.2418
21957WAT    EPW89635   1.784   4.462   4.210  0.4057  0.8039  0.5965
21958WAT      O89636   0.150   0.902   1.032 -0.1025 -0.1762 -0.2455
21958WAT     H189637   0.236   0.944   1.037 -0.9664  1.7584 -0.8109
21958WAT     H289638   0.163   0.829   0.971  0.6063  1.5974 -2.3607
21958WAT    EPW89639   0.163   0.898   1.025 -0.1229  0.3129 -0.5991
21959WAT      O89640  -0.307   5.062   0.151  0.0733  0.6705 -0.3009
21959WAT     H189641  -0.277   5.065   0.060  0.9218 -2.5969 -0.2674
21959WAT     H289642  -0.234   5.023   0.199 -1.8932 -1.7975  0.9199
21959WAT    EPW89643  -0.293   5.057   0.145 -0.0741 -0.0861 -0.1355
21960WAT      O89644  -3.429   9.232   8.273 -0.7953  0.0231 -0.3125
21960WAT     H189645  -3.451   9.143   8.301 -0.4859  0.4547  1.4273
21960WAT     H289646  -3.424   9.282   8.355  1.3879  1.1115 -1.0362
21960WAT    EPW89647  -3.432   9.227   8.288 -0.4665  0.2241 -0.1783
21961WAT      O89648  -5.088   9.421   6.331  0.6148  1.3882 -0.9797
21961WAT     H189649  -5.009   9.464   6.365  0.8175  0.4357 -0.2057
21961WAT     H289650  -5.115   9.363   6.402 -1.8266  2.9937 -0.4548
21961WAT    EPW89651  -5.081   9.419   6.345  0.3195  1.4744 -0.8085
21962WAT      O89652   7.332   0.559   4.573  0.0756 -0.3562  0.0384
21962WAT     H189653   7.358   0.467   4.580  1.4931  0.0434  0.3572
21962WAT     H289654   7.294   0.579   4.659  0.1423 -0.5356  0.1102
21962WAT    EPW89655   7.330   0.550   4.586  0.2713 -0.3271  0.0899
21963WAT      O89656  10.140   1.964   0.204  0.0362 -0.2915  0.1845
21963WAT     H189657  10.112   1.899   0.269 -0.8135  2.4296  2.8079
21963WAT     H289658  10.061   2.013   0.183  0.6358 -0.0751 -1.7418
21963WAT    EPW89659  10.126   1.962   0.210  0.0029  0.0959  0.2765
21964WAT      O89660  -0.198   4.116   2.800  0.8584  0.0621 -0.8025
21964WAT     H189661  -0.212   4.023   2.816 -0.6107  0.3297 -0.3651
21964WAT     H289662  -0.134   4.142   2.866  0.9682 -0.5450 -0.6592
21964WAT    EPW89663  -0.191   4.107   2.811  0.6791  0.0172 -0.7259
21965WAT      O89664  -1.808   1.199   5.972 -0.7216 -0.0485  0.0364
21965WAT     H189665  -1.755   1.149   5.910 -1.4515  1.6628 -2.0850
21965WAT     H289666  -1.769   1.286   5.972 -2.8260  0.9551 -0.7473
21965WAT    EPW89667  -1.795   1.204   5.964 -1.0954  0.3095 -0.3469
21966WAT      O89668  -0.349   0.650   6.331  0.0969  0.4069  0.9593
21966WAT     H189669  -0.402   0.671   6.254  0.6569 -0.1702  0.4105
21966WAT     H289670  -0.413   0.630   6.400 -0.4053  0.9395  0.6538
21966WAT    EPW89671  -0.364   0.650   6.330  0.1046  0.4011  0.8464
21967WAT      O89672   0.810   3.418   2.676 -0.4017  0.6475  0.1866
21967WAT     H189673   0.790   3.407   2.769 -0.6578  1.8126  0.2827
21967WAT     H289674   0.900   3.450   2.675  0.7223 -2.2449 -0.1373
21967WAT    EPW89675   0.819   3.421   2.688 -0.2872  0.4197  0.1565
21968WAT      O89676   0.483   7.308   7.349  0.3277  0.8111 -0.3536
21968WAT     H189677   0.429   7.345   7.420 -0.4409  0.6073 -0.8150
21968WAT     H289678   0.495   7.216   7.374  0.1563  0.7688 -0.4251
21968WAT    EPW89679   0.477   7.301   7.362  0.2037  0.7787 -0.4239
21969WAT      O89680   3.300   2.695   7.768  0.5670  0.2694  0.7556
21969WAT     H189681   3.288   2.610   7.808  1.7528  1.1904  3.2671
21969WAT     H289682   3.297   2.757   7.841  0.3467  2.3510 -0.9012
21969WAT    EPW89683   3.298   2.692   7.783  0.6943  0.6654  0.8683
21970WAT      O89684  -0.030   3.973   4.428 -0.1483  0.3208  0.3978
21970WAT     H189685  -0.074   3.935   4.352 -0.7200  0.3972  0.6815
21970WAT     H289686  -0.021   4.065   4.407  0.8323  0.1279 -0.1007
21970WAT    EPW89687  -0.035   3.980   4.415 -0.0944  0.3054  0.3693
21971WAT      O89688   2.663   1.178   0.298 -0.6432 -0.0252  0.0063
21971WAT     H189689   2.637   1.089   0.278  0.3066  0.4444 -4.0114
21971WAT     H289690   2.582   1.228   0.295 -0.6027  0.0667 -3.8231
21971WAT    EPW89691   2.649   1.173   0.295 -0.5126  0.0488 -1.0287
21972WAT      O89692  -5.933   5.502   6.622 -0.3718 -0.2875 -0.3160
21972WAT     H189693  -5.939   5.534   6.532 -0.4740 -2.5022 -1.1708
21972WAT     H289694  -5.840   5.484   6.635 -0.0209  1.9450  0.8238
21972WAT    EPW89695  -5.921   5.504   6.612 -0.3393 -0.2851 -0.2785
21973WAT      O89696  -2.885   7.867   8.374 -0.3675 -0.3843 -0.6397
21973WAT     H189697  -2.800   7.899   8.343  0.5845 -1.7561  0.3822
21973WAT     H289698  -2.917   7.935   8.433 -1.3060  1.3780 -3.0254
21973WAT    EPW89699  -2.878   7.880   8.377 -0.3657 -0.3328 -0.8197
21974WAT      O89700  -3.577   8.633   1.925 -0.0606 -1.1804 -0.1753
21974WAT     H189701  -3.561   8.547   1.885  0.9790 -0.1886 -2.0662
21974WAT     H289702  -3.654   8.619   1.981  1.6615 -3.9565  1.7757
21974WAT    EPW89703  -3.585   8.620   1.927  0.3036 -1.4162 -0.1674
21975WAT      O89704   0.771   5.484   5.669  0.4923  0.2250 -0.3158
21975WAT     H189705   0.800   5.461   5.757 -1.2022 -0.7296  0.0330
21975WAT     H289706   0.799   5.575   5.658 -3.0560  2.0226  3.0175
21975WAT    EPW89707   0.779   5.493   5.679 -0.1992  0.3359  0.1700
21976WAT      O89708   3.301   9.216   3.633 -0.1326  0.4292 -0.0458
21976WAT     H189709   3.266   9.135   3.597 -2.2591  1.0978  0.3827
21976WAT     H289710   3.391   9.219   3.601 -0.2177 -1.7195 -0.6697
21976WAT    EPW89711   3.308   9.206   3.624 -0.4243  0.2341 -0.0716
21977WAT      O89712  -1.392   1.585   4.938 -0.3111 -0.0066  0.0511
21977WAT     H189713  -1.328   1.593   4.868 -1.4645  0.3059 -0.9880
21977WAT     H289714  -1.437   1.503   4.920 -0.0879 -0.3292  0.8953
21977WAT    EPW89715  -1.390   1.575   4.927 -0.4338 -0.0079  0.0253
21978WAT      O89716  -0.989   2.694   4.691  0.8104  0.1960 -0.2381
21978WAT     H189717  -1.024   2.783   4.687 -0.2226 -0.2276 -0.9853
21978WAT     H289718  -1.042   2.651   4.757  0.2958 -0.2868 -0.9549
21978WAT    EPW89719  -1.000   2.700   4.699  0.6062  0.0764 -0.4313
21979WAT      O89720  -1.413   9.029   4.812 -0.3906 -0.3725 -0.1968
21979WAT     H189721  -1.412   8.949   4.864 -0.8940  0.6909  1.4995
21979WAT     H289722  -1.437   9.099   4.873  2.8782  1.5857 -0.8760
21979WAT    EPW89723  -1.416   9.028   4.827 -0.0259  0.0262 -0.0627
21980WAT      O89724  -2.008  10.151   3.247 -0.6728  0.4697  0.4183
21980WAT     H189725  -2.031  10.091   3.176 -0.5304  1.2849 -0.3242
21980WAT     H289726  -2.089  10.198   3.265 -0.4051  1.1067 -0.0272
21980WAT    EPW89727  -2.022  10.149   3.240 -0.6186  0.6614  0.2617
21981WAT      O89728  -3.631   8.432   2.801  0.0158  0.2871 -0.2292
21981WAT     H189729  -3.719   8.393   2.801  0.7058 -1.6519  3.2167
21981WAT     H289730  -3.576   8.367   2.757  0.1139  0.3133 -0.1455
21981WAT    EPW89731  -3.636   8.418   2.795  0.1197  0.0348  0.2363
21982WAT      O89732   5.858   2.974   3.986 -0.1559  0.4263 -0.8432
21982WAT     H189733   5.889   3.063   3.997  1.8939 -0.0357 -2.2244
21982WAT     H289734   5.937   2.920   3.995 -1.8497 -1.7427  4.0963
21982WAT    EPW89735   5.873   2.978   3.988 -0.1090  0.0793 -0.3738
21983WAT      O89736   1.824   4.420   0.666  0.1259 -0.5036 -0.6513
21983WAT     H189737   1.733   4.398   0.647 -0.1624 -0.9196  1.0679
21983WAT     H289738   1.831   4.514   0.648 -1.0631 -0.1379  0.6814
21983WAT    EPW89739   1.813   4.429   0.661 -0.0690 -0.5102 -0.2488
21984WAT      O89740  -0.291   9.256   5.363 -0.6104 -0.3974  0.3687
21984WAT     H189741  -0.210   9.234   5.316 -0.5183  1.2801 -0.3140
21984WAT     H289742  -0.351   9.284   5.294 -0.5822  1.8220  1.1897
21984WAT    EPW89743  -0.288   9.257   5.347 -0.5946  0.1163  0.3870
21985WAT      O89744  -2.903   1.613   8.728  0.6539  0.4449 -0.4012
21985WAT     H189745  -2.955   1.681   8.771  1.8105  1.2364 -0.2056
21985WAT     H289746  -2.912   1.537   8.784  0.2403  0.7617 -0.0263
21985WAT    EPW89747  -2.911   1.612   8.741  0.7520  0.5910 -0.3257
21986WAT      O89748  -4.862   7.771   4.673 -0.0336  0.6658  0.0421
21986WAT     H189749  -4.950   7.743   4.650  0.2938 -0.7156  0.3581
21986WAT     H289750  -4.839   7.718   4.750  2.2308 -1.3724 -1.8753
21986WAT    EPW89751  -4.871   7.760   4.680  0.3083  0.2146 -0.1690
21987WAT      O89752  -6.685   7.793   8.708 -0.2826  0.2163 -0.8987
21987WAT     H189753  -6.685   7.779   8.803  2.1777  0.6219 -0.7638
21987WAT     H289754  -6.740   7.870   8.695  0.3016  0.8707  0.3489
21987WAT    EPW89755  -6.692   7.801   8.719  0.1187  0.3560 -0.7162
21988WAT      O89756  -0.587   1.841   5.030 -0.6280 -0.3720  0.5687
21988WAT     H189757  -0.520   1.847   5.099 -1.9403 -1.4193  1.9720
21988WAT     H289758  -0.639   1.920   5.041  0.4103  0.5378 -0.6441
21988WAT    EPW89759  -0.585   1.853   5.040 -0.6641 -0.3901  0.5939
21989WAT      O89760  -7.459   9.444   7.231 -0.3518  0.1128  0.0167
21989WAT     H189761  -7.524   9.424   7.164 -0.6591  1.6299 -0.1655
21989WAT     H289762  -7.375   9.421   7.190 -0.5954  0.3626 -0.6390
21989WAT    EPW89763  -7.456   9.438   7.217 -0.4246  0.3457 -0.0939
21990WAT      O89764   5.194   1.104   6.203 -0.1218  0.1692  0.0747
21990WAT     H189765   5.148   1.021   6.208  1.0745 -0.4532  2.5010
21990WAT     H289766   5.250   1.096   6.126 -3.0336  0.4968 -2.2428
21990WAT    EPW89767   5.195   1.092   6.194 -0.3481  0.1303  0.0889
21991WAT      O89768   6.116   6.174   0.706 -0.3903  0.2764 -0.0889
21991WAT     H189769   6.115   6.250   0.764 -0.9532 -0.8600  1.4386
21991WAT     H289770   6.126   6.099   0.764 -1.6385 -0.9649 -1.3912
21991WAT    EPW89771   6.117   6.174   0.721 -0.6292 -0.0372 -0.0592
21992WAT      O89772   8.392   2.373   2.100  0.2495 -0.3637  0.4068
21992WAT     H189773   8.460   2.421   2.052  1.0588 -1.9115 -0.0735
21992WAT     H289774   8.419   2.377   2.191  1.4192 -1.5533  0.1476
21992WAT    EPW89775   8.404   2.379   2.106  0.5107 -0.7248  0.3092
21993WAT      O89776   0.261   7.425   7.210  0.2877  0.1765  0.4421
21993WAT     H189777   0.262   7.369   7.133  0.2749  1.6524 -0.6671
21993WAT     H289778   0.307   7.374   7.277  1.6951 -0.5039 -0.9848
21993WAT    EPW89779   0.267   7.410   7.209  0.4716  0.2816  0.1075
21994WAT      O89780   1.240   7.644   1.734  0.9745 -0.7792 -0.1898
21994WAT     H189781   1.324   7.687   1.750 -0.0966  1.8937 -1.0144
21994WAT     H289782   1.248   7.558   1.775  2.9895  0.5508  2.5521
21994WAT    EPW89783   1.252   7.639   1.741  1.0990 -0.2513  0.0631
21995WAT      O89784   3.090   1.784   4.685  0.4280 -0.1263 -0.0739
21995WAT     H189785   3.166   1.775   4.742  0.4746 -0.1068 -0.1342
21995WAT     H289786   3.026   1.723   4.722  0.1088  0.5884  0.5759
21995WAT    EPW89787   3.091   1.775   4.698  0.3921 -0.0294  0.0038
21996WAT      O89788   0.221   4.697   5.152 -0.1878 -0.1072 -0.3682
21996WAT     H189789   0.181   4.693   5.239  1.1784 -0.2423  0.2693
21996WAT     H289790   0.195   4.783   5.119  0.4435  0.5487  0.7714
21996WAT    EPW89791   0.212   4.708   5.159  0.0756 -0.0386 -0.1338
21997WAT      O89792  -4.852  10.183   6.383 -0.6092  0.3051 -0.0767
21997WAT     H189793  -4.878  10.092   6.373 -2.0687  0.7906 -0.9661
21997WAT     H289794  -4.804  10.185   6.466 -2.1733 -0.9462  0.9336
21997WAT    EPW89795  -4.849  10.172   6.393 -1.0080  0.2041 -0.0608
21998WAT      O89796   6.452   8.147   0.663  0.0609 -0.2279 -0.1348
21998WAT     H189797   6.472   8.151   0.756 -0.0850 -1.4841 -0.0284
21998WAT     H289798   6.513   8.208   0.622 -0.2770  0.7922  0.8345
21998WAT    EPW89799   6.463   8.156   0.670 -0.0026 -0.2594  0.0071
21999WAT      O89800  -2.115   8.253   0.442 -0.1778 -0.5432 -0.1591
21999WAT     H189801  -2.184   8.205   0.488 -1.0028 -1.0240 -1.7977
21999WAT     H289802  -2.066   8.185   0.395 -0.5707  0.0572 -1.4990
21999WAT    EPW89803  -2.118   8.238   0.442 -0.3384 -0.5274 -0.5519
22000WAT      O89804  -0.292   8.345   6.172 -0.2872  0.4927  0.1961
22000WAT     H189805  -0.341   8.266   6.195  0.2388  0.0691 -0.0994
22000WAT     H289806  -0.275   8.388   6.256  0.2850 -0.2330  0.4601
22000WAT    EPW89807  -0.296   8.340   6.186 -0.1424  0.3414  0.1919
22001WAT      O89808   4.455   0.361   1.054  0.5120 -0.1436  0.1543
22001WAT     H189809   4.494   0.333   0.971 -1.4035 -0.4908 -0.6706
22001WAT     H289810   4.361   0.363   1.037  0.2686  3.3693  1.2289
22001WAT    EPW89811   4.448   0.358   1.041  0.2275  0.2739  0.1872
22002WAT      O89812   2.043   4.700   7.058  0.4048 -0.6372 -0.0186
22002WAT     H189813   2.124   4.725   7.101  0.3968 -1.1893  0.3195
22002WAT     H289814   2.058   4.611   7.027  0.9823  0.2543 -2.5490
22002WAT    EPW89815   2.056   4.691   7.059  0.4799 -0.5922 -0.3078
22003WAT      O89816  -3.958   0.810   6.125  0.1223 -0.1519 -0.0816
22003WAT     H189817  -4.033   0.805   6.064 -0.0137  1.5301 -0.1179
22003WAT     H289818  -3.882   0.817   6.068  0.1951 -0.6246 -0.0451
22003WAT    EPW89819  -3.958   0.811   6.109  0.1138  0.0076 -0.0815
22004WAT      O89820   3.198   2.146   0.329  0.0136 -0.4010 -0.4093
22004WAT     H189821   3.162   2.145   0.418  3.5235 -0.8263  1.1614
22004WAT     H289822   3.186   2.236   0.299 -2.9919 -0.7021 -0.3986
22004WAT    EPW89823   3.192   2.158   0.337  0.0801 -0.4967 -0.2007
22005WAT      O89824  -6.384   3.872   8.745  0.1382 -0.4045 -0.1369
22005WAT     H189825  -6.300   3.827   8.751  0.6559  0.3545 -1.3174
22005WAT     H289826  -6.416   3.851   8.657 -2.0196 -2.5319  1.0505
22005WAT    EPW89827  -6.377   3.863   8.734 -0.0782 -0.5851 -0.1359
22006WAT      O89828  -2.907   0.754   8.884  0.1261 -0.2268 -0.1666
22006WAT     H189829  -2.818   0.734   8.854  0.3824 -1.4676  1.3080
22006WAT     H289830  -2.964   0.726   8.813  0.6742 -3.4801  0.5216
22006WAT    EPW89831  -2.902   0.748   8.871  0.2322 -0.8196  0.1183
22007WAT      O89832  -2.876   2.767   8.670 -0.2465 -0.1203  0.4227
22007WAT     H189833  -2.954   2.795   8.622  0.1992 -0.8529 -0.7754
22007WAT     H289834  -2.883   2.672   8.674  0.6863 -0.2147  0.1085
22007WAT    EPW89835  -2.887   2.758   8.664 -0.0647 -0.2294  0.2236
22008WAT      O89836  -3.053   9.259   8.502  0.2401  0.5273  0.2242
22008WAT     H189837  -3.036   9.323   8.433 -0.6707  1.4675  0.8439
22008WAT     H289838  -3.080   9.180   8.455  0.2788  0.9524 -0.5228
22008WAT    EPW89839  -3.055   9.257   8.487  0.1251  0.7071  0.2074
22009WAT      O89840  -2.204   3.457   7.881 -0.1917 -0.0699 -0.1767
22009WAT     H189841  -2.152   3.537   7.873 -0.1235 -0.1069 -0.1072
22009WAT     H289842  -2.277   3.468   7.820  0.2339 -0.2819 -0.7254
22009WAT    EPW89843  -2.207   3.469   7.872 -0.1265 -0.1028 -0.2398
22010WAT      O89844  -2.005   4.659   7.685  0.3593  0.0293  0.6764
22010WAT     H189845  -2.091   4.643   7.724  0.8948  1.1973  2.4750
22010WAT     H289846  -1.943   4.620   7.747  1.2112  1.1275  0.5523
22010WAT    EPW89847  -2.008   4.652   7.698  0.5423  0.3281  0.8972
22011WAT      O89848  -0.179   1.713   6.639 -0.0969  0.1777  0.2975
22011WAT     H189849  -0.125   1.776   6.592 -0.6578  0.6561  0.2813
22011WAT     H289850  -0.251   1.693   6.578 -1.5273  1.7467  1.3685
22011WAT    EPW89851  -0.182   1.718   6.625 -0.3596  0.4477  0.4368
22012WAT      O89852   3.161   3.901   0.956 -0.3131 -0.2621 -0.8878
22012WAT     H189853   3.073   3.864   0.953 -1.5711  2.4783 -1.6884
22012WAT     H289854   3.151   3.983   1.005  1.7618  0.1700 -1.0809
22012WAT    EPW89855   3.148   3.907   0.962 -0.2054  0.1564 -1.0189
22013WAT      O89856  -4.148   2.253   6.497 -0.0043  0.2984  0.1223
22013WAT     H189857  -4.156   2.316   6.426 -1.5153  2.6272  2.1854
22013WAT     H289858  -4.210   2.183   6.475 -1.3485  1.5832 -0.3255
22013WAT    EPW89859  -4.158   2.252   6.485 -0.3810  0.7750  0.3355
22014WAT      O89860  -5.230   5.910   7.964  0.4263  0.0717  0.5246
22014WAT     H189861  -5.289   5.839   7.937 -1.4083  0.9898  1.8861
22014WAT     H289862  -5.280   5.958   8.031  2.3896  1.4693  1.0596
22014WAT    EPW89863  -5.245   5.907   7.969  0.4432  0.3769  0.7746
22015WAT      O89864  -2.361   7.614   3.627 -0.4039 -0.5776 -0.6626
22015WAT     H189865  -2.299   7.579   3.563 -0.3458 -0.5154 -0.6398
22015WAT     H289866  -2.392   7.695   3.589  1.0169  0.4253  0.2098
22015WAT    EPW89867  -2.357   7.620   3.614 -0.2089 -0.4370 -0.5445
22016WAT      O89868  -4.445   6.272   8.190  0.4030 -0.1399  0.3081
22016WAT     H189869  -4.354   6.294   8.171  1.2325 -2.6942  0.9023
22016WAT     H289870  -4.482   6.246   8.106  1.1631 -1.9864  0.5040
22016WAT    EPW89871  -4.438   6.271   8.177  0.6125 -0.7203  0.4125
22017WAT      O89872   1.034   6.089   7.557  0.3357 -0.3383  0.0439
22017WAT     H189873   1.029   6.008   7.607  0.7459  0.0593  0.7365
22017WAT     H289874   1.027   6.158   7.622  1.1998  0.1899 -0.4126
22017WAT    EPW89875   1.032   6.087   7.572  0.5038 -0.2162  0.0751
22018WAT      O89876  -6.500   9.049   6.844 -0.0093  0.4011 -0.2346
22018WAT     H189877  -6.432   8.984   6.828 -0.4430  0.0930 -0.8539
22018WAT     H289878  -6.453   9.132   6.853  0.6601 -0.1354  1.7217
22018WAT    EPW89879  -6.485   9.052   6.843  0.0219  0.2899 -0.0582
22019WAT      O89880  -3.196   7.218   6.484  0.0691 -0.5356  0.1493
22019WAT     H189881  -3.273   7.216   6.541 -1.0990  2.7518 -1.0521
22019WAT     H289882  -3.126   7.180   6.536 -1.2793  0.8772  3.2331
22019WAT    EPW89883  -3.197   7.213   6.498 -0.2629  0.0842  0.3979
22020WAT      O89884   8.018   0.830   2.847  0.1691 -0.1344 -0.4857
22020WAT     H189885   8.056   0.915   2.869  0.1521 -0.2150 -0.1366
22020WAT     H289886   7.924   0.842   2.855  0.1964 -1.0764  3.1117
22020WAT    EPW89887   8.011   0.842   2.851  0.1702 -0.2692  0.0347
22021WAT      O89888  -3.304   6.249   8.564  0.0713 -0.7566  0.1254
22021WAT     H189889  -3.320   6.331   8.610  0.7057 -0.7387  0.3204
22021WAT     H289890  -3.335   6.265   8.475 -1.5592 -0.9219  0.6137
22021WAT    EPW89891  -3.310   6.262   8.558 -0.0601 -0.7758  0.2155
22022WAT      O89892   3.912   3.973   6.920  0.2128  0.4834  0.0390
22022WAT     H189893   3.875   4.041   6.975  0.1817 -0.5036  1.2834
22022WAT     H289894   4.004   3.969   6.946 -0.1414 -1.0585  1.2085
22022WAT    EPW89895   3.919   3.981   6.931  0.1620  0.1498  0.3574
22023WAT      O89896   5.644   2.406   3.793  0.2068  0.4528 -0.3230
22023WAT     H189897   5.722   2.356   3.814  1.0832  1.6479 -0.6274
22023WAT     H289898   5.674   2.473   3.732 -0.5431  2.4454  1.3797
22023WAT    EPW89899   5.658   2.408   3.788  0.2234  0.8732 -0.1385
22024WAT      O89900   2.063   7.787   6.529  0.6178  0.3367  0.4991
22024WAT     H189901   2.025   7.829   6.452  0.2841  0.2467  0.6139
22024WAT     H289902   2.154   7.770   6.504  0.6113  0.6466  0.2613
22024WAT    EPW89903   2.070   7.790   6.515  0.5729  0.3655  0.4828
22025WAT      O89904   6.555   8.623   0.530 -1.0928 -0.6477  0.4083
22025WAT     H189905   6.590   8.536   0.549 -3.3270 -1.5786  0.5661
22025WAT     H289906   6.530   8.619   0.438  1.8870  1.0300 -0.5946
22025WAT    EPW89907   6.556   8.611   0.521 -0.9944 -0.5493  0.2968
22026WAT      O89908   1.112   3.927   2.701 -0.2545 -0.2946 -0.6644
22026WAT     H189909   1.070   3.958   2.620  0.1780  1.6964 -0.1855
22026WAT     H289910   1.065   3.973   2.771 -0.3567 -1.6788  0.2180
22026WAT    EPW89911   1.100   3.937   2.700 -0.2110 -0.2146 -0.4849
22027WAT      O89912   4.467   0.500   8.795 -0.1781  0.0688  0.0818
22027WAT     H189913   4.467   0.506   8.700  0.4894 -2.4308 -0.1494
22027WAT     H289914   4.380   0.468   8.818  0.5201 -2.0311  0.0042
22027WAT    EPW89915   4.455   0.496   8.786  0.0019 -0.5378  0.0410
22028WAT      O89916  -1.111   7.926   8.384  0.3421  0.4429 -0.5997
22028WAT     H189917  -1.152   8.007   8.416  3.1094  1.1034  1.6347
22028WAT     H289918  -1.161   7.856   8.427  2.0773  1.2573  3.1675
22028WAT    EPW89919  -1.123   7.928   8.394  0.9360  0.6375  0.1922
22029WAT      O89920   1.964   2.425   3.190  0.4073 -0.4263  0.3069
22029WAT     H189921   1.872   2.400   3.188  0.4958 -0.7532  0.1577
22029WAT     H289922   1.987   2.437   3.098  0.6097 -0.7117  0.3195
22029WAT    EPW89923   1.955   2.424   3.177  0.4457 -0.5070  0.2888
22030WAT      O89924   1.731   0.775   1.972 -0.3694 -0.4583  0.0873
22030WAT     H189925   1.783   0.700   2.003  2.1385  0.7298 -0.9984
22030WAT     H289926   1.680   0.740   1.899  0.6909 -1.1602 -0.3377
22030WAT    EPW89927   1.731   0.760   1.966  0.1013 -0.3942 -0.1119
22031WAT      O89928   1.771   5.694   4.132  0.5412  0.2668 -0.2077
22031WAT     H189929   1.782   5.609   4.089 -0.5394  0.5427 -1.0576
22031WAT     H289930   1.703   5.679   4.198  1.3758  0.1385  0.6630
22031WAT    EPW89931   1.764   5.680   4.135  0.5088  0.2861 -0.2050
22032WAT      O89932  -0.515   9.784   0.794  0.6447  0.5065  0.4962
22032WAT     H189933  -0.556   9.843   0.857 -0.6551  0.5713 -0.3785
22032WAT     H289934  -0.588   9.745   0.746  1.4349 -2.1080  1.2767
22032WAT    EPW89935  -0.530   9.787   0.796  0.5774  0.1698  0.4838
22033WAT      O89936   0.705   5.963   8.403  0.1545 -0.2220  0.1734
22033WAT     H189937   0.784   5.982   8.454  0.2945 -3.2547  1.3000
22033WAT     H289938   0.634   6.003   8.454  0.6353 -0.4491  1.0512
22033WAT    EPW89939   0.706   5.971   8.417  0.2364 -0.6521  0.4382
22034WAT      O89940   0.536   4.461   3.469  0.2474 -0.1530 -0.0495
22034WAT     H189941   0.527   4.374   3.506 -1.2365  0.0888  0.1938
22034WAT     H289942   0.481   4.460   3.390  1.0136  0.2602 -0.6083
22034WAT    EPW89943   0.528   4.450   3.463  0.1528 -0.0665 -0.0911
22035WAT      O89944   2.991   4.973   4.299  1.2617 -0.1221  0.2014
22035WAT     H189945   2.949   5.034   4.239 -0.9895 -1.4972  0.2882
22035WAT     H289946   3.079   5.008   4.311 -0.0592  3.4296  0.7092
22035WAT    EPW89947   2.997   4.985   4.293  0.7906  0.1650  0.2797
22036WAT      O89948  -1.959   4.463   7.936 -0.1530  0.2955 -0.5405
22036WAT     H189949  -2.031   4.415   7.895 -2.2393  0.9064  2.1345
22036WAT     H289950  -1.964   4.440   8.028  2.0513  1.6893  0.0112
22036WAT    EPW89951  -1.970   4.454   7.942 -0.1374  0.5600 -0.1147
22037WAT      O89952   4.863   6.092   3.749 -0.1974  0.0195  0.3741
22037WAT     H189953   4.821   6.008   3.731 -3.0312  1.4943 -0.3941
22037WAT     H289954   4.839   6.112   3.840  1.5681 -0.5471  1.0007
22037WAT    EPW89955   4.854   6.084   3.759 -0.3383  0.1392  0.3556
22038WAT      O89956   6.094   5.282   0.149 -0.0677 -0.0404  0.1688
22038WAT     H189957   6.054   5.270   0.235 -0.2144 -1.2185 -0.0467
22038WAT     H289958   6.186   5.303   0.168 -0.2042  0.1648  0.6174
22038WAT    EPW89959   6.101   5.283   0.163 -0.1051 -0.1686  0.1995
22039WAT      O89960  -2.898   2.792   8.957 -0.1199 -0.0247 -0.5406
22039WAT     H189961  -2.882   2.767   8.865  0.3014  3.1609 -1.4654
22039WAT     H289962  -2.814   2.828   8.986 -1.0235  1.6181  0.1267
22039WAT    EPW89963  -2.885   2.793   8.948 -0.1836  0.6121 -0.5746
22040WAT      O89964   4.366   3.586   6.052  0.7133 -0.2357 -0.0997
22040WAT     H189965   4.434   3.519   6.057  0.2748 -0.7309 -0.5886
22040WAT     H289966   4.359   3.620   6.141 -0.1158 -1.9255  0.5345
22040WAT    EPW89967   4.374   3.581   6.065  0.5460 -0.5239 -0.0808
22041WAT      O89968   2.276   3.617   4.452  0.1476 -0.1251  0.1834
22041WAT     H189969   2.283   3.698   4.503  0.9094  0.6322 -1.0831
22041WAT     H289970   2.365   3.583   4.447  0.0266 -0.3745 -0.3574
22041WAT    EPW89971   2.288   3.623   4.458  0.2321 -0.0581 -0.0548
22042WAT      O89972  -5.014   9.653   4.558  0.2538  0.3384  0.3759
22042WAT     H189973  -5.067   9.681   4.633 -0.6317  0.0175 -0.1098
22042WAT     H289974  -4.929   9.631   4.596 -0.2353  0.0070  1.3209
22042WAT    EPW89975  -5.010   9.653   4.573  0.0725  0.2522  0.4363
22043WAT      O89976   4.815   3.913   0.090 -0.2649  0.1526 -0.8991
22043WAT     H189977   4.736   3.953   0.126 -0.6823  0.7163 -2.3568
22043WAT     H289978   4.784   3.860   0.016  0.6908  0.2989 -1.4265
22043WAT    EPW89979   4.801   3.911   0.085 -0.1938  0.2463 -1.1609
22044WAT      O89980  -1.355   1.536   3.179  0.2805  0.0276 -0.3453
22044WAT     H189981  -1.396   1.510   3.262 -1.2363  0.1705 -1.0175
22044WAT     H289982  -1.427   1.572   3.127  0.8042 -1.7528 -2.4392
22044WAT    EPW89983  -1.370   1.537   3.183  0.1495 -0.1884 -0.7102
22045WAT      O89984   5.930  10.013   1.774  0.1026 -0.0042  0.4014
22045WAT     H189985   5.919  10.099   1.815  0.3544 -0.1738  0.8346
22045WAT     H289986   5.893  10.023   1.687 -0.4277  0.3702  0.6609
22045WAT    EPW89987   5.924  10.025   1.768  0.0658  0.0229  0.4928
22046WAT      O89988   3.394   8.018   2.411  0.6913  0.0299  0.0229
22046WAT     H189989   3.428   8.021   2.501  0.6287 -0.1805  0.0545
22046WAT     H289990   3.395   8.109   2.382 -0.7724  0.3158  0.7900
22046WAT    EPW89991   3.398   8.031   2.419  0.4901  0.0396  0.1281
22047WAT      O89992   3.054   1.172   7.397 -0.6111  0.4735  0.3830
22047WAT     H189993   2.975   1.179   7.343  0.0070  2.4844 -0.3538
22047WAT     H289994   3.124   1.209   7.342  0.9252 -1.4105  0.9418
22047WAT    EPW89995   3.053   1.177   7.382 -0.3270  0.4902  0.3595
22048WAT      O89996   1.766   9.171   0.270 -0.1653 -0.0448 -0.6201
22048WAT     H189997   1.790   9.247   0.323 -1.8640  0.0482  0.0664
22048WAT     H289998   1.818   9.181   0.190  0.5049  1.2075 -0.0599
22048WAT    EPW89999   1.776   9.182   0.266 -0.3009  0.1326 -0.4556
22049WAT      O90000   0.890   2.630   6.473  0.5256  0.1378  1.1655
22049WAT     H190001   0.918   2.616   6.382  1.3054  0.8403  1.2899
22049WAT     H290002   0.945   2.702   6.505 -0.8401  0.9903  1.6954
22049WAT    EPW90003   0.901   2.638   6.465  0.4483  0.3430  1.2517
22050WAT      O90004  -2.149   9.560   3.559 -0.1863 -0.3093 -0.0840
22050WAT     H190005  -2.076   9.534   3.503  0.9872 -0.2370  1.3745
22050WAT     H290006  -2.195   9.478   3.578 -0.6461 -0.3236 -1.1912
22050WAT    EPW90007  -2.146   9.545   3.554 -0.0921 -0.3014 -0.0376
22051WAT      O90008   3.334   9.483   4.696  0.4810 -0.5650 -0.3707
22051WAT     H190009   3.308   9.416   4.632  1.2057  0.8048 -2.1745
22051WAT     H290010   3.353   9.433   4.776 -1.2772 -2.2632 -0.9153
22051WAT    EPW90011   3.333   9.467   4.698  0.3446 -0.6084 -0.6804
22052WAT      O90012   4.529   2.615   7.465  0.1759 -0.5312  0.9353
22052WAT     H190013   4.528   2.604   7.370  0.0340  2.2704  0.5173
22052WAT     H290014   4.455   2.562   7.496 -0.3691 -0.7499 -0.6277
22052WAT    EPW90015   4.519   2.607   7.457  0.0854 -0.1906  0.6740
22053WAT      O90016   2.407  10.355   5.104  0.5772 -0.5957 -0.4028
22053WAT     H190017   2.461  10.280   5.130 -0.2603 -0.8820  0.5489
22053WAT     H290018   2.345  10.319   5.041  1.1360 -0.3764 -1.0885
22053WAT    EPW90019   2.406  10.340   5.099  0.5405 -0.6042 -0.3676
22054WAT      O90020   6.455   6.394   0.896  0.2169 -0.3364 -0.1144
22054WAT     H190021   6.446   6.377   0.990 -1.3870 -1.2705 -0.3968
22054WAT     H290022   6.479   6.310   0.858  1.8309  0.2445 -0.4732
22054WAT    EPW90023   6.457   6.381   0.904  0.2182 -0.3831 -0.1990
22055WAT      O90024   5.840   5.318   1.751  0.7776 -0.0195  0.2251
22055WAT     H190025   5.828   5.283   1.663  1.3003  0.7713 -0.1698
22055WAT     H290026   5.812   5.246   1.809  0.6898 -0.6442 -0.5701
22055WAT    EPW90027   5.835   5.304   1.747  0.8352  0.0024  0.0681
22056WAT      O90028   0.585  10.147   7.345 -0.6212  0.1318  0.6480
22056WAT     H190029   0.638  10.096   7.284 -0.3066  1.6379 -0.3955
22056WAT     H290030   0.632  10.140   7.428  0.4538  0.2577  0.0761
22056WAT    EPW90031   0.598  10.139   7.348 -0.4379  0.3471  0.4351
22057WAT      O90032   0.286  10.143   7.943  0.4629 -0.0534 -0.3295
22057WAT     H190033   0.198  10.173   7.919  0.0381  1.3496  2.5077
22057WAT     H290034   0.336  10.148   7.862 -1.8108  0.0316 -1.8313
22057WAT    EPW90035   0.281  10.147   7.929  0.1070  0.1431 -0.1533
22058WAT      O90036   3.052   7.245   5.009  0.7415 -0.1465 -0.4886
22058WAT     H190037   3.019   7.225   5.097 -1.5988 -0.6719 -1.4032
22058WAT     H290038   3.076   7.338   5.012 -0.2952  0.1081  0.4407
22058WAT    EPW90039   3.051   7.255   5.021  0.2962 -0.1822 -0.4864
22059WAT      O90040  -1.560   4.567   5.785  0.5911 -1.0720 -0.9458
22059WAT     H190041  -1.640   4.579   5.837  0.7957 -0.0536 -0.8457
22059WAT     H290042  -1.514   4.495   5.829  0.5463 -0.5255  0.0148
22059WAT    EPW90043  -1.564   4.559   5.798  0.6121 -0.8657 -0.8059
22060WAT      O90044   0.272   7.155   7.785  0.0721 -0.3069 -0.3210
22060WAT     H190045   0.248   7.112   7.702  1.6785 -0.8174 -0.5487
22060WAT     H290046   0.244   7.094   7.853  3.0838 -2.2703 -0.6548
22060WAT    EPW90047   0.265   7.141   7.783  0.6812 -0.6332 -0.3951
22061WAT      O90048   1.076   2.024   4.965 -0.5992 -0.6085 -0.1116
22061WAT     H190049   1.105   2.013   4.875  0.7947 -2.7889  0.5310
22061WAT     H290050   1.113   1.949   5.012 -1.4565  0.3342  2.2405
22061WAT    EPW90051   1.085   2.013   4.960 -0.5284 -0.7718  0.2835
22062WAT      O90052   2.297   5.820   1.010  0.0023 -0.0497 -0.4152
22062WAT     H190053   2.339   5.894   1.054  0.4684 -0.0347 -0.8787
22062WAT     H290054   2.277   5.758   1.081 -1.2449  0.9070  0.1159
22062WAT    EPW90055   2.300   5.822   1.025 -0.1007  0.0787 -0.4063
22063WAT      O90056  -2.225   9.186   5.723  0.6616  0.4564  0.0318
22063WAT     H190057  -2.300   9.245   5.718 -0.4252 -0.9147 -0.6623
22063WAT     H290058  -2.176   9.203   5.642 -0.3860 -0.4789 -0.8413
22063WAT    EPW90059  -2.228   9.196   5.711  0.3802  0.1521 -0.1748
22064WAT      O90060   1.874   3.859   0.913 -0.4709 -1.1015 -0.9252
22064WAT     H190061   1.830   3.827   0.991 -0.9723 -2.9315 -1.8990
22064WAT     H290062   1.967   3.857   0.934 -0.6610 -0.0777  0.1194
22064WAT    EPW90063   1.881   3.855   0.926 -0.5621 -1.2078 -0.9159
22065WAT      O90064  -0.262   8.999   7.327  0.5052  0.8543 -0.6188
22065WAT     H190065  -0.269   8.974   7.419 -2.0223  4.0601  0.2594
22065WAT     H290066  -0.213   8.928   7.286 -0.7617 -2.1714  2.6102
22065WAT    EPW90067  -0.257   8.986   7.334  0.0047  0.8779 -0.0770
22066WAT      O90068  -5.686   5.407   8.850 -0.2905 -0.9608 -0.2700
22066WAT     H190069  -5.650   5.492   8.878 -2.2502  0.0447 -0.6125
22066WAT     H290070  -5.615   5.345   8.866  0.6912  0.4894  1.4128
22066WAT    EPW90071  -5.672   5.410   8.856 -0.4196 -0.6371 -0.0930
22067WAT      O90072   5.463   1.915   6.187  0.0265  0.0918 -0.2516
22067WAT     H190073   5.550   1.925   6.148  0.2182 -0.5531 -0.0032
22067WAT     H290074   5.480   1.899   6.280 -0.4342  2.2387  0.2814
22067WAT    EPW90075   5.477   1.915   6.194 -0.0091  0.2900 -0.1488
22068WAT      O90076   3.037   1.273   6.050  0.6730 -0.7070  0.4735
22068WAT     H190077   3.002   1.295   6.136  3.3282  0.1242  1.4569
22068WAT     H290078   3.078   1.187   6.063  0.7761 -0.7442 -0.0746
22068WAT    EPW90079   3.038   1.264   6.063  1.0369 -0.6022  0.5310
22069WAT      O90080   1.809   1.265   2.784  0.0887  0.1705  0.6476
22069WAT     H190081   1.826   1.227   2.698 -2.6206 -0.3187  0.2298
22069WAT     H290082   1.770   1.351   2.765 -2.7117 -0.8692  1.1839
22069WAT    EPW90083   1.806   1.272   2.770 -0.6381 -0.0312  0.6633
22070WAT      O90084  10.084   1.403   0.118 -0.4301 -0.0446 -0.1709
22070WAT     H190085  10.117   1.441   0.037  0.5406 -0.2621  0.1099
22070WAT     H290086  10.135   1.322   0.130 -1.9587 -1.0703 -0.3794
22070WAT    EPW90087  10.095   1.397   0.109 -0.5040 -0.2086 -0.1614
22071WAT      O90088   4.457   2.708   4.528  0.3936 -0.1973  0.2334
22071WAT     H190089   4.496   2.647   4.466 -1.5376 -1.6264  0.3474
22071WAT     H290090   4.527   2.726   4.591  1.8411 -0.0964 -1.3272
22071WAT    EPW90091   4.472   2.702   4.528  0.3297 -0.3725  0.0427
22072WAT      O90092   4.505   2.123   4.638  0.3079 -0.3972 -0.0744
22072WAT     H190093   4.487   2.072   4.716 -3.3444 -0.3639 -0.7044
22072WAT     H290094   4.595   2.101   4.614  0.3178 -3.1589  2.0951
22072WAT    EPW90095   4.515   2.114   4.645 -0.1724 -0.7571  0.1287
22073WAT      O90096  -3.659   0.534   5.658  0.3187 -0.1957 -0.5513
22073WAT     H190097  -3.726   0.597   5.631  0.8962  0.9428  0.5506
22073WAT     H290098  -3.578   0.585   5.657  0.5892 -0.4881  1.8430
22073WAT    EPW90099  -3.657   0.549   5.654  0.4306 -0.0841 -0.0904
22074WAT      O90100  -3.503   7.962   1.298 -0.8382 -0.3487  0.4368
22074WAT     H190101  -3.584   7.913   1.285 -1.8550  1.0273  1.2808
22074WAT     H290102  -3.463   7.922   1.375 -0.9591 -0.7142  0.3122
22074WAT    EPW90103  -3.508   7.951   1.306 -0.9882 -0.2155  0.5317
22075WAT      O90104   1.320   8.461   8.411 -0.0455 -0.0547 -0.3431
22075WAT     H190105   1.317   8.450   8.316  1.6696 -1.6391 -0.2791
22075WAT     H290106   1.249   8.405   8.443  0.0508 -0.3566 -0.6477
22075WAT    EPW90107   1.310   8.452   8.402  0.1934 -0.3033 -0.3743
22076WAT      O90108   7.264   2.814   2.176  0.0250 -0.0580  0.4672
22076WAT     H190109   7.266   2.904   2.208 -0.5504  0.0715  0.1481
22076WAT     H290110   7.354   2.784   2.183  0.1778  0.4665  0.7940
22076WAT    EPW90111   7.276   2.822   2.181 -0.0308  0.0283  0.4683
22077WAT      O90112  -1.136   1.474   5.032  0.8830 -0.2728 -0.6870
22077WAT     H190113  -1.218   1.522   5.018 -0.4229 -1.0055  3.3340
22077WAT     H290114  -1.073   1.542   5.058  0.8596 -0.0376 -1.2185
22077WAT    EPW90115  -1.139   1.489   5.034  0.7076 -0.3385 -0.2265
22078WAT      O90116   1.841   7.484   5.352  0.6969 -0.3206  0.5066
22078WAT     H190117   1.745   7.489   5.360  0.4905 -1.6636 -0.8147
22078WAT     H290118   1.856   7.426   5.277  2.5502  0.5766  0.1328
22078WAT    EPW90119   1.830   7.477   5.343  0.9140 -0.3793  0.2828
22079WAT      O90120   5.782   1.519   3.157 -0.5166  0.1502 -0.8139
22079WAT     H190121   5.770   1.473   3.240 -2.1839  0.6653 -0.7218
22079WAT     H290122   5.772   1.451   3.090  3.1198 -0.7340 -0.6642
22079WAT    EPW90123   5.779   1.504   3.159 -0.2570  0.1015 -0.7821
22080WAT      O90124   1.743   9.023   4.145  0.0090 -0.2369 -0.4129
22080WAT     H190125   1.719   8.931   4.150  0.7653 -0.4042  0.7722
22080WAT     H290126   1.671   9.069   4.188 -0.6403 -0.2125 -1.5161
22080WAT    EPW90127   1.730   9.017   4.152  0.0231 -0.2556 -0.4022
22081WAT      O90128  -2.072   6.218   4.150  0.3214 -0.4565 -0.6943
22081WAT     H190129  -2.080   6.131   4.188  0.4988 -0.1722  0.0041
22081WAT     H290130  -2.103   6.278   4.218  1.1435  0.0989 -0.7836
22081WAT    EPW90131  -2.077   6.215   4.164  0.4534 -0.3457 -0.6139
22082WAT      O90132   6.484   2.223   1.694  0.8603 -0.4917  0.1671
22082WAT     H190133   6.461   2.165   1.767 -0.2313 -1.9548 -1.2818
22082WAT     H290134   6.566   2.265   1.721  0.8614 -1.5351  1.9067
22082WAT    EPW90135   6.492   2.221   1.707  0.7167 -0.8222  0.2054
22083WAT      O90136  -1.530   4.391   6.744 -0.1966 -0.5676 -0.3701
22083WAT     H190137  -1.577   4.340   6.677  1.8697  0.4602 -2.7880
22083WAT     H290138  -1.562   4.480   6.733  0.6739 -0.2625 -0.5346
22083WAT    EPW90139  -1.540   4.396   6.734  0.1907 -0.3920 -0.7107
22084WAT      O90140   3.238   6.680   7.087  0.0695 -0.2835  0.1568
22084WAT     H190141   3.233   6.756   7.030  3.1695  0.2164  0.4253
22084WAT     H290142   3.173   6.619   7.052 -0.7273  1.4773 -1.5648
22084WAT    EPW90143   3.228   6.682   7.075  0.3732  0.0148 -0.0350
22085WAT      O90144   3.121   8.983   4.511 -0.0743 -0.0278 -0.2551
22085WAT     H190145   3.121   8.995   4.416  2.4793  0.2704 -0.2904
22085WAT     H290146   3.029   8.965   4.533 -0.5012 -1.6802 -2.9473
22085WAT    EPW90147   3.109   8.983   4.501  0.2062 -0.2065 -0.6149
22086WAT      O90148  -3.822   5.113   7.991  0.4146  0.1907 -0.2534
22086WAT     H190149  -3.870   5.083   7.914  0.4881  0.5781 -0.4554
22086WAT     H290150  -3.814   5.208   7.978  0.6226  0.2253  0.1201
22086WAT    EPW90151  -3.827   5.122   7.979  0.4518  0.2463 -0.2308
22087WAT      O90152   6.540   2.618   1.290 -0.4127  0.2533  0.7076
22087WAT     H190153   6.625   2.637   1.250 -0.3046 -1.2053  0.1546
22087WAT     H290154   6.478   2.672   1.241 -0.2421 -1.2719 -1.3551
22087WAT    EPW90155   6.543   2.627   1.278 -0.3762 -0.1402  0.3626
22088WAT      O90156   3.041   0.814   2.045 -0.3480 -0.4517  0.3634
22088WAT     H190157   3.073   0.804   2.135 -2.8286  1.5763  1.6376
22088WAT     H290158   3.012   0.727   2.019  1.4363 -1.2914  1.0542
22088WAT    EPW90159   3.041   0.801   2.054 -0.4399 -0.2950  0.6225
22089WAT      O90160   8.815   1.717   0.448 -0.8174  0.0955  0.2696
22089WAT     H190161   8.892   1.774   0.444 -1.9993  1.7247 -0.9073
22089WAT     H290162   8.850   1.629   0.453  1.1509  0.6960 -1.5889
22089WAT    EPW90163   8.829   1.713   0.448 -0.7138  0.3896 -0.1308
22090WAT      O90164   5.062   1.694   8.468  0.5138 -0.3350  0.1122
22090WAT     H190165   5.128   1.632   8.496  0.6608 -0.4069 -0.3796
22090WAT     H290166   5.075   1.702   8.373 -1.0343 -1.3692 -0.2179
22090WAT    EPW90167   5.072   1.687   8.459  0.3290 -0.4809  0.0033
22091WAT      O90168  -2.097   0.580   5.126 -0.3640  0.2554 -0.5696
22091WAT     H190169  -2.125   0.489   5.118  0.1809  0.1844 -1.8097
22091WAT     H290170  -2.018   0.576   5.180  0.6531 -0.2220 -2.0411
22091WAT    EPW90171  -2.090   0.568   5.132 -0.1580  0.1831 -0.9272
22092WAT      O90172  -1.144   9.787   5.767 -0.1845  0.2202  0.1307
22092WAT     H190173  -1.215   9.781   5.703 -1.6040 -0.6709  1.7069
22092WAT     H290174  -1.095   9.705   5.756 -1.1193 -0.4732  0.9026
22092WAT    EPW90175  -1.147   9.775   5.757 -0.4950  0.0114  0.4404
22093WAT      O90176  -7.629   6.990   8.835  0.3909  1.1494 -0.0981
22093WAT     H190177  -7.667   7.047   8.901 -0.8637  0.5941 -0.3106
22093WAT     H290178  -7.650   6.901   8.866  0.3180  0.8738 -0.9167
22093WAT    EPW90179  -7.637   6.986   8.848  0.2160  1.0397 -0.2341
22094WAT      O90180   4.574   3.434   6.378  0.1443  0.2272  1.0183
22094WAT     H190181   4.644   3.374   6.401 -0.8020 -0.9173  0.9896
22094WAT     H290182   4.509   3.380   6.333 -0.4814  1.3771  0.4791
22094WAT    EPW90183   4.575   3.419   6.375 -0.0632  0.2279  0.9434
22095WAT      O90184   7.677   8.352   0.181 -0.3412  0.0847  0.5805
22095WAT     H190185   7.688   8.333   0.274  0.0046  0.2960  0.5866
22095WAT     H290186   7.615   8.287   0.149 -1.8125  1.0770  1.3344
22095WAT    EPW90187   7.670   8.341   0.189 -0.4897  0.2437  0.6807
22096WAT      O90188   8.280   1.671   1.254  0.1352 -0.7639 -0.1544
22096WAT     H190189   8.207   1.617   1.223  0.4361 -0.7742 -0.8716
22096WAT     H290190   8.244   1.759   1.262 -0.3409 -1.0409  0.9568
22096WAT    EPW90191   8.266   1.676   1.251  0.1121 -0.8018 -0.1024
22097WAT      O90192  -4.948   2.241   8.712 -0.0446 -0.3734 -0.0863
22097WAT     H190193  -4.864   2.231   8.756 -1.0429 -0.9552  1.7711
22097WAT     H290194  -5.013   2.232   8.781 -1.6130  3.9373 -0.6698
22097WAT    EPW90195  -4.946   2.239   8.727 -0.3831  0.1185  0.0815
22098WAT      O90196  -4.887   2.518   7.462  0.1787  0.0807 -0.0275
22098WAT     H190197  -4.927   2.555   7.541  1.1810 -0.3494  0.6943
22098WAT     H290198  -4.851   2.434   7.491  0.3801 -0.1721 -0.9946
22098WAT    EPW90199  -4.888   2.511   7.476  0.3374 -0.0094 -0.0598
22099WAT      O90200  -0.985   9.809   0.735  0.1870 -0.6566 -0.2215
22099WAT     H190201  -0.967   9.903   0.741 -0.8508 -0.5419  3.0888
22099WAT     H290202  -0.903   9.770   0.705  1.9550  0.9526  2.2156
22099WAT    EPW90203  -0.972   9.817   0.732  0.2833 -0.4296  0.5365
22100WAT      O90204  -3.431   4.679   7.267 -0.4794 -0.4141  0.1142
22100WAT     H190205  -3.471   4.766   7.264 -1.8237 -0.9773  0.9794
22100WAT     H290206  -3.420   4.655   7.175  0.7588  1.0202 -0.1547
22100WAT    EPW90207  -3.435   4.687   7.255 -0.4934 -0.2992  0.1931
22101WAT      O90208   3.290   6.295   4.763  0.3995  0.1319 -0.5628
22101WAT     H190209   3.287   6.200   4.750  0.1337 -0.0668  0.7530
22101WAT     H290210   3.208   6.327   4.723  0.2450 -0.2582 -0.5628
22101WAT    EPW90211   3.279   6.287   4.756  0.3440  0.0541 -0.3891
22102WAT      O90212   4.337  10.114   3.794  0.6585  0.1017  0.3958
22102WAT     H190213   4.367  10.085   3.708 -0.5486 -0.7622  0.2327
22102WAT     H290214   4.259  10.166   3.777 -0.5129 -1.3645  1.0105
22102WAT    EPW90215   4.331  10.117   3.781  0.3445 -0.2060  0.4554
22103WAT      O90216  -3.934   1.669   5.524 -0.1758  0.1750 -0.9965
22103WAT     H190217  -3.873   1.596   5.537 -1.2531 -0.3532  1.9253
22103WAT     H290218  -3.990   1.640   5.452 -0.9949 -2.3089  0.5004
22103WAT    EPW90219  -3.933   1.655   5.517 -0.4259 -0.2223 -0.4139
22104WAT      O90220  -3.945   7.512   4.258 -0.6687  0.0196 -0.8025
22104WAT     H190221  -4.027   7.479   4.221 -0.7688  0.0357 -0.6000
22104WAT     H290222  -3.965   7.524   4.351  0.0388 -1.5181 -0.4312
22104WAT    EPW90223  -3.959   7.510   4.265 -0.5885 -0.1812 -0.7269
22105WAT      O90224   5.378   3.227   3.500 -0.2585 -0.5542  0.4181
22105WAT     H190225   5.337   3.219   3.414 -1.6739 -1.1968  1.1214
22105WAT     H290226   5.390   3.137   3.529 -1.9187 -0.3561  1.8421
22105WAT    EPW90227   5.374   3.214   3.492 -0.6640 -0.6129  0.6988
22106WAT      O90228   2.026   8.721   4.409  0.1228 -1.2275  0.4093
22106WAT     H190229   1.988   8.808   4.420  1.4985 -0.2458 -2.0090
22106WAT     H290230   1.968   8.678   4.346  1.3618 -0.7564 -1.0903
22106WAT    EPW90231   2.013   8.727   4.402  0.4677 -1.0357 -0.1073
22107WAT      O90232   6.889   5.371   1.624 -0.1217 -0.4764 -0.1586
22107WAT     H190233   6.955   5.440   1.626 -1.5905  1.0374 -0.9257
22107WAT     H290234   6.841   5.387   1.543 -2.3267 -0.6201  1.0430
22107WAT    EPW90235   6.891   5.382   1.613 -0.6061 -0.2959 -0.1013
22108WAT      O90236  -0.931   4.419   1.826  0.5622  0.1351  0.1673
22108WAT     H190237  -0.954   4.457   1.911  0.8429  0.9960 -0.1331
22108WAT     H290238  -0.858   4.360   1.847  0.3180 -0.0238  0.5940
22108WAT    EPW90239  -0.924   4.416   1.840  0.5670  0.2277  0.1840
22109WAT      O90240   4.566   4.424   0.932 -0.0847  0.2087  0.2265
22109WAT     H190241   4.614   4.497   0.970  1.3879 -0.1433 -0.8643
22109WAT     H290242   4.584   4.429   0.838 -1.4194 -0.5221 -0.0967
22109WAT    EPW90243   4.574   4.434   0.924 -0.0665  0.0660  0.0400
22110WAT      O90244   1.690   1.700   0.223  0.0367 -0.2565  0.1319
22110WAT     H190245   1.741   1.737   0.296 -1.1126  1.7974 -0.0416
22110WAT     H290246   1.618   1.761   0.210  0.0630 -0.6646 -2.5948
22110WAT    EPW90247   1.688   1.713   0.231 -0.1114 -0.0394 -0.2507
22111WAT      O90248  -3.215   9.248   6.575  0.6635 -0.5914 -0.1028
22111WAT     H190249  -3.281   9.185   6.543  0.4835 -0.4597  0.0063
22111WAT     H290250  -3.195   9.217   6.664 -0.7535  0.5178  0.6550
22111WAT    EPW90251  -3.221   9.235   6.583  0.4529 -0.4277  0.0117
22112WAT      O90252   1.576   5.865   2.725 -0.0889  0.7401 -0.2305
22112WAT     H190253   1.667   5.886   2.704  0.1922  0.1439  0.3362
22112WAT     H290254   1.559   5.910   2.807 -0.2846  0.7950 -0.2997
22112WAT    EPW90255   1.586   5.874   2.733 -0.0777  0.6685 -0.1650
22113WAT      O90256   2.414   2.296   2.667 -0.5733 -0.1204 -0.8684
22113WAT     H190257   2.326   2.280   2.632 -0.8498 -0.2464 -0.1455
22113WAT     H290258   2.426   2.227   2.732 -0.0626  0.0926 -0.7346
22113WAT    EPW90259   2.404   2.285   2.671 -0.5425 -0.1091 -0.7554
22114WAT      O90260   3.379   4.529   8.140  0.0995 -0.5419  0.2024
22114WAT     H190261   3.462   4.551   8.097  0.0816 -2.3931 -0.8886
22114WAT     H290262   3.315   4.527   8.068 -0.7194  0.0329  0.9032
22114WAT    EPW90263   3.382   4.531   8.125 -0.0108 -0.7102  0.1512
22115WAT      O90264  -4.148   8.502   7.828 -0.2841  0.2029 -0.5578
22115WAT     H190265  -4.232   8.527   7.866  0.2234  2.1564 -0.5991
22115WAT     H290266  -4.136   8.410   7.853 -2.1259  0.0683 -0.0462
22115WAT    EPW90267  -4.158   8.493   7.836 -0.4601  0.4430 -0.4959
22116WAT      O90268  -4.505   6.276   7.323 -0.0236  0.4904 -0.6662
22116WAT     H190269  -4.436   6.255   7.260  0.2291  0.8033 -0.4977
22116WAT     H290270  -4.558   6.197   7.328  0.2322  0.3009 -0.9137
22116WAT    EPW90271  -4.503   6.263   7.315  0.0434  0.5069 -0.6766
22117WAT      O90272  -3.783   7.583   4.007  0.4261  0.1090 -0.3726
22117WAT     H190273  -3.832   7.526   3.948 -0.0279 -0.8801  0.9102
22117WAT     H290274  -3.845   7.603   4.078  0.1493  3.2251 -1.3483
22117WAT    EPW90275  -3.798   7.578   4.009  0.3296  0.3898 -0.3321
22118WAT      O90276  -0.494   7.387   1.388 -0.0498  0.1239  0.2035
22118WAT     H190277  -0.430   7.352   1.325 -0.6954  0.4019 -0.6295
22118WAT     H290278  -0.465   7.354   1.472 -1.9877 -4.6235 -0.7041
22118WAT    EPW90279  -0.482   7.378   1.391 -0.3905 -0.4654 -0.0261
22119WAT      O90280  -1.392   4.597   1.994 -0.2400  1.0695 -0.4389
22119WAT     H190281  -1.482   4.628   1.987 -0.1393  0.9976 -2.9970
22119WAT     H290282  -1.353   4.618   1.910  1.8840  0.2830  0.2907
22119WAT    EPW90283  -1.399   4.604   1.982  0.0533  0.9565 -0.6800
22120WAT      O90284   2.612   6.178   0.578 -0.0422  0.1414  0.4663
22120WAT     H190285   2.705   6.202   0.572 -0.5945  2.4418  0.3058
22120WAT     H290286   2.568   6.260   0.600 -2.3829 -0.2441 -2.3034
22120WAT    EPW90287   2.619   6.192   0.580 -0.4238  0.3941  0.0798
22121WAT      O90288  -0.824   6.783   5.558  1.0789  0.1264 -0.0981
22121WAT     H190289  -0.781   6.697   5.560 -0.0703 -0.4427  1.2758
22121WAT     H290290  -0.896   6.771   5.496  0.0409 -0.3706  1.1600
22121WAT    EPW90291  -0.828   6.770   5.550  0.7904 -0.0141  0.2489
22122WAT      O90292  -5.494   6.961   8.757  0.0579 -0.5654  0.7123
22122WAT     H190293  -5.507   6.890   8.820 -1.8183 -2.8245 -1.9587
22122WAT     H290294  -5.469   6.917   8.675 -0.4744  1.9018 -0.9089
22122WAT    EPW90295  -5.492   6.946   8.754 -0.2599 -0.5379  0.1464
22123WAT      O90296   3.616   5.525   2.515  0.1365 -0.0317  0.9595
22123WAT     H190297   3.611   5.518   2.419  2.9080 -1.4837  0.8170
22123WAT     H290298   3.548   5.588   2.538  0.0164  1.1064 -2.0614
22123WAT    EPW90299   3.607   5.533   2.505  0.4863 -0.0732  0.5423
22124WAT      O90300   7.009   0.460   5.130 -0.1583 -0.0609 -0.1122
22124WAT     H190301   7.091   0.497   5.162 -0.2602 -0.1917  0.3192
22124WAT     H290302   7.005   0.485   5.038  1.5671 -2.1287 -0.8368
22124WAT    EPW90303   7.019   0.468   5.122  0.0558 -0.3509 -0.1509
22125WAT      O90304  -3.619   1.588   6.903  0.3182 -0.0541  0.5843
22125WAT     H190305  -3.712   1.606   6.914 -0.0174  1.1883 -2.9491
22125WAT     H290306  -3.606   1.500   6.938 -2.4913 -0.8039 -0.0703
22125WAT    EPW90307  -3.629   1.579   6.909 -0.0967  0.0109  0.0319
22126WAT      O90308  -1.697   7.056   5.498 -0.0203  0.3216 -0.5748
22126WAT     H190309  -1.622   7.025   5.549 -0.6460 -1.0671 -0.4643
22126WAT     H290310  -1.660   7.123   5.440  1.2850 -0.2604 -0.4500
22126WAT    EPW90311  -1.682   7.061   5.497  0.0694  0.0615 -0.5438
22127WAT      O90312   6.191   9.247   0.146  0.2673  0.2113  0.3744
22127WAT     H190313   6.136   9.173   0.169  0.7911 -0.3050  0.0083
22127WAT     H290314   6.150   9.322   0.189 -0.1406 -0.3257  0.9405
22127WAT    EPW90315   6.179   9.247   0.155  0.2825  0.0725  0.4007
22128WAT      O90316   1.993   8.935   1.502 -0.3867 -0.1417  0.5464
22128WAT     H190317   1.928   8.986   1.455  1.2923  0.4095 -1.3270
22128WAT     H290318   1.955   8.921   1.589 -4.0778 -2.0253 -1.1651
22128WAT    EPW90319   1.980   8.940   1.507 -0.6521 -0.3171  0.0736
22129WAT      O90320   5.252   1.570   8.300 -0.2153  0.9613 -0.5248
22129WAT     H190321   5.284   1.622   8.373 -2.5604  2.3963 -0.4244
22129WAT     H290322   5.269   1.479   8.326  0.6423  1.5188  0.9698
22129WAT    EPW90323   5.258   1.565   8.313 -0.4115  1.2241 -0.3142
22130WAT      O90324  -2.453   8.306   5.755 -0.2571  0.5436 -0.2486
22130WAT     H190325  -2.439   8.259   5.838 -1.7699 -0.8802 -0.7377
22130WAT     H290326  -2.379   8.279   5.700  0.2443  0.7404  0.3162
22130WAT    EPW90327  -2.441   8.296   5.759 -0.3905  0.3819 -0.2389
22131WAT      O90328   8.153   0.812   1.405 -1.0695  0.1749 -0.0131
22131WAT     H190329   8.213   0.742   1.379 -0.3570  0.1380  1.5999
22131WAT     H290330   8.168   0.881   1.340 -1.4539 -0.9614 -1.3604
22131WAT    EPW90331   8.163   0.812   1.393 -1.0262  0.0201  0.0220
22132WAT      O90332  -3.334   9.985   2.902  0.4204  0.1451  0.4202
22132WAT     H190333  -3.412   9.999   2.848  0.8724 -0.2134 -0.3537
22132WAT     H290334  -3.271   9.945   2.842  1.3984  0.9495  0.8711
22132WAT    EPW90335  -3.336   9.982   2.887  0.6089  0.2041  0.3777
22133WAT      O90336   2.292   3.101   4.411  0.3648 -0.1028  0.7106
22133WAT     H190337   2.229   3.033   4.436 -1.2705 -0.1413 -2.9723
22133WAT     H290338   2.280   3.170   4.477 -0.8330 -1.6861  2.2324
22133WAT    EPW90339   2.282   3.101   4.423 -0.0088 -0.3167  0.4258
22134WAT      O90340   1.725   5.492   0.659  0.3218 -0.0151 -0.4548
22134WAT     H190341   1.816   5.513   0.636  0.6220  0.5134  1.0891
22134WAT     H290342   1.730   5.406   0.701  0.5228  1.0730  1.8843
22134WAT    EPW90343   1.738   5.483   0.661  0.3879  0.1981  0.0573
22135WAT      O90344   1.216   1.626   0.791 -0.2281  0.2559  1.2583
22135WAT     H190345   1.262   1.590   0.715 -1.0250  0.4875  0.6519
22135WAT     H290346   1.273   1.607   0.865 -0.4167 -1.9300  0.9203
22135WAT    EPW90347   1.229   1.618   0.791 -0.3581 -0.0018  1.1337
22136WAT      O90348   4.606   4.150   3.637 -0.2404  0.0547 -1.1057
22136WAT     H190349   4.657   4.204   3.577 -0.7274 -0.5315 -2.0694
22136WAT     H290350   4.568   4.213   3.699 -2.8511  1.2457 -3.6752
22136WAT    EPW90351   4.607   4.165   3.637 -0.6490  0.1345 -1.5717
22137WAT      O90352   3.972   4.762   7.886  0.6231  0.5480  0.3992
22137WAT     H190353   3.966   4.667   7.897  1.7389  0.4663  0.3932
22137WAT     H290354   3.936   4.779   7.799  1.6177 -0.0300 -0.1469
22137WAT    EPW90355   3.966   4.751   7.876  0.9016  0.4609  0.3262
22138WAT      O90356  -3.790   8.494   6.564  0.0461 -0.6320  0.8581
22138WAT     H190357  -3.766   8.402   6.565  3.0477 -0.0355 -0.8637
22138WAT     H290358  -3.785   8.522   6.655 -0.1710 -1.9946  1.3044
22138WAT    EPW90359  -3.786   8.486   6.576  0.4133 -0.7334  0.6900
22139WAT      O90360   3.127   7.724   2.820 -0.2846  0.2539 -0.7153
22139WAT     H190361   3.149   7.633   2.801 -1.7831 -0.3670  0.3336
22139WAT     H290362   3.205   7.759   2.864  0.2983 -0.5091 -1.1064
22139WAT    EPW90363   3.140   7.716   2.823 -0.4054  0.0713 -0.6286
22140WAT      O90364   3.670   8.645   5.792 -0.4964 -0.7630  0.1225
22140WAT     H190365   3.589   8.694   5.776  0.2166  0.3486 -0.1705
22140WAT     H290366   3.703   8.678   5.875  0.6819  0.2465 -0.7172
22140WAT    EPW90367   3.664   8.656   5.801 -0.2470 -0.4835 -0.0269
22141WAT      O90368  -2.474   2.624   4.695 -0.4019  0.5324  0.2207
22141WAT     H190369  -2.566   2.628   4.719 -0.7580 -0.8456 -0.8197
22141WAT     H290370  -2.443   2.714   4.703 -2.0070  1.1314 -0.0947
22141WAT    EPW90371  -2.482   2.636   4.699 -0.6605  0.4296  0.0420
22142WAT      O90372   2.639   7.696   8.012  0.3140 -0.3608  0.2585
22142WAT     H190373   2.594   7.612   8.020 -0.5923  0.1204  0.3218
22142WAT     H290374   2.698   7.686   7.937 -1.2465 -0.4087 -0.9908
22142WAT    EPW90375   2.641   7.684   8.003 -0.0113 -0.3035  0.1016
22143WAT      O90376   4.509   7.458   6.124  0.3416  0.0983  0.4179
22143WAT     H190377   4.490   7.514   6.199 -2.3970  1.2113 -0.9679
22143WAT     H290378   4.572   7.508   6.072 -0.7412  1.1455  0.0736
22143WAT    EPW90379   4.515   7.472   6.127 -0.1624  0.3834  0.1895
22144WAT      O90380   4.228   5.392   3.678 -1.0599  0.1284  0.8945
22144WAT     H190381   4.184   5.453   3.737  1.3715  1.7103  1.2326
22144WAT     H290382   4.218   5.431   3.591  1.0745  1.5104  1.1921
22144WAT    EPW90383   4.221   5.405   3.674 -0.4578  0.5193  0.9784
22145WAT      O90384   0.044   1.951   8.328  0.0916  0.4837  0.4093
22145WAT     H190385  -0.017   1.926   8.259 -1.4893 -1.0465  2.2578
22145WAT     H290386   0.000   2.022   8.374  0.1978  0.1065  1.0933
22145WAT    EPW90387   0.030   1.957   8.325 -0.1029  0.2322  0.7434
22146WAT      O90388  -0.216   6.229   3.502 -0.3565 -0.4744  0.0789
22146WAT     H190389  -0.149   6.177   3.458 -0.8552 -1.1606  0.1156
22146WAT     H290390  -0.173   6.313   3.520 -0.0246 -0.3051 -1.3829
22146WAT    EPW90391  -0.201   6.234   3.499 -0.3785 -0.5426 -0.1090
22147WAT      O90392  -3.513  10.073   8.340 -0.4242 -0.2779  0.3789
22147WAT     H190393  -3.457  10.023   8.280  0.5551 -0.0904  1.1198
22147WAT     H290394  -3.602  10.056   8.309  0.0829  0.5784 -1.7488
22147WAT    EPW90395  -3.517  10.064   8.328 -0.2282 -0.1397  0.1960
22148WAT      O90396  -3.591   0.933   7.776  0.5769  0.1960  0.3602
22148WAT     H190397  -3.565   1.022   7.752  0.0701  0.1119 -0.5241
22148WAT     H290398  -3.686   0.932   7.764  0.4826 -0.2534  1.0829
22148WAT    EPW90399  -3.601   0.945   7.771  0.4976  0.1256  0.3390
22149WAT      O90400  -0.809   4.763   4.702  0.2614 -0.6172  0.4938
22149WAT     H190401  -0.890   4.764   4.650  1.3064  0.3420 -1.1825
22149WAT     H290402  -0.831   4.812   4.781 -0.1120  1.9980 -1.1216
22149WAT    EPW90403  -0.823   4.769   4.705  0.3500 -0.1457  0.0596
22150WAT      O90404  -0.780   5.814   6.912  0.5201  0.6773  0.2283
22150WAT     H190405  -0.703   5.862   6.883  3.4027 -2.6085  1.6780
22150WAT     H290406  -0.749   5.761   6.985 -3.2548 -0.6868  1.1017
22150WAT    EPW90407  -0.766   5.813   6.918  0.4024  0.0641  0.5345
22151WAT      O90408  -4.154   6.358   8.082 -0.2281  0.1101 -0.0730
22151WAT     H190409  -4.212   6.320   8.015 -1.4039  3.4048 -1.1008
22151WAT     H290410  -4.076   6.302   8.079 -1.0232 -1.0648 -2.8041
22151WAT    EPW90411  -4.152   6.346   8.072 -0.4883  0.3896 -0.5684
22152WAT      O90412   5.917   9.180   2.765  0.5584 -0.1585 -0.2281
22152WAT     H190413   5.888   9.232   2.690 -1.2134 -1.3993 -0.4613
22152WAT     H290414   5.896   9.089   2.741  0.9263 -0.6941  1.3370
22152WAT    EPW90415   5.911   9.175   2.752  0.3731 -0.3934 -0.0523
22153WAT      O90416   3.286   3.817   3.982  0.0556 -0.3170  0.2210
22153WAT     H190417   3.307   3.725   3.965 -0.9183 -0.7597  1.3011
22153WAT     H290418   3.358   3.866   3.941  1.9303 -1.6366  1.7258
22153WAT    EPW90419   3.298   3.811   3.974  0.1743 -0.5494  0.5620
22154WAT      O90420  -0.868   7.154   6.369 -0.8508 -0.7064  0.2273
22154WAT     H190421  -0.780   7.131   6.339 -1.1044 -1.2732 -0.1047
22154WAT     H290422  -0.862   7.153   6.464 -1.0476 -3.1539  0.2903
22154WAT    EPW90423  -0.856   7.151   6.378 -0.9102 -1.1041  0.1917
22155WAT      O90424   8.591   2.339   0.237  0.1448 -0.7614 -0.0397
22155WAT     H190425   8.659   2.302   0.294  1.5137  0.5586 -0.7544
22155WAT     H290426   8.508   2.314   0.279  0.9873  2.5714  4.2279
22155WAT    EPW90427   8.589   2.331   0.250  0.4358 -0.1477  0.4289
22156WAT      O90428  -1.863   8.570   1.514 -0.7822  0.4548 -0.7380
22156WAT     H190429  -1.830   8.484   1.489 -0.4441  0.8429 -1.6838
22156WAT     H290430  -1.957   8.567   1.494 -0.9573  0.0049  0.1100
22156WAT    EPW90431  -1.871   8.558   1.508 -0.7607  0.4468 -0.7508
22157WAT      O90432  -0.929   5.651   5.807  1.0614 -0.5105 -0.0266
22157WAT     H190433  -0.895   5.562   5.816  2.8147  0.0001 -1.1107
22157WAT     H290434  -1.017   5.647   5.845  1.1478 -2.6567  0.0665
22157WAT    EPW90435  -0.936   5.638   5.813  1.3040 -0.7260 -0.1574
22158WAT      O90436   1.121   1.794   3.105  0.1454 -0.4500  0.1780
22158WAT     H190437   1.166   1.711   3.123  0.9505  0.1756  1.1645
22158WAT     H290438   1.034   1.783   3.142  0.2996 -0.8061  0.4424
22158WAT    EPW90439   1.115   1.781   3.112  0.2719 -0.4144  0.3430
22159WAT      O90440  -0.509   3.582   0.817  0.2511  0.9567  0.4598
22159WAT     H190441  -0.545   3.545   0.736 -2.1760 -1.8744  2.5942
22159WAT     H290442  -0.421   3.543   0.824 -0.2661 -0.3218  0.0923
22159WAT    EPW90443  -0.502   3.572   0.807 -0.1372  0.4147  0.6928
22160WAT      O90444  -2.036   1.645   8.568  0.6150  0.5392  0.2157
22160WAT     H190445  -2.118   1.605   8.541  1.2557 -0.8863  0.2937
22160WAT     H290446  -1.974   1.573   8.572  2.0379  1.6668 -0.4299
22160WAT    EPW90447  -2.039   1.630   8.565  0.8872  0.4998  0.1411
22161WAT      O90448   1.978   7.551   7.057  0.8982  0.4078 -0.4296
22161WAT     H190449   2.058   7.552   7.005  0.1572 -0.6005 -1.6577
22161WAT     H290450   1.986   7.472   7.111  0.6453  0.1609 -0.7429
22161WAT    EPW90451   1.990   7.540   7.057  0.7671  0.2425 -0.6330
22162WAT      O90452  -1.579   9.250   1.006 -0.2804  0.1447 -0.3252
22162WAT     H190453  -1.539   9.197   0.937 -0.9788  0.4801 -1.0016
22162WAT     H290454  -1.640   9.191   1.050  0.3515 -0.1414  0.1781
22162WAT    EPW90455  -1.581   9.235   1.002 -0.2891  0.1516 -0.3480
22163WAT      O90456   2.649   4.828   6.306  0.6762 -0.2151  0.8220
22163WAT     H190457   2.570   4.870   6.340  1.3146 -0.5352  2.8692
22163WAT     H290458   2.708   4.900   6.287  0.1517 -0.0064 -0.0535
22163WAT    EPW90459   2.646   4.843   6.308  0.6912 -0.2301  0.9766
22164WAT      O90460   0.055   6.615   7.034 -0.5967  0.0995  0.3372
22164WAT     H190461   0.032   6.522   7.024  1.9336 -0.6351  0.4285
22164WAT     H290462   0.084   6.622   7.125  0.4073  0.6677 -0.0148
22164WAT    EPW90463   0.056   6.603   7.045 -0.1306  0.0777  0.3028
22165WAT      O90464   1.048   4.954   5.268 -0.0052  0.1112  0.5456
22165WAT     H190465   1.072   4.873   5.224 -1.3900 -0.1743  0.2567
22165WAT     H290466   1.070   5.023   5.205 -2.1803 -0.3063 -0.7940
22165WAT    EPW90467   1.054   4.953   5.254 -0.4748  0.0184  0.3307
22166WAT      O90468   3.206   5.435   0.270  0.1441  0.3945  0.3573
22166WAT     H190469   3.235   5.363   0.325 -0.5524  1.2851  1.9411
22166WAT     H290470   3.177   5.392   0.189 -3.1921 -1.5619  2.3257
22166WAT    EPW90471   3.206   5.420   0.266 -0.3878  0.2539  0.8258
22167WAT      O90472   6.737   3.477   4.174 -0.3854  0.7343  0.1119
22167WAT     H190473   6.726   3.435   4.259  0.5365 -0.7722 -0.4702
22167WAT     H290474   6.832   3.485   4.163 -0.4668  0.2631 -1.0688
22167WAT    EPW90475   6.748   3.473   4.184 -0.2747  0.4735 -0.1209
22168WAT      O90476   3.675   0.784   0.650 -0.2033  0.3908  0.7460
22168WAT     H190477   3.612   0.797   0.579  0.6575  1.6972  0.1919
22168WAT     H290478   3.760   0.808   0.613  0.3866  0.3088  1.9687
22168WAT    EPW90479   3.678   0.789   0.636 -0.0119  0.5523  0.8342
22169WAT      O90480   6.734   2.348   1.826  0.3119  0.1669 -0.0355
22169WAT     H190481   6.702   2.398   1.901 -0.0868 -0.7109  0.3951
22169WAT     H290482   6.778   2.272   1.864 -2.6981 -2.0632 -0.6299
22169WAT    EPW90483   6.736   2.344   1.841 -0.1376 -0.2429 -0.0572
22170WAT      O90484   1.906   3.604   7.283 -0.1360 -0.2731  0.6807
22170WAT     H190485   1.877   3.665   7.215 -0.5550  1.8448  2.6335
22170WAT     H290486   2.000   3.621   7.292  0.1075 -1.2121  0.0351
22170WAT    EPW90487   1.915   3.615   7.275 -0.1592 -0.1177  0.8531
22171WAT      O90488   2.757   0.531   7.147 -0.3900  0.6056  0.3008
22171WAT     H190489   2.667   0.501   7.163  0.4769 -2.0676  0.5603
22171WAT     H290490   2.798   0.530   7.234  0.4220 -0.1077 -0.0852
22171WAT    EPW90491   2.750   0.527   7.161 -0.1686  0.1589  0.2842
22172WAT      O90492   8.427   1.785   2.163  0.1447 -0.0639  0.0036
22172WAT     H190493   8.477   1.777   2.082 -1.1674 -0.7969 -0.7663
22172WAT     H290494   8.429   1.879   2.183 -0.6105  0.3461 -1.6291
22172WAT    EPW90495   8.434   1.796   2.155 -0.1278 -0.1065 -0.3134
22173WAT      O90496   0.899   8.839   8.590  0.2472  0.2926 -0.2606
22173WAT     H190497   0.952   8.823   8.511  2.0504  2.0511  0.5035
22173WAT     H290498   0.810   8.817   8.563  0.8628  0.3887 -2.6673
22173WAT    EPW90499   0.894   8.834   8.576  0.5662  0.5369 -0.4773
22174WAT      O90500   0.528   2.184   0.321 -0.1109 -0.0783 -0.3054
22174WAT     H190501   0.513   2.265   0.272  0.8705  0.6612  0.5748
22174WAT     H290502   0.567   2.124   0.256  2.5931  1.3795 -0.1724
22174WAT    EPW90503   0.531   2.186   0.306  0.3752  0.2116 -0.1718
22175WAT      O90504   3.227   7.055   5.553 -0.7061  0.3697 -0.0189
22175WAT     H190505   3.303   7.112   5.560 -1.9711  1.8510  3.2173
22175WAT     H290506   3.173   7.096   5.486  1.8383 -1.6229 -3.6793
22175WAT    EPW90507   3.230   7.068   5.545 -0.5373  0.3023 -0.0746
22176WAT      O90508   2.470   1.615   3.089 -0.0023 -0.2655  0.1408
22176WAT     H190509   2.386   1.576   3.065  0.4009 -0.4494 -1.0574
22176WAT     H290510   2.448   1.684   3.151 -1.0950  0.0239 -0.5488
22176WAT    EPW90511   2.456   1.619   3.094 -0.0933 -0.2515 -0.1082
22177WAT      O90512   0.443   2.223   6.885 -0.2761 -1.0796 -0.5150
22177WAT     H190513   0.525   2.260   6.918  0.2769 -1.7671 -1.0704
22177WAT     H290514   0.414   2.165   6.955  0.7955 -2.3900 -1.0976
22177WAT    EPW90515   0.450   2.220   6.899 -0.0618 -1.3430 -0.6652
22178WAT      O90516   3.691   9.694   4.404 -0.8064 -0.5658 -0.5633
22178WAT     H190517   3.675   9.610   4.360  3.0191 -1.2479 -0.9261
22178WAT     H290518   3.708   9.756   4.333  2.0561 -0.8988 -0.2629
22178WAT    EPW90519   3.691   9.691   4.389  0.0758 -0.6990 -0.5715
22179WAT      O90520   1.571   6.176   3.392  0.5062 -0.4208 -0.1153
22179WAT     H190521   1.481   6.152   3.372  1.1042 -1.8112 -1.3980
22179WAT     H290522   1.607   6.098   3.434  1.3096 -0.1527 -0.2913
22179WAT    EPW90523   1.564   6.162   3.395  0.6911 -0.5689 -0.3077
22180WAT      O90524  -5.440  10.332   5.444 -0.4170 -0.1215  0.5770
22180WAT     H190525  -5.510  10.317   5.507  0.8243 -0.9549  1.8082
22180WAT     H290526  -5.384  10.254   5.451  0.5484  0.4438 -0.4817
22180WAT    EPW90527  -5.441  10.320   5.453 -0.1259 -0.1574  0.5996
22181WAT      O90528  -4.115   6.513   3.114  0.3719  0.2676  0.0607
22181WAT     H190529  -4.096   6.606   3.126 -0.0436  0.6052 -1.5871
22181WAT     H290530  -4.179   6.492   3.182  0.4628  1.1993  0.4406
22181WAT    EPW90531  -4.121   6.522   3.124  0.3290  0.4351 -0.1065
22182WAT      O90532  -3.829   9.719   8.332  0.0503  0.0311  0.2115
22182WAT     H190533  -3.836   9.626   8.354  4.2147 -0.6007 -0.1751
22182WAT     H290534  -3.901   9.734   8.271  0.2959 -3.5201 -1.2287
22182WAT    EPW90535  -3.839   9.709   8.327  0.6320 -0.5207 -0.0300
22183WAT      O90536  -1.193   5.755   4.537  0.1989  0.0246  0.2497
22183WAT     H190537  -1.282   5.760   4.503  0.4152 -2.5024 -0.8630
22183WAT     H290538  -1.191   5.819   4.608 -2.3471  0.4722 -0.0041
22183WAT    EPW90539  -1.204   5.764   4.542 -0.1084 -0.2496  0.0694
22184WAT      O90540  -5.047   8.822   6.586  0.5132  0.6079 -0.8395
22184WAT     H190541  -5.023   8.910   6.557 -1.2357  1.0113 -1.1988
22184WAT     H290542  -5.091   8.784   6.510  0.4496 -0.2500 -0.3820
22184WAT    EPW90543  -5.050   8.829   6.572  0.2742  0.5479 -0.8266
22185WAT      O90544   3.939   0.601   8.386 -0.2236  0.5161  0.5836
22185WAT     H190545   3.844   0.594   8.394 -0.0437 -0.0864  3.3753
22185WAT     H290546   3.965   0.652   8.463  1.8593 -1.1523  1.0541
22185WAT    EPW90547   3.930   0.607   8.398  0.0749  0.2165  1.0138
22186WAT      O90548   3.640   4.951   2.972  0.0587  0.2640 -0.3257
22186WAT     H190549   3.685   4.878   2.928 -0.1610 -0.6953  0.9996
22186WAT     H290550   3.628   4.921   3.062 -0.2254  1.8695  0.1964
22186WAT    EPW90551   3.644   4.937   2.978 -0.0079  0.3493 -0.0820
22187WAT      O90552   0.636   7.711   2.442  0.5664 -0.2503  0.0720
22187WAT     H190553   0.711   7.745   2.393 -1.4034  3.0159 -0.9959
22187WAT     H290554   0.576   7.785   2.448 -2.1255 -2.3817  1.8575
22187WAT    EPW90555   0.638   7.726   2.436 -0.0485 -0.1004  0.1667
22188WAT      O90556   2.235  10.232   7.302 -0.3931  0.0962  0.1281
22188WAT     H190557   2.234  10.327   7.315  2.3030  0.3960 -1.1359
22188WAT     H290558   2.159  10.214   7.247 -0.2916  1.7213 -0.5987
22188WAT    EPW90559   2.225  10.242   7.297 -0.0241  0.3500 -0.1345
22189WAT      O90560   5.426   0.661   2.025 -0.2477 -0.6556  0.4084
22189WAT     H190561   5.412   0.723   1.953 -2.4400  0.4125  1.6267
22189WAT     H290562   5.391   0.579   1.992 -0.8129 -0.2875  0.0572
22189WAT    EPW90563   5.419   0.659   2.012 -0.6113 -0.4662  0.5229
22190WAT      O90564   3.151   7.257   0.113  0.4618 -0.0207 -0.2914
22190WAT     H190565   3.156   7.266   0.208  2.7754  0.8376 -0.4301
22190WAT     H290566   3.136   7.164   0.098 -0.6987 -0.0551  0.8979
22190WAT    EPW90567   3.150   7.246   0.123  0.6139  0.0880 -0.1528
22191WAT      O90568   6.769   2.826   1.151  0.2923 -0.0973 -0.3107
22191WAT     H190569   6.848   2.831   1.097  0.4867 -0.0248 -0.0204
22191WAT     H290570   6.723   2.908   1.134 -0.1672 -0.5124 -1.1569
22191WAT    EPW90571   6.773   2.837   1.142  0.2575 -0.1423 -0.3841
22192WAT      O90572   0.330   5.166   7.200 -0.5429  0.2471  0.3678
22192WAT     H190573   0.414   5.120   7.189 -0.7035 -0.1593  0.7718
22192WAT     H290574   0.350   5.238   7.260 -0.4561  0.2108  0.3827
22192WAT    EPW90575   0.344   5.169   7.207 -0.5526  0.1886  0.4230
22193WAT      O90576   5.979   0.367   2.031  0.6551 -0.1307 -1.4010
22193WAT     H190577   5.910   0.432   2.043  0.5716 -0.6235  1.5706
22193WAT     H290578   5.977   0.347   1.937 -2.2594  0.9294 -1.6691
22193WAT    EPW90579   5.969   0.373   2.020  0.2599 -0.0559 -1.0444
22194WAT      O90580  -6.071  10.220   7.672  0.5231  0.7012  0.1786
22194WAT     H190581  -6.058  10.125   7.673  0.3727  0.6672 -0.5415
22194WAT     H290582  -6.089  10.241   7.580 -0.8382  1.2483  0.5451
22194WAT    EPW90583  -6.071  10.210   7.660  0.3238  0.7687  0.1318
22195WAT      O90584  -2.835   4.124   2.433  0.2134  0.0994 -0.2609
22195WAT     H190585  -2.927   4.107   2.412 -0.1700 -0.3092  1.5806
22195WAT     H290586  -2.825   4.219   2.421 -0.5149  0.1860 -0.1934
22195WAT    EPW90587  -2.846   4.135   2.429  0.0668  0.0570 -0.0091
22196WAT      O90588   4.154   0.070   5.231  0.4044  0.7189  0.2358
22196WAT     H190589   4.122   0.147   5.184  1.9040  2.7014  2.2636
22196WAT     H290590   4.237   0.049   5.188  0.8075  1.3183  0.6883
22196WAT    EPW90591   4.161   0.078   5.219  0.6554  1.0594  0.5629
22197WAT      O90592   6.226   1.245   1.638 -0.3596 -0.5044  0.0562
22197WAT     H190593   6.191   1.330   1.663 -2.2668 -0.5832 -2.0829
22197WAT     H290594   6.153   1.184   1.649  1.2199 -2.1769  2.5266
22197WAT    EPW90595   6.212   1.248   1.643 -0.4029 -0.7354  0.1000
22198WAT      O90596  -1.982   2.464   2.544  0.5594 -0.5179 -0.5792
22198WAT     H190597  -1.917   2.456   2.474  0.9500 -1.5757 -0.1177
22198WAT     H290598  -1.930   2.458   2.625 -0.0419 -0.7164 -0.2009
22198WAT    EPW90599  -1.966   2.462   2.546  0.5317 -0.6835 -0.4685
22199WAT      O90600   0.389   7.785   3.781 -0.6296  0.2519  0.1982
22199WAT     H190601   0.320   7.794   3.846  0.4615 -1.5603  1.7196
22199WAT     H290602   0.403   7.691   3.774 -1.6338  0.2392 -3.7612
22199WAT    EPW90603   0.382   7.774   3.789 -0.6181  0.0112 -0.1235
22200WAT      O90604  -5.936   9.791   4.536 -0.4410  0.0635  0.3578
22200WAT     H190605  -5.954   9.740   4.458  0.5771 -0.1684  0.2554
22200WAT     H290606  -5.992   9.868   4.529  0.0523  0.3238 -0.8890
22200WAT    EPW90607  -5.946   9.795   4.525 -0.2418  0.0672  0.1798
22201WAT      O90608   2.472   0.612   5.324  0.1186 -0.2290  0.2066
22201WAT     H190609   2.467   0.551   5.398  0.7901 -1.6589 -0.8884
22201WAT     H290610   2.424   0.689   5.354 -1.2818 -1.5099  1.4071
22201WAT    EPW90611   2.465   0.614   5.338  0.0225 -0.5865  0.2205
22202WAT      O90612   0.571   7.594   7.835  0.7861 -0.2102 -0.2917
22202WAT     H190613   0.522   7.672   7.809  1.3551  0.4770  0.6089
22202WAT     H290614   0.510   7.522   7.822  0.0599  0.4451 -0.6253
22202WAT    EPW90615   0.556   7.595   7.830  0.7654 -0.0331 -0.2167
22203WAT      O90616   7.810   3.285   1.956 -0.2553  0.7066 -0.2224
22203WAT     H190617   7.824   3.340   1.879 -0.9534 -1.4599 -1.9940
22203WAT     H290618   7.885   3.227   1.958  1.3322  2.5979  2.5943
22203WAT    EPW90619   7.821   3.285   1.946 -0.1380  0.6704 -0.0845
22204WAT      O90620  -3.331   0.408   5.868  0.8842  0.3310 -0.8560
22204WAT     H190621  -3.355   0.394   5.776  1.3077 -1.5122 -0.7213
22204WAT     H290622  -3.356   0.327   5.912 -1.6852  2.1003  1.2234
22204WAT    EPW90623  -3.337   0.396   5.861  0.6012  0.3213 -0.5639
22205WAT      O90624  -4.615   3.238   7.705  0.1966 -0.1419  0.0254
22205WAT     H190625  -4.550   3.217   7.772  1.2725  1.5505 -0.4104
22205WAT     H290626  -4.574   3.210   7.623 -0.1682 -0.2172 -0.1309
22205WAT    EPW90627  -4.601   3.232   7.703  0.2904  0.0713 -0.0529
22206WAT      O90628   1.154   9.356   0.245  0.2325  0.7663 -0.1586
22206WAT     H190629   1.218   9.356   0.173  1.3752 -0.3690  0.8182
22206WAT     H290630   1.116   9.269   0.243  1.3453  0.2058  1.5038
22206WAT    EPW90631   1.157   9.345   0.235  0.5301  0.5431  0.1895
22207WAT      O90632  -0.003   0.648   8.198  0.3159 -0.2671  0.1106
22207WAT     H190633   0.047   0.697   8.132 -0.6717  0.0466 -0.4191
22207WAT     H290634  -0.070   0.710   8.228 -0.2684 -0.9383  0.2226
22207WAT    EPW90635  -0.005   0.663   8.194  0.1085 -0.3143  0.0553
22208WAT      O90636   6.330   7.834   0.893 -0.2165 -0.3048 -0.2870
22208WAT     H190637   6.269   7.869   0.829 -0.7552  0.2317  0.5032
22208WAT     H290638   6.285   7.760   0.932  0.0333 -0.5138 -0.3901
22208WAT    EPW90639   6.316   7.829   0.890 -0.2546 -0.2613 -0.1963
22209WAT      O90640  -1.867   9.812   6.216 -0.7299 -0.6671  0.2752
22209WAT     H190641  -1.847   9.824   6.124 -2.9234 -0.6853 -0.2448
22209WAT     H290642  -1.874   9.717   6.227 -0.9343 -0.6412  0.3673
22209WAT    EPW90643  -1.865   9.801   6.206 -1.0462 -0.6661  0.2189
22210WAT      O90644   5.595   4.193   5.297 -0.0901  0.1326  0.1157
22210WAT     H190645   5.604   4.099   5.317 -1.1663 -0.0314 -0.1303
22210WAT     H290646   5.677   4.216   5.254  1.1375 -0.1602  2.1529
22210WAT    EPW90647   5.607   4.183   5.294 -0.0703  0.0725  0.3519
22211WAT      O90648   0.278   5.570   4.771 -0.3307 -0.1749  1.3335
22211WAT     H190649   0.278   5.599   4.862 -0.1211 -0.1430  1.3246
22211WAT     H290650   0.345   5.625   4.729 -0.6418  0.0203  1.0937
22211WAT    EPW90651   0.287   5.581   4.777 -0.3441 -0.1450  1.3008
22212WAT      O90652   5.180   1.202   7.066  0.6725 -0.2507 -0.0677
22212WAT     H190653   5.201   1.206   7.159  2.2164 -3.5787 -0.1126
22212WAT     H290654   5.237   1.266   7.025  1.2087  0.0468  1.1279
22212WAT    EPW90655   5.190   1.211   7.073  0.9468 -0.6503  0.0839
22213WAT      O90656   4.402   6.418   3.710  0.3213  0.0957  0.1529
22213WAT     H190657   4.320   6.390   3.669  0.3824 -2.4341  1.5119
22213WAT     H290658   4.377   6.489   3.769 -0.1651  2.0572 -2.2524
22213WAT    EPW90659   4.388   6.423   3.713  0.2649  0.0205  0.0149
22214WAT      O90660  -0.529   3.283   4.894  0.0076  0.8385 -0.2827
22214WAT     H190661  -0.472   3.358   4.876 -0.9141  1.7808  0.5346
22214WAT     H290662  -0.522   3.228   4.817 -1.4913  3.1925 -2.2585
22214WAT    EPW90663  -0.521   3.286   4.882 -0.3116  1.2733 -0.4354
22215WAT      O90664   2.064   4.327   0.113 -0.4814  0.2576 -0.5065
22215WAT     H190665   2.047   4.402   0.169  0.1357  0.3068 -0.3801
22215WAT     H290666   2.094   4.364   0.030 -0.3416  0.1544 -0.5025
22215WAT    EPW90667   2.066   4.342   0.109 -0.3815  0.2506 -0.4893
22216WAT      O90668  -2.020   1.746   5.869 -0.9431  0.0797 -0.7445
22216WAT     H190669  -2.105   1.773   5.834 -1.9579 -1.6911  0.1830
22216WAT     H290670  -1.986   1.685   5.803 -0.8202  0.0682 -0.6710
22216WAT    EPW90671  -2.027   1.741   5.856 -1.0607 -0.1553 -0.6125
22217WAT      O90672   2.312   0.735   8.150  0.6116 -0.1643 -0.2418
22217WAT     H190673   2.349   0.672   8.211  0.5519 -0.4372 -0.4838
22217WAT     H290674   2.343   0.707   8.064  0.6180  0.1603 -0.3483
22217WAT    EPW90675   2.321   0.723   8.146  0.6046 -0.1574 -0.2875
22218WAT      O90676  -0.769   7.887   4.744 -0.9769  1.0096 -0.5572
22218WAT     H190677  -0.780   7.962   4.687  0.5854  0.7927 -1.2025
22218WAT     H290678  -0.674   7.872   4.745 -0.8684  1.3131  2.4818
22218WAT    EPW90679  -0.758   7.895   4.737 -0.7565  1.0211 -0.2415
22219WAT      O90680   5.202   0.303   5.802  0.8920  0.6557 -0.6566
22219WAT     H190681   5.227   0.392   5.828  1.0221  0.8166 -1.3090
22219WAT     H290682   5.145   0.316   5.726  0.3616  0.2068 -0.3417
22219WAT    EPW90683   5.198   0.316   5.796  0.8392  0.6178 -0.7012
22220WAT      O90684   1.801   9.932   1.950 -0.2201  0.7225  0.4445
22220WAT     H190685   1.780   9.909   1.859 -0.1473 -2.0573  1.0370
22220WAT     H290686   1.720   9.968   1.985 -0.7184  0.3661 -0.3152
22220WAT    EPW90687   1.787   9.933   1.943 -0.2762  0.3090  0.4224
22221WAT      O90688   4.142   0.214   2.299  0.5404 -0.2512  0.5710
22221WAT     H190689   4.221   0.252   2.337  1.7370 -1.4514 -0.5637
22221WAT     H290690   4.148   0.235   2.206 -0.6296 -0.1428  0.5080
22221WAT    EPW90691   4.154   0.222   2.292  0.5438 -0.3952  0.4129
22222WAT      O90692   2.215   2.715   8.910  0.1371  0.0988 -0.1501
22222WAT     H190693   2.309   2.734   8.913 -0.0268  0.7794  1.0844
22222WAT     H290694   2.199   2.661   8.987 -0.2725 -1.1261 -1.0603
22222WAT    EPW90695   2.225   2.710   8.920  0.0615  0.0271 -0.1073
22223WAT      O90696  -2.710   8.270   4.036 -0.2409 -0.1529 -0.8044
22223WAT     H190697  -2.750   8.185   4.017  0.5178 -0.7108  0.0093
22223WAT     H290698  -2.728   8.286   4.128 -3.4611  2.3084 -1.6522
22223WAT    EPW90699  -2.717   8.261   4.046 -0.5655  0.0982 -0.8090
22224WAT      O90700   2.816   6.267   1.246 -0.2304  0.4591 -0.0811
22224WAT     H190701   2.860   6.237   1.166 -0.2469  0.1637  0.0205
22224WAT     H290702   2.868   6.231   1.317 -2.0457 -2.1128  0.0717
22224WAT    EPW90703   2.828   6.259   1.245 -0.4721  0.0808 -0.0476
22225WAT      O90704   3.541   6.462   2.496 -0.5734  0.1726  0.4916
22225WAT     H190705   3.474   6.523   2.529 -1.4969 -0.4314 -0.2203
22225WAT     H290706   3.603   6.454   2.568 -1.6688  0.1603  1.4593
22225WAT    EPW90707   3.540   6.469   2.510 -0.8397  0.0913  0.5254
22226WAT      O90708  -1.936   3.226   3.459 -1.0418 -0.3275  0.0249
22226WAT     H190709  -1.889   3.181   3.389 -0.8984  1.5574 -1.1731
22226WAT     H290710  -2.027   3.196   3.450 -1.5006  1.4506 -2.4849
22226WAT    EPW90711  -1.942   3.216   3.448 -1.0835  0.1557 -0.4641
22227WAT      O90712  -2.831   9.462   5.265 -0.1987 -0.0556  0.5323
22227WAT     H190713  -2.828   9.370   5.291  2.6915 -0.6176 -1.4056
22227WAT     H290714  -2.844   9.509   5.347  1.0896 -2.0550  1.9868
22227WAT    EPW90715  -2.833   9.456   5.280  0.3524 -0.3939  0.4685
22228WAT      O90716   0.922   4.704   8.486  0.0561 -0.4207  0.6736
22228WAT     H190717   0.865   4.632   8.460 -1.8655  0.9340  0.8957
22228WAT     H290718   0.925   4.700   8.582 -0.9105  0.3541  0.7583
22228WAT    EPW90719   0.914   4.694   8.495 -0.3248 -0.1397  0.7138
22229WAT      O90720  -3.861   9.505   2.425  0.0127 -0.5908  0.0805
22229WAT     H190721  -3.869   9.413   2.399  1.1079 -0.6555 -0.0800
22229WAT     H290722  -3.891   9.507   2.515 -3.5892 -0.4183 -0.9723
22229WAT    EPW90723  -3.866   9.493   2.433 -0.3178 -0.5770 -0.0795
22230WAT      O90724  -0.760   2.603   6.331 -0.7011 -1.0038 -0.0023
22230WAT     H190725  -0.763   2.689   6.291 -1.7018 -1.1135 -0.1813
22230WAT     H290726  -0.787   2.543   6.262 -0.9980 -1.3499  0.4079
22230WAT    EPW90727  -0.764   2.606   6.317 -0.8723 -1.0638  0.0281
22231WAT      O90728   5.627   6.468   3.106 -0.4012  0.1974  0.3341
22231WAT     H190729   5.635   6.561   3.124 -0.0937  0.1571  0.4161
22231WAT     H290730   5.584   6.463   3.021 -1.4538  0.3941  0.8395
22231WAT    EPW90731   5.622   6.480   3.097 -0.4995  0.2179  0.4115
22232WAT      O90732   3.401   8.960   2.088 -0.2818 -0.7196 -0.2687
22232WAT     H190733   3.365   9.044   2.061  0.8480 -0.7633 -2.1592
22232WAT     H290734   3.354   8.896   2.034 -0.6053 -1.2275  0.6066
22232WAT    EPW90735   3.390   8.963   2.077 -0.1755 -0.7920 -0.4026
22233WAT      O90736   4.421   3.352   5.192  0.0397  0.4205  0.0794
22233WAT     H190737   4.349   3.289   5.192  1.2768 -1.0863 -1.8386
22233WAT     H290738   4.407   3.405   5.271 -1.6814 -1.5130  1.1407
22233WAT    EPW90739   4.410   3.351   5.202 -0.0241 -0.0331 -0.0336
22234WAT      O90740   3.440   7.274   5.501  0.7029 -0.3055  0.4059
22234WAT     H190741   3.505   7.219   5.457 -0.4194 -0.7608 -0.7558
22234WAT     H290742   3.452   7.361   5.464  0.9104 -0.3052  0.4757
22234WAT    EPW90743   3.450   7.278   5.490  0.5822 -0.3653  0.2618
22235WAT      O90744  -2.031   9.119   2.245  0.1231  0.5784  0.3170
22235WAT     H190745  -2.060   9.151   2.159  0.2490  0.0093  0.0565
22235WAT     H290746  -2.104   9.065   2.276  1.2752 -1.7742 -0.8360
22235WAT    EPW90747  -2.045   9.116   2.238  0.2917  0.1931  0.1307
22236WAT      O90748  -3.432   5.504   6.507  0.0243  0.1062 -0.5794
22236WAT     H190749  -3.443   5.419   6.550  0.8345 -0.7300 -1.9820
22236WAT     H290750  -3.488   5.563   6.559 -0.9553 -1.3605  0.1259
22236WAT    EPW90751  -3.441   5.501   6.520  0.0020 -0.1974 -0.6714
22237WAT      O90752   1.631   6.931   6.265 -0.7242 -0.2504  0.3942
22237WAT     H190753   1.643   6.903   6.174 -2.1664  4.8878 -1.7870
22237WAT     H290754   1.719   6.939   6.300  0.1741  1.1990 -1.9735
22237WAT    EPW90755   1.644   6.928   6.258 -0.7959  0.6185 -0.2058
22238WAT      O90756  -3.638   4.827   8.654  0.4311 -0.3429 -0.1918
22238WAT     H190757  -3.596   4.762   8.711  0.2754 -0.1762  0.1120
22238WAT     H290758  -3.647   4.782   8.570  2.6353  0.1255 -0.7399
22238WAT    EPW90759  -3.634   4.812   8.651  0.7012 -0.2589 -0.2236
22239WAT      O90760   3.724   2.784   8.853 -0.3130 -0.5141 -0.4661
22239WAT     H190761   3.657   2.782   8.785  1.8961 -1.4478 -2.7792
22239WAT     H290762   3.728   2.694   8.886  0.1120 -0.5914 -0.7111
22239WAT    EPW90763   3.716   2.772   8.848  0.0345 -0.6474 -0.8030
22240WAT      O90764   2.995   6.165   1.469  0.6460  0.6933  0.5213
22240WAT     H190765   2.953   6.197   1.548  0.0254  1.2781 -0.0292
22240WAT     H290766   3.065   6.228   1.451  1.3570  0.0796  1.0762
22240WAT    EPW90767   2.999   6.177   1.477  0.6578  0.6895  0.5219
22241WAT      O90768   7.270   5.962   1.308 -0.1862 -0.3251  0.3542
22241WAT     H190769   7.286   6.050   1.275 -1.6696 -0.0872  0.1658
22241WAT     H290770   7.176   5.949   1.295  0.1386 -2.2598 -0.3980
22241WAT    EPW90771   7.259   5.972   1.302 -0.3390 -0.5491  0.2301
22242WAT      O90772  -4.308   3.032   5.964 -0.4229  0.4447  0.0683
22242WAT     H190773  -4.317   2.986   5.880 -1.9997 -0.2656  0.5720
22242WAT     H290774  -4.219   3.067   5.964  0.1610 -0.9425 -1.1967
22242WAT    EPW90775  -4.298   3.031   5.953 -0.5538  0.1681 -0.0319
22243WAT      O90776   0.160   9.700   1.673 -0.7218 -0.0477  0.5368
22243WAT     H190777   0.078   9.748   1.686  0.0384  1.3542  0.4219
22243WAT     H290778   0.189   9.678   1.762 -0.0164  1.6420  0.7712
22243WAT    EPW90779   0.153   9.704   1.687 -0.5285  0.3600  0.5526
22244WAT      O90780  -3.801   4.739   8.443 -0.5112  0.1756 -0.2571
22244WAT     H190781  -3.800   4.721   8.349  3.1746 -1.0692 -0.1397
22244WAT     H290782  -3.817   4.654   8.484 -0.7715  0.4644  0.2495
22244WAT    EPW90783  -3.803   4.726   8.436 -0.0594  0.0496 -0.1745
22245WAT      O90784  -4.668   2.717   7.377  0.2281  0.5939 -0.4118
22245WAT     H190785  -4.736   2.659   7.413 -0.7249  0.5004 -2.2643
22245WAT     H290786  -4.703   2.805   7.390 -0.3333  0.5401 -1.4852
22245WAT    EPW90787  -4.682   2.721   7.384  0.0284  0.5745 -0.7977
22246WAT      O90788   3.248   2.561   8.847 -0.4274 -0.0808  0.8727
22246WAT     H190789   3.191   2.636   8.828  1.0691  0.6696 -0.8716
22246WAT     H290790   3.196   2.506   8.906 -2.2331  1.4593  0.7989
22246WAT    EPW90791   3.234   2.564   8.852 -0.4683  0.2214  0.6328
22247WAT      O90792  -0.025   3.496   8.765  0.2952 -0.1263 -0.1676
22247WAT     H190793  -0.033   3.549   8.844 -0.0518 -2.5051  1.5136
22247WAT     H290794  -0.113   3.493   8.728  0.4070  0.7786 -0.5321
22247WAT    EPW90795  -0.037   3.502   8.771  0.2642 -0.3207  0.0067
22248WAT      O90796   3.504   8.893   4.076 -0.0391 -0.1454 -0.2744
22248WAT     H190797   3.413   8.899   4.105  0.7628  0.1602  2.4256
22248WAT     H290798   3.534   8.983   4.072  0.6991 -0.3256  0.8667
22248WAT    EPW90799   3.496   8.905   4.079  0.1642 -0.1287  0.2322
22249WAT      O90800   7.012   4.460   3.086 -0.7589  0.1707  0.4832
22249WAT     H190801   7.010   4.415   3.002 -2.5134  1.1482 -0.0571
22249WAT     H290802   7.061   4.540   3.069  1.6225 -1.0422  1.2326
22249WAT    EPW90803   7.018   4.465   3.072 -0.6762  0.1397  0.5108
22250WAT      O90804   3.621   5.477   2.250 -0.2730 -0.1067  0.5658
22250WAT     H190805   3.547   5.520   2.209 -0.9746 -2.2300 -0.5168
22250WAT     H290806   3.692   5.541   2.245 -2.2238  2.4388  2.6540
22250WAT    EPW90807   3.621   5.491   2.244 -0.6227 -0.0510  0.6984
22251WAT      O90808  -6.075   6.592   7.711 -0.2803  0.2377 -0.9811
22251WAT     H190809  -6.165   6.563   7.692 -1.4197  3.1623 -0.5524
22251WAT     H290810  -6.073   6.603   7.806  0.0277  1.6261 -1.1307
22251WAT    EPW90811  -6.087   6.590   7.721 -0.3901  0.8066 -0.9444
22252WAT      O90812   3.175   2.185   3.225 -0.3224 -0.0753 -0.0305
22252WAT     H190813   3.138   2.123   3.288  0.5302  0.8632  1.4430
22252WAT     H290814   3.246   2.137   3.183 -0.2255 -0.3803  0.4780
22252WAT    EPW90815   3.179   2.170   3.228 -0.1972  0.0082  0.2310
22253WAT      O90816   1.979   3.913   4.463  1.0382 -0.0904 -0.1975
22253WAT     H190817   1.932   3.857   4.401 -1.0803  2.5793 -1.2289
22253WAT     H290818   2.021   3.852   4.523 -0.7010 -2.7589 -1.4772
22253WAT    EPW90819   1.978   3.898   4.462  0.5295 -0.0901 -0.5023
22254WAT      O90820   1.248   8.659   5.461 -0.3741 -0.2608 -0.3688
22254WAT     H190821   1.230   8.677   5.368  4.0322 -1.8475 -1.7959
22254WAT     H290822   1.249   8.563   5.466  0.3840 -0.1980  1.0826
22254WAT    EPW90823   1.245   8.649   5.449  0.3070 -0.4616 -0.3653
22255WAT      O90824  -2.489   2.148   7.541 -0.5359 -0.8364  0.6979
22255WAT     H190825  -2.578   2.184   7.548 -0.8453 -1.4378  0.0766
22255WAT     H290826  -2.432   2.223   7.557 -1.1447  0.3270 -1.9618
22255WAT    EPW90827  -2.493   2.163   7.544 -0.6570 -0.7623  0.2651
22256WAT      O90828  -0.111   7.024   3.726 -0.7949  0.1910 -0.5313
22256WAT     H190829  -0.092   6.991   3.814 -1.1898 -0.3460 -0.6383
22256WAT     H290830  -0.160   6.953   3.685  0.9716 -0.3354 -1.8330
22256WAT    EPW90831  -0.115   7.010   3.732 -0.6140  0.0508 -0.7172
22257WAT      O90832   1.523   7.139   7.614  0.0836  0.1706  0.4232
22257WAT     H190833   1.559   7.155   7.527  0.1850  0.3887  0.5048
22257WAT     H290834   1.561   7.055   7.640 -0.0467  0.0423  0.2056
22257WAT    EPW90835   1.533   7.130   7.606  0.0798  0.1824  0.4053
22258WAT      O90836   5.445   0.723   2.549 -0.3510  0.0147 -0.1556
22258WAT     H190837   5.479   0.762   2.629  0.7743 -2.0556  0.4630
22258WAT     H290838   5.499   0.761   2.479  0.5504 -0.2145  0.3904
22258WAT    EPW90839   5.457   0.733   2.550 -0.0837 -0.2886 -0.0020
22259WAT      O90840   4.769   2.291   2.028  0.3103 -0.3214 -0.3771
22259WAT     H190841   4.796   2.298   1.937  1.3177 -0.3368 -0.0930
22259WAT     H290842   4.844   2.324   2.078 -0.7307  0.9687  0.4047
22259WAT    EPW90843   4.783   2.296   2.023  0.3059 -0.1533 -0.2366
22260WAT      O90844  -1.927   2.493   6.615 -0.0440  0.1333 -0.9672
22260WAT     H190845  -1.973   2.429   6.670 -0.5622  1.0615 -0.2794
22260WAT     H290846  -1.842   2.506   6.658  0.0789 -0.1291 -1.1328
22260WAT    EPW90847  -1.922   2.487   6.628 -0.0961  0.2211 -0.8984
22261WAT      O90848   1.985   8.085   8.707  0.2382 -0.0216 -0.2570
22261WAT     H190849   1.955   8.116   8.621  0.3606 -0.5873 -0.5056
22261WAT     H290850   2.065   8.135   8.723  0.7864 -0.6400 -0.9484
22261WAT    EPW90851   1.992   8.096   8.698  0.3267 -0.1779 -0.3810
22262WAT      O90852  -2.407   8.992   0.650 -0.0135 -0.8572 -0.5785
22262WAT     H190853  -2.452   8.932   0.709  0.3267 -1.2727 -0.7379
22262WAT     H290854  -2.314   8.974   0.663  0.0769 -0.6614 -0.9367
22262WAT    EPW90855  -2.401   8.981   0.660  0.0433 -0.8860 -0.6468
22263WAT      O90856  -2.410   7.481   6.596 -0.6267 -0.5546  0.1217
22263WAT     H190857  -2.343   7.424   6.633 -2.8395 -1.9667  2.3312
22263WAT     H290858  -2.406   7.560   6.649  0.6289  0.2883 -1.1587
22263WAT    EPW90859  -2.401   7.484   6.608 -0.7529 -0.6294  0.2441
22264WAT      O90860  -4.172   8.889   5.089 -0.0795 -0.0698  0.8136
22264WAT     H190861  -4.093   8.845   5.121 -0.9735 -2.9793 -0.5998
22264WAT     H290862  -4.244   8.836   5.123 -1.3410  1.2041  0.2170
22264WAT    EPW90863  -4.171   8.876   5.098 -0.3641 -0.2856  0.5484
22265WAT      O90864   7.378   0.276   5.519  0.7114 -0.2652 -0.1245
22265WAT     H190865   7.337   0.264   5.433  1.9030 -1.1110 -0.6009
22265WAT     H290866   7.353   0.364   5.545 -0.2923 -0.2689 -0.9969
22265WAT    EPW90867   7.369   0.286   5.511  0.7360 -0.3772 -0.3026
22266WAT      O90868   0.511   4.076   1.681  0.0815  0.0564  0.4463
22266WAT     H190869   0.589   4.071   1.737 -0.0700  0.4571  0.6985
22266WAT     H290870   0.456   4.143   1.723 -0.5795 -0.5109  0.4884
22266WAT    EPW90871   0.514   4.084   1.694 -0.0256  0.0343  0.4851
22267WAT      O90872   5.582   8.432   1.766  0.4718  1.0180  0.7254
22267WAT     H190873   5.542   8.358   1.720  1.5674  2.1322 -2.2742
22267WAT     H290874   5.509   8.478   1.807 -1.1796  1.7390 -2.6686
22267WAT    EPW90875   5.567   8.428   1.765  0.3984  1.2603 -0.1179
22268WAT      O90876   4.429   1.152   3.924 -0.3451  0.2387  0.0895
22268WAT     H190877   4.422   1.058   3.910  1.2462  0.2400 -0.9836
22268WAT     H290878   4.508   1.162   3.977 -0.2924  1.0102 -0.1300
22268WAT    EPW90879   4.438   1.141   3.929 -0.1285  0.3406 -0.0809
22269WAT      O90880  -6.806   8.598   8.639 -0.2760 -0.3604  0.1341
22269WAT     H190881  -6.789   8.600   8.545 -1.0368 -0.4014 -0.0102
22269WAT     H290882  -6.756   8.672   8.674 -2.0988  1.3667 -0.6775
22269WAT    EPW90883  -6.798   8.608   8.631 -0.6168 -0.1383  0.0076
22270WAT      O90884  -5.869  10.023   5.034 -0.3012  0.2265  0.4543
22270WAT     H190885  -5.949   9.991   4.992  0.4309 -1.9484  0.5935
22270WAT     H290886  -5.897  10.046   5.123 -1.1493  1.4459 -0.1061
22270WAT    EPW90887  -5.883  10.022   5.040 -0.3166  0.1001  0.3989
22271WAT      O90888  -2.784   8.332   2.740  0.2984 -0.4126 -0.1953
22271WAT     H190889  -2.806   8.329   2.833 -1.6472 -2.3807 -0.6469
22271WAT     H290890  -2.869   8.340   2.696  1.2682  2.4242 -1.8210
22271WAT    EPW90891  -2.798   8.333   2.747  0.1698 -0.2985 -0.4692
22272WAT      O90892   1.626   2.366   5.862  0.0468  0.1908 -0.6029
22272WAT     H190893   1.690   2.396   5.797 -0.1856 -0.6351 -1.2351
22272WAT     H290894   1.656   2.278   5.886  0.0425  0.4292  0.3062
22272WAT    EPW90895   1.638   2.358   5.857  0.0156  0.1134 -0.5662
22273WAT      O90896  -2.742   9.049   1.331  0.4981  0.5485  0.0521
22273WAT     H190897  -2.728   8.991   1.256  1.4673 -1.8876  1.9881
22273WAT     H290898  -2.654   9.075   1.358  0.1443  1.6087  0.2452
22273WAT    EPW90899  -2.728   9.045   1.325  0.5792  0.3667  0.3329
22274WAT      O90900   5.123   3.681   3.576  0.1477 -0.2628 -0.0733
22274WAT     H190901   5.090   3.713   3.660  1.1341  0.8538 -0.0828
22274WAT     H290902   5.170   3.756   3.539  0.4036 -0.9852 -1.2604
22274WAT    EPW90903   5.125   3.695   3.582  0.3116 -0.2108 -0.2311
22275WAT      O90904   2.447   7.421   8.112 -0.1528 -0.6436  0.0431
22275WAT     H190905   2.531   7.386   8.081  1.5824  2.2214  1.0913
22275WAT     H290906   2.401   7.447   8.032  1.5369  0.9347 -0.4858
22275WAT    EPW90907   2.452   7.420   8.097  0.2989 -0.0577  0.1116
22276WAT      O90908   0.161   3.561   7.918 -0.8377  0.6398 -0.3751
22276WAT     H190909   0.130   3.647   7.891 -1.5076  0.6622  0.4139
22276WAT     H290910   0.106   3.499   7.870 -1.6695  0.6758  0.5044
22276WAT    EPW90911   0.150   3.564   7.908 -1.0357  0.6474 -0.1550
22277WAT      O90912   5.524   4.904   3.958  0.1964  0.8682  0.0509
22277WAT     H190913   5.472   4.969   3.909  0.4595  2.8887  2.2846
22277WAT     H290914   5.612   4.940   3.959  1.0344 -0.9989 -1.0327
22277WAT    EPW90915   5.529   4.917   3.952  0.3417  0.8883  0.2027
22278WAT      O90916   1.597   5.489   3.840  0.7324 -0.0501  0.4099
22278WAT     H190917   1.568   5.398   3.842  2.8908 -0.9322 -2.1579
22278WAT     H290918   1.687   5.486   3.872  0.9180  1.1553  0.0576
22278WAT    EPW90919   1.605   5.477   3.844  1.0415 -0.0076  0.0248
22279WAT      O90920   2.434  10.177   7.849  0.0750 -0.0015 -1.0519
22279WAT     H190921   2.354  10.228   7.845 -2.1628 -2.7309  2.9060
22279WAT     H290922   2.488  10.221   7.915 -0.3540 -0.8097 -0.1472
22279WAT    EPW90923   2.431  10.189   7.857 -0.2767 -0.4678 -0.4106
22280WAT      O90924   3.984   9.820   0.654 -0.4479 -0.8961  0.0782
22280WAT     H190925   4.077   9.811   0.635 -0.2344  0.1327  0.5671
22280WAT     H290926   3.940   9.772   0.584  0.4049 -0.0801 -1.0551
22280WAT    EPW90927   3.990   9.812   0.642 -0.3073 -0.6528 -0.0068
22281WAT      O90928  -2.077   1.165   8.004 -0.0042  0.7775  0.0714
22281WAT     H190929  -2.102   1.258   8.005 -0.5239  0.6514 -0.3176
22281WAT     H290930  -2.090   1.138   7.913 -0.8378  0.0700  0.3863
22281WAT    EPW90931  -2.082   1.174   7.992 -0.1827  0.6675  0.0613
22282WAT      O90932   2.835   9.514   4.295  0.1998  0.4536  0.1643
22282WAT     H190933   2.873   9.595   4.329 -1.5114  1.2954  0.1799
22282WAT     H290934   2.879   9.445   4.344  0.8151  1.4335  1.0451
22282WAT    EPW90935   2.846   9.516   4.306  0.0552  0.6943  0.2823
22283WAT      O90936  -2.758   9.035   5.398  0.2795  0.5438  0.0765
22283WAT     H190937  -2.673   9.076   5.381  2.1358 -2.3703  1.5326
22283WAT     H290938  -2.760   8.958   5.340 -3.1021  2.3564 -2.6378
22283WAT    EPW90939  -2.747   9.030   5.388  0.0782  0.3986 -0.0894
22284WAT      O90940  -1.058   4.732   0.990 -0.7341 -0.8553  0.5791
22284WAT     H190941  -1.085   4.767   0.905  1.0113 -1.5380 -0.2902
22284WAT     H290942  -0.966   4.757   0.998 -0.7771 -1.1224  2.1206
22284WAT    EPW90943  -1.050   4.740   0.980 -0.5096 -0.9804  0.6678
22285WAT      O90944   4.492   4.533   6.605 -0.0106 -0.7479  0.4201
22285WAT     H190945   4.441   4.453   6.622  0.3720 -0.9953  0.4164
22285WAT     H290946   4.571   4.502   6.560 -0.6380 -0.1955 -1.1463
22285WAT    EPW90947   4.495   4.518   6.601 -0.0432 -0.7079  0.2129
22286WAT      O90948   6.287   9.684   0.818  0.0025 -0.1590  0.1254
22286WAT     H190949   6.268   9.777   0.828  2.0014  0.1865  1.2120
22286WAT     H290950   6.233   9.656   0.744 -1.7770  1.4830  0.7171
22286WAT    EPW90951   6.277   9.692   0.810  0.0317  0.1035  0.3467
22287WAT      O90952  -2.576   9.536   4.104 -0.1985  0.7973 -0.1800
22287WAT     H190953  -2.651   9.479   4.087 -0.2533  0.3696  1.4036
22287WAT     H290954  -2.500   9.482   4.083 -0.2935  0.8729 -0.7442
22287WAT    EPW90955  -2.576   9.521   4.099 -0.2180  0.7510 -0.0453
22288WAT      O90956  -4.211   8.764   7.067 -0.5472  0.5281  0.4080
22288WAT     H190957  -4.269   8.789   6.995 -1.0570  2.2051  1.3522
22288WAT     H290958  -4.255   8.796   7.146  0.9262  0.4913  1.2855
22288WAT    EPW90959  -4.225   8.772   7.068 -0.4201  0.7448  0.6483
22289WAT      O90960  -1.440   6.741   4.387 -0.3747 -0.2392  0.3932
22289WAT     H190961  -1.478   6.816   4.341 -0.1473  0.6162  1.5418
22289WAT     H290962  -1.499   6.668   4.367  0.2973 -0.1918 -2.0981
22289WAT    EPW90963  -1.453   6.741   4.378 -0.2561 -0.1202  0.2160
22290WAT      O90964   7.880   4.285   1.468  0.2963  0.3014  0.0396
22290WAT     H190965   7.911   4.218   1.407  2.3063  1.2710 -0.0579
22290WAT     H290966   7.868   4.238   1.550 -0.7951 -0.6687 -0.6358
22290WAT    EPW90967   7.882   4.270   1.470  0.4175  0.3016 -0.0623
22291WAT      O90968  -0.836   3.222   4.359  0.0126  0.5486 -0.1945
22291WAT     H190969  -0.758   3.217   4.414 -0.5540 -2.6915  0.5124
22291WAT     H290970  -0.830   3.144   4.303 -0.1438  2.9384 -3.9069
22291WAT    EPW90971  -0.825   3.211   4.359 -0.0828  0.4364 -0.5908
22292WAT      O90972   5.450   4.519   6.241  0.3978  1.0961 -1.1296
22292WAT     H190973   5.397   4.459   6.293  3.5340 -0.0777  1.0258
22292WAT     H290974   5.447   4.483   6.152 -0.1657 -0.5170 -0.4889
22292WAT    EPW90975   5.442   4.507   6.236  0.7372  0.7286 -0.7608
22293WAT      O90976   5.352   8.695   0.552  0.4128 -0.2003 -0.3202
22293WAT     H190977   5.268   8.689   0.507  0.0961 -3.2431  0.4553
22293WAT     H290978   5.337   8.655   0.638  1.6760  2.9853  1.5712
22293WAT    EPW90979   5.339   8.689   0.557  0.5374 -0.1812  0.0316
22294WAT      O90980  -4.758   2.997   6.607  0.1837  0.2324 -0.0983
22294WAT     H190981  -4.769   3.029   6.697 -0.1736 -0.6781  0.1964
22294WAT     H290982  -4.673   2.952   6.609 -2.0493 -4.6515  1.3834
22294WAT    EPW90983  -4.748   2.995   6.619 -0.1578 -0.5318  0.1361
22295WAT      O90984   2.820   0.994   5.007  0.2781  0.2055 -0.2825
22295WAT     H190985   2.731   1.000   5.042  0.6670 -0.5241  0.8527
22295WAT     H290986   2.867   1.067   5.047 -0.1013  1.3975 -1.8825
22295WAT    EPW90987   2.814   1.004   5.017  0.2793  0.2665 -0.3438
22296WAT      O90988   3.148   1.124   0.588  0.3413  0.0673 -0.2797
22296WAT     H190989   3.150   1.117   0.492 -0.5336  0.8957 -0.3790
22296WAT     H290990   3.239   1.134   0.613  0.6737 -1.1542 -0.9399
22296WAT    EPW90991   3.160   1.125   0.579  0.2698  0.0154 -0.3799
22297WAT      O90992  -2.006   5.891   4.546 -0.9759 -0.2282  0.6876
22297WAT     H190993  -2.055   5.820   4.504  2.7990 -3.2718  0.7870
22297WAT     H290994  -1.971   5.942   4.473  0.7696 -1.9693  0.2041
22297WAT    EPW90995  -2.008   5.888   4.531 -0.2478 -0.8593  0.6373
22298WAT      O90996   3.745   7.513   3.761 -0.6916 -0.5785 -0.5734
22298WAT     H190997   3.763   7.585   3.700  0.2796 -1.1638 -1.0059
22298WAT     H290998   3.787   7.541   3.843 -2.2745  0.3539 -0.0427
22298WAT    EPW90999   3.753   7.526   3.764 -0.7722 -0.5329 -0.5604
22299WAT      O91000   6.811   1.246   6.005 -0.0131  0.4045  0.4946
22299WAT     H191001   6.882   1.194   6.043  0.4359  1.7447  1.5472
22299WAT     H291002   6.732   1.214   6.048  0.0905 -0.2822  0.1859
22299WAT    EPW91003   6.810   1.235   6.016  0.0596  0.4907  0.5927
22300WAT      O91004  -3.100   9.574   7.030 -0.2172  0.8373  0.2998
22300WAT     H191005  -3.054   9.543   6.952 -1.0096  0.4757 -0.0335
22300WAT     H291006  -3.041   9.640   7.067  0.1823  1.0090 -0.5987
22300WAT    EPW91007  -3.086   9.579   7.025 -0.2691  0.8121  0.1373
22301WAT      O91008   0.949   1.678   7.356  0.1574  0.2819  0.6715
22301WAT     H191009   0.928   1.759   7.402  0.5752  0.0292  1.3283
22301WAT     H291010   0.968   1.705   7.267 -0.9688  0.7510  0.5559
22301WAT    EPW91011   0.949   1.692   7.351  0.0640  0.3104  0.7427
22302WAT      O91012  -0.020   3.378   5.860  0.2171 -0.1102 -0.1306
22302WAT     H191013  -0.006   3.402   5.768 -0.8782  0.1008 -0.2584
22302WAT     H291014  -0.071   3.297   5.855  3.2037 -2.1705  0.2923
22302WAT    EPW91015  -0.025   3.370   5.847  0.4666 -0.3541 -0.0916
22303WAT      O91016   5.505   0.848   5.974  0.6179 -0.1728  0.0318
22303WAT     H191017   5.572   0.865   5.907 -1.2301  0.6687 -1.7013
22303WAT     H291018   5.458   0.772   5.942 -1.9399  1.7354 -1.1011
22303WAT    EPW91019   5.508   0.840   5.961  0.0367  0.1899 -0.3462
22304WAT      O91020   2.055   8.464   4.245  0.0351 -0.5752  0.2335
22304WAT     H191021   2.127   8.463   4.181 -0.0135 -1.4262  0.1856
22304WAT     H291022   2.099   8.478   4.329  0.1398  0.1129  0.0706
22304WAT    EPW91023   2.070   8.466   4.248  0.0426 -0.5965  0.2058
22305WAT      O91024  -3.485   1.881   8.438  0.1298  0.7915 -0.6754
22305WAT     H191025  -3.398   1.909   8.409 -1.2919  3.9208 -2.4286
22305WAT     H291026  -3.531   1.962   8.460 -1.9062 -0.8524  1.7596
22305WAT    EPW91027  -3.480   1.895   8.437 -0.3263  0.9874 -0.5851
22306WAT      O91028  -2.687   8.309   1.293 -0.7462  0.7309  0.6272
22306WAT     H191029  -2.753   8.240   1.290 -1.2234  1.1927  0.3558
22306WAT     H291030  -2.735   8.389   1.274  0.0698  0.9621 -0.5443
22306WAT    EPW91031  -2.702   8.311   1.290 -0.7014  0.8225  0.4369
22307WAT      O91032  -2.506   4.085   6.563  0.4227 -0.0446  0.7470
22307WAT     H191033  -2.575   4.019   6.555  2.6265 -2.3726 -1.2748
22307WAT     H291034  -2.551   4.169   6.558 -2.2929 -1.4344  0.2617
22307WAT    EPW91035  -2.521   4.087   6.561  0.3551 -0.5348  0.4163
22308WAT      O91036   3.841   0.359   2.371 -0.8952  0.8806 -0.0526
22308WAT     H191037   3.892   0.281   2.393 -2.0526 -0.0225 -0.5136
22308WAT     H291038   3.907   0.426   2.352  0.1186  0.2482  1.0850
22308WAT    EPW91039   3.857   0.358   2.371 -0.9142  0.6781  0.0366
22309WAT      O91040  -0.325   6.891   2.099 -0.6470 -0.4387  0.7900
22309WAT     H191041  -0.393   6.832   2.132 -2.0645  0.6267 -0.1088
22309WAT     H291042  -0.313   6.864   2.007  1.3970 -1.7001  1.3604
22309WAT    EPW91043  -0.332   6.880   2.091 -0.5644 -0.4647  0.7466
22310WAT      O91044   1.065  10.063   5.110 -0.2687  0.1289 -0.1709
22310WAT     H191045   1.112   9.980   5.108 -0.8222 -0.2767  1.6443
22310WAT     H291046   1.120  10.120   5.164 -0.5548  0.5162 -0.2805
22310WAT    EPW91047   1.079  10.060   5.117 -0.3794  0.1268  0.0541
22311WAT      O91048  -1.440   7.352   8.376 -0.1223  0.4512  1.3793
22311WAT     H191049  -1.363   7.362   8.320 -1.3025 -1.1244 -0.6427
22311WAT     H291050  -1.476   7.440   8.383  0.2957  0.7610 -0.0025
22311WAT    EPW91051  -1.434   7.365   8.370 -0.2229  0.2842  0.9303
22312WAT      O91052   1.199   0.565   1.430  0.4130  0.0424 -0.3776
22312WAT     H191053   1.110   0.600   1.425  0.2067 -0.5264 -0.7803
22312WAT     H291054   1.221   0.544   1.339  0.7348 -0.3612 -0.2068
22312WAT    EPW91055   1.190   0.567   1.417  0.4283 -0.0858 -0.4082
22313WAT      O91056   1.581  10.098   6.127 -0.3094 -0.8290  0.7743
22313WAT     H191057   1.637  10.072   6.055  0.0212  0.7578  0.4198
22313WAT     H291058   1.511  10.150   6.087 -0.6566 -0.7273  1.4800
22313WAT    EPW91059   1.579  10.101   6.112 -0.3116 -0.6061  0.8206
22314WAT      O91060  -0.795   8.224   0.056  0.0247 -0.1028 -0.1632
22314WAT     H191061  -0.876   8.221   0.004  0.3893  0.0611 -0.7524
22314WAT     H291062  -0.795   8.312   0.095  1.0303  0.7929 -2.0197
22314WAT    EPW91063  -0.806   8.235   0.054  0.2054  0.0367 -0.4858
22315WAT      O91064   3.900   5.699   2.472 -1.0382  0.2433 -0.4064
22315WAT     H191065   3.856   5.638   2.531  0.1872 -2.3090 -1.9557
22315WAT     H291066   3.847   5.698   2.393 -0.0099 -0.3522 -1.1164
22315WAT    EPW91067   3.887   5.691   2.469 -0.7409 -0.1721 -0.7044
22316WAT      O91068  -2.051   5.835   0.899  0.1399  0.4464 -0.5439
22316WAT     H191069  -2.002   5.898   0.950 -1.3977  0.3436  1.1484
22316WAT     H291070  -2.000   5.823   0.819  2.6434  0.5916  0.9574
22316WAT    EPW91071  -2.038   5.842   0.895  0.2673  0.4518 -0.1227
22317WAT      O91072  -0.695   9.801   7.661  0.2070 -0.1367  0.2940
22317WAT     H191073  -0.632   9.810   7.732 -0.0968 -1.3047  0.7300
22317WAT     H291074  -0.772   9.762   7.702 -0.4997  0.4730 -0.4072
22317WAT    EPW91075  -0.697   9.797   7.675  0.0737 -0.2103  0.2594
22318WAT      O91076  -0.619   1.329   8.787 -0.0171  0.2011  0.1475
22318WAT     H191077  -0.566   1.272   8.732 -0.9915 -0.0356 -0.5639
22318WAT     H291078  -0.659   1.271   8.852  1.0209  0.4597  1.0462
22318WAT    EPW91079  -0.617   1.314   8.788 -0.0087  0.2040  0.1721
22319WAT      O91080  -6.765   8.435   6.498  0.2035  0.3649 -0.3117
22319WAT     H191081  -6.839   8.489   6.471  0.2383 -0.0004 -1.1809
22319WAT     H291082  -6.767   8.437   6.594 -2.3720 -1.5049 -0.2123
22319WAT    EPW91083  -6.775   8.442   6.507 -0.1314  0.0701 -0.4132
22320WAT      O91084  -7.917   9.102   8.680  0.1267 -0.7315 -0.2019
22320WAT     H191085  -7.922   9.127   8.772 -1.0865  0.1902 -0.4878
22320WAT     H291086  -7.958   9.016   8.676 -1.9092  0.1758 -0.1696
22320WAT    EPW91087  -7.923   9.094   8.692 -0.3016 -0.4902 -0.2351
22321WAT      O91088   7.294   1.663   3.315  0.2769  0.2787  0.1295
22321WAT     H191089   7.316   1.586   3.367 -0.0684 -0.4010 -0.7084
22321WAT     H291090   7.334   1.647   3.230 -2.7331 -0.6722 -1.2382
22321WAT    EPW91091   7.302   1.651   3.311 -0.1657  0.0637 -0.1614
22322WAT      O91092   5.200   2.084   0.787  0.1091 -0.2635  0.6219
22322WAT     H191093   5.163   2.170   0.771  0.1217 -0.5583 -1.1462
22322WAT     H291094   5.174   2.032   0.711  0.0965 -1.8327  1.6465
22322WAT    EPW91095   5.191   2.088   0.775  0.1090 -0.5095  0.5238
22323WAT      O91096  -7.916  10.001   8.245 -0.1904 -0.2213 -0.5433
22323WAT     H191097  -7.895   9.960   8.161 -2.9247 -0.1676 -1.3621
22323WAT     H291098  -7.976  10.072   8.222  1.2021  1.6508  1.2524
22323WAT    EPW91099  -7.921  10.005   8.231 -0.3674  0.0329 -0.4144
22324WAT      O91100   9.441   2.599   0.723 -0.5104 -0.6915  0.1658
22324WAT     H191101   9.444   2.504   0.730  0.5658 -0.7094 -0.3825
22324WAT     H291102   9.527   2.624   0.690 -1.2432  0.3666 -1.0437
22324WAT    EPW91103   9.452   2.590   0.720 -0.4654 -0.5543 -0.0660
22325WAT      O91104  -3.572   5.735   2.842  0.2770 -0.5212 -0.2441
22325WAT     H191105  -3.640   5.781   2.893  0.8719  0.9503 -0.7352
22325WAT     H291106  -3.505   5.713   2.906  1.5597  2.3240 -0.4307
22325WAT    EPW91107  -3.572   5.738   2.857  0.5245  0.0482 -0.3334
22326WAT      O91108   4.852   7.256   2.723 -0.1046  0.0385 -0.2830
22326WAT     H191109   4.829   7.190   2.657  0.8608 -0.1815 -0.4058
22326WAT     H291110   4.942   7.234   2.749  0.0568  1.0314  0.0183
22326WAT    EPW91111   4.861   7.244   2.718  0.0441  0.1404 -0.2595
22327WAT      O91112  -4.269   7.518   3.107  0.1117 -0.7850 -0.1526
22327WAT     H191113  -4.270   7.447   3.043 -1.2339  1.1287 -2.4082
22327WAT     H291114  -4.176   7.533   3.124  0.4471 -3.3890  0.8845
22327WAT    EPW91115  -4.257   7.510   3.101 -0.0215 -0.8759 -0.3133
22328WAT      O91116   2.410   4.558   6.894  0.4050 -0.1301  0.3742
22328WAT     H191117   2.345   4.540   6.825  0.8479 -0.4381  0.0278
22328WAT     H291118   2.494   4.559   6.847  0.6680  0.0808  0.8469
22328WAT    EPW91119   2.412   4.555   6.878  0.4981 -0.1428  0.3908
22329WAT      O91120   0.480   2.534   6.013  0.4453  0.2249 -0.7845
22329WAT     H191121   0.510   2.448   6.045  1.7641  0.3040 -1.7176
22329WAT     H291122   0.480   2.589   6.092  2.6964  0.1630 -0.6641
22329WAT    EPW91123   0.484   2.530   6.028  0.9162  0.2272 -0.8917
22330WAT      O91124   8.538   2.537   0.865 -0.3629  0.2631 -0.0777
22330WAT     H191125   8.553   2.613   0.808 -0.7225 -0.4234 -1.1216
22330WAT     H291126   8.494   2.474   0.809 -1.8623  0.0203  1.3004
22330WAT    EPW91127   8.534   2.539   0.850 -0.6084  0.1404 -0.0336
22331WAT      O91128  -0.975   5.094   1.550 -0.1844  0.1568  0.1396
22331WAT     H191129  -1.015   5.167   1.502 -0.2420  0.3812  0.5222
22331WAT     H291130  -0.939   5.037   1.482 -2.4636 -0.8369 -0.3149
22331WAT    EPW91131  -0.975   5.096   1.535 -0.4926  0.0556  0.1302
22332WAT      O91132  -5.762   5.315   7.292  0.6830 -0.8066  0.9433
22332WAT     H191133  -5.790   5.282   7.378 -2.2588 -2.3602 -0.4616
22332WAT     H291134  -5.701   5.248   7.260  1.3951 -0.4749  1.5667
22332WAT    EPW91135  -5.758   5.302   7.299  0.3886 -0.9677  0.8402
22333WAT      O91136   0.944   5.145   7.377  0.6420 -0.8847  0.5906
22333WAT     H191137   0.922   5.053   7.362 -0.6544 -0.5030  0.0245
22333WAT     H291138   0.861   5.186   7.399  0.5687  0.7840 -2.3575
22333WAT    EPW91139   0.930   5.138   7.378  0.4613 -0.6144  0.1271
22334WAT      O91140   4.603   4.157   4.944 -0.2026  0.1567 -0.5790
22334WAT     H191141   4.688   4.117   4.964  0.8933  2.1878 -0.8680
22334WAT     H291142   4.558   4.163   5.028 -0.4147 -1.6224 -0.5329
22334WAT    EPW91143   4.608   4.152   4.958 -0.0861  0.1900 -0.6108
22335WAT      O91144   1.663   2.541   1.528 -0.3287 -0.4006 -0.1730
22335WAT     H191145   1.681   2.456   1.487 -1.8031 -1.8357  1.9612
22335WAT     H291146   1.569   2.555   1.513  0.1803  1.7240 -1.8959
22335WAT    EPW91147   1.653   2.532   1.521 -0.4561 -0.3097 -0.1187
22336WAT      O91148   1.539   0.182   3.028 -0.3718  0.7838  0.5653
22336WAT     H191149   1.474   0.201   2.961 -1.1998 -1.4379  0.6821
22336WAT     H291150   1.488   0.168   3.108  0.3045 -0.1119  0.8549
22336WAT    EPW91151   1.524   0.183   3.030 -0.3918  0.3726  0.6188
22337WAT      O91152   0.099   9.064   6.107  0.6986  0.4302  0.4737
22337WAT     H191153   0.048   9.044   6.186  1.4155  0.1087  0.8698
22337WAT     H291154   0.157   8.988   6.097 -0.3558 -0.2018 -1.1862
22337WAT    EPW91155   0.100   9.051   6.116  0.6541  0.3047  0.3071
22338WAT      O91156   2.750   6.267   8.047  0.2091 -0.8195  0.7589
22338WAT     H191157   2.684   6.259   7.978  1.0898 -1.6895 -0.0140
22338WAT     H291158   2.767   6.361   8.053  1.1462 -0.8133 -1.2451
22338WAT    EPW91159   2.744   6.279   8.039  0.4488 -0.9334  0.3924
22339WAT      O91160   2.162   7.930   8.102 -0.0595 -0.3510 -0.1853
22339WAT     H191161   2.124   7.864   8.160 -0.5655  1.4029  1.5966
22339WAT     H291162   2.247   7.894   8.076  1.2210 -0.3386  3.4551
22339WAT    EPW91163   2.168   7.916   8.106  0.0427 -0.1180  0.5298
22340WAT      O91164   0.343   1.819   3.267  0.2221 -0.1727  0.8134
22340WAT     H191165   0.303   1.802   3.182 -0.8245  0.4262  1.1641
22340WAT     H291166   0.316   1.908   3.289  0.8888 -0.1412  1.5494
22340WAT    EPW91167   0.334   1.828   3.259  0.1719 -0.0895  0.9567
22341WAT      O91168   0.410   9.484   5.885 -0.2289 -0.6067 -0.3036
22341WAT     H191169   0.370   9.399   5.866 -2.9969 -0.5631  3.9231
22341WAT     H291170   0.338   9.539   5.916  1.8674  2.4741 -0.4090
22341WAT    EPW91171   0.395   9.480   5.887 -0.3175 -0.1945  0.2401
22342WAT      O91172   3.938   5.155   7.875  0.3281 -0.7428 -0.4463
22342WAT     H191173   3.971   5.125   7.790 -1.0460 -1.1004 -0.8793
22342WAT     H291174   3.857   5.107   7.887 -0.6402  0.9255  0.0410
22342WAT    EPW91175   3.932   5.145   7.865  0.0192 -0.5698 -0.4392
22343WAT      O91176  -1.632   1.290   3.096 -0.6383 -0.0743 -0.1569
22343WAT     H191177  -1.580   1.355   3.143  0.3621  0.4995 -1.9634
22343WAT     H291178  -1.716   1.289   3.142  0.6056 -0.3282  2.2499
22343WAT    EPW91179  -1.636   1.299   3.108 -0.3422 -0.0321 -0.0777
22344WAT      O91180  -2.674   9.355   8.365  0.1374  0.0115  0.1948
22344WAT     H191181  -2.731   9.389   8.434  0.6729  1.7707 -0.1935
22344WAT     H291182  -2.635   9.432   8.325  2.6894 -1.0897  0.3201
22344WAT    EPW91183  -2.676   9.370   8.369  0.5447  0.0982  0.1602
22345WAT      O91184   0.686   4.117   5.443 -1.1328  0.2155  1.0508
22345WAT     H191185   0.617   4.183   5.432 -1.1398  0.2447  1.2601
22345WAT     H291186   0.732   4.144   5.522 -1.2355 -0.1192  1.2274
22345WAT    EPW91187   0.683   4.129   5.452 -1.1473  0.1752  1.1017
22346WAT      O91188  -2.536   8.552   8.837  0.3113  0.8052 -0.0013
22346WAT     H191189  -2.527   8.462   8.868  1.3668  1.3073  1.2906
22346WAT     H291190  -2.448   8.589   8.849  0.3850  1.5071 -2.2389
22346WAT    EPW91191  -2.523   8.545   8.843  0.4604  0.9642 -0.1264
22347WAT      O91192   5.065   7.804   2.079 -0.0079 -0.4149  0.2381
22347WAT     H191193   5.023   7.731   2.125 -1.7372 -0.5546 -1.4460
22347WAT     H291194   5.146   7.768   2.044 -0.5338 -1.3450 -0.0403
22347WAT    EPW91195   5.070   7.790   2.081 -0.3052 -0.5560 -0.0207
22348WAT      O91196   5.001   6.903   1.105  0.6246  0.1693  0.3009
22348WAT     H191197   5.063   6.917   1.176  2.3156  0.6620 -1.1890
22348WAT     H291198   5.006   6.983   1.052  1.7825 -1.3251 -2.0374
22348WAT    EPW91199   5.010   6.915   1.107  1.0004  0.0374 -0.2040
22349WAT      O91200  -1.503   8.775   1.043 -0.0007  0.1944 -0.1622
22349WAT     H191201  -1.552   8.743   1.119  0.6202 -0.1550  0.0988
22349WAT     H291202  -1.502   8.871   1.054 -1.7788  0.3285 -0.8965
22349WAT    EPW91203  -1.510   8.784   1.055 -0.1533  0.1659 -0.2246
22350WAT      O91204   4.019   6.950   0.406  0.7379 -0.3522  0.1320
22350WAT     H191205   3.947   7.008   0.431  1.1250 -0.3381  1.2732
22350WAT     H291206   4.015   6.878   0.469  0.5171 -1.3763 -1.0211
22350WAT    EPW91207   4.009   6.949   0.418  0.7601 -0.4852  0.1304
22351WAT      O91208  -0.314   0.111   5.658  0.0064  0.4008 -0.4976
22351WAT     H191209  -0.357   0.111   5.573 -0.8862  0.7448 -0.0508
22351WAT     H291210  -0.229   0.151   5.641 -0.0584  0.2314 -1.2739
22351WAT    EPW91211  -0.308   0.116   5.645 -0.1199  0.4238 -0.5412
22352WAT      O91212   2.551   7.282   2.926  0.2985 -0.7061  0.8805
22352WAT     H191213   2.479   7.341   2.901  3.3155  2.6991 -0.6453
22352WAT     H291214   2.583   7.319   3.009  2.8957  0.6497 -0.6172
22352WAT    EPW91215   2.545   7.295   2.934  1.0390 -0.0782  0.4817
22353WAT      O91216   0.026   7.146   3.326  0.2545 -0.0519  1.1540
22353WAT     H191217   0.097   7.144   3.261  2.8257 -0.9118  3.7278
22353WAT     H291218   0.071   7.129   3.410 -2.9807 -0.0944  3.0329
22353WAT    EPW91219   0.042   7.143   3.329  0.1669 -0.1709  1.7412
22354WAT      O91220   0.785   1.302   3.023  0.0041  0.6926 -0.6110
22354WAT     H191221   0.779   1.397   3.032 -2.3047  0.4119  2.9571
22354WAT     H291222   0.695   1.273   3.012 -0.1858 -1.2145  3.6275
22354WAT    EPW91223   0.772   1.311   3.023 -0.3255  0.4040  0.4185
22355WAT      O91224  -3.378   5.398   7.828  1.0039  0.3886  0.1891
22355WAT     H191225  -3.345   5.378   7.741 -0.7175  1.1578 -0.6729
22355WAT     H291226  -3.433   5.324   7.851  2.3324 -0.3533  1.1485
22355WAT    EPW91227  -3.381   5.386   7.820  0.9521  0.3922  0.2017
22356WAT      O91228   4.456   3.045   1.097 -0.6918  0.5987  0.0973
22356WAT     H191229   4.484   2.969   1.148 -0.2715 -1.0516 -2.4124
22356WAT     H291230   4.525   3.110   1.112 -0.1973 -0.1102  1.0106
22356WAT    EPW91231   4.469   3.044   1.106 -0.5713  0.2875 -0.1132
22357WAT      O91232  -3.404   6.450   1.895 -0.3450 -0.4063  0.0877
22357WAT     H191233  -3.330   6.390   1.892  0.2783  0.3550 -0.0628
22357WAT     H291234  -3.479   6.395   1.873  0.4848 -0.7073 -2.2570
22357WAT    EPW91235  -3.404   6.435   1.892 -0.1533 -0.3455 -0.2415
22358WAT      O91236  -0.876   6.603   2.269 -0.4248 -0.0595  0.2982
22358WAT     H191237  -0.823   6.683   2.270 -1.2695  0.5023  0.2319
22358WAT     H291238  -0.895   6.588   2.176 -0.5969 -0.1212  0.3433
22358WAT    EPW91239  -0.871   6.612   2.257 -0.5589  0.0064  0.2953
22359WAT      O91240   1.682   5.021   4.717 -0.2599  0.9067  0.1215
22359WAT     H191241   1.676   5.076   4.795  1.0608  1.3598 -0.0695
22359WAT     H291242   1.754   4.961   4.736 -3.6940 -3.2045  1.7495
22359WAT    EPW91243   1.691   5.020   4.730 -0.5386  0.4241  0.3111
22360WAT      O91244   2.144   5.337   8.720  0.1093  0.8973 -0.3880
22360WAT     H191245   2.058   5.343   8.762  0.4077  2.6342  0.0565
22360WAT     H291246   2.197   5.287   8.781 -0.0434  1.5553  0.2881
22360WAT    EPW91247   2.139   5.331   8.733  0.1285  1.2131 -0.2398
22361WAT      O91248  -2.788   4.831   4.399 -0.5120  0.6094 -0.0857
22361WAT     H191249  -2.735   4.892   4.349  2.1887  0.0031  1.8092
22361WAT     H291250  -2.801   4.873   4.484 -0.3452 -0.5561  0.5490
22361WAT    EPW91251  -2.782   4.844   4.404 -0.1338  0.3755  0.2477
22362WAT      O91252   7.437   0.647   3.034  0.2730  0.7726 -0.0131
22362WAT     H191253   7.348   0.611   3.037  1.3422 -2.0932  2.1310
22362WAT     H291254   7.471   0.619   2.949 -0.7795  1.8045 -0.8108
22362WAT    EPW91255   7.430   0.639   3.023  0.2754  0.5307  0.1645
22363WAT      O91256  -0.205  10.015   5.836 -0.2092 -0.3072  0.2110
22363WAT     H191257  -0.228   9.923   5.824 -1.6637 -0.0356  0.6727
22363WAT     H291258  -0.257  10.061   5.770  0.7599  0.1589 -0.2383
22363WAT    EPW91259  -0.215  10.009   5.826 -0.2732 -0.2098  0.2124
22364WAT      O91260   5.817   1.740   4.371  0.2638 -0.0475 -0.5933
22364WAT     H191261   5.799   1.800   4.443  0.4873  0.0355 -0.6056
22364WAT     H291262   5.877   1.788   4.313 -1.0474  0.4441 -1.6001
22364WAT    EPW91263   5.823   1.754   4.373  0.1206  0.0283 -0.7279
22365WAT      O91264  -3.737   3.733   7.452 -0.3656 -0.5953 -0.2942
22365WAT     H191265  -3.831   3.746   7.464 -0.3626 -0.9415  0.1388
22365WAT     H291266  -3.713   3.666   7.517 -0.0220 -1.2673 -1.0820
22365WAT    EPW91267  -3.746   3.726   7.462 -0.3200 -0.7296 -0.3412
22366WAT      O91268  -0.934   0.627   2.071  0.1518 -0.4894  0.5268
22366WAT     H191269  -0.843   0.656   2.069  0.1938 -0.6009 -1.9216
22366WAT     H291270  -0.932   0.540   2.031 -1.0487 -0.4463  0.3411
22366WAT    EPW91271  -0.921   0.619   2.066 -0.0010 -0.4984  0.1793
22367WAT      O91272   5.914   6.515   2.529  0.4453 -0.1671  0.0122
22367WAT     H191273   5.975   6.475   2.467  0.9897 -0.0446  0.4626
22367WAT     H291274   5.886   6.595   2.486 -2.2017 -1.9176 -1.7955
22367WAT    EPW91275   5.919   6.520   2.515  0.1681 -0.3815 -0.1668
22368WAT      O91276   2.659   7.260   5.330 -0.2836 -0.6504 -0.1125
22368WAT     H191277   2.669   7.348   5.366 -0.9019  0.2803 -2.0692
22368WAT     H291278   2.633   7.207   5.405 -0.3378  0.9126  1.0387
22368WAT    EPW91279   2.657   7.265   5.345 -0.3723 -0.3214 -0.2186
22369WAT      O91280   4.132   2.492   4.638 -0.4879  0.2671  0.7918
22369WAT     H191281   4.209   2.440   4.611 -1.7063 -1.3524  0.2726
22369WAT     H291282   4.141   2.499   4.733 -0.5940 -1.4741  0.9666
22369WAT    EPW91283   4.143   2.486   4.647 -0.6626 -0.1762  0.7465
22370WAT      O91284   7.293   5.600   0.817 -0.1653  0.1144  0.4944
22370WAT     H191285   7.229   5.585   0.887  0.6113  0.1080  1.2080
22370WAT     H291286   7.242   5.642   0.748 -0.9182  0.2516  1.1160
22370WAT    EPW91287   7.278   5.603   0.817 -0.1619  0.1316  0.6705
22371WAT      O91288  -0.507   9.784   8.794 -0.1374 -0.0066  0.9506
22371WAT     H191289  -0.477   9.866   8.832 -1.2140 -0.4733  2.9515
22371WAT     H291290  -0.574   9.752   8.855  0.5989 -2.6240  0.5084
22371WAT    EPW91291  -0.512   9.790   8.807 -0.1823 -0.4134  1.1563
22372WAT      O91292   3.193   7.849   7.383  0.3447  0.2197 -0.0832
22372WAT     H191293   3.108   7.817   7.413 -0.8451  0.6563 -2.7297
22372WAT     H291294   3.244   7.860   7.463 -2.5249  1.2352  1.7492
22372WAT    EPW91295   3.189   7.846   7.398 -0.1907  0.4113 -0.1907
22373WAT      O91296   3.006   1.400   4.564  0.6152 -0.7745 -0.2516
22373WAT     H191297   2.966   1.358   4.489 -0.0768 -0.2161 -0.2054
22373WAT     H291298   3.080   1.450   4.528  0.9828 -1.4203 -0.3998
22373WAT    EPW91299   3.011   1.401   4.550  0.5724 -0.7860 -0.2649
22374WAT      O91300  -1.466   0.251   8.439 -0.1740  0.8482 -0.0391
22374WAT     H191301  -1.463   0.346   8.451  1.8266  0.9119 -0.7005
22374WAT     H291302  -1.452   0.238   8.345  1.7619 -0.1297  0.3346
22374WAT    EPW91303  -1.464   0.262   8.428  0.3452  0.7277 -0.0768
22375WAT      O91304  -1.518   0.654   5.717  0.0532 -0.9615 -0.5308
22375WAT     H191305  -1.594   0.684   5.766 -0.3937 -1.0084 -1.1783
22375WAT     H291306  -1.459   0.729   5.715  0.5545 -1.2813  0.9657
22375WAT    EPW91307  -1.520   0.668   5.723  0.0603 -1.0099 -0.4187
22376WAT      O91308  -1.920   4.590   7.434  0.6816  1.4720 -0.4939
22376WAT     H191309  -2.009   4.603   7.399 -0.3183 -1.0286  0.8563
22376WAT     H291310  -1.925   4.620   7.524  0.6377 -0.3735  0.1483
22376WAT    EPW91311  -1.933   4.596   7.441  0.5440  0.8986 -0.2310
22377WAT      O91312  -2.109   6.508   6.058  0.3038  0.3441  0.4373
22377WAT     H191313  -2.121   6.565   5.981 -1.6403 -0.5500  0.0206
22377WAT     H291314  -2.091   6.422   6.021  0.5273  0.1369  1.0271
22377WAT    EPW91315  -2.108   6.504   6.043  0.0769  0.1988  0.4601
22378WAT      O91316   1.915   4.912   1.203  0.3961  0.1122  0.2371
22378WAT     H191317   1.885   4.827   1.170  2.9324 -0.8727  0.2392
22378WAT     H291318   1.907   4.971   1.129 -0.5098 -0.3397 -0.0441
22378WAT    EPW91319   1.910   4.909   1.189  0.6111 -0.0772  0.2003
22379WAT      O91320   0.180   1.703   8.955 -0.0461 -0.1746  0.1746
22379WAT     H191321   0.255   1.688   8.897 -0.1921  1.7760 -0.5964
22379WAT     H291322   0.209   1.774   9.013 -1.5865  1.3033 -0.7862
22379WAT    EPW91323   0.194   1.710   8.955 -0.2685  0.2776 -0.0539
22380WAT      O91324  -0.322   9.388   7.199  1.1505 -0.1285 -0.0025
22380WAT     H191325  -0.265   9.387   7.122  2.0583 -1.0236  0.6483
22380WAT     H291326  -0.346   9.297   7.213  1.5724 -0.0779  1.1738
22380WAT    EPW91327  -0.318   9.376   7.191  1.3258 -0.2398  0.2387
22381WAT      O91328   4.410   1.893   7.187 -0.6059  0.5802  0.1864
22381WAT     H191329   4.481   1.952   7.163 -0.6915  0.2434 -0.9938
22381WAT     H291330   4.331   1.935   7.151 -0.6583 -0.2680 -0.7373
22381WAT    EPW91331   4.409   1.906   7.179 -0.6244  0.4239 -0.0911
22382WAT      O91332  -1.703   9.062   1.660 -0.0122 -0.1412 -0.5620
22382WAT     H191333  -1.625   9.075   1.714  0.0636 -0.3918 -0.6121
22382WAT     H291334  -1.676   8.998   1.594 -1.3767 -3.3672  1.7784
22382WAT    EPW91335  -1.689   9.055   1.658 -0.1822 -0.5999 -0.2600
22383WAT      O91336  -1.161   9.230   5.923  0.7168  0.0822 -0.3425
22383WAT     H191337  -1.241   9.214   5.873  1.2655  1.3145 -1.6649
22383WAT     H291338  -1.134   9.143   5.953  0.7435 -0.8495 -2.8282
22383WAT    EPW91339  -1.168   9.216   5.920  0.7926  0.1216 -0.8447
22384WAT      O91340  -2.661   2.457   6.942 -0.2832  0.3798  0.2065
22384WAT     H191341  -2.575   2.499   6.937  0.4816 -1.1903 -0.1914
22384WAT     H291342  -2.676   2.447   7.036 -0.2434  1.0543  0.2931
22384WAT    EPW91343  -2.651   2.462   6.954 -0.1770  0.2617  0.1655
22385WAT      O91344   3.125   1.153   3.867 -0.6211 -0.1484  0.1081
22385WAT     H191345   3.070   1.151   3.945 -1.4916  1.0939 -0.4312
22385WAT     H291346   3.205   1.198   3.895 -0.8397  0.0991  0.3363
22385WAT    EPW91347   3.128   1.159   3.881 -0.7647  0.0481  0.0671
22386WAT      O91348   3.039   7.238   4.551  0.2627  0.1418  0.6371
22386WAT     H191349   2.980   7.277   4.616  0.7438  1.2962  0.4121
22386WAT     H291350   3.122   7.229   4.597  0.2739 -0.2179  0.5493
22386WAT    EPW91351   3.042   7.242   4.566  0.3276  0.2468  0.5956
22387WAT      O91352   4.768   7.360   0.207 -0.0342  0.1131  0.2175
22387WAT     H191353   4.721   7.404   0.278 -0.8656  0.9308 -0.8084
22387WAT     H291354   4.848   7.410   0.196  0.6558 -0.6875  1.2965
22387WAT    EPW91355   4.772   7.372   0.215 -0.0527  0.1154  0.2245
22388WAT      O91356   1.264   6.730   7.333 -0.0653 -0.0262  0.1349
22388WAT     H191357   1.196   6.693   7.278 -1.4291  0.3375  1.4994
22388WAT     H291358   1.266   6.673   7.410  1.6123 -0.3730 -0.1112
22388WAT    EPW91359   1.256   6.718   7.336 -0.0240 -0.0241  0.2820
22389WAT      O91360  -0.942   6.750   1.210  0.1464  0.0979 -0.1279
22389WAT     H191361  -0.944   6.702   1.127 -0.3119 -2.7534  1.4375
22389WAT     H291362  -1.002   6.703   1.267  2.9642 -0.1759  2.9322
22389WAT    EPW91363  -0.950   6.738   1.206  0.4576 -0.3142  0.4822
22390WAT      O91364  -6.409   8.349   8.453 -0.0752  0.3171 -0.6175
22390WAT     H191365  -6.332   8.325   8.403  0.1417 -0.3068 -0.0094
22390WAT     H291366  -6.451   8.419   8.402  0.2553 -0.1395 -1.5360
22390WAT    EPW91367  -6.405   8.355   8.440 -0.0031  0.1750 -0.6585
22391WAT      O91368  -3.158   2.621   5.117 -0.2584 -0.5533 -0.0832
22391WAT     H191369  -3.154   2.526   5.126 -1.8672 -0.7260 -0.8985
22391WAT     H291370  -3.249   2.639   5.094 -0.3050  1.3264  1.4029
22391WAT    EPW91371  -3.169   2.611   5.115 -0.4767 -0.3281  0.0052
22392WAT      O91372  -0.314   4.819   5.459 -0.0041 -0.1496  0.5545
22392WAT     H191373  -0.298   4.895   5.515  0.7096 -1.0075  1.5334
22392WAT     H291374  -0.399   4.837   5.419 -0.2457  0.7667  1.4355
22392WAT    EPW91375  -0.323   4.831   5.461  0.0582 -0.1419  0.7999
22393WAT      O91376   6.647   0.261   0.706  0.1073  0.0665  0.5049
22393WAT     H191377   6.646   0.285   0.799 -0.6597 -0.8155  0.7366
22393WAT     H291378   6.558   0.278   0.676  0.2610  0.0029  0.0113
22393WAT    EPW91379   6.635   0.267   0.715  0.0265 -0.0582  0.4703
22394WAT      O91380   7.243   2.643   2.436 -0.0050 -0.5196  0.1329
22394WAT     H191381   7.189   2.610   2.364 -0.2454  2.1761 -1.0569
22394WAT     H291382   7.326   2.666   2.394  0.2259  0.1182  0.9216
22394WAT    EPW91383   7.247   2.642   2.421 -0.0062 -0.0799  0.0800
22395WAT      O91384   1.373   0.037   1.378  0.2530 -0.2209 -0.5009
22395WAT     H191385   1.453   0.065   1.333  0.2377 -1.8864 -1.6440
22395WAT     H291386   1.393   0.047   1.471  1.5667 -0.0044 -0.7921
22395WAT    EPW91387   1.386   0.042   1.384  0.4242 -0.4120 -0.6901
22396WAT      O91388   5.305   6.644   1.458 -0.3324 -0.5370 -0.2151
22396WAT     H191389   5.306   6.610   1.369 -1.9298 -3.0353  0.6185
22396WAT     H291390   5.384   6.609   1.498 -0.1841 -0.3379 -0.3334
22396WAT    EPW91391   5.315   6.635   1.451 -0.5236 -0.8399 -0.1208
22397WAT      O91392   0.713   6.483   7.446  1.1427 -0.2492 -0.0983
22397WAT     H191393   0.723   6.476   7.351 -2.8547  0.5837 -0.7731
22397WAT     H291394   0.668   6.402   7.471 -0.2452  0.6747  0.5490
22397WAT    EPW91395   0.708   6.471   7.436  0.4324 -0.0174 -0.1018
22398WAT      O91396  -0.669   1.751   3.941  0.6526  0.1252 -0.1478
22398WAT     H191397  -0.764   1.749   3.926  0.5811  1.7075 -0.0260
22398WAT     H291398  -0.657   1.702   4.022 -0.3142  1.6676  0.9754
22398WAT    EPW91399  -0.680   1.744   3.950  0.5157  0.5373  0.0165
22399WAT      O91400   1.533   2.004   3.467 -0.4065 -0.3033 -0.1734
22399WAT     H191401   1.458   1.946   3.481 -0.3400 -0.9514 -2.1180
22399WAT     H291402   1.606   1.960   3.510 -0.8940 -0.2959  0.6718
22399WAT    EPW91403   1.532   1.991   3.474 -0.4621 -0.3878 -0.3184
22400WAT      O91404   5.215   0.865   5.837  0.6189 -0.2322 -0.1303
22400WAT     H191405   5.140   0.882   5.894 -0.1536 -1.0887 -0.8674
22400WAT     H291406   5.259   0.950   5.830  0.9336 -0.1779  1.9765
22400WAT    EPW91407   5.211   0.879   5.844  0.5584 -0.3380  0.0503
22401WAT      O91408   0.582   4.103   5.005  0.3683  0.1388 -0.8777
22401WAT     H191409   0.668   4.070   5.031 -0.1812 -1.3567 -0.8611
22401WAT     H291410   0.522   4.031   5.024 -0.9630  1.2997 -0.5062
22401WAT    EPW91411   0.585   4.089   5.011  0.1202  0.0947 -0.8264
22402WAT      O91412   3.696   0.228   6.266 -0.0045  0.4475  0.4887
22402WAT     H191413   3.662   0.317   6.275  0.7574  0.6485  1.5391
22402WAT     H291414   3.620   0.176   6.240 -0.4489  1.4007 -0.1913
22402WAT    EPW91415   3.681   0.233   6.264  0.0374  0.5998  0.5374
22403WAT      O91416   6.388   4.311   3.188  0.3084 -0.0013  0.7928
22403WAT     H191417   6.375   4.361   3.269  2.1341 -0.4018  1.3791
22403WAT     H291418   6.352   4.224   3.208 -1.2117  0.4972  0.3906
22403WAT    EPW91419   6.381   4.306   3.202  0.3490  0.0117  0.8172
22404WAT      O91420   7.803   2.565   0.870 -0.2455 -0.0577 -0.6548
22404WAT     H191421   7.808   2.651   0.911  1.6743  0.4340 -1.7404
22404WAT     H291422   7.715   2.533   0.889  0.5417 -0.0379  4.0220
22404WAT    EPW91423   7.792   2.572   0.878  0.1118  0.0098 -0.1811
22405WAT      O91424   0.293   8.870   6.076  0.4471  0.0862 -0.2168
22405WAT     H191425   0.303   8.803   6.144  0.8813  1.0467  0.7043
22405WAT     H291426   0.347   8.838   6.004 -1.1725 -1.6822 -0.7471
22405WAT    EPW91427   0.302   8.857   6.076  0.2907 -0.0205 -0.1652
22406WAT      O91428  -0.149  10.347   1.641  0.3178 -0.2520 -0.7255
22406WAT     H191429  -0.072  10.296   1.668 -1.5757 -3.8046 -1.3325
22406WAT     H291430  -0.151  10.338   1.545 -0.6016  0.1489 -0.7552
22406WAT    EPW91431  -0.139  10.339   1.632 -0.0532 -0.6676 -0.8095
22407WAT      O91432   2.171   9.117   3.939 -0.1019 -0.3571 -0.4369
22407WAT     H191433   2.133   9.051   3.881 -0.9692 -0.7383  0.5440
22407WAT     H291434   2.143   9.092   4.027 -0.7550  1.5107 -0.0578
22407WAT    EPW91435   2.162   9.105   3.943 -0.3024 -0.1612 -0.2576
22408WAT      O91436   4.573   9.155   2.887 -1.4938  0.6758 -0.0642
22408WAT     H191437   4.589   9.080   2.944 -0.4114  0.1056 -1.0685
22408WAT     H291438   4.541   9.224   2.945 -3.1653 -0.7582  0.7837
22408WAT    EPW91439   4.571   9.154   2.902 -1.5714  0.4115 -0.0849
22409WAT      O91440  -0.971   7.658   1.599  1.2017 -0.5701  0.2016
22409WAT     H191441  -1.035   7.722   1.569  0.2591 -1.4491  0.2753
22409WAT     H291442  -0.910   7.649   1.526  0.8864 -0.1915 -0.1161
22409WAT    EPW91443  -0.971   7.665   1.586  1.0357 -0.6361  0.1694
22410WAT      O91444   0.467   4.146   1.407 -0.2151  0.0271 -0.1286
22410WAT     H191445   0.431   4.165   1.494 -1.6644 -0.9480 -0.4739
22410WAT     H291446   0.557   4.119   1.423 -1.2068 -2.7520  1.4273
22410WAT    EPW91447   0.474   4.145   1.421 -0.5371 -0.4678  0.0310
22411WAT      O91448   4.152   2.237   7.309  0.1881 -0.0014 -0.3538
22411WAT     H191449   4.120   2.148   7.295  2.4027 -0.7090 -1.3722
22411WAT     H291450   4.120   2.286   7.234  0.4417 -0.3957 -0.7280
22411WAT    EPW91451   4.144   2.231   7.297  0.5136 -0.1467 -0.5372
22412WAT      O91452   0.305   0.600   2.773  0.3786 -0.0103 -0.0404
22412WAT     H191453   0.226   0.565   2.731  1.1566 -3.2599  0.9205
22412WAT     H291454   0.279   0.616   2.863  0.4675  0.2590 -0.0626
22412WAT    EPW91455   0.291   0.597   2.779  0.4929 -0.4034  0.0834
22413WAT      O91456   1.863   8.145   6.755  0.0213 -0.2968  0.4508
22413WAT     H191457   1.837   8.235   6.773  1.9158  0.2074  0.8939
22413WAT     H291458   1.868   8.103   6.841  1.7970 -0.0158  0.5181
22413WAT    EPW91459   1.860   8.151   6.768  0.5053 -0.1931  0.5181
22414WAT      O91460  -1.121   6.869   4.338  0.0253  0.3936  0.1417
22414WAT     H191461  -1.099   6.779   4.316 -1.3071 -0.0071  0.3898
22414WAT     H291462  -1.076   6.885   4.421 -1.5848 -0.8419  1.3176
22414WAT    EPW91463  -1.112   6.859   4.346 -0.3628  0.1779  0.3295
22415WAT      O91464   6.504   5.909   0.307 -0.8286 -0.9460  0.3191
22415WAT     H191465   6.533   5.840   0.247  0.6177 -0.0818 -0.0451
22415WAT     H291466   6.534   5.880   0.393  2.5424  0.5056 -0.2003
22415WAT    EPW91467   6.512   5.896   0.311 -0.1934 -0.6402  0.2026
22416WAT      O91468   1.315   9.547   7.835  1.0013  0.8167 -0.3859
22416WAT     H191469   1.351   9.596   7.908  0.9566 -1.3808  1.2381
22416WAT     H291470   1.249   9.489   7.875  1.3452 -0.8440 -2.0517
22416WAT    EPW91471   1.311   9.546   7.850  1.0408  0.3080 -0.3915
22417WAT      O91472   1.092   2.503   6.019 -0.8203 -0.5085  0.2800
22417WAT     H191473   1.169   2.553   5.991 -0.6631 -0.7515  0.2719
22417WAT     H291474   1.122   2.412   6.019 -1.5198 -0.7687 -1.1578
22417WAT    EPW91475   1.106   2.497   6.015 -0.8919 -0.5749  0.0892
22418WAT      O91476   1.703   6.342   0.233 -0.1986  0.1455 -0.0769
22418WAT     H191477   1.667   6.271   0.286 -0.6667 -1.9872 -2.9845
22418WAT     H291478   1.794   6.317   0.220  0.2696  1.3515  0.7414
22418WAT    EPW91479   1.710   6.329   0.238 -0.1986  0.0234 -0.3525
22419WAT      O91480   5.568   5.911   1.641 -0.3517  0.3861 -0.1389
22419WAT     H191481   5.563   6.003   1.667 -0.0634  0.2064  0.5564
22419WAT     H291482   5.549   5.862   1.721  1.3375 -0.1844 -0.0451
22419WAT    EPW91483   5.565   5.916   1.655 -0.0908  0.2871 -0.0349
22420WAT      O91484  -5.747   9.240   4.983  0.0248 -0.4733 -0.4560
22420WAT     H191485  -5.731   9.291   4.904 -1.4759  0.5841 -0.1295
22420WAT     H291486  -5.833   9.199   4.969 -0.2563 -0.2878  0.6060
22420WAT    EPW91487  -5.756   9.241   4.971 -0.2105 -0.3095 -0.2728
22421WAT      O91488   2.122   2.788   8.431  0.1246  0.0529  0.0424
22421WAT     H191489   2.144   2.839   8.353 -2.1633 -0.1452 -0.8098
22421WAT     H291490   2.120   2.853   8.502 -1.0100  0.8874 -0.7021
22421WAT    EPW91491   2.125   2.804   8.430 -0.3268  0.1369 -0.1683
22422WAT      O91492   5.781   5.612   2.984 -0.0376  0.1701 -0.1293
22422WAT     H191493   5.733   5.616   2.901 -1.0990 -0.7647  0.4150
22422WAT     H291494   5.865   5.572   2.962  0.1294  0.9206 -0.9198
22422WAT    EPW91495   5.786   5.608   2.970 -0.1557  0.1454 -0.1618
22423WAT      O91496  -0.299   8.357   4.696  0.4473  0.0406  0.7004
22423WAT     H191497  -0.394   8.354   4.706  0.3670 -1.1259 -0.2159
22423WAT     H291498  -0.270   8.416   4.765 -1.0152  1.1276  0.4358
22423WAT    EPW91499  -0.308   8.364   4.707  0.2438  0.0300  0.5445
22424WAT      O91500  -1.570   5.782   8.850 -0.0468 -0.3319 -0.4566
22424WAT     H191501  -1.510   5.728   8.799  2.0275  0.0149  1.4349
22424WAT     H291502  -1.538   5.775   8.940 -1.9355  1.1272  0.4034
22424WAT    EPW91503  -1.558   5.774   8.855 -0.0224 -0.0937 -0.0939
22425WAT      O91504   1.256   8.254   6.908  0.1461 -0.3468 -0.2986
22425WAT     H191505   1.349   8.270   6.887 -0.1409  0.1351 -1.2801
22425WAT     H291506   1.226   8.195   6.839 -0.4857  0.1639 -0.4659
22425WAT    EPW91507   1.265   8.249   6.896  0.0249 -0.2160 -0.4504
22426WAT      O91508   5.093   1.163   5.280  0.1189  0.8822 -0.1310
22426WAT     H191509   5.131   1.081   5.251  0.5135  1.0766 -0.1650
22426WAT     H291510   5.135   1.181   5.364 -1.5762 -0.0777  0.9986
22426WAT    EPW91511   5.103   1.155   5.287 -0.0527  0.7812  0.0136
22427WAT      O91512  -4.612   3.783   8.447  0.0657  0.0379 -0.2837
22427WAT     H191513  -4.708   3.792   8.448 -0.2774 -2.5747  0.8117
22427WAT     H291514  -4.591   3.762   8.356 -0.6882 -1.1663 -0.2066
22427WAT    EPW91515  -4.622   3.781   8.435 -0.0789 -0.4655 -0.1292
22428WAT      O91516  -1.196   5.381   6.767 -0.3493 -0.5236  0.0132
22428WAT     H191517  -1.103   5.377   6.745 -0.7784 -1.1152 -1.8835
22428WAT     H291518  -1.239   5.330   6.699 -2.4049  2.6024 -1.2734
22428WAT    EPW91519  -1.189   5.374   6.755 -0.6769 -0.1895 -0.4065
22429WAT      O91520  -1.844   9.898   8.510  0.2069  0.2826  0.2023
22429WAT     H191521  -1.915   9.962   8.516 -0.2160 -0.0835 -0.7664
22429WAT     H291522  -1.768   9.948   8.481 -0.0596  0.3903 -0.3129
22429WAT    EPW91523  -1.844   9.913   8.507  0.1159  0.2480  0.0067
22430WAT      O91524   2.349   2.037   4.807 -0.1898 -0.1907  0.0880
22430WAT     H191525   2.373   2.058   4.897 -1.4771  0.9683  0.2004
22430WAT     H291526   2.255   2.019   4.811 -0.4747  0.8557 -1.1637
22430WAT    EPW91527   2.339   2.037   4.819 -0.3971  0.1003 -0.0622
22431WAT      O91528   1.209   8.905   7.137 -0.4924  0.2352 -0.7916
22431WAT     H191529   1.155   8.969   7.090 -0.1239 -0.9357 -2.9461
22431WAT     H291530   1.146   8.841   7.170 -0.6485  0.3990 -0.7683
22431WAT    EPW91531   1.193   8.905   7.135 -0.4644  0.1025 -1.0726
22432WAT      O91532  -4.321   7.682   6.347  0.2179  0.5303  0.3474
22432WAT     H191533  -4.270   7.708   6.270 -0.5778 -0.8040 -0.6971
22432WAT     H291534  -4.259   7.635   6.402  0.2753 -0.7109 -0.7124
22432WAT    EPW91535  -4.306   7.679   6.344  0.1204  0.1903  0.0699
22433WAT      O91536   0.577   9.991   3.560  0.0493 -0.0166 -0.6351
22433WAT     H191537   0.525   9.965   3.483 -0.4312  0.7075 -0.5701
22433WAT     H291538   0.525   9.962   3.635 -1.0231  2.0074 -0.5393
22433WAT    EPW91539   0.563   9.984   3.560 -0.1556  0.3457 -0.6139
22434WAT      O91540  -0.575   4.366   7.049  0.0786  0.3700  0.4242
22434WAT     H191541  -0.548   4.419   6.974  1.8119 -0.3644  0.4926
22434WAT     H291542  -0.587   4.278   7.013 -0.6082  0.3281  0.7341
22434WAT    EPW91543  -0.573   4.361   7.034  0.2166  0.2675  0.4740
22435WAT      O91544  -2.468   7.721   0.146 -0.7984  0.0520  0.0819
22435WAT     H191545  -2.469   7.815   0.126 -0.9892 -0.0533 -0.3966
22435WAT     H291546  -2.384   7.708   0.191  0.0381  0.1495 -1.3681
22435WAT    EPW91547  -2.457   7.732   0.149 -0.7132  0.0508 -0.1725
22436WAT      O91548  -0.642   1.519   0.859  0.2322 -0.6773  0.5156
22436WAT     H191549  -0.705   1.589   0.842 -2.6061 -2.2767  3.3173
22436WAT     H291550  -0.621   1.527   0.952 -1.2206 -4.0902  1.3322
22436WAT    EPW91551  -0.648   1.529   0.869 -0.3338 -1.3384  0.9928
22437WAT      O91552   6.766   0.471   2.223 -0.2596  0.3502  0.1442
22437WAT     H191553   6.832   0.511   2.279 -0.0808  1.1571 -0.6091
22437WAT     H291554   6.696   0.536   2.217  0.1651  0.7010 -1.3395
22437WAT    EPW91555   6.765   0.485   2.229 -0.1798  0.5029 -0.1508
22438WAT      O91556  -0.360   1.790   4.149 -0.7949 -0.2760 -0.1529
22438WAT     H191557  -0.389   1.835   4.069 -1.3732  0.1342  0.2764
22438WAT     H291558  -0.295   1.727   4.119 -3.8420 -3.0314 -1.5895
22438WAT    EPW91559  -0.356   1.787   4.135 -1.2731 -0.5853 -0.2856
22439WAT      O91560  -1.538   5.750   6.733 -0.3022  0.8101 -0.4950
22439WAT     H191561  -1.621   5.722   6.773  0.2289 -0.5174 -0.2751
22439WAT     H291562  -1.474   5.741   6.803  0.1252  1.2835 -0.8249
22439WAT    EPW91563  -1.541   5.745   6.747 -0.1758  0.6976 -0.5093
22440WAT      O91564   0.634   4.046   1.023  0.4809  0.3956 -0.7897
22440WAT     H191565   0.727   4.060   1.042  0.4947  0.2452 -0.7511
22440WAT     H291566   0.590   4.119   1.066  0.3225 -0.9410  1.4480
22440WAT    EPW91567   0.640   4.058   1.031  0.4618  0.1996 -0.4895
22441WAT      O91568   3.136   9.644   0.356  0.6339 -0.8297 -0.5469
22441WAT     H191569   3.088   9.589   0.418 -2.6811  1.3499 -0.9110
22441WAT     H291570   3.111   9.610   0.270  3.1777 -2.2410 -0.8009
22441WAT    EPW91571   3.126   9.632   0.353  0.5322 -0.7286 -0.6284
22442WAT      O91572   0.880   8.012   8.475 -0.0227 -0.2252  0.2609
22442WAT     H191573   0.958   7.959   8.458  0.3411  0.1813  0.6692
22442WAT     H291574   0.883   8.032   8.568 -0.1430  0.5311  0.1122
22442WAT    EPW91575   0.891   8.008   8.485  0.0095 -0.0720  0.2947
22443WAT      O91576   1.221   6.705   4.862 -0.6995  0.1549  0.1372
22443WAT     H191577   1.249   6.617   4.835 -1.0574  0.6237 -1.9734
22443WAT     H291578   1.277   6.764   4.811 -0.9083  1.1472  1.0351
22443WAT    EPW91579   1.232   6.701   4.852 -0.7743  0.3476 -0.0226
22444WAT      O91580   3.002   4.805   0.881  0.4645 -0.6480  0.6028
22444WAT     H191581   2.960   4.832   0.963  1.8838 -0.3493  1.2651
22444WAT     H291582   3.043   4.721   0.902  0.9710 -0.4957  0.2559
22444WAT    EPW91583   3.002   4.797   0.895  0.7185 -0.5884  0.6444
22445WAT      O91584  -3.677   7.334   6.202  0.4264 -0.4526 -0.1915
22445WAT     H191585  -3.611   7.354   6.135  1.1285  1.2073  0.9165
22445WAT     H291586  -3.746   7.289   6.155  2.2806 -2.1695 -1.4417
22445WAT    EPW91587  -3.677   7.331   6.187  0.7635 -0.4601 -0.2105
22446WAT      O91588   5.080   4.440   0.937 -0.3546  0.0484 -1.2963
22446WAT     H191589   5.108   4.529   0.915  0.2853  0.9777  2.5998
22446WAT     H291590   5.155   4.401   0.981 -1.5826 -1.3712 -0.3472
22446WAT    EPW91591   5.094   4.447   0.940 -0.4323 -0.0165 -0.6573
22447WAT      O91592  -1.528   9.589   1.564 -0.8475 -0.3242 -0.2195
22447WAT     H191593  -1.511   9.497   1.585  0.0752 -0.2423 -0.5577
22447WAT     H291594  -1.468   9.638   1.621 -1.5479  0.0881  0.1780
22447WAT    EPW91595  -1.518   9.584   1.574 -0.8181 -0.2589 -0.2116
22448WAT      O91596   0.728   9.112   0.328  0.4521 -0.0036 -0.3550
22448WAT     H191597   0.804   9.113   0.270 -0.7318  1.7657 -1.9802
22448WAT     H291598   0.739   9.188   0.385  0.3817 -0.3066  0.0699
22448WAT    EPW91599   0.739   9.122   0.328  0.2866  0.1898 -0.5133
22449WAT      O91600  -0.862   5.076   6.841  0.0207  0.7061 -0.2501
22449WAT     H191601  -0.789   5.028   6.802  0.5443  0.6243  0.7941
22449WAT     H291602  -0.834   5.092   6.931 -0.9680  1.2767 -0.0357
22449WAT    EPW91603  -0.849   5.072   6.848 -0.0407  0.7708 -0.0839
22450WAT      O91604  -5.520   9.003   8.013  0.0888 -0.6598  0.2414
22450WAT     H191605  -5.583   8.938   8.046 -1.9281  1.0806  0.0083
22450WAT     H291606  -5.530   9.000   7.918 -0.1900  0.0967  0.2354
22450WAT    EPW91607  -5.530   8.994   8.005 -0.2141 -0.3309  0.2098
22451WAT      O91608   5.181   0.405   2.583  0.2588  0.3448 -0.1628
22451WAT     H191609   5.260   0.376   2.538 -0.0936 -0.4611 -0.2943
22451WAT     H291610   5.187   0.364   2.670 -0.1065  0.1095 -0.2461
22451WAT    EPW91611   5.192   0.395   2.589  0.1640  0.2075 -0.1911
22452WAT      O91612  -1.795   5.498   7.049  0.2234  0.0602  0.1340
22452WAT     H191613  -1.778   5.468   6.960 -0.6905 -0.8673  0.2465
22452WAT     H291614  -1.885   5.530   7.048  0.7115  1.5423  0.3704
22452WAT    EPW91615  -1.805   5.498   7.037  0.1673  0.1333  0.1800
22453WAT      O91616   3.806   8.297   5.014 -0.0762 -0.1076  0.0886
22453WAT     H191617   3.781   8.266   5.101 -1.2268 -2.8670 -1.1053
22453WAT     H291618   3.723   8.302   4.966  0.7011 -0.3355 -1.3222
22453WAT    EPW91619   3.792   8.293   5.019 -0.1254 -0.5021 -0.2549
22454WAT      O91620   2.174   8.492   1.128 -0.2670  0.4536  0.3402
22454WAT     H191621   2.088   8.529   1.109 -0.3044  0.7699  1.0831
22454WAT     H291622   2.214   8.554   1.188  0.6937  0.5668 -0.3986
22454WAT    EPW91623   2.168   8.505   1.133 -0.1452  0.5107  0.3408
22455WAT      O91624   2.426   1.574   0.476  0.1085  0.7655 -0.1313
22455WAT     H191625   2.413   1.601   0.385 -0.8170  1.2169  0.1156
22455WAT     H291626   2.474   1.646   0.516 -2.9956  2.5407  0.7116
22455WAT    EPW91627   2.430   1.587   0.469 -0.4230  1.0592  0.0124
22456WAT      O91628   3.774   2.592   3.600 -0.7461 -0.3491 -0.5895
22456WAT     H191629   3.833   2.627   3.666 -0.3717  1.8019 -1.9766
22456WAT     H291630   3.692   2.641   3.612 -0.5666  0.3112 -1.9001
22456WAT    EPW91631   3.771   2.603   3.610 -0.6731  0.0218 -0.9453
22457WAT      O91632   0.044   7.991   8.526  0.2211  0.3227  0.2224
22457WAT     H191633  -0.050   8.006   8.524  0.1491  0.0640  1.1785
22457WAT     H291634   0.078   8.045   8.455 -0.7299 -0.2705 -0.7132
22457WAT    EPW91635   0.036   8.000   8.517  0.0862  0.2103  0.2255
22458WAT      O91636   0.875   9.135   2.178 -0.6373  0.3763 -0.5303
22458WAT     H191637   0.820   9.196   2.129  0.1171  1.6783  0.1974
22458WAT     H291638   0.862   9.051   2.134 -1.1947  1.1804 -1.9840
22458WAT    EPW91639   0.866   9.132   2.165 -0.6113  0.6542 -0.6261
22459WAT      O91640  -3.424   0.225   6.036 -0.3405  0.7578 -1.1072
22459WAT     H191641  -3.420   0.239   6.131  0.9450  1.8813 -1.2975
22459WAT     H291642  -3.476   0.145   6.026  0.9159 -0.3367  0.6248
22459WAT    EPW91643  -3.431   0.216   6.047 -0.0051  0.7616 -0.9036
22460WAT      O91644   1.517   6.100   3.910  0.7488  1.1367  0.2335
22460WAT     H191645   1.528   6.015   3.867 -1.2983  1.1345 -0.3713
22460WAT     H291646   1.606   6.125   3.936  1.6224 -0.3534 -1.1426
22460WAT    EPW91647   1.530   6.092   3.908  0.5940  0.9398 -0.0278
22461WAT      O91648   3.089  10.364   2.894 -0.1229  0.1872  0.6019
22461WAT     H191649   3.117  10.430   2.957 -1.3357  0.2371  1.1144
22461WAT     H291650   3.059  10.291   2.948  0.0980 -0.3186  0.0572
22461WAT    EPW91651   3.089  10.363   2.909 -0.2538  0.1268  0.5978
22462WAT      O91652  -3.612   5.491   4.314 -0.2673 -0.0258 -0.4116
22462WAT     H191653  -3.682   5.532   4.366 -1.8305 -2.3256 -0.5604
22462WAT     H291654  -3.659   5.447   4.243  1.5977  0.5684 -2.0858
22462WAT    EPW91655  -3.628   5.491   4.312 -0.2275 -0.2508 -0.6521
22463WAT      O91656  -4.130   9.598   1.891  0.7812 -0.3565 -0.7775
22463WAT     H191657  -4.091   9.592   1.804 -0.9632  1.2231 -1.7451
22463WAT     H291658  -4.216   9.555   1.882  1.4283 -2.1061  0.7865
22463WAT    EPW91659  -4.137   9.592   1.879  0.6363 -0.3786 -0.6989
22464WAT      O91660   2.788   6.115   3.740  0.0959  0.6197  0.0223
22464WAT     H191661   2.776   6.141   3.832  1.5695  1.3620  0.0446
22464WAT     H291662   2.708   6.067   3.718  0.1246 -0.4742  1.9993
22464WAT    EPW91663   2.776   6.112   3.749  0.2940  0.5732  0.2860
22465WAT      O91664  -2.381   6.707   2.279 -0.5631 -0.3110 -0.4426
22465WAT     H191665  -2.469   6.732   2.249 -0.5817  0.1138 -0.0376
22465WAT     H291666  -2.394   6.677   2.369 -0.3508 -0.6259 -0.5148
22465WAT    EPW91667  -2.395   6.706   2.287 -0.5376 -0.2964 -0.3988
22466WAT      O91668   6.859   5.155   0.033  0.2263  0.7216 -0.0635
22466WAT     H191669   6.818   5.069   0.045  2.2887 -0.0059  3.5508
22466WAT     H291670   6.939   5.136  -0.016  0.0218  0.7891 -0.4189
22466WAT    EPW91671   6.864   5.141   0.028  0.4711  0.6344  0.3663
22467WAT      O91672  -2.178   7.578   0.987 -0.6407  0.3299  0.0577
22467WAT     H191673  -2.139   7.617   1.065 -1.1993  0.7851  0.1200
22467WAT     H291674  -2.104   7.562   0.928 -0.1777 -0.3190  0.8008
22467WAT    EPW91675  -2.163   7.581   0.990 -0.6533  0.3045  0.1640
22468WAT      O91676   1.574   7.995   1.068  0.0477 -0.6677  0.6768
22468WAT     H191677   1.534   7.984   1.154  2.8162 -1.0417  2.0093
22468WAT     H291678   1.598   7.907   1.040  0.0660 -0.4470 -0.0440
22468WAT    EPW91679   1.572   7.982   1.075  0.4153 -0.6878  0.7575
22469WAT      O91680  -0.415   9.052   3.378  0.4693 -1.0153 -0.2627
22469WAT     H191681  -0.499   9.062   3.424  0.5745 -1.9719  0.1728
22469WAT     H291682  -0.351   9.044   3.448  0.5809 -2.9438 -0.5280
22469WAT    EPW91683  -0.418   9.052   3.393  0.4979 -1.3957 -0.2402
22470WAT      O91684  -1.133   2.767   2.716 -0.4799  0.6620 -0.0617
22470WAT     H191685  -1.133   2.688   2.771 -1.4531 -0.3956 -1.5185
22470WAT     H291686  -1.208   2.756   2.658  1.7366  0.6443 -3.1366
22470WAT    EPW91687  -1.143   2.755   2.716 -0.3159  0.5201 -0.6593
22471WAT      O91688   0.705   7.081   2.434  0.1841 -0.5738  0.5925
22471WAT     H191689   0.716   6.987   2.419  1.1346 -0.7339  2.1734
22471WAT     H291690   0.685   7.116   2.347  2.2655 -1.8850 -0.4901
22471WAT    EPW91691   0.704   7.073   2.420  0.5840 -0.7679  0.6582
22472WAT      O91692   7.802   6.589   0.133  0.3487  1.4060 -0.1543
22472WAT     H191693   7.721   6.541   0.114  1.5167 -0.1104 -1.5262
22472WAT     H291694   7.772   6.679   0.151 -1.7821  0.4596  1.3859
22472WAT    EPW91695   7.787   6.595   0.133  0.2217  1.0812 -0.1321
22473WAT      O91696   1.896   7.047   5.477  0.4539  1.0265 -0.2716
22473WAT     H191697   1.938   7.130   5.456  1.4485  0.6578  0.1848
22473WAT     H291698   1.905   6.994   5.397  2.0646  0.4917  0.2087
22473WAT    EPW91699   1.903   7.051   5.464  0.7976  0.9074 -0.1483
22474WAT      O91700  -0.019   7.887   4.001 -0.5517  0.6169  0.3601
22474WAT     H191701   0.065   7.894   4.047 -0.9727 -0.5357  1.3716
22474WAT     H291702   0.004   7.861   3.912  0.1947  0.8846  0.4689
22474WAT    EPW91703  -0.005   7.884   3.995 -0.5088  0.5000  0.5077
22475WAT      O91704  -1.890   6.018   1.044  0.8954  0.0372 -0.2273
22475WAT     H191705  -1.870   6.007   1.137 -1.9208 -2.0881  0.2494
22475WAT     H291706  -1.940   6.100   1.040 -0.1650 -0.5597  0.3928
22475WAT    EPW91707  -1.894   6.027   1.056  0.3840 -0.3221 -0.0827
22476WAT      O91708  -5.193   7.239   5.771 -0.6532 -0.3186  0.2040
22476WAT     H191709  -5.167   7.245   5.863 -0.9106  0.5096  0.2328
22476WAT     H291710  -5.258   7.309   5.760  1.8711  1.9575 -1.4459
22476WAT    EPW91711  -5.198   7.249   5.782 -0.3541  0.0908 -0.0098
22477WAT      O91712  -2.653   8.562   4.971  0.0277 -0.3989  0.5364
22477WAT     H191713  -2.689   8.638   4.925 -1.6888 -0.9199  0.9518
22477WAT     H291714  -2.671   8.488   4.913  1.0234 -0.6110  0.4728
22477WAT    EPW91715  -2.660   8.562   4.957 -0.0674 -0.4954  0.5827
22478WAT      O91716   6.000  10.193   0.390  0.0083 -0.0782 -1.1087
22478WAT     H191717   5.998  10.104   0.356 -1.1687  0.2915 -2.0553
22478WAT     H291718   5.929  10.239   0.345 -0.7376  0.8136  0.8264
22478WAT    EPW91719   5.991  10.188   0.380 -0.2453  0.0882 -0.9784
22479WAT      O91720   0.731   9.142   8.647 -0.4405  0.5099 -0.0083
22479WAT     H191721   0.751   9.214   8.707 -0.7193 -0.7055  1.6345
22479WAT     H291722   0.777   9.067   8.685 -2.8688 -0.9311  0.2831
22479WAT    EPW91723   0.740   9.142   8.660 -0.7975  0.1593  0.2470
22480WAT      O91724  -5.756   7.550   8.056 -0.4534  0.5081  0.0479
22480WAT     H191725  -5.789   7.521   7.971  2.0054  0.0243 -0.8106
22480WAT     H291726  -5.829   7.535   8.116 -1.7267 -0.6024 -1.6908
22480WAT    EPW91727  -5.770   7.544   8.052 -0.2971  0.2978 -0.2947
22481WAT      O91728   9.014   3.764   0.439 -0.0516 -0.4444 -0.5296
22481WAT     H191729   9.004   3.707   0.363 -0.5342 -1.8909  0.5731
22481WAT     H291730   8.937   3.820   0.437 -0.8181 -1.4646 -0.3213
22481WAT    EPW91731   9.003   3.764   0.429 -0.2165 -0.7697 -0.3567
22482WAT      O91732  -4.581   9.702   2.286 -0.2814 -1.1672 -0.0848
22482WAT     H191733  -4.647   9.746   2.233  3.0260  1.6153 -2.3388
22482WAT     H291734  -4.562   9.621   2.238 -0.3639 -0.7929 -0.7528
22482WAT    EPW91735  -4.587   9.697   2.273  0.1440 -0.7505 -0.4703
22483WAT      O91736  -0.965   0.032   7.928  0.2422  0.2540  0.6999
22483WAT     H191737  -1.017   0.108   7.900  2.0861  0.6410 -2.0347
22483WAT     H291738  -0.928  -0.003   7.848  2.0959 -1.5960  2.2509
22483WAT    EPW91739  -0.967   0.038   7.914  0.7299  0.0611  0.5436
22484WAT      O91740   4.600   8.224   0.186 -1.3787  0.3403  0.2104
22484WAT     H191741   4.580   8.196   0.097 -1.2951 -1.6992  0.7873
22484WAT     H291742   4.687   8.189   0.204 -1.5477  0.3844  1.2088
22484WAT    EPW91743   4.609   8.216   0.177 -1.3900  0.0772  0.4182
22485WAT      O91744  -1.366   5.725   5.296  0.2400 -0.0076 -0.0085
22485WAT     H191745  -1.367   5.708   5.201  1.5456 -0.9090  0.1108
22485WAT     H291746  -1.443   5.779   5.311  0.8802  1.5648 -1.8509
22485WAT    EPW91747  -1.376   5.730   5.285  0.4966  0.0811 -0.2358
22486WAT      O91748   1.995   9.930   6.424 -0.2244 -0.5188 -0.1817
22486WAT     H191749   2.026   9.852   6.378 -0.0097 -0.9334  0.6359
22486WAT     H291750   2.011  10.002   6.363 -3.1863 -1.3910 -2.2304
22486WAT    EPW91751   2.001   9.930   6.410 -0.5867 -0.6886 -0.3440
22487WAT      O91752  -2.122   8.977   3.993  0.0402  0.1195  0.2889
22487WAT     H191753  -2.100   8.915   3.924  0.5086 -0.2963  0.7997
22487WAT     H291754  -2.212   9.003   3.974  0.3755  0.5021 -0.8351
22487WAT    EPW91755  -2.131   8.972   3.982  0.1462  0.1149  0.2080
22488WAT      O91756  -5.805   4.500   7.311 -0.6817  0.3157 -0.7198
22488WAT     H191757  -5.890   4.481   7.351 -0.6581  2.5457  0.5529
22488WAT     H291758  -5.761   4.558   7.373  1.4918 -0.1817 -1.6952
22488WAT    EPW91759  -5.810   4.505   7.324 -0.3920  0.5441 -0.6807
22489WAT      O91760   3.499   4.524   2.276  0.2457 -0.6553 -0.3497
22489WAT     H191761   3.578   4.576   2.290  1.7473 -2.8331 -0.4062
22489WAT     H291762   3.481   4.532   2.183 -0.1352  0.5190 -0.1984
22489WAT    EPW91763   3.507   4.532   2.266  0.3935 -0.7875 -0.3372
22490WAT      O91764   4.044   2.799   7.606  0.6102 -0.1221 -0.0141
22490WAT     H191765   3.970   2.793   7.667 -0.4159 -1.4494 -1.3326
22490WAT     H291766   4.112   2.842   7.657 -0.5524 -0.2164  1.7352
22490WAT    EPW91767   4.043   2.804   7.621  0.3214 -0.3096  0.0427
22491WAT      O91768   2.478   5.919   4.012 -0.0938 -0.5333  0.0478
22491WAT     H191769   2.500   5.831   4.043  0.1399  0.1730  1.9851
22491WAT     H291770   2.460   5.969   4.091 -1.5149  0.8535 -1.0788
22491WAT    EPW91771   2.478   5.914   4.027 -0.2503 -0.2573  0.1550
22492WAT      O91772   0.225   4.415   4.592  0.5827  0.4092 -0.3688
22492WAT     H191773   0.301   4.443   4.643  1.1532 -0.7684 -0.5318
22492WAT     H291774   0.260   4.394   4.505  0.1538 -0.5183 -0.3320
22492WAT    EPW91775   0.240   4.416   4.587  0.6014  0.1314 -0.3853
22493WAT      O91776   6.643   3.203   1.722 -0.0038 -0.0332  0.1707
22493WAT     H191777   6.654   3.116   1.760  0.6619 -0.0730 -0.1035
22493WAT     H291778   6.677   3.262   1.790 -1.3773  0.0905  0.7712
22493WAT    EPW91779   6.649   3.199   1.736 -0.0973 -0.0222  0.2137
22494WAT      O91780   4.826   2.193   6.589  0.3491 -0.1388 -0.0007
22494WAT     H191781   4.843   2.217   6.680  0.3379 -0.5892  0.1191
22494WAT     H291782   4.885   2.250   6.538 -1.7315  2.3072  0.0931
22494WAT    EPW91783   4.836   2.204   6.594  0.0732  0.1243  0.0277
22495WAT      O91784  -3.251   1.450   7.888  1.1605  0.2813 -0.3577
22495WAT     H191785  -3.169   1.482   7.925  0.9427  2.1914 -1.3798
22495WAT     H291786  -3.245   1.471   7.795 -0.2571 -0.0370 -0.5444
22495WAT    EPW91787  -3.240   1.457   7.880  0.9449  0.4912 -0.5174
22496WAT      O91788   5.162   1.042   2.960 -0.0611  0.0843  0.4839
22496WAT     H191789   5.194   1.051   3.050 -1.7007 -1.1150  1.2413
22496WAT     H291790   5.068   1.026   2.970 -0.0469 -1.4547 -1.3675
22496WAT    EPW91791   5.154   1.041   2.973 -0.2756 -0.2769  0.3395
22497WAT      O91792  -2.157   6.163   0.461  0.7914 -0.1527 -0.3302
22497WAT     H191793  -2.182   6.070   0.455  0.9151 -0.1451 -1.1871
22497WAT     H291794  -2.239   6.210   0.454  0.3592 -0.2066  2.9591
22497WAT    EPW91795  -2.171   6.157   0.459  0.7507 -0.1588 -0.0093
22498WAT      O91796  -4.607   5.829   7.813  0.0761 -0.9906 -0.0766
22498WAT     H191797  -4.517   5.795   7.807  0.4884  0.1513 -0.5710
22498WAT     H291798  -4.652   5.766   7.870  0.8619 -2.2386 -0.7842
22498WAT    EPW91799  -4.601   5.816   7.820  0.2341 -1.0047 -0.2351
22499WAT      O91800   5.056   0.789   2.218 -0.0987 -0.0976  0.6426
22499WAT     H191801   5.143   0.753   2.234 -0.0985  0.2639  1.5280
22499WAT     H291802   5.068   0.850   2.146  0.0388 -1.3113 -0.3868
22499WAT    EPW91803   5.069   0.792   2.211 -0.0806 -0.2100  0.6236
22500WAT      O91804   2.662   0.001   0.757  0.2764 -0.0707  0.2337
22500WAT     H191805   2.737   0.005   0.816  1.0053 -2.0437 -0.5019
22500WAT     H291806   2.599   0.062   0.795  0.9455 -0.8124  2.7198
22500WAT    EPW91807   2.664   0.010   0.769  0.4607 -0.4288  0.4646
22501WAT      O91808  -1.076  10.274   7.312  0.1728  0.3733  0.6031
22501WAT     H191809  -1.073  10.231   7.227  1.5919 -0.3785  0.9958
22501WAT     H291810  -1.097  10.204   7.374  3.1341 -0.0457  1.3317
22501WAT    EPW91811  -1.078  10.259   7.309  0.7506  0.2189  0.7510
22502WAT      O91812  -2.250   5.393   1.574  0.6468 -0.1186 -0.5801
22502WAT     H191813  -2.309   5.414   1.647  2.2557  3.9186 -0.1719
22502WAT     H291814  -2.176   5.348   1.615 -0.1169 -1.2192 -0.3770
22502WAT    EPW91815  -2.248   5.390   1.589  0.7583  0.2685 -0.4995
22503WAT      O91816  -5.707  10.005   8.816 -0.2352 -0.7100  0.3854
22503WAT     H191817  -5.748  10.072   8.763  0.2844  0.8307  1.8403
22503WAT     H291818  -5.618   9.998   8.781  0.2426  0.6069  1.2591
22503WAT    EPW91819  -5.700  10.013   8.805 -0.1035 -0.3333  0.6924
22504WAT      O91820  -1.469   0.571   8.029 -0.3413  0.3378 -0.0441
22504WAT     H191821  -1.393   0.598   7.978 -1.3232  2.0218 -0.7233
22504WAT     H291822  -1.544   0.583   7.970 -1.4138  1.4505  1.4471
22504WAT    EPW91823  -1.469   0.576   8.015 -0.6123  0.7066  0.0634
22505WAT      O91824  -2.714   8.250   0.412 -0.2335  0.3196 -0.6229
22505WAT     H191825  -2.639   8.194   0.433 -2.0140 -2.7002 -1.6387
22505WAT     H291826  -2.759   8.262   0.495 -0.6412 -1.1044 -0.6189
22505WAT    EPW91827  -2.710   8.244   0.425 -0.5221 -0.2666 -0.7563
22506WAT      O91828   6.911   7.224   0.495 -0.0643 -0.9624 -0.7458
22506WAT     H191829   6.971   7.249   0.564  0.8755  0.5522 -2.0487
22506WAT     H291830   6.842   7.291   0.497  1.1079  0.3799 -2.6054
22506WAT    EPW91831   6.910   7.236   0.504  0.2143 -0.5856 -1.1629
22507WAT      O91832   6.494   4.150   1.513  0.0537  0.3588  0.5271
22507WAT     H191833   6.579   4.105   1.516  0.2419  0.5388 -1.1967
22507WAT     H291834   6.514   4.240   1.538  0.0744  0.0711  1.6452
22507WAT    EPW91835   6.508   4.156   1.517  0.0811  0.3445  0.4472
22508WAT      O91836   2.290   6.692   6.567  0.0284  0.3010 -1.0512
22508WAT     H191837   2.306   6.725   6.656 -0.6794  1.0914 -1.2080
22508WAT     H291838   2.377   6.674   6.532  0.2826 -1.9486  0.4966
22508WAT    EPW91839   2.304   6.694   6.574 -0.0315  0.1085 -0.8678
22509WAT      O91840  -0.048   1.168   0.475  0.6965 -0.0478 -0.2953
22509WAT     H191841  -0.025   1.123   0.393  0.0264 -1.1122  0.0717
22509WAT     H291842  -0.132   1.209   0.457 -0.0304 -1.2664  0.1839
22509WAT    EPW91843  -0.056   1.167   0.462  0.5122 -0.3489 -0.1837
22510WAT      O91844   1.392   5.363   0.510  0.2281  0.3894 -0.3938
22510WAT     H191845   1.481   5.376   0.475  0.7804  1.8001  1.3947
22510WAT     H291846   1.344   5.441   0.482  0.5985  1.3938  1.6419
22510WAT    EPW91847   1.398   5.375   0.501  0.3498  0.7079  0.1106
22511WAT      O91848   1.146   8.635   2.581 -0.1557 -0.4297 -0.3316
22511WAT     H191849   1.197   8.682   2.516  1.1121 -0.6777  0.4579
22511WAT     H291850   1.066   8.609   2.535 -0.4393  1.5928 -1.0642
22511WAT    EPW91851   1.142   8.637   2.566 -0.0259 -0.1960 -0.3240
22512WAT      O91852   4.916   9.781   3.517  0.0840  0.4898 -0.0209
22512WAT     H191853   4.867   9.831   3.581  1.6102  0.9934  0.8123
22512WAT     H291854   4.910   9.690   3.547  1.7246  0.8417  1.5580
22512WAT    EPW91855   4.909   9.776   3.529  0.5016  0.6027  0.2973
22513WAT      O91856  -1.689   5.483   8.930 -0.0980 -0.7473  0.3673
22513WAT     H191857  -1.730   5.533   8.860 -0.4874 -0.7993  0.5541
22513WAT     H291858  -1.632   5.421   8.885  1.2241  0.5680  0.1633
22513WAT    EPW91859  -1.687   5.481   8.915  0.0250 -0.5805  0.3653
22514WAT      O91860   4.456   0.005   7.492  0.0017 -0.0813 -0.0925
22514WAT     H191861   4.412   0.090   7.498 -0.6933 -0.3547 -1.0928
22514WAT     H291862   4.548   0.027   7.474  0.0194  0.4708  0.6387
22514WAT    EPW91863   4.462   0.019   7.490 -0.0875 -0.0446 -0.1278
22515WAT      O91864   0.300   4.265   3.202  0.2448  0.0857  0.3270
22515WAT     H191865   0.250   4.305   3.274 -0.9744 -0.8617  0.0472
22515WAT     H291866   0.326   4.339   3.148 -1.5593  0.6052  0.0784
22515WAT    EPW91867   0.297   4.280   3.204 -0.1539  0.0293  0.2573
22516WAT      O91868  -7.620   7.081   8.528 -0.0281 -0.2084 -0.3783
22516WAT     H191869  -7.618   7.001   8.581  0.1357  0.8593  1.3051
22516WAT     H291870  -7.573   7.058   8.448 -0.6935 -2.0236 -0.3086
22516WAT    EPW91871  -7.614   7.067   8.524 -0.0942 -0.3071 -0.1473
22517WAT      O91872  -1.938   8.056   2.243  0.0115 -0.0762 -0.1967
22517WAT     H191873  -1.956   8.015   2.158  0.3501 -0.7234  0.0324
22517WAT     H291874  -2.021   8.096   2.268 -1.7443 -4.2279  1.5136
22517WAT    EPW91875  -1.951   8.056   2.235 -0.1754 -0.7095  0.0591
22518WAT      O91876   1.404   0.757   7.158 -0.0749  0.5611  0.0185
22518WAT     H191877   1.398   0.845   7.195 -3.2823  0.3732  0.2932
22518WAT     H291878   1.367   0.700   7.226  1.2960 -0.9343 -0.4282
22518WAT    EPW91879   1.398   0.761   7.172 -0.3171  0.3391 -0.0043
22519WAT      O91880   1.794   9.180   0.869 -0.7106  0.2388  0.8309
22519WAT     H191881   1.766   9.099   0.827  2.1112 -0.0374 -0.7676
22519WAT     H291882   1.865   9.154   0.928  1.1585  1.5981 -0.6910
22519WAT    EPW91883   1.800   9.166   0.872 -0.0919  0.3819  0.4193
22520WAT      O91884  -0.018   0.625   4.619 -0.8728 -0.7593  0.0921
22520WAT     H191885  -0.112   0.631   4.604 -0.8540 -0.4005  0.1068
22520WAT     H291886  -0.010   0.587   4.707 -1.0251  0.5174  0.6811
22520WAT    EPW91887  -0.029   0.621   4.629 -0.8904 -0.5435  0.1719
22521WAT      O91888   4.632   6.240   2.045  0.3232  0.3222 -0.1943
22521WAT     H191889   4.546   6.252   2.004  0.4722 -1.8952 -1.3440
22521WAT     H291890   4.615   6.250   2.139 -0.8826  1.3421 -0.4870
22521WAT    EPW91891   4.618   6.243   2.052  0.1838  0.1640 -0.3844
22522WAT      O91892  -0.795   9.833   8.530 -0.5931  0.4071 -0.0129
22522WAT     H191893  -0.744   9.768   8.481  0.9466  0.5202  1.3440
22522WAT     H291894  -0.886   9.810   8.514 -0.0913 -1.3311 -0.5494
22522WAT    EPW91895  -0.800   9.821   8.522 -0.3238  0.1926  0.0958
22523WAT      O91896   7.228   0.420   3.043 -0.2270 -0.0676  0.0085
22523WAT     H191897   7.318   0.389   3.048 -0.8058 -1.9325 -0.4884
22523WAT     H291898   7.218   0.450   2.953 -0.8819 -2.6221 -0.8598
22523WAT    EPW91899   7.238   0.420   3.032 -0.3896 -0.6505 -0.1715
22524WAT      O91900  -4.000   9.186   4.091 -0.4428 -0.5877  0.5579
22524WAT     H191901  -4.066   9.188   4.161 -0.1963  0.2385  0.7752
22524WAT     H291902  -3.919   9.162   4.135 -0.3093 -0.1765  0.5358
22524WAT    EPW91903  -3.998   9.183   4.106 -0.3928 -0.4239  0.5836
22525WAT      O91904   1.727   1.185   6.763 -0.1505  0.3147  0.1164
22525WAT     H191905   1.649   1.130   6.764  0.1459 -0.1905 -1.6104
22525WAT     H291906   1.755   1.187   6.854  0.0731 -2.8067  0.2282
22525WAT    EPW91907   1.720   1.178   6.775 -0.0820 -0.1637 -0.0966
22526WAT      O91908  -2.918   0.924   6.830 -0.0701  0.3883  0.1645
22526WAT     H191909  -2.916   1.000   6.772 -1.7489  0.2465 -0.1188
22526WAT     H291910  -2.840   0.874   6.806  0.4922  1.4794 -0.3697
22526WAT    EPW91911  -2.908   0.928   6.819 -0.2174  0.5136  0.0567
22527WAT      O91912   3.580   5.756   2.043 -0.3987 -0.2880 -1.0128
22527WAT     H191913   3.499   5.759   1.992  0.2419  0.3941 -2.0121
22527WAT     H291914   3.637   5.696   1.994 -1.1531 -2.8588  1.0280
22527WAT    EPW91915   3.577   5.748   2.030 -0.4138 -0.5372 -0.8754
22528WAT      O91916  -0.765   6.123   4.069 -0.3916 -0.2876 -0.3882
22528WAT     H191917  -0.777   6.139   4.162 -0.1306 -2.2186  0.0263
22528WAT     H291918  -0.674   6.095   4.061 -0.4882 -0.4073 -1.1702
22528WAT    EPW91919  -0.755   6.121   4.080 -0.3699 -0.5584 -0.4365
22529WAT      O91920   5.987   6.035   3.102 -0.1893 -0.1947  0.2716
22529WAT     H191921   5.950   6.121   3.082 -0.2018  0.1758  1.7893
22529WAT     H291922   5.918   5.973   3.076 -1.8960  0.4743  2.8146
22529WAT    EPW91923   5.973   6.038   3.096 -0.4160 -0.0577  0.8072
22530WAT      O91924  -0.837   9.259   8.100 -0.5276  0.0995  0.4221
22530WAT     H191925  -0.835   9.164   8.112  1.1298 -0.0881 -0.8869
22530WAT     H291926  -0.848   9.295   8.188 -1.0382 -1.2833  0.9499
22530WAT    EPW91927  -0.839   9.251   8.113 -0.3763 -0.1073  0.3190
22531WAT      O91928  -2.569   9.011   8.012 -0.3427 -0.1352 -0.3032
22531WAT     H191929  -2.521   9.074   7.959  1.8445 -0.4453  1.1542
22531WAT     H291930  -2.631   9.063   8.063 -0.1088  0.5628 -0.7328
22531WAT    EPW91931  -2.571   9.026   8.012 -0.0235 -0.0844 -0.1678
22532WAT      O91932  -4.691   3.429   6.901 -0.1290 -0.0431  0.0035
22532WAT     H191933  -4.715   3.405   6.812  1.6474  1.2990 -0.8999
22532WAT     H291934  -4.661   3.520   6.894 -2.2018  0.9488  2.4225
22532WAT    EPW91935  -4.690   3.438   6.889 -0.1681  0.2648  0.2036
22533WAT      O91936   6.309   1.639   2.949  0.5364 -0.5719  0.2780
22533WAT     H191937   6.369   1.608   2.881 -0.8696 -1.1754 -0.7407
22533WAT     H291938   6.276   1.723   2.915 -0.1289 -0.8490  0.2260
22533WAT    EPW91939   6.313   1.646   2.935  0.2632 -0.6880  0.1367
22534WAT      O91940   3.160   9.934   3.232  0.4810 -0.0129  0.3796
22534WAT     H191941   3.235   9.971   3.185 -0.4510  0.3159 -0.8933
22534WAT     H291942   3.167   9.839   3.216  1.6785 -0.2285  1.8891
22534WAT    EPW91943   3.171   9.926   3.224  0.5161  0.0019  0.4109
22535WAT      O91944  -2.394   3.504   4.719  0.2323 -0.0229  0.1602
22535WAT     H191945  -2.377   3.417   4.683 -0.7815  0.4262 -1.4845
22535WAT     H291946  -2.342   3.563   4.664  0.9838  0.4299  1.3184
22535WAT    EPW91947  -2.385   3.501   4.707  0.1978  0.0961  0.0961
22536WAT      O91948  -4.984   7.217   5.206  0.3282 -0.2798  0.0789
22536WAT     H191949  -5.065   7.176   5.175  0.6708 -1.6979  0.9675
22536WAT     H291950  -4.992   7.216   5.301  1.0595  0.3051  0.1547
22536WAT    EPW91951  -4.996   7.212   5.215  0.4699 -0.3896  0.2060
22537WAT      O91952   0.009   5.920   6.375  0.2777 -0.3501  0.0256
22537WAT     H191953   0.060   5.846   6.409 -1.7742 -1.3227  1.1550
22537WAT     H291954   0.003   5.980   6.450  0.4666  0.1573 -0.3637
22537WAT    EPW91955   0.015   5.918   6.390  0.0320 -0.4115  0.1233
22538WAT      O91956  -5.175   8.999   3.958 -0.5812  0.7011  0.6837
22538WAT     H191957  -5.268   8.993   3.982 -0.5314  2.3071  1.3781
22538WAT     H291958  -5.159   8.919   3.908 -1.9274 -0.4112  1.9039
22538WAT    EPW91959  -5.185   8.987   3.955 -0.7522  0.7663  0.9362
22539WAT      O91960   5.200   3.103   0.325  0.3668  0.7370 -0.3463
22539WAT     H191961   5.147   3.144   0.394  0.5247  1.6650 -0.7530
22539WAT     H291962   5.251   3.176   0.288  1.4249 -0.0174 -0.4143
22539WAT    EPW91963   5.200   3.118   0.329  0.5271  0.7600 -0.4089
22540WAT      O91964   5.192   2.592   4.702  0.1067  0.1198 -0.6123
22540WAT     H191965   5.183   2.623   4.612  2.5431  1.1155 -0.5944
22540WAT     H291966   5.199   2.672   4.755  3.7874 -0.2670 -0.2341
22540WAT    EPW91967   5.192   2.606   4.697  0.9136  0.2000 -0.5600
22541WAT      O91968   0.420   2.875  -0.012 -0.2249  0.0444 -0.0172
22541WAT     H191969   0.388   2.867   0.077 -0.0180  1.6229  0.2300
22541WAT     H291970   0.367   2.945  -0.051 -1.9322 -2.1302 -1.9211
22541WAT    EPW91971   0.409   2.883  -0.006 -0.4230 -0.0339 -0.2356
22542WAT      O91972   2.906  10.136   5.956 -0.1942  0.2767  0.3848
22542WAT     H191973   2.850  10.060   5.976 -1.1272  0.3331 -1.7503
22542WAT     H291974   2.984  10.098   5.916 -0.8803  0.4150 -1.1526
22542WAT    EPW91975   2.909  10.121   5.953 -0.4077  0.3023 -0.0997
22543WAT      O91976   5.900   2.218   6.136  0.2709 -0.2456  0.4111
22543WAT     H191977   5.994   2.202   6.150  0.2194  0.6931  2.1580
22543WAT     H291978   5.896   2.282   6.065  1.0977  1.2232  1.6241
22543WAT    EPW91979   5.912   2.224   6.129  0.3731  0.0719  0.8016
22544WAT      O91980  -5.891   6.593   7.997  0.8002 -0.1102 -0.2439
22544WAT     H191981  -5.949   6.662   8.028 -1.1489 -0.6990 -2.3594
22544WAT     H291982  -5.905   6.520   8.056 -0.0316  0.0324 -0.2626
22544WAT    EPW91983  -5.900   6.592   8.009  0.4332 -0.1690 -0.5255
22545WAT      O91984   1.525   4.947   7.162  0.2669  0.0059 -0.3954
22545WAT     H191985   1.606   4.987   7.192  0.3396 -1.0453  0.8410
22545WAT     H291986   1.456   4.992   7.212  0.3669 -1.5394  1.1931
22545WAT    EPW91987   1.526   4.958   7.172  0.2896 -0.3366 -0.0229
22546WAT      O91988   4.861   2.688   7.096 -0.6414 -0.5861 -0.3118
22546WAT     H191989   4.814   2.757   7.143 -0.9653 -0.2238 -1.1378
22546WAT     H291990   4.945   2.682   7.140 -0.6853  0.1976 -0.0982
22546WAT    EPW91991   4.866   2.696   7.108 -0.6897 -0.4350 -0.3927
22547WAT      O91992   0.029   9.291   4.722  0.3548  0.2696  0.2454
22547WAT     H191993  -0.045   9.298   4.662  0.7780 -1.0397 -0.4729
22547WAT     H291994   0.023   9.369   4.777  0.0687  1.6348 -1.6202
22547WAT    EPW91995   0.018   9.302   4.722  0.3729  0.2770 -0.0956
22548WAT      O91996  -3.426   7.186   5.636 -0.7029  1.3707 -0.0690
22548WAT     H191997  -3.407   7.146   5.721  1.6468  2.5338  0.0387
22548WAT     H291998  -3.470   7.118   5.586 -2.4855  0.7644  2.1655
22548WAT    EPW91999  -3.429   7.172   5.641 -0.6281  1.4441  0.2401
22549WAT      O92000  -0.113   6.677   6.286  0.2434 -0.7963  0.1861
22549WAT     H192001  -0.144   6.761   6.320  0.4290  0.0147 -1.5382
22549WAT     H292002  -0.018   6.688   6.278  0.0720 -0.4337 -1.8408
22549WAT    EPW92003  -0.104   6.689   6.290  0.2452 -0.6416 -0.3088
22550WAT      O92004   1.568   0.107   8.416 -0.1051 -0.5087  0.2494
22550WAT     H192005   1.534   0.148   8.337 -1.6439 -3.1967 -0.6211
22550WAT     H292006   1.663   0.111   8.407 -0.2417  0.9440 -0.7516
22550WAT    EPW92007   1.576   0.113   8.404 -0.3260 -0.6716  0.0029
22551WAT      O92008  -4.350   6.638   5.482  0.4775 -0.1314  0.3660
22551WAT     H192009  -4.311   6.720   5.454  2.0248 -0.6819  0.8311
22551WAT     H292010  -4.277   6.587   5.517 -0.8529 -0.6685  2.5725
22551WAT    EPW92011  -4.335   6.642   5.483  0.5062 -0.2749  0.7184
22552WAT      O92012   2.116  10.051   0.878 -0.0658  0.0202 -0.3353
22552WAT     H192013   2.065  10.015   0.806 -0.4195  1.1441 -0.6659
22552WAT     H292014   2.075  10.016   0.957 -1.1433  0.6125 -0.6066
22552WAT    EPW92015   2.104  10.042   0.879 -0.2545  0.2465 -0.4147
22553WAT      O92016  -5.098   8.348   3.547  0.4776  0.4832  0.3700
22553WAT     H192017  -5.183   8.377   3.581  0.9005 -0.4247  2.3440
22553WAT     H292018  -5.098   8.253   3.559  0.3564 -0.0858 -3.0648
22553WAT    EPW92019  -5.109   8.340   3.553  0.5174  0.2885  0.1774
22554WAT      O92020  -1.671   9.684   4.018  0.2090  0.1702  0.7479
22554WAT     H192021  -1.747   9.650   4.065  0.3133 -4.0849 -1.6631
22554WAT     H292022  -1.698   9.684   3.926  2.2257  1.3965  0.0938
22554WAT    EPW92023  -1.685   9.679   4.012  0.4888 -0.2294  0.3436
22555WAT      O92024  -1.965   5.363   6.723  0.4774  0.2042  0.1578
22555WAT     H192025  -1.928   5.322   6.645  4.5179 -1.1055  2.4519
22555WAT     H292026  -1.920   5.448   6.728  0.2543  0.2756  1.0078
22555WAT    EPW92027  -1.954   5.369   6.713  0.9810  0.0408  0.5722
22556WAT      O92028  -1.224   7.940   4.709  0.2973 -0.3187 -0.3330
22556WAT     H192029  -1.257   7.922   4.621 -1.8990 -1.7554  0.6975
22556WAT     H292030  -1.286   8.003   4.745  0.5465 -0.5848  0.5712
22556WAT    EPW92031  -1.237   7.946   4.702  0.0405 -0.5436 -0.0780
22557WAT      O92032   2.211   6.672   3.812  0.3726  0.2139  0.5942
22557WAT     H192033   2.143   6.697   3.750 -0.8724 -2.3475  0.7734
22557WAT     H292034   2.169   6.676   3.898  0.7876 -0.2411  0.8313
22557WAT    EPW92035   2.197   6.676   3.815  0.2631 -0.1841  0.6492
22558WAT      O92036  -2.484  10.032   4.766 -0.6388 -0.0120 -0.5910
22558WAT     H192037  -2.503   9.990   4.682 -0.9451 -1.7704  0.3269
22558WAT     H292038  -2.515  10.122   4.755 -1.5575 -0.4729 -2.0227
22558WAT    EPW92039  -2.490  10.039   4.753 -0.8004 -0.3047 -0.6588
22559WAT      O92040   5.508   6.531   0.998  0.2425 -0.5921 -0.4889
22559WAT     H192041   5.569   6.505   0.929  0.1984 -1.0947 -0.3415
22559WAT     H292042   5.549   6.607   1.039  2.0052 -2.3157  1.2026
22559WAT    EPW92043   5.522   6.537   0.995  0.4692 -0.8857 -0.2463
22560WAT      O92044   5.100   5.652   3.561  0.5097  0.2806 -0.1279
22560WAT     H192045   5.157   5.681   3.632  2.4826 -1.5586 -0.8871
22560WAT     H292046   5.017   5.631   3.605  0.2851  3.0341  0.9814
22560WAT    EPW92047   5.096   5.653   3.576  0.7403  0.4013 -0.0818
22561WAT      O92048  -0.271   4.437   8.535 -0.6074 -0.0489 -0.2869
22561WAT     H192049  -0.352   4.489   8.536 -1.4421 -1.2800 -1.0471
22561WAT     H292050  -0.238   4.446   8.445 -0.0451  0.2294 -0.0540
22561WAT    EPW92051  -0.277   4.445   8.523 -0.6433 -0.1745 -0.3567
22562WAT      O92052   2.892   7.321   2.905 -0.1797 -0.3228  0.0845
22562WAT     H192053   2.836   7.348   2.978 -2.0638 -0.7421 -1.1483
22562WAT     H292054   2.935   7.241   2.936 -0.4722 -0.1472  0.9655
22562WAT    EPW92055   2.890   7.314   2.919 -0.4668 -0.3550  0.0380
22563WAT      O92056   5.506   2.346   6.771  0.2624  0.5013 -0.0823
22563WAT     H192057   5.568   2.356   6.843  1.0082 -0.2805 -0.6046
22563WAT     H292058   5.435   2.406   6.793 -0.3169 -0.8786  2.1452
22563WAT    EPW92059   5.505   2.355   6.783  0.2844  0.2162  0.1426
22564WAT      O92060  -1.338  10.096   7.918  0.2766  0.5429 -0.2065
22564WAT     H192061  -1.381  10.084   8.002  0.3365 -1.4133 -0.4042
22564WAT     H292062  -1.262  10.151   7.937  0.6221 -0.3621  1.1346
22564WAT    EPW92063  -1.334  10.102   7.931  0.3301  0.1650 -0.0556
22565WAT      O92064   1.653   6.698   5.705  0.1627  0.0895 -0.0917
22565WAT     H192065   1.686   6.767   5.763 -3.1282  0.1115  2.0492
22565WAT     H292066   1.628   6.744   5.625  0.8419  0.8451  0.1161
22565WAT    EPW92067   1.654   6.713   5.702 -0.1818  0.1922  0.2182
22566WAT      O92068   4.267   2.848   7.058 -0.6482 -0.1041 -0.6562
22566WAT     H192069   4.335   2.780   7.057 -0.9860 -0.4629  0.1282
22566WAT     H292070   4.311   2.925   7.093 -1.2538 -1.0552  2.5141
22566WAT    EPW92071   4.282   2.849   7.062 -0.7725 -0.2769 -0.1347
22567WAT      O92072  -1.248   5.581   7.621  0.1107 -0.1782  0.3090
22567WAT     H192073  -1.186   5.514   7.592  1.1423 -0.1260  2.2491
22567WAT     H292074  -1.200   5.631   7.688 -1.1966  1.4549  0.0912
22567WAT    EPW92075  -1.233   5.579   7.626  0.0743  0.0441  0.5362
22568WAT      O92076  -1.371   5.661   5.598 -0.4412 -0.0356 -0.2834
22568WAT     H192077  -1.309   5.587   5.600 -1.0003 -0.5246  1.4379
22568WAT     H292078  -1.416   5.652   5.515  0.2073 -1.0405 -0.5585
22568WAT    EPW92079  -1.369   5.650   5.588 -0.4294 -0.2327 -0.0925
22569WAT      O92080   7.135   2.321   1.878  0.5271 -0.7778 -0.6417
22569WAT     H192081   7.205   2.347   1.818  0.2992 -2.1944 -1.5625
22569WAT     H292082   7.179   2.269   1.945  0.2927 -2.2751 -1.6133
22569WAT    EPW92083   7.150   2.318   1.879  0.4661 -1.1622 -0.8913
22570WAT      O92084  -4.618   7.319   7.022  0.5401  1.0706  1.0179
22570WAT     H192085  -4.619   7.363   7.106 -0.1807 -1.0608  2.2132
22570WAT     H292086  -4.709   7.297   7.005  0.7469  0.9638 -0.0288
22570WAT    EPW92087  -4.630   7.322   7.031  0.4725  0.7753  1.0376
22571WAT      O92088  -0.045   9.011   6.407 -0.2711 -0.1577  1.1276
22571WAT     H192089   0.025   9.048   6.460  0.2230  1.0058 -0.2727
22571WAT     H292090  -0.118   8.999   6.468 -0.0537  2.0211  1.8997
22571WAT    EPW92091  -0.045   9.014   6.422 -0.1773  0.2828  1.0448
22572WAT      O92092   3.329   3.553   3.229  0.4881 -0.3212 -0.4327
22572WAT     H192093   3.293   3.640   3.209 -1.3344 -0.8283  0.4558
22572WAT     H292094   3.276   3.493   3.176  2.2935 -0.8794 -1.7088
22572WAT    EPW92095   3.317   3.557   3.219  0.4858 -0.4617 -0.4839
22573WAT      O92096  -3.015   7.881   3.200 -0.0125  0.9294  0.3897
22573WAT     H192097  -3.052   7.856   3.284  0.7018  1.9053  1.0233
22573WAT     H292098  -3.020   7.802   3.147 -1.1046  0.4850  1.1150
22573WAT    EPW92099  -3.020   7.867   3.204 -0.0625  0.9997  0.5689
22574WAT      O92100   0.595   9.283   6.103 -0.0045  0.5379  0.5947
22574WAT     H192101   0.621   9.347   6.037  1.5999 -0.8589 -0.1986
22574WAT     H292102   0.604   9.198   6.060 -0.6036 -0.3202  2.0715
22574WAT    EPW92103   0.600   9.280   6.089  0.1281  0.2403  0.6850
22575WAT      O92104   1.870   5.934   5.864  0.4117  0.6399  0.0453
22575WAT     H192105   1.833   5.936   5.775 -1.4505 -1.8782  0.6631
22575WAT     H292106   1.796   5.911   5.920  2.1778 -1.0167  1.8413
22575WAT    EPW92107   1.855   5.932   5.859  0.3991  0.0892  0.3636
22576WAT      O92108   3.664   6.579   4.089  0.4059  0.1670  0.1092
22576WAT     H192109   3.664   6.539   4.176  0.2360 -0.7957 -0.3218
22576WAT     H292110   3.577   6.619   4.081 -0.3742 -1.4986 -0.3731
22576WAT    EPW92111   3.652   6.579   4.099  0.2806 -0.1798 -0.0114
22577WAT      O92112  -2.322   6.278   5.459 -0.8630  0.8137 -0.5062
22577WAT     H192113  -2.353   6.321   5.379 -0.2548  0.2346 -1.0618
22577WAT     H292114  -2.402   6.262   5.510 -1.2661  1.0637 -1.0529
22577WAT    EPW92115  -2.337   6.282   5.455 -0.8360  0.7703 -0.6516
22578WAT      O92116  -2.681   2.783   7.278 -0.1688 -0.0706 -0.0483
22578WAT     H192117  -2.648   2.852   7.336 -0.2480  1.4804 -1.7796
22578WAT     H292118  -2.616   2.778   7.208 -1.1201 -0.4506 -0.9143
22578WAT    EPW92119  -2.668   2.792   7.277 -0.3047  0.0839 -0.3908
22579WAT      O92120   0.788   3.386   7.714  0.4952  0.2609 -0.0987
22579WAT     H192121   0.752   3.428   7.636 -0.3802  0.3134  0.3158
22579WAT     H292122   0.854   3.447   7.746 -0.9075  1.4623  0.6167
22579WAT    EPW92123   0.792   3.399   7.708  0.1948  0.4264  0.0503
22580WAT      O92124   0.195   6.249   7.230 -0.8597  0.2494 -0.1431
22580WAT     H192125   0.279   6.277   7.193 -0.7117  0.5766  0.4376
22580WAT     H292126   0.186   6.157   7.203  0.4650 -0.2970  1.1620
22580WAT    EPW92127   0.205   6.240   7.221 -0.6654  0.2205  0.1056
22581WAT      O92128   1.125   9.297   7.915 -0.3010 -0.0403 -0.4481
22581WAT     H192129   1.056   9.345   7.869 -1.9916 -0.0577  1.8785
22581WAT     H292130   1.191   9.280   7.848 -1.5723  1.8250 -2.3142
22581WAT    EPW92131   1.125   9.301   7.900 -0.6916  0.2031 -0.3874
22582WAT      O92132   0.615   0.328   5.826 -0.0641 -0.0441 -0.6740
22582WAT     H192133   0.540   0.271   5.812 -0.0531  0.1138 -1.4487
22582WAT     H292134   0.654   0.338   5.739  0.6087  0.2123 -0.3511
22582WAT    EPW92135   0.611   0.322   5.813  0.0261  0.0105 -0.7336
22583WAT      O92136   1.603   1.805   4.007 -0.7583 -0.2525  0.1234
22583WAT     H192137   1.576   1.833   3.919 -1.2693 -0.5684  0.1796
22583WAT     H292138   1.656   1.878   4.039 -3.8222  1.7267  1.1504
22583WAT    EPW92139   1.607   1.818   4.000 -1.2298 -0.0330  0.2662
22584WAT      O92140  -5.019   2.060   7.273 -0.3777 -0.7540  0.4227
22584WAT     H192141  -4.975   1.989   7.227 -0.9079 -1.2321  0.6371
22584WAT     H292142  -4.956   2.089   7.339  0.4644  0.0642 -0.7034
22584WAT    EPW92143  -5.005   2.054   7.276 -0.3364 -0.7092  0.3026
22585WAT      O92144   3.966   4.083   3.812 -0.0638 -0.5616  0.1485
22585WAT     H192145   3.967   4.178   3.802 -1.5425 -0.2680  2.1578
22585WAT     H292146   3.886   4.065   3.862  1.5866 -2.5689  2.2712
22585WAT    EPW92147   3.956   4.093   3.817 -0.0411 -0.7877  0.6934
22586WAT      O92148   0.539   6.609   1.832 -0.2873  0.3491  0.3626
22586WAT     H192149   0.459   6.657   1.856  0.3091  1.3484  0.4211
22586WAT     H292150   0.532   6.597   1.737  0.3170  2.0686  0.0593
22586WAT    EPW92151   0.527   6.614   1.822 -0.1289  0.7079  0.3304
22587WAT      O92152   2.173   0.180   8.327  0.0425 -0.3415  0.6317
22587WAT     H192153   2.105   0.184   8.259  0.2345  3.3446  0.4279
22587WAT     H292154   2.255   0.188   8.279  0.3625 -0.4621  1.1547
22587WAT    EPW92155   2.175   0.182   8.311  0.1101  0.1288  0.6738
22588WAT      O92156  -4.559   8.977   6.309  0.4365  0.2640 -0.4404
22588WAT     H192157  -4.487   9.027   6.270 -0.3921  2.2774  0.4957
22588WAT     H292158  -4.628   8.978   6.242  0.1222  1.1040 -0.1115
22588WAT    EPW92159  -4.559   8.984   6.295  0.2856  0.6409 -0.2735
22589WAT      O92160  -2.296   9.342   3.581 -0.6121  0.1911  0.6406
22589WAT     H192161  -2.294   9.285   3.657  0.6290  0.2077  0.6433
22589WAT     H292162  -2.284   9.284   3.506 -0.1071  0.3466  0.5923
22589WAT    EPW92163  -2.294   9.327   3.581 -0.3818  0.2141  0.6347
22590WAT      O92164   3.417   6.285   6.043 -0.1428  0.8407  0.7707
22590WAT     H192165   3.393   6.194   6.031 -1.1169  1.0550  0.9884
22590WAT     H292166   3.469   6.286   6.124  1.0881  0.2959  0.0084
22590WAT    EPW92167   3.420   6.273   6.052 -0.1090  0.7970  0.6988
22591WAT      O92168   5.189   7.905   3.803 -0.6184  0.4475 -0.3128
22591WAT     H192169   5.281   7.894   3.829 -1.0535  0.9554  1.5765
22591WAT     H292170   5.161   7.816   3.779  0.2556  0.2178 -0.5231
22591WAT    EPW92171   5.198   7.892   3.804 -0.5605  0.4842 -0.0914
22592WAT      O92172   3.366   5.214   6.320  0.6260  0.2730 -0.0767
22592WAT     H192173   3.283   5.221   6.367  1.0494 -0.8397  0.8750
22592WAT     H292174   3.432   5.202   6.388  1.0620 -3.2716 -0.9461
22592WAT    EPW92175   3.364   5.213   6.335  0.7393 -0.3412 -0.0658
22593WAT      O92176   0.308   4.775   4.088 -0.2200  0.3840 -0.2246
22593WAT     H192177   0.392   4.765   4.133  0.6669  1.0217 -1.6426
22593WAT     H292178   0.242   4.755   4.154  1.0436  0.0845  0.9883
22593WAT    EPW92179   0.311   4.771   4.102  0.0637  0.4287 -0.2515
22594WAT      O92180   3.958   6.098   1.481  0.4354  0.1288  0.2610
22594WAT     H192181   3.887   6.160   1.500  0.1174 -0.3790  0.7463
22594WAT     H292182   4.022   6.150   1.432  0.4120  0.9899  1.1055
22594WAT    EPW92183   3.957   6.113   1.477  0.3904  0.1757  0.4365
22595WAT      O92184   0.076   1.122   4.613 -0.3930  0.6243 -0.6353
22595WAT     H192185   0.028   1.039   4.611 -0.3471  0.5453  0.8029
22595WAT     H292186   0.074   1.149   4.705  3.6630 -0.1431 -0.1577
22595WAT    EPW92187   0.069   1.115   4.625  0.1480  0.5127 -0.3827
22596WAT      O92188   6.929   3.542   2.108  0.4790  0.1118 -0.1529
22596WAT     H192189   6.876   3.573   2.181  1.2426 -0.6891  0.7715
22596WAT     H292190   6.870   3.485   2.058  0.3884 -0.6034  0.7435
22596WAT    EPW92191   6.914   3.538   2.111  0.5677 -0.0882  0.0874
22597WAT      O92192  -2.934   3.031   8.485  0.0741  0.4825 -0.8967
22597WAT     H192193  -2.967   3.116   8.512  0.8270  0.4453  0.2516
22597WAT     H292194  -2.848   3.050   8.446  0.6025  0.2022  0.0889
22597WAT    EPW92195  -2.927   3.044   8.483  0.2431  0.4407 -0.6151
22598WAT      O92196   4.344   1.131   0.780 -0.0698 -0.5556 -0.4942
22598WAT     H192197   4.349   1.198   0.712 -1.1822  1.2321  1.0852
22598WAT     H292198   4.272   1.160   0.837  0.0388 -2.6081  0.7708
22598WAT    EPW92199   4.335   1.144   0.778 -0.2022 -0.5905 -0.1191
22599WAT      O92200  -0.397   5.574   8.368 -0.1166 -0.2601  0.0057
22599WAT     H192201  -0.316   5.617   8.396 -1.4327  1.0683  2.0393
22599WAT     H292202  -0.448   5.566   8.448 -1.4152 -2.4619 -0.9680
22599WAT    EPW92203  -0.393   5.579   8.382 -0.4615 -0.3753  0.1459
22600WAT      O92204   1.345   3.968   1.361 -0.5712  0.3993 -0.2920
22600WAT     H192205   1.254   3.945   1.340 -0.8003  0.7709  0.2380
22600WAT     H292206   1.370   4.032   1.295 -1.5354  2.1320  0.9289
22600WAT    EPW92207   1.336   3.974   1.350 -0.7285  0.6768 -0.0610
22601WAT      O92208  -1.194   2.724   1.718  0.5640  0.2070  0.6400
22601WAT     H192209  -1.240   2.808   1.719  0.0164 -0.0864  0.7305
22601WAT     H292210  -1.151   2.721   1.633 -1.4897 -0.4998 -0.4525
22601WAT    EPW92211  -1.195   2.735   1.707  0.2209  0.0751  0.5078
22602WAT      O92212   3.082   2.334   8.309  0.2572 -0.1134  0.1670
22602WAT     H192213   3.074   2.428   8.297  1.3982  0.2830  2.1099
22602WAT     H292214   3.159   2.310   8.256  0.0589  0.0621 -0.2034
22602WAT    EPW92215   3.091   2.343   8.300  0.3816 -0.0380  0.3743
22603WAT      O92216   2.991   7.262   6.450  0.5841  0.7380 -0.5477
22603WAT     H192217   2.943   7.261   6.533  0.3989  2.4716 -0.5958
22603WAT     H292218   2.971   7.177   6.410  2.2156 -0.9828  1.9908
22603WAT    EPW92219   2.982   7.250   6.455  0.7749  0.7398 -0.2193
22604WAT      O92220   5.920   5.307   4.957 -0.0601 -0.6016 -0.0582
22604WAT     H192221   6.002   5.349   4.982 -1.2585  0.4955  2.4413
22604WAT     H292222   5.865   5.378   4.925 -0.5854 -1.0158 -0.0972
22604WAT    EPW92223   5.923   5.322   4.956 -0.2875 -0.5116  0.2661
22605WAT      O92224   0.764   9.764   2.446 -0.7872 -0.5935 -0.8257
22605WAT     H192225   0.827   9.736   2.379 -2.2273 -2.0971 -1.6047
22605WAT     H292226   0.772   9.699   2.515 -2.9265 -2.1140 -1.8844
22605WAT    EPW92227   0.774   9.752   2.446 -1.2593 -0.9923 -1.0681
22606WAT      O92228   6.517   2.537   4.887  0.7556 -0.2395  0.5939
22606WAT     H192229   6.507   2.498   4.800  1.0940 -1.9566  1.2772
22606WAT     H292230   6.609   2.562   4.891  0.4743  0.9263  0.0507
22606WAT    EPW92231   6.528   2.535   4.876  0.7629 -0.3121  0.6125
22607WAT      O92232   3.376   5.543   4.331  0.8307  1.1755  0.2249
22607WAT     H192233   3.361   5.496   4.249 -0.9136  1.1548  0.5192
22607WAT     H292234   3.387   5.475   4.397 -0.4176  1.1517  0.4330
22607WAT    EPW92235   3.376   5.528   4.329  0.4359  1.1697  0.2913
22608WAT      O92236  -2.710   3.747   5.875 -0.3354 -0.1364  0.5973
22608WAT     H192237  -2.657   3.791   5.809  2.6065 -0.7295  2.3804
22608WAT     H292238  -2.661   3.668   5.896 -1.2823 -0.1159  3.2666
22608WAT    EPW92239  -2.697   3.742   5.869 -0.0724 -0.2120  1.1845
22609WAT      O92240   0.021   5.804   4.104 -0.2916 -0.2062 -0.3193
22609WAT     H192241   0.066   5.724   4.076 -0.2834 -0.3374  0.0575
22609WAT     H292242   0.010   5.793   4.199 -1.3928 -0.3106 -0.4454
22609WAT    EPW92243   0.026   5.792   4.113 -0.4357 -0.2372 -0.2861
22610WAT      O92244   6.212   3.583   4.838  0.0483 -0.2768 -0.3356
22610WAT     H192245   6.196   3.600   4.745 -1.1208  0.2197 -0.0540
22610WAT     H292246   6.143   3.523   4.864 -0.8160  1.0864  0.6568
22610WAT    EPW92247   6.201   3.577   4.829 -0.2198 -0.0315 -0.1676
22611WAT      O92248   0.227   5.152   2.883  0.1012  0.2015  0.0155
22611WAT     H192249   0.156   5.187   2.829 -0.8493 -1.1617  0.3109
22611WAT     H292250   0.218   5.197   2.967 -0.3691  0.1218  0.0128
22611WAT    EPW92251   0.216   5.162   2.887 -0.0862  0.0112  0.0541
22612WAT      O92252   2.756   1.253   3.325  0.2713 -0.0843  0.6408
22612WAT     H192253   2.831   1.196   3.304  0.0081 -0.8434  1.6565
22612WAT     H292254   2.789   1.342   3.312  0.4087 -0.4205 -1.9679
22612WAT    EPW92255   2.770   1.257   3.320  0.2546 -0.2288  0.4306
22613WAT      O92256   0.837   6.927   4.805 -0.2381  0.1987  0.4592
22613WAT     H192257   0.745   6.912   4.781 -0.4299  1.0701  0.6292
22613WAT     H292258   0.878   6.956   4.724 -0.4209  1.1042  0.6759
22613WAT    EPW92259   0.830   6.929   4.791 -0.2875  0.4332  0.5102
22614WAT      O92260   5.696   2.505   6.674  0.7076 -0.2290 -0.0326
22614WAT     H192261   5.766   2.469   6.730  0.6939 -0.7930 -0.3647
22614WAT     H292262   5.623   2.445   6.686  1.3360 -1.5431 -2.1383
22614WAT    EPW92263   5.696   2.492   6.683  0.7887 -0.4767 -0.3541
22615WAT      O92264   2.069   0.861   2.603 -0.6275 -0.0876  0.0336
22615WAT     H192265   2.018   0.826   2.530 -2.1604 -1.6030  1.7344
22615WAT     H292266   2.004   0.891   2.666  0.6477  1.4986  0.6745
22615WAT    EPW92267   2.054   0.860   2.602 -0.6615 -0.0783  0.3425
22616WAT      O92268  -4.480   7.149   4.162  0.7086 -0.2534  0.1015
22616WAT     H192269  -4.437   7.235   4.167  0.2316 -0.0534  0.9607
22616WAT     H292270  -4.497   7.126   4.253 -0.6750 -0.4841 -0.1978
22616WAT    EPW92271  -4.477   7.157   4.174  0.4630 -0.2577  0.1755
22617WAT      O92272   0.963   8.971   2.396  0.2824 -0.4689 -0.1359
22617WAT     H192273   0.962   9.022   2.315 -2.2988 -0.5283 -0.2081
22617WAT     H292274   1.028   9.015   2.451  0.0229  1.3037 -1.1732
22617WAT    EPW92275   0.971   8.984   2.392 -0.0923 -0.2432 -0.2822
22618WAT      O92276  -3.335   9.093   4.545  0.2147 -0.7292 -0.2224
22618WAT     H192277  -3.254   9.041   4.544 -0.3492 -1.6241 -0.5315
22618WAT     H292278  -3.316   9.164   4.606  0.7182 -1.8084  0.9478
22618WAT    EPW92279  -3.322   9.095   4.553  0.2067 -0.9894 -0.1087
22619WAT      O92280  -5.029   2.991   7.303 -0.0482 -0.0171  0.3309
22619WAT     H192281  -5.012   2.911   7.254  0.6462  0.5743 -0.4201
22619WAT     H292282  -5.014   2.967   7.394  1.2842 -0.4702  0.0219
22619WAT    EPW92283  -5.025   2.977   7.309  0.2191  0.0012  0.1910
22620WAT      O92284  -4.040   3.334   6.126  0.1301  0.2475  0.2994
22620WAT     H192285  -4.093   3.280   6.184 -0.4347  0.6603  0.1672
22620WAT     H292286  -4.101   3.395   6.085  0.5381  0.0559 -0.6339
22620WAT    EPW92287  -4.055   3.335   6.128  0.1094  0.2767  0.1588
22621WAT      O92288   3.867   9.898   0.350 -0.2520 -0.1600  0.0469
22621WAT     H192289   3.808   9.891   0.275 -0.1989 -1.2422  0.0942
22621WAT     H292290   3.898   9.809   0.365  0.1939  0.1382  0.9930
22621WAT    EPW92291   3.863   9.886   0.342 -0.1861 -0.2632  0.1779
22622WAT      O92292  -4.886   9.186   8.476 -0.3369 -0.1122 -0.4718
22622WAT     H192293  -4.859   9.151   8.560  1.2064  2.1507  0.0747
22622WAT     H292294  -4.816   9.162   8.415  0.3852  1.3271 -0.2457
22622WAT    EPW92295  -4.873   9.178   8.479 -0.0379  0.3757 -0.3700
22623WAT      O92296  -3.209   6.116   3.535  0.4617  0.0168 -0.2255
22623WAT     H192297  -3.121   6.114   3.497  0.5444 -0.4613 -0.0178
22623WAT     H292298  -3.199   6.167   3.615 -0.3077  3.6442 -2.2598
22623WAT    EPW92299  -3.196   6.122   3.541  0.3711  0.4323 -0.4663
22624WAT      O92300  -1.929   7.749   5.091 -0.4577  0.0059  0.3753
22624WAT     H192301  -1.866   7.770   5.159  1.3065 -0.2927 -1.0746
22624WAT     H292302  -1.956   7.833   5.056 -0.2847  0.1138  0.5014
22624WAT    EPW92303  -1.924   7.763   5.095 -0.2021 -0.0191  0.2007
22625WAT      O92304  -1.242  10.134   0.990  0.0824 -0.2836 -0.2711
22625WAT     H192305  -1.247  10.224   1.021 -1.8290  0.5799 -2.7650
22625WAT     H292306  -1.273  10.082   1.063 -1.6803  1.3932  0.2584
22625WAT    EPW92307  -1.247  10.139   1.003 -0.4022  0.0515 -0.5302
22626WAT      O92308   1.552   8.740   4.413  0.0027 -0.0537 -0.6759
22626WAT     H192309   1.511   8.684   4.478  0.8317  1.4339  1.2223
22626WAT     H292310   1.496   8.733   4.336 -1.7747 -0.8173  0.6299
22626WAT    EPW92311   1.539   8.732   4.411 -0.1224  0.0415 -0.2532
22627WAT      O92312   5.132   5.602   2.337  0.0929 -0.2612 -0.0604
22627WAT     H192313   5.052   5.591   2.389  0.7028 -1.7668  0.6307
22627WAT     H292314   5.107   5.573   2.249 -0.8681  2.0327 -0.5968
22627WAT    EPW92315   5.118   5.596   2.332  0.0467 -0.1571 -0.0401
22628WAT      O92316  -2.010   7.652   0.679 -0.0930  0.2601  0.1489
22628WAT     H192317  -1.946   7.653   0.608  0.4114  0.4053  0.6056
22628WAT     H292318  -2.065   7.728   0.663 -1.6187 -1.1156 -1.5665
22628WAT    EPW92319  -2.009   7.662   0.668 -0.2277  0.0978 -0.0171
22629WAT      O92320   3.196   4.289   7.923 -0.3051 -0.0943 -0.6991
22629WAT     H192321   3.258   4.354   7.889  0.6541  0.5740  2.0736
22629WAT     H292322   3.237   4.255   8.002 -3.3283  0.2259  1.1914
22629WAT    EPW92323   3.209   4.293   7.929 -0.5774  0.0360 -0.0839
22630WAT      O92324   1.395   5.569   4.121  0.2558 -0.5395  0.5707
22630WAT     H192325   1.322   5.628   4.142 -0.8534 -1.6432 -0.0535
22630WAT     H292326   1.417   5.590   4.030 -0.9835 -1.9062 -0.0741
22630WAT    EPW92327   1.388   5.580   4.112 -0.0539 -0.8655  0.4032
22631WAT      O92328  -2.078   7.282   6.079 -0.5094  0.0075 -0.0988
22631WAT     H192329  -2.118   7.212   6.026 -0.7369  1.0545 -1.3453
22631WAT     H292330  -2.150   7.343   6.096 -0.4568 -0.3135  1.5100
22631WAT    EPW92331  -2.093   7.281   6.075 -0.5325  0.1032 -0.0510
22632WAT      O92332   5.052   0.918   1.580 -0.5451  0.5404 -0.5571
22632WAT     H192333   5.111   0.890   1.511 -0.1908  1.9908 -0.8813
22632WAT     H292334   5.016   0.837   1.615 -0.4911 -0.2428 -2.2173
22632WAT    EPW92335   5.055   0.904   1.576 -0.4914  0.6284 -0.8188
22633WAT      O92336  -0.406   2.767   3.199  0.4829  0.5915 -0.5584
22633WAT     H192337  -0.380   2.681   3.166  0.6292 -0.7733  2.7177
22633WAT     H292338  -0.486   2.750   3.249  0.5548  2.3254  0.2238
22633WAT    EPW92339  -0.413   2.753   3.201  0.5117  0.6403 -0.0231
22634WAT      O92340  -2.245   8.973   2.865  0.4786  0.7397 -0.8148
22634WAT     H192341  -2.293   8.893   2.885 -0.7697  1.4668 -0.8380
22634WAT     H292342  -2.185   8.983   2.939  1.6891 -0.9607 -1.4972
22634WAT    EPW92343  -2.243   8.964   2.877  0.4736  0.6113 -0.9079
22635WAT      O92344   1.604   7.040   2.735 -0.7953  0.0741  0.7677
22635WAT     H192345   1.688   6.995   2.730 -1.1800 -0.5975  0.1150
22635WAT     H292346   1.623   7.129   2.707 -0.0152  0.3541  2.1016
22635WAT    EPW92347   1.618   7.046   2.731 -0.7432  0.0224  0.8575
22636WAT      O92348   4.868   5.184   3.555 -0.5297 -1.1391  0.1843
22636WAT     H192349   4.830   5.264   3.591  2.4465  0.1786  0.6720
22636WAT     H292350   4.796   5.142   3.509 -2.0098  2.3466 -0.9823
22636WAT    EPW92351   4.854   5.189   3.554 -0.3321 -0.5054  0.0947
22637WAT      O92352  -1.653   8.739   6.719 -0.3004  0.0445 -0.2468
22637WAT     H192353  -1.620   8.810   6.665  1.5752 -3.0452 -3.6182
22637WAT     H292354  -1.745   8.728   6.692 -1.0563  1.9261  1.3443
22637WAT    EPW92355  -1.661   8.747   6.709 -0.1528 -0.1149 -0.4816
22638WAT      O92356   4.421   2.800   4.945 -0.5976  0.1922  0.2827
22638WAT     H192357   4.472   2.720   4.962 -1.9127 -0.5333  1.0169
22638WAT     H292358   4.485   2.863   4.913  0.7097 -0.7621  0.9144
22638WAT    EPW92359   4.436   2.798   4.943 -0.5984 -0.0293  0.4630
22639WAT      O92360  -0.411   0.220   2.629  0.2147  0.7176  0.2932
22639WAT     H192361  -0.376   0.223   2.717 -0.1104  0.4829  0.4355
22639WAT     H292362  -0.463   0.139   2.627 -1.7353  1.8987  0.6500
22639WAT    EPW92363  -0.414   0.209   2.640 -0.0854  0.8424  0.3589
22640WAT      O92364   2.845   5.984   2.000 -0.0659  0.7417  0.5765
22640WAT     H192365   2.914   5.926   1.968 -0.9767  0.4758 -1.0125
22640WAT     H292366   2.805   5.937   2.073 -0.4753 -0.4333 -0.3793
22640WAT    EPW92367   2.849   5.970   2.005 -0.2400  0.5515  0.2408
22641WAT      O92368   4.396   9.850   4.338  0.1230  0.0238  0.4958
22641WAT     H192369   4.418   9.818   4.251  0.2429 -0.5109  0.7191
22641WAT     H292370   4.407   9.774   4.395 -1.4458 -0.0534  0.7427
22641WAT    EPW92371   4.400   9.836   4.334 -0.0679 -0.0567  0.5579
22642WAT      O92372   1.914   4.151   6.311  0.3088  0.1824 -0.0414
22642WAT     H192373   1.854   4.088   6.271  0.2018  0.5962 -0.5496
22642WAT     H292374   1.987   4.157   6.249 -0.3153  1.5627 -0.6861
22642WAT    EPW92375   1.916   4.143   6.297  0.2124  0.4189 -0.1934
22643WAT      O92376  -4.002   8.372   8.666  0.3196 -0.0702  0.3105
22643WAT     H192377  -3.922   8.419   8.639  1.1993 -0.7328  1.6421
22643WAT     H292378  -4.021   8.406   8.754 -1.2978  0.5885 -0.2674
22643WAT    EPW92379  -3.994   8.383   8.674  0.2224 -0.0706  0.4096
22644WAT      O92380   5.885   1.769   3.158  0.5011 -0.7580  0.2999
22644WAT     H192381   5.870   1.680   3.125  2.3924 -1.0401  0.1191
22644WAT     H292382   5.818   1.822   3.114  0.5928 -1.7568 -1.1175
22644WAT    EPW92383   5.874   1.764   3.148  0.7627 -0.9270  0.0890
22645WAT      O92384   0.973   3.077   4.015 -0.2188  0.1712  0.2030
22645WAT     H192385   0.958   3.007   4.079 -1.0480  0.7580  0.6758
22645WAT     H292386   0.907   3.062   3.948 -1.1412  1.1308  0.8688
22645WAT    EPW92387   0.962   3.066   4.015 -0.4499  0.3752  0.3531
22646WAT      O92388   5.776   7.623   2.527 -0.8719 -0.0174  0.4987
22646WAT     H192389   5.825   7.698   2.495 -2.4349  0.6952 -0.3101
22646WAT     H292390   5.812   7.548   2.479 -1.1080  0.6082 -0.6773
22646WAT    EPW92391   5.788   7.623   2.517 -1.1094  0.1590  0.2369
22647WAT      O92392  -1.019   6.726   5.841  0.1609  0.4591 -0.0468
22647WAT     H192393  -1.047   6.649   5.792  0.0252  0.2276  0.3890
22647WAT     H292394  -1.038   6.705   5.932 -2.3544  2.0458 -0.1113
22647WAT    EPW92395  -1.025   6.713   5.846 -0.1887  0.6378  0.0024
22648WAT      O92396  -1.597   7.735   6.006 -0.3660  0.2948  0.3552
22648WAT     H192397  -1.545   7.742   5.926  0.1843  0.2440  0.6976
22648WAT     H292398  -1.550   7.670   6.059 -0.8399  0.1718  0.6305
22648WAT    EPW92399  -1.584   7.727   6.003 -0.3560  0.2718  0.4368
22649WAT      O92400   4.946   7.505   3.492 -0.0286 -0.0561  0.0043
22649WAT     H192401   4.966   7.500   3.586 -0.3590  0.0483  0.0849
22649WAT     H292402   4.967   7.419   3.458 -3.3006 -1.3346  0.8650
22649WAT    EPW92403   4.951   7.493   3.500 -0.5038 -0.2112  0.1284
22650WAT      O92404   2.536   4.209   8.507  0.1963  0.8781  0.0636
22650WAT     H192405   2.473   4.136   8.510 -0.2380  1.2660  2.6183
22650WAT     H292406   2.580   4.198   8.423 -0.7236 -1.5979 -0.2049
22650WAT    EPW92407   2.533   4.198   8.496  0.0176  0.6027  0.3653
22651WAT      O92408  -0.155   8.219   3.273  0.3419  0.3853  0.3086
22651WAT     H192409  -0.162   8.136   3.321 -1.2951 -0.4046 -1.1493
22651WAT     H292410  -0.062   8.227   3.253  0.3098 -2.6476 -1.9019
22651WAT    EPW92411  -0.144   8.209   3.276  0.1218 -0.1192 -0.1751
22652WAT      O92412   3.289   7.720   3.457  0.3348 -0.2376 -0.2593
22652WAT     H192413   3.373   7.741   3.414 -0.0987 -2.1884 -2.2712
22652WAT     H292414   3.228   7.710   3.384 -1.2427 -0.5519  1.0706
22652WAT    EPW92415   3.292   7.721   3.441  0.0696 -0.5364 -0.3492
22653WAT      O92416  -0.978   8.522   5.695  0.1387 -0.2718  0.1335
22653WAT     H192417  -1.058   8.571   5.714 -0.4036 -1.5029  1.1397
22653WAT     H292418  -0.944   8.564   5.615 -0.6642  1.2619  0.5388
22653WAT    EPW92419  -0.984   8.534   5.687 -0.0387 -0.2317  0.3197
22654WAT      O92420   4.409   2.438   6.037 -0.0685 -0.5951 -0.3507
22654WAT     H192421   4.404   2.467   6.128  1.7855 -0.5976 -0.2071
22654WAT     H292422   4.489   2.385   6.033  0.7352  0.6452 -2.2929
22654WAT    EPW92423   4.419   2.435   6.049  0.2820 -0.4318 -0.5879
22655WAT      O92424   0.318   8.158   7.931 -0.3150  0.1765 -0.1092
22655WAT     H192425   0.262   8.212   7.876 -1.3383 -0.9587 -0.2230
22655WAT     H292426   0.335   8.211   8.008  0.0051  1.2574 -0.9127
22655WAT    EPW92427   0.313   8.172   7.934 -0.4077  0.1693 -0.2301
22656WAT      O92428  -0.496   3.029   7.213  0.0425  0.1279  0.2719
22656WAT     H192429  -0.509   3.082   7.135  1.4646 -0.4319 -0.3825
22656WAT     H292430  -0.545   2.949   7.195 -1.3506  0.8147  0.8720
22656WAT    EPW92431  -0.504   3.025   7.200  0.0463  0.1447  0.2646
22657WAT      O92432   2.942   5.552   4.413 -0.0170 -0.4829 -0.1289
22657WAT     H192433   2.871   5.488   4.416  0.6836 -1.2443  0.8947
22657WAT     H292434   2.920   5.609   4.339 -1.4346 -0.9848 -0.1210
22657WAT    EPW92435   2.930   5.551   4.404 -0.1115 -0.6497  0.0074
22658WAT      O92436   5.994   1.543   4.938 -0.5134  0.3597  0.3171
22658WAT     H192437   6.036   1.467   4.898  0.0551  0.5687  0.5095
22658WAT     H292438   5.902   1.520   4.943 -0.4553 -0.0218 -0.3091
22658WAT    EPW92439   5.988   1.530   4.933 -0.4311  0.3369  0.2599
22659WAT      O92440   2.690   4.630   6.873 -0.0120  0.3248 -0.6662
22659WAT     H192441   2.743   4.676   6.808  1.5543 -1.1035 -0.4653
22659WAT     H292442   2.754   4.601   6.939 -1.3450  0.3727  0.7020
22659WAT    EPW92443   2.706   4.632   6.873  0.0187  0.1428 -0.4592
22660WAT      O92444  -2.143  10.026   8.565 -0.6624  0.0431  0.2332
22660WAT     H192445  -2.201   9.968   8.517 -2.2285  0.8578  1.0738
22660WAT     H292446  -2.177  10.028   8.654 -0.5311  2.0141  0.3027
22660WAT    EPW92447  -2.155  10.019   8.570 -0.8518  0.4106  0.3533
22661WAT      O92448   2.294   4.663   5.867  0.1765 -0.2283  0.4787
22661WAT     H192449   2.219   4.721   5.882 -0.4182 -0.8857  0.1366
22661WAT     H292450   2.370   4.712   5.899 -0.4174  0.3966  0.9532
22661WAT    EPW92451   2.294   4.677   5.873  0.0197 -0.2327  0.4961
22662WAT      O92452   2.247   6.026   2.019  0.0957  0.0435  0.0403
22662WAT     H192453   2.196   6.103   1.992  0.7049  1.0530  1.5771
22662WAT     H292454   2.300   6.058   2.092  1.3103 -1.5388 -0.0980
22662WAT    EPW92455   2.247   6.041   2.025  0.3362 -0.0319  0.2247
22663WAT      O92456   3.489   4.216   0.494 -0.5840 -0.0293 -0.0951
22663WAT     H192457   3.560   4.178   0.546 -0.9311 -0.1693  0.2880
22663WAT     H292458   3.520   4.303   0.469 -0.3415 -0.0315  0.1985
22663WAT    EPW92459   3.502   4.222   0.498 -0.5978 -0.0479 -0.0058
22664WAT      O92460   4.293   1.252   4.937 -0.2912 -0.3960 -0.7640
22664WAT     H192461   4.319   1.190   4.868  0.4442  1.9672 -2.7506
22664WAT     H292462   4.211   1.290   4.905  1.5205  2.8866 -2.0047
22664WAT    EPW92463   4.286   1.249   4.924  0.0446  0.3486 -1.1897
22665WAT      O92464   6.079   4.329   1.790 -0.6817  0.4138 -0.1139
22665WAT     H192465   6.173   4.313   1.793 -0.6202  0.8123  0.3818
22665WAT     H292466   6.057   4.354   1.880 -1.4185 -0.5301 -0.0166
22665WAT    EPW92467   6.089   4.330   1.803 -0.7706  0.3417 -0.0357
22666WAT      O92468   0.405   6.514   2.704 -0.9301  0.6247 -0.1141
22666WAT     H192469   0.486   6.558   2.730  0.4212 -2.1932  0.8371
22666WAT     H292470   0.340   6.584   2.702  1.4084  2.9755 -0.6417
22666WAT    EPW92471   0.407   6.529   2.707 -0.4434  0.5631 -0.0582
22667WAT      O92472   4.407   9.537   2.558 -0.4279 -0.3158  0.0081
22667WAT     H192473   4.450   9.603   2.612 -0.5184  0.6222 -1.0064
22667WAT     H292474   4.381   9.585   2.479 -1.9471 -1.2034 -0.0774
22667WAT    EPW92475   4.409   9.552   2.554 -0.6402 -0.3090 -0.1370
22668WAT      O92476   1.207   1.456   8.653 -0.3538 -0.7394  0.0179
22668WAT     H192477   1.228   1.534   8.602  2.3600 -2.8770 -2.4914
22668WAT     H292478   1.273   1.453   8.723 -0.4728 -0.7616  0.1301
22668WAT    EPW92479   1.218   1.466   8.656 -0.0116 -1.0243 -0.2980
22669WAT      O92480  -0.862   8.968   4.246  0.1190 -0.1768  0.0728
22669WAT     H192481  -0.840   8.887   4.201 -0.2473 -0.1267 -0.2011
22669WAT     H292482  -0.808   9.035   4.202  0.5296 -0.2937  0.3966
22669WAT    EPW92483  -0.852   8.966   4.234  0.1248 -0.1855  0.0794
22670WAT      O92484  -2.025   1.345   3.965 -0.1486  0.1714 -0.0111
22670WAT     H192485  -2.054   1.344   4.056 -0.5493  0.4277 -0.1328
22670WAT     H292486  -1.961   1.416   3.961 -0.3800  0.3805 -0.0051
22670WAT    EPW92487  -2.021   1.354   3.977 -0.2320  0.2328 -0.0263
22671WAT      O92488  -1.613   2.245   4.133  0.0493 -0.2728  0.5201
22671WAT     H192489  -1.690   2.219   4.183 -0.2130 -0.0178  0.2515
22671WAT     H292490  -1.568   2.309   4.188  0.4079 -0.8833  0.9484
22671WAT    EPW92491  -1.617   2.250   4.147  0.0620 -0.3196  0.5412
22672WAT      O92492  -2.114   6.559   0.889  0.3634 -0.4679 -1.2888
22672WAT     H192493  -2.179   6.488   0.886  0.0574 -0.1756 -1.5677
22672WAT     H292494  -2.033   6.517   0.859  0.1574 -0.6729 -1.5706
22672WAT    EPW92495  -2.112   6.544   0.884  0.2959 -0.4563 -1.3628
22673WAT      O92496   5.566   3.250   3.972 -0.1514 -0.4955 -0.5817
22673WAT     H192497   5.602   3.268   4.059 -1.0238 -0.0340 -0.3067
22673WAT     H292498   5.515   3.170   3.983 -1.1943  0.1774 -0.3858
22673WAT    EPW92499   5.564   3.242   3.985 -0.4041 -0.3459 -0.5196
22674WAT      O92500   0.086   3.531   0.693  0.0572  0.2377 -0.2506
22674WAT     H192501   0.101   3.442   0.661  1.9842 -0.7165  2.8521
22674WAT     H292502   0.159   3.581   0.658 -1.4419  0.9084 -2.6420
22674WAT    EPW92503   0.098   3.526   0.684  0.1136  0.2004 -0.1568
22675WAT      O92504  -3.147   1.727   8.526  0.4085 -0.5353  0.1917
22675WAT     H192505  -3.200   1.649   8.543 -0.2286 -0.3151 -0.7491
22675WAT     H292506  -3.204   1.785   8.476  1.5736 -0.3651 -1.0028
22675WAT    EPW92507  -3.161   1.724   8.522  0.4783 -0.4838 -0.0896
22676WAT      O92508  -4.604   8.853   5.148 -0.2134 -0.2322 -0.2031
22676WAT     H192509  -4.678   8.812   5.104 -1.5800  1.1083  0.7332
22676WAT     H292510  -4.626   8.946   5.150  0.1741 -0.1137  2.5163
22676WAT    EPW92511  -4.617   8.860   5.142 -0.3424 -0.0401  0.2792
22677WAT      O92512   1.126   6.090   5.602  0.2373 -0.5017  0.1687
22677WAT     H192513   1.108   6.080   5.508  1.2220  3.9388 -0.7281
22677WAT     H292514   1.080   6.170   5.627 -0.4323 -1.8304  3.7233
22677WAT    EPW92515   1.118   6.100   5.593  0.2789 -0.0911  0.5193
22678WAT      O92516   0.132   9.319   0.147 -0.2283  0.2126  0.8520
22678WAT     H192517   0.043   9.286   0.135 -0.0855 -0.0787  0.5859
22678WAT     H292518   0.136   9.341   0.240 -0.3902 -0.3478  1.0000
22678WAT    EPW92519   0.121   9.317   0.158 -0.2308  0.1006  0.8364
22679WAT      O92520  -2.195   6.814   7.688  0.0648  0.2730 -0.0548
22679WAT     H192521  -2.149   6.787   7.768 -0.1595 -0.6219 -0.2155
22679WAT     H292522  -2.223   6.731   7.648  2.1771  0.5317 -2.2799
22679WAT    EPW92523  -2.193   6.799   7.694  0.3138  0.1891 -0.3695
22680WAT      O92524  -4.733   6.060   4.221  0.6634  0.3716  0.1146
22680WAT     H192525  -4.698   6.137   4.176  1.4087 -0.5468 -0.9094
22680WAT     H292526  -4.659   6.000   4.228 -0.2858 -0.9462 -0.6414
22680WAT    EPW92527  -4.719   6.063   4.216  0.6366  0.0765 -0.1202
22681WAT      O92528  -2.313   4.842   8.085  0.0536 -0.2388  0.0995
22681WAT     H192529  -2.328   4.843   7.991 -0.1737  3.4655  0.0300
22681WAT     H292530  -2.396   4.871   8.124  1.0820  1.6294  1.0977
22681WAT    EPW92531  -2.326   4.846   8.078  0.1591  0.4961  0.2222
22682WAT      O92532   1.487   8.847   1.860  0.6854  0.1176 -0.6018
22682WAT     H192533   1.405   8.868   1.816  0.1226  1.4480  0.9586
22682WAT     H292534   1.540   8.801   1.794 -1.5164 -1.3228 -1.4665
22682WAT    EPW92535   1.484   8.844   1.846  0.3207  0.1030 -0.5100
22683WAT      O92536  -3.397   0.146   7.155 -0.6439 -0.2104  0.9679
22683WAT     H192537  -3.351   0.177   7.077 -1.8121  0.0916  0.3806
22683WAT     H292538  -3.343   0.073   7.187 -0.8914 -1.3223 -0.9748
22683WAT    EPW92539  -3.384   0.140   7.149 -0.8305 -0.3173  0.6342
22684WAT      O92540  -2.351   8.733   5.898  0.2421  0.7201 -0.1548
22684WAT     H192541  -2.345   8.799   5.829 -0.4511 -0.7875 -1.7447
22684WAT     H292542  -2.431   8.685   5.878 -1.7020  2.0423  3.4558
22684WAT    EPW92543  -2.361   8.735   5.886 -0.1059  0.6957  0.1118
22685WAT      O92544  -2.481   0.079   5.060 -0.6031  0.2411  0.0835
22685WAT     H192545  -2.564   0.123   5.080  0.4240  1.3978  2.1731
22685WAT     H292546  -2.427   0.095   5.137  1.2648 -1.2663 -0.8393
22685WAT    EPW92547  -2.485   0.087   5.073 -0.2213  0.1948  0.2375
22686WAT      O92548  -4.705   7.772   5.800 -0.2368 -0.5112  0.6360
22686WAT     H192549  -4.788   7.729   5.776 -0.9478  1.6127 -1.0869
22686WAT     H292550  -4.716   7.796   5.892 -1.0955 -1.1780  0.7215
22686WAT    EPW92551  -4.718   7.769   5.809 -0.4437 -0.3192  0.4201
22687WAT      O92552  -5.520   3.367   8.715  0.2280  0.1327 -0.4667
22687WAT     H192553  -5.474   3.286   8.693 -0.2861 -0.5093  0.7855
22687WAT     H292554  -5.451   3.434   8.713  0.5911 -0.2358 -1.8645
22687WAT    EPW92555  -5.505   3.365   8.712  0.2084 -0.0007 -0.4859
22688WAT      O92556  -2.592   1.000   7.571  0.0059 -0.0466 -0.2707
22688WAT     H192557  -2.547   0.999   7.487  0.6991 -0.9909  0.0950
22688WAT     H292558  -2.523   0.987   7.636 -0.8125 -2.2338  0.2664
22688WAT    EPW92559  -2.577   0.998   7.569 -0.0107 -0.4596 -0.1519
22689WAT      O92560  -1.304   9.784   2.163  0.1242  0.0744 -0.4494
22689WAT     H192561  -1.293   9.827   2.079 -2.8823  1.2216 -0.3813
22689WAT     H292562  -1.321   9.693   2.142  1.6647 -0.1351 -0.8938
22689WAT    EPW92563  -1.305   9.778   2.149 -0.0691  0.1984 -0.4990
22690WAT      O92564   0.189   3.042   5.662 -0.2535  0.1103  0.1622
22690WAT     H192565   0.156   2.955   5.637 -0.0436 -0.0448  0.4212
22690WAT     H292566   0.116   3.101   5.644  0.9454  0.6011 -4.3049
22690WAT    EPW92567   0.175   3.038   5.656 -0.0677  0.1546 -0.3929
22691WAT      O92568  -4.236   9.616   7.988 -0.0570 -0.0335  0.8164
22691WAT     H192569  -4.306   9.673   8.021  0.4411  0.8974  0.2902
22691WAT     H292570  -4.280   9.532   7.972 -1.2161  0.7163 -0.1529
22691WAT    EPW92571  -4.251   9.612   7.991 -0.1442  0.1884  0.6192
22692WAT      O92572  -2.911   0.678   7.760  0.3334 -0.7580 -0.4962
22692WAT     H192573  -2.999   0.713   7.769  0.6282  0.0695 -0.7806
22692WAT     H292574  -2.878   0.671   7.849  0.2671 -0.3307 -0.4400
22692WAT    EPW92575  -2.918   0.681   7.773  0.3635 -0.5925 -0.5264
22693WAT      O92576  -1.278   4.353   2.110 -0.6171 -0.1827  0.3645
22693WAT     H192577  -1.355   4.300   2.130 -1.5803  1.7307  2.0434
22693WAT     H292578  -1.313   4.438   2.083  0.8696  0.6381  0.8542
22693WAT    EPW92579  -1.292   4.357   2.109 -0.5481  0.1776  0.6506
22694WAT      O92580   5.319   3.843   0.393  0.5393 -0.7791  0.3002
22694WAT     H192581   5.255   3.913   0.400 -1.0302 -1.8425 -1.9729
22694WAT     H292582   5.267   3.763   0.397  1.7617 -1.6934 -1.0538
22694WAT    EPW92583   5.304   3.842   0.394  0.4935 -1.0401 -0.1782
22695WAT      O92584   2.058   6.522   3.266 -0.4436 -0.0258 -0.5147
22695WAT     H192585   2.090   6.469   3.339  0.7283 -1.5379 -2.0536
22695WAT     H292586   1.970   6.488   3.249 -0.6492  0.2074  0.0594
22695WAT    EPW92587   2.050   6.510   3.273 -0.3161 -0.1945 -0.6419
22696WAT      O92588   4.450   8.810   0.800 -0.0937  0.3558 -0.0317
22696WAT     H192589   4.409   8.896   0.794 -0.4854  0.1776  0.0987
22696WAT     H292590   4.517   8.820   0.868 -1.5622 -0.0163  1.5125
22696WAT    EPW92591   4.454   8.823   0.808 -0.3390  0.2828  0.1892
22697WAT      O92592   6.804   2.896   0.401 -0.0369  0.2058  0.6600
22697WAT     H192593   6.749   2.885   0.323  0.7121 -0.5358  0.2175
22697WAT     H292594   6.849   2.811   0.410  3.5500  1.7208 -0.9364
22697WAT    EPW92595   6.803   2.883   0.392  0.5350  0.3079  0.3911
22698WAT      O92596   2.042   8.444   6.290  0.1081 -0.8213 -0.1243
22698WAT     H192597   1.946   8.447   6.289  0.1228  1.2712  0.4716
22698WAT     H292598   2.062   8.373   6.351 -1.1068 -0.2354  1.0362
22698WAT    EPW92599   2.032   8.435   6.298 -0.0502 -0.4678  0.1073
22699WAT      O92600   2.199   5.579   6.404 -0.8919 -0.0931  0.1333
22699WAT     H192601   2.253   5.658   6.403 -1.8168  0.5788 -1.6429
22699WAT     H292602   2.193   5.552   6.312 -1.8466 -1.3537  0.5272
22699WAT    EPW92603   2.205   5.586   6.392 -1.1398 -0.1707 -0.0489
22700WAT      O92604   1.031   5.241   8.376  0.2203 -0.2012 -0.4031
22700WAT     H192605   0.949   5.290   8.371 -0.3466 -0.9618  1.0019
22700WAT     H292606   1.084   5.278   8.305 -0.8281  1.2196 -0.5097
22700WAT    EPW92607   1.027   5.253   8.366  0.0073 -0.1142 -0.2317
22701WAT      O92608  -2.350   0.612   6.340  0.7454  0.3714 -0.3950
22701WAT     H192609  -2.412   0.553   6.384  0.5836  0.4469 -0.5183
22701WAT     H292610  -2.338   0.574   6.253  1.1742  0.1459 -0.2355
22701WAT    EPW92611  -2.357   0.599   6.334  0.7807  0.3516 -0.3903
22702WAT      O92612   4.498   1.624   2.581 -0.3613 -0.3634  1.0314
22702WAT     H192613   4.409   1.597   2.559 -0.1991 -1.2241  1.3884
22702WAT     H292614   4.521   1.689   2.515 -1.6186  0.6260  1.5205
22702WAT    EPW92615   4.489   1.629   2.569 -0.5057 -0.3464  1.1430
22703WAT      O92616   4.604   4.416   2.216  0.2944  0.2374  0.7475
22703WAT     H192617   4.680   4.382   2.170 -0.9864 -2.5230  0.4975
22703WAT     H292618   4.532   4.408   2.154 -0.3835  2.3109  1.1590
22703WAT    EPW92619   4.605   4.411   2.202  0.0360  0.1469  0.7688
22704WAT      O92620  -0.058   9.178   7.219  0.5922  0.0843 -0.5450
22704WAT     H192621  -0.119   9.172   7.292 -0.5800  0.0957 -1.5047
22704WAT     H292622  -0.061   9.269   7.191  0.1971 -0.1508 -1.2995
22704WAT    EPW92623  -0.066   9.189   7.225  0.3855  0.0548 -0.7713
22705WAT      O92624  -1.551   0.609   6.267 -0.4999 -0.1204  0.0080
22705WAT     H192625  -1.591   0.591   6.352 -0.4350 -1.4534 -0.2208
22705WAT     H292626  -1.458   0.617   6.286 -0.6623  1.4177  0.3078
22705WAT    EPW92627  -1.544   0.608   6.281 -0.5127 -0.0934  0.0174
22706WAT      O92628   4.726   5.683   3.144 -0.1047  0.0550 -0.2465
22706WAT     H192629   4.743   5.648   3.232 -1.1577  1.1584  0.4309
22706WAT     H292630   4.634   5.710   3.146 -0.1369  0.1371 -1.6846
22706WAT    EPW92631   4.716   5.682   3.156 -0.2480  0.2115 -0.3468
22707WAT      O92632   2.366   3.897   2.066  0.0054  0.5581  0.0424
22707WAT     H192633   2.436   3.852   2.112 -0.4945 -0.3168 -0.0195
22707WAT     H292634   2.330   3.958   2.131 -0.7133 -0.6779  0.8587
22707WAT    EPW92635   2.370   3.899   2.081 -0.1554  0.2797  0.1419
22708WAT      O92636  -0.447   1.808   2.896 -0.3370 -0.3267 -0.2704
22708WAT     H192637  -0.416   1.837   2.981  1.9637 -1.8105 -0.5117
22708WAT     H292638  -0.480   1.719   2.912 -4.2779  0.9508 -0.1403
22708WAT    EPW92639  -0.448   1.800   2.909 -0.5534 -0.3539 -0.2850
22709WAT      O92640   2.526   7.811   7.623 -0.9661 -0.2809 -0.0601
22709WAT     H192641   2.526   7.901   7.656 -2.3896 -0.4904  0.5912
22709WAT     H292642   2.534   7.821   7.528  1.1834  0.4131  0.1304
22709WAT    EPW92643   2.527   7.824   7.615 -0.8703 -0.2170  0.0510
22710WAT      O92644   2.000   4.326   4.069 -0.1297 -0.3151  0.0898
22710WAT     H192645   1.965   4.335   3.981 -3.1519  0.1740  1.2113
22710WAT     H292646   1.973   4.239   4.097 -1.6892  0.5533  1.4500
22710WAT    EPW92647   1.992   4.316   4.061 -0.7340 -0.1361  0.4172
22711WAT      O92648   3.099   1.244   1.086 -0.3867 -0.3734  0.2354
22711WAT     H192649   3.074   1.184   1.015  1.1876 -2.4578  1.3526
22711WAT     H292650   3.059   1.206   1.164  0.2697  0.2936  0.9025
22711WAT    EPW92651   3.090   1.231   1.087 -0.0925 -0.5603  0.4708
22712WAT      O92652  -1.535  10.029   5.839  0.1031 -0.2364 -0.0448
22712WAT     H192653  -1.481  10.105   5.817 -0.2503 -0.9122 -3.8679
22712WAT     H292654  -1.473   9.961   5.864  0.8882 -0.2187 -1.8188
22712WAT    EPW92655  -1.520  10.030   5.839  0.1600 -0.3233 -0.7830
22713WAT      O92656   1.610   3.026   1.692  0.4180 -0.2064  0.7998
22713WAT     H192657   1.661   2.994   1.765  2.2847  0.5537 -0.1050
22713WAT     H292658   1.533   3.067   1.732  1.0006 -0.5100  2.2681
22713WAT    EPW92659   1.606   3.027   1.707  0.7411 -0.1463  0.8741
22714WAT      O92660  -6.506   7.448   8.164 -0.2235  0.3229  0.6718
22714WAT     H192661  -6.429   7.421   8.114 -0.9597 -2.0699  0.6950
22714WAT     H292662  -6.560   7.494   8.100 -0.1132 -0.6956 -0.1951
22714WAT    EPW92663  -6.503   7.450   8.149 -0.3059 -0.1273  0.5608
22715WAT      O92664   4.317   0.161   4.506  0.3662 -0.0788 -0.1773
22715WAT     H192665   4.347   0.078   4.544  1.2573 -0.6379 -1.9913
22715WAT     H292666   4.328   0.224   4.577 -0.3469 -1.4852  1.2646
22715WAT    EPW92667   4.323   0.158   4.520  0.3898 -0.3380 -0.2265
22716WAT      O92668   1.227   2.773   2.344 -0.4303 -0.1043 -0.0486
22716WAT     H192669   1.275   2.773   2.261  2.6951  1.5560  1.5672
22716WAT     H292670   1.165   2.845   2.335 -1.2471 -0.9476 -1.4640
22716WAT    EPW92671   1.225   2.783   2.332 -0.1258  0.0035 -0.0223
22717WAT      O92672   1.369   0.365   0.123 -0.4535 -0.8822 -0.1138
22717WAT     H192673   1.292   0.340   0.174  2.1309 -3.4460  2.9742
22717WAT     H292674   1.398   0.284   0.082 -0.1570  0.3459 -2.5041
22717WAT    EPW92675   1.363   0.351   0.124 -0.0736 -1.0584 -0.0218
22718WAT      O92676   0.464   4.753   7.745 -0.1151 -0.2420 -0.7171
22718WAT     H192677   0.414   4.805   7.808 -0.6272 -1.7122  0.1279
22718WAT     H292678   0.523   4.817   7.704 -0.9513  1.0658  0.0233
22718WAT    EPW92679   0.465   4.769   7.748 -0.2930 -0.2635 -0.5081
22719WAT      O92680  -1.181   0.308   4.481  0.0247 -0.9210 -0.1625
22719WAT     H192681  -1.213   0.294   4.391 -1.0826  2.3313 -0.4422
22719WAT     H292682  -1.215   0.233   4.530 -1.2633 -1.6755 -2.0494
22719WAT    EPW92683  -1.190   0.296   4.476 -0.2912 -0.5915 -0.4482
22720WAT      O92684   6.043   3.917   3.740  0.1605 -0.7131  0.0235
22720WAT     H192685   6.081   3.841   3.784  1.6936 -1.1807 -1.9960
22720WAT     H292686   6.030   3.888   3.650  0.5485  1.3480 -0.7308
22720WAT    EPW92687   6.046   3.903   3.734  0.4139 -0.5029 -0.3424
22721WAT      O92688  -0.867   5.287   1.713 -0.3801 -0.7296  0.1188
22721WAT     H192689  -0.932   5.281   1.783 -0.1762 -2.0640  0.2171
22721WAT     H292690  -0.893   5.219   1.650 -0.8640  0.7701 -1.3964
22721WAT    EPW92691  -0.879   5.277   1.714 -0.4171 -0.7079 -0.0681
22722WAT      O92692  -0.071   6.879   7.983 -0.4022 -0.1462  0.1967
22722WAT     H192693   0.024   6.874   7.993 -0.4594 -1.6223  0.1933
22722WAT     H292694  -0.087   6.970   7.958  1.2146 -0.3917 -2.0270
22722WAT    EPW92695  -0.061   6.891   7.981 -0.1965 -0.3734 -0.0973
22723WAT      O92696   4.238   7.469   5.661 -0.0348  0.1239 -1.1167
22723WAT     H192697   4.212   7.554   5.695  1.3323 -1.1873  4.0801
22723WAT     H292698   4.161   7.413   5.672  0.5147 -0.3900  0.3053
22723WAT    EPW92699   4.225   7.473   5.667  0.2179 -0.1168 -0.2439
22724WAT      O92700   0.881   5.796   1.137 -0.0340  0.0675 -0.7748
22724WAT     H192701   0.971   5.825   1.124  0.5340 -1.7268 -1.1125
22724WAT     H292702   0.861   5.745   1.058 -0.2500 -2.1513  0.6527
22724WAT    EPW92703   0.890   5.793   1.125  0.0124 -0.4618 -0.6310
22725WAT      O92704   3.201   4.155   1.073 -0.0349  0.3421 -0.0969
22725WAT     H192705   3.267   4.146   1.141  0.1983  1.7413 -0.1062
22725WAT     H292706   3.247   4.134   0.992 -0.0671 -0.3986  0.0748
22725WAT    EPW92707   3.216   4.151   1.071 -0.0083  0.4292 -0.0754
22726WAT      O92708   1.385   7.421   6.057 -0.4822  0.5759  0.1751
22726WAT     H192709   1.425   7.333   6.057 -0.7064  0.3941 -2.7425
22726WAT     H292710   1.448   7.475   6.105  1.9506 -0.3160 -1.7634
22726WAT    EPW92711   1.399   7.416   6.064 -0.1909  0.4342 -0.4652
22727WAT      O92712   9.859   0.120   0.393 -0.1344  0.0185 -0.0656
22727WAT     H192713   9.825   0.031   0.406 -0.6805  0.1337 -0.6872
22727WAT     H292714   9.938   0.123   0.447 -0.5587 -0.5791  0.6081
22727WAT    EPW92715   9.865   0.109   0.402 -0.2627 -0.0451 -0.0587
22728WAT      O92716   2.071   7.148   2.969 -0.1857  0.3263  0.3312
22728WAT     H192717   2.135   7.147   2.898 -1.8171 -0.6912 -1.1963
22728WAT     H292718   2.056   7.241   2.986  1.7539  0.5985  0.8438
22728WAT    EPW92719   2.078   7.160   2.962 -0.1450  0.2279  0.1974
22729WAT      O92720   8.921   3.205   0.933  1.0169  0.5705 -0.1214
22729WAT     H192721   8.844   3.247   0.896  1.1512  0.7990 -0.1444
22729WAT     H292722   8.886   3.138   0.992  0.7789 -0.7701 -1.7038
22729WAT    EPW92723   8.906   3.202   0.936  1.0033  0.4238 -0.3331
22730WAT      O92724  -5.242   2.178   8.828 -0.0283 -0.6386 -0.8993
22730WAT     H192725  -5.270   2.193   8.919 -2.6552  2.4568 -1.9760
22730WAT     H292726  -5.309   2.121   8.792  0.9459 -1.7663 -0.9590
22730WAT    EPW92727  -5.255   2.173   8.835 -0.2463 -0.3791 -1.0495
22731WAT      O92728   4.704   8.354   1.135 -0.2714  0.8197 -0.0824
22731WAT     H192729   4.632   8.397   1.182 -1.1635  0.7110 -1.2996
22731WAT     H292730   4.705   8.264   1.169 -1.9278  0.2872 -1.3096
22731WAT    EPW92731   4.694   8.348   1.145 -0.6075  0.7353 -0.4048
22732WAT      O92732  -0.317   0.583   5.881 -0.0548 -0.2168 -0.5532
22732WAT     H192733  -0.262   0.613   5.953 -1.4574  0.3971  0.3053
22732WAT     H292734  -0.406   0.609   5.906 -1.0939 -3.1709 -0.7765
22732WAT    EPW92735  -0.322   0.590   5.894 -0.3769 -0.5254 -0.4694
22733WAT      O92736   6.355   5.876   2.341 -0.3138  0.1327  0.0484
22733WAT     H192737   6.369   5.944   2.407  0.1798 -0.6327  0.7690
22733WAT     H292738   6.375   5.794   2.388 -0.4521 -0.4675 -0.9185
22733WAT    EPW92739   6.359   5.874   2.356 -0.2670 -0.0472  0.0160
22734WAT      O92740  -1.103  10.003   6.016  0.6112  0.0272  0.0622
22734WAT     H192741  -1.124   9.986   5.924 -2.3488 -1.0125  0.8298
22734WAT     H292742  -1.111  10.098   6.025  0.7095  0.1166 -0.6968
22734WAT    EPW92743  -1.107  10.013   6.005  0.2337 -0.0982  0.0632
22735WAT      O92744   4.049   4.989   0.572 -0.4686  1.0619 -0.2612
22735WAT     H192745   4.145   4.980   0.573 -0.6357 -1.7552  1.4449
22735WAT     H292746   4.021   4.931   0.501 -0.9764  0.4879  0.4057
22735WAT    EPW92747   4.058   4.981   0.563 -0.5574  0.6146  0.0518
22736WAT      O92748   1.249   4.977   6.644  0.0229  0.1261  0.2809
22736WAT     H192749   1.292   4.967   6.729 -0.1846 -2.0109  0.1708
22736WAT     H292750   1.171   4.922   6.649 -0.2563  0.3430 -1.1426
22736WAT    EPW92751   1.244   4.968   6.656 -0.0412 -0.1271  0.0787
22737WAT      O92752  -1.602   9.745   8.010 -0.0908  0.3714  0.3341
22737WAT     H192753  -1.652   9.805   7.954 -3.4010  0.2840  2.9021
22737WAT     H292754  -1.584   9.670   7.954 -1.8764  0.9177 -1.0952
22737WAT    EPW92755  -1.606   9.743   7.995 -0.7628  0.4320  0.4842
22738WAT      O92756   5.436   5.667   1.006 -0.3012 -0.0535  0.0227
22738WAT     H192757   5.449   5.736   1.071  0.5425  0.7081 -0.9188
22738WAT     H292758   5.447   5.711   0.922  3.0748 -1.7914 -0.6226
22738WAT    EPW92759   5.439   5.682   1.003  0.2553 -0.1822 -0.1866
22739WAT      O92760  -1.212   1.722   7.849 -0.2764  0.2193  0.2498
22739WAT     H192761  -1.206   1.637   7.807 -0.5808 -0.4881  1.5784
22739WAT     H292762  -1.184   1.785   7.782  4.4866 -1.2251  0.5542
22739WAT    EPW92763  -1.208   1.719   7.835  0.3117 -0.0645  0.4652
22740WAT      O92764   1.269   1.350   5.826  0.2826  0.1786 -0.2589
22740WAT     H192765   1.334   1.316   5.887  0.9327  0.7551 -0.6195
22740WAT     H292766   1.231   1.271   5.786 -0.6271 -0.2290  1.3463
22740WAT    EPW92767   1.273   1.335   5.829  0.2484  0.2009 -0.0947
22741WAT      O92768  -4.228   8.744   6.075  0.6479 -0.5592 -0.1007
22741WAT     H192769  -4.324   8.748   6.066  0.8016  2.8419 -1.5601
22741WAT     H292770  -4.197   8.731   5.985  1.5915 -0.2680  0.1744
22741WAT    EPW92771  -4.237   8.743   6.062  0.7925 -0.0720 -0.2568
22742WAT      O92772  -1.259   8.634   5.781 -0.5931 -0.6950  0.2849
22742WAT     H192773  -1.283   8.562   5.840 -3.2455  0.6060  0.9022
22742WAT     H292774  -1.285   8.603   5.695 -1.2904 -0.6821  0.4854
22742WAT    EPW92775  -1.265   8.620   5.778 -1.0349 -0.5217  0.3927
22743WAT      O92776   2.730   8.890   3.938  0.4794 -0.1598  0.1366
22743WAT     H192777   2.740   8.796   3.949  0.6745 -0.1672 -0.1091
22743WAT     H292778   2.642   8.901   3.903  0.7111 -0.3028 -0.5032
22743WAT    EPW92779   2.720   8.879   3.935  0.5356 -0.1798  0.0199
22744WAT      O92780   3.003   0.605   4.794 -0.2818  0.3826  0.1007
22744WAT     H192781   2.918   0.570   4.818 -0.2306 -1.5264 -2.2349
22744WAT     H292782   3.010   0.592   4.700  2.1625  1.4953  0.0359
22744WAT    EPW92783   2.993   0.599   4.785  0.0473  0.2776 -0.2160
22745WAT      O92784   5.965   3.802   4.989  0.0070 -0.7020  0.9017
22745WAT     H192785   5.993   3.768   4.905  0.3008  2.5152 -0.4473
22745WAT     H292786   5.891   3.747   5.014  1.3763 -3.2113 -0.2151
22745WAT    EPW92787   5.959   3.790   4.982  0.2263 -0.6086  0.5765
22746WAT      O92788  -2.007   4.615   2.055 -0.3685 -0.0685 -0.1344
22746WAT     H192789  -1.940   4.682   2.066 -2.0303  1.5519  0.7151
22746WAT     H292790  -2.036   4.595   2.144  0.3358 -2.2622 -0.3259
22746WAT    EPW92791  -2.002   4.621   2.068 -0.4948 -0.1442 -0.0476
22747WAT      O92792  -1.759   1.605   2.913  0.6516  0.3785 -0.2698
22747WAT     H192793  -1.748   1.517   2.877 -0.2427  0.0028  0.3378
22747WAT     H292794  -1.834   1.598   2.972  0.7191  1.4937 -0.0203
22747WAT    EPW92795  -1.767   1.593   2.916  0.5426  0.4760 -0.1566
22748WAT      O92796  -6.241   4.985   8.962 -0.4782 -0.0718  0.4830
22748WAT     H192797  -6.249   4.957   9.053 -0.5608 -0.5119  0.3466
22748WAT     H292798  -6.207   4.907   8.917  1.1737  0.6390  0.4268
22748WAT    EPW92799  -6.237   4.971   8.968 -0.2713 -0.0362  0.4573
22749WAT      O92800   1.288   2.450   0.865 -0.1904 -0.2810 -0.2842
22749WAT     H192801   1.363   2.489   0.821 -1.1200  2.2499  0.2413
22749WAT     H292802   1.219   2.515   0.859 -1.7245 -1.6766  1.0537
22749WAT    EPW92803   1.289   2.464   0.858 -0.5153 -0.1314 -0.0384
22750WAT      O92804   1.494   4.589   5.616  0.3914  0.5761 -0.1198
22750WAT     H192805   1.493   4.500   5.583  1.1395 -0.0848  1.5090
22750WAT     H292806   1.496   4.579   5.711  4.6126  2.2107  0.1436
22750WAT    EPW92807   1.494   4.576   5.624  1.0468  0.7045  0.1299
22751WAT      O92808   4.679   2.570   3.693 -0.0864 -0.4870  0.2739
22751WAT     H192809   4.719   2.505   3.635 -0.5455  0.6875 -1.4249
22751WAT     H292810   4.587   2.572   3.666 -0.8664 -1.5189  2.5955
22751WAT    EPW92811   4.672   2.562   3.682 -0.2496 -0.4681  0.3560
22752WAT      O92812   8.267   0.552   2.724 -0.8160  0.4602  0.0857
22752WAT     H192813   8.200   0.607   2.685 -0.3513  1.7460  1.0263
22752WAT     H292814   8.341   0.610   2.737  0.3313 -0.8184 -0.4843
22752WAT    EPW92815   8.268   0.567   2.721 -0.6037  0.4612  0.1346
22753WAT      O92816   5.452   4.306   2.486 -0.0210 -0.2426 -0.0389
22753WAT     H192817   5.464   4.244   2.559 -0.6034  1.9945  2.1010
22753WAT     H292818   5.502   4.383   2.512 -2.2939  1.5802 -0.7307
22753WAT    EPW92819   5.460   4.308   2.499 -0.3977  0.2930  0.1521
22754WAT      O92820   0.795   1.931   2.562 -0.0123 -0.5724  0.2760
22754WAT     H192821   0.837   1.848   2.538  0.0339 -0.4347 -0.1241
22754WAT     H292822   0.818   1.943   2.655 -0.4712 -1.2766  0.4915
22754WAT    EPW92823   0.804   1.922   2.571 -0.0667 -0.6472  0.2517
22755WAT      O92824  -3.389   5.586   8.219 -0.4304 -0.6007 -0.6336
22755WAT     H192825  -3.325   5.552   8.155  0.1173 -2.9247  1.0324
22755WAT     H292826  -3.376   5.681   8.216  2.2980 -0.8903 -1.2287
22755WAT    EPW92827  -3.379   5.594   8.210  0.0017 -0.9456 -0.4926
22756WAT      O92828   4.207   1.178   2.966  0.4738  0.7627 -0.0350
22756WAT     H192829   4.140   1.183   3.034  1.3488  1.0561  0.8371
22756WAT     H292830   4.287   1.209   3.009  1.2519  0.0629 -0.9274
22756WAT    EPW92831   4.209   1.182   2.981  0.6919  0.7091 -0.0377
22757WAT      O92832   3.831   1.462   3.528 -0.0240 -0.2611 -0.4803
22757WAT     H192833   3.912   1.449   3.478  1.7319  1.2311  1.7047
22757WAT     H292834   3.811   1.555   3.517  0.0755 -0.0338  0.9820
22757WAT    EPW92835   3.839   1.472   3.520  0.2208 -0.0344  0.0007
22758WAT      O92836   2.801   0.847   6.432  0.3300  0.4038 -0.0496
22758WAT     H192837   2.856   0.898   6.372 -0.5811  1.8103  0.2591
22758WAT     H292838   2.758   0.782   6.377  0.1779  1.1109 -0.7717
22758WAT    EPW92839   2.802   0.845   6.417  0.1898  0.6825 -0.1040
22759WAT      O92840   7.738   0.304   2.166  0.8449  0.0248  0.4129
22759WAT     H192841   7.740   0.250   2.087 -0.9202  0.2341  0.1735
22759WAT     H292842   7.697   0.248   2.232 -0.9708  0.9857  0.1713
22759WAT    EPW92843   7.733   0.290   2.165  0.3726  0.1792  0.3495
22760WAT      O92844  -0.525   3.099   5.683  0.0524  0.5704 -0.7618
22760WAT     H192845  -0.431   3.089   5.699  0.1832 -0.9071 -2.2874
22760WAT     H292846  -0.530   3.143   5.598 -0.6530  1.4002 -0.3043
22760WAT    EPW92847  -0.513   3.104   5.674 -0.0234  0.4851 -0.9029
22761WAT      O92848   7.109   2.287   1.487 -0.0231 -0.2535 -0.3003
22761WAT     H192849   7.188   2.326   1.526  1.1374 -2.2479 -0.5153
22761WAT     H292850   7.038   2.343   1.516  1.4068  1.3015  0.3769
22761WAT    EPW92851   7.110   2.299   1.496  0.3185 -0.3115 -0.2394
22762WAT      O92852   2.289   2.935   6.612  0.3125 -0.0163  0.1489
22762WAT     H192853   2.270   2.866   6.548 -2.4146  1.7713 -1.1673
22762WAT     H292854   2.375   2.969   6.585  0.1159 -0.6089 -1.3669
22762WAT    EPW92855   2.298   2.930   6.600 -0.0731  0.1413 -0.2246
22763WAT      O92856   2.026   4.302   3.644 -0.6210 -0.2800 -0.2699
22763WAT     H192857   1.982   4.267   3.567 -2.6056 -0.4890  0.8764
22763WAT     H292858   2.035   4.395   3.627 -1.7600 -0.1921 -0.4542
22763WAT    EPW92859   2.021   4.309   3.632 -1.0329 -0.2961 -0.1431
22764WAT      O92860   4.090   1.398   3.495  0.0708  0.1542 -0.3591
22764WAT     H192861   4.105   1.461   3.565  0.9383  1.1643 -1.4206
22764WAT     H292862   4.176   1.359   3.478 -0.7435 -2.8692  1.6149
22764WAT    EPW92863   4.103   1.401   3.502  0.0777 -0.1113 -0.2387
22765WAT      O92864   6.336   0.361   0.669  0.1220 -0.1238  0.0084
22765WAT     H192865   6.278   0.436   0.677  1.7138  1.3837 -1.6914
22765WAT     H292866   6.326   0.314   0.752 -2.3551  0.8580  0.3445
22765WAT    EPW92867   6.327   0.365   0.681  0.0052  0.2045 -0.1715
22766WAT      O92868  -0.579   8.865   7.559  0.3669 -0.4180  0.6677
22766WAT     H192869  -0.495   8.882   7.602  0.3645 -0.6366  0.7567
22766WAT     H292870  -0.643   8.878   7.629  0.4104 -1.4920  0.9141
22766WAT    EPW92871  -0.576   8.869   7.574  0.3724 -0.5889  0.7117
22767WAT      O92872  -1.023   8.105   3.384 -0.6356  0.1258 -0.1893
22767WAT     H192873  -1.005   8.165   3.312  1.0560 -0.2937 -0.1596
22767WAT     H292874  -1.013   8.018   3.346  4.9082 -0.3096  1.2644
22767WAT    EPW92875  -1.019   8.101   3.370  0.3187  0.0134  0.0063
22768WAT      O92876   0.076   4.900   4.682 -0.3190 -0.3088 -0.0664
22768WAT     H192877   0.075   4.809   4.651 -2.0083 -0.0670 -0.8554
22768WAT     H292878   0.109   4.895   4.771 -0.1962 -1.6659 -0.1646
22768WAT    EPW92879   0.080   4.887   4.689 -0.5256 -0.4559 -0.1833
22769WAT      O92880  -5.054   9.293   5.532  0.1199 -0.2429 -0.3357
22769WAT     H192881  -5.015   9.214   5.570  2.1535  0.6035 -0.5096
22769WAT     H292882  -5.117   9.260   5.467  1.4475 -1.7523 -0.9387
22769WAT    EPW92883  -5.057   9.278   5.528  0.5634 -0.3300 -0.4382
22770WAT      O92884  -5.642  10.070   3.538 -0.3431 -0.0869  0.0999
22770WAT     H192885  -5.597  10.128   3.599 -0.6091  1.1491 -0.8331
22770WAT     H292886  -5.616  10.101   3.451 -1.8283 -0.2719 -0.4488
22770WAT    EPW92887  -5.632  10.082   3.535 -0.5741  0.0515 -0.0955
22771WAT      O92888  -1.684   7.202   0.679 -0.3589 -0.9366 -0.0352
22771WAT     H192889  -1.763   7.152   0.702 -1.4182  0.6399 -0.1418
22771WAT     H292890  -1.682   7.201   0.583 -2.3765  2.0680 -0.2370
22771WAT    EPW92891  -1.694   7.195   0.669 -0.7647 -0.3324 -0.0759
22772WAT      O92892  -2.298   0.963   4.388 -0.1643  0.0511  0.3733
22772WAT     H192893  -2.330   0.884   4.432 -0.7996  0.2133  0.2188
22772WAT     H292894  -2.355   1.033   4.419 -1.5371 -0.0545 -1.6827
22772WAT    EPW92895  -2.310   0.962   4.398 -0.4290  0.0586  0.0815
22773WAT      O92896  -1.450   0.530   7.676  0.1440 -0.2384 -0.6219
22773WAT     H192897  -1.358   0.549   7.693  0.7240 -1.0886 -2.5723
22773WAT     H292898  -1.453   0.435   7.664 -1.5231 -0.6510  2.2524
22773WAT    EPW92899  -1.438   0.520   7.677  0.0006 -0.4050 -0.5000
22774WAT      O92900   3.342   4.374   8.764  0.3504 -0.0114  0.4587
22774WAT     H192901   3.370   4.374   8.856  2.0474 -1.9120  0.0284
22774WAT     H292902   3.379   4.293   8.728 -1.5920 -0.1080 -1.5332
22774WAT    EPW92903   3.351   4.363   8.772  0.3179 -0.2749  0.1392
22775WAT      O92904   6.637   7.124   2.359  0.4203  0.1289 -0.0902
22775WAT     H192905   6.665   7.100   2.447  0.2151  0.3889  0.0470
22775WAT     H292906   6.542   7.112   2.358 -0.0287  2.8918  0.6557
22775WAT    EPW92907   6.628   7.120   2.370  0.3340  0.5279  0.0263
22776WAT      O92908   7.329   2.374   1.639  0.0940 -0.0317  0.1680
22776WAT     H192909   7.406   2.327   1.672  1.3798  0.6597 -1.7218
22776WAT     H292910   7.335   2.461   1.681  0.8314  0.3018 -0.5987
22776WAT    EPW92911   7.340   2.380   1.649  0.3607  0.1035 -0.1824
22777WAT      O92912  -2.881   9.279   0.726 -0.1487  0.5002 -0.0303
22777WAT     H192913  -2.942   9.312   0.792  0.7348 -1.7792  2.0611
22777WAT     H292914  -2.794   9.295   0.763  0.3642 -1.1339 -0.4434
22777WAT    EPW92915  -2.877   9.286   0.739  0.0355 -0.0162  0.1910
22778WAT      O92916   3.765   8.666   3.380 -0.3026  0.0444  0.5576
22778WAT     H192917   3.722   8.608   3.317 -0.9005 -0.1834  1.1716
22778WAT     H292918   3.694   8.721   3.414 -0.7377 -2.2972  3.7967
22778WAT    EPW92919   3.750   8.666   3.376 -0.4388 -0.2942  1.0659
22779WAT      O92920  -2.530   9.618   1.210  0.0055  0.7960 -0.3811
22779WAT     H192921  -2.531   9.655   1.298  0.6978  1.1304 -0.5067
22779WAT     H292922  -2.450   9.652   1.170  0.5262 -0.6061 -0.6039
22779WAT    EPW92923  -2.520   9.627   1.216  0.1655  0.6552 -0.4271
22780WAT      O92924   5.360   4.930   1.915 -0.2484 -0.2647 -0.1249
22780WAT     H192925   5.335   5.001   1.974  1.7444  1.4168 -1.1983
22780WAT     H292926   5.292   4.930   1.847 -0.4684  0.3808  0.0904
22780WAT    EPW92927   5.348   4.939   1.914 -0.0148  0.0422 -0.2381
22781WAT      O92928  -0.747   1.143   1.979  0.2785 -0.0428  0.8663
22781WAT     H192929  -0.727   1.161   2.071  1.6279  0.3431  0.5127
22781WAT     H292930  -0.668   1.103   1.944 -0.2950 -0.3870 -0.0859
22781WAT    EPW92931  -0.734   1.140   1.986  0.3808 -0.0373  0.6941
22782WAT      O92932   0.770   0.569   0.699 -0.2375 -0.0652 -0.0133
22782WAT     H192933   0.675   0.570   0.684 -0.5695 -0.0058  1.7900
22782WAT     H292934   0.802   0.498   0.644 -1.1594  0.6079 -1.4758
22782WAT    EPW92935   0.762   0.560   0.690 -0.4029  0.0314  0.0316
22783WAT      O92936   8.060   3.784   1.174 -0.3196  0.1466  0.4617
22783WAT     H192937   8.069   3.848   1.244  2.4593  0.0354  0.2908
22783WAT     H292938   8.050   3.837   1.095 -1.5736  0.2834  0.6857
22783WAT    EPW92939   8.060   3.800   1.173 -0.1187  0.1500  0.4687
22784WAT      O92940   6.004   1.978   5.204  0.3901 -0.6082 -0.3887
22784WAT     H192941   6.020   1.896   5.157  2.0743 -0.0624 -0.8365
22784WAT     H292942   6.030   2.046   5.143 -4.8342  0.6474 -1.6868
22784WAT    EPW92943   6.009   1.976   5.190 -0.0768 -0.3706 -0.6189
22785WAT      O92944   4.217   3.054   0.301 -0.4495  0.9035  0.0527
22785WAT     H192945   4.213   3.066   0.206 -0.1376  2.1329  0.1866
22785WAT     H292946   4.164   3.126   0.336 -1.1469  0.0526  0.7991
22785WAT    EPW92947   4.209   3.065   0.293 -0.5002  0.9533  0.1688
22786WAT      O92948  -2.611   6.169   1.204 -0.3385 -0.5219 -0.5701
22786WAT     H192949  -2.594   6.181   1.111  1.1648  2.7462 -0.0127
22786WAT     H292950  -2.693   6.217   1.220  1.4105  2.4629  0.3023
22786WAT    EPW92951  -2.620   6.177   1.194  0.0905  0.3028 -0.3815
22787WAT      O92952  -4.752   8.263   8.722 -0.2264 -0.7047  0.5187
22787WAT     H192953  -4.703   8.242   8.801  0.6544 -0.9401 -0.0738
22787WAT     H292954  -4.691   8.313   8.669 -0.5171 -1.2876 -0.3867
22787WAT    EPW92955  -4.738   8.267   8.725 -0.1485 -0.8121  0.3209
22788WAT      O92956   3.488   9.067   6.171 -0.1105 -0.2978  0.2199
22788WAT     H192957   3.559   9.016   6.210 -1.4483 -2.3293  0.1414
22788WAT     H292958   3.430   9.001   6.133 -1.3920  1.3795 -0.8323
22788WAT    EPW92959   3.490   9.051   6.171 -0.4560 -0.3448  0.0708
22789WAT      O92960   0.753   4.991   0.168 -0.2012  0.3946 -0.3095
22789WAT     H192961   0.694   5.041   0.111  0.8837  1.6023 -0.4201
22789WAT     H292962   0.708   4.988   0.252 -2.3864 -2.4198 -1.3931
22789WAT    EPW92963   0.739   4.997   0.171 -0.3463  0.1826 -0.4670
22790WAT      O92964   6.400   1.692   3.702 -0.4468 -0.0760 -0.0628
22790WAT     H192965   6.352   1.614   3.673  1.2392 -0.7235 -1.2969
22790WAT     H292966   6.399   1.751   3.626 -3.0849  1.9157  1.3502
22790WAT    EPW92967   6.393   1.689   3.688 -0.5724  0.1013 -0.0392
22791WAT      O92968  -2.191   0.297   5.077 -0.3575  0.6239  0.5331
22791WAT     H192969  -2.235   0.261   5.000 -0.3089  0.3009  0.6563
22791WAT     H292970  -2.227   0.248   5.151  0.1710  0.3946  0.6386
22791WAT    EPW92971  -2.202   0.286   5.077 -0.2815  0.5511  0.5634
22792WAT      O92972  -4.220   7.440   6.536 -0.3331  0.5148  0.7732
22792WAT     H192973  -4.216   7.417   6.629  2.8148 -0.1439  0.5610
22792WAT     H292974  -4.274   7.372   6.497 -1.5949  0.7264  2.0546
22792WAT    EPW92975  -4.227   7.428   6.543 -0.0842  0.4559  0.9143
22793WAT      O92976   2.636   4.965   8.261  0.6537 -0.4342  0.1807
22793WAT     H192977   2.688   5.016   8.200  1.5302 -0.7508  0.6521
22793WAT     H292978   2.655   5.001   8.347  0.1076 -0.5680  0.3669
22793WAT    EPW92979   2.645   4.976   8.265  0.6973 -0.4935  0.2675
22794WAT      O92980   1.971   8.211   0.055  0.4334 -0.3495 -0.6214
22794WAT     H192981   1.974   8.163   0.138  1.3274  0.7343  0.0177
22794WAT     H292982   2.052   8.186   0.011  1.2159  0.9838 -0.0049
22794WAT    EPW92983   1.982   8.201   0.060  0.6545 -0.0305 -0.4558
22795WAT      O92984  -4.608   8.216   4.885  1.0581 -0.8658 -0.2879
22795WAT     H192985  -4.688   8.268   4.879  0.8779 -1.0163  0.6624
22795WAT     H292986  -4.549   8.269   4.939  0.3528 -2.2306  1.9467
22795WAT    EPW92987  -4.611   8.230   4.892  0.9413 -1.0657  0.1323
22796WAT      O92988  -2.869   2.166   6.708  0.2196 -0.6251  0.0451
22796WAT     H192989  -2.902   2.202   6.791  3.2868  3.4640 -0.2006
22796WAT     H292990  -2.778   2.142   6.728  0.9107  0.1286 -1.9820
22796WAT    EPW92991  -2.861   2.168   6.722  0.7154  0.0136 -0.2546
22797WAT      O92992   2.273   1.066   4.012  0.5359 -0.2139  0.1835
22797WAT     H192993   2.284   1.001   3.944  1.7389  0.3708 -0.2123
22797WAT     H292994   2.188   1.106   3.994  1.1343  0.4102 -1.4114
22797WAT    EPW92995   2.263   1.063   4.001  0.7737 -0.0545 -0.0789
22798WAT      O92996  -2.839   0.524   5.936 -0.4668 -0.6872 -0.0817
22798WAT     H192997  -2.925   0.537   5.897 -1.4040 -0.6988  1.8423
22798WAT     H292998  -2.807   0.613   5.954 -1.4067 -0.6825  1.8263
22798WAT    EPW92999  -2.846   0.538   5.934 -0.7144 -0.6881  0.4239
22799WAT      O93000  -0.167   9.717   6.463 -0.7173 -0.2056  0.3177
22799WAT     H193001  -0.151   9.707   6.557  0.4226  1.7580  0.3807
22799WAT     H293002  -0.263   9.718   6.455 -0.8521  1.6062  1.7370
22799WAT    EPW93003  -0.178   9.715   6.474 -0.5848  0.2923  0.5133
22800WAT      O93004  -4.874   6.175   4.647 -0.2682 -0.4169 -0.2963
22800WAT     H193005  -4.844   6.147   4.733 -0.6702 -0.2652 -0.1074
22800WAT     H293006  -4.969   6.166   4.650 -0.6326  2.6260  0.3706
22800WAT    EPW93007  -4.882   6.170   4.659 -0.3693  0.0048 -0.1833
22801WAT      O93008  -6.302   9.855   8.329 -0.3037  0.7427  0.1947
22801WAT     H193009  -6.324   9.873   8.420  2.1114  1.3585  0.7355
22801WAT     H293010  -6.313   9.939   8.285  1.8889  1.4035  0.7404
22801WAT    EPW93011  -6.306   9.868   8.335  0.3040  0.9108  0.3386
22802WAT      O93012   7.010   5.487   2.057 -0.3803  0.2536  0.1316
22802WAT     H193013   6.946   5.470   2.126 -1.4472  1.5758 -0.4854
22802WAT     H293014   7.060   5.405   2.050 -1.9608 -0.8073  0.6885
22802WAT    EPW93015   7.008   5.474   2.065 -0.7296  0.2880  0.1236
22803WAT      O93016  -2.793   2.226   4.671 -0.6772  0.4808  0.6897
22803WAT     H193017  -2.793   2.144   4.621 -1.4550  0.6681  0.3565
22803WAT     H293018  -2.716   2.273   4.640 -1.2646  0.6940 -0.5375
22803WAT    EPW93019  -2.783   2.221   4.660 -0.8572  0.5336  0.4838
22804WAT      O93020  -1.176   3.444   5.968  0.9821 -0.8768 -1.1906
22804WAT     H193021  -1.094   3.416   6.008 -0.5453 -2.0972  1.3460
22804WAT     H293022  -1.228   3.363   5.960 -0.7160  0.1172 -0.7805
22804WAT    EPW93023  -1.172   3.429   5.972  0.5567 -0.9067 -0.8020
22805WAT      O93024   6.094   0.843   7.487  0.0922 -0.4344  1.0742
22805WAT     H193025   6.035   0.913   7.515  0.8024  0.3304  0.7019
22805WAT     H293026   6.055   0.763   7.522 -0.8117  0.1295  1.3840
22805WAT    EPW93027   6.081   0.842   7.495  0.0668 -0.2592  1.0660
22806WAT      O93028   6.062   6.325   2.338  0.3245 -0.5093  0.3339
22806WAT     H193029   6.099   6.285   2.416  0.0135 -2.0838 -0.2896
22806WAT     H293030   6.038   6.251   2.282 -0.7250  0.5435 -0.6651
22806WAT    EPW93031   6.064   6.310   2.341  0.1452 -0.5782  0.1198
22807WAT      O93032   0.649   9.924   6.987 -0.1681 -0.0530  0.6516
22807WAT     H193033   0.654   9.883   6.901 -0.3408 -0.8502  1.0133
22807WAT     H293034   0.557   9.916   7.012  0.0342 -0.5172  1.2461
22807WAT    EPW93035   0.637   9.918   6.979 -0.1642 -0.2193  0.7777
22808WAT      O93036  -1.845   1.949   2.765 -0.5597 -0.2266 -0.2087
22808WAT     H193037  -1.925   1.984   2.725  0.1297  0.1771 -1.2798
22808WAT     H293038  -1.839   1.995   2.849  0.2521  2.2543 -1.5105
22808WAT    EPW93039  -1.855   1.960   2.771 -0.3617  0.1538 -0.5217
22809WAT      O93040  -1.253   0.741   7.916 -0.2470  0.3116 -0.2354
22809WAT     H193041  -1.215   0.701   7.837 -0.3806  1.5601 -0.9551
22809WAT     H293042  -1.273   0.830   7.890 -0.1196  0.8091  1.2861
22809WAT    EPW93043  -1.251   0.747   7.902 -0.2478  0.5419 -0.1297
22810WAT      O93044   0.508   6.707   5.082 -0.1629  0.5180  0.0424
22810WAT     H193045   0.499   6.682   5.174 -0.1034  0.5507  0.0576
22810WAT     H293046   0.564   6.785   5.084 -1.5143  1.5227  0.1110
22810WAT    EPW93047   0.514   6.714   5.094 -0.3332  0.6547  0.0534
22811WAT      O93048   3.409   9.335   2.208  0.0278  0.3109 -0.0219
22811WAT     H193049   3.483   9.388   2.180  1.2110 -1.2151  0.0824
22811WAT     H293050   3.386   9.369   2.294  0.9458  0.4887  0.1585
22811WAT    EPW93051   3.415   9.346   2.216  0.3049  0.1330  0.0156
22812WAT      O93052   0.157   4.662   2.327 -0.5348  0.3948 -0.0897
22812WAT     H193053   0.105   4.604   2.383 -0.1361  1.9380  2.0144
22812WAT     H293054   0.220   4.703   2.387  0.4657  1.5532 -1.8362
22812WAT    EPW93055   0.159   4.660   2.342 -0.3503  0.7510 -0.0426
22813WAT      O93056   3.915   5.634   3.770 -0.2144  0.8230 -0.5623
22813WAT     H193057   3.835   5.673   3.736 -0.3129  1.6076  0.5243
22813WAT     H293058   3.886   5.579   3.843  0.1136  0.0677 -0.9794
22813WAT    EPW93059   3.901   5.632   3.775 -0.1842  0.8268 -0.4741
22814WAT      O93060   6.301   5.233   2.664  0.6210  0.0320 -0.8693
22814WAT     H193061   6.241   5.289   2.616 -0.1261  2.0723  2.1194
22814WAT     H293062   6.246   5.167   2.705  0.8004  0.1735 -0.3910
22814WAT    EPW93063   6.286   5.231   2.663  0.5462  0.3197 -0.4120
22815WAT      O93064  -1.125   9.436   1.847  0.1287  0.3511  0.8746
22815WAT     H193065  -1.041   9.391   1.861  0.0203 -0.1340  0.0619
22815WAT     H293066  -1.103   9.529   1.847  0.7549  0.2113  0.1902
22815WAT    EPW93067  -1.111   9.442   1.849  0.1970  0.2685  0.6772
22816WAT      O93068   0.566   1.350   8.450 -0.3905 -0.6127  0.4994
22816WAT     H193069   0.568   1.310   8.537  2.5636 -1.4265  0.1700
22816WAT     H293070   0.486   1.402   8.450 -3.5072 -4.8553  1.6932
22816WAT    EPW93071   0.556   1.352   8.462 -0.4119 -1.2797  0.6132
22817WAT      O93072   4.822   4.391   3.692  0.0846  1.1747 -0.0471
22817WAT     H193073   4.784   4.470   3.655  0.1332  0.4418 -1.7694
22817WAT     H293074   4.849   4.416   3.780  1.6383  3.5768 -1.0962
22817WAT    EPW93075   4.821   4.404   3.699  0.2956  1.3950 -0.4126
22818WAT      O93076   6.777   2.551   3.398  0.8049  0.0762 -0.1990
22818WAT     H193077   6.846   2.486   3.413  0.9086  0.3612  0.6227
22818WAT     H293078   6.824   2.633   3.386  0.5907  0.4528  1.3646
22818WAT    EPW93079   6.792   2.553   3.399  0.7904  0.1636  0.1156
22819WAT      O93080   7.672   6.941   0.762  0.1686 -1.2570 -0.7974
22819WAT     H193081   7.594   6.885   0.758  1.9918 -3.9713 -1.1115
22819WAT     H293082   7.686   6.970   0.672 -1.5722  1.0262 -0.4204
22819WAT    EPW93083   7.664   6.937   0.750  0.1795 -1.3137 -0.7891
22820WAT      O93084   4.446   7.705   2.038  0.2059 -0.1248 -0.4222
22820WAT     H193085   4.437   7.789   2.084  0.5719  1.2878 -2.7631
22820WAT     H293086   4.533   7.674   2.063 -0.6078 -0.7802  1.8588
22820WAT    EPW93087   4.456   7.712   2.047  0.1469 -0.0248 -0.4300
22821WAT      O93088   3.965   3.768   1.208  0.4250  1.0128  0.2149
22821WAT     H193089   3.917   3.814   1.277  1.3554  3.3358 -0.5728
22821WAT     H293090   4.052   3.809   1.208  1.1241 -0.4027 -0.9356
22821WAT    EPW93091   3.970   3.780   1.217  0.6399  1.1325 -0.0408
22822WAT      O93092  -0.542   6.355   7.046 -0.7566 -0.1217  0.2804
22822WAT     H193093  -0.592   6.277   7.023 -0.7569  0.2712 -1.1905
22822WAT     H293094  -0.512   6.389   6.961  0.8321  0.4206  1.0307
22822WAT    EPW93095  -0.545   6.349   7.032 -0.5471  0.0017  0.1853
22823WAT      O93096  -2.795   5.813   2.517  0.3676  0.2104  0.2560
22823WAT     H193097  -2.785   5.722   2.544  2.9318 -0.6962 -3.1554
22823WAT     H293098  -2.717   5.857   2.551  0.5882  0.4308 -0.5102
22823WAT    EPW93099  -2.784   5.807   2.525  0.7349  0.1199 -0.2949
22824WAT      O93100  -3.586   3.681   5.874  0.3775 -0.2240 -0.3136
22824WAT     H193101  -3.566   3.650   5.962  1.1729  1.4903  0.1575
22824WAT     H293102  -3.637   3.761   5.889 -1.7272 -1.2698 -1.4588
22824WAT    EPW93103  -3.590   3.688   5.888  0.2049 -0.1359 -0.4025
22825WAT      O93104   3.450   1.283   0.093 -0.2697  0.1694 -0.6593
22825WAT     H193105   3.504   1.204   0.082 -0.6790 -0.0079 -1.4771
22825WAT     H293106   3.507   1.345   0.139  0.4530 -0.2088 -1.0262
22825WAT    EPW93107   3.465   1.281   0.098 -0.2284  0.0961 -0.8155
22826WAT      O93108  -0.256   2.289   5.861  0.6918  0.3365  0.3282
22826WAT     H193109  -0.339   2.250   5.835  0.3712 -0.1412  1.9115
22826WAT     H293110  -0.279   2.346   5.935  1.6250  1.0098  0.1165
22826WAT    EPW93111  -0.270   2.291   5.868  0.7726  0.3623  0.5090
22827WAT      O93112  -1.928   3.593   8.176 -0.2286  0.5710  0.2367
22827WAT     H193113  -1.971   3.623   8.256 -0.0700  0.5084  0.3473
22827WAT     H293114  -1.959   3.653   8.108 -1.8929 -0.5536 -0.0615
22827WAT    EPW93115  -1.938   3.605   8.178 -0.4272  0.4145  0.2117
22828WAT      O93116   3.287   3.492   4.049 -0.2141 -0.6080  0.4750
22828WAT     H193117   3.318   3.403   4.033 -0.7578 -0.7904  0.4311
22828WAT     H293118   3.212   3.482   4.108 -2.2580 -0.4557 -1.9469
22828WAT    EPW93119   3.281   3.479   4.055 -0.5554 -0.6119  0.1500
22829WAT      O93120  -0.432   4.426   8.903  0.3726  0.3250 -1.1055
22829WAT     H193121  -0.374   4.354   8.881  0.0119 -0.2048 -0.3892
22829WAT     H293122  -0.381   4.481   8.963 -0.0835 -0.5383  0.1230
22829WAT    EPW93123  -0.418   4.424   8.908  0.2649  0.1414 -0.8488
22830WAT      O93124   1.567   6.728   1.591 -0.6159 -0.0656 -0.0193
22830WAT     H193125   1.646   6.723   1.538  0.2051  1.0441  1.0375
22830WAT     H293126   1.536   6.818   1.578 -0.8370 -0.0242  0.7528
22830WAT    EPW93127   1.573   6.739   1.582 -0.5367  0.0863  0.2219
22831WAT      O93128   3.709   5.497   3.422 -0.4393  0.1996  0.1664
22831WAT     H193129   3.764   5.551   3.478 -0.2088  0.3180 -0.1692
22831WAT     H293130   3.673   5.430   3.481  0.6572 -0.3358  0.2670
22831WAT    EPW93131   3.712   5.495   3.437 -0.2643  0.1445  0.1354
22832WAT      O93132  -4.923   0.490   8.752 -0.4901 -0.4357 -0.1587
22832WAT     H193133  -4.836   0.509   8.718 -0.5028  0.7151  0.3806
22832WAT     H293134  -4.910   0.470   8.845 -0.9987  2.4753  0.6542
22832WAT    EPW93135  -4.910   0.490   8.760 -0.5591  0.1000  0.0196
22833WAT      O93136   1.217  10.226   6.698 -0.5380  0.6591 -0.0349
22833WAT     H193137   1.154  10.251   6.766 -0.7884  2.0293 -0.7352
22833WAT     H293138   1.302  10.232   6.741 -0.3457  4.7947 -0.5785
22833WAT    EPW93139   1.220  10.230   6.713 -0.5457  1.3852 -0.1991
22834WAT      O93140   4.754   4.704   6.278  0.5762 -0.0748  0.2460
22834WAT     H193141   4.771   4.784   6.228  0.8399 -0.2064  0.1211
22834WAT     H293142   4.659   4.703   6.290  0.4022 -0.4650 -0.9707
22834WAT    EPW93143   4.744   4.715   6.273  0.5879 -0.1435  0.0691
22835WAT      O93144   3.411   1.969   1.441 -0.4000  0.1775  0.0340
22835WAT     H193145   3.384   1.972   1.349  0.4063  0.6546 -0.1987
22835WAT     H293146   3.503   1.996   1.440 -0.4633  0.4682  1.0186
22835WAT    EPW93147   3.420   1.973   1.429 -0.3020  0.2788  0.1332
22836WAT      O93148   3.888   0.837   0.921  0.5921  0.0989 -0.6017
22836WAT     H193149   3.890   0.854   1.015 -0.7782 -0.1421 -0.5090
22836WAT     H293150   3.798   0.810   0.903  0.7772  0.3200 -2.0172
22836WAT    EPW93151   3.876   0.836   0.931  0.4358  0.0963 -0.7761
22837WAT      O93152   2.584   1.271   4.310  0.3365 -0.1643  0.2969
22837WAT     H193153   2.527   1.340   4.277 -1.1181 -1.9717 -1.2145
22837WAT     H293154   2.558   1.260   4.402  0.0243  0.7229  0.3225
22837WAT    EPW93155   2.573   1.279   4.318  0.1035 -0.2856  0.1009
22838WAT      O93156  -0.959   3.802   1.504 -1.1272 -0.1831 -0.3114
22838WAT     H193157  -1.025   3.837   1.444 -1.1195  1.1657  0.4047
22838WAT     H293158  -0.982   3.841   1.589  0.0527 -0.4279  0.1418
22838WAT    EPW93159  -0.971   3.812   1.508 -0.9706 -0.0374 -0.1572
22839WAT      O93160  -0.795   6.842   3.873 -0.1701  0.4025  0.5781
22839WAT     H193161  -0.762   6.818   3.786  0.9411 -0.6927  1.2622
22839WAT     H293162  -0.775   6.935   3.881 -0.8458  0.6779 -0.5525
22839WAT    EPW93163  -0.788   6.851   3.862 -0.1126  0.2944  0.5192
22840WAT      O93164   0.517   2.799   7.657  0.6405  0.3096 -0.1282
22840WAT     H193165   0.509   2.704   7.668 -0.7058  0.4977  0.6433
22840WAT     H293166   0.611   2.816   7.668  0.9244 -0.9527 -0.4721
22840WAT    EPW93167   0.529   2.789   7.660  0.5004  0.1680 -0.0715
22841WAT      O93168  -4.950   7.752   5.550  0.3202 -0.2111  0.1985
22841WAT     H193169  -4.962   7.723   5.460  2.8771 -0.8032 -0.0132
22841WAT     H293170  -4.973   7.844   5.550  3.5098  0.7177 -1.9133
22841WAT    EPW93171  -4.955   7.760   5.538  1.0781 -0.1669 -0.1080
22842WAT      O93172   0.209   4.506   1.238 -0.1294 -0.7731 -0.2138
22842WAT     H193173   0.238   4.427   1.192 -0.5547 -0.7487 -0.5270
22842WAT     H293174   0.222   4.485   1.330  0.7988 -0.7943 -0.3372
22842WAT    EPW93175   0.215   4.493   1.244 -0.0630 -0.7727 -0.2714
22843WAT      O93176   4.042   7.362   6.708 -0.0698 -0.4238  0.0662
22843WAT     H193177   4.052   7.273   6.674  0.0335 -0.2961 -0.2433
22843WAT     H293178   3.971   7.400   6.656 -0.5723 -0.5428  0.6521
22843WAT    EPW93179   4.034   7.356   6.696 -0.1225 -0.4225  0.1028
22844WAT      O93180  -1.112   8.597   3.929 -0.4337  0.1100 -0.0744
22844WAT     H193181  -1.081   8.529   3.868  4.2982  2.9200 -1.3293
22844WAT     H293182  -1.067   8.578   4.011 -2.7721 -0.7322  1.0999
22844WAT    EPW93183  -1.102   8.586   3.932 -0.1180  0.3695 -0.0851
22845WAT      O93184  -2.490   5.383   3.326  0.0582  0.4020 -0.4684
22845WAT     H193185  -2.573   5.394   3.281 -0.7908 -1.8088  0.4560
22845WAT     H293186  -2.438   5.328   3.268  1.4805  2.8079 -1.6587
22845WAT    EPW93187  -2.494   5.377   3.313  0.1338  0.4277 -0.5034
22846WAT      O93188  -1.991   2.258   6.774  0.4383  1.4336  0.2721
22846WAT     H193189  -1.908   2.252   6.821 -0.2221 -1.9602  1.2676
22846WAT     H293190  -1.970   2.227   6.685  0.1985  0.0519  0.6740
22846WAT    EPW93191  -1.977   2.253   6.768  0.3195  0.8038  0.4566
22847WAT      O93192  -2.829   0.420   6.573  0.1847  0.2023  0.8335
22847WAT     H193193  -2.747   0.451   6.611 -0.1571 -0.1153  1.8692
22847WAT     H293194  -2.847   0.482   6.501 -0.0959  1.9837  2.3507
22847WAT    EPW93195  -2.820   0.433   6.568  0.1025  0.3954  1.1702
22848WAT      O93196  -1.283   3.118   2.120  0.2436 -0.8357  0.2551
22848WAT     H193197  -1.231   3.198   2.116 -0.6511 -0.2473 -0.0826
22848WAT     H293198  -1.363   3.140   2.072 -0.8186 -1.3208  1.7440
22848WAT    EPW93199  -1.287   3.132   2.113 -0.0145 -0.8222  0.4070
22849WAT      O93200  -0.245  10.184   8.348  0.5047 -0.0905  0.3818
22849WAT     H193201  -0.236  10.144   8.434  2.7252  4.0471  2.3663
22849WAT     H293202  -0.322  10.241   8.355  0.6659  0.2422 -0.3842
22849WAT    EPW93203  -0.254  10.187   8.360  0.8188  0.4992  0.5426
22850WAT      O93204   0.500   0.012   6.118  0.4807  0.2348 -0.2019
22850WAT     H193205   0.457   0.083   6.070 -1.6033 -0.8481 -0.0423
22850WAT     H293206   0.462   0.016   6.206  3.3109  1.3808  1.0834
22850WAT    EPW93207   0.489   0.022   6.123  0.5791  0.2431 -0.0114
22851WAT      O93208   4.232   2.498   3.608 -0.0531 -0.2814  0.5056
22851WAT     H193209   4.175   2.503   3.685 -1.5367  1.2480 -0.5931
22851WAT     H293210   4.173   2.475   3.537  0.8846  0.3769 -0.5196
22851WAT    EPW93211   4.216   2.496   3.609 -0.1252  0.0072  0.2254
22852WAT      O93212  -2.529   1.856   7.562 -0.4922  0.5187  0.6309
22852WAT     H193213  -2.580   1.937   7.553  1.1405  1.5804  0.5888
22852WAT     H293214  -2.465   1.875   7.630 -0.7807 -1.1518  1.4278
22852WAT    EPW93215  -2.528   1.869   7.570 -0.3148  0.4384  0.7305
22853WAT      O93216   5.734   0.262   0.436  0.0484  0.7821  0.3500
22853WAT     H193217   5.734   0.183   0.490  0.6206 -0.9638 -2.0391
22853WAT     H293218   5.668   0.245   0.369  0.5853  2.1101 -0.5576
22853WAT    EPW93219   5.725   0.249   0.434  0.1945  0.7270 -0.0848
22854WAT      O93220   5.112   4.830   3.525 -0.3650 -0.1789  0.1754
22854WAT     H193221   5.046   4.799   3.463  0.4793 -1.3221 -0.1870
22854WAT     H293222   5.075   4.813   3.611 -1.7351  1.8095  0.0526
22854WAT    EPW93223   5.098   4.824   3.528 -0.4344 -0.0675  0.1113
22855WAT      O93224   2.309   6.137   3.242  0.0318 -0.6398 -0.1241
22855WAT     H193225   2.365   6.200   3.287  1.2548 -1.9892  0.3347
22855WAT     H293226   2.368   6.091   3.182 -0.4037 -2.5196  0.8045
22855WAT    EPW93227   2.324   6.139   3.240  0.1357 -1.0655  0.0589
22856WAT      O93228  -3.410   8.793   6.799  0.3709  0.6047 -0.0859
22856WAT     H193229  -3.396   8.766   6.890  2.0184 -1.2004 -0.7987
22856WAT     H293230  -3.335   8.849   6.779  2.1521 -2.0507 -1.3690
22856WAT    EPW93231  -3.398   8.797   6.808  0.8233  0.0167 -0.3493
22857WAT      O93232   0.009   8.677   1.853 -0.3462  0.8616 -0.0859
22857WAT     H193233  -0.057   8.746   1.855 -0.4145  0.8039 -0.3526
22857WAT     H293234  -0.022   8.612   1.916 -1.9066 -0.4099 -2.0339
22857WAT    EPW93235  -0.004   8.677   1.862 -0.5610  0.6862 -0.3780
22858WAT      O93236   1.644   2.094   3.087  0.0650 -0.3056  0.3943
22858WAT     H193237   1.688   2.028   3.141  0.4890  1.0127  1.7440
22858WAT     H293238   1.646   2.173   3.141 -4.7660 -0.2928  0.9870
22858WAT    EPW93239   1.650   2.096   3.101 -0.5163 -0.1301  0.6505
22859WAT      O93240   7.306   2.147   2.058 -0.0142  0.4276  0.5980
22859WAT     H193241   7.274   2.111   2.141 -1.0389  0.8946  0.4222
22859WAT     H293242   7.355   2.225   2.083  1.9817 -0.8691  0.9589
22859WAT    EPW93243   7.308   2.152   2.072  0.1140  0.3182  0.6223
22860WAT      O93244   3.416   4.653   8.910 -0.4882 -0.2930  0.4727
22860WAT     H193245   3.509   4.666   8.893 -0.5519 -1.4153 -0.9525
22860WAT     H293246   3.409   4.560   8.931 -1.3639 -0.3598 -0.0691
22860WAT    EPW93247   3.428   4.642   8.910 -0.6121 -0.4497  0.2136
22861WAT      O93248   4.514   6.815   5.332 -0.4243 -0.0630 -0.0508
22861WAT     H193249   4.563   6.783   5.257 -0.6471 -1.4350  0.3428
22861WAT     H293250   4.511   6.740   5.392 -0.4559  0.9145  1.2249
22861WAT    EPW93251   4.520   6.801   5.330 -0.4578 -0.1152  0.1693
22862WAT      O93252   4.736   2.395   5.111  0.1280  0.3490  0.4554
22862WAT     H193253   4.779   2.391   5.025 -0.2294  2.3452  0.1141
22862WAT     H293254   4.680   2.318   5.113  0.2457  0.1806 -1.0728
22862WAT    EPW93255   4.734   2.385   5.100  0.0963  0.5902  0.2086
22863WAT      O93256  -2.608   7.271   2.431 -0.9755 -0.0127 -0.1870
22863WAT     H193257  -2.545   7.213   2.388  0.5103  0.3955  1.3681
22863WAT     H293258  -2.677   7.213   2.463 -0.2111 -0.7604  0.1229
22863WAT    EPW93259  -2.609   7.256   2.429 -0.6785 -0.0575  0.0590
22864WAT      O93260   0.921   4.321   4.219  0.5189 -0.0831  0.1276
22864WAT     H193261   0.908   4.407   4.259 -0.1436  0.0300 -0.3200
22864WAT     H293262   0.833   4.292   4.195  0.7323 -0.8986  0.2970
22864WAT    EPW93263   0.908   4.329   4.221  0.4597 -0.1757  0.0911
22865WAT      O93264   0.712   5.493   0.677 -0.4905 -0.3364 -1.1344
22865WAT     H193265   0.768   5.539   0.614 -1.7200  1.2961 -1.0893
22865WAT     H293266   0.715   5.547   0.755 -1.9221 -0.3618 -1.0450
22865WAT    EPW93267   0.720   5.506   0.679 -0.8415 -0.1245 -1.1167
22866WAT      O93268   0.198   9.467   0.441  0.2053 -0.1154  0.8635
22866WAT     H193269   0.114   9.496   0.405  1.7485  0.5221 -2.5692
22866WAT     H293270   0.245   9.548   0.461  0.1707 -0.4673  2.5645
22866WAT    EPW93271   0.193   9.481   0.439  0.4043 -0.0772  0.6351
22867WAT      O93272   1.216   7.975   1.234 -0.4289  1.1165  0.3008
22867WAT     H193273   1.152   7.966   1.163  2.9327  1.8690 -3.1674
22867WAT     H293274   1.231   7.886   1.265 -1.2376  0.6215 -0.6773
22867WAT    EPW93275   1.210   7.962   1.228 -0.0922  1.1506 -0.2856
22868WAT      O93276   1.399   3.062   5.895  0.5737  0.3580 -0.8423
22868WAT     H193277   1.427   3.042   5.984 -0.2811 -1.3021 -0.8977
22868WAT     H293278   1.343   3.139   5.905 -0.0217 -0.1791  0.1644
22868WAT    EPW93279   1.395   3.070   5.908  0.3824  0.0682 -0.7169
22869WAT      O93280   8.359   3.200   1.182  0.4758 -0.5910  0.4293
22869WAT     H193281   8.427   3.247   1.132 -0.1874 -2.5723 -2.6250
22869WAT     H293282   8.282   3.203   1.125 -1.9829  1.0984  3.5406
22869WAT    EPW93283   8.358   3.207   1.168  0.0639 -0.6295  0.4368
22870WAT      O93284  -2.069   7.040   4.375  0.1563  0.0374 -0.1945
22870WAT     H193285  -2.025   7.038   4.460 -0.1382 -1.2253 -0.0501
22870WAT     H293286  -2.111   7.127   4.372  0.2455  0.1343  0.9042
22870WAT    EPW93287  -2.069   7.052   4.386  0.1293 -0.1163 -0.0305
22871WAT      O93288   0.908   6.658   2.615  0.0201  0.6133  0.3562
22871WAT     H193289   0.969   6.732   2.619 -0.6593  1.2247 -0.2204
22871WAT     H293290   0.831   6.688   2.663 -0.4012  0.4301 -0.1862
22871WAT    EPW93291   0.906   6.672   2.622 -0.1250  0.6700  0.2086
22872WAT      O93292  -1.892   7.903   3.983  0.1440  0.0566 -0.1269
22872WAT     H193293  -1.936   7.879   4.064 -0.3492 -0.6349 -0.5890
22872WAT     H293294  -1.808   7.940   4.011 -0.9336  1.9064  0.7910
22872WAT    EPW93295  -1.887   7.905   3.997 -0.0632  0.2093 -0.0666
22873WAT      O93296   0.586   1.194   0.069 -0.4565 -0.0212 -0.4466
22873WAT     H193297   0.567   1.155  -0.016  0.7002 -1.3402 -0.1376
22873WAT     H293298   0.588   1.120   0.129  1.5566  0.5006  0.2111
22873WAT    EPW93299   0.584   1.179   0.066 -0.0384 -0.1263 -0.3191
22874WAT      O93300  -0.935   0.160   6.607  0.6094 -0.3722  0.5656
22874WAT     H193301  -0.966   0.194   6.523  2.2703  1.2849  0.5596
22874WAT     H293302  -0.873   0.091   6.584 -1.1161 -1.9744  0.5350
22874WAT    EPW93303  -0.931   0.155   6.593  0.6009 -0.3649  0.5608
22875WAT      O93304   2.095   8.018   7.838  0.5017  0.5181  0.1922
22875WAT     H193305   2.074   7.935   7.881  1.6085 -0.0980 -0.3848
22875WAT     H293306   2.010   8.056   7.816 -0.0310 -0.4684  0.4742
22875WAT    EPW93307   2.081   8.012   7.841  0.5773  0.3066  0.1535
22876WAT      O93308  -5.353   7.551   5.435 -0.3420  0.6705 -0.9054
22876WAT     H193309  -5.419   7.482   5.438  0.3655  0.0105  0.0827
22876WAT     H293310  -5.304   7.541   5.517 -1.8154  3.9767  0.5143
22876WAT    EPW93311  -5.355   7.540   5.446 -0.4430  1.0195 -0.5877
22877WAT      O93312  -3.098   7.366   1.208 -0.0681 -0.5904 -0.9371
22877WAT     H193313  -3.191   7.370   1.189 -0.2189  1.3350 -0.1029
22877WAT     H293314  -3.072   7.458   1.217  1.7475 -1.1079 -0.4265
22877WAT    EPW93315  -3.107   7.379   1.207  0.1514 -0.4046 -0.7597
22878WAT      O93316   3.027   4.113   4.176 -0.4535  0.5559 -0.1336
22878WAT     H193317   2.985   4.199   4.166 -1.1166  0.3344  0.6705
22878WAT     H293318   2.961   4.050   4.149 -0.4957  0.2296  0.6809
22878WAT    EPW93319   3.013   4.116   4.171 -0.5466  0.4835  0.0799
22879WAT      O93320   4.715   1.234   6.050  0.5798  0.0181  0.1505
22879WAT     H193321   4.780   1.287   6.096  1.0481 -0.2695 -0.1828
22879WAT     H293322   4.633   1.251   6.098  0.6131  1.4113 -0.2312
22879WAT    EPW93323   4.713   1.244   6.062  0.6461  0.1640  0.0563
22880WAT      O93324   6.245   1.241   5.515 -0.4667 -1.2786  0.0576
22880WAT     H193325   6.179   1.306   5.539  1.7519  0.8613  0.7127
22880WAT     H293326   6.254   1.186   5.592  0.1369 -0.1083  0.8473
22880WAT    EPW93327   6.237   1.242   5.528 -0.0944 -0.8420  0.2480
22881WAT      O93328   4.050   3.432   2.123  0.2780 -0.7770 -0.2210
22881WAT     H193329   4.109   3.379   2.069  1.4343  1.6507 -1.4980
22881WAT     H293330   4.070   3.405   2.213  3.0829 -0.3934 -0.6344
22881WAT    EPW93331   4.061   3.422   2.128  0.8004 -0.4061 -0.4439
22882WAT      O93332  -0.232   4.681   6.316  0.9069  0.3192 -0.2672
22882WAT     H193333  -0.145   4.643   6.327  0.6988  0.3816  2.4051
22882WAT     H293334  -0.221   4.773   6.339  0.1843  0.3804 -0.1260
22882WAT    EPW93335  -0.219   4.688   6.321  0.7841  0.3355  0.1037
22883WAT      O93336  -1.318   1.326   2.653  0.3172 -0.5136 -0.4136
22883WAT     H193337  -1.356   1.413   2.639 -0.5178 -0.5798  1.2413
22883WAT     H293338  -1.345   1.275   2.577  1.0018  0.7024 -1.5210
22883WAT    EPW93339  -1.326   1.331   2.641  0.2974 -0.3620 -0.3413
22884WAT      O93340  -1.087   0.067   7.443 -0.3585  0.0112  0.1947
22884WAT     H193341  -1.057  -0.008   7.393  0.5056 -0.2575  1.0692
22884WAT     H293342  -1.181   0.072   7.426 -0.5948 -1.7687  0.7428
22884WAT    EPW93343  -1.096   0.058   7.434 -0.2757 -0.2590  0.3824
22885WAT      O93344  -5.679   0.754   8.891 -0.8709 -0.8912 -0.4384
22885WAT     H193345  -5.610   0.732   8.955 -0.9812 -0.9745 -0.3472
22885WAT     H293346  -5.635   0.810   8.827 -0.4548 -1.7717 -0.9475
22885WAT    EPW93347  -5.664   0.758   8.891 -0.8304 -1.0183 -0.4930
22886WAT      O93348   0.759   6.114   3.422 -0.5322  0.0345  0.3373
22886WAT     H193349   0.685   6.169   3.448 -0.5890  0.8650 -1.4589
22886WAT     H293350   0.811   6.170   3.365  2.0297 -0.2012  2.2514
22886WAT    EPW93351   0.756   6.129   3.418 -0.2018  0.1130  0.3529
22887WAT      O93352  -5.353   1.079   8.621 -0.3474 -0.8811 -0.2720
22887WAT     H193353  -5.424   1.015   8.626 -1.2212 -0.0453 -1.5395
22887WAT     H293354  -5.304   1.053   8.543  0.0749 -0.7772 -0.0428
22887WAT    EPW93355  -5.356   1.067   8.611 -0.4070 -0.7571 -0.4091
22888WAT      O93356   5.449   2.255   2.156 -0.2083  0.5342 -0.1360
22888WAT     H193357   5.406   2.198   2.093 -0.2949  1.4361 -0.9190
22888WAT     H293358   5.430   2.216   2.242 -0.8505 -0.2055 -0.6074
22888WAT    EPW93359   5.441   2.243   2.159 -0.3045  0.5558 -0.3015
22889WAT      O93360  -6.914   4.519   8.805 -0.3430  1.0453  0.0422
22889WAT     H193361  -6.849   4.493   8.740  0.1960  2.7464 -0.1469
22889WAT     H293362  -6.995   4.526   8.755 -0.7535 -1.1643  0.2957
22889WAT    EPW93363  -6.916   4.516   8.790 -0.3262  0.9785  0.0505
22890WAT      O93364  -0.912   3.881   8.661  0.5909  0.3890 -0.3795
22890WAT     H193365  -0.912   3.898   8.756 -2.0897 -4.0197  0.6907
22890WAT     H293366  -0.854   3.806   8.650  1.7241  1.4820 -2.5453
22890WAT    EPW93367  -0.904   3.873   8.672  0.3868 -0.0484 -0.5236
22891WAT      O93368   2.923   1.408   6.591  0.3393 -0.3019  0.6008
22891WAT     H193369   2.956   1.328   6.631  0.2408 -0.4751  0.3351
22891WAT     H293370   2.846   1.431   6.644  0.9943  0.2213  1.3552
22891WAT    EPW93371   2.917   1.401   6.604  0.4127 -0.2558  0.6649
22892WAT      O93372   3.462   7.894   7.556  0.5927  0.3052 -1.1998
22892WAT     H193373   3.418   7.936   7.629  0.5870  0.0319 -1.0426
22892WAT     H293374   3.485   7.807   7.589 -0.0887 -0.1039 -1.7626
22892WAT    EPW93375   3.459   7.888   7.570  0.5021  0.2151 -1.2534
22893WAT      O93376  -0.293   9.266   6.895 -0.7089 -0.1299 -0.3271
22893WAT     H193377  -0.236   9.261   6.818  1.1193 -0.4609  0.9845
22893WAT     H293378  -0.369   9.214   6.871 -0.8788  0.9817 -2.4413
22893WAT    EPW93379  -0.295   9.258   6.882 -0.4902 -0.0272 -0.4330
22894WAT      O93380  -0.802   8.390   5.432  0.4935  0.1600  0.2332
22894WAT     H193381  -0.827   8.386   5.340 -1.1532 -0.4450  0.6680
22894WAT     H293382  -0.790   8.298   5.457  1.0845  0.3297  0.5986
22894WAT    EPW93383  -0.804   8.377   5.423  0.3543  0.1025  0.3386
22895WAT      O93384   2.965   7.030   4.376 -0.5242 -0.0515  0.3943
22895WAT     H193385   2.991   7.091   4.445  0.0538  1.1356 -0.8378
22895WAT     H293386   2.913   7.082   4.316  1.7952 -0.1058 -1.8599
22895WAT    EPW93387   2.962   7.045   4.377 -0.1421  0.0978 -0.0656
22896WAT      O93388   0.959   3.956   1.002  0.4231  0.1335  0.0702
22896WAT     H193389   0.906   3.897   0.948  1.7617 -1.4826  0.4245
22896WAT     H293390   0.989   4.023   0.941 -2.5094  1.5302 -0.0026
22896WAT    EPW93391   0.956   3.957   0.986  0.2129  0.1047  0.1074
22897WAT      O93392  -1.758   8.604   8.261  0.4583 -0.3647 -0.2938
22897WAT     H193393  -1.734   8.546   8.189  2.4024  0.0414 -0.0191
22897WAT     H293394  -1.696   8.676   8.255 -1.5361  1.4654 -0.2884
22897WAT    EPW93395  -1.747   8.606   8.251  0.4517 -0.0696 -0.2565
22898WAT      O93396   0.130   2.251   7.325  0.0421  0.5728 -0.2972
22898WAT     H193397   0.036   2.261   7.307 -0.3450  0.7702  1.6182
22898WAT     H293398   0.139   2.161   7.355  0.4922  0.5159 -0.6036
22898WAT    EPW93399   0.119   2.241   7.327  0.0504  0.5914 -0.0849
22899WAT      O93400   0.610   2.548   1.458  0.5459 -0.0535 -0.3821
22899WAT     H193401   0.612   2.526   1.365 -4.4291  0.5180 -0.8605
22899WAT     H293402   0.638   2.639   1.462  3.8771 -0.9191 -0.7031
22899WAT    EPW93403   0.614   2.557   1.446  0.3291 -0.0924 -0.4875
22900WAT      O93404  -2.085   9.306   1.311  0.3095  0.4119  0.1632
22900WAT     H193405  -2.040   9.358   1.377 -0.5505  0.9130  0.3633
22900WAT     H293406  -2.057   9.343   1.228  0.5924  0.4438  0.2707
22900WAT    EPW93407  -2.075   9.318   1.309  0.2333  0.4821  0.2037
22901WAT      O93408   7.491   5.722   0.487 -0.1384 -0.3592  0.7839
22901WAT     H193409   7.537   5.691   0.565 -1.3561  0.6314  1.9234
22901WAT     H293410   7.447   5.802   0.514 -0.7198 -0.0610 -0.8857
22901WAT    EPW93411   7.491   5.729   0.501 -0.3760 -0.1893  0.7140
22902WAT      O93412  -1.499   9.788   4.883  0.9236 -0.8302  0.2267
22902WAT     H193413  -1.516   9.861   4.823 -0.5606 -1.7788 -0.5641
22902WAT     H293414  -1.522   9.710   4.833 -1.4013 -1.6125  2.3481
22902WAT    EPW93415  -1.504   9.788   4.869  0.4212 -1.0581  0.4022
22903WAT      O93416  -2.210   7.997   6.811 -0.0341  0.6125  0.0077
22903WAT     H193417  -2.270   8.065   6.781  1.7081  1.7669 -1.0306
22903WAT     H293418  -2.162   7.971   6.733 -0.9190 -2.1933  0.2673
22903WAT    EPW93419  -2.212   8.003   6.797  0.0789  0.3948 -0.0951
22904WAT      O93420   4.587   5.071   3.216 -0.1288 -0.3379  0.3774
22904WAT     H193421   4.573   5.154   3.171  0.9788 -0.6482 -0.6075
22904WAT     H293422   4.598   5.094   3.308  1.1340  0.7171 -0.0208
22904WAT    EPW93423   4.586   5.085   3.222  0.1838 -0.2396  0.1950
22905WAT      O93424  -2.351   4.704   1.666  0.4461 -0.5965  0.0836
22905WAT     H193425  -2.406   4.641   1.713 -1.7933  0.0711 -1.4717
22905WAT     H293426  -2.261   4.676   1.684 -0.4214 -3.6908  0.1814
22905WAT    EPW93427  -2.346   4.692   1.675  0.0365 -0.9165 -0.1087
22906WAT      O93428   4.105   7.772   6.210 -0.0490 -0.0030  0.5914
22906WAT     H193429   4.027   7.731   6.173 -1.7536  2.5554  1.1061
22906WAT     H293430   4.146   7.817   6.136  1.3749 -1.8197  0.1939
22906WAT    EPW93431   4.100   7.772   6.195 -0.0861  0.0949  0.6070
22907WAT      O93432   6.694   3.306   0.662 -0.0226  0.4471 -0.6687
22907WAT     H193433   6.729   3.225   0.698  0.9998  0.7998 -0.8246
22907WAT     H293434   6.770   3.351   0.625 -0.8716  0.5423 -2.4166
22907WAT    EPW93435   6.709   3.302   0.662  0.0002  0.5060 -0.9198
22908WAT      O93436   0.342   6.307   4.947  0.0281  0.0439  0.4166
22908WAT     H193437   0.306   6.288   5.034  0.0416 -0.6006  0.2826
22908WAT     H293438   0.435   6.325   4.964 -0.1656  0.8893  0.6529
22908WAT    EPW93439   0.350   6.307   4.961  0.0043  0.0703  0.4299
22909WAT      O93440   6.782   2.603   4.845  0.8517 -0.8117 -0.1077
22909WAT     H193441   6.777   2.694   4.872  4.4895 -0.4120 -0.2962
22909WAT     H293442   6.851   2.601   4.779  2.3000 -3.9410  1.2786
22909WAT    EPW93443   6.791   2.615   4.840  1.5223 -1.1717  0.0505
22910WAT      O93444   3.500   6.953   6.562  0.1849  0.1802  0.4296
22910WAT     H193445   3.586   6.985   6.589 -0.5515  2.0313  0.7161
22910WAT     H293446   3.444   7.031   6.563 -1.6807 -1.1070  0.9785
22910WAT    EPW93447   3.504   6.968   6.565 -0.1582  0.2544  0.5398
22911WAT      O93448  -3.042   0.617   8.208 -0.3162 -0.1651  0.0975
22911WAT     H193449  -2.978   0.566   8.156  1.0149  2.0658 -0.5888
22911WAT     H293450  -3.000   0.702   8.219 -2.0879  0.5184  1.9651
22911WAT    EPW93451  -3.028   0.621   8.202 -0.3743  0.2193  0.2537
22912WAT      O93452   3.803   3.596   7.271 -1.0646  0.1506  0.0157
22912WAT     H193453   3.836   3.633   7.189 -3.6943  0.8330 -0.8067
22912WAT     H293454   3.772   3.508   7.247 -0.9520 -0.0242  0.4992
22912WAT    EPW93455   3.803   3.589   7.257 -1.3967  0.2176 -0.0288
22913WAT      O93456  -0.978   5.427   6.358  0.8337 -0.5052 -0.5757
22913WAT     H193457  -0.920   5.357   6.386  0.7545 -0.8431 -1.2277
22913WAT     H293458  -1.065   5.399   6.385  0.9673  0.0147  0.4273
22913WAT    EPW93459  -0.982   5.414   6.365  0.8408 -0.4811 -0.5295
22914WAT      O93460  -2.651   9.976   1.410 -0.2764 -0.2271 -0.4420
22914WAT     H193461  -2.569  10.025   1.408 -0.1782 -0.4047 -0.9303
22914WAT     H293462  -2.628   9.894   1.454 -0.0237 -0.5756 -1.2232
22914WAT    EPW93463  -2.637   9.972   1.416 -0.2302 -0.2966 -0.6094
22915WAT      O93464   1.564  10.289   1.000  0.1687  0.2694 -0.2745
22915WAT     H193465   1.607  10.246   0.926 -0.0106 -0.5722  0.1082
22915WAT     H293466   1.521  10.219   1.048  0.3941  0.7909  0.7153
22915WAT    EPW93467   1.564  10.274   0.996  0.1748  0.2270 -0.0935
22916WAT      O93468  -6.290   8.592   5.898 -0.1460  0.1047 -0.4549
22916WAT     H193469  -6.294   8.599   5.993 -1.0913 -1.3828 -0.3633
22916WAT     H293470  -6.278   8.682   5.868 -0.8379  0.7138  1.0196
22916WAT    EPW93471  -6.289   8.605   5.906 -0.3617 -0.0110 -0.2484
22917WAT      O93472   9.408   0.466   0.747 -0.0363  0.1775 -0.0652
22917WAT     H193473   9.427   0.559   0.735  2.2192 -0.1428  0.5340
22917WAT     H293474   9.487   0.421   0.716 -0.5479 -1.4712  0.8816
22917WAT    EPW93475   9.421   0.472   0.741  0.1941 -0.0822  0.1387
22918WAT      O93476  -2.523   3.312   4.519  0.1789  0.2554  0.1498
22918WAT     H193477  -2.537   3.337   4.428 -2.4860 -2.0610 -0.1962
22918WAT     H293478  -2.586   3.364   4.569  3.1584  3.2701  1.1783
22918WAT    EPW93479  -2.533   3.322   4.513  0.2204  0.3475  0.2401
22919WAT      O93480  -5.890   9.071   4.736 -0.3246  0.4601  0.0139
22919WAT     H193481  -5.896   9.156   4.693 -1.3010  1.4323  1.9541
22919WAT     H293482  -5.796   9.051   4.738 -0.2133  0.5822 -2.0606
22919WAT    EPW93483  -5.879   9.079   4.730 -0.4389  0.6042 -0.0038
22920WAT      O93484   5.899   4.255   1.094 -0.4478  0.1013  0.9625
22920WAT     H193485   5.839   4.206   1.150 -3.0146  2.6061  0.6260
22920WAT     H293486   5.844   4.288   1.023  2.2941 -1.3041 -2.0966
22920WAT    EPW93487   5.883   4.253   1.092 -0.4246  0.2463  0.5147
22921WAT      O93488   2.372   8.464   0.936 -0.4081  0.5771  0.3001
22921WAT     H193489   2.351   8.381   0.892  1.1474  0.7032 -0.7534
22921WAT     H293490   2.307   8.471   1.005 -0.2680 -1.7813  0.7543
22921WAT    EPW93491   2.360   8.454   0.939 -0.1844  0.2823  0.2210
22922WAT      O93492  -4.106   7.081   2.665  0.4045  0.1306  0.7412
22922WAT     H193493  -4.201   7.089   2.654  0.5291  0.1142 -0.4722
22922WAT     H293494  -4.096   7.020   2.738 -0.5469 -2.4977 -1.1753
22922WAT    EPW93495  -4.117   7.074   2.674  0.2954 -0.2184  0.3284
22923WAT      O93496   5.703   8.382   3.259  0.1628 -0.0360  0.1973
22923WAT     H193497   5.779   8.331   3.285  2.1352  2.5872  0.0442
22923WAT     H293498   5.633   8.318   3.247  2.0742 -2.4645  1.2742
22923WAT    EPW93499   5.704   8.367   3.261  0.6750 -0.0105  0.3191
22924WAT      O93500  -3.650   8.976   6.332  0.4263 -0.3344 -0.4564
22924WAT     H193501  -3.709   8.982   6.257  1.3165  2.1509 -1.0665
22924WAT     H293502  -3.699   9.013   6.404  0.8128  0.6825 -0.7005
22924WAT    EPW93503  -3.664   8.982   6.331  0.5946  0.1273 -0.5691
22925WAT      O93504  -0.021   7.737   7.249 -0.1164  0.1051 -0.6896
22925WAT     H193505   0.054   7.682   7.271 -0.1456  0.0083 -0.8340
22925WAT     H293506   0.007   7.826   7.272 -0.7305 -0.1575  1.3548
22925WAT    EPW93507  -0.007   7.742   7.255 -0.2012  0.0577 -0.4389
22926WAT      O93508  -2.025   8.139   6.036  0.4285 -0.4566  0.7596
22926WAT     H193509  -2.106   8.177   6.001  0.3764 -0.3401  1.0095
22926WAT     H293510  -2.031   8.046   6.015  0.9804 -0.1952 -0.7053
22926WAT    EPW93511  -2.037   8.132   6.028  0.4945 -0.4063  0.5994
22927WAT      O93512   2.455   4.862   1.013 -0.4931  0.0751 -0.7529
22927WAT     H193513   2.427   4.920   0.942 -1.0766  1.4598  0.5420
22927WAT     H293514   2.377   4.851   1.067  0.4565  0.9542  0.8980
22927WAT    EPW93515   2.441   4.868   1.011 -0.4449  0.3738 -0.3644
22928WAT      O93516  -2.045   1.406   5.420 -0.0719  0.0910 -0.0481
22928WAT     H193517  -2.005   1.484   5.460  0.3048  0.0228 -0.2887
22928WAT     H293518  -2.076   1.355   5.495 -2.6877  1.6892  0.0719
22928WAT    EPW93519  -2.044   1.410   5.435 -0.3672  0.2928 -0.0639
22929WAT      O93520  -1.975   7.596   7.096 -0.6583 -0.1086 -0.3448
22929WAT     H193521  -1.985   7.515   7.146 -0.4626 -0.2333 -0.5055
22929WAT     H293522  -2.036   7.587   7.023 -2.4213  0.9155  0.9085
22929WAT    EPW93523  -1.984   7.584   7.093 -0.8650  0.0100 -0.2005
22930WAT      O93524   0.487   3.687   0.210 -0.5021  0.1623 -0.1636
22930WAT     H193525   0.469   3.727   0.125  1.2219  1.7306  0.1417
22930WAT     H293526   0.496   3.594   0.191 -2.2698  0.1822 -1.3168
22930WAT    EPW93527   0.486   3.680   0.196 -0.5079  0.3718 -0.2755
22931WAT      O93528   4.248   8.321   5.953 -0.5787  0.5020  0.1759
22931WAT     H193529   4.275   8.230   5.934 -0.9228  0.8991 -2.7063
22931WAT     H293530   4.318   8.374   5.915 -2.3891  1.4458 -2.1179
22931WAT    EPW93531   4.261   8.316   5.945 -0.8631  0.6790 -0.5069
22932WAT      O93532  -3.800   3.679   6.272 -0.7707  0.5893  0.0685
22932WAT     H193533  -3.845   3.732   6.206 -1.6157  0.2444  0.3490
22932WAT     H293534  -3.733   3.738   6.308 -0.7385  0.9930 -0.6273
22932WAT    EPW93535  -3.797   3.694   6.268 -0.8779  0.5970  0.0138
22933WAT      O93536  -2.891   1.261   6.001  0.2038 -0.3365 -0.3158
22933WAT     H193537  -2.933   1.288   5.919 -0.7096 -1.5023 -0.2676
22933WAT     H293538  -2.833   1.189   5.975  3.4594  2.2020 -0.6299
22933WAT    EPW93539  -2.889   1.255   5.987  0.5127 -0.1554 -0.3510
22934WAT      O93540  -5.534   7.909   7.874  0.1231 -0.0262  0.1320
22934WAT     H193541  -5.533   7.813   7.869  0.8741 -0.3973  4.2918
22934WAT     H293542  -5.484   7.930   7.953 -0.1409  3.8394 -0.5235
22934WAT    EPW93543  -5.528   7.899   7.884  0.1874  0.4344  0.5944
22935WAT      O93544  -2.145   3.591   5.002 -0.4632  0.5202 -0.3214
22935WAT     H193545  -2.156   3.619   4.911 -0.0759  1.1105 -0.1901
22935WAT     H293546  -2.196   3.655   5.053  0.4312  1.0121 -0.0182
22935WAT    EPW93547  -2.153   3.603   4.997 -0.2942  0.6629 -0.2642
22936WAT      O93548   3.874   6.942   6.041 -0.2021 -0.7826 -0.0450
22936WAT     H193549   3.958   6.897   6.039 -0.0137 -0.4729  0.6972
22936WAT     H293550   3.831   6.916   5.960  1.2795  0.3685 -1.2375
22936WAT    EPW93551   3.879   6.933   6.030  0.0181 -0.5898 -0.1044
22937WAT      O93552   1.665   5.323   7.832 -0.0140  0.3605 -0.2355
22937WAT     H193553   1.622   5.330   7.916  0.2164 -1.7465  0.1264
22937WAT     H293554   1.672   5.228   7.816  4.8310  0.4061 -0.0238
22937WAT    EPW93555   1.660   5.311   7.841  0.6554  0.0887 -0.1600
22938WAT      O93556   3.080   6.179   7.384  0.0145  0.2672  0.5745
22938WAT     H193557   3.074   6.160   7.478  1.5780  0.4634  0.7427
22938WAT     H293558   3.144   6.250   7.378  1.4866 -1.0844 -0.7580
22938WAT    EPW93559   3.088   6.186   7.396  0.4150  0.1147  0.4210
22939WAT      O93560  -1.368   7.737   2.557  0.0271 -0.6596 -0.4761
22939WAT     H193561  -1.434   7.805   2.567 -0.1414 -0.8952  0.0365
22939WAT     H293562  -1.293   7.769   2.607  0.6103 -0.0102 -1.7242
22939WAT    EPW93563  -1.366   7.750   2.564  0.0818 -0.6049 -0.5729
22940WAT      O93564   4.435   9.004   1.696  0.0322  0.5025 -0.4270
22940WAT     H193565   4.340   8.998   1.697  0.0398 -2.2921 -2.6245
22940WAT     H293566   4.460   9.015   1.788 -2.3814  1.9534  0.1330
22940WAT    EPW93567   4.426   9.005   1.708 -0.2851  0.3252 -0.6430
22941WAT      O93568   4.051   5.699   0.639 -0.9994  0.2558  0.8311
22941WAT     H193569   4.144   5.675   0.642 -0.9259  0.5125  0.6570
22941WAT     H293570   4.012   5.654   0.714 -1.2353 -1.8589 -0.4711
22941WAT    EPW93571   4.058   5.690   0.649 -1.0209  0.0105  0.6364
22942WAT      O93572  -2.027   4.262   2.411  0.0807  0.0008 -0.1851
22942WAT     H193573  -2.042   4.246   2.504  2.6468  1.9601  0.6790
22942WAT     H293574  -2.053   4.353   2.397 -0.3322 -0.2829 -1.4116
22942WAT    EPW93575  -2.032   4.272   2.421  0.3647  0.2217 -0.2329
22943WAT      O93576   0.357   9.511   1.036  0.7109  0.0606  0.5861
22943WAT     H193577   0.361   9.576   0.966 -1.3234  3.0524  3.0212
22943WAT     H293578   0.444   9.514   1.077  0.8674  0.6810  0.2200
22943WAT    EPW93579   0.369   9.520   1.032  0.4632  0.5374  0.8590
22944WAT      O93580  -1.479   1.033   6.971  0.7620  0.0767  0.2232
22944WAT     H193581  -1.447   1.084   7.045  2.4963 -1.1189  0.3488
22944WAT     H293582  -1.464   0.942   6.995  0.5972 -0.3787 -1.2612
22944WAT    EPW93583  -1.473   1.028   6.984  0.9690 -0.1410  0.0439
22945WAT      O93584  -3.827   3.830   7.837  0.4068 -0.5505 -0.3701
22945WAT     H193585  -3.922   3.819   7.844 -0.1629  3.0003 -0.5962
22945WAT     H293586  -3.798   3.845   7.927 -0.0389  2.5705 -0.6420
22945WAT    EPW93587  -3.836   3.830   7.850  0.2729  0.3294 -0.4361
22946WAT      O93588   1.759   2.476   3.975  0.4639 -0.1956 -0.0882
22946WAT     H193589   1.832   2.497   4.035  1.9556  0.8476 -2.1570
22946WAT     H293590   1.761   2.545   3.909 -0.8652 -1.4992 -1.5828
22946WAT    EPW93591   1.769   2.488   3.975  0.4854 -0.2300 -0.5583
22947WAT      O93592   1.298   1.300   4.966 -0.0627  0.3064 -0.2996
22947WAT     H193593   1.254   1.259   4.892  1.6618 -1.2391 -0.5273
22947WAT     H293594   1.320   1.228   5.024 -0.8431  1.4322  1.4730
22947WAT    EPW93595   1.295   1.285   4.964  0.0618  0.2511 -0.0958
22948WAT      O93596   2.412   5.260   2.353 -0.1753  0.7187 -0.3523
22948WAT     H193597   2.448   5.214   2.429 -0.4124  1.3329  0.1358
22948WAT     H293598   2.450   5.214   2.278  0.6145  0.5416  0.1372
22948WAT    EPW93599   2.422   5.248   2.353 -0.1024  0.7763 -0.2234
22949WAT      O93600   0.438   6.974   8.686  0.3266 -0.1130 -0.2729
22949WAT     H193601   0.490   6.901   8.721  2.9512  1.7108 -0.0436
22949WAT     H293602   0.489   7.005   8.611 -0.6654  1.5213 -0.3095
22949WAT    EPW93603   0.452   6.968   8.681  0.5419  0.3433 -0.2475
22950WAT      O93604   1.768   2.870   3.304  0.2859  0.4171  0.0068
22950WAT     H193605   1.685   2.823   3.308  1.5294 -1.8579  2.0041
22950WAT     H293606   1.770   2.922   3.384  1.7466 -1.5150  1.3190
22950WAT    EPW93607   1.757   2.870   3.315  0.6426 -0.1377  0.4435
22951WAT      O93608   1.885   8.510   8.248 -0.2286  0.2741  0.0787
22951WAT     H193609   1.885   8.551   8.161  0.0867 -0.1517 -0.1250
22951WAT     H293610   1.866   8.582   8.308  2.9888  1.3181  0.0183
22951WAT    EPW93611   1.882   8.525   8.244  0.2373  0.3557  0.0439
22952WAT      O93612  -2.158   1.870   8.741  0.3239 -0.3080 -0.3558
22952WAT     H193613  -2.252   1.858   8.730  0.1902 -0.7715  1.0912
22952WAT     H293614  -2.126   1.887   8.652 -1.2115  0.6006 -0.7862
22952WAT    EPW93615  -2.166   1.871   8.728  0.1037 -0.2493 -0.2213
22953WAT      O93616   6.842   8.295   0.955  0.1436 -0.2874  0.0919
22953WAT     H193617   6.917   8.336   0.997 -1.2544  2.6752 -0.0217
22953WAT     H293618   6.872   8.275   0.866  1.5086 -1.6043  0.8095
22953WAT    EPW93619   6.856   8.297   0.949  0.1392 -0.0696  0.1716
22954WAT      O93620  -3.667   8.849   6.866 -0.1080  0.4138 -0.2288
22954WAT     H193621  -3.576   8.845   6.839 -1.1148 -1.3745 -4.0625
22954WAT     H293622  -3.695   8.757   6.871 -2.0067  0.9274 -0.5339
22954WAT    EPW93623  -3.659   8.836   6.863 -0.4911  0.2456 -0.7749
22955WAT      O93624  -4.282   6.581   8.857  0.7909  0.3755 -0.0510
22955WAT     H193625  -4.352   6.580   8.791  0.4216  0.5952  0.3285
22955WAT     H293626  -4.308   6.514   8.920 -0.1931  1.8233  1.1953
22955WAT    EPW93627  -4.295   6.572   8.857  0.6125  0.5951  0.1636
22956WAT      O93628  -2.688  10.214   3.339  0.7619  0.2912 -0.6005
22956WAT     H193629  -2.650  10.201   3.252  1.0964  0.1153 -0.4295
22956WAT     H293630  -2.723  10.128   3.363  2.5256 -0.2343  0.3155
22956WAT    EPW93631  -2.687  10.201   3.331  1.0387  0.1988 -0.4570
22957WAT      O93632   7.937   6.687   1.117  0.8054 -0.0278 -0.7161
22957WAT     H193633   7.924   6.609   1.171 -0.0762  1.2648  1.0199
22957WAT     H293634   7.893   6.757   1.165 -1.2847  0.9571 -3.8392
22957WAT    EPW93635   7.930   6.686   1.131  0.4134  0.2725 -0.8991
22958WAT      O93636  -3.227   9.900   7.364 -0.9353  0.4449 -0.6783
22958WAT     H193637  -3.252   9.830   7.425 -1.7162 -0.7116 -2.2498
22958WAT     H293638  -3.144   9.933   7.398 -0.8859 -0.7981  0.4791
22958WAT    EPW93639  -3.219   9.895   7.377 -1.0318  0.1283 -0.7331
22959WAT      O93640   3.054   1.068   1.299  0.7396 -0.7773 -0.5096
22959WAT     H193641   2.992   1.000   1.273 -0.2025 -0.5090  0.9281
22959WAT     H293642   3.068   1.053   1.392  1.7301  0.0569 -0.5112
22959WAT    EPW93643   3.048   1.057   1.307  0.7461 -0.6319 -0.3203
22960WAT      O93644  -6.391   9.845   7.771 -0.0794  0.8752 -0.4099
22960WAT     H193645  -6.374   9.937   7.750 -0.4202  0.9481 -0.3726
22960WAT     H293646  -6.304   9.806   7.776  0.0420  1.0050 -1.2846
22960WAT    EPW93647  -6.377   9.852   7.769 -0.1082  0.9022 -0.5202
22961WAT      O93648  -1.337   3.613   2.177  0.0727  0.1788  0.2185
22961WAT     H193649  -1.330   3.647   2.267  1.4579 -0.1922  0.2806
22961WAT     H293650  -1.252   3.572   2.161 -0.7688 -1.2761 -0.6598
22961WAT    EPW93651  -1.325   3.612   2.187  0.1444 -0.0620  0.1110
22962WAT      O93652  -2.179   6.017   6.219  0.7985  0.0290  0.3696
22962WAT     H193653  -2.179   6.010   6.314 -0.5507 -1.1228  0.3028
22962WAT     H293654  -2.207   6.107   6.202 -0.7493 -0.3015  1.0559
22962WAT    EPW93655  -2.183   6.028   6.229  0.4164 -0.1664  0.4513
22963WAT      O93656   3.933   8.156   1.461  0.1080 -0.4476 -0.0250
22963WAT     H193657   3.920   8.243   1.497 -2.1706 -0.6268 -0.2629
22963WAT     H293658   3.983   8.109   1.528 -0.3201  0.4765  0.9584
22963WAT    EPW93659   3.938   8.161   1.475 -0.2490 -0.3495  0.0733
22964WAT      O93660  -3.297   4.909   7.457  0.3163 -0.5407 -0.5084
22964WAT     H193661  -3.342   4.946   7.382 -0.7877  0.6353  0.6741
22964WAT     H293662  -3.337   4.952   7.533 -1.0866 -4.1138  1.0385
22964WAT    EPW93663  -3.308   4.920   7.457 -0.0143 -0.8569 -0.1483
22965WAT      O93664   3.164   3.971   3.491 -0.0124  0.1771 -0.4790
22965WAT     H193665   3.120   3.899   3.536 -0.2505 -0.0253 -1.0268
22965WAT     H293666   3.148   4.047   3.546  0.3971 -0.2175  0.2023
22965WAT    EPW93667   3.156   3.971   3.504  0.0101  0.0983 -0.4615
22966WAT      O93668  -0.538   2.920   0.266 -0.3118 -0.2450 -0.4584
22966WAT     H193669  -0.456   2.965   0.286 -1.3844  1.7113 -0.2072
22966WAT     H293670  -0.604   2.990   0.265 -1.6470 -1.4268 -2.7958
22966WAT    EPW93671  -0.536   2.935   0.269 -0.6294 -0.1429 -0.7336
22967WAT      O93672  -2.799   2.339   8.986  0.0914  0.0874 -0.4997
22967WAT     H193673  -2.874   2.281   8.997  0.1187  0.1777  0.2053
22967WAT     H293674  -2.792   2.351   8.891  1.0412 -2.3010 -0.7929
22967WAT    EPW93675  -2.808   2.333   8.975  0.2203 -0.2156 -0.4454
22968WAT      O93676   2.310   7.810   1.931 -0.1826  0.4543 -0.6280
22968WAT     H193677   2.291   7.857   2.013 -2.9241 -2.5406  0.6521
22968WAT     H293678   2.262   7.859   1.864 -1.3411  0.6525  0.3084
22968WAT    EPW93679   2.302   7.823   1.933 -0.6970  0.0854 -0.3356
22969WAT      O93680  -3.266   8.859   2.458  0.2519 -0.0270  0.1903
22969WAT     H193681  -3.173   8.838   2.457  0.1818 -0.6937  2.2093
22969WAT     H293682  -3.273   8.939   2.510 -0.4405 -1.1821  1.9777
22969WAT    EPW93683  -3.255   8.867   2.465  0.1513 -0.2670  0.6924
22970WAT      O93684  -1.710   1.549   3.459  0.3046  0.0870  0.1785
22970WAT     H193685  -1.746   1.516   3.377 -0.1083  0.5951  0.1481
22970WAT     H293686  -1.786   1.578   3.509  0.6606  5.1183 -1.5660
22970WAT    EPW93687  -1.725   1.549   3.455  0.2971  0.8176 -0.0556
22971WAT      O93688  -3.563   9.685   8.245 -0.2214  0.2573  0.3458
22971WAT     H193689  -3.641   9.704   8.298  0.2395  1.1862  0.7076
22971WAT     H293690  -3.519   9.769   8.236 -1.3209  0.5742 -3.2465
22971WAT    EPW93691  -3.568   9.698   8.251 -0.3057  0.4215 -0.0806
22972WAT      O93692   0.452  10.011   3.026 -0.2542 -0.4474 -0.3322
22972WAT     H193693   0.378   9.950   3.022  0.2311 -1.0799  0.1598
22972WAT     H293694   0.442  10.066   2.949 -0.7909 -1.0438 -0.6937
22972WAT    EPW93695   0.441  10.010   3.016 -0.2610 -0.6094 -0.3150
22973WAT      O93696   2.670   0.983   8.185  0.0616  0.2987  0.2196
22973WAT     H193697   2.647   0.934   8.264  1.7627 -1.0646 -0.0628
22973WAT     H293698   2.623   0.937   8.115  0.4887 -0.0263  0.1419
22973WAT    EPW93699   2.660   0.970   8.186  0.3422  0.0760  0.1717
22974WAT      O93700   0.545   9.255   0.895  0.5600  0.2260  0.4486
22974WAT     H193701   0.471   9.296   0.850  0.0051  1.5181  2.4246
22974WAT     H293702   0.534   9.279   0.987  2.7374 -0.6368  1.0026
22974WAT    EPW93703   0.534   9.264   0.901  0.7740  0.2828  0.7823
22975WAT      O93704   4.267   5.540   3.057  0.5321  0.8452 -0.7031
22975WAT     H193705   4.226   5.561   2.973 -1.0868  1.4770  0.1947
22975WAT     H293706   4.281   5.446   3.054 -2.5162  0.2953 -0.4779
22975WAT    EPW93707   4.264   5.531   3.046 -0.0834  0.8562 -0.5549
22976WAT      O93708  -4.994   7.004   8.711  0.3028  0.5669  0.4365
22976WAT     H193709  -5.037   6.974   8.791 -0.4410 -0.5294 -0.3458
22976WAT     H293710  -4.948   6.927   8.678  1.5796  1.3217  0.4109
22976WAT    EPW93711  -4.994   6.990   8.717  0.3731  0.5219  0.3300
22977WAT      O93712   6.095   3.370   1.552 -0.3631  0.1700  0.1268
22977WAT     H193713   6.081   3.294   1.609 -2.5100  0.7755  0.4898
22977WAT     H293714   6.189   3.388   1.560 -0.1622 -1.2217  1.5928
22977WAT    EPW93715   6.106   3.362   1.561 -0.6196  0.0663  0.3680
22978WAT      O93716  -1.864   7.635   7.825 -0.4964 -0.2174  0.6725
22978WAT     H193717  -1.790   7.575   7.819  1.2903  1.5103  3.3812
22978WAT     H293718  -1.863   7.684   7.743  0.7257 -0.9263  0.2569
22978WAT    EPW93719  -1.854   7.634   7.814 -0.0995 -0.0830  0.9749
22979WAT      O93720   2.528   0.918   0.188  0.1453  0.5063 -0.0167
22979WAT     H193721   2.505   0.950   0.101 -0.0968 -1.7590 -0.8508
22979WAT     H293722   2.539   0.823   0.177 -1.6193 -0.1369  2.7506
22979WAT    EPW93723   2.526   0.910   0.175 -0.1193  0.1227  0.2382
22980WAT      O93724  -0.266   8.106   2.066 -0.5224 -0.4686  0.2240
22980WAT     H193725  -0.273   8.011   2.066 -0.2256 -0.5265 -1.7458
22980WAT     H293726  -0.173   8.124   2.058 -0.4123  0.0417  2.1539
22980WAT    EPW93727  -0.255   8.096   2.065 -0.4687 -0.4091  0.2187
22981WAT      O93728   3.222   9.917   2.595  0.4286  0.0102  0.6657
22981WAT     H193729   3.153   9.970   2.634 -1.0684 -0.9271 -0.6094
22981WAT     H293730   3.181   9.877   2.518  2.1903 -1.1417  0.2791
22981WAT    EPW93731   3.208   9.919   2.590  0.4636 -0.2656  0.4466
22982WAT      O93732  -1.305   9.735   1.737 -0.1713  0.5617  0.3982
22982WAT     H193733  -1.222   9.692   1.715 -0.9100 -1.4361  1.3288
22982WAT     H293734  -1.282   9.797   1.806  0.7083  0.8772 -0.1489
22982WAT    EPW93735  -1.291   9.738   1.743 -0.1528  0.3400  0.4488
22983WAT      O93736   4.666   1.994   2.114  0.1708 -0.0479 -0.0145
22983WAT     H193737   4.713   2.068   2.077 -0.7322 -1.0436 -3.4816
22983WAT     H293738   4.584   2.031   2.146  0.8306  0.7938  0.7542
22983WAT    EPW93739   4.661   2.008   2.114  0.1385 -0.0682 -0.3704
22984WAT      O93740  -3.868   3.504   4.927 -0.2139  0.0306  0.0959
22984WAT     H193741  -3.959   3.488   4.952 -0.4603  2.0674  0.7325
22984WAT     H293742  -3.827   3.418   4.928 -1.8798 -0.8024  0.8596
22984WAT    EPW93743  -3.874   3.491   4.931 -0.4661  0.1894  0.2806
22985WAT      O93744   1.408   4.934   0.234  0.0894 -0.0325  0.4027
22985WAT     H193745   1.486   4.885   0.208 -0.8647 -0.1559 -2.5277
22985WAT     H293746   1.441   5.022   0.254  0.8923  0.2635 -1.9818
22985WAT    EPW93747   1.422   4.939   0.233  0.0694 -0.0098 -0.2983
22986WAT      O93748  -1.926   7.836   4.725  0.2290 -0.0091 -0.0234
22986WAT     H193749  -1.936   7.924   4.763  0.0920 -0.8253  1.9681
22986WAT     H293750  -1.840   7.839   4.683  0.2363  1.0795  0.0194
22986WAT    EPW93751  -1.916   7.848   4.725  0.2119  0.0269  0.2449
22987WAT      O93752   0.937   5.224   8.772  0.5877  0.3362  0.5392
22987WAT     H193753   1.009   5.211   8.710  0.0814 -0.9040  0.1950
22987WAT     H293754   0.934   5.319   8.785 -1.6619  1.2048 -4.1847
22987WAT    EPW93755   0.946   5.235   8.766  0.2242  0.2871 -0.1292
22988WAT      O93756   5.564   1.205   0.542  0.6351 -0.3994 -0.9193
22988WAT     H193757   5.474   1.198   0.512  0.1060  1.1198  0.2077
22988WAT     H293758   5.611   1.138   0.493 -0.8040 -0.2060 -2.6569
22988WAT    EPW93759   5.558   1.195   0.532  0.3755 -0.1736 -0.9999
22989WAT      O93760   1.180   4.490   1.744 -0.6162  0.3467  0.8793
22989WAT     H193761   1.175   4.474   1.838 -0.8106 -1.3453  0.6118
22989WAT     H293762   1.096   4.530   1.722 -2.3138 -2.8496  0.8611
22989WAT    EPW93763   1.168   4.493   1.753 -0.8658 -0.2978  0.8416
22990WAT      O93764   6.424   0.087   6.108 -0.3141 -0.0396 -0.8559
22990WAT     H193765   6.399   0.161   6.164 -2.4864 -2.3251  1.4495
22990WAT     H293766   6.519   0.094   6.100 -0.2491  1.9798  0.8256
22990WAT    EPW93767   6.433   0.098   6.115 -0.5920 -0.0747 -0.3302
22991WAT      O93768   0.272   0.301   0.044  0.6575 -0.1213  0.3050
22991WAT     H193769   0.302   0.234   0.106 -0.3508 -0.7472  0.1487
22991WAT     H293770   0.211   0.355   0.094 -1.4791 -1.6357 -0.4815
22991WAT    EPW93771   0.268   0.299   0.058  0.2427 -0.4036  0.1806
22992WAT      O93772   0.749   9.784   8.193 -0.3128  0.4451 -0.0736
22992WAT     H193773   0.692   9.825   8.258 -1.5406  0.9759 -1.4137
22992WAT     H293774   0.823   9.843   8.185  0.1256  0.0902  1.2245
22992WAT    EPW93775   0.751   9.797   8.200 -0.4169  0.4683 -0.0792
22993WAT      O93776  -2.206   8.017   1.225  0.3382  0.1006  0.3600
22993WAT     H193777  -2.300   8.009   1.239  0.4311  0.1401  1.0678
22993WAT     H293778  -2.175   7.927   1.213  0.1940  0.0999 -0.0221
22993WAT    EPW93779  -2.214   8.004   1.225  0.3314  0.1059  0.4029
22994WAT      O93780  -0.456   9.602   8.571 -0.8115 -0.6333  0.7022
22994WAT     H193781  -0.483   9.649   8.649 -4.0879 -0.8907 -0.1338
22994WAT     H293782  -0.452   9.670   8.503 -0.0970 -0.7444  0.6262
22994WAT    EPW93783  -0.459   9.617   8.572 -1.1494 -0.6824  0.5817
22995WAT      O93784   3.293   5.474   2.197  0.0155  0.0691  0.7371
22995WAT     H193785   3.325   5.438   2.114 -2.8389  0.7138 -0.7798
22995WAT     H293786   3.283   5.398   2.254  0.2478 -0.6609 -0.1707
22995WAT    EPW93787   3.296   5.459   2.193 -0.3303  0.0579  0.4172
22996WAT      O93788  -0.005   0.975   5.238 -0.2774  0.4412 -0.1758
22996WAT     H193789   0.013   0.913   5.168 -2.7815 -0.2999 -0.2682
22996WAT     H293790  -0.055   1.045   5.196 -0.2102  0.9172  0.5242
22996WAT    EPW93791  -0.009   0.976   5.223 -0.5988  0.4062 -0.0956
22997WAT      O93792   1.709   0.345   7.394 -0.0924  0.1111  0.3212
22997WAT     H193793   1.682   0.255   7.377 -2.4913  0.9342 -0.6654
22997WAT     H293794   1.804   0.344   7.380  0.1595 -2.4819  1.5675
22997WAT    EPW93795   1.718   0.333   7.390 -0.3756 -0.1224  0.3555
22998WAT      O93796  -0.798   1.827   8.580 -0.3178  0.2072 -0.6916
22998WAT     H193797  -0.758   1.843   8.494  0.7062 -1.1546 -0.4975
22998WAT     H293798  -0.824   1.735   8.578 -2.1625  0.6772 -0.2580
22998WAT    EPW93799  -0.796   1.817   8.568 -0.4260  0.0896 -0.6084
22999WAT      O93800  -0.352   7.849   2.070 -0.2265  0.5421  0.2215
22999WAT     H193801  -0.302   7.790   2.127 -0.2157  1.8465  1.6427
22999WAT     H293802  -0.437   7.856   2.113 -0.2042  1.5826  0.1248
22999WAT    EPW93803  -0.357   7.843   2.083 -0.2221  0.8514  0.3961
23000WAT      O93804   1.556   8.701   3.194  0.3965 -0.1564  0.1404
23000WAT     H193805   1.551   8.783   3.145  3.1586  0.6540  1.0538
23000WAT     H293806   1.478   8.653   3.167 -0.7057  2.2577 -1.3215
23000WAT    EPW93807   1.545   8.705   3.184  0.6155  0.2689  0.0681
23001WAT      O93808  -3.723   8.730   7.543  0.3218  0.6442  0.6515
23001WAT     H193809  -3.792   8.668   7.567 -0.0894  0.3964 -1.0737
23001WAT     H293810  -3.657   8.677   7.498  1.8166  0.8275  2.4872
23001WAT    EPW93811  -3.723   8.715   7.540  0.4647  0.6356  0.6661
23002WAT      O93812   4.264   5.834   4.404 -0.1525 -0.2255 -0.2420
23002WAT     H193813   4.273   5.740   4.390  2.5833  0.0113 -0.5933
23002WAT     H293814   4.280   5.845   4.498  1.7001  0.0227 -0.5430
23002WAT    EPW93815   4.268   5.823   4.415  0.4525 -0.1616 -0.3281
23003WAT      O93816   0.437   1.985   4.526 -0.7235 -0.1274  0.0636
23003WAT     H193817   0.381   1.963   4.600 -0.1403  0.8797  0.8327
23003WAT     H293818   0.526   1.966   4.556 -0.4606  0.5234 -0.2786
23003WAT    EPW93819   0.442   1.980   4.540 -0.6119  0.0913  0.1199
23004WAT      O93820  -1.874   9.573   4.167  0.3051  0.0897  0.2659
23004WAT     H193821  -1.902   9.655   4.208  0.4362  0.6947 -0.8166
23004WAT     H293822  -1.935   9.508   4.202 -1.4789  1.0945 -0.7823
23004WAT    EPW93823  -1.886   9.575   4.177  0.0871  0.3018 -0.0150
23005WAT      O93824   5.663   4.733   5.708 -0.7924 -0.3560  0.4894
23005WAT     H193825   5.745   4.708   5.666 -0.6369  0.0448  0.5528
23005WAT     H293826   5.619   4.790   5.645 -1.0634 -0.6402  0.4189
23005WAT    EPW93827   5.668   4.737   5.694 -0.8078 -0.3407  0.4883
23006WAT      O93828  -6.565   8.494   6.716  0.2202  1.5010 -0.5466
23006WAT     H193829  -6.590   8.492   6.808 -3.2510 -0.9501 -1.3386
23006WAT     H293830  -6.503   8.422   6.707 -0.8249  0.5497 -0.3793
23006WAT    EPW93831  -6.560   8.484   6.727 -0.3753  1.0529 -0.6289
23007WAT      O93832  -0.222   4.391   6.735 -0.1012 -0.1305  0.7460
23007WAT     H193833  -0.264   4.429   6.658 -0.1881 -1.2143  0.2383
23007WAT     H293834  -0.130   4.416   6.727  0.4439 -2.3609 -1.1550
23007WAT    EPW93835  -0.215   4.399   6.724 -0.0408 -0.5674  0.4282
23008WAT      O93836  -1.473  10.369   6.716 -0.4044  0.0533 -0.8877
23008WAT     H193837  -1.496  10.335   6.803 -1.4846  1.6008 -0.5287
23008WAT     H293838  -1.550  10.351   6.663 -0.7284  1.2668 -0.8635
23008WAT    EPW93839  -1.486  10.362   6.721 -0.5897  0.4177 -0.8371
23009WAT      O93840   1.564   1.524   1.605  0.2008  0.2383 -0.2150
23009WAT     H193841   1.569   1.497   1.514 -0.9991  0.4102 -0.3372
23009WAT     H293842   1.525   1.450   1.651  2.1700 -0.4677  0.4600
23009WAT    EPW93843   1.560   1.511   1.599  0.3023  0.1678 -0.1421
23010WAT      O93844  -5.858   5.517   8.486  0.6891 -0.2365  0.4433
23010WAT     H193845  -5.892   5.507   8.574  0.9314  0.1957  0.5900
23010WAT     H293846  -5.774   5.562   8.497  0.9696 -0.6399  0.0343
23010WAT    EPW93847  -5.851   5.521   8.499  0.7579 -0.2329  0.4082
23011WAT      O93848  -1.687   7.483   6.873  0.5765 -0.0026 -0.9128
23011WAT     H193849  -1.688   7.558   6.933 -1.3810 -1.7273  1.4146
23011WAT     H293850  -1.687   7.522   6.785  0.6483  2.6908  0.2035
23011WAT    EPW93851  -1.687   7.498   6.869  0.3278  0.1252 -0.4587
23012WAT      O93852   4.672   1.414   0.276 -0.3095  0.0309  0.0173
23012WAT     H193853   4.610   1.341   0.279 -1.2635  0.7575 -1.1566
23012WAT     H293854   4.694   1.423   0.183  2.5420 -0.9722  0.4904
23012WAT    EPW93855   4.667   1.405   0.264 -0.0594 -0.0055 -0.0751
23013WAT      O93856   2.819   4.179   4.458 -0.0258 -0.0308  0.4361
23013WAT     H193857   2.839   4.088   4.440  0.0321 -0.5727  2.8888
23013WAT     H293858   2.896   4.227   4.428 -0.1547 -0.7037 -1.0900
23013WAT    EPW93859   2.832   4.174   4.451 -0.0352 -0.1912  0.5581
23014WAT      O93860   5.461   1.773   5.852  0.0701 -0.4297  0.2170
23014WAT     H193861   5.501   1.853   5.886  0.9665 -1.0784  0.7522
23014WAT     H293862   5.454   1.788   5.758 -1.5950  1.0322  0.5163
23014WAT    EPW93863   5.465   1.786   5.844 -0.0315 -0.3225  0.3271
23015WAT      O93864   8.954   0.794   1.434 -0.2285  0.3281  0.3749
23015WAT     H193865   8.993   0.843   1.362  0.6270 -1.1152 -0.1918
23015WAT     H293866   8.860   0.792   1.414  0.1781 -1.5865 -1.7504
23015WAT    EPW93867   8.947   0.800   1.422 -0.0625 -0.1148  0.0198
23016WAT      O93868  -0.872   1.462   4.121  0.2633 -0.3516  0.2116
23016WAT     H193869  -0.956   1.423   4.144  0.2224 -0.7655 -0.5946
23016WAT     H293870  -0.813   1.436   4.191 -0.5097  0.8308  1.3539
23016WAT    EPW93871  -0.875   1.454   4.133  0.1559 -0.2502  0.2558
23017WAT      O93872   1.942   8.999   4.489 -0.0258  0.5859 -0.7426
23017WAT     H193873   1.890   8.969   4.563 -0.8438 -0.8671 -1.8480
23017WAT     H293874   1.981   9.081   4.519  2.4858 -1.5513  2.5598
23017WAT    EPW93875   1.940   9.006   4.503  0.1976  0.1121 -0.4528
23018WAT      O93876   2.928   7.976   1.400  0.0635 -0.2570 -0.0214
23018WAT     H193877   2.886   8.040   1.457  0.6698  1.2127 -1.1585
23018WAT     H293878   2.865   7.905   1.393 -1.8442  1.4155 -0.8439
23018WAT    EPW93879   2.914   7.975   1.407 -0.1081  0.1574 -0.2798
23019WAT      O93880   0.993   2.592   1.967  0.6404 -0.1424 -0.2469
23019WAT     H193881   1.005   2.681   1.934  1.0764  0.1139  0.5640
23019WAT     H293882   0.922   2.600   2.031 -0.3201 -0.6652 -1.2218
23019WAT    EPW93883   0.985   2.605   1.971  0.5713 -0.1775 -0.2686
23020WAT      O93884   3.917   8.573   1.984  0.2631  0.3459 -0.0216
23020WAT     H193885   4.000   8.534   2.013 -0.0472  0.3648  0.9085
23020WAT     H293886   3.942   8.658   1.949  0.4940  1.0260  1.6775
23020WAT    EPW93887   3.931   8.579   1.983  0.2526  0.4382  0.3251
23021WAT      O93888  -0.161   9.349   2.844  0.0386 -0.1364  0.1063
23021WAT     H193889  -0.217   9.411   2.892 -0.4348  0.0526 -0.6688
23021WAT     H293890  -0.209   9.266   2.848  0.2168 -0.2275  0.3444
23021WAT    EPW93891  -0.175   9.346   2.851 -0.0004 -0.1230  0.0354
23022WAT      O93892   0.648   6.348   2.125 -0.0095 -0.3258 -0.2567
23022WAT     H193893   0.707   6.288   2.079 -0.7334  0.4372 -2.3054
23022WAT     H293894   0.563   6.304   2.122  0.1487 -0.8449  1.5658
23022WAT    EPW93895   0.645   6.334   2.118 -0.0841 -0.2937 -0.2866
23023WAT      O93896   5.767   2.609   5.342 -0.0481  0.3529  0.3600
23023WAT     H193897   5.792   2.650   5.259 -0.2227  0.7318  0.4941
23023WAT     H293898   5.841   2.627   5.400  1.8140 -3.0141 -0.6956
23023WAT    EPW93899   5.780   2.617   5.338  0.1743 -0.0411  0.2384
23024WAT      O93900  -7.537   9.317   7.664 -0.2893 -0.1086  0.1083
23024WAT     H193901  -7.449   9.354   7.652  1.3632 -3.6271  0.0571
23024WAT     H293902  -7.543   9.299   7.757 -0.6855 -0.5214  0.0061
23024WAT    EPW93903  -7.526   9.320   7.675 -0.1235 -0.6270  0.0882
23025WAT      O93904   2.177  10.137   5.578  0.0794  0.3651  0.4490
23025WAT     H193905   2.244  10.146   5.511  1.3829 -1.8090  1.3519
23025WAT     H293906   2.202  10.200   5.646  0.3557  0.5922  0.1407
23025WAT    EPW93907   2.189  10.146   5.578  0.2878  0.1082  0.5274
23026WAT      O93908   2.587   4.587   2.959 -0.1000  0.0986 -0.6336
23026WAT     H193909   2.503   4.621   2.930  0.9021 -0.3928 -4.7918
23026WAT     H293910   2.649   4.618   2.893  2.7308 -0.8234  1.4061
23026WAT    EPW93911   2.584   4.595   2.946  0.4054 -0.0877 -0.9130
23027WAT      O93912   1.116   7.210   3.890 -0.1769 -0.3104 -0.2567
23027WAT     H193913   1.112   7.213   3.794  0.7227 -2.0819 -0.4112
23027WAT     H293914   1.117   7.302   3.917 -2.4327  0.2429 -1.8043
23027WAT    EPW93915   1.116   7.222   3.881 -0.3557 -0.4709 -0.4812
23028WAT      O93916   2.630   6.010   7.690 -0.2141  0.0345 -0.3746
23028WAT     H193917   2.631   5.926   7.736 -0.1702  0.0700 -0.3095
23028WAT     H293918   2.592   5.991   7.605 -3.0227  0.4903  0.6900
23028WAT    EPW93919   2.625   5.997   7.685 -0.5788  0.0994 -0.2255
23029WAT      O93920  -2.210   7.538   6.164  0.1131  0.4654  1.0318
23029WAT     H193921  -2.206   7.563   6.072  1.0375  0.4650  1.0665
23029WAT     H293922  -2.301   7.553   6.189 -1.3036 -3.4617 -0.9999
23029WAT    EPW93923  -2.221   7.543   6.155  0.0482 -0.0527  0.7684
23030WAT      O93924  -3.851   0.825   6.753  0.5411  0.2269 -0.1067
23030WAT     H193925  -3.836   0.784   6.668 -0.9032 -1.7462  0.5126
23030WAT     H293926  -3.945   0.840   6.756  0.6713  0.9512  0.8715
23030WAT    EPW93927  -3.861   0.822   6.742  0.3676  0.0622  0.1040
23031WAT      O93928  -2.052   7.346   6.452 -0.5594  0.5470 -0.2593
23031WAT     H193929  -1.981   7.320   6.393  0.5548  1.5283  0.6042
23031WAT     H293930  -2.126   7.292   6.425  0.9379 -1.7384 -0.0960
23031WAT    EPW93931  -2.052   7.336   6.440 -0.2149  0.3750 -0.1240
23032WAT      O93932  -0.193   3.119   5.291 -0.2395 -0.2613 -0.1124
23032WAT     H193933  -0.274   3.131   5.242 -0.7281 -1.6533  0.3032
23032WAT     H293934  -0.131   3.087   5.227  0.1608  1.2915 -0.5429
23032WAT    EPW93935  -0.196   3.116   5.276 -0.2512 -0.2401 -0.1142
23033WAT      O93936   2.189  10.320   7.836 -0.1236  0.6904  0.8426
23033WAT     H193937   2.112  10.269   7.861  0.6943  0.7433  3.8257
23033WAT     H293938   2.188  10.396   7.894  1.1494  1.7398 -0.4172
23033WAT    EPW93939   2.179  10.324   7.847  0.1523  0.8359  1.0700
23034WAT      O93940  -1.530   7.703   4.023  0.0686 -0.3601 -0.0967
23034WAT     H193941  -1.588   7.661   4.086 -1.2521 -1.4975 -1.9362
23034WAT     H293942  -1.517   7.637   3.955  1.1840  0.8872 -1.1632
23034WAT    EPW93943  -1.536   7.689   4.022  0.0415 -0.3457 -0.4799
23035WAT      O93944   2.308   9.474   0.624 -0.1150  0.6115 -0.2857
23035WAT     H193945   2.377   9.537   0.600  1.2898 -0.3404  1.0908
23035WAT     H293946   2.271   9.509   0.705  0.0732  0.1297  0.0097
23035WAT    EPW93947   2.312   9.487   0.631  0.0951  0.4220 -0.0652
23036WAT      O93948   8.975   1.995   0.279  0.3584 -0.1067 -0.4671
23036WAT     H193949   8.944   2.081   0.252 -1.2179 -0.3454  0.4941
23036WAT     H293950   9.057   2.013   0.326  0.3333  0.8086 -0.7593
23036WAT    EPW93951   8.982   2.008   0.282  0.1473 -0.0175 -0.3789
23037WAT      O93952   6.494   4.899   1.535 -0.1624 -0.0116 -0.2425
23037WAT     H193953   6.407   4.939   1.527 -0.2426 -0.0952  0.1750
23037WAT     H293954   6.550   4.970   1.565 -0.7702 -0.6821  2.8073
23037WAT    EPW93955   6.490   4.914   1.538 -0.2530 -0.1113  0.2148
23038WAT      O93956   0.237  10.061   1.821 -0.7232  0.1146 -0.1653
23038WAT     H193957   0.205  10.151   1.826  0.0737  0.3860  0.2953
23038WAT     H293958   0.275  10.054   1.734 -0.7058  0.2579 -0.1699
23038WAT    EPW93959   0.238  10.072   1.810 -0.6158  0.1698 -0.1051
23039WAT      O93960  -0.529   8.500   2.298 -0.1510 -0.4701  0.0150
23039WAT     H193961  -0.442   8.477   2.265  1.1265  0.5285  2.4309
23039WAT     H293962  -0.562   8.564   2.235  0.4372 -1.5106 -1.4182
23039WAT    EPW93963  -0.522   8.505   2.286  0.0950 -0.4759  0.1447
23040WAT      O93964  -3.103   6.459   5.085 -0.0912 -0.3006 -0.3087
23040WAT     H193965  -3.091   6.516   5.010  1.0073 -1.4653 -1.0509
23040WAT     H293966  -3.101   6.518   5.161  1.1741  0.6385 -1.0314
23040WAT    EPW93967  -3.101   6.474   5.085  0.2207 -0.3304 -0.5019
23041WAT      O93968  -1.413   5.284   5.387  0.0557 -0.4166 -0.3193
23041WAT     H193969  -1.373   5.212   5.436 -1.7993 -0.6010  1.0082
23041WAT     H293970  -1.385   5.269   5.297  0.6759 -2.1235  0.1073
23041WAT    EPW93971  -1.404   5.272   5.382 -0.1072 -0.6661 -0.0880
23042WAT      O93972   3.508   1.662   6.197 -0.3865  0.3905  0.0179
23042WAT     H193973   3.492   1.720   6.271 -0.0237  0.1295  0.3043
23042WAT     H293974   3.546   1.583   6.236 -1.2038 -0.1944 -0.3218
23042WAT    EPW93975   3.511   1.659   6.212 -0.4464  0.2789  0.0110
23043WAT      O93976   5.431   6.219   0.581 -0.6284 -0.7797  0.0113
23043WAT     H193977   5.402   6.262   0.661  0.9015 -0.3384  0.3687
23043WAT     H293978   5.474   6.139   0.611  3.5686  1.2435  0.1318
23043WAT    EPW93979   5.433   6.214   0.596  0.1271 -0.4549  0.0744
23044WAT      O93980   1.555   0.993   4.731 -0.2304  0.3735 -0.5432
23044WAT     H193981   1.462   0.973   4.741 -0.4842  2.1607  1.6309
23044WAT     H293982   1.557   1.065   4.668 -0.2045 -0.2997 -1.3243
23044WAT    EPW93983   1.543   1.000   4.724 -0.2605  0.5205 -0.3595
23045WAT      O93984   6.789   4.215   0.013 -0.6236  0.2449 -0.3786
23045WAT     H193985   6.873   4.205  -0.031  0.2024  3.5685  0.2026
23045WAT     H293986   6.812   4.228   0.105 -2.0731 -2.2646  0.4436
23045WAT    EPW93987   6.803   4.215   0.019 -0.7057  0.3524 -0.1935
23046WAT      O93988   7.513   3.395   1.045  0.3399 -0.3735 -0.6454
23046WAT     H193989   7.428   3.436   1.034  0.0277  0.3474  3.1177
23046WAT     H293990   7.575   3.468   1.051  0.4055 -0.5473  1.7306
23046WAT    EPW93991   7.510   3.410   1.044  0.3073 -0.3014  0.1643
23047WAT      O93992   8.023   1.615   1.187 -0.6413 -0.6679  0.8540
23047WAT     H193993   7.999   1.697   1.144  1.6253  0.3084  1.2782
23047WAT     H293994   7.995   1.546   1.126 -0.5737  0.5225 -0.5712
23047WAT    EPW93995   8.016   1.617   1.173 -0.3333 -0.3821  0.7220
23048WAT      O93996   2.696   3.570   8.493  0.0449 -0.3949  0.5584
23048WAT     H193997   2.784   3.577   8.455 -0.5517 -3.2292 -1.6290
23048WAT     H293998   2.710   3.576   8.587  2.3259  1.0301  0.2023
23048WAT    EPW93999   2.709   3.572   8.500  0.2670 -0.5809  0.2227
23049WAT      O94000   0.998   9.359   8.170 -0.2841  0.7273  0.0575
23049WAT     H194001   1.026   9.319   8.088 -0.2621 -2.0397  1.3113
23049WAT     H294002   1.040   9.306   8.238 -0.1539  3.0241  1.8903
23049WAT    EPW94003   1.007   9.347   8.168 -0.2640  0.6657  0.4649
23050WAT      O94004  -1.233   4.774   1.449 -0.3652 -0.2029  1.1017
23050WAT     H194005  -1.269   4.738   1.530 -1.2692 -2.7822 -0.3357
23050WAT     H294006  -1.161   4.715   1.427 -0.3457  0.2567 -0.1590
23050WAT    EPW94007  -1.228   4.761   1.457 -0.4818 -0.4826  0.7458
23051WAT      O94008  -0.012   5.780   6.835  0.6512  0.9379 -1.4325
23051WAT     H194009   0.012   5.724   6.761  0.6684  0.2784 -0.9360
23051WAT     H294010  -0.044   5.720   6.902  2.4157  1.3123 -0.1670
23051WAT    EPW94011  -0.013   5.765   6.834  0.8862  0.9005 -1.2002
23052WAT      O94012   5.816   0.379   7.687 -0.3220 -0.6717  0.0182
23052WAT     H194013   5.857   0.462   7.712  0.3781 -1.0703  0.2446
23052WAT     H294014   5.822   0.325   7.766 -0.7261 -0.9560 -0.1426
23052WAT    EPW94015   5.823   0.383   7.701 -0.2830 -0.7617  0.0267
23053WAT      O94016  -2.882   2.905   5.652  0.0021  0.0436 -0.1692
23053WAT     H194017  -2.814   2.939   5.594 -0.2250  0.4774 -0.1906
23053WAT     H294018  -2.860   2.941   5.738  0.3353 -0.5938  0.0098
23053WAT    EPW94019  -2.870   2.914   5.656  0.0161  0.0168 -0.1485
23054WAT      O94020   0.102   1.369   3.603 -0.5956 -0.2116  0.0091
23054WAT     H194021   0.184   1.339   3.564 -1.0324  0.9845 -1.9634
23054WAT     H294022   0.039   1.368   3.531 -1.7229  1.0987  0.9134
23054WAT    EPW94023   0.104   1.365   3.588 -0.8019  0.1190 -0.1317
23055WAT      O94024  -1.674   4.748   2.492 -0.1592  0.7968 -0.0652
23055WAT     H194025  -1.741   4.727   2.428 -0.7242 -0.1140  0.7947
23055WAT     H294026  -1.721   4.789   2.565  0.1205 -0.3436  0.7808
23055WAT    EPW94027  -1.689   4.751   2.493 -0.1968  0.5262  0.1597
23056WAT      O94028   9.224   2.782   0.641 -0.3298 -0.1996  0.7341
23056WAT     H194029   9.297   2.737   0.685 -2.3315 -2.4074  2.0726
23056WAT     H294030   9.227   2.871   0.676  0.9340 -0.6024  1.7672
23056WAT    EPW94031   9.234   2.787   0.652 -0.4272 -0.5440  1.0469
23057WAT      O94032  -1.852   0.956   2.687 -0.3297 -0.1680 -0.0361
23057WAT     H194033  -1.793   1.032   2.696  0.2528 -0.4727 -1.1404
23057WAT     H294034  -1.939   0.992   2.706 -0.2352  1.0866 -1.7227
23057WAT    EPW94035  -1.856   0.971   2.691 -0.2404 -0.0428 -0.4042
23058WAT      O94036   1.470   8.126   4.797  0.3772  0.3332  0.4294
23058WAT     H194037   1.531   8.073   4.850 -1.0981 -0.0181  1.8624
23058WAT     H294038   1.510   8.129   4.710  2.3626  0.0001  1.2737
23058WAT    EPW94039   1.483   8.120   4.793  0.4445  0.2427  0.7298
23059WAT      O94040  -1.253   8.917   2.365  0.2176  0.7544  0.6358
23059WAT     H194041  -1.294   8.980   2.425 -0.1451  0.6141  0.5365
23059WAT     H294042  -1.159   8.926   2.382  0.0681 -0.5376  2.5171
23059WAT    EPW94043  -1.246   8.927   2.375  0.1500  0.5655  0.8707
23060WAT      O94044  -3.061   9.036   4.989  0.2806  0.1452 -0.1288
23060WAT     H194045  -3.069   9.086   4.908  0.1773 -0.2389 -0.3534
23060WAT     H294046  -3.116   8.959   4.976 -0.8032  0.7284  0.8182
23060WAT    EPW94047  -3.069   9.032   4.977  0.1240  0.1712 -0.0334
23061WAT      O94048  -4.416   7.954   3.015 -1.7754 -0.0580  0.3335
23061WAT     H194049  -4.342   7.930   2.959 -2.5753 -0.8460 -0.4115
23061WAT     H294050  -4.375   7.989   3.094 -0.6020  1.4578 -0.8502
23061WAT    EPW94051  -4.401   7.956   3.018 -1.7262  0.0381  0.0792
23062WAT      O94052   6.522   3.716   3.052 -0.7148 -0.4004  0.3760
23062WAT     H194053   6.535   3.766   2.971 -1.4704  2.4772  1.8972
23062WAT     H294054   6.557   3.630   3.032  1.2766  0.8697 -2.2746
23062WAT    EPW94055   6.528   3.712   3.039 -0.5519  0.1467  0.2271
23063WAT      O94056  -5.403   9.257   5.129  0.2280  0.6405 -0.5259
23063WAT     H194057  -5.434   9.195   5.062  0.4820 -0.9854  0.8045
23063WAT     H294058  -5.480   9.272   5.184  0.1781  1.5218 -0.8188
23063WAT    EPW94059  -5.417   9.251   5.127  0.2549  0.5422 -0.3891
23064WAT      O94060   0.141   0.703   5.512 -0.0093  0.0044 -0.5540
23064WAT     H194061   0.086   0.653   5.451 -1.1574  2.0139 -1.2567
23064WAT     H294062   0.219   0.725   5.461  1.3444 -2.3762  0.2781
23064WAT    EPW94063   0.144   0.699   5.497  0.0178 -0.0445 -0.5367
23065WAT      O94064   6.161   0.316   5.726  0.1130 -0.1006 -0.2312
23065WAT     H194065   6.187   0.403   5.695  0.9531 -0.2727 -0.0373
23065WAT     H294066   6.238   0.284   5.773  0.5763 -1.7842 -2.0103
23065WAT    EPW94067   6.175   0.323   5.728  0.2849 -0.3454 -0.4404
23066WAT      O94068  -1.682   1.296   7.671  0.7290 -0.1217  0.2880
23066WAT     H194069  -1.746   1.324   7.605  0.4199 -1.1316  0.1502
23066WAT     H294070  -1.662   1.206   7.648  0.7044 -0.4505  1.5172
23066WAT    EPW94071  -1.688   1.288   7.659  0.6850 -0.2983  0.4318
23067WAT      O94072  -1.899   1.108   4.882  0.2530  0.0739 -0.3890
23067WAT     H194073  -1.946   1.069   4.956  1.3440  1.0656  0.8898
23067WAT     H294074  -1.815   1.062   4.881  0.2733  0.1209 -0.9668
23067WAT    EPW94075  -1.894   1.097   4.892  0.3996  0.2109 -0.2966
23068WAT      O94076   5.075   1.263   6.599  0.0152  0.2200  0.6265
23068WAT     H194077   5.135   1.338   6.589  0.2570  0.1324  1.3555
23068WAT     H294078   5.019   1.287   6.672  0.3901 -0.4963  1.1634
23068WAT    EPW94079   5.076   1.276   6.607  0.0966  0.1140  0.7935
23069WAT      O94080  -2.436   5.675   1.063 -0.1421 -0.2789  0.4346
23069WAT     H194081  -2.361   5.616   1.055 -0.7976 -0.8510 -2.2896
23069WAT     H294082  -2.414   5.748   1.006 -0.9948  0.3137  0.8554
23069WAT    EPW94083  -2.423   5.677   1.055 -0.3411 -0.2763  0.1308
23070WAT      O94084   5.003   2.881   0.051  0.0917  0.1810 -0.0403
23070WAT     H194085   4.947   2.822   0.000  1.4881 -1.9520  0.7622
23070WAT     H294086   5.069   2.824   0.091  0.2608  2.0030  2.5605
23070WAT    EPW94087   5.004   2.866   0.050  0.2980  0.1400  0.4085
23071WAT      O94088   0.614   8.370   5.357 -0.4349 -0.1999 -0.4631
23071WAT     H194089   0.525   8.341   5.376 -0.7287  0.3641 -0.9563
23071WAT     H294090   0.646   8.307   5.292 -1.0967  0.6086 -1.5856
23071WAT    EPW94091   0.607   8.358   5.351 -0.5609 -0.0191 -0.6762
23072WAT      O94092   4.170   2.913   4.875  0.3478 -0.0940 -0.6645
23072WAT     H194093   4.174   2.940   4.783 -0.4880 -0.4051 -0.7942
23072WAT     H294094   4.261   2.889   4.896  0.6487  0.4944 -1.2422
23072WAT    EPW94095   4.183   2.914   4.866  0.2773 -0.0575 -0.7577
23073WAT      O94096  -6.081   9.966   4.863 -0.7626 -0.1247 -1.3690
23073WAT     H194097  -6.101   9.872   4.867  0.3421 -0.3736 -1.2650
23073WAT     H294098  -6.126   9.997   4.784  0.0040 -1.0532 -2.2070
23073WAT    EPW94099  -6.090   9.958   4.853 -0.5157 -0.2799 -1.4658
23074WAT      O94100  -4.761   9.658   4.704 -0.3569  0.2395 -0.4350
23074WAT     H194101  -4.730   9.672   4.794  1.1193  0.7123 -1.0019
23074WAT     H294102  -4.753   9.563   4.691  0.0943  0.2611 -0.3120
23074WAT    EPW94103  -4.756   9.647   4.714 -0.1028  0.3047 -0.4935
23075WAT      O94104   7.723   3.868   1.970 -0.0455  0.4872  0.5584
23075WAT     H194105   7.735   3.831   1.883  0.9086 -0.3777  1.0362
23075WAT     H294106   7.627   3.873   1.980 -0.3407 -2.8299  0.7905
23075WAT    EPW94107   7.712   3.863   1.960  0.0415 -0.0644  0.6520
23076WAT      O94108  -0.439   4.086   6.985  0.4060 -0.1048  0.2132
23076WAT     H194109  -0.404   4.097   6.897 -0.0215 -1.1423 -0.0924
23076WAT     H294110  -0.532   4.065   6.972  0.7100 -2.0020  0.8141
23076WAT    EPW94111  -0.447   4.085   6.972  0.3897 -0.4919  0.2522
23077WAT      O94112  -6.727  10.203   7.824 -0.0035  0.1245  0.0217
23077WAT     H194113  -6.715  10.130   7.884  0.0610 -0.5070 -0.7494
23077WAT     H294114  -6.638  10.235   7.807 -0.0015  0.1329  0.0471
23077WAT    EPW94115  -6.713  10.198   7.829  0.0055  0.0424 -0.0765
23078WAT      O94116   1.402   6.709   8.577  0.6623  0.8859  0.5743
23078WAT     H194117   1.337   6.749   8.635  0.7282  2.3213 -0.2949
23078WAT     H294118   1.486   6.742   8.609  1.3807 -2.9053  3.2955
23078WAT    EPW94119   1.404   6.719   8.589  0.7657  0.5753  0.8187
23079WAT      O94120  -1.370   8.790   1.453 -0.1213  0.3712  0.5746
23079WAT     H194121  -1.354   8.706   1.410 -2.9891  0.0579 -0.0574
23079WAT     H294122  -1.324   8.783   1.537  0.8710 -1.2398 -0.0567
23079WAT    EPW94123  -1.362   8.778   1.459 -0.3687  0.1173  0.4080
23080WAT      O94124  -2.235   7.987   2.861 -0.7701 -0.1053 -0.1079
23080WAT     H194125  -2.167   7.937   2.907 -1.7765  0.5606  2.3108
23080WAT     H294126  -2.192   8.071   2.841 -0.8642  0.3967  1.6012
23080WAT    EPW94127  -2.220   7.992   2.865 -0.9153  0.0489  0.4365
23081WAT      O94128   4.287   9.520   0.887  0.2496  0.7866  1.1782
23081WAT     H194129   4.319   9.555   0.803 -0.6622 -1.8903 -0.4069
23081WAT     H294130   4.193   9.538   0.885 -0.0561 -0.7221  0.8010
23081WAT    EPW94131   4.279   9.527   0.876  0.0892  0.2346  0.9194
23082WAT      O94132   0.872   7.733   2.314  0.6165 -0.0406 -0.0928
23082WAT     H194133   0.868   7.690   2.228  1.6557 -1.6361  0.5990
23082WAT     H294134   0.962   7.717   2.344  0.5410  1.2611  0.9193
23082WAT    EPW94135   0.884   7.725   2.307  0.7436 -0.0794  0.1320
23083WAT      O94136   0.311   0.731   3.717  0.5657  0.1237 -0.6090
23083WAT     H194137   0.217   0.722   3.731  0.4146 -1.8533 -2.3273
23083WAT     H294138   0.345   0.764   3.800 -1.8551  2.9779 -0.5754
23083WAT    EPW94139   0.303   0.734   3.730  0.2265  0.2394 -0.8312
23084WAT      O94140   1.754  -0.003   7.677  0.4180  0.2123  0.7168
23084WAT     H194141   1.675   0.048   7.661  0.3719 -0.7546 -3.1071
23084WAT     H294142   1.825   0.061   7.672  0.2175  0.3252 -2.0385
23084WAT    EPW94143   1.753   0.012   7.675  0.3855  0.0997 -0.1509
23085WAT      O94144  -2.902   3.398   3.615 -0.2481  0.4446  0.6415
23085WAT     H194145  -2.893   3.363   3.527  2.2801  1.5437  0.3616
23085WAT     H294146  -2.938   3.486   3.602 -2.1228 -0.2365  0.9533
23085WAT    EPW94147  -2.906   3.405   3.602 -0.1620  0.4997  0.6456
23086WAT      O94148   1.976   5.516   0.551 -0.1076 -0.3457  0.8911
23086WAT     H194149   2.054   5.564   0.576 -0.2103  0.2156  0.1587
23086WAT     H294150   1.974   5.521   0.455 -2.4608  1.9805  0.9509
23086WAT    EPW94151   1.986   5.523   0.542 -0.4315  0.0353  0.8024
23087WAT      O94152   1.174   5.848   1.698  0.2024 -0.2399  0.4834
23087WAT     H194153   1.166   5.757   1.670  1.1490 -0.4800  0.9604
23087WAT     H294154   1.169   5.845   1.794 -0.9230  0.3470  0.4643
23087WAT    EPW94155   1.172   5.836   1.707  0.1788 -0.1941  0.5438
23088WAT      O94156   1.979   7.100   4.712  0.0927  0.4450  0.5768
23088WAT     H194157   2.018   7.035   4.654  0.2002 -1.1719  2.3625
23088WAT     H294158   1.920   7.151   4.656  0.7332 -0.5658 -1.0642
23088WAT    EPW94159   1.976   7.098   4.697  0.1914  0.0985  0.5958
23089WAT      O94160  -3.052   5.719   4.082  0.0879 -0.9963  0.2067
23089WAT     H194161  -2.965   5.728   4.121  0.7602  0.1955 -1.4927
23089WAT     H294162  -3.044   5.756   3.995 -2.3574  0.0248  0.3227
23089WAT    EPW94163  -3.039   5.725   4.076 -0.1459 -0.7045 -0.0024
23090WAT      O94164   0.731   9.538   3.922 -0.4460  0.0220 -0.3787
23090WAT     H194165   0.739   9.599   3.849  0.1706  2.9473  1.9201
23090WAT     H294166   0.639   9.543   3.948 -0.0082  1.7446  1.0794
23090WAT    EPW94167   0.720   9.547   3.916 -0.3069  0.6356  0.1168
23091WAT      O94168  -2.146   8.488   1.463  0.1567 -0.2144  0.1081
23091WAT     H194169  -2.219   8.545   1.487 -1.9989 -2.2264 -1.2395
23091WAT     H294170  -2.131   8.434   1.540 -0.0870 -0.0858  0.2459
23091WAT    EPW94171  -2.154   8.488   1.476 -0.1596 -0.4630 -0.0515
23092WAT      O94172  -0.907   3.383   5.311  0.1496  0.0814  0.3400
23092WAT     H194173  -0.964   3.397   5.236  0.2949  2.4794  0.5978
23092WAT     H294174  -0.947   3.309   5.357  0.3697 -1.8235 -2.3003
23092WAT    EPW94175  -0.920   3.375   5.307  0.1978  0.1465  0.0260
23093WAT      O94176  -6.225   9.911   6.375 -0.1981  0.7088 -0.3138
23093WAT     H194177  -6.244   9.875   6.462  1.5749 -1.7153 -0.8519
23093WAT     H294178  -6.156   9.856   6.340 -0.9461  1.5169 -3.3702
23093WAT    EPW94179  -6.219   9.899   6.382 -0.0627  0.4954 -0.7880
23094WAT      O94180   5.235   3.121   4.969  0.7773  0.2164 -0.2320
23094WAT     H194181   5.151   3.092   5.005  1.3782 -0.8005  0.4165
23094WAT     H294182   5.269   3.182   5.035  1.0953 -0.3264  0.1189
23094WAT    EPW94183   5.229   3.126   4.983  0.8986  0.0107 -0.1004
23095WAT      O94184  -3.959   7.139   4.211 -0.5837 -0.6620 -0.3290
23095WAT     H194185  -3.892   7.123   4.278 -1.2547  1.2161  0.8510
23095WAT     H294186  -3.910   7.145   4.129  0.5368 -0.6147  0.3306
23095WAT    EPW94187  -3.944   7.137   4.209 -0.5244 -0.4079 -0.0861
23096WAT      O94188  -1.975   8.052   5.033 -0.3687  0.5100  0.3377
23096WAT     H194189  -2.053   8.058   5.087  0.6167  0.9325  1.7727
23096WAT     H294190  -1.926   8.132   5.053 -0.2155  0.9510 -1.6050
23096WAT    EPW94191  -1.979   8.064   5.043 -0.2185  0.6237  0.2706
23097WAT      O94192   1.761   1.493   2.614  0.2626  0.1876 -0.0339
23097WAT     H194193   1.729   1.544   2.540 -0.5778  0.2429  0.3562
23097WAT     H294194   1.847   1.531   2.635  0.0714  0.8004 -0.3563
23097WAT    EPW94195   1.768   1.504   2.607  0.1265  0.2757 -0.0250
23098WAT      O94196   0.020   4.010   6.744  0.2256 -0.1219 -0.1667
23098WAT     H194197  -0.004   3.924   6.710  0.6324 -0.0847 -0.5461
23098WAT     H294198   0.040   4.063   6.667  0.5908  0.1296  0.0959
23098WAT    EPW94199   0.020   4.006   6.730  0.3274 -0.0839 -0.1824
23099WAT      O94200   3.247   6.124   4.083 -0.5661 -0.1808 -0.5894
23099WAT     H194201   3.313   6.186   4.052 -0.1337 -0.3041  0.0707
23099WAT     H294202   3.201   6.096   4.003 -0.8442  1.0667 -0.8896
23099WAT    EPW94203   3.250   6.129   4.068 -0.5457 -0.0327 -0.5419
23100WAT      O94204  -1.282   9.294   0.971  0.7105  0.2451  0.1864
23100WAT     H194205  -1.248   9.379   1.000  0.7818 -0.9344  4.2130
23100WAT     H294206  -1.377   9.301   0.982  0.6368  0.0503 -0.3027
23100WAT    EPW94207  -1.290   9.307   0.976  0.7101  0.0639  0.6529
23101WAT      O94208   3.255   5.193   0.392 -0.3624  0.2358 -0.2561
23101WAT     H194209   3.289   5.199   0.481 -1.6976 -1.7983  0.4684
23101WAT     H294210   3.161   5.212   0.401 -0.6779 -0.8543 -1.0556
23101WAT    EPW94211   3.247   5.196   0.405 -0.5801 -0.1762 -0.2660
23102WAT      O94212   0.775   0.544   2.053  0.5994  0.2577 -0.2256
23102WAT     H194213   0.870   0.556   2.062  0.5398 -0.1304  1.1298
23102WAT     H294214   0.739   0.588   2.130 -0.5197  2.3741 -1.8417
23102WAT    EPW94215   0.783   0.552   2.064  0.4439  0.4857 -0.2600
23103WAT      O94216   4.821   6.869   3.298 -0.2450  0.3096 -0.6937
23103WAT     H194217   4.729   6.894   3.303  0.0306  1.5126 -1.2222
23103WAT     H294218   4.859   6.904   3.378 -0.8495 -3.1693  1.3045
23103WAT    EPW94219   4.814   6.877   3.309 -0.2885  0.0095 -0.4998
23104WAT      O94220   1.969   9.314   3.857 -1.0274  0.5346 -0.2113
23104WAT     H194221   2.041   9.255   3.880 -0.3113  0.2054 -2.8758
23104WAT     H294222   1.890   9.264   3.876 -0.4638 -0.5657 -0.6661
23104WAT    EPW94223   1.968   9.300   3.862 -0.8586  0.3462 -0.6227
23105WAT      O94224   4.308   7.734   2.823 -0.7181 -0.0988  0.4727
23105WAT     H194225   4.226   7.688   2.843 -0.1812 -0.0760  3.2128
23105WAT     H294226   4.367   7.665   2.792 -1.3093 -0.4051  0.0188
23105WAT    EPW94227   4.305   7.719   2.822 -0.7253 -0.1361  0.7744
23106WAT      O94228  -1.444   7.817   6.867  0.4782 -0.1957 -0.6651
23106WAT     H194229  -1.489   7.898   6.843 -2.2448 -1.2839  0.4640
23106WAT     H294230  -1.390   7.841   6.942  2.1116  1.1843 -2.1837
23106WAT    EPW94231  -1.442   7.831   6.873  0.3344 -0.1571 -0.7164
23107WAT      O94232  -0.632   1.904   3.492  0.6843 -0.7242 -0.1131
23107WAT     H194233  -0.539   1.887   3.511  1.1661 -0.8392 -2.2612
23107WAT     H294234  -0.632   1.929   3.399 -1.3807 -0.1591  0.0141
23107WAT    EPW94235  -0.619   1.905   3.482  0.4755 -0.6648 -0.3797
23108WAT      O94236   1.743   0.605   6.319  0.3826 -0.1423 -0.3615
23108WAT     H194237   1.782   0.544   6.257  1.5621 -0.3183  0.5215
23108WAT     H294238   1.765   0.570   6.405  1.9089  1.9740  0.1846
23108WAT    EPW94239   1.751   0.592   6.322  0.7395  0.1136 -0.1731
23109WAT      O94240   3.839   0.978   4.562 -0.2046 -0.1092  0.5647
23109WAT     H194241   3.866   0.977   4.470  1.4277 -0.3824  1.0127
23109WAT     H294242   3.769   1.043   4.566  0.1507  0.3855 -0.7463
23109WAT    EPW94243   3.834   0.986   4.551  0.0575 -0.0799  0.4511
23110WAT      O94244   4.688   5.356   6.928  0.6957 -0.5500  0.2027
23110WAT     H194245   4.640   5.295   6.984 -1.0909 -0.6010 -1.2844
23110WAT     H294246   4.653   5.442   6.951  1.1489 -0.3942  0.3097
23110WAT    EPW94247   4.677   5.359   6.939  0.5198 -0.5362  0.0205
23111WAT      O94248   0.355   4.224   6.561 -0.0070  0.2508 -0.0002
23111WAT     H194249   0.268   4.183   6.555  1.2402 -2.4504 -1.8133
23111WAT     H294250   0.402   4.170   6.624  0.7716  0.9144 -0.0038
23111WAT    EPW94251   0.349   4.211   6.568  0.2602 -0.0179 -0.2398
23112WAT      O94252   2.229   1.113   6.840 -0.2985  0.6404  0.2285
23112WAT     H194253   2.288   1.182   6.873 -0.6193  0.5295  1.0570
23112WAT     H294254   2.257   1.100   6.750  1.9690 -0.4811  1.0179
23112WAT    EPW94255   2.240   1.121   6.833 -0.0417  0.4778  0.4420
23113WAT      O94256   6.108   4.133   2.612 -0.1752  0.2019  0.4787
23113WAT     H194257   6.183   4.081   2.584 -1.3630 -2.7129  2.2347
23113WAT     H294258   6.147   4.212   2.650  1.7465  0.4664 -1.7591
23113WAT    EPW94259   6.123   4.137   2.613 -0.0784 -0.1476  0.4152
23114WAT      O94260   2.272   2.643   4.333  0.9516  0.4578  0.0156
23114WAT     H194261   2.253   2.582   4.405  1.0970  0.0894 -0.2525
23114WAT     H294262   2.239   2.727   4.363  0.2076  0.1236  0.1419
23114WAT    EPW94263   2.265   2.646   4.347  0.8727  0.3650 -0.0031
23115WAT      O94264  -1.973   5.853   7.606 -0.3994 -0.0675  0.4616
23115WAT     H194265  -1.991   5.947   7.598  1.2358  0.2548  0.1911
23115WAT     H294266  -1.886   5.842   7.568 -0.5680 -1.7072  0.4850
23115WAT    EPW94267  -1.964   5.864   7.600 -0.2060 -0.2413  0.4289
23116WAT      O94268   4.166   9.415   2.715  0.4763 -0.2836  0.0964
23116WAT     H194269   4.078   9.453   2.705  0.4407  0.1974  1.8567
23116WAT     H294270   4.188   9.382   2.628 -0.6639  1.2743 -0.8382
23116WAT    EPW94271   4.157   9.416   2.702  0.3211 -0.0148  0.2054
23117WAT      O94272   4.108   2.192   6.240 -0.2511 -0.0537  0.0029
23117WAT     H194273   4.057   2.123   6.283 -0.6445  0.3327  0.1604
23117WAT     H294274   4.052   2.223   6.169  0.8351 -1.4817 -1.5898
23117WAT    EPW94275   4.094   2.187   6.236 -0.1597 -0.1911 -0.1862
23118WAT      O94276  -0.234   9.049   1.801 -0.1950  0.1353  0.3346
23118WAT     H194277  -0.287   8.970   1.791  0.2157 -0.3138  1.5304
23118WAT     H294278  -0.161   9.022   1.856 -0.9922  1.7632  2.3243
23118WAT    EPW94279  -0.231   9.035   1.807 -0.2460  0.2909  0.7547
23119WAT      O94280   1.265   7.233   1.608 -0.0097 -0.2683  0.0582
23119WAT     H194281   1.291   7.265   1.694  0.8796  0.3571 -0.4267
23119WAT     H294282   1.310   7.149   1.599  0.7761  0.1693 -0.2198
23119WAT    EPW94283   1.274   7.226   1.618  0.2112 -0.1280 -0.0424
23120WAT      O94284  -5.401   5.309   7.540 -0.9798 -0.0211  0.3816
23120WAT     H194285  -5.375   5.348   7.456 -1.9779  1.7224  0.8258
23120WAT     H294286  -5.473   5.249   7.518 -0.6489 -0.2451 -0.1011
23120WAT    EPW94287  -5.407   5.306   7.526 -1.0679  0.1795  0.3767
23121WAT      O94288   0.872   0.586   8.333 -0.1700 -0.3390  0.2733
23121WAT     H194289   0.936   0.547   8.273 -0.3945 -0.3107  0.0169
23121WAT     H294290   0.924   0.647   8.386 -0.2926  1.1401 -1.2173
23121WAT    EPW94291   0.888   0.589   8.332 -0.2158 -0.1402  0.0429
23122WAT      O94292   1.456   3.748   1.251 -0.2717 -0.1973  0.2104
23122WAT     H194293   1.429   3.835   1.280 -0.3277  0.4798 -1.7681
23122WAT     H294294   1.427   3.689   1.321  1.2593  1.5161  2.4281
23122WAT    EPW94295   1.449   3.751   1.264 -0.0771  0.1180  0.2420
23123WAT      O94296   2.356   8.398   6.077  0.1038 -0.5969  0.5287
23123WAT     H194297   2.390   8.488   6.074  0.9589 -0.9104  0.3357
23123WAT     H294298   2.271   8.403   6.035 -1.3197  0.7225  3.3044
23123WAT    EPW94299   2.349   8.410   6.071  0.0290 -0.4640  0.8695
23124WAT      O94300   2.480   3.965   2.370  0.3198  0.3558  0.2201
23124WAT     H194301   2.397   3.969   2.322  0.9848 -1.3344 -1.1759
23124WAT     H294302   2.456   3.984   2.461 -1.1726  2.4487 -0.5333
23124WAT    EPW94303   2.466   3.968   2.376  0.2105  0.4089 -0.0634
23125WAT      O94304   8.515   0.554   2.453 -0.4347  0.5285  0.4931
23125WAT     H194305   8.430   0.518   2.426  0.0798 -0.0792 -0.3689
23125WAT     H294306   8.504   0.648   2.445 -0.7824  0.4238 -0.4130
23125WAT    EPW94307   8.502   0.561   2.448 -0.4129  0.4346  0.2599
23126WAT      O94308   6.055   6.070   3.802  0.4358 -0.2668 -0.3444
23126WAT     H194309   6.135   6.116   3.776  2.0194 -1.8915  1.3070
23126WAT     H294310   6.037   6.101   3.891 -1.4600  0.8624 -1.0613
23126WAT    EPW94311   6.063   6.080   3.810  0.3946 -0.3319 -0.2213
23127WAT      O94312  -5.181   7.914   8.626  0.2911  0.1744 -0.4058
23127WAT     H194313  -5.266   7.957   8.636  0.8422  1.1008  0.3865
23127WAT     H294314  -5.118   7.974   8.665  1.1664 -1.0988  0.2293
23127WAT    EPW94315  -5.184   7.927   8.632  0.4795  0.1285 -0.2174
23128WAT      O94316  -2.398   5.935   8.483 -0.7290  0.2592  0.3159
23128WAT     H194317  -2.470   5.923   8.420 -0.6188  0.2713  0.1859
23128WAT     H294318  -2.383   5.849   8.520 -1.0013  0.3126  0.5519
23128WAT    EPW94319  -2.406   5.922   8.479 -0.7504  0.2677  0.3300
23129WAT      O94320  -3.329   6.078   3.219 -0.1360 -0.8659  0.1070
23129WAT     H194321  -3.385   6.110   3.148  1.4195  2.7562  0.3234
23129WAT     H294322  -3.249   6.048   3.175 -0.0386 -0.7289  0.1910
23129WAT    EPW94323  -3.326   6.078   3.204  0.0820 -0.3703  0.1465
23130WAT      O94324   6.913   1.395   3.554 -0.8035  0.0243 -0.0459
23130WAT     H194325   6.852   1.399   3.480 -2.1767  1.0151  1.0884
23130WAT     H294326   6.924   1.486   3.581 -0.1829 -0.3063  0.8567
23130WAT    EPW94327   6.906   1.408   3.548 -0.9027  0.1114  0.2228
23131WAT      O94328   2.205   1.521   3.070 -0.4167  0.5259 -0.0355
23131WAT     H194329   2.159   1.471   3.137  3.1477  1.6228  3.6543
23131WAT     H294330   2.137   1.576   3.030 -2.7224  0.5121  3.4448
23131WAT    EPW94331   2.190   1.522   3.073 -0.2506  0.6687  0.9102
23132WAT      O94332   1.860   3.321   3.846 -0.3152  0.2969 -0.4069
23132WAT     H194333   1.895   3.233   3.832 -1.1366  0.1460 -1.7188
23132WAT     H294334   1.818   3.344   3.762 -0.7365  1.6484  0.1391
23132WAT    EPW94335   1.859   3.313   3.833 -0.4791  0.4553 -0.5078
23133WAT      O94336  -2.473   2.982   6.712  0.7848  0.6096 -0.5375
23133WAT     H194337  -2.419   2.931   6.772  1.0623 -0.4541 -1.6397
23133WAT     H294338  -2.486   2.924   6.637 -2.2792  0.6268 -0.1533
23133WAT    EPW94339  -2.467   2.967   6.710  0.4172  0.4716 -0.6323
23134WAT      O94340   4.227   2.194   1.826 -0.6729 -0.4355 -0.4059
23134WAT     H194341   4.155   2.241   1.868  0.5827  0.2801  1.0740
23134WAT     H294342   4.199   2.183   1.735 -1.9816  1.2289 -0.2585
23134WAT    EPW94343   4.214   2.199   1.820 -0.6800 -0.1215 -0.1913
23135WAT      O94344   2.100   0.213   8.715 -0.6902 -0.7981 -0.0035
23135WAT     H194345   2.011   0.178   8.717 -2.5072  3.1964  2.1880
23135WAT     H294346   2.111   0.253   8.802  2.2337  1.0883 -1.0985
23135WAT    EPW94347   2.090   0.213   8.727 -0.5442 -0.0224  0.1407
23136WAT      O94348  -0.667   1.355   0.509  0.8819 -0.4901 -0.0942
23136WAT     H194349  -0.640   1.338   0.419 -0.6181 -2.3093 -0.2760
23136WAT     H294350  -0.754   1.314   0.516  1.2110 -0.9447  2.3512
23136WAT    EPW94351  -0.675   1.347   0.498  0.7275 -0.7900  0.2044
23137WAT      O94352   0.373   1.489   0.925  0.3161  0.4897  0.4043
23137WAT     H194353   0.348   1.445   1.005  3.2277 -1.2077  0.5399
23137WAT     H294354   0.431   1.560   0.953 -0.3681  1.2898 -0.1224
23137WAT    EPW94355   0.378   1.493   0.939  0.6099  0.3713  0.3527
23138WAT      O94356   1.755   2.257   4.514  0.7902  0.3343  0.1963
23138WAT     H194357   1.850   2.244   4.504  1.0411  1.7055  0.5420
23138WAT     H294358   1.728   2.189   4.576  1.7594  0.5725  0.9096
23138WAT    EPW94359   1.764   2.247   4.521  0.9511  0.5466  0.3359
23139WAT      O94360   3.509   9.479   3.620 -0.0511  0.1841 -0.0595
23139WAT     H194361   3.548   9.441   3.541  0.7883 -0.1111  0.4755
23139WAT     H294362   3.546   9.427   3.692 -0.7271  0.5039  0.5341
23139WAT    EPW94363   3.519   9.467   3.619 -0.0296  0.1874  0.0893
23140WAT      O94364   5.443   8.578   1.161 -0.0197 -0.5199 -0.0405
23140WAT     H194365   5.498   8.581   1.239 -1.9034 -0.8121  1.3714
23140WAT     H294366   5.466   8.657   1.112  1.9754 -0.8973  0.2146
23140WAT    EPW94367   5.453   8.589   1.164 -0.0050 -0.6080  0.1793
23141WAT      O94368  -4.019   4.490   6.518 -0.6485 -0.9551 -0.3146
23141WAT     H194369  -4.102   4.533   6.498 -1.2596 -1.3936  1.1177
23141WAT     H294370  -3.963   4.559   6.552 -0.1720 -0.5262 -1.9275
23141WAT    EPW94371  -4.023   4.505   6.520 -0.6664 -0.9565 -0.3383
23142WAT      O94372   4.653   6.163   0.242  0.3333 -0.0571  0.4853
23142WAT     H194373   4.682   6.074   0.262  0.0693 -0.4252 -0.7219
23142WAT     H294374   4.584   6.180   0.306  1.0037 -0.3538  1.3221
23142WAT    EPW94375   4.648   6.153   0.253  0.3870 -0.1447  0.4365
23143WAT      O94376  -4.703   8.361   7.195 -0.4259  0.1157 -0.1596
23143WAT     H194377  -4.669   8.328   7.278 -2.3711 -0.9050  0.2933
23143WAT     H294378  -4.793   8.327   7.191 -0.9116  1.4699 -1.9368
23143WAT    EPW94379  -4.711   8.353   7.206 -0.7465  0.1597 -0.3343
23144WAT      O94380  -0.142   0.758   4.023 -0.0306  0.3193 -1.2413
23144WAT     H194381  -0.138   0.846   3.985 -0.2038  0.0846 -1.8120
23144WAT     H294382  -0.224   0.721   3.990 -1.1872  0.8015  0.8912
23144WAT    EPW94383  -0.152   0.765   4.013 -0.2060  0.3520 -1.0355
23145WAT      O94384  -3.763   9.677   1.657 -0.4924  0.6213 -0.3900
23145WAT     H194385  -3.709   9.672   1.736 -0.5922 -1.0601 -0.3965
23145WAT     H294386  -3.710   9.726   1.594 -0.1468  1.4105  0.5072
23145WAT    EPW94387  -3.749   9.683   1.659 -0.4600  0.5040 -0.2725
23146WAT      O94388  -1.077   1.195   7.396 -0.4080  0.1892  0.3099
23146WAT     H194389  -1.006   1.193   7.331 -0.9373  0.0646 -0.2714
23146WAT     H294390  -1.035   1.168   7.478  0.4825  1.3079  0.2407
23146WAT    EPW94391  -1.062   1.191   7.398 -0.3604  0.3203  0.2241
23147WAT      O94392   1.341   6.993   8.004 -0.1916 -0.2091 -0.0803
23147WAT     H194393   1.277   7.000   7.933  1.3180 -0.0202 -1.4696
23147WAT     H294394   1.291   6.953   8.076 -2.6505  2.5503 -0.0425
23147WAT    EPW94395   1.326   6.989   8.004 -0.3168  0.1798 -0.2584
23148WAT      O94396  -2.436   6.178   8.803 -0.1615 -0.3888 -0.2620
23148WAT     H194397  -2.473   6.105   8.854 -0.9058 -0.4976 -0.9476
23148WAT     H294398  -2.341   6.170   8.817 -0.4002  0.9506  2.9844
23148WAT    EPW94399  -2.428   6.167   8.812 -0.2911 -0.2267  0.0753
23149WAT      O94400  -0.477   5.105   7.170 -0.3962  0.1348 -0.4803
23149WAT     H194401  -0.384   5.111   7.149  0.1100 -0.0304  1.4732
23149WAT     H294402  -0.494   5.011   7.173 -0.2026  0.1139  0.6672
23149WAT    EPW94403  -0.467   5.093   7.168 -0.3039  0.1104 -0.0710
23150WAT      O94404  -0.839   2.647   0.133 -0.1048  0.7642  0.1635
23150WAT     H194405  -0.878   2.712   0.191 -2.1143 -0.2139  0.0252
23150WAT     H294406  -0.910   2.584   0.118  1.4016 -0.8161 -0.6397
23150WAT    EPW94407  -0.854   2.647   0.139 -0.1711  0.4268  0.0393
23151WAT      O94408   6.756   5.988   2.596  0.3495 -0.0023  0.2258
23151WAT     H194409   6.825   5.993   2.530  0.7346  1.5591  0.6916
23151WAT     H294410   6.764   5.899   2.632  0.7341 -0.5521 -1.1661
23151WAT    EPW94411   6.766   5.977   2.592  0.4511  0.1311  0.1036
23152WAT      O94412  -6.685   7.893   6.998  0.0904  0.1767  0.7010
23152WAT     H194413  -6.620   7.916   6.931 -0.0867 -1.5546 -0.1260
23152WAT     H294414  -6.766   7.880   6.949 -0.5071  0.7255  1.5185
23152WAT    EPW94415  -6.687   7.895   6.982 -0.0119  0.0207  0.6998
23153WAT      O94416   1.682   2.075   8.225 -0.0006  0.3653  0.5329
23153WAT     H194417   1.723   2.060   8.310 -0.0935  0.8109  0.6588
23153WAT     H294418   1.639   1.992   8.204 -0.0817  0.2926  0.9782
23153WAT    EPW94419   1.682   2.062   8.234 -0.0235  0.4145  0.6080
23154WAT      O94420  -1.628   5.373   2.280 -0.0227 -0.3687 -0.3762
23154WAT     H194421  -1.672   5.450   2.315  2.4894  0.2688  1.6846
23154WAT     H294422  -1.683   5.299   2.309 -1.4504  0.5070 -0.7605
23154WAT    EPW94423  -1.641   5.373   2.288  0.1203 -0.1690 -0.1551
23155WAT      O94424   4.303   3.054   1.995  0.0931  0.5370  0.4238
23155WAT     H194425   4.396   3.048   2.018  0.1565 -1.6523 -0.1244
23155WAT     H294426   4.273   2.963   1.994 -1.1855  0.8468 -2.7932
23155WAT    EPW94427   4.311   3.041   1.998 -0.0672  0.2890 -0.0728
23156WAT      O94428   3.455   4.408   7.877 -0.0517  0.5008  0.0248
23156WAT     H194429   3.466   4.367   7.791  0.0537  1.9378 -0.6826
23156WAT     H294430   3.479   4.500   7.863 -2.3015  1.3333  1.0138
23156WAT    EPW94431   3.459   4.415   7.864 -0.3345  0.8001  0.0620
23157WAT      O94432  -2.168   6.437   6.803 -0.0456 -0.4899 -0.3596
23157WAT     H194433  -2.153   6.529   6.825 -0.4304 -0.5848  0.3383
23157WAT     H294434  -2.242   6.411   6.858  1.2841 -1.7558  0.9205
23157WAT    EPW94435  -2.176   6.446   6.813  0.0790 -0.6695 -0.0987
23158WAT      O94436   1.683   3.038   4.228 -0.5060 -0.0264 -0.1931
23158WAT     H194437   1.703   3.077   4.314  2.0655 -0.5578 -0.4595
23158WAT     H294438   1.590   3.016   4.233 -0.5265  0.2814  2.3187
23158WAT    EPW94439   1.673   3.040   4.240 -0.1695 -0.0559  0.1035
23159WAT      O94440  -2.651   9.877   6.254  0.0289  0.1672  0.0431
23159WAT     H194441  -2.579   9.916   6.304  0.5261 -1.5232  0.7086
23159WAT     H294442  -2.705   9.952   6.228 -0.9150  1.1386  4.1186
23159WAT    EPW94443  -2.649   9.892   6.257 -0.0299  0.0725  0.6683
23160WAT      O94444   5.439   0.944   3.192 -0.1048  0.3416  0.1883
23160WAT     H194445   5.370   0.891   3.231 -0.2258  1.8417  2.1768
23160WAT     H294446   5.403   1.033   3.191  1.6536  1.1105  0.9897
23160WAT    EPW94447   5.425   0.949   3.197  0.1111  0.6408  0.5562
23161WAT      O94448   0.629   8.899   5.337 -0.3164  0.4224  0.3683
23161WAT     H194449   0.565   8.872   5.271  0.2898  0.8700 -0.4265
23161WAT     H294450   0.710   8.852   5.313  0.1572  1.2854  0.2413
23161WAT    EPW94451   0.632   8.889   5.325 -0.1740  0.5951  0.2465
23162WAT      O94452   7.912   1.817   1.003 -0.0372  0.1872 -0.1766
23162WAT     H194453   7.981   1.840   0.940  1.1447 -1.7942  0.2818
23162WAT     H294454   7.831   1.843   0.961  0.8790  1.0055 -1.5089
23162WAT    EPW94455   7.911   1.823   0.989  0.2396  0.0338 -0.2919
23163WAT      O94456   1.625   2.993   0.549  0.4974 -0.1695 -0.2366
23163WAT     H194457   1.550   2.948   0.510 -0.5989  1.7640 -0.4774
23163WAT     H294458   1.589   3.033   0.628  1.5216  0.0430  0.1270
23163WAT    EPW94459   1.610   2.992   0.554  0.4879  0.1135 -0.2204
23164WAT      O94460   3.202   0.502   6.631 -0.5426  0.3593  0.6250
23164WAT     H194461   3.174   0.526   6.542 -0.7976 -1.8151  0.0491
23164WAT     H294462   3.269   0.566   6.653  1.6347 -0.6817 -2.3302
23164WAT    EPW94463   3.207   0.513   6.622 -0.2890 -0.0648  0.1593
23165WAT      O94464   2.313   4.372   8.506 -0.2905  0.0275 -0.7169
23165WAT     H194465   2.244   4.312   8.475 -2.4955  2.4054 -0.7711
23165WAT     H294466   2.393   4.320   8.502 -2.0094 -2.8643 -0.8512
23165WAT    EPW94467   2.314   4.357   8.501 -0.8080 -0.0403 -0.7420
23166WAT      O94468   3.163   0.176   8.534  0.5041  0.4474 -0.0406
23166WAT     H194469   3.244   0.224   8.514  2.2179  0.1419  4.8227
23166WAT     H294470   3.108   0.239   8.580  0.4005 -0.7096  1.5134
23166WAT    EPW94471   3.167   0.190   8.537  0.7164  0.2545  0.8059
23167WAT      O94472   6.635   5.818   0.796  0.4101  0.0139  0.6696
23167WAT     H194473   6.632   5.844   0.704 -0.7856 -3.3754 -0.3911
23167WAT     H294474   6.701   5.749   0.799 -0.3596 -0.7010  2.1078
23167WAT    EPW94475   6.644   5.812   0.785  0.1509 -0.5274  0.7194
23168WAT      O94476   0.022   7.489   3.080 -0.0791  0.2598 -0.3273
23168WAT     H194477  -0.029   7.416   3.113  0.8975  0.1018  0.8966
23168WAT     H294478   0.110   7.475   3.116 -0.0101  2.3541  0.4598
23168WAT    EPW94479   0.027   7.478   3.089  0.0588  0.5152 -0.0620
23169WAT      O94480   2.713   3.140   6.520  0.5934 -0.2417  0.0915
23169WAT     H194481   2.753   3.077   6.579  0.3860  0.9236  1.5405
23169WAT     H294482   2.777   3.211   6.514 -0.0753  0.3892  0.2406
23169WAT    EPW94483   2.727   3.141   6.527  0.4779 -0.0049  0.3021
23170WAT      O94484  -0.815   9.906   1.106 -0.2922  0.1760 -0.4418
23170WAT     H194485  -0.731   9.862   1.117  0.3959  1.7025  0.7568
23170WAT     H294486  -0.880   9.837   1.119  0.7561 -0.8810 -0.6242
23170WAT    EPW94487  -0.813   9.891   1.109 -0.0632  0.2379 -0.3077
23171WAT      O94488   6.452   5.221   0.491  0.3121  0.0064 -0.0126
23171WAT     H194489   6.456   5.130   0.520 -3.4924 -0.1254  0.5870
23171WAT     H294490   6.400   5.266   0.558  1.7720  2.5924 -0.4746
23171WAT    EPW94491   6.446   5.215   0.503  0.0029  0.3302  0.0056
23172WAT      O94492  -3.108  10.064   4.593  0.8067  0.7426  0.5041
23172WAT     H194493  -3.154   9.986   4.621  1.3523  0.0894 -0.3628
23172WAT     H294494  -3.026  10.064   4.643  0.2359  1.4889  1.4756
23172WAT    EPW94495  -3.103  10.054   4.603  0.8034  0.7548  0.5178
23173WAT      O94496  -2.207   3.329   4.358  0.0757 -0.1952 -0.3306
23173WAT     H194497  -2.249   3.412   4.381 -0.6291 -0.6886  0.1891
23173WAT     H294498  -2.237   3.311   4.269  2.2517  1.3601 -1.5055
23173WAT    EPW94499  -2.216   3.338   4.349  0.2697 -0.0551 -0.4170
23174WAT      O94500   0.864   3.764   0.231 -0.3299  0.7966  0.1482
23174WAT     H194501   0.798   3.736   0.296 -0.9436 -0.3807 -0.9393
23174WAT     H294502   0.938   3.705   0.246  0.3717  1.8713  1.1126
23174WAT    EPW94503   0.865   3.753   0.242 -0.3183  0.7832  0.1320
23175WAT      O94504  -1.315   4.833   6.215  0.3147 -0.6273 -0.4813
23175WAT     H194505  -1.312   4.908   6.155 -0.2876 -0.4266 -0.2612
23175WAT     H294506  -1.224   4.825   6.245  0.1053  1.0382  0.7370
23175WAT    EPW94507  -1.302   4.842   6.211  0.2076 -0.3812 -0.2913
23176WAT      O94508  -6.091   7.628   6.843  0.6313  0.0611  0.6696
23176WAT     H194509  -6.151   7.699   6.866 -0.0208  0.5391 -2.1659
23176WAT     H294510  -6.010   7.671   6.818  1.5161 -0.4691  2.4664
23176WAT    EPW94511  -6.089   7.643   6.843  0.6621  0.0541  0.5324
23177WAT      O94512  -2.214   5.492   1.031 -0.5646 -0.0461 -0.1605
23177WAT     H194513  -2.149   5.560   1.014 -0.8963  0.2477 -0.2780
23177WAT     H294514  -2.170   5.410   1.009  0.4275 -0.0370  1.5926
23177WAT    EPW94515  -2.200   5.491   1.026 -0.4776 -0.0064  0.0552
23178WAT      O94516  -0.174   9.731   6.082  0.0529  0.4173  0.7863
23178WAT     H194517  -0.255   9.704   6.125  0.3959 -0.6922  0.7518
23178WAT     H294518  -0.156   9.818   6.118 -0.2426 -0.0361  2.0899
23178WAT    EPW94519  -0.182   9.739   6.092  0.0592  0.2112  0.9537
23179WAT      O94520   6.489   7.381   1.315  0.3676 -0.0818  0.5551
23179WAT     H194521   6.491   7.420   1.403 -0.7321  1.1190  0.0796
23179WAT     H294522   6.449   7.295   1.329 -0.1408  0.2428  1.1957
23179WAT    EPW94523   6.484   7.375   1.329  0.1552  0.1194  0.5769
23180WAT      O94524   1.905   0.831   3.652 -0.3776 -0.2360 -0.6058
23180WAT     H194525   1.948   0.746   3.665  1.9440  0.7605 -1.2165
23180WAT     H294526   1.878   0.858   3.739 -3.5777 -2.6798 -0.6408
23180WAT    EPW94527   1.907   0.823   3.665 -0.4935 -0.4269 -0.6909
23181WAT      O94528   0.334   8.318   2.606  0.6416 -0.0637  0.1017
23181WAT     H194529   0.339   8.412   2.619  0.1526 -0.0731  0.4083
23181WAT     H294530   0.366   8.303   2.517  0.5343  0.4110 -0.0171
23181WAT    EPW94531   0.339   8.328   2.596  0.5630 -0.0024  0.1264
23182WAT      O94532  -1.932   6.848   1.656 -0.2702 -0.1566  0.0338
23182WAT     H194533  -2.026   6.865   1.665  0.0218  1.0904  1.0394
23182WAT     H294534  -1.896   6.865   1.743  0.8088 -1.2971 -0.1499
23182WAT    EPW94535  -1.940   6.852   1.669 -0.0894 -0.1423  0.1422
23183WAT      O94536   0.946   5.623   3.323  0.8923 -0.1650 -0.4954
23183WAT     H194537   0.958   5.714   3.296 -2.6863  0.5418 -0.0977
23183WAT     H294538   1.035   5.592   3.340  2.4134  2.5586 -2.6950
23183WAT    EPW94539   0.960   5.631   3.322  0.6209  0.2873 -0.7331
23184WAT      O94540   0.405   8.441   3.186 -0.2831 -0.0588 -0.0232
23184WAT     H194541   0.394   8.433   3.091  0.6976  1.9990 -0.3799
23184WAT     H294542   0.498   8.461   3.198 -0.7338  1.5306  1.1869
23184WAT    EPW94543   0.416   8.443   3.175 -0.2132  0.4220  0.0894
23185WAT      O94544  -2.384   7.021   3.196 -0.2694 -0.7461 -0.8330
23185WAT     H194545  -2.433   7.002   3.116 -1.9559 -2.7360  0.5627
23185WAT     H294546  -2.441   7.080   3.245  0.6694  0.3057 -0.9569
23185WAT    EPW94547  -2.398   7.026   3.192 -0.3680 -0.8700 -0.6653
23186WAT      O94548   0.070   7.751   8.329 -0.3439  0.3535 -0.1135
23186WAT     H194549   0.061   7.835   8.372  0.6123 -0.2529  1.3617
23186WAT     H294550   0.154   7.756   8.283 -0.3882  0.2903 -0.2015
23186WAT    EPW94551   0.080   7.762   8.329 -0.2236  0.2654  0.0696
23187WAT      O94552  -5.448   3.925   6.772 -0.0292  0.1580  0.0771
23187WAT     H194553  -5.536   3.902   6.744  0.4122 -0.3005 -0.9985
23187WAT     H294554  -5.406   3.841   6.792  1.9090 -0.3963 -4.8045
23187WAT    EPW94555  -5.454   3.911   6.771  0.2847  0.0246 -0.7086
23188WAT      O94556   3.280   2.091   8.704 -0.2548 -0.0619  0.1741
23188WAT     H194557   3.366   2.112   8.741  0.0000 -2.2495  0.9946
23188WAT     H294558   3.298   2.017   8.645 -1.6220 -0.9667  0.8427
23188WAT    EPW94559   3.294   2.084   8.701 -0.4015 -0.4697  0.3705
23189WAT      O94560   3.475   8.502   5.940  0.0984  0.0233  0.5076
23189WAT     H194561   3.535   8.513   5.866 -0.2200  4.9263  0.6675
23189WAT     H294562   3.522   8.540   6.015 -1.0982 -1.2681  1.9990
23189WAT    EPW94563   3.489   8.508   5.940 -0.1014  0.4997  0.7255
23190WAT      O94564  -0.027   4.897   0.216 -0.1936 -0.2911  0.0678
23190WAT     H194565   0.061   4.931   0.198 -1.2083  1.7946 -1.5157
23190WAT     H294566  -0.015   4.803   0.225  2.0109 -0.2770 -1.6836
23190WAT    EPW94567  -0.014   4.889   0.215 -0.0367 -0.0141 -0.3721
23191WAT      O94568   5.635   3.084   1.834 -0.6279 -0.4355 -0.0167
23191WAT     H194569   5.546   3.056   1.858 -0.9493  0.6442  0.1476
23191WAT     H294570   5.633   3.179   1.846  0.4472 -0.3572 -0.3814
23191WAT    EPW94571   5.623   3.093   1.839 -0.5283 -0.2828 -0.0432
23192WAT      O94572   2.179   4.541   3.576  0.3303 -0.2251 -0.1567
23192WAT     H194573   2.174   4.553   3.482  0.6122  1.6740  0.0356
23192WAT     H294574   2.254   4.483   3.589  0.4277 -0.3153 -1.0792
23192WAT    EPW94575   2.188   4.535   3.565  0.3804  0.0134 -0.2531
23193WAT      O94576  -2.556   2.973   3.994  0.2085 -0.4107  0.2947
23193WAT     H194577  -2.602   2.889   3.996  0.1842 -0.4352 -0.6862
23193WAT     H294578  -2.487   2.960   3.928  1.9241 -0.5176  2.0037
23193WAT    EPW94579  -2.553   2.960   3.986  0.4315 -0.4280  0.3909
23194WAT      O94580   5.125   3.831   1.217 -0.3924  0.1955 -0.2987
23194WAT     H194581   5.219   3.810   1.218  0.0747  2.1339 -0.1328
23194WAT     H294582   5.112   3.882   1.138 -1.4317 -0.4260 -0.5556
23194WAT    EPW94583   5.136   3.835   1.207 -0.4678  0.3692 -0.3107
23195WAT      O94584  -3.210   9.076   1.638 -0.0485 -0.3904 -0.2103
23195WAT     H194585  -3.139   9.106   1.581  0.4632 -1.2815 -0.0573
23195WAT     H294586  -3.209   8.981   1.630  0.7712 -0.6333  2.1088
23195WAT    EPW94587  -3.200   9.067   1.630  0.1271 -0.5403  0.1158
23196WAT      O94588  -4.071   4.962   4.843  0.0281 -0.1589 -0.1851
23196WAT     H194589  -4.154   5.010   4.846  1.9147  3.4517  0.3499
23196WAT     H294590  -4.044   4.955   4.935 -0.1188 -2.2551 -0.2644
23196WAT    EPW94591  -4.078   4.968   4.856  0.2573  0.0408 -0.1249
23197WAT      O94592   5.552   0.022   5.512 -0.1085  0.0528  1.1076
23197WAT     H194593   5.624   0.083   5.524 -1.3871  1.3272  2.6966
23197WAT     H294594   5.486   0.048   5.576 -2.6978 -0.0324 -1.2861
23197WAT    EPW94595   5.553   0.033   5.522 -0.6187  0.2097  1.0016
23198WAT      O94596   8.227   2.613   0.837  0.5113  0.5592 -0.1462
23198WAT     H194597   8.289   2.665   0.785  1.0292  0.5590  0.4620
23198WAT     H294598   8.282   2.563   0.897  0.0900 -1.4481 -1.3416
23198WAT    EPW94599   8.243   2.614   0.838  0.5240  0.2944 -0.2237
23199WAT      O94600   2.593   4.613   0.262  0.1559  0.6768  0.0707
23199WAT     H194601   2.544   4.590   0.183 -0.1677 -0.8385  0.6619
23199WAT     H294602   2.526   4.643   0.324  0.1611  0.1178  0.3556
23199WAT    EPW94603   2.578   4.614   0.260  0.1140  0.4029  0.1862
23200WAT      O94604   6.038   7.686   0.556  0.9807 -0.0547  0.1760
23200WAT     H194605   5.968   7.713   0.616  0.0890 -1.4154 -0.1841
23200WAT     H294606   6.016   7.729   0.474  0.7409 -0.2251  0.1494
23200WAT    EPW94607   6.026   7.695   0.553  0.8314 -0.2568  0.1250
23201WAT      O94608   5.250   3.362   4.848 -0.2835  0.1043 -0.3324
23201WAT     H194609   5.241   3.277   4.891  1.0201  0.3512  0.4769
23201WAT     H294610   5.196   3.421   4.901  0.2913  0.1458  0.2144
23201WAT    EPW94611   5.241   3.359   4.861 -0.0358  0.1422 -0.1535
23202WAT      O94612  -0.387   8.113   4.059 -0.0772 -0.3493 -0.0878
23202WAT     H194613  -0.337   8.158   4.127 -1.5169 -0.4501  1.0803
23202WAT     H294614  -0.343   8.028   4.050  1.2683  0.3813 -0.6721
23202WAT    EPW94615  -0.374   8.108   4.067 -0.0896 -0.2666 -0.0107
23203WAT      O94616  -3.845   7.139   4.463 -0.8920 -0.3794  0.1320
23203WAT     H194617  -3.831   7.227   4.428 -1.1526 -1.4087 -2.8521
23203WAT     H294618  -3.931   7.144   4.505 -0.4174  1.0205  1.0339
23203WAT    EPW94619  -3.855   7.151   4.464 -0.8638 -0.3307 -0.1426
23204WAT      O94620   5.553   2.535   2.319 -0.5431 -0.2292 -0.6875
23204WAT     H194621   5.578   2.597   2.388 -3.1739  0.7932 -0.5317
23204WAT     H294622   5.630   2.479   2.308  1.0657  1.5242  0.8861
23204WAT    EPW94623   5.567   2.536   2.327 -0.6781  0.1369 -0.4593
23205WAT      O94624   1.848   1.828   6.810  0.2595 -0.3280 -0.6446
23205WAT     H194625   1.835   1.801   6.901  0.3877 -1.3546 -0.9128
23205WAT     H294626   1.839   1.746   6.760 -2.3330  0.5554 -1.8017
23205WAT    EPW94627   1.845   1.813   6.815 -0.0655 -0.3470 -0.8326
23206WAT      O94628  -4.224   4.616   4.547 -0.3547 -0.1596 -0.0264
23206WAT     H194629  -4.210   4.614   4.452 -0.2125 -1.8583 -0.0032
23206WAT     H294630  -4.211   4.708   4.571 -2.7521  0.7721 -1.9569
23206WAT    EPW94631  -4.220   4.628   4.538 -0.6521 -0.2608 -0.2780
23207WAT      O94632   0.746   1.292   3.841 -0.0501 -0.2009  0.0003
23207WAT     H194633   0.654   1.275   3.862  0.1550 -2.7878 -0.8256
23207WAT     H294634   0.746   1.318   3.749  0.0510 -0.2010 -0.0001
23207WAT    EPW94635   0.734   1.293   3.832 -0.0097 -0.5422 -0.1086
23208WAT      O94636   5.513   2.978   4.897 -0.7419  0.1273 -0.2854
23208WAT     H194637   5.482   3.068   4.910  2.7118  1.8442 -2.3923
23208WAT     H294638   5.500   2.936   4.981 -2.5425  2.5824  0.7922
23208WAT    EPW94639   5.507   2.985   4.910 -0.5238  0.6776 -0.4213
23209WAT      O94640  -0.835   5.537   6.852 -0.3895 -0.1805 -0.3724
23209WAT     H194641  -0.914   5.542   6.906 -1.1251  0.7468 -1.5048
23209WAT     H294642  -0.804   5.627   6.848  1.2749 -0.6418  0.7921
23209WAT    EPW94643  -0.841   5.549   6.859 -0.2670 -0.1190 -0.3681
23210WAT      O94644   6.657   2.254   5.585 -0.0377 -0.1178  0.4595
23210WAT     H194645   6.664   2.301   5.668  1.0530 -0.2922  0.4800
23210WAT     H294646   6.745   2.219   5.569 -1.0797 -3.4182  1.1671
23210WAT    EPW94647   6.670   2.256   5.594 -0.0312 -0.5761  0.5555
23211WAT      O94648  -2.789   2.630   5.687 -0.2708  0.2842 -0.1094
23211WAT     H194649  -2.807   2.721   5.662  1.6890  0.9608  0.6997
23211WAT     H294650  -2.713   2.606   5.634  1.9784  0.6879  2.6538
23211WAT    EPW94651  -2.781   2.639   5.676  0.2843  0.4268  0.3617
23212WAT      O94652  -2.097   9.472   0.462 -0.4235 -0.1153  0.0161
23212WAT     H194653  -2.103   9.488   0.556 -1.1203 -0.9723  0.1190
23212WAT     H294654  -2.010   9.506   0.438  1.2884 -2.9927  1.6132
23212WAT    EPW94655  -2.086   9.479   0.471 -0.2897 -0.6080  0.2403
23213WAT      O94656  -3.136   2.161   8.501  0.1214  0.6364 -0.9374
23213WAT     H194657  -3.158   2.071   8.527  0.6466  0.6263 -0.5099
23213WAT     H294658  -3.109   2.203   8.583  1.0181  0.8406 -1.3374
23213WAT    EPW94659  -3.136   2.154   8.515  0.3090  0.6620 -0.9336
23214WAT      O94660   4.586   1.032   1.087 -0.3083  0.2742 -0.0182
23214WAT     H194661   4.652   0.985   1.137 -3.6153 -2.0725  2.5343
23214WAT     H294662   4.583   1.119   1.128  0.4276  0.0625  0.5202
23214WAT    EPW94663   4.594   1.037   1.099 -0.6473 -0.0632  0.3895
23215WAT      O94664  -2.239   6.291   6.187  0.7566  0.6715 -0.3201
23215WAT     H194665  -2.179   6.365   6.202  1.1628 -0.0551  1.9361
23215WAT     H294666  -2.326   6.331   6.183  0.9539  1.2805  1.0887
23215WAT    EPW94667  -2.242   6.306   6.189  0.8361  0.6559  0.1633
23216WAT      O94668   6.101   2.866   1.284  0.4160 -0.4408 -0.2300
23216WAT     H194669   6.108   2.891   1.376 -1.2637  2.4261 -0.7265
23216WAT     H294670   6.039   2.793   1.284  0.9525 -0.9234  0.9445
23216WAT    EPW94671   6.094   2.860   1.296  0.2651 -0.1264 -0.1406
23217WAT      O94672   1.957   2.756   2.281 -0.5107 -0.5537  0.0070
23217WAT     H194673   2.051   2.767   2.292 -0.6274  1.3563 -0.4663
23217WAT     H294674   1.947   2.714   2.196 -0.0990 -0.2756 -0.1799
23217WAT    EPW94675   1.968   2.752   2.271 -0.4718 -0.2651 -0.0801
23218WAT      O94676  -4.210   0.098   8.448 -0.0659 -0.3845  0.5794
23218WAT     H194677  -4.189   0.032   8.514  0.6955  0.3517  1.0902
23218WAT     H294678  -4.134   0.156   8.446 -1.3587  1.4366  1.3372
23218WAT    EPW94679  -4.197   0.097   8.457 -0.1361 -0.0472  0.7472
23219WAT      O94680   2.682   4.494   6.532  0.3126  0.7760 -0.3669
23219WAT     H194681   2.674   4.581   6.571  1.9959 -0.2493  2.6083
23219WAT     H294682   2.769   4.493   6.492  0.4797  0.3712 -0.0117
23219WAT    EPW94683   2.692   4.505   6.532  0.5566  0.5875  0.0725
23220WAT      O94684  -2.566   8.845   0.782  0.0421 -0.1899  0.1473
23220WAT     H194685  -2.587   8.835   0.689 -0.6845 -0.5531  0.3399
23220WAT     H294686  -2.490   8.788   0.795  2.1503  2.2290 -0.8604
23220WAT    EPW94687  -2.559   8.836   0.771  0.2242  0.0811  0.0398
23221WAT      O94688   5.473   0.484   8.702 -0.4254 -0.5165 -0.7278
23221WAT     H194689   5.500   0.527   8.783  0.2622  0.0436 -1.2372
23221WAT     H294690   5.453   0.556   8.642 -2.3668 -0.9211 -0.6120
23221WAT    EPW94691   5.474   0.499   8.704 -0.5908 -0.4960 -0.7796
23222WAT      O94692   4.233   4.278   3.631 -0.4674  0.5032  0.1318
23222WAT     H194693   4.231   4.225   3.551  3.0085  1.2292 -0.5710
23222WAT     H294694   4.235   4.214   3.702  3.7947 -0.5760 -0.6996
23222WAT    EPW94695   4.233   4.262   3.630  0.5534  0.4566 -0.0707
23223WAT      O94696   1.268   0.029   0.031  0.1199 -0.1316  0.2073
23223WAT     H194697   1.274  -0.061   0.062  2.4270  0.2532  1.0897
23223WAT     H294698   1.187   0.063   0.069 -0.6063 -1.7214  0.1186
23223WAT    EPW94699   1.258   0.022   0.041  0.3284 -0.2905  0.3120
23224WAT      O94700   3.754   0.494   0.575 -0.6144 -0.4726 -0.1895
23224WAT     H194701   3.811   0.458   0.644 -0.6242 -1.0125 -0.4629
23224WAT     H294702   3.719   0.575   0.613  0.2333 -0.1960  0.0374
23224WAT    EPW94703   3.757   0.500   0.589 -0.5039 -0.5073 -0.1957
23225WAT      O94704   3.554   3.546   7.531  0.4263 -0.1481  0.0569
23225WAT     H194705   3.625   3.581   7.478  0.4692  0.0974  0.2766
23225WAT     H294706   3.572   3.578   7.619  0.2856 -0.4496  0.1958
23225WAT    EPW94707   3.566   3.554   7.536  0.4134 -0.1554  0.1040
23226WAT      O94708   6.532   1.646   3.361  0.2360 -0.8915  0.1709
23226WAT     H194709   6.618   1.668   3.325 -0.7755  1.7524 -0.8852
23226WAT     H294710   6.513   1.559   3.326  0.7011  0.2204 -3.2159
23226WAT    EPW94711   6.541   1.637   3.352  0.1638 -0.3961 -0.4152
23227WAT      O94712  -0.722   7.505   7.982  0.9581 -1.0530 -0.4165
23227WAT     H194713  -0.707   7.411   7.972 -3.1932 -1.8638 -0.7650
23227WAT     H294714  -0.701   7.542   7.897  3.1493 -1.4736 -0.1264
23227WAT    EPW94715  -0.717   7.497   7.970  0.6996 -1.2155 -0.4241
23228WAT      O94716  -1.525   3.555   0.822 -0.0808 -0.4572  0.0110
23228WAT     H194717  -1.592   3.519   0.764  1.2009  0.5319 -2.2608
23228WAT     H294718  -1.479   3.620   0.767 -0.0204  2.0467  2.7595
23228WAT    EPW94719  -1.527   3.559   0.807  0.0962  0.0035  0.0739
23229WAT      O94720   2.733   1.774   6.958 -0.2275 -1.1033 -0.3763
23229WAT     H194721   2.647   1.810   6.980 -0.1636 -0.5850 -0.9391
23229WAT     H294722   2.795   1.823   7.011 -0.3164 -1.8976  0.4941
23229WAT    EPW94723   2.730   1.785   6.968 -0.2309 -1.1397 -0.3357
23230WAT      O94724   6.254   0.234   6.290 -0.0158 -0.3236  0.3222
23230WAT     H194725   6.192   0.183   6.239 -2.1889  0.2703  2.1974
23230WAT     H294726   6.273   0.310   6.235 -0.2688 -0.9256 -0.6288
23230WAT    EPW94727   6.248   0.238   6.276 -0.3357 -0.3247  0.4444
23231WAT      O94728   3.862   9.171   2.704 -0.2351 -0.3222 -0.4135
23231WAT     H194729   3.784   9.219   2.676 -1.1928 -2.3149 -1.4169
23231WAT     H294730   3.837   9.079   2.697  2.5098 -1.0734 -1.7246
23231WAT    EPW94731   3.848   9.165   2.699  0.0006 -0.6843 -0.7187
23232WAT      O94732   2.926   6.241   5.233  0.0451  0.0639 -0.1090
23232WAT     H194733   2.950   6.224   5.142 -0.9722  1.4531 -0.6810
23232WAT     H294734   2.998   6.294   5.268  0.7527 -1.0246  0.1122
23232WAT    EPW94735   2.938   6.246   5.226  0.0042  0.1037 -0.1552
23233WAT      O94736   2.488   2.888   5.825  0.5036  0.3505 -0.0304
23233WAT     H194737   2.397   2.913   5.807  0.6901  0.0097 -1.5488
23233WAT     H294738   2.490   2.875   5.920 -1.2802 -0.5939 -0.0685
23233WAT    EPW94739   2.476   2.890   5.835  0.2930  0.1810 -0.2356
23234WAT      O94740   7.024   4.595   2.297 -0.2473  0.2042 -0.4646
23234WAT     H194741   7.097   4.656   2.291 -1.9946  2.3025 -4.3846
23234WAT     H294742   7.064   4.511   2.320  3.0512  1.6940 -0.3306
23234WAT    EPW94743   7.039   4.592   2.299 -0.0427  0.6776 -0.9639
23235WAT      O94744   7.172   5.604   1.409  0.0411  0.4407 -0.1004
23235WAT     H194745   7.263   5.574   1.401 -0.1136 -0.2563  0.6651
23235WAT     H294746   7.170   5.650   1.493 -1.1499 -2.7921  1.8203
23235WAT    EPW94747   7.184   5.606   1.419 -0.1364 -0.0777  0.2539
23236WAT      O94748  -4.733   5.956   5.716 -0.7983  0.1353  0.3887
23236WAT     H194749  -4.720   5.915   5.801 -2.5411  1.7599  1.5161
23236WAT     H294750  -4.737   6.050   5.734  3.3019  1.0368 -2.1224
23236WAT    EPW94751  -4.732   5.963   5.729 -0.4871  0.4685  0.2062
23237WAT      O94752   5.346   3.850   5.176  0.1867 -0.2706  0.0561
23237WAT     H194753   5.425   3.882   5.222  0.8882 -1.6641 -0.1262
23237WAT     H294754   5.274   3.894   5.221  0.9008 -0.9414  1.9803
23237WAT    EPW94755   5.347   3.860   5.188  0.3734 -0.5428  0.2856
23238WAT      O94756  -0.471   5.418   4.765  0.1209  0.1688  0.2705
23238WAT     H194757  -0.386   5.423   4.809 -0.5094  0.9980  1.4640
23238WAT     H294758  -0.452   5.443   4.675  0.9411  1.8540  0.8558
23238WAT    EPW94759  -0.457   5.422   4.759  0.1459  0.5004  0.5052
23239WAT      O94760  -0.794   7.622   4.896 -0.4074  0.2215  0.6898
23239WAT     H194761  -0.763   7.636   4.807 -0.6637  0.7873  0.6842
23239WAT     H294762  -0.875   7.673   4.902  0.7666  2.0880  1.9253
23239WAT    EPW94763  -0.800   7.630   4.885 -0.2863  0.5424  0.8521
23240WAT      O94764   0.064   8.690   6.656  0.3389 -0.6559  0.1615
23240WAT     H194765   0.040   8.641   6.578  0.9915  0.4160 -0.7539
23240WAT     H294766   0.019   8.774   6.646  1.4412 -0.0261  0.2676
23240WAT    EPW94767   0.055   8.695   6.644  0.5703 -0.4315  0.0548
23241WAT      O94768   5.966   1.128   7.335  0.0467  0.3893  0.5650
23241WAT     H194769   6.017   1.059   7.291 -1.7301 -1.0237  0.5663
23241WAT     H294770   6.002   1.132   7.424  2.5773  2.1053 -0.4331
23241WAT    EPW94771   5.977   1.119   7.341  0.1462  0.4293  0.4337
23242WAT      O94772  -1.022   8.129   5.707 -0.7950  0.4156 -0.9229
23242WAT     H194773  -1.004   8.122   5.613 -2.1727 -0.7746 -1.1360
23242WAT     H294774  -0.967   8.063   5.747 -0.7448  0.4220 -0.9808
23242WAT    EPW94775  -1.013   8.120   5.700 -0.9701  0.2594 -0.9587
23243WAT      O94776  -4.505   4.118   7.952  0.0414  0.3058  0.5443
23243WAT     H194777  -4.556   4.170   7.890 -1.8647  1.3300  2.8000
23243WAT     H294778  -4.431   4.174   7.975 -0.1102  0.5679  0.3944
23243WAT    EPW94779  -4.502   4.132   7.947 -0.2298  0.4754  0.8221
23244WAT      O94780   5.714   2.491   4.493 -0.4667  0.5489 -0.0307
23244WAT     H194781   5.716   2.566   4.434 -3.0001 -0.7004 -1.9014
23244WAT     H294782   5.650   2.514   4.560 -1.8173 -0.1861 -1.0401
23244WAT    EPW94783   5.706   2.504   4.494 -0.9789  0.2872 -0.4106
23245WAT      O94784   5.720   3.599   3.447 -0.0454  0.8715 -0.4253
23245WAT     H194785   5.700   3.665   3.381 -0.4334  0.2596 -0.9373
23245WAT     H294786   5.721   3.646   3.530  2.4404  2.0499 -1.0445
23245WAT    EPW94787   5.717   3.614   3.449  0.2310  0.9462 -0.5744
23246WAT      O94788  -2.016   0.723   4.837 -0.1160 -0.0422 -0.1993
23246WAT     H194789  -1.980   0.733   4.749  1.1125  1.8838  0.4395
23246WAT     H294790  -1.977   0.642   4.870  1.0958  0.3062 -0.7175
23246WAT    EPW94791  -2.006   0.714   4.830  0.2059  0.2578 -0.1833
23247WAT      O94792   7.012   4.733   1.477  0.4810 -0.3022 -0.1036
23247WAT     H194793   7.043   4.671   1.543 -0.8663  1.2326  2.1183
23247WAT     H294794   6.939   4.689   1.435  2.0704 -1.7614 -1.4943
23247WAT    EPW94795   7.006   4.719   1.480  0.5128 -0.2925  0.0060
23248WAT      O94796   5.842   4.664   1.004 -0.5602 -0.0794 -0.3871
23248WAT     H194797   5.877   4.645   1.091  1.0049 -0.2585 -1.0357
23248WAT     H294798   5.902   4.728   0.967  2.9926 -4.7278 -3.9027
23248WAT    EPW94799   5.854   4.670   1.011  0.1149 -0.7162 -0.9363
23249WAT      O94800   1.512   7.139   6.058  0.1921  0.0473  0.1672
23249WAT     H194801   1.590   7.097   6.093  0.0089 -2.4011 -2.0823
23249WAT     H294802   1.439   7.097   6.104  0.0787 -0.5621 -0.5609
23249WAT    EPW94803   1.513   7.128   6.069  0.1530 -0.3562 -0.2255
23250WAT      O94804   2.892   4.942   5.856 -0.9157 -0.1572 -0.2228
23250WAT     H194805   2.936   5.024   5.879 -1.5554  0.3177 -0.6434
23250WAT     H294806   2.834   4.924   5.930 -0.6553 -0.3189 -0.0574
23250WAT    EPW94807   2.890   4.950   5.869 -0.9656 -0.1161 -0.2563
23251WAT      O94808  -3.396   4.879   6.966 -0.6792 -0.8879 -0.8591
23251WAT     H194809  -3.425   4.787   6.964 -0.8069 -0.8503 -0.7090
23251WAT     H294810  -3.300   4.873   6.968 -0.6927 -1.0711  1.3807
23251WAT    EPW94811  -3.387   4.866   6.966 -0.6979 -0.9069 -0.5441
23252WAT      O94812   1.596   4.658   7.843 -0.0680  0.0705  0.0396
23252WAT     H194813   1.675   4.632   7.796 -0.4490  0.0861 -0.6207
23252WAT     H294814   1.629   4.707   7.919  0.5389  0.9087 -0.7382
23252WAT    EPW94815   1.611   4.661   7.847 -0.0383  0.1831 -0.1500
23253WAT      O94816   5.018   0.257   5.593 -0.7282 -0.5701  0.9596
23253WAT     H194817   4.984   0.299   5.514  0.7978 -2.2159 -0.6292
23253WAT     H294818   4.956   0.186   5.611 -1.7738  0.5389  2.0699
23253WAT    EPW94819   5.005   0.253   5.585 -0.6649 -0.6409  0.8965
23254WAT      O94820  -6.476   8.270   8.758 -0.2162 -0.0494 -0.0866
23254WAT     H194821  -6.398   8.260   8.812 -0.2339  0.2762  0.0020
23254WAT     H294822  -6.449   8.244   8.670  0.9248  3.2219 -0.8187
23254WAT    EPW94823  -6.462   8.265   8.754 -0.0682  0.4249 -0.1712
23255WAT      O94824  -5.156   6.491   8.059 -0.3473 -0.5719  0.4141
23255WAT     H194825  -5.131   6.483   8.151  0.1337 -2.6215  0.1511
23255WAT     H294826  -5.244   6.454   8.055 -0.1122 -1.0852 -0.0541
23255WAT    EPW94827  -5.165   6.485   8.071 -0.2530 -0.9098  0.3181
23256WAT      O94828  -1.129   1.045   5.194 -0.0970  0.4132 -0.2387
23256WAT     H194829  -1.158   1.136   5.184 -0.8952  0.2378  0.3530
23256WAT     H294830  -1.121   1.013   5.104  0.0473  1.0261 -0.4479
23256WAT    EPW94831  -1.132   1.052   5.181 -0.1832  0.4709 -0.1884
23257WAT      O94832   0.192   5.079   2.252  0.4026  0.0272  0.5137
23257WAT     H194833   0.107   5.037   2.239 -0.4541  2.1532 -1.4571
23257WAT     H294834   0.251   5.030   2.196 -0.2930  0.5869 -0.7429
23257WAT    EPW94835   0.188   5.067   2.243  0.1979  0.3817  0.0881
23258WAT      O94836  -0.566   5.938   4.245  0.2754  1.0328  0.4862
23258WAT     H194837  -0.628   5.933   4.318 -0.2800  1.1623  0.0366
23258WAT     H294838  -0.549   5.847   4.220  0.2746  0.9967  0.6208
23258WAT    EPW94839  -0.572   5.926   4.251  0.2020  1.0450  0.4447
23259WAT      O94840   7.176   0.927   4.584 -0.4996  0.0819  0.3666
23259WAT     H194841   7.237   0.872   4.634 -1.4719  1.7133  3.6262
23259WAT     H294842   7.162   0.879   4.502  0.7421 -3.1312  1.8645
23259WAT    EPW94843   7.182   0.914   4.579 -0.4640 -0.1267  0.9940
23260WAT      O94844   4.238   4.561   3.945 -0.2416  0.2882 -0.3820
23260WAT     H194845   4.153   4.572   3.989 -0.1007 -1.6771  0.4713
23260WAT     H294846   4.217   4.566   3.852 -1.6656 -2.0293 -0.2542
23260WAT    EPW94847   4.224   4.563   3.939 -0.4106 -0.2768 -0.2526
23261WAT      O94848   7.461   1.536   1.511 -0.4840  0.2041  1.0569
23261WAT     H194849   7.386   1.593   1.494 -1.0057 -0.5371  0.8301
23261WAT     H294850   7.422   1.456   1.546  0.1674 -0.3730  0.4686
23261WAT    EPW94851   7.446   1.533   1.513 -0.4668  0.0302  0.9494
23262WAT      O94852  -3.686   3.569   7.865  0.6964 -0.7731 -0.2308
23262WAT     H194853  -3.686   3.652   7.818 -1.6121 -0.1362  0.7422
23262WAT     H294854  -3.687   3.502   7.797 -3.9717  0.1027 -1.3401
23262WAT    EPW94855  -3.686   3.571   7.850 -0.2239 -0.5735 -0.2489
23263WAT      O94856  -0.118   2.558   7.434  0.1225  0.2692 -0.3192
23263WAT     H194857  -0.042   2.603   7.397  1.1917  0.0491  1.5326
23263WAT     H294858  -0.124   2.476   7.383  2.7641 -0.9562  1.1475
23263WAT    EPW94859  -0.109   2.553   7.422  0.6120  0.0786  0.1185
23264WAT      O94860   0.605  10.076   5.269  0.0786  0.3108  0.0828
23264WAT     H194861   0.698  10.057   5.282  0.1560  0.6465  0.0253
23264WAT     H294862   0.583  10.139   5.338 -0.3273 -0.4398  0.6600
23264WAT    EPW94863   0.614  10.082   5.280  0.0353  0.2561  0.1514
23265WAT      O94864  -3.373   6.308   6.403 -0.3192 -0.1062  0.2485
23265WAT     H194865  -3.374   6.304   6.499 -0.4416  0.9374  0.2941
23265WAT     H294866  -3.437   6.242   6.376 -0.6141 -0.0933  0.8972
23265WAT    EPW94867  -3.381   6.298   6.412 -0.3742  0.0331  0.3402
23266WAT      O94868  -4.081   4.662   5.732  0.5795  0.1207 -0.1912
23266WAT     H194869  -4.008   4.624   5.683  0.0395  0.9232 -1.6923
23266WAT     H294870  -4.159   4.620   5.696  0.1828  0.4654  0.2489
23266WAT    EPW94871  -4.081   4.652   5.721  0.4561  0.2720 -0.3312
23267WAT      O94872  -2.995   8.380   3.967  0.5676  0.5633 -0.3640
23267WAT     H194873  -2.971   8.469   3.992  1.8302  0.2406 -0.3296
23267WAT     H294874  -2.916   8.345   3.925 -0.0089 -0.4334 -0.6499
23267WAT    EPW94875  -2.981   8.387   3.965  0.6582  0.3896 -0.3972
23268WAT      O94876  -3.764   6.784   4.104 -0.0509 -0.1889  0.2203
23268WAT     H194877  -3.693   6.719   4.107  0.0717 -0.0738 -0.1056
23268WAT     H294878  -3.779   6.807   4.196  1.5957  1.1392  0.2094
23268WAT    EPW94879  -3.756   6.778   4.116  0.1825  0.0014  0.1757
23269WAT      O94880   6.537   8.163   0.933  0.2679  0.2761 -0.3217
23269WAT     H194881   6.469   8.103   0.962  1.0242  0.6126  2.4299
23269WAT     H294882   6.619   8.124   0.962  1.3964 -0.1619 -3.6336
23269WAT    EPW94883   6.539   8.150   0.940  0.5164  0.2627 -0.3956
23270WAT      O94884  -2.362   5.133   4.041 -0.0157 -0.1076 -0.5329
23270WAT     H194885  -2.441   5.081   4.024 -0.3743  0.0122  0.6702
23270WAT     H294886  -2.329   5.100   4.125  0.3274  0.9004 -0.2564
23270WAT    EPW94887  -2.368   5.122   4.050 -0.0178  0.0412 -0.3376
23271WAT      O94888   6.575   5.921   1.065  0.2892  0.2076 -0.6080
23271WAT     H194889   6.565   5.910   0.971  0.8156 -1.3533 -0.5251
23271WAT     H294890   6.486   5.914   1.100  0.1695  0.0502 -0.9403
23271WAT    EPW94891   6.562   5.918   1.057  0.3428 -0.0193 -0.6409
23272WAT      O94892  -0.125   4.386   7.186  0.3614 -0.7165 -0.3489
23272WAT     H194893  -0.211   4.344   7.190  0.1767 -0.6012 -2.1053
23272WAT     H294894  -0.063   4.319   7.213 -0.3218 -0.4304  2.2245
23272WAT    EPW94895  -0.128   4.372   7.190  0.2470 -0.6635 -0.2410
23273WAT      O94896   2.874   3.984   7.788  0.0256  0.2573 -0.3323
23273WAT     H194897   2.960   3.998   7.826 -0.1461  1.4329 -0.3386
23273WAT     H294898   2.891   3.941   7.704  0.6513  1.0269 -0.6096
23273WAT    EPW94899   2.887   3.980   7.782  0.0855  0.5139 -0.3698
23274WAT      O94900   2.038   0.910   1.928  0.3609  0.7825 -0.4912
23274WAT     H194901   1.988   0.866   1.859  0.0894  1.4104 -0.7062
23274WAT     H294902   2.010   1.001   1.922  0.7901  0.9507  0.0553
23274WAT    EPW94903   2.027   0.916   1.918  0.3817  0.8875 -0.4475
23275WAT      O94904   5.802   8.634   0.680 -0.1023 -0.0606 -0.3080
23275WAT     H194905   5.730   8.628   0.617 -0.6526 -1.1827  0.3989
23275WAT     H294906   5.761   8.616   0.765  0.6492  1.3207  0.3766
23275WAT    EPW94907   5.787   8.631   0.683 -0.0758 -0.0262 -0.1245
23276WAT      O94908  -5.112   6.277   8.520  0.6358  0.2419  0.6748
23276WAT     H194909  -5.151   6.195   8.490  0.1165  0.1785  1.4755
23276WAT     H294910  -5.024   6.253   8.549  0.9295  0.2011 -0.2189
23276WAT    EPW94911  -5.105   6.263   8.520  0.6061  0.2284  0.6628
23277WAT      O94912   6.089   0.982   3.076 -0.2346  0.2878  0.5638
23277WAT     H194913   5.997   0.963   3.058  0.2225  0.2267 -1.9999
23277WAT     H294914   6.086   1.048   3.146 -2.1691 -0.3030  1.1092
23277WAT    EPW94915   6.077   0.988   3.083 -0.4296  0.2018  0.2977
23278WAT      O94916   4.247   8.310   5.369 -0.2759  0.0255 -1.0994
23278WAT     H194917   4.287   8.227   5.394  0.3704  0.9317  1.1226
23278WAT     H294918   4.153   8.292   5.370 -0.3413 -0.1076  2.1630
23278WAT    EPW94919   4.240   8.297   5.373 -0.1993  0.1273 -0.3760
23279WAT      O94920  -0.746   0.530   5.478  0.9122 -0.1979 -0.0023
23279WAT     H194921  -0.672   0.473   5.458  1.4645 -0.0196  1.4049
23279WAT     H294922  -0.706   0.616   5.494  0.1166  0.5712 -1.8753
23279WAT    EPW94923  -0.731   0.534   5.478  0.8801 -0.0730 -0.0637
23280WAT      O94924   3.335   7.752   1.900 -0.3551 -0.0760 -0.3498
23280WAT     H194925   3.380   7.709   1.974 -2.5365  0.5521  1.4476
23280WAT     H294926   3.395   7.822   1.874  1.3414 -1.5156 -0.5076
23280WAT    EPW94927   3.349   7.755   1.907 -0.4190 -0.1831 -0.1335
23281WAT      O94928  -4.876   4.044   8.613  0.0983 -0.3607  0.4214
23281WAT     H194929  -4.954   4.097   8.593 -0.2761 -1.8487 -2.6848
23281WAT     H294930  -4.877   4.035   8.708 -2.6555  0.9351  0.6140
23281WAT    EPW94931  -4.887   4.050   8.623 -0.3145 -0.3860  0.0377
23282WAT      O94932   2.375   9.654   5.463 -0.7218 -0.3985  0.4406
23282WAT     H194933   2.451   9.675   5.517  0.2157  1.6406 -1.5263
23282WAT     H294934   2.410   9.603   5.390 -1.7010 -1.6319  0.7918
23282WAT    EPW94935   2.390   9.650   5.461 -0.7273 -0.2923  0.2275
23283WAT      O94936  -3.432   7.894   7.179  0.0066  0.1344 -0.1719
23283WAT     H194937  -3.412   7.915   7.270  2.0355  0.2251 -0.5897
23283WAT     H294938  -3.444   7.979   7.136  1.6505  0.2292 -0.4979
23283WAT    EPW94939  -3.431   7.908   7.185  0.4910  0.1590 -0.2699
23284WAT      O94940   1.552   2.008   1.009  0.1778  0.2756  0.4028
23284WAT     H194941   1.594   2.094   1.012 -1.3196  1.0130  1.7097
23284WAT     H294942   1.494   2.012   0.933  2.0652 -0.6220 -1.1947
23284WAT    EPW94943   1.550   2.020   1.000  0.2293  0.2544  0.3645
23285WAT      O94944   0.456   3.855   5.944 -0.2568 -0.1267  0.3576
23285WAT     H194945   0.437   3.856   6.038  3.3151  0.3526  1.2208
23285WAT     H294946   0.509   3.933   5.929 -1.3593  0.2309 -2.2902
23285WAT    EPW94947   0.460   3.865   5.955  0.0689 -0.0163  0.1221
23286WAT      O94948   5.117   5.677   3.242 -0.4138  0.0818  0.0162
23286WAT     H194949   5.126   5.764   3.204  0.0845  0.6669  1.4122
23286WAT     H294950   5.188   5.627   3.202 -0.7175  0.2970 -0.8106
23286WAT    EPW94951   5.128   5.682   3.232 -0.3881  0.1872  0.0912
23287WAT      O94952  -1.353   4.548   8.954  0.2854 -0.6019 -0.1387
23287WAT     H194953  -1.279   4.513   8.906  0.4134 -0.0499 -0.3473
23287WAT     H294954  -1.406   4.471   8.976  2.3039 -1.3955  2.4498
23287WAT    EPW94955  -1.350   4.533   8.951  0.5685 -0.6337  0.1750
23288WAT      O94956  -0.895   2.427   1.857 -0.3394  0.3933  0.5368
23288WAT     H194957  -0.990   2.437   1.871 -0.4519 -1.3313  1.2274
23288WAT     H294958  -0.871   2.503   1.804 -2.3430  0.2212 -0.7298
23288WAT    EPW94959  -0.905   2.439   1.852 -0.6185  0.1431  0.4608
23289WAT      O94960   4.364   2.929   6.685  0.0458 -0.1698  0.6847
23289WAT     H194961   4.286   2.933   6.740 -0.5669  2.4778 -0.2414
23289WAT     H294962   4.344   2.860   6.621 -0.7486 -0.7505  1.5366
23289WAT    EPW94963   4.351   2.920   6.683 -0.1397  0.1029  0.6747
23290WAT      O94964  -0.063   2.427   7.668 -0.7474 -0.2483 -0.4111
23290WAT     H194965  -0.082   2.492   7.736  2.0848  0.3498 -0.0478
23290WAT     H294966  -0.074   2.475   7.586 -1.2858 -0.1099 -0.2641
23290WAT    EPW94967  -0.067   2.442   7.667 -0.4449 -0.1512 -0.3436
23291WAT      O94968   4.848   1.553   6.610 -0.1286  0.1640 -0.5846
23291WAT     H194969   4.838   1.570   6.516  0.5480 -1.1745 -0.9158
23291WAT     H294970   4.794   1.475   6.626 -2.1041  1.6747  0.6299
23291WAT    EPW94971   4.839   1.545   6.599 -0.2999  0.1867 -0.4683
23292WAT      O94972   3.644   1.460   1.182 -0.0530  0.3648  0.1559
23292WAT     H194973   3.603   1.521   1.243  0.2544  0.9616 -0.2209
23292WAT     H294974   3.654   1.510   1.101  2.1691  0.5317  0.4541
23292WAT    EPW94975   3.640   1.474   1.179  0.2807  0.4655  0.1455
23293WAT      O94976   7.207   0.306   4.263 -0.6348  0.4329  0.0048
23293WAT     H194977   7.205   0.225   4.211 -4.0338 -0.0500  0.6223
23293WAT     H294978   7.222   0.375   4.199 -1.5804 -0.4109 -1.2030
23293WAT    EPW94979   7.209   0.304   4.248 -1.2076  0.2579 -0.0732
23294WAT      O94980   0.703   7.835   5.848 -0.3451  0.8957  0.2142
23294WAT     H194981   0.624   7.814   5.898 -1.7546  3.3289 -0.8374
23294WAT     H294982   0.695   7.782   5.768 -0.5373  0.5983  0.4284
23294WAT    EPW94983   0.691   7.825   5.844 -0.5563  1.1775  0.1040
23295WAT      O94984   3.062   2.367   5.756  0.0343  0.2975  0.8528
23295WAT     H194985   2.984   2.366   5.700 -0.3225  1.6088  1.2743
23295WAT     H294986   3.091   2.459   5.754  0.7542  0.1034  1.7977
23295WAT    EPW94987   3.055   2.379   5.748  0.0821  0.4449  1.0331
23296WAT      O94988   1.257   8.577   5.021 -0.4396 -0.9100  0.6853
23296WAT     H194989   1.327   8.576   4.956  0.3251 -1.4492  1.5029
23296WAT     H294990   1.300   8.557   5.104 -1.4797 -0.7318  1.2905
23296WAT    EPW94991   1.272   8.574   5.023 -0.4759 -0.9575  0.8731
23297WAT      O94992   1.000   2.094   2.322  0.7383 -0.3179  0.6005
23297WAT     H194993   0.932   2.128   2.380 -0.7499 -0.8798 -0.7139
23297WAT     H294994   0.955   2.026   2.271  2.1492 -0.2910 -0.7454
23297WAT    EPW94995   0.985   2.089   2.323  0.7281 -0.3884  0.2496
23298WAT      O94996   2.138   6.976   7.956  0.1032  0.1248 -0.2298
23298WAT     H194997   2.219   6.999   7.910 -0.4153 -0.0407 -1.2596
23298WAT     H294998   2.142   6.881   7.964 -0.1589  0.0794 -0.6186
23298WAT    EPW94999   2.150   6.966   7.951  0.0002  0.0968 -0.4170
23299WAT      O95000  -2.077   4.886   3.123  0.1111 -0.2611  0.2054
23299WAT     H195001  -2.066   4.801   3.166 -2.6992 -0.6890  0.2670
23299WAT     H295002  -2.079   4.865   3.029  3.8724  0.3899 -0.1818
23299WAT    EPW95003  -2.076   4.872   3.116  0.2364 -0.2315  0.1625
23300WAT      O95004  -2.482   7.616   2.099 -0.0098  0.1842 -0.0851
23300WAT     H195005  -2.449   7.602   2.188 -0.0516 -1.3962 -0.2967
23300WAT     H295006  -2.404   7.636   2.047  0.0829  0.5451  0.1890
23300WAT    EPW95007  -2.467   7.617   2.104 -0.0031  0.0231 -0.0769
23301WAT      O95008   1.266   8.303   0.267 -0.1789  0.0048  0.3100
23301WAT     H195009   1.189   8.250   0.289  0.1973 -0.3727  0.7468
23301WAT     H295010   1.248   8.336   0.179  0.3086 -2.2210 -0.6825
23301WAT    EPW95011   1.253   8.301   0.258 -0.0650 -0.3386  0.2367
23302WAT      O95012  -0.654   5.024   6.679 -0.2085  0.3736 -0.2329
23302WAT     H195013  -0.620   5.106   6.716  0.9848 -0.5640  0.8230
23302WAT     H295014  -0.620   4.956   6.736 -2.3433 -0.7941 -0.2304
23302WAT    EPW95015  -0.645   5.026   6.691 -0.3327  0.0958 -0.0932
23303WAT      O95016   6.199   5.551   1.284  0.4544  0.4289 -0.4465
23303WAT     H195017   6.143   5.501   1.225 -0.6595  0.6264  0.4108
23303WAT     H295018   6.226   5.627   1.232 -0.3978  0.5358 -0.7426
23303WAT    EPW95019   6.195   5.554   1.269  0.1950  0.4690 -0.3725
23304WAT      O95020  -0.608   5.769   7.696 -0.3382 -0.9921 -0.5019
23304WAT     H195021  -0.585   5.738   7.784 -0.9447  1.9273  0.8128
23304WAT     H295022  -0.686   5.719   7.672 -1.9527  0.1471  1.9601
23304WAT    EPW95023  -0.615   5.758   7.705 -0.6311 -0.4566 -0.0038
23305WAT      O95024   0.760   2.762   0.349  0.2324  0.0468 -0.6184
23305WAT     H195025   0.753   2.667   0.356 -2.8938  0.0166 -2.2726
23305WAT     H295026   0.843   2.783   0.391  1.2169 -3.4236 -0.4955
23305WAT    EPW95027   0.770   2.752   0.355 -0.0501 -0.4148 -0.8204
23306WAT      O95028   7.467   4.489   0.787 -0.0542  0.4260  0.6669
23306WAT     H195029   7.437   4.403   0.817 -0.0232  0.5801  1.1485
23306WAT     H295030   7.446   4.490   0.694  0.4180 -0.3035  0.5397
23306WAT    EPW95031   7.460   4.478   0.779  0.0122  0.3502  0.7137
23307WAT      O95032  -4.300   8.650   4.576  0.5734 -0.1282  0.2809
23307WAT     H195033  -4.284   8.671   4.668  2.2746 -1.2361  0.2888
23307WAT     H295034  -4.396   8.650   4.567  0.1958 -2.7907  2.7852
23307WAT    EPW95035  -4.311   8.653   4.587  0.7479 -0.6251  0.6123
23308WAT      O95036  -3.484   3.824   7.540  0.1572  0.1061 -0.0963
23308WAT     H195037  -3.579   3.829   7.525  0.1502 -2.9829 -1.7487
23308WAT     H295038  -3.446   3.864   7.461  0.2878  1.3422  0.5658
23308WAT    EPW95039  -3.492   3.830   7.527  0.1736 -0.1383 -0.2270
23309WAT      O95040  -6.475   5.134   8.893 -0.0549  0.2009  0.8853
23309WAT     H195041  -6.388   5.099   8.911  1.0826  1.8012 -1.1694
23309WAT     H295042  -6.467   5.228   8.910 -0.7413  0.7110 -1.3231
23309WAT    EPW95043  -6.463   5.142   8.898  0.0045  0.4790  0.3228
23310WAT      O95044  -0.452  10.195   6.971  0.5263 -0.2560  0.6421
23310WAT     H195045  -0.494  10.232   6.893  0.1219 -3.0410 -0.5806
23310WAT     H295046  -0.368  10.241   6.977 -0.2362  1.3561 -0.2664
23310WAT    EPW95047  -0.447  10.206   6.962  0.3724 -0.4110  0.3612
23311WAT      O95048   1.178   3.453   8.441 -0.0951 -0.2304  0.6514
23311WAT     H195049   1.140   3.366   8.428 -0.7740  0.1273  0.1832
23311WAT     H295050   1.267   3.436   8.471  0.4152 -1.1162 -1.1837
23311WAT    EPW95051   1.185   3.439   8.443 -0.1174 -0.2999  0.3476
23312WAT      O95052   7.505   0.266   3.092  0.7746 -0.1185 -0.3221
23312WAT     H195053   7.564   0.267   3.168  0.4865 -0.9819 -0.0765
23312WAT     H295054   7.498   0.174   3.069  0.9030  0.1441 -1.4405
23312WAT    EPW95055   7.512   0.254   3.099  0.7534 -0.1978 -0.4373
23313WAT      O95056   2.544   9.949   1.708  0.9288 -0.3551  0.8172
23313WAT     H195057   2.511   9.899   1.783 -3.2173 -1.2295 -1.2772
23313WAT     H295058   2.548   9.885   1.637  0.7365  1.1920 -0.6482
23313WAT    EPW95059   2.540   9.934   1.709  0.3567 -0.2661  0.3477
23314WAT      O95060   6.748   1.681   4.658  0.8377 -0.0672 -0.3288
23314WAT     H195061   6.775   1.771   4.678  0.7482 -0.2014  0.4495
23314WAT     H295062   6.807   1.654   4.588  1.0512  0.5003 -0.3803
23314WAT    EPW95063   6.760   1.690   4.652  0.8543 -0.0101 -0.2329
23315WAT      O95064  -0.763   3.920   1.355 -0.6946 -0.2081  1.1691
23315WAT     H195065  -0.799   3.999   1.315 -0.9495 -1.9262 -2.3635
23315WAT     H295066  -0.831   3.892   1.416 -0.9017  1.8556  1.9770
23315WAT    EPW95067  -0.777   3.927   1.358 -0.7556 -0.1626  0.8097
23316WAT      O95068   1.638   8.669   7.824  0.7797  0.3160  1.1715
23316WAT     H195069   1.695   8.702   7.755 -0.2794 -0.2737 -0.0197
23316WAT     H295070   1.577   8.740   7.841  1.0355  0.4587  1.5180
23316WAT    EPW95071   1.638   8.683   7.817  0.6737  0.2570  1.0600
23317WAT      O95072   8.004   1.981   1.646 -0.0318  0.5697  0.2079
23317WAT     H195073   8.094   1.952   1.662 -0.7179 -3.1695 -1.4348
23317WAT     H295074   7.961   1.976   1.732  0.1639 -3.0137  0.2500
23317WAT    EPW95075   8.010   1.976   1.659 -0.0963 -0.3961 -0.0032
23318WAT      O95076  -0.073   7.633   6.320  0.3459  0.1728  0.3334
23318WAT     H195077   0.008   7.589   6.345 -0.8455 -2.6897 -0.4184
23318WAT     H295078  -0.064   7.650   6.227  0.1137 -0.0985  0.2604
23318WAT    EPW95079  -0.062   7.630   6.311  0.1582 -0.2406  0.2246
23319WAT      O95080   6.255   2.364   4.515 -0.3636  0.5896 -0.4685
23319WAT     H195081   6.272   2.290   4.573 -0.4466  0.4641 -0.6030
23319WAT     H295082   6.180   2.409   4.553 -1.0371 -0.0556 -1.0126
23319WAT    EPW95083   6.248   2.360   4.528 -0.4635  0.4879 -0.5579
23320WAT      O95084   5.926   4.221   0.226  0.3511 -0.0271  0.4793
23320WAT     H195085   5.939   4.303   0.272 -0.1055 -0.3486  1.2007
23320WAT     H295086   5.866   4.242   0.155 -0.6885  0.0374  1.3586
23320WAT    EPW95087   5.920   4.234   0.222  0.1540 -0.0610  0.6905
23321WAT      O95088   8.131   1.314   0.062 -0.1831 -0.0842 -0.8001
23321WAT     H195089   8.185   1.261   0.120 -0.8445 -0.6624 -0.7043
23321WAT     H295090   8.099   1.385   0.117  0.5542  0.3292 -0.8846
23321WAT    EPW95091   8.134   1.317   0.077 -0.1726 -0.1059 -0.7986
23322WAT      O95092  -1.492   9.332   2.271 -0.4021  0.1896 -0.6965
23322WAT     H195093  -1.504   9.254   2.218  2.1033 -2.0949  1.7613
23322WAT     H295094  -1.581   9.361   2.292 -1.4248 -1.7509 -2.0383
23322WAT    EPW95095  -1.505   9.326   2.267 -0.2066 -0.3676 -0.5493
23323WAT      O95096   5.034   1.290   8.879 -0.2771  0.1133  0.7099
23323WAT     H195097   5.124   1.260   8.891  0.5649  2.1518 -0.0869
23323WAT     H295098   4.991   1.218   8.833  0.4880 -1.5286  2.4211
23323WAT    EPW95099   5.040   1.277   8.874 -0.0651  0.1656  0.8307
23324WAT      O95100   2.164   6.330   2.287 -0.0952 -0.0264  0.4396
23324WAT     H195101   2.088   6.304   2.235  0.0425  1.8944 -0.8022
23324WAT     H295102   2.220   6.251   2.287 -1.7384 -1.2425  0.8200
23324WAT    EPW95103   2.162   6.316   2.280 -0.2939  0.0668  0.3259
23325WAT      O95104  -2.285   5.796   7.923  0.0201  0.6311  0.5510
23325WAT     H195105  -2.370   5.808   7.881  0.3058  0.5127 -0.0675
23325WAT     H295106  -2.243   5.726   7.873  1.1150  1.7470 -0.1427
23325WAT    EPW95107  -2.291   5.789   7.911  0.2022  0.7627  0.3779
23326WAT      O95108   1.691   4.970   8.860 -0.2961  0.0207  0.8163
23326WAT     H195109   1.597   4.955   8.855 -0.3306  0.2545  0.7723
23326WAT     H295110   1.729   4.901   8.805 -0.4624  0.1698  0.5133
23326WAT    EPW95111   1.684   4.959   8.852 -0.3226  0.0710  0.7706
23327WAT      O95112  -6.679   9.899   8.672  0.3919  0.0049  0.1390
23327WAT     H195113  -6.763   9.863   8.645 -0.3792  2.6760 -1.3952
23327WAT     H295114  -6.674   9.881   8.766 -2.2169  0.3123  0.4115
23327WAT    EPW95115  -6.689   9.892   8.681 -0.0539  0.3977 -0.0277
23328WAT      O95116   6.641   2.071   5.900 -0.0715  0.3250 -0.8131
23328WAT     H195117   6.628   2.015   5.823  0.7574 -0.5467 -0.3400
23328WAT     H295118   6.564   2.055   5.954  0.4981 -0.9594 -0.3428
23328WAT    EPW95119   6.629   2.061   5.897  0.1130  0.0407 -0.6886
23329WAT      O95120  -0.358   6.173   4.741  0.0189 -0.4068  0.7999
23329WAT     H195121  -0.443   6.190   4.782 -0.7170 -2.6496  0.3303
23329WAT     H295122  -0.338   6.254   4.693 -1.5287  0.3857  1.4092
23329WAT    EPW95123  -0.367   6.186   4.740 -0.2823 -0.5982  0.8183
23330WAT      O95124  -0.850   8.657   8.084 -0.0079  0.1204 -0.7530
23330WAT     H195125  -0.812   8.692   8.004 -0.7120  3.5178  0.2493
23330WAT     H295126  -0.932   8.616   8.055 -0.6102  1.9255 -1.7272
23330WAT    EPW95127  -0.856   8.656   8.069 -0.1802  0.8063 -0.7496
23331WAT      O95128   7.127   0.531   5.867  0.3024 -0.3824 -0.3986
23331WAT     H195129   7.197   0.576   5.818  0.7270 -1.1043 -0.4741
23331WAT     H295130   7.169   0.451   5.900 -0.8404 -1.5387 -1.6175
23331WAT    EPW95131   7.142   0.526   5.865  0.2074 -0.6301 -0.5691
23332WAT      O95132   4.073   0.261   1.894 -0.1632  0.5058 -0.5910
23332WAT     H195133   4.004   0.301   1.947 -0.1985  2.7015 -2.1315
23332WAT     H295134   4.056   0.293   1.806  1.3773 -0.9701 -1.4825
23332WAT    EPW95135   4.061   0.270   1.889  0.0353  0.6008 -0.9118
23333WAT      O95136  -4.363   8.486   6.002 -0.1636 -0.1556  0.1004
23333WAT     H195137  -4.342   8.394   5.988 -1.2784 -0.2305 -1.3714
23333WAT     H295138  -4.323   8.532   5.928 -1.7195  0.1736 -0.5893
23333WAT    EPW95139  -4.355   8.480   5.990 -0.5159 -0.1221 -0.1845
23334WAT      O95140   0.616   9.917   1.794  0.5170  0.4808  0.1969
23334WAT     H195141   0.586   9.997   1.752  0.1049 -1.7696 -4.4356
23334WAT     H295142   0.686   9.885   1.737 -1.2737 -3.8176 -0.0023
23334WAT    EPW95143   0.621   9.923   1.781  0.2265 -0.3829 -0.4404
23335WAT      O95144  -2.707   7.579   6.312 -0.3443 -0.0267  0.0626
23335WAT     H195145  -2.701   7.547   6.402 -4.7522  0.3196  0.6981
23335WAT     H295146  -2.616   7.592   6.285  1.2535 -2.1075  3.6862
23335WAT    EPW95147  -2.695   7.576   6.320 -0.7150 -0.2556  0.6247
23336WAT      O95148   5.217   0.487   8.915 -0.7692 -0.9200 -0.9474
23336WAT     H195149   5.267   0.564   8.889 -2.1922  0.1020 -0.7692
23336WAT     H295150   5.281   0.430   8.957  0.3935 -0.0130 -1.4333
23336WAT    EPW95151   5.232   0.490   8.917 -0.8037 -0.6656 -0.9880
23337WAT      O95152   0.802  10.000   2.022  0.1067 -0.0440  0.2167
23337WAT     H195153   0.746   9.972   1.949  1.0874  0.9742 -0.9628
23337WAT     H295154   0.881   9.948   2.013  1.0777  1.5334 -0.7211
23337WAT    EPW95155   0.805   9.989   2.012  0.3641  0.2985 -0.0626
23338WAT      O95156   1.990   0.728   3.287 -0.4867 -0.7775 -0.1656
23338WAT     H195157   2.033   0.794   3.341  2.2839 -2.6010  0.0420
23338WAT     H295158   1.994   0.763   3.198  0.0962 -0.2544  0.0641
23338WAT    EPW95159   1.996   0.741   3.282 -0.0443 -0.9490 -0.1079
23339WAT      O95160  -2.329   6.466   2.182 -0.0088 -0.0842  0.5567
23339WAT     H195161  -2.338   6.552   2.223  0.1381  0.3286 -0.2560
23339WAT     H295162  -2.235   6.457   2.166 -0.0768 -0.1912  0.2164
23339WAT    EPW95163  -2.318   6.476   2.185  0.0015 -0.0439  0.4047
23340WAT      O95164  -3.121   2.770   4.550  0.3027  0.0618 -0.4586
23340WAT     H195165  -3.097   2.683   4.582  3.7285  0.7936 -0.6636
23340WAT     H295166  -3.116   2.826   4.627 -2.1741  0.1178 -0.2694
23340WAT    EPW95167  -3.117   2.766   4.564  0.4280  0.1656 -0.4606
23341WAT      O95168  -0.046   8.211   4.847 -0.1896 -0.4106 -0.0179
23341WAT     H195169  -0.113   8.163   4.798 -0.6403  0.5795 -0.4170
23341WAT     H295170   0.011   8.248   4.780 -0.2158  0.1143  0.2392
23341WAT    EPW95171  -0.047   8.210   4.832 -0.2525 -0.2108 -0.0367
23342WAT      O95172   5.742   2.115   6.563 -0.4112 -0.0985  0.5444
23342WAT     H195173   5.776   2.031   6.533  1.4933  0.6056  0.6205
23342WAT     H295174   5.751   2.112   6.658  0.4654  0.5106  0.4851
23342WAT    EPW95175   5.748   2.103   6.572 -0.0443  0.0747  0.5465
23343WAT      O95176   6.078   8.407   0.588  0.5343 -0.1299  0.1258
23343WAT     H195177   6.132   8.484   0.603  0.4106 -0.1156  0.5189
23343WAT     H295178   6.120   8.362   0.515 -0.9184  1.7359 -2.0079
23343WAT    EPW95179   6.090   8.411   0.581  0.3264  0.1178 -0.1038
23344WAT      O95180   0.957   5.071   0.705  0.0290 -1.2334 -0.7446
23344WAT     H195181   1.052   5.071   0.718  0.1676 -0.4548 -1.6252
23344WAT     H295182   0.938   5.158   0.670 -1.2884 -0.6585  1.2410
23344WAT    EPW95183   0.967   5.083   0.702 -0.1265 -1.0548 -0.5988
23345WAT      O95184   2.643   5.754   2.646 -0.0126 -0.0026 -0.3337
23345WAT     H195185   2.697   5.785   2.573 -0.7743  1.7564 -0.1996
23345WAT     H295186   2.554   5.749   2.610 -0.2538  0.0439  0.2410
23345WAT    EPW95187   2.638   5.758   2.631 -0.1450  0.2356 -0.2402
23346WAT      O95188  -3.771   9.870   5.127  0.0684  0.1029  0.0305
23346WAT     H195189  -3.864   9.867   5.105  0.5672 -3.7566 -2.6279
23346WAT     H295190  -3.767   9.851   5.221 -1.8576 -3.2177 -0.4290
23346WAT    EPW95191  -3.783   9.867   5.136 -0.1198 -0.8440 -0.3808
23347WAT      O95192   5.310   7.674   2.050  0.0980 -0.4939  0.8355
23347WAT     H195193   5.364   7.688   2.128  0.5731 -1.6307  0.7294
23347WAT     H295194   5.370   7.635   1.986 -0.0157  1.3958 -0.4999
23347WAT    EPW95195   5.325   7.670   2.052  0.1454 -0.3948  0.6455
23348WAT      O95196   5.125   6.647   1.815 -0.7014  0.3606  0.4902
23348WAT     H195197   5.103   6.583   1.748  1.2923  2.2533 -2.1469
23348WAT     H295198   5.041   6.667   1.857 -1.8762 -1.5577 -0.7631
23348WAT    EPW95199   5.111   6.641   1.812 -0.5932  0.3572 -0.0229
23349WAT      O95200   5.574   5.698   0.734  0.0998 -0.3678 -0.6077
23349WAT     H195201   5.635   5.762   0.772  1.3217 -1.5161 -0.5357
23349WAT     H295202   5.597   5.616   0.777 -0.9401 -1.0018 -1.2323
23349WAT    EPW95203   5.585   5.696   0.744  0.1237 -0.6030 -0.6806
23350WAT      O95204   6.178   4.550   1.121  0.1016 -0.2697  0.0360
23350WAT     H195205   6.184   4.619   1.186 -0.4143 -2.5330  2.6861
23350WAT     H295206   6.176   4.469   1.172 -2.6251 -2.1254 -2.6540
23350WAT    EPW95207   6.178   4.548   1.136 -0.3259 -0.8132  0.0307
23351WAT      O95208   7.642   0.784   1.024 -0.2853 -0.4479 -0.2605
23351WAT     H195209   7.616   0.822   1.108  2.7435 -2.1269  1.6207
23351WAT     H295210   7.597   0.700   1.020 -0.2128 -0.4934 -0.1389
23351WAT    EPW95211   7.633   0.778   1.034  0.1237 -0.6754  0.0036
23352WAT      O95212  -7.162   8.773   8.468 -0.5880  1.1648  0.4237
23352WAT     H195213  -7.170   8.701   8.530 -3.5391 -0.9662 -2.1533
23352WAT     H295214  -7.111   8.736   8.395 -3.7682  0.8201 -1.8095
23352WAT    EPW95215  -7.156   8.758   8.466 -1.3967  0.8383 -0.2103
23353WAT      O95216  -1.377   9.953   6.044 -0.4566 -0.6278 -0.0456
23353WAT     H195217  -1.284   9.971   6.052 -0.3462 -0.4109 -1.5160
23353WAT     H295218  -1.383   9.858   6.035 -0.4754 -0.7377  0.9894
23353WAT    EPW95219  -1.366   9.943   6.044 -0.4445 -0.6137 -0.1030
23354WAT      O95220   5.553  10.345   1.111 -0.4491  0.3371 -0.0806
23354WAT     H195221   5.598  10.371   1.030  1.1585  2.6122  1.4250
23354WAT     H295222   5.608  10.276   1.148 -0.4298  0.2767 -0.2210
23354WAT    EPW95223   5.566  10.339   1.105 -0.2344  0.6294  0.0995
23355WAT      O95224  -2.347   2.663   6.275  0.4682 -0.2908 -0.5814
23355WAT     H195225  -2.280   2.645   6.209  1.7012  0.5415  0.4030
23355WAT     H295226  -2.305   2.643   6.358  0.4769  2.7615  0.2692
23355WAT    EPW95227  -2.333   2.658   6.277  0.6320  0.2216 -0.3395
23356WAT      O95228   1.022   0.612   2.121 -0.8931 -0.6090 -0.5436
23356WAT     H195229   1.083   0.552   2.078  0.0451  0.8110 -1.2425
23356WAT     H295230   1.045   0.698   2.087 -2.5585  0.1021  0.0473
23356WAT    EPW95231   1.033   0.615   2.111 -0.9890 -0.3279 -0.5578
23357WAT      O95232  -4.245   7.840   5.051  0.2818  0.2657  0.1264
23357WAT     H195233  -4.190   7.769   5.018  0.1099  1.4719 -3.1137
23357WAT     H295234  -4.185   7.913   5.064 -0.2425  1.3219 -2.5968
23357WAT    EPW95235  -4.230   7.841   5.048  0.1898  0.5641 -0.6602
23358WAT      O95236  -4.664   6.171   6.147 -0.2630 -0.1730 -0.4230
23358WAT     H195237  -4.615   6.248   6.119  0.3562 -0.2582  0.3776
23358WAT     H295238  -4.614   6.136   6.220 -1.1565 -0.6728 -0.0273
23358WAT    EPW95239  -4.651   6.176   6.153 -0.2992 -0.2501 -0.2654
23359WAT      O95240   8.083   1.425   1.592  0.0887 -0.0292 -0.1230
23359WAT     H195241   7.987   1.422   1.591  0.0758 -0.2515  0.8740
23359WAT     H295242   8.109   1.344   1.636  0.8372 -1.2032 -2.5189
23359WAT    EPW95243   8.074   1.414   1.597  0.1855 -0.2133 -0.3074
23360WAT      O95244  -3.306   4.423   8.511 -0.3543 -0.0780  0.5649
23360WAT     H195245  -3.226   4.475   8.517 -0.7607  1.2617 -3.0206
23360WAT     H295246  -3.374   4.487   8.491 -1.9890 -1.4248  1.6084
23360WAT    EPW95247  -3.304   4.438   8.509 -0.6236 -0.0792  0.2298
23361WAT      O95248   2.301   2.739   0.630 -0.2403 -0.1146  0.2208
23361WAT     H195249   2.321   2.832   0.629 -0.2171 -0.0850 -1.7472
23361WAT     H295250   2.358   2.702   0.563  0.3738 -1.7149  1.5600
23361WAT    EPW95251   2.311   2.746   0.621 -0.1563 -0.3216  0.1379
23362WAT      O95252   0.214   9.624   2.771  0.0487 -0.0111  0.2660
23362WAT     H195253   0.183   9.564   2.839 -1.4217  0.4789  0.0616
23362WAT     H295254   0.135   9.665   2.737  0.8922  0.8938 -0.6893
23362WAT    EPW95255   0.200   9.622   2.775 -0.0339  0.1731  0.1130
23363WAT      O95256   3.404   9.927   1.058  0.2733 -0.3238 -0.2396
23363WAT     H195257   3.394   9.994   1.125  2.2585 -0.8991  0.7212
23363WAT     H295258   3.429   9.848   1.107  3.0502 -0.4498 -1.6808
23363WAT    EPW95259   3.406   9.925   1.074  0.9013 -0.4163 -0.3030
23364WAT      O95260   3.908   4.447   7.953 -0.0436 -0.0347 -0.1497
23364WAT     H195261   3.869   4.386   7.890 -0.0907  0.4395 -0.5915
23364WAT     H295262   3.846   4.451   8.025 -0.5799  0.3371 -0.6256
23364WAT    EPW95263   3.895   4.440   7.954 -0.1205  0.0768 -0.2708
23365WAT      O95264  -3.060   6.509   7.737 -0.3108 -0.0293 -0.0366
23365WAT     H195265  -3.108   6.478   7.661  1.5178  0.9020 -1.6579
23365WAT     H295266  -3.034   6.429   7.783 -2.0551 -0.5786  0.0668
23365WAT    EPW95267  -3.063   6.494   7.733 -0.2997  0.0212 -0.2370
23366WAT      O95268   0.993   5.622   1.400  0.3863 -0.2505  0.2773
23366WAT     H195269   0.992   5.665   1.485 -0.1357  1.0584 -0.3585
23366WAT     H295270   0.901   5.606   1.380 -0.1636  4.3297 -2.3039
23366WAT    EPW95271   0.981   5.626   1.408  0.2449  0.5264 -0.1470
23367WAT      O95272   3.606   5.033   5.694  0.6858 -0.0360 -0.0645
23367WAT     H195273   3.584   4.990   5.777 -0.1147 -0.9145 -0.7148
23367WAT     H295274   3.590   5.126   5.710  2.4291  0.0766  1.3643
23367WAT    EPW95275   3.601   5.040   5.707  0.8101 -0.1371  0.0381
23368WAT      O95276  -1.751   4.879   6.301  0.3806 -1.3607 -0.0837
23368WAT     H195277  -1.671   4.833   6.324  0.2534 -0.8712  1.4511
23368WAT     H295278  -1.764   4.861   6.208  1.6510 -2.3680 -0.0808
23368WAT    EPW95279  -1.743   4.871   6.292  0.5314 -1.4288  0.1192
23369WAT      O95280   4.588   3.556   6.907  0.1114  0.0495 -0.0066
23369WAT     H195281   4.501   3.519   6.920 -0.8917  0.7818 -3.5957
23369WAT     H295282   4.574   3.637   6.858  2.7491  1.0059  0.6163
23369WAT    EPW95283   4.575   3.561   6.902  0.3271  0.2722 -0.3979
23370WAT      O95284   6.533   7.766   2.068  0.1170 -0.7776 -0.6049
23370WAT     H195285   6.472   7.820   2.119 -0.9028 -1.2617 -1.2971
23370WAT     H295286   6.595   7.733   2.133  1.8726  2.5403 -0.3220
23370WAT    EPW95287   6.533   7.769   2.083  0.2141 -0.4036 -0.6589
23371WAT      O95288   2.049   9.915   0.389  0.2394  0.0422 -0.2767
23371WAT     H195289   2.131   9.866   0.393  0.1606 -0.2022 -1.5360
23371WAT     H295290   2.076  10.003   0.362  0.1134  0.0398 -0.4078
23371WAT    EPW95291   2.064   9.920   0.386  0.2124  0.0095 -0.4601
23372WAT      O95292  -5.199   3.331   7.977  0.6584  0.8895 -0.7350
23372WAT     H195293  -5.176   3.423   7.962 -1.1954  1.5055 -0.0556
23372WAT     H295294  -5.270   3.335   8.041  0.3093 -1.0166 -0.9677
23372WAT    EPW95295  -5.205   3.344   7.984  0.3681  0.7193 -0.6762
23373WAT      O95296   2.465   7.187   7.542 -0.4448 -0.1804  0.1001
23373WAT     H195297   2.463   7.109   7.487  2.9178  0.7124 -1.5869
23373WAT     H295298   2.531   7.243   7.501  0.0516  1.9083  3.3998
23373WAT    EPW95299   2.473   7.184   7.529  0.0641  0.2129  0.3128
23374WAT      O95300  -0.499   0.482   3.405  0.7237  1.0994 -0.1481
23374WAT     H195301  -0.411   0.517   3.390  0.9602 -0.4438 -3.0424
23374WAT     H295302  -0.524   0.443   3.321 -1.1821 -1.8731  1.6260
23374WAT    EPW95303  -0.490   0.481   3.392  0.5036  0.5038 -0.2959
23375WAT      O95304   1.672   9.717   8.814  0.4677 -0.2058  0.2957
23375WAT     H195305   1.725   9.637   8.810 -1.1316 -1.6081  3.6293
23375WAT     H295306   1.585   9.690   8.786 -0.0264  0.3826  1.2024
23375WAT    EPW95307   1.668   9.703   8.810  0.1916 -0.3128  0.8550
23376WAT      O95308  -1.822   0.195   4.436  0.2503 -0.3620 -0.0937
23376WAT     H195309  -1.893   0.230   4.383  1.3586 -0.8597 -1.9944
23376WAT     H295310  -1.755   0.263   4.433  0.0803 -0.1055  1.2778
23376WAT    EPW95311  -1.823   0.208   4.429  0.3741 -0.3938 -0.1633
23377WAT      O95312   4.053   1.992   8.495 -0.1204 -0.2204 -0.3534
23377WAT     H195313   4.000   1.916   8.472  0.6460 -0.5724 -1.0043
23377WAT     H295314   4.134   1.981   8.445  0.3903  0.5311  0.2859
23377WAT    EPW95315   4.057   1.981   8.485  0.0479 -0.1677 -0.3548
23378WAT      O95316  -5.248   5.914   5.807  0.5893 -0.2978  0.1878
23378WAT     H195317  -5.283   5.900   5.719  0.5606  0.9063 -0.0019
23378WAT     H295318  -5.168   5.964   5.794  1.6723 -1.7947  0.7302
23378WAT    EPW95319  -5.242   5.919   5.793  0.7284 -0.3364  0.2341
23379WAT      O95320   6.025   5.379   4.084  0.0689  0.8044  0.2647
23379WAT     H195321   6.003   5.288   4.067 -0.6862  1.0639 -0.1800
23379WAT     H295322   6.115   5.376   4.117 -0.0695 -0.1246  0.5855
23379WAT    EPW95323   6.034   5.367   4.086 -0.0489  0.7162  0.2484
23380WAT      O95324   6.776   9.020   0.769 -0.9770 -0.0772 -0.2176
23380WAT     H195325   6.847   8.965   0.736 -0.6615 -0.1649  0.5805
23380WAT     H295326   6.779   9.099   0.716 -0.7095 -0.3603 -0.6268
23380WAT    EPW95327   6.786   9.023   0.758 -0.8998 -0.1264 -0.1663
23381WAT      O95328   0.617   7.485   1.251  0.6240  0.8706  0.0240
23381WAT     H195329   0.541   7.452   1.204  2.8952 -2.5391 -1.6652
23381WAT     H295330   0.667   7.533   1.186  0.4167  2.2680  0.8697
23381WAT    EPW95331   0.614   7.487   1.236  0.8962  0.6051 -0.0873
23382WAT      O95332   0.044   3.450   3.067  0.2465 -0.4643 -0.6300
23382WAT     H195333   0.040   3.520   3.002 -0.4848  2.1195  1.9502
23382WAT     H295334   0.136   3.449   3.096 -0.1302  0.9196  0.7300
23382WAT    EPW95335   0.056   3.459   3.062  0.1004  0.0590 -0.1105
23383WAT      O95336   0.844   9.440   7.832  0.3900 -0.6193 -0.0696
23383WAT     H195337   0.817   9.484   7.913  1.6111 -0.1724  0.1064
23383WAT     H295338   0.771   9.381   7.812 -0.4147  0.0777  0.7441
23383WAT    EPW95339   0.831   9.438   7.840  0.4449 -0.4683  0.0610
23384WAT      O95340   4.595   8.105   1.256 -0.1254 -0.7938  0.6492
23384WAT     H195341   4.601   8.127   1.349 -1.1829  1.3159  0.2739
23384WAT     H295342   4.685   8.080   1.232  0.9460  1.8358  1.5361
23384WAT    EPW95343   4.608   8.104   1.265 -0.1235 -0.1688  0.7167
23385WAT      O95344   1.190   5.973   7.129  0.0793  0.3060  0.1117
23385WAT     H195345   1.115   5.949   7.182  0.5257  0.7999  0.9797
23385WAT     H295346   1.237   6.038   7.181  0.7639  0.4783 -0.6949
23385WAT    EPW95347   1.186   5.979   7.143  0.2285  0.3939  0.1199
23386WAT      O95348  -7.265   9.251   7.781  0.2171  0.7966  0.3597
23386WAT     H195349  -7.232   9.333   7.818 -0.0508 -0.0293  2.5598
23386WAT     H295350  -7.188   9.193   7.780  0.0906  0.6313  0.1270
23386WAT    EPW95351  -7.250   9.254   7.786  0.1652  0.6661  0.6192
23387WAT      O95352   2.929   0.369   6.985  0.2464 -0.0043  0.1365
23387WAT     H195353   2.881   0.422   7.049 -2.8263 -1.8195 -0.4638
23387WAT     H295354   2.959   0.432   6.920 -1.5142  1.2798  0.4773
23387WAT    EPW95355   2.926   0.385   6.985 -0.3911 -0.0744  0.1020
23388WAT      O95356   4.158   8.199   1.293 -0.3600 -0.9032 -1.0700
23388WAT     H195357   4.087   8.192   1.356 -0.3608  1.8630 -0.6533
23388WAT     H295358   4.118   8.171   1.210 -1.3018 -1.4350 -0.4600
23388WAT    EPW95359   4.143   8.194   1.290 -0.4845 -0.6084 -0.9346
23389WAT      O95360   3.831   5.028   1.816 -0.4769  0.0453 -0.1674
23389WAT     H195361   3.775   4.981   1.877 -0.7053  0.6034  0.0562
23389WAT     H295362   3.859   4.962   1.753  0.0526 -0.6133  0.7474
23389WAT    EPW95363   3.827   5.013   1.816 -0.4371  0.0322 -0.0172
23390WAT      O95364  -0.590   6.696   1.603 -0.0854 -0.2978 -0.4319
23390WAT     H195365  -0.544   6.726   1.524  0.6930  0.3170  0.2300
23390WAT     H295366  -0.652   6.766   1.623 -0.0911 -0.3269 -0.3463
23390WAT    EPW95367  -0.592   6.710   1.595  0.0165 -0.2205 -0.3332
23391WAT      O95368   6.309   0.588   5.425  0.2287  0.5342  0.3754
23391WAT     H195369   6.395   0.607   5.385  0.0489  0.2262 -0.1646
23391WAT     H295370   6.304   0.493   5.425 -0.0845  0.5530  0.4724
23391WAT    EPW95371   6.320   0.578   5.420  0.1636  0.4960  0.3171
23392WAT      O95372  -1.962   7.149   5.510  0.1160 -0.5246 -0.3986
23392WAT     H195373  -1.969   7.210   5.582 -0.6326  0.4887 -1.3095
23392WAT     H295374  -1.874   7.111   5.520 -0.2825 -1.0545  1.5048
23392WAT    EPW95375  -1.951   7.152   5.521 -0.0353 -0.4606 -0.2680
23393WAT      O95376   4.530   9.908   3.524  0.0575 -1.1700 -0.2678
23393WAT     H195377   4.583   9.832   3.502  0.8338 -0.3524 -1.3132
23393WAT     H295378   4.519   9.955   3.441  1.3117  0.9196  0.6522
23393WAT    EPW95379   4.535   9.904   3.511  0.3252 -0.7863 -0.2843
23394WAT      O95380   6.365   7.628   2.436 -0.0454 -0.5132 -0.0620
23394WAT     H195381   6.359   7.654   2.528  1.4693  2.0295 -0.5860
23394WAT     H295382   6.455   7.599   2.425  0.2016  0.5358 -1.0116
23394WAT    EPW95383   6.376   7.627   2.447  0.1869 -0.0396 -0.2564
23395WAT      O95384  -0.171   3.566   4.569 -0.4576 -0.3026  0.0289
23395WAT     H195385  -0.138   3.652   4.595  1.6508 -1.0809  0.0958
23395WAT     H295386  -0.196   3.576   4.478  1.5805 -0.0392 -0.5562
23395WAT    EPW95387  -0.170   3.579   4.561  0.0893 -0.3705 -0.0396
23396WAT      O95388  -0.379   9.883   1.352  0.1243  0.1743 -0.6332
23396WAT     H195389  -0.323   9.806   1.341  0.9446  0.6605  0.0102
23396WAT     H295390  -0.453   9.851   1.403 -0.6368 -0.6629 -2.1826
23396WAT    EPW95391  -0.381   9.869   1.357  0.1321  0.1278 -0.7527
23397WAT      O95392   2.530   1.440   8.703 -0.1522  0.2072 -0.1517
23397WAT     H195393   2.536   1.488   8.621 -0.6970 -0.0716 -0.3617
23397WAT     H295394   2.440   1.407   8.704 -0.3286  0.6675  0.8101
23397WAT    EPW95395   2.519   1.442   8.693 -0.2474  0.2311 -0.0529
23398WAT      O95396   3.076   8.564   0.970  0.1374  0.1096  0.1851
23398WAT     H195397   3.064   8.484   0.919  0.3218 -1.6188  2.6781
23398WAT     H295398   2.995   8.613   0.956 -0.3225 -0.8653 -0.7573
23398WAT    EPW95399   3.064   8.560   0.961  0.1011 -0.2465  0.3896
23399WAT      O95400   1.084   6.090   4.860 -0.2184  0.2791 -0.6046
23399WAT     H195401   1.133   6.020   4.816 -1.3717 -0.6355 -0.4828
23399WAT     H295402   1.067   6.154   4.791  0.7379  0.3903 -0.7492
23399WAT    EPW95403   1.089   6.089   4.845 -0.2443  0.1731 -0.6075
23400WAT      O95404   3.036   6.602   1.043  0.2525  0.3220  0.2321
23400WAT     H195405   3.130   6.617   1.031  0.2403 -0.5287 -1.1650
23400WAT     H295406   3.022   6.513   1.012 -1.5781  1.5672 -2.9453
23400WAT    EPW95407   3.047   6.592   1.038  0.0094  0.3741 -0.3712
23401WAT      O95408   1.206   8.784   7.985  0.0994  0.7651  0.7064
23401WAT     H195409   1.160   8.702   7.999  0.3783 -0.2743 -3.1462
23401WAT     H295410   1.140   8.852   7.998 -0.9139 -0.2784  1.1217
23401WAT    EPW95411   1.191   8.782   7.988  0.0026  0.4907  0.2530
23402WAT      O95412   2.258   3.502   5.979 -0.4404 -0.0065  0.0339
23402WAT     H195413   2.247   3.559   6.055  0.8701 -1.7473  1.6065
23402WAT     H295414   2.330   3.542   5.930 -0.2717  0.3007  0.5215
23402WAT    EPW95415   2.266   3.515   5.983 -0.2453 -0.1956  0.3054
23403WAT      O95416   8.006   2.197   0.845  0.4971 -0.1604  0.0064
23403WAT     H195417   8.042   2.256   0.780 -4.5564  0.8592 -2.3629
23403WAT     H295418   7.975   2.121   0.795 -2.0950 -0.1066  1.3529
23403WAT    EPW95419   8.007   2.195   0.830 -0.5112 -0.0190 -0.1285
23404WAT      O95420  -3.237   9.696   1.980 -0.1155 -0.1891  0.3326
23404WAT     H195421  -3.317   9.671   2.025  0.3758 -1.4688  0.5499
23404WAT     H295422  -3.236   9.792   1.984 -2.2884 -0.0700 -0.8735
23404WAT    EPW95423  -3.247   9.705   1.987 -0.3375 -0.3419  0.2022
23405WAT      O95424  -0.895   9.395   0.201  0.2182 -0.2378  0.2319
23405WAT     H195425  -0.894   9.459   0.272  0.1482  0.6284 -0.5203
23405WAT     H295426  -0.807   9.357   0.202  1.4097  2.1585 -1.2501
23405WAT    EPW95427  -0.883   9.398   0.210  0.3661  0.1922 -0.0628
23406WAT      O95428   3.712   4.644   5.163 -0.6222  0.3313  0.5662
23406WAT     H195429   3.630   4.654   5.212 -0.1877 -0.6215  1.5166
23406WAT     H295430   3.735   4.551   5.173  1.8646  1.0334  2.4520
23406WAT    EPW95431   3.704   4.633   5.171 -0.2369  0.2983  0.9401
23407WAT      O95432  -1.827   5.515   4.139 -0.1206 -0.1366 -0.9202
23407WAT     H195433  -1.764   5.507   4.211 -1.3915 -1.0788  0.1305
23407WAT     H295434  -1.856   5.426   4.122 -2.0928  0.3841 -0.5046
23407WAT    EPW95435  -1.822   5.502   4.147 -0.5484 -0.1922 -0.7267
23408WAT      O95436  -2.681   2.070   7.109  0.7948 -0.5132 -1.2560
23408WAT     H195437  -2.616   2.016   7.154 -0.7195 -1.1020  0.3536
23408WAT     H295438  -2.646   2.082   7.021  3.0210 -0.8644 -0.4722
23408WAT    EPW95439  -2.668   2.064   7.103  0.8887 -0.6372 -0.9403
23409WAT      O95440   2.051   6.107   5.608  0.3005 -0.6358 -0.0698
23409WAT     H195441   2.059   6.094   5.513 -0.1132  0.5005 -0.2754
23409WAT     H295442   1.997   6.033   5.638 -0.3959 -0.4762 -0.8825
23409WAT    EPW95443   2.045   6.095   5.599  0.1541 -0.4649 -0.2041
23410WAT      O95444   7.215   1.550   1.291 -0.7428  0.0991  0.5916
23410WAT     H195445   7.226   1.604   1.369  0.7241 -1.7341  1.7662
23410WAT     H295446   7.162   1.475   1.320  0.8521 -1.2397  0.2165
23410WAT    EPW95447   7.209   1.547   1.305 -0.3390 -0.3193  0.6970
23411WAT      O95448   7.493   1.019   1.694  0.1219 -0.5586  0.6060
23411WAT     H195449   7.503   0.930   1.730  2.2954 -0.0764  1.3060
23411WAT     H295450   7.450   1.068   1.764 -1.9558 -1.2076 -0.1261
23411WAT    EPW95451   7.488   1.014   1.708  0.1345 -0.5805  0.6017
23412WAT      O95452   8.781   3.278   0.071  0.4395 -0.6268 -0.3290
23412WAT     H195453   8.821   3.362   0.093 -0.8780 -0.0950  0.1124
23412WAT     H295454   8.754   3.287  -0.021 -0.1376 -0.3719 -0.1416
23412WAT    EPW95455   8.783   3.290   0.062  0.1898 -0.5230 -0.2461
23413WAT      O95456  -0.667   3.203   8.732 -0.0982 -0.0470  0.1620
23413WAT     H195457  -0.657   3.222   8.825 -0.6865  2.0096 -0.1494
23413WAT     H295458  -0.718   3.122   8.730  1.7167 -1.3069  1.5909
23413WAT    EPW95459  -0.673   3.195   8.744  0.0636  0.0581  0.3095
23414WAT      O95460   2.464   4.399   3.563 -0.3642  0.2750  0.0771
23414WAT     H195461   2.497   4.467   3.505 -1.0888  0.2748 -0.3394
23414WAT     H295462   2.409   4.344   3.507  0.6896 -1.0289  0.2477
23414WAT    EPW95463   2.461   4.401   3.548 -0.3207  0.1032  0.0447
23415WAT      O95464   1.793   0.902   8.210 -0.1127  0.0694 -0.1719
23415WAT     H195465   1.728   0.968   8.187 -0.5751 -0.9053 -1.8947
23415WAT     H295466   1.874   0.951   8.224 -1.1340  1.2876  1.8890
23415WAT    EPW95467   1.795   0.917   8.209 -0.3084  0.1015 -0.1273
23416WAT      O95468  -0.347   1.460   3.231  0.6001 -0.1226 -0.4948
23416WAT     H195469  -0.442   1.462   3.235  0.5999  2.3729 -0.0977
23416WAT     H295470  -0.319   1.476   3.321  1.3805 -0.3836 -0.6845
23416WAT    EPW95471  -0.356   1.462   3.243  0.7030  0.1721 -0.4674
23417WAT      O95472   0.523   5.466   4.116  0.1254  0.0882  0.2105
23417WAT     H195473   0.443   5.516   4.132 -1.4402 -2.7350  2.0863
23417WAT     H295474   0.493   5.376   4.104  2.8474 -0.6793 -2.0649
23417WAT    EPW95475   0.508   5.461   4.116  0.2779 -0.3855  0.1578
23418WAT      O95476   2.664   4.178   5.231 -0.2140  0.5450  0.6708
23418WAT     H195477   2.671   4.266   5.268  0.2051 -0.8610  4.3286
23418WAT     H295478   2.570   4.167   5.214 -0.2640  1.6779  0.1157
23418WAT    EPW95479   2.652   4.188   5.233 -0.1652  0.5090  1.0800
23419WAT      O95480   1.918   9.343   8.518  0.0997 -0.5405  0.0346
23419WAT     H195481   1.999   9.379   8.556 -0.2492 -0.0794  0.3503
23419WAT     H295482   1.931   9.350   8.424  0.2462 -0.0398  0.0884
23419WAT    EPW95483   1.931   9.349   8.511  0.0730 -0.4134  0.0834
23420WAT      O95484  -4.499   3.872   6.698  0.1690 -0.3587 -0.4489
23420WAT     H195485  -4.471   3.958   6.729 -1.6276  0.0915  0.0768
23420WAT     H295486  -4.512   3.883   6.604  1.2831 -0.4563 -0.6194
23420WAT    EPW95487  -4.497   3.884   6.690  0.0792 -0.3122 -0.4020
23421WAT      O95488  -2.039   1.052   4.272  0.2256  0.2870 -0.0985
23421WAT     H195489  -2.120   1.022   4.313  0.3533  1.6673  1.2879
23421WAT     H295490  -2.051   1.147   4.264  2.2257  0.7372  1.4723
23421WAT    EPW95491  -2.052   1.061   4.277  0.5063  0.5284  0.2913
23422WAT      O95492   4.856  10.237   3.000 -0.0993 -0.2464  0.0133
23422WAT     H195493   4.864  10.214   2.908  0.9646  1.0842 -0.2652
23422WAT     H295494   4.773  10.285   3.005 -0.5411 -0.9789 -0.0828
23422WAT    EPW95495   4.846  10.240   2.989 -0.0172 -0.1674 -0.0361
23423WAT      O95496   1.436   0.473   6.023  0.9215  0.5869 -0.0930
23423WAT     H195497   1.364   0.535   6.031 -1.4233 -1.6631 -1.8192
23423WAT     H295498   1.482   0.499   5.943  1.9826  1.8953  0.8945
23423WAT    EPW95499   1.433   0.484   6.013  0.7522  0.4627 -0.1905
23424WAT      O95500  -1.186   5.198   6.969  0.6535  0.0791  0.1908
23424WAT     H195501  -1.261   5.186   6.911  1.6003 -1.8515 -0.7324
23424WAT     H295502  -1.141   5.275   6.934  0.3220 -0.0880 -0.6423
23424WAT    EPW95503  -1.190   5.207   6.957  0.7347 -0.1979 -0.0410
23425WAT      O95504   3.880   6.436   4.786  0.3930  0.2157 -0.8154
23425WAT     H195505   3.850   6.366   4.728  1.2452 -1.1752  0.3738
23425WAT     H295506   3.938   6.393   4.848  0.4458  1.8754  0.3501
23425WAT    EPW95507   3.884   6.421   4.787  0.5122  0.2513 -0.5047
23426WAT      O95508   2.208   0.062   1.925  0.0515 -0.5383 -0.0931
23426WAT     H195509   2.157   0.141   1.943  2.5681  1.0073  0.8297
23426WAT     H295510   2.228   0.027   2.012  0.1923 -1.3509 -0.4471
23426WAT    EPW95511   2.204   0.068   1.939  0.4019 -0.4416 -0.0180
23427WAT      O95512  -1.752   4.588   6.018  0.2163  0.3524  0.6930
23427WAT     H195513  -1.820   4.561   5.956  0.3771 -0.8644  1.0243
23427WAT     H295514  -1.740   4.681   6.001 -2.1764  0.8255  1.2296
23427WAT    EPW95515  -1.759   4.597   6.008 -0.0781  0.2544  0.8075
23428WAT      O95516  -3.577   7.284   4.057  0.0916  0.5543 -0.5382
23428WAT     H195517  -3.531   7.366   4.041  0.7332  0.6921  1.5814
23428WAT     H295518  -3.507   7.221   4.075 -0.2767  1.1128  4.3156
23428WAT    EPW95519  -3.561   7.287   4.058  0.1277  0.6461  0.3817
23429WAT      O95520   2.097   3.028   1.650  0.3889 -0.3111  0.8264
23429WAT     H195521   2.149   3.023   1.569 -1.6401 -0.2047 -0.5646
23429WAT     H295522   2.101   2.939   1.686 -0.9116 -1.1683 -0.9518
23429WAT    EPW95523   2.104   3.015   1.644 -0.0502 -0.4102  0.4084
23430WAT      O95524  -5.244   6.070   6.220 -0.0265 -0.5773 -0.0751
23430WAT     H195525  -5.170   6.047   6.165  0.3141 -0.2410  0.2380
23430WAT     H295526  -5.235   6.015   6.298  0.1584 -0.2037  0.1712
23430WAT    EPW95527  -5.233   6.060   6.223  0.0429 -0.4835 -0.0012
23431WAT      O95528   0.748   4.569   2.707  0.1410  0.7275 -0.8455
23431WAT     H195529   0.720   4.657   2.733  0.4663  0.0878  2.0772
23431WAT     H295530   0.843   4.573   2.710  0.1570 -0.0798  0.9445
23431WAT    EPW95531   0.757   4.581   2.711  0.1860  0.5364 -0.2239
23432WAT      O95532   7.722   0.429   3.685 -0.3578  0.4302 -0.1945
23432WAT     H195533   7.810   0.393   3.671 -0.6973 -0.3092 -0.4728
23432WAT     H295534   7.736   0.502   3.746  0.6949  1.4617 -1.5842
23432WAT    EPW95535   7.736   0.434   3.691 -0.2637  0.4687 -0.4145
23433WAT      O95536   3.145   5.326   0.818  0.0086 -0.0297  0.5468
23433WAT     H195537   3.190   5.249   0.783 -0.8690  0.0610 -0.8614
23433WAT     H295538   3.056   5.318   0.784 -0.1349  1.5162  0.5164
23433WAT    EPW95539   3.139   5.315   0.809 -0.1260  0.1860  0.3571
23434WAT      O95540   2.640   2.167   1.566  0.6814 -0.0475 -0.8170
23434WAT     H195541   2.657   2.227   1.638  1.3244 -0.8139 -0.3120
23434WAT     H295542   2.559   2.122   1.591  0.7047 -0.0490 -0.7437
23434WAT    EPW95543   2.632   2.169   1.579  0.7693 -0.1488 -0.7407
23435WAT      O95544  -0.313   4.759   8.784 -0.1297  0.8636 -0.2372
23435WAT     H195545  -0.251   4.691   8.812 -1.2682  0.3228  1.1338
23435WAT     H295546  -0.269   4.841   8.804  0.1088  0.4844  0.8944
23435WAT    EPW95547  -0.299   4.761   8.790 -0.2484  0.7422  0.0930
23436WAT      O95548  -2.825   7.885   4.403  0.1724 -0.0336 -1.2397
23436WAT     H195549  -2.871   7.856   4.482  0.1956 -2.3105 -1.9812
23436WAT     H295550  -2.889   7.873   4.333  0.2547  1.6666 -1.6467
23436WAT    EPW95551  -2.840   7.880   4.404  0.1863 -0.1097 -1.3914
23437WAT      O95552   4.237   6.567   3.215 -0.5910  0.0962  0.2881
23437WAT     H195553   4.332   6.575   3.226 -0.7768  0.6369  1.6023
23437WAT     H295554   4.226   6.484   3.169  0.5830  0.6303 -1.0398
23437WAT    EPW95555   4.248   6.557   3.210 -0.4606  0.2377  0.2862
23438WAT      O95556  -1.471   8.578   7.783 -0.4216  0.1079 -0.2043
23438WAT     H195557  -1.550   8.556   7.733 -0.3889 -0.5852  0.0377
23438WAT     H295558  -1.399   8.542   7.730 -0.4905 -2.1677  1.1274
23438WAT    EPW95559  -1.472   8.570   7.769 -0.4264 -0.2837  0.0033
23439WAT      O95560  -5.135   9.138   6.683  0.3366  0.4707  0.5398
23439WAT     H195561  -5.134   9.232   6.701 -0.2203  0.3650  1.1667
23439WAT     H295562  -5.211   9.126   6.626 -0.4045  0.2167  1.5672
23439WAT    EPW95563  -5.145   9.149   6.678  0.1655  0.4230  0.7579
23440WAT      O95564  -2.213   9.598   1.594 -0.7185 -0.1699  0.4233
23440WAT     H195565  -2.122   9.573   1.574 -0.5041  0.9294 -0.0614
23440WAT     H295566  -2.246   9.526   1.648 -0.1750 -1.5350 -0.9651
23440WAT    EPW95567  -2.205   9.585   1.598 -0.6186 -0.2046  0.1763
23441WAT      O95568   2.145   6.160   7.245 -0.9048  0.1631  0.4565
23441WAT     H195569   2.162   6.069   7.270  1.6780 -0.2421 -2.1952
23441WAT     H295570   2.077   6.154   7.178 -0.2425  0.0837 -0.2177
23441WAT    EPW95571   2.138   6.147   7.240 -0.4768  0.0992  0.0179
23442WAT      O95572   3.573   6.453   2.170  0.0853 -0.6907  0.1598
23442WAT     H195573   3.604   6.537   2.135 -0.2225  0.6057  2.7069
23442WAT     H295574   3.608   6.450   2.259  0.6208 -3.6243 -0.0581
23442WAT    EPW95575   3.582   6.464   2.177  0.1154 -0.9067  0.4671
23443WAT      O95576  -3.252   0.596   5.184 -0.0317 -0.0380 -0.3303
23443WAT     H195577  -3.323   0.566   5.241  0.2589 -0.7184 -0.3182
23443WAT     H295578  -3.278   0.567   5.096 -0.6803  1.3651 -0.6318
23443WAT    EPW95579  -3.265   0.588   5.180 -0.0789  0.0573 -0.3684
23444WAT      O95580   1.170   2.270   1.997 -0.4904  0.1692 -0.5042
23444WAT     H195581   1.239   2.331   1.971  0.5245 -1.0708 -0.8197
23444WAT     H295582   1.100   2.285   1.933 -0.3166  1.0725 -0.5052
23444WAT    EPW95583   1.170   2.280   1.985 -0.3336  0.1248 -0.5460
23445WAT      O95584   1.929   7.089   0.257 -0.4585  0.1743 -0.3546
23445WAT     H195585   2.012   7.043   0.251 -0.2662 -0.3507  3.5682
23445WAT     H295586   1.870   7.040   0.200  0.7902 -2.4106  0.4288
23445WAT    EPW95587   1.932   7.077   0.249 -0.2684 -0.2360  0.2661
23446WAT      O95588  -3.160   0.058   8.007 -0.0386 -0.2754 -0.5594
23446WAT     H195589  -3.112   0.006   7.943  0.9472 -0.3758  0.2328
23446WAT     H295590  -3.098   0.126   8.034  0.1342 -1.1570  1.4038
23446WAT    EPW95591  -3.145   0.060   8.002  0.1142 -0.4049 -0.1960
23447WAT      O95592  -0.221   7.817   4.191 -0.8234 -0.1537  0.4258
23447WAT     H195593  -0.188   7.767   4.266  0.1265  0.0825  0.1701
23447WAT     H295594  -0.144   7.836   4.138 -1.0175  2.1802  0.8657
23447WAT    EPW95595  -0.207   7.813   4.194 -0.7237  0.1853  0.4501
23448WAT      O95596  -5.075   7.879   7.614 -0.9114  0.1871  0.2726
23448WAT     H195597  -5.010   7.834   7.560 -1.7473 -1.5004  0.5755
23448WAT     H295598  -5.077   7.968   7.582  1.1364  0.1306 -0.1176
23448WAT    EPW95599  -5.067   7.885   7.603 -0.7515 -0.0427  0.2608
23449WAT      O95600  -3.958   8.790   3.018 -1.4614 -0.0435  0.0218
23449WAT     H195601  -3.914   8.723   3.071 -0.0689  1.2548  0.5635
23449WAT     H295602  -3.892   8.819   2.956 -2.3415  0.1983 -0.8290
23449WAT    EPW95603  -3.944   8.785   3.017 -1.3939  0.1597 -0.0190
23450WAT      O95604  -1.915   2.741   2.735  0.6677  0.5318 -0.2857
23450WAT     H195605  -1.835   2.732   2.683 -1.3303  0.5547 -3.6847
23450WAT     H295606  -1.937   2.652   2.762  0.0334 -0.0348 -2.4690
23450WAT    EPW95607  -1.908   2.728   2.731  0.3205  0.4601 -1.0219
23451WAT      O95608   3.834   4.919   4.590  0.1765 -0.0204  0.0967
23451WAT     H195609   3.909   4.911   4.649 -1.5717 -1.2635  2.3293
23451WAT     H295610   3.833   5.011   4.565  1.1088  0.5305  1.8969
23451WAT    EPW95611   3.844   4.930   4.595  0.0688 -0.1116  0.6287
23452WAT      O95612   0.566   6.928   4.759 -0.0237 -0.4900  0.3511
23452WAT     H195613   0.540   6.837   4.771 -1.0599 -0.1194  1.0763
23452WAT     H295614   0.503   6.963   4.697 -0.2290 -0.0180  0.8174
23452WAT    EPW95615   0.555   6.921   4.753 -0.1875 -0.3786  0.5083
23453WAT      O95616  -0.187   6.234   8.710  0.2919 -0.3553  0.2591
23453WAT     H195617  -0.224   6.193   8.632  0.4568 -1.1708  0.5990
23453WAT     H295618  -0.212   6.326   8.703 -0.2340 -0.5447 -0.4368
23453WAT    EPW95619  -0.195   6.241   8.699  0.2443 -0.4878  0.2117
23454WAT      O95620  -1.990   7.369   0.444 -0.2807 -0.2164  0.5888
23454WAT     H195621  -2.035   7.405   0.368  3.3450  0.9897 -1.2176
23454WAT     H295622  -1.945   7.444   0.484 -0.5826 -1.1510  2.8592
23454WAT    EPW95623  -1.990   7.383   0.439  0.1577 -0.1807  0.6500
23455WAT      O95624  -1.758   5.459   7.426 -0.4215 -0.5740 -0.3115
23455WAT     H195625  -1.805   5.441   7.507 -3.1391 -1.4235 -1.9369
23455WAT     H295626  -1.790   5.545   7.398 -1.4707 -1.3783 -1.6934
23455WAT    EPW95627  -1.769   5.468   7.433 -0.9183 -0.7920 -0.7081
23456WAT      O95628   3.637   1.458   0.195  0.5370 -0.2850  0.3843
23456WAT     H195629   3.676   1.510   0.126 -1.8483 -0.4689 -1.2378
23456WAT     H295630   3.622   1.519   0.267  0.3544  0.6350 -0.4204
23456WAT    EPW95631   3.640   1.473   0.195  0.1982 -0.1879  0.0642
23457WAT      O95632   3.583   1.128   1.506 -0.0025  0.0454 -0.1895
23457WAT     H195633   3.587   1.197   1.572  0.6962 -0.7711  0.6461
23457WAT     H295634   3.572   1.175   1.423  1.6795  1.2373  0.2145
23457WAT    EPW95635   3.582   1.143   1.504  0.3115  0.0949 -0.0260
23458WAT      O95636  -2.078   2.172   4.934  0.6517 -0.4887  0.5346
23458WAT     H195637  -2.099   2.140   4.846  0.2232  0.9219  0.0987
23458WAT     H295638  -2.057   2.093   4.983 -1.2024 -1.5324 -0.2545
23458WAT    EPW95639  -2.078   2.157   4.929  0.3507 -0.4402  0.3731
23459WAT      O95640   5.582   4.428   5.478 -0.1965 -0.6948  0.0632
23459WAT     H195641   5.659   4.473   5.444 -0.2159 -1.0168 -0.4183
23459WAT     H295642   5.583   4.342   5.435  0.3887 -1.5439  1.6796
23459WAT    EPW95643   5.592   4.422   5.468 -0.1221 -0.8492  0.2129
23460WAT      O95644   5.874   8.694   3.171  0.0268 -0.7272 -0.1478
23460WAT     H195645   5.787   8.698   3.211  0.8306 -1.2772  1.8205
23460WAT     H295646   5.870   8.755   3.098 -2.5846 -2.1749 -1.3943
23460WAT    EPW95647   5.862   8.702   3.167 -0.2117 -0.9909 -0.0527
23461WAT      O95648   3.562   2.379   7.898  0.0650 -0.4017 -0.0231
23461WAT     H195649   3.470   2.398   7.880  0.2406  0.1802 -0.3316
23461WAT     H295650   3.610   2.417   7.823  0.4658 -1.7337 -0.4665
23461WAT    EPW95651   3.557   2.387   7.886  0.1411 -0.5007 -0.1223
23462WAT      O95652   6.236   7.927   3.210 -1.1150  0.7841  0.0478
23462WAT     H195653   6.211   7.999   3.267 -0.9793  0.2608  0.7708
23462WAT     H295654   6.155   7.876   3.200 -1.2500  1.1097 -0.5842
23462WAT    EPW95655   6.222   7.930   3.216 -1.1151  0.7582  0.0597
23463WAT      O95656  -1.196   7.033   6.777  0.0470 -0.3479  0.5013
23463WAT     H195657  -1.181   6.956   6.721  0.6911  1.3699 -1.8617
23463WAT     H295658  -1.113   7.081   6.772 -0.0273  0.0837  2.6963
23463WAT    EPW95659  -1.183   7.029   6.769  0.1221 -0.0644  0.4792
23464WAT      O95660  -2.069   0.273   5.361 -0.2813  0.4138 -0.0061
23464WAT     H195661  -2.117   0.352   5.339 -0.0930  0.7623  0.8101
23464WAT     H295662  -1.996   0.272   5.299 -0.5320  0.6483 -0.3054
23464WAT    EPW95663  -2.065   0.283   5.350 -0.2896  0.4907  0.0620
23465WAT      O95664  -0.293   5.385   2.338 -0.5564 -0.4944 -0.3545
23465WAT     H195665  -0.325   5.474   2.354  0.1262 -0.0607 -1.3466
23465WAT     H295666  -0.200   5.395   2.319 -0.5192 -1.3920 -0.7196
23465WAT    EPW95667  -0.285   5.398   2.338 -0.4614 -0.5555 -0.5335
23466WAT      O95668   0.027   9.395   5.486 -0.6672  0.7422  1.1129
23466WAT     H195669   0.089   9.322   5.491  0.5190  1.6179 -0.3999
23466WAT     H295670   0.075   9.470   5.520  0.2514  2.0861 -2.6982
23466WAT    EPW95671   0.041   9.395   5.491 -0.3896  1.0352  0.4108
23467WAT      O95672  -1.818   8.312   1.455 -0.3338  0.4884  0.5241
23467WAT     H195673  -1.895   8.255   1.453  0.8571 -1.3047  2.1795
23467WAT     H295674  -1.791   8.319   1.364 -2.5460  1.3490 -0.1256
23467WAT    EPW95675  -1.825   8.306   1.443 -0.4684  0.3653  0.6567
23468WAT      O95676   5.394   8.279   4.343 -0.1987 -1.2470 -0.6888
23468WAT     H195677   5.334   8.302   4.272 -0.7572 -1.0331 -0.1531
23468WAT     H295678   5.339   8.275   4.421  0.5644 -0.4997 -0.0865
23468WAT    EPW95679   5.379   8.282   4.344 -0.1717 -1.1201 -0.5388
23469WAT      O95680  -1.956   6.050   5.018  0.2330  0.2033 -0.3046
23469WAT     H195681  -2.010   5.984   5.061  0.4207 -0.6486 -1.3551
23469WAT     H295682  -1.985   6.049   4.927 -0.3933  2.2100 -0.1893
23469WAT    EPW95683  -1.967   6.041   5.012  0.1751  0.3557 -0.4277
23470WAT      O95684  -2.565   6.189   6.778  0.0418  0.0892 -0.3223
23470WAT     H195685  -2.618   6.179   6.857 -1.6716 -0.2082 -1.4696
23470WAT     H295686  -2.513   6.109   6.774 -3.7766 -2.5771 -2.2662
23470WAT    EPW95687  -2.565   6.177   6.788 -0.6878 -0.3016 -0.7300
23471WAT      O95688  -2.366   3.762   6.464 -0.1794  0.9765  0.1109
23471WAT     H195689  -2.403   3.712   6.536  0.6754  1.8575  1.2069
23471WAT     H295690  -2.336   3.844   6.505  0.1541  1.5786 -1.2775
23471WAT    EPW95691  -2.367   3.766   6.479 -0.0226  1.1721  0.0725
23472WAT      O95692   1.633   7.511   7.163  0.7914  0.3644 -0.1345
23472WAT     H195693   1.621   7.479   7.074  1.2366  0.6539 -0.3007
23472WAT     H295694   1.675   7.438   7.209 -0.2080 -0.1051  0.0705
23472WAT    EPW95695   1.637   7.497   7.158  0.7183  0.3405 -0.1295
23473WAT      O95696  -5.015   6.866   5.704  0.2921 -0.0727 -0.3247
23473WAT     H195697  -4.939   6.833   5.753 -0.2113 -0.1563  0.4094
23473WAT     H295698  -4.984   6.948   5.665  0.0365  1.2382  2.0445
23473WAT    EPW95699  -5.001   6.872   5.706  0.1919  0.0892  0.0844
23474WAT      O95700   4.454   1.014   6.097 -0.0879  0.2131  0.6305
23474WAT     H195701   4.486   0.929   6.129  0.3407 -0.0130 -0.3597
23474WAT     H295702   4.515   1.037   6.027  0.0029  1.5123  1.1134
23474WAT    EPW95703   4.466   1.006   6.092 -0.0196  0.3546  0.5636
23475WAT      O95704   0.881   2.567   7.265  0.4600  0.8212  0.0015
23475WAT     H195705   0.951   2.517   7.223  1.6914  0.1997  2.5721
23475WAT     H295706   0.811   2.504   7.277 -0.1054  1.1259 -1.4382
23475WAT    EPW95707   0.881   2.552   7.261  0.5478  0.7795  0.1504
23476WAT      O95708   0.657   2.350   3.109  0.1458  0.3639  0.5486
23476WAT     H195709   0.646   2.255   3.110  1.0604  0.2479  0.4031
23476WAT     H295710   0.678   2.373   3.199  0.1618  0.3979  0.5362
23476WAT    EPW95711   0.659   2.340   3.121  0.2685  0.3531  0.5276
23477WAT      O95712  -4.766   9.671   6.857  1.1075  0.1370  0.1756
23477WAT     H195713  -4.808   9.649   6.940  0.6148 -1.2300 -0.3963
23477WAT     H295714  -4.690   9.723   6.882  1.0950 -0.4300  1.4984
23477WAT    EPW95715  -4.762   9.675   6.871  1.0407 -0.1183  0.2744
23478WAT      O95716   3.907   6.588   0.830 -0.4788  0.2829 -0.3932
23478WAT     H195717   3.827   6.600   0.882 -0.4515  2.2674 -0.7184
23478WAT     H295718   3.959   6.526   0.881 -0.9097  1.3389  1.4747
23478WAT    EPW95719   3.903   6.582   0.844 -0.5320  0.6840 -0.1898
23479WAT      O95720   2.658   4.984   3.707  0.7928 -0.7619 -0.4142
23479WAT     H195721   2.593   5.042   3.747  0.5366 -0.2376 -1.5692
23479WAT     H295722   2.737   4.998   3.759  0.3966 -0.2971  0.0761
23479WAT    EPW95723   2.660   4.993   3.719  0.7068 -0.6316 -0.5019
23480WAT      O95724   5.837   0.230   1.468  0.0519 -0.1631 -0.7886
23480WAT     H195725   5.745   0.246   1.447 -0.0144  0.5572  0.0220
23480WAT     H295726   5.884   0.245   1.386 -0.6503 -1.6011 -1.4928
23480WAT    EPW95727   5.831   0.234   1.454 -0.0494 -0.2578 -0.7745
23481WAT      O95728   0.784   6.715   1.819 -0.1980  0.4636 -0.1372
23481WAT     H195729   0.703   6.664   1.817  0.0655  0.0570 -2.2631
23481WAT     H295730   0.754   6.806   1.811 -0.4561  0.2884 -1.3720
23481WAT    EPW95731   0.769   6.720   1.818 -0.1973  0.3870 -0.5804
23482WAT      O95732   6.976   3.257   2.198 -0.4865 -0.2591  0.2453
23482WAT     H195733   6.964   3.352   2.195 -0.2417 -0.1649  1.5273
23482WAT     H295734   7.065   3.242   2.167 -0.6627 -0.1064 -0.3358
23482WAT    EPW95735   6.986   3.268   2.194 -0.4776 -0.2265  0.3378
23483WAT      O95736   2.037   8.535   7.090 -0.5746  0.1814  0.0432
23483WAT     H195737   2.112   8.492   7.049  0.5089 -0.9432  2.8805
23483WAT     H295738   2.048   8.628   7.069  1.6847  0.0502  0.3928
23483WAT    EPW95739   2.049   8.542   7.082 -0.1336  0.0157  0.4635
23484WAT      O95740   0.637   4.987   8.509  0.0424 -0.7636  0.1221
23484WAT     H195741   0.635   5.061   8.449  0.4133  0.1164  1.1583
23484WAT     H295742   0.721   4.997   8.555 -1.0301 -0.3346  2.0762
23484WAT    EPW95743   0.648   4.998   8.507 -0.0501 -0.5908  0.5164
23485WAT      O95744   4.133   2.663   3.101 -0.1007  0.6194  0.1688
23485WAT     H195745   4.135   2.727   3.030 -0.4274  0.9476  0.4530
23485WAT     H295746   4.149   2.714   3.180 -2.4236  0.6977  0.6426
23485WAT    EPW95747   4.136   2.678   3.102 -0.4501  0.6731  0.2688
23486WAT      O95748   6.012   3.416   5.487 -0.2918 -0.9032 -0.0709
23486WAT     H195749   5.999   3.467   5.566  0.5668 -0.3750 -0.2598
23486WAT     H295750   5.977   3.470   5.416 -0.6833 -1.1986 -0.1120
23486WAT    EPW95751   6.006   3.430   5.488 -0.2303 -0.8726 -0.1013
23487WAT      O95752  -0.988   4.127   3.389 -0.1226  0.2693  0.1957
23487WAT     H195753  -1.027   4.177   3.461 -5.0982  1.6309 -2.9430
23487WAT     H295754  -0.926   4.187   3.348 -0.6883  1.2064  0.6940
23487WAT    EPW95755  -0.985   4.141   3.393 -0.8535  0.5724 -0.1526
23488WAT      O95756   5.992   2.899   3.101 -0.4286 -1.3804  0.2017
23488WAT     H195757   5.937   2.903   3.179 -0.3228 -1.5028  0.2844
23488WAT     H295758   5.965   2.973   3.048 -0.9546 -1.6746  0.0546
23488WAT    EPW95759   5.981   2.909   3.105 -0.4842 -1.4354  0.1932
23489WAT      O95760  -0.049   5.155   8.393  0.0284  0.4163  1.1445
23489WAT     H195761  -0.041   5.077   8.449  0.0711  0.3878  1.0995
23489WAT     H295762   0.033   5.157   8.344  0.9158  1.6221  2.5760
23489WAT    EPW95763  -0.037   5.145   8.394  0.1511  0.5717  1.3275
23490WAT      O95764   3.249   8.876   6.462  0.2973 -0.3394 -0.0166
23490WAT     H195765   3.251   8.948   6.524  0.1524 -1.0418  0.8210
23490WAT     H295766   3.166   8.887   6.415  1.5260  1.6457 -1.8907
23490WAT    EPW95767   3.238   8.887   6.464  0.4402 -0.1702 -0.1533
23491WAT      O95768   1.533   3.148   1.989  0.6525 -0.3679  0.6481
23491WAT     H195769   1.462   3.184   1.936  0.6199 -0.0546  0.9023
23491WAT     H295770   1.519   3.054   1.987 -0.8965 -0.2226  2.2446
23491WAT    EPW95771   1.522   3.140   1.982  0.4439 -0.3074  0.8923
23492WAT      O95772   7.705   3.561   0.774  0.3067  0.2214 -0.6198
23492WAT     H195773   7.735   3.486   0.826 -1.6030  0.7657  1.4336
23492WAT     H295774   7.753   3.636   0.810 -0.1573  0.4350 -0.4390
23492WAT    EPW95775   7.716   3.561   0.786 -0.0064  0.3214 -0.3251
23493WAT      O95776   1.243   6.511   5.663 -0.3347  0.0298 -0.3898
23493WAT     H195777   1.296   6.446   5.616 -0.9210  0.0378 -1.0664
23493WAT     H295778   1.159   6.468   5.676  0.3041 -0.6113  2.1238
23493WAT    EPW95779   1.239   6.497   5.659 -0.3278 -0.0539 -0.1473
23494WAT      O95780   1.661   5.896   7.508 -0.3305 -0.0987  0.7269
23494WAT     H195781   1.587   5.908   7.568 -1.4594 -0.7850 -0.4668
23494WAT     H295782   1.648   5.808   7.472  0.3614  0.2683 -0.4495
23494WAT    EPW95783   1.649   5.886   7.511 -0.3881 -0.1409  0.4144
23495WAT      O95784  -2.605  10.093   2.705  0.3448 -0.5398 -0.0919
23495WAT     H195785  -2.518  10.103   2.742  0.3077 -2.0998  0.4595
23495WAT     H295786  -2.650  10.033   2.764 -0.5504 -1.0695 -1.2756
23495WAT    EPW95787  -2.600  10.087   2.718  0.2218 -0.8154 -0.1751
23496WAT      O95788   4.899   0.643   1.159  0.4276  0.7083  0.3814
23496WAT     H195789   4.809   0.609   1.165  0.4141  0.7120  0.1982
23496WAT     H295790   4.943   0.605   1.236  0.1482  1.0844  0.7292
23496WAT    EPW95791   4.893   0.633   1.170  0.3891  0.7584  0.4031
23497WAT      O95792  -0.803   2.344   6.648  0.3129  0.0454  0.4115
23497WAT     H195793  -0.888   2.383   6.625  0.7066  0.1513 -0.9810
23497WAT     H295794  -0.740   2.392   6.595  1.1189 -0.7597  0.6225
23497WAT    EPW95795  -0.806   2.355   6.638  0.4711 -0.0468  0.2556
23498WAT      O95796   4.716   3.506   5.518  0.0677  0.1849 -0.2497
23498WAT     H195797   4.719   3.587   5.468  0.9191  0.5631  0.3915
23498WAT     H295798   4.784   3.516   5.585  0.7471 -1.3645 -0.6422
23498WAT    EPW95799   4.725   3.518   5.520  0.2697  0.0304 -0.2167
23499WAT      O95800   8.647   2.363   1.432  0.4017  0.1431 -0.1072
23499WAT     H195801   8.566   2.317   1.454  0.3509  1.3594  2.6829
23499WAT     H295802   8.640   2.447   1.477  3.3997  0.0995  0.6717
23499WAT    EPW95803   8.635   2.368   1.441  0.7906  0.2978  0.3635
23500WAT      O95804   6.961   7.937   1.598 -0.2740 -0.4904  0.0265
23500WAT     H195805   7.006   7.964   1.678 -0.1087  0.5265 -0.3849
23500WAT     H295806   6.957   8.017   1.546  0.3987 -1.3155 -1.3546
23500WAT    EPW95807   6.966   7.951   1.602 -0.1636 -0.4652 -0.2099
23501WAT      O95808   3.023   8.782   7.001  0.4711 -0.8503  0.1916
23501WAT     H195809   3.057   8.736   7.078  1.7900  0.7158  0.6000
23501WAT     H295810   3.015   8.714   6.934  0.1364 -2.0808  1.4396
23501WAT    EPW95811   3.027   8.767   7.002  0.6008 -0.8063  0.4103
23502WAT      O95812   2.443   8.429   7.434 -0.8707  0.8789 -0.1998
23502WAT     H195813   2.453   8.379   7.515 -1.2960 -0.8243 -1.1594
23502WAT     H295814   2.349   8.434   7.420 -0.7819  0.5371 -0.9549
23502WAT    EPW95815   2.432   8.423   7.443 -0.9152  0.6094 -0.4258
23503WAT      O95816   7.941   4.558   1.451 -0.0651 -0.1939 -0.2577
23503WAT     H195817   7.934   4.462   1.451  2.0568 -0.4121 -0.5001
23503WAT     H295818   7.886   4.586   1.378 -0.9234 -1.1872 -0.0234
23503WAT    EPW95819   7.933   4.549   1.441  0.1016 -0.3536 -0.2587
23504WAT      O95820   0.197   5.642   0.053 -1.0305 -0.2132 -0.0479
23504WAT     H195821   0.104   5.619   0.063 -0.4650 -1.8771  2.1180
23504WAT     H295822   0.227   5.657   0.143  1.1082 -0.9799 -0.5987
23504WAT    EPW95823   0.189   5.641   0.066 -0.6738 -0.5338  0.1651
23505WAT      O95824   3.313   1.393   7.831 -0.1413  0.3221  0.2930
23505WAT     H195825   3.297   1.402   7.737 -0.5597  0.5736  0.3845
23505WAT     H295826   3.225   1.383   7.869  0.1373 -2.3164  0.4073
23505WAT    EPW95827   3.299   1.393   7.823 -0.1597  0.0073  0.3202
23506WAT      O95828   5.689   9.800   1.267  0.5310 -0.0267 -0.0780
23506WAT     H195829   5.759   9.802   1.202  1.4625  1.9284  0.8963
23506WAT     H295830   5.717   9.735   1.331  2.2624  1.7422  1.0643
23506WAT    EPW95831   5.702   9.791   1.267  0.8821  0.4640  0.2012
23507WAT      O95832   1.191  10.114   0.326  0.5495  0.2429 -0.1507
23507WAT     H195833   1.285  10.128   0.339  0.7261 -0.0908 -0.9928
23507WAT     H295834   1.168  10.047   0.391  1.0238 -0.1024 -0.3263
23507WAT    EPW95835   1.200  10.107   0.337  0.6353  0.1535 -0.2849
23508WAT      O95836  -6.348   4.369   8.655 -0.3527  0.3794 -1.0778
23508WAT     H195837  -6.386   4.364   8.742  1.0873  1.5056 -0.3410
23508WAT     H295838  -6.326   4.279   8.633  1.6925  0.3022  0.8995
23508WAT    EPW95839  -6.350   4.357   8.663  0.1070  0.5178 -0.7200
23509WAT      O95840  -0.328   2.881   1.741 -0.5685 -0.1566  0.3149
23509WAT     H195841  -0.376   2.904   1.662 -1.0808 -2.1489 -0.0002
23509WAT     H295842  -0.266   2.953   1.753  0.7391 -0.5928 -2.8971
23509WAT    EPW95843  -0.326   2.894   1.732 -0.4636 -0.4768 -0.1503
23510WAT      O95844   3.962   4.176   2.630 -0.7792 -0.1884 -0.4934
23510WAT     H195845   4.035   4.195   2.689  0.2857  0.4380 -1.9489
23510WAT     H295846   3.897   4.132   2.685  0.2147  0.2604  1.0953
23510WAT    EPW95847   3.963   4.173   2.645 -0.5077 -0.0465 -0.4758
23511WAT      O95848   2.796   2.919   3.864 -0.4652 -0.1473  0.6722
23511WAT     H195849   2.851   2.859   3.815 -0.6374 -0.4991  0.9049
23511WAT     H295850   2.855   2.988   3.894 -0.1609 -0.5102  0.9025
23511WAT    EPW95851   2.811   2.921   3.862 -0.4478 -0.2416  0.7333
23512WAT      O95852   0.285   5.977   7.993  0.5377 -0.2345 -0.1278
23512WAT     H195853   0.193   5.966   7.972  0.7912  0.0220 -1.4769
23512WAT     H295854   0.331   5.940   7.918  1.5012  2.1575 -0.8145
23512WAT    EPW95855   0.279   5.970   7.981  0.6982  0.1147 -0.3963
23513WAT      O95856   1.878   3.675   6.645 -0.5642 -0.0392 -0.0042
23513WAT     H195857   1.790   3.697   6.675 -0.3989  2.1959 -0.9527
23513WAT     H295858   1.875   3.580   6.632 -1.7833 -0.5672  3.1345
23513WAT    EPW95859   1.866   3.665   6.647 -0.7032  0.1858  0.2847
23514WAT      O95860  -0.518   1.565   7.382  0.4689 -0.1872  0.5026
23514WAT     H195861  -0.502   1.656   7.409 -0.5901 -0.4704  2.3141
23514WAT     H295862  -0.608   1.566   7.348 -0.2209 -0.8182  2.1751
23514WAT    EPW95863  -0.528   1.577   7.381  0.2383 -0.3077  0.9620
23515WAT      O95864   4.242   1.556   0.258  1.0038 -0.0950 -0.4602
23515WAT     H195865   4.151   1.536   0.237  1.4219  0.3816 -3.0706
23515WAT     H295866   4.254   1.646   0.228  2.3090 -0.1111 -0.0600
23515WAT    EPW95867   4.232   1.565   0.251  1.2312 -0.0343 -0.7517
23516WAT      O95868  -4.205   8.648   8.197 -0.2281  0.4009  0.4495
23516WAT     H195869  -4.142   8.658   8.268 -0.9007  2.8235  0.7799
23516WAT     H295870  -4.280   8.604   8.238  0.9514 -2.0431  0.1681
23516WAT    EPW95871  -4.206   8.643   8.212 -0.1612  0.3977  0.4559
23517WAT      O95872  -0.980   9.528   4.698 -0.1302 -0.1855  0.2708
23517WAT     H195873  -0.926   9.457   4.734  0.3657  0.0644  0.0243
23517WAT     H295874  -1.035   9.484   4.632 -0.3582 -0.4724  0.6467
23517WAT    EPW95875  -0.980   9.513   4.694 -0.0949 -0.1903  0.2878
23518WAT      O95876   4.811   1.307   6.396 -0.5052  0.0754 -0.4929
23518WAT     H195877   4.779   1.265   6.476 -1.7207  2.4294  0.3577
23518WAT     H295878   4.904   1.324   6.413 -1.0641  1.8921  1.1384
23518WAT    EPW95879   4.819   1.304   6.409 -0.7393  0.6255 -0.1655
23519WAT      O95880   1.933   7.937   4.693  0.0208 -0.3547 -0.0817
23519WAT     H195881   1.984   7.908   4.618 -0.6822 -0.2251 -0.6189
23519WAT     H295882   1.953   8.030   4.701  1.8508 -0.8028  1.3066
23519WAT    EPW95883   1.942   7.945   4.684  0.1695 -0.3965  0.0305
23520WAT      O95884  -2.313   0.775   8.280 -0.1752  0.2296 -0.1857
23520WAT     H195885  -2.240   0.713   8.277 -0.5811 -0.3105  0.6441
23520WAT     H295886  -2.272   0.861   8.277  0.3791 -0.0527 -1.7866
23520WAT    EPW95887  -2.298   0.778   8.279 -0.1557  0.1211 -0.2875
23521WAT      O95888   0.690   5.516   3.397  0.0706 -0.4352  0.0445
23521WAT     H195889   0.719   5.432   3.364  1.1810  0.0379 -0.2233
23521WAT     H295890   0.749   5.580   3.357 -0.1253  0.3775  0.9928
23521WAT    EPW95891   0.701   5.514   3.387  0.1912 -0.2656  0.1342
23522WAT      O95892  -4.000   1.791   7.821  0.1928  0.6540 -0.4564
23522WAT     H195893  -4.078   1.830   7.782 -1.3140 -1.9769 -0.2778
23522WAT     H295894  -3.968   1.729   7.755  1.0621  0.3939  0.1864
23522WAT    EPW95895  -4.006   1.788   7.807  0.1087  0.2728 -0.3479
23523WAT      O95896   4.522   2.520   4.906  0.1075 -0.2279 -0.6541
23523WAT     H195897   4.463   2.463   4.857  1.4502 -1.9420 -0.3659
23523WAT     H295898   4.541   2.471   4.986  1.1782  0.6967 -0.3241
23523WAT    EPW95899   4.516   2.506   4.910  0.4258 -0.3320 -0.5724
23524WAT      O95900   4.341   0.750   5.494 -0.4115  0.8904 -0.3554
23524WAT     H195901   4.399   0.812   5.448 -1.3536  1.3502 -0.9437
23524WAT     H295902   4.369   0.756   5.586 -0.3194  2.0120 -0.4392
23524WAT    EPW95903   4.353   0.759   5.500 -0.5236  1.0990 -0.4439
23525WAT      O95904  -1.908   6.287   4.503  0.1250 -0.4766  0.2358
23525WAT     H195905  -1.999   6.303   4.530  0.2734  0.0821  0.4017
23525WAT     H295906  -1.858   6.286   4.584  0.0263 -2.6009  0.3339
23525WAT    EPW95907  -1.914   6.289   4.517  0.1316 -0.6831  0.2704
23526WAT      O95908  -2.560   3.480   5.912 -0.9710 -1.1071 -0.5985
23526WAT     H195909  -2.499   3.465   5.984 -0.5968  2.0421 -0.0810
23526WAT     H295910  -2.504   3.483   5.834 -0.6305  0.2235 -0.3291
23526WAT    EPW95911  -2.544   3.479   5.911 -0.8768 -0.5163 -0.4947
23527WAT      O95912   3.312   3.210   8.894 -0.7698 -0.5183 -0.7248
23527WAT     H195913   3.285   3.281   8.952 -0.4555 -0.8324 -0.1873
23527WAT     H295914   3.236   3.152   8.890 -1.0919 -0.0624 -1.3110
23527WAT    EPW95915   3.298   3.212   8.901 -0.7709 -0.4997 -0.7310
23528WAT      O95916  -1.817   5.607   1.977  0.8594  0.1895  0.0150
23528WAT     H195917  -1.870   5.687   1.976  0.5748 -0.0016 -1.4624
23528WAT     H295918  -1.860   5.550   2.041  0.2077  0.6510 -0.0087
23528WAT    EPW95919  -1.829   5.610   1.985  0.7359  0.2251 -0.1830
23529WAT      O95920   3.760   6.444   4.340  0.0924 -0.0715  0.0504
23529WAT     H195921   3.853   6.442   4.361  0.4867  0.1729 -1.5219
23529WAT     H295922   3.719   6.390   4.407  1.6737 -2.2893 -0.6550
23529WAT    EPW95923   3.767   6.437   4.351  0.3530 -0.3316 -0.2501
23530WAT      O95924   7.802   7.104   1.091 -0.0507 -0.0690 -0.2757
23530WAT     H195925   7.744   7.039   1.131 -0.1852 -0.1757 -0.6393
23530WAT     H295926   7.851   7.055   1.025  0.7073 -0.0547  0.2632
23530WAT    EPW95927   7.801   7.089   1.088  0.0315 -0.0811 -0.2525
23531WAT      O95928   4.115   5.717   3.598 -0.8576  0.2332  0.0776
23531WAT     H195929   4.060   5.717   3.676 -0.4276 -0.2885  0.3913
23531WAT     H295930   4.170   5.795   3.607 -0.5145 -0.0537  0.5177
23531WAT    EPW95931   4.115   5.727   3.609 -0.7555  0.1264  0.1770
23532WAT      O95932   1.337   3.378   1.467 -0.4601  0.0596 -0.2924
23532WAT     H195933   1.387   3.396   1.388 -0.0882 -0.8028 -0.2641
23532WAT     H295934   1.262   3.437   1.462  1.2614  2.5066  0.3814
23532WAT    EPW95935   1.334   3.388   1.456 -0.1840  0.2687 -0.1998
23533WAT      O95936   0.182   8.008   4.704  0.1682  0.1731  0.4061
23533WAT     H195937   0.256   8.055   4.744  0.5436 -0.9081  1.0323
23533WAT     H295938   0.127   7.982   4.779  0.6682 -1.5224  0.2363
23533WAT    EPW95939   0.185   8.011   4.720  0.2836 -0.1931  0.4663
23534WAT      O95940   2.925   9.955   1.954 -0.0360 -0.1625  0.2609
23534WAT     H195941   3.009   9.948   1.908  0.8243 -0.9252  1.8624
23534WAT     H295942   2.904  10.048   1.952  2.1437  0.4416  1.9527
23534WAT    EPW95943   2.933   9.966   1.947  0.3650 -0.1831  0.6953
23535WAT      O95944   2.726   9.736   3.658 -0.2267  0.7498 -0.3659
23535WAT     H195945   2.700   9.644   3.667 -0.6375  0.1922 -4.7742
23535WAT     H295946   2.822   9.734   3.668 -0.0572 -0.5027 -1.7621
23535WAT    EPW95947   2.736   9.724   3.660 -0.2584  0.5112 -1.1314
23536WAT      O95948   8.142   0.080   3.894  0.6180 -0.4755  0.4125
23536WAT     H195949   8.134   0.080   3.798  0.9262  0.6392  0.3643
23536WAT     H295950   8.230   0.047   3.910 -0.6546 -4.2347  0.5287
23536WAT    EPW95951   8.152   0.076   3.883  0.4911 -0.8243  0.4214
23537WAT      O95952   4.574   6.327   4.372 -0.6498 -0.6664 -0.8540
23537WAT     H195953   4.646   6.318   4.435 -0.7104 -0.3549 -0.7353
23537WAT     H295954   4.582   6.251   4.314  2.2097  1.3297 -3.3604
23537WAT    EPW95955   4.585   6.316   4.373 -0.2809 -0.3619 -1.1690
23538WAT      O95956   3.001   7.298   6.004  1.0482  0.0820 -0.3766
23538WAT     H195957   3.020   7.209   6.032  1.5140  0.6614  1.2348
23538WAT     H295958   3.084   7.330   5.968  0.9638 -0.0201 -0.6674
23538WAT    EPW95959   3.015   7.290   6.003  1.0986  0.1450 -0.2024
23539WAT      O95960  -5.472   4.349   8.550  0.0176  0.3070 -0.3108
23539WAT     H195961  -5.511   4.316   8.631 -0.3005  0.4733 -0.3952
23539WAT     H295962  -5.544   4.347   8.487  0.7790 -1.9403 -1.2196
23539WAT    EPW95963  -5.487   4.344   8.552  0.0763  0.0324 -0.4420
23540WAT      O95964  -1.586   2.114   4.719 -0.1616  0.0368  0.1746
23540WAT     H195965  -1.652   2.173   4.681  0.7922  0.8037 -0.3307
23540WAT     H295966  -1.504   2.142   4.679  0.4683 -0.9419  0.7640
23540WAT    EPW95967  -1.584   2.126   4.709  0.0473  0.0089  0.1857
23541WAT      O95968   4.087   6.683   4.311 -0.0207 -0.6036 -0.1602
23541WAT     H195969   4.011   6.717   4.358 -0.4167 -0.3723 -0.9514
23541WAT     H295970   4.152   6.752   4.318  0.6133 -1.3269  1.6421
23541WAT    EPW95971   4.085   6.696   4.318  0.0107 -0.6683 -0.0269
23542WAT      O95972  -0.522   9.894   7.132  0.4213 -0.4798  0.6944
23542WAT     H195973  -0.487   9.806   7.121 -0.9012 -0.9647  0.1973
23542WAT     H295974  -0.568   9.892   7.216 -1.8437 -1.0900 -0.4777
23542WAT    EPW95975  -0.523   9.882   7.141 -0.0518 -0.6242  0.4740
23543WAT      O95976   3.305   4.087   4.201  0.2909 -0.4611  0.0420
23543WAT     H195977   3.213   4.098   4.222  0.0463 -2.9673  0.5569
23543WAT     H295978   3.351   4.096   4.285  0.3544 -0.7664  0.0398
23543WAT    EPW95979   3.299   4.090   4.215  0.2670 -0.8318  0.1097
23544WAT      O95980  -1.393   7.339   7.527 -0.2020 -0.3179 -0.3658
23544WAT     H195981  -1.352   7.267   7.479  0.5173 -0.4496  0.4286
23544WAT     H295982  -1.328   7.409   7.527 -0.8518  0.3092 -1.0283
23544WAT    EPW95983  -1.379   7.339   7.520 -0.1928 -0.2525 -0.3483
23545WAT      O95984  -0.183   4.999   4.315  0.8602  0.3185 -0.4486
23545WAT     H195985  -0.095   5.024   4.288  0.7917  0.5101 -0.4920
23545WAT     H295986  -0.232   4.991   4.233  1.0505 -0.6121 -0.4901
23545WAT    EPW95987  -0.178   5.001   4.300  0.8762  0.2210 -0.4599
23546WAT      O95988   0.148   8.265   5.137 -0.1314  0.2431  0.2177
23546WAT     H195989   0.091   8.252   5.061  0.5126  0.1301 -0.2460
23546WAT     H295990   0.159   8.178   5.174 -0.0601  0.2282  0.1622
23546WAT    EPW95991   0.142   8.252   5.132 -0.0371  0.2265  0.1493
23547WAT      O95992  -0.304   4.123   0.320  0.1555 -0.3586 -0.0276
23547WAT     H195993  -0.385   4.081   0.292 -0.2924  0.8290 -0.5925
23547WAT     H295994  -0.315   4.136   0.414  0.3686 -1.6220  0.1809
23547WAT    EPW95995  -0.316   4.119   0.328  0.1245 -0.3686 -0.0746
23548WAT      O95996  -3.396   4.292   8.746  0.0993 -0.0551 -0.1717
23548WAT     H195997  -3.368   4.346   8.672 -2.7977 -0.1188 -1.4643
23548WAT     H295998  -3.428   4.354   8.810 -1.7685 -0.0923 -1.0061
23548WAT    EPW95999  -3.396   4.307   8.744 -0.5292 -0.0684 -0.4520
23549WAT      O96000   6.617   4.511   1.047  0.4761  0.3739 -0.4268
23549WAT     H196001   6.538   4.457   1.045  1.2169 -0.7751 -3.3000
23549WAT     H296002   6.684   4.454   1.083  0.3610  0.9001  0.6871
23549WAT    EPW96003   6.615   4.497   1.052  0.5584  0.2918 -0.6589
23550WAT      O96004   4.040   4.475   7.560 -0.3705 -0.1247 -0.0303
23550WAT     H196005   3.957   4.514   7.588 -0.3910 -0.2907  0.1374
23550WAT     H296006   4.033   4.471   7.464  0.5559  2.4287 -0.2848
23550WAT    EPW96007   4.028   4.480   7.551 -0.2511  0.1900 -0.0417
23551WAT      O96008  -0.869   5.405   1.189  0.6736  0.2047  0.0679
23551WAT     H196009  -0.916   5.455   1.123  0.4329  0.4432  0.4154
23551WAT     H296010  -0.915   5.321   1.192 -0.1516  0.6735  0.8727
23551WAT    EPW96011  -0.881   5.401   1.181  0.5330  0.2980  0.2199
23552WAT      O96012   2.112   2.574   5.151  0.7692 -0.2577  0.9629
23552WAT     H196013   2.188   2.599   5.204  1.0531 -3.4937  2.3198
23552WAT     H296014   2.073   2.657   5.124  3.9294  1.5118  1.4246
23552WAT    EPW96015   2.117   2.588   5.155  1.2234 -0.4512  1.2028
23553WAT      O96016   7.981   2.602   0.066  0.4426  0.2368  0.4163
23553WAT     H196017   7.976   2.513   0.032  3.3659 -0.4324  1.4538
23553WAT     H296018   7.943   2.596   0.154 -1.8060  0.7015 -0.4427
23553WAT    EPW96019   7.975   2.590   0.073  0.5317  0.2098  0.4398
23554WAT      O96020  -0.898   4.916   1.319 -0.4092  0.9926  0.0558
23554WAT     H196021  -0.919   4.823   1.326  0.7047  0.5768 -1.5998
23554WAT     H296022  -0.859   4.926   1.232 -3.8203  3.6476 -1.4554
23554WAT    EPW96023  -0.896   4.905   1.308 -0.7122  1.2877 -0.3619
23555WAT      O96024   7.183   2.283   1.059 -0.7783 -0.2243  0.4703
23555WAT     H196025   7.209   2.260   0.970  0.0566 -3.9414  1.4972
23555WAT     H296026   7.263   2.273   1.110 -0.9694  2.9622  1.5666
23555WAT    EPW96027   7.197   2.278   1.054 -0.6933 -0.2943  0.7502
23556WAT      O96028  -0.222   1.176   1.878  0.2046 -0.4629  0.1577
23556WAT     H196029  -0.212   1.264   1.843  2.3952 -0.7918 -0.1842
23556WAT     H296030  -0.194   1.183   1.969  0.8090 -0.8753  0.0111
23556WAT    EPW96031  -0.217   1.188   1.886  0.5732 -0.5606  0.0933
23557WAT      O96032  -3.115   7.639   1.921  0.3609  0.1792  0.0116
23557WAT     H196033  -3.047   7.680   1.973  1.4576 -3.0417  1.3429
23557WAT     H296034  -3.068   7.585   1.858 -0.9830  0.0939 -0.9695
23557WAT    EPW96035  -3.100   7.637   1.919  0.3282 -0.2568  0.0579
23558WAT      O96036  -4.342   6.442   4.183 -0.5908 -0.4239 -0.0075
23558WAT     H196037  -4.393   6.451   4.264 -0.1318  3.8031  0.0558
23558WAT     H296038  -4.251   6.439   4.214 -0.4229  1.0625 -0.2725
23558WAT    EPW96039  -4.337   6.443   4.198 -0.5081  0.3297 -0.0343
23559WAT      O96040   1.023   6.348   5.657 -0.5260 -0.9913 -0.1484
23559WAT     H196041   0.961   6.368   5.587 -0.3514  3.8821  0.7371
23559WAT     H296042   0.969   6.322   5.731 -0.9741 -2.5280 -0.9788
23559WAT    EPW96043   1.008   6.347   5.658 -0.5621 -0.5512 -0.1411
23560WAT      O96044   9.217   1.756   1.244 -0.3421  0.1131 -0.1301
23560WAT     H196045   9.250   1.693   1.308 -0.5100 -0.8236 -0.9378
23560WAT     H296046   9.162   1.816   1.295  1.3187  0.7608  0.9631
23560WAT    EPW96047   9.214   1.755   1.259 -0.1450  0.0750 -0.0924
23561WAT      O96048  -1.727   4.210   6.550 -0.1122  1.0328  0.1741
23561WAT     H196049  -1.660   4.218   6.482 -2.1261 -0.0410 -2.0612
23561WAT     H296050  -1.810   4.218   6.503 -1.6246  2.7748  2.8969
23561WAT    EPW96051  -1.729   4.212   6.535 -0.5773  1.1208  0.2384
23562WAT      O96052  -0.785   3.033   7.446 -0.3547 -0.5083 -0.8632
23562WAT     H196053  -0.776   3.012   7.539 -0.8163  0.7942 -0.5017
23562WAT     H296054  -0.702   3.073   7.422  0.2576 -2.0087 -1.3711
23562WAT    EPW96055  -0.773   3.036   7.456 -0.3349 -0.5344 -0.8826
23563WAT      O96056   5.305   0.279   6.331 -0.4938  0.3279 -0.4724
23563WAT     H196057   5.298   0.246   6.241 -0.2229  0.1030 -0.4125
23563WAT     H296058   5.387   0.328   6.332  0.5614 -1.3816  0.1818
23563WAT    EPW96059   5.315   0.281   6.319 -0.3188  0.0727 -0.3781
23564WAT      O96060  -2.714   3.150   8.353  0.2557 -0.1278 -0.6939
23564WAT     H196061  -2.654   3.224   8.362 -0.3500  0.3067 -0.0669
23564WAT     H296062  -2.658   3.076   8.331  1.3802 -0.2963  2.3188
23564WAT    EPW96063  -2.699   3.150   8.351  0.3241 -0.0927 -0.2136
23565WAT      O96064   0.517   7.960   1.726  0.4768 -0.2347 -0.1286
23565WAT     H196065   0.467   7.972   1.807  0.1263 -2.6924  0.0943
23565WAT     H296066   0.468   7.894   1.678  1.5506  0.0389 -1.6353
23565WAT    EPW96067   0.504   7.953   1.731  0.5722 -0.5226 -0.2979
23566WAT      O96068  -3.944   3.853   4.650  0.2374  0.1135  0.1770
23566WAT     H196069  -3.913   3.943   4.648 -0.4074  0.3625  0.8120
23566WAT     H296070  -3.903   3.816   4.728 -1.0687  0.4714  1.0785
23566WAT    EPW96071  -3.935   3.860   4.660 -0.0199  0.1936  0.3796
23567WAT      O96072   5.032   7.454   0.175  0.7528  0.0630  0.4077
23567WAT     H196073   5.044   7.484   0.086 -0.4761  1.0244  0.5328
23567WAT     H296074   5.069   7.365   0.176  3.1104  0.9784 -0.3505
23567WAT    EPW96075   5.038   7.446   0.164  0.9017  0.3104  0.3242
23568WAT      O96076   1.412   8.220   1.001 -0.1815 -0.0633 -0.3288
23568WAT     H196077   1.451   8.133   1.014  1.1089  0.4844 -0.3528
23568WAT     H296078   1.369   8.240   1.084  2.1538  0.5415  0.8077
23568WAT    EPW96079   1.411   8.211   1.014  0.2967  0.0887 -0.1820
23569WAT      O96080   4.287   2.734   2.039  0.0823 -0.4843  0.2471
23569WAT     H196081   4.355   2.666   2.041 -1.2999 -1.9946 -0.9334
23569WAT     H296082   4.254   2.732   1.949 -2.8128 -1.1861  1.2257
23569WAT    EPW96083   4.291   2.725   2.027 -0.4818 -0.7762  0.2203
23570WAT      O96084   3.678   7.069   0.265 -0.0135 -0.7348 -0.6201
23570WAT     H196085   3.754   7.122   0.242  0.2820 -1.6080 -1.7743
23570WAT     H296086   3.619   7.077   0.190 -3.1457  3.3017  1.8061
23570WAT    EPW96087   3.680   7.077   0.252 -0.3877 -0.3176 -0.4523
23571WAT      O96088  -1.515   4.803   5.598 -0.5342  0.4195  0.1495
23571WAT     H196089  -1.504   4.730   5.658  1.4416  1.0139  0.5572
23571WAT     H296090  -1.568   4.767   5.526 -0.4359 -1.1174  0.8163
23571WAT    EPW96091  -1.521   4.789   5.596 -0.2607  0.2952  0.2913
23572WAT      O96092   2.273   7.117   2.161 -0.3850 -0.4354  0.2144
23572WAT     H196093   2.236   7.164   2.236  0.6894  0.5535  0.1493
23572WAT     H296094   2.248   7.169   2.085  1.2873  0.3963  0.1876
23572WAT    EPW96095   2.265   7.130   2.161 -0.0228 -0.1955  0.2022
23573WAT      O96096  -1.892   0.644   2.998 -0.1262  0.1267  0.2349
23573WAT     H196097  -1.843   0.568   3.027  0.1675  0.8086  1.6345
23573WAT     H296098  -1.831   0.717   3.007 -0.0621  0.4143 -2.0920
23573WAT    EPW96099  -1.878   0.644   3.003 -0.0790  0.2546  0.1125
23574WAT      O96100  -2.697   7.206   8.017 -0.1364  0.6468  0.0309
23574WAT     H196101  -2.671   7.172   8.103  1.4230  0.9815 -0.2708
23574WAT     H296102  -2.661   7.142   7.955 -0.7131  0.7311 -0.3948
23574WAT    EPW96103  -2.689   7.193   8.020 -0.0068  0.7021 -0.0648
23575WAT      O96104   4.030   9.653   4.202  1.1254  0.2234  0.1249
23575WAT     H196105   3.969   9.582   4.179 -0.6918  1.3553  1.1742
23575WAT     H296106   4.067   9.680   4.118 -2.1271  1.4276 -1.1053
23575WAT    EPW96107   4.027   9.647   4.188  0.4568  0.5312  0.1011
23576WAT      O96108   4.289   9.883   2.197 -0.2098  0.2570 -0.4029
23576WAT     H196109   4.299   9.962   2.251 -0.6389  0.4562 -0.6062
23576WAT     H296110   4.346   9.819   2.238 -2.7842 -0.5890  2.1996
23576WAT    EPW96111   4.298   9.885   2.209 -0.6061  0.1717 -0.0864
23577WAT      O96112   4.515   5.420   2.919  0.5645  0.1058 -0.6866
23577WAT     H196113   4.481   5.510   2.918 -0.1022 -0.1400 -1.0468
23577WAT     H296114   4.439   5.366   2.942  1.2721 -0.2551  0.8714
23577WAT    EPW96115   4.500   5.425   2.922  0.5698  0.0257 -0.5287
23578WAT      O96116   2.294   0.356   4.301  0.2655 -0.5695  0.3862
23578WAT     H196117   2.301   0.290   4.370 -1.2715  1.7772  2.9855
23578WAT     H296118   2.201   0.358   4.278  0.1494  1.1254  0.8849
23578WAT    EPW96119   2.283   0.348   4.307  0.0476 -0.0364  0.7949
23579WAT      O96120   2.572   2.248   8.787  0.8278 -0.0481  0.2179
23579WAT     H196121   2.548   2.155   8.780 -0.2606  0.2869 -0.7793
23579WAT     H296122   2.520   2.280   8.861  0.1292  0.0760 -0.3164
23579WAT    EPW96123   2.562   2.240   8.796  0.5921  0.0125  0.0157
23580WAT      O96124   5.285   7.888   1.110  0.8365  0.1316  0.3268
23580WAT     H196125   5.255   7.865   1.198  1.9869 -0.5223  0.5767
23580WAT     H296126   5.369   7.932   1.125  0.4041  1.2094 -0.3763
23580WAT    EPW96127   5.292   7.891   1.124  0.9313  0.1874  0.2670
23581WAT      O96128  -5.940   5.911   7.253 -0.7846  1.1676  0.0729
23581WAT     H196129  -5.860   5.954   7.224  0.1722 -0.8883 -0.5322
23581WAT     H296130  -5.920   5.817   7.247 -2.4851  0.6136  2.0436
23581WAT    EPW96131  -5.927   5.904   7.248 -0.8829  0.8233  0.2530
23582WAT      O96132   0.761   2.418   3.367 -0.2546 -0.1856 -0.1623
23582WAT     H196133   0.835   2.448   3.315 -0.0397 -1.6007 -0.7274
23582WAT     H296134   0.788   2.433   3.458 -0.1935  1.3086 -0.4020
23582WAT    EPW96135   0.775   2.424   3.372 -0.2182 -0.1751 -0.2685
23583WAT      O96136  -5.878   9.483   8.209 -0.4664  0.3047 -0.3060
23583WAT     H196137  -5.859   9.396   8.243 -1.8577  0.7159  1.7354
23583WAT     H296138  -5.800   9.534   8.227 -0.3336 -0.0716  0.1978
23583WAT    EPW96139  -5.865   9.478   8.216 -0.6323  0.3095  0.0296
23584WAT      O96140  -4.308   9.379   3.772  0.5298  0.4665  0.5771
23584WAT     H196141  -4.396   9.346   3.752  0.7142  0.8212 -0.9349
23584WAT     H296142  -4.313   9.472   3.754  1.6634  0.2141 -1.2931
23584WAT    EPW96143  -4.320   9.387   3.767  0.7036  0.4797  0.1310
23585WAT      O96144   5.009   0.799   6.684 -0.4399  0.4980  0.7185
23585WAT     H196145   5.081   0.861   6.671 -2.7979  3.4682  0.6997
23585WAT     H296146   5.003   0.788   6.779  0.2614 -0.0719  0.7005
23585WAT    EPW96147   5.017   0.806   6.695 -0.6583  0.8146  0.7136
23586WAT      O96148   0.870   4.351   4.557 -0.4710  0.2933 -0.0690
23586WAT     H196149   0.847   4.401   4.479 -2.3242  0.1041  0.3051
23586WAT     H296150   0.862   4.259   4.530  0.8803  0.2064 -0.1971
23586WAT    EPW96151   0.866   4.345   4.543 -0.5372  0.2568 -0.0367
23587WAT      O96152  -5.135   4.603   8.352 -0.0868  0.6616 -1.0497
23587WAT     H196153  -5.065   4.545   8.384 -0.2080  0.1481 -1.6865
23587WAT     H296154  -5.100   4.691   8.364 -1.0011  0.6681  2.6009
23587WAT    EPW96155  -5.121   4.607   8.357 -0.2234  0.5949 -0.6523
23588WAT      O96156   2.563   1.229   1.156 -0.8655 -0.1863  0.7891
23588WAT     H196157   2.616   1.151   1.141 -2.3265 -1.0355 -0.1292
23588WAT     H296158   2.618   1.301   1.126  0.4269 -0.8442  1.4753
23588WAT    EPW96159   2.577   1.229   1.150 -0.8878 -0.3850  0.7585
23589WAT      O96160  -1.762   3.297   7.808  0.5512  0.3435 -0.1489
23589WAT     H196161  -1.693   3.302   7.742  1.5705  3.1094  0.9572
23589WAT     H296162  -1.715   3.287   7.891 -0.3497  1.7484  0.5760
23589WAT    EPW96163  -1.746   3.297   7.810  0.5668  0.8935  0.0925
23590WAT      O96164  -5.970  10.176   8.296  0.4360  0.7573 -0.9103
23590WAT     H196165  -5.959  10.083   8.319  0.0467  1.2494  1.5264
23590WAT     H296166  -5.884  10.203   8.264  0.9848 -0.0905 -0.2126
23590WAT    EPW96167  -5.957  10.167   8.295  0.4570  0.7105 -0.4969
23591WAT      O96168   9.168   0.112   2.455 -0.2683 -0.8685  0.1020
23591WAT     H196169   9.111   0.045   2.493 -1.3896  1.9106  3.9582
23591WAT     H296170   9.108   0.183   2.430  1.1142  1.6725  3.2332
23591WAT    EPW96171   9.152   0.112   2.456 -0.2337 -0.1668  1.0235
23592WAT      O96172   8.264   0.863   3.849 -1.2547 -0.4392 -0.1083
23592WAT     H196173   8.233   0.934   3.905 -0.7280  0.8057 -1.3215
23592WAT     H296174   8.346   0.897   3.811 -0.9295 -1.7439 -0.6234
23592WAT    EPW96175   8.271   0.877   3.851 -1.1424 -0.4471 -0.3363
23593WAT      O96176  -0.744   9.239   7.690  0.7166 -0.1417 -0.6871
23593WAT     H196177  -0.672   9.229   7.753  0.0407 -0.1047  0.1112
23593WAT     H296178  -0.711   9.200   7.609  1.2563 -1.0773 -0.0355
23593WAT    EPW96179  -0.730   9.233   7.688  0.6986 -0.2599 -0.4959
23594WAT      O96180   2.864   4.058   5.031 -0.4256  0.4011 -0.5818
23594WAT     H196181   2.943   4.056   5.086  0.3817  2.9621 -1.5090
23594WAT     H296182   2.799   4.102   5.085 -0.7193 -0.1582 -0.4652
23594WAT    EPW96183   2.866   4.063   5.045 -0.3580  0.6652 -0.6886
23595WAT      O96184   1.881   3.372   6.640  0.1511  0.4748 -0.4048
23595WAT     H196185   1.903   3.386   6.548 -2.6001 -0.3520 -1.2649
23595WAT     H296186   1.862   3.279   6.646 -2.3806  0.9834  0.3310
23595WAT    EPW96187   1.882   3.362   6.629 -0.5457  0.4328 -0.4210
23596WAT      O96188   5.488   3.088   1.140  0.0166 -0.3572  0.9721
23596WAT     H196189   5.535   3.107   1.059 -0.5158 -0.5016  0.6304
23596WAT     H296190   5.557   3.088   1.207  0.6733 -1.4976  0.3405
23596WAT    EPW96191   5.503   3.090   1.138  0.0329 -0.5267  0.8438
23597WAT      O96192   4.200   5.840   4.706 -0.3070 -0.6392 -0.4272
23597WAT     H196193   4.108   5.845   4.677 -0.4892 -1.6090 -0.0597
23597WAT     H296194   4.212   5.916   4.763 -0.2758  0.6699 -2.0958
23597WAT    EPW96195   4.189   5.851   4.709 -0.3269 -0.5944 -0.5989
23598WAT      O96196   1.295   2.689   5.946  0.0310  0.1174 -0.4822
23598WAT     H196197   1.269   2.764   5.999  1.9444  1.9915 -2.0347
23598WAT     H296198   1.373   2.655   5.990 -0.9315 -1.1602  0.3197
23598WAT    EPW96199   1.302   2.694   5.959  0.1564  0.1960 -0.5810
23599WAT      O96200  -3.311   6.476   5.587 -0.2073  0.2652 -0.1694
23599WAT     H196201  -3.344   6.484   5.498  1.0646  2.0375 -0.5391
23599WAT     H296202  -3.240   6.541   5.593 -0.2176  0.1694  2.1153
23599WAT    EPW96203  -3.306   6.485   5.576 -0.0409  0.4864  0.0832
23600WAT      O96204  -2.536   8.565   6.610  0.6787 -0.4124  0.2909
23600WAT     H196205  -2.452   8.582   6.652  1.6690 -1.6519 -1.0964
23600WAT     H296206  -2.526   8.479   6.569 -0.9289 -0.1611 -0.7320
23600WAT    EPW96207  -2.523   8.556   6.610  0.5974 -0.5426 -0.0269
23601WAT      O96208   1.014   5.877   4.158  0.4620  0.5686 -0.0677
23601WAT     H196209   1.019   5.866   4.063 -1.6307 -1.1209 -0.0621
23601WAT     H296210   0.981   5.965   4.171  0.8009  0.8245 -0.8947
23601WAT    EPW96211   1.010   5.887   4.148  0.2307  0.3796 -0.1760
23602WAT      O96212   3.893   5.319   1.087  0.2093 -0.1308  0.2152
23602WAT     H196213   3.846   5.345   1.166 -0.4062 -0.1263 -0.1377
23602WAT     H296214   3.849   5.239   1.059  0.8018 -0.4497  0.2022
23602WAT    EPW96215   3.881   5.312   1.093  0.2062 -0.1721  0.1668
23603WAT      O96216   0.990   1.970   5.762  0.3552 -0.1314 -0.6689
23603WAT     H196217   0.897   1.964   5.741  0.4164 -0.9984 -0.7426
23603WAT     H296218   0.996   2.041   5.826 -0.7385 -1.8578  1.4898
23603WAT    EPW96219   0.979   1.979   5.767  0.2190 -0.4734 -0.3941
23604WAT      O96220   4.746   5.996   4.480 -1.3173 -0.0456  0.1325
23604WAT     H196221   4.687   6.024   4.410 -2.1256  0.8405  1.1400
23604WAT     H296222   4.706   5.917   4.515 -0.7897 -0.6217 -0.5379
23604WAT    EPW96223   4.733   5.989   4.476 -1.3542 -0.0048  0.1769
23605WAT      O96224  -1.927   7.847   2.580  0.4101 -0.0931 -0.3894
23605WAT     H196225  -2.004   7.822   2.529 -2.2907 -1.3210  3.7530
23605WAT     H296226  -1.944   7.938   2.606  0.2416 -0.4061  0.6356
23605WAT    EPW96227  -1.940   7.856   2.577  0.0317 -0.2966  0.2921
23606WAT      O96228   2.804   4.951   7.771  0.2637  0.5884 -0.5920
23606WAT     H196229   2.770   5.011   7.704  0.1596 -0.5834 -1.6163
23606WAT     H296230   2.887   4.991   7.798 -0.5425  1.9948 -0.1157
23606WAT    EPW96231   2.811   4.964   7.766  0.1436  0.6194 -0.6642
23607WAT      O96232   1.599   0.075   1.975 -0.4192 -0.5922 -0.3541
23607WAT     H196233   1.689   0.067   1.944 -0.4048 -1.7184 -0.0598
23607WAT     H296234   1.607   0.122   2.059 -0.0944 -0.7818 -0.2781
23607WAT    EPW96235   1.612   0.080   1.982 -0.3746 -0.7658 -0.3052
23608WAT      O96236  -1.705  10.014   4.282 -1.2341  0.5409 -0.4192
23608WAT     H196237  -1.672  10.025   4.371 -0.2883  1.7875 -0.9009
23608WAT     H296238  -1.638   9.964   4.237 -0.9567  1.2770 -0.8426
23608WAT    EPW96239  -1.692  10.009   4.288 -1.0728  0.8025 -0.5386
23609WAT      O96240   2.769   1.680   8.722 -0.0675 -0.7785  0.1492
23609WAT     H196241   2.858   1.694   8.688  0.0597  0.4756  0.9474
23609WAT     H296242   2.783   1.640   8.808 -0.2126  0.7265  0.8914
23609WAT    EPW96243   2.783   1.676   8.729 -0.0699 -0.4146  0.3524
23610WAT      O96244  -1.208   0.786   7.437  0.4965  0.6097 -0.5137
23610WAT     H196245  -1.178   0.778   7.528  0.8266  1.5021 -0.5344
23610WAT     H296246  -1.243   0.875   7.431  0.2752  0.4852 -1.2107
23610WAT    EPW96247  -1.209   0.797   7.448  0.5108  0.7110 -0.6084
23611WAT      O96248  -2.371   4.593   8.175 -0.4675 -0.0569  1.1177
23611WAT     H196249  -2.357   4.675   8.128 -0.6635 -0.3788  0.4750
23611WAT     H296250  -2.459   4.565   8.149  0.5000 -1.7070 -0.6530
23611WAT    EPW96251  -2.381   4.600   8.165 -0.3657 -0.3169  0.7997
23612WAT      O96252   3.592   8.542   5.296  0.3066  0.3185 -0.3485
23612WAT     H196253   3.684   8.566   5.304  0.2542  0.6457 -0.7083
23612WAT     H296254   3.544   8.621   5.322  0.1204 -0.1060  0.6254
23612WAT    EPW96255   3.598   8.556   5.300  0.2751  0.3057 -0.2677
23613WAT      O96256   4.657  10.095   1.848 -0.1935 -0.0225  0.0468
23613WAT     H196257   4.720  10.025   1.868  0.5178  0.6226  0.1224
23613WAT     H296258   4.573  10.060   1.876  0.1428 -0.8565  0.0679
23613WAT    EPW96259   4.655  10.081   1.854 -0.0556 -0.0472  0.0596
23614WAT      O96260   2.729   0.566   3.223 -0.0337 -0.8767  0.4331
23614WAT     H196261   2.793   0.504   3.258 -0.0407 -0.2848  1.5397
23614WAT     H296262   2.719   0.631   3.292 -1.4528 -0.6828  0.0624
23614WAT    EPW96263   2.736   0.566   3.237 -0.2218 -0.7731  0.5302
23615WAT      O96264  -8.143   9.512   8.154  0.0387 -0.6368  0.6403
23615WAT     H196265  -8.207   9.449   8.121 -0.1333  0.4102 -1.2084
23615WAT     H296266  -8.194   9.592   8.169  0.6283 -0.2746  0.7555
23615WAT    EPW96267  -8.158   9.515   8.151  0.0939 -0.4506  0.4120
23616WAT      O96268  -5.980   7.364   6.598 -0.5934 -0.6100  0.2875
23616WAT     H196269  -6.026   7.375   6.681 -0.7705  0.1708  0.0914
23616WAT     H296270  -6.033   7.301   6.549 -1.0965 -0.2156  0.3251
23616WAT    EPW96271  -5.993   7.357   6.602 -0.6831 -0.4551  0.2666
23617WAT      O96272  -3.733  10.255   6.051  0.7323  0.2597  0.4647
23617WAT     H196273  -3.754  10.288   5.963 -0.2359  0.4936  0.7688
23617WAT     H296274  -3.680  10.325   6.090  0.5617  0.4711  0.3222
23617WAT    EPW96275  -3.729  10.269   6.044  0.5822  0.3185  0.4861
23618WAT      O96276   3.929   4.372   0.797 -0.0382 -0.4966 -0.3523
23618WAT     H196277   3.869   4.436   0.760 -0.0133 -0.7275 -0.8118
23618WAT     H296278   3.920   4.381   0.892 -1.2868 -0.9846 -0.4124
23618WAT    EPW96279   3.920   4.381   0.805 -0.1997 -0.5915 -0.4208
23619WAT      O96280   1.074   6.643   2.986 -0.0801 -0.2951  1.4035
23619WAT     H196281   0.995   6.631   2.933 -0.4930  2.9526  1.0726
23619WAT     H296282   1.041   6.667   3.073  0.5873 -1.3035  1.9477
23619WAT    EPW96283   1.059   6.645   2.990 -0.0465  0.0002  1.4316
23620WAT      O96284   9.363   0.418   2.304  0.0454  0.2246  0.7147
23620WAT     H196285   9.433   0.444   2.364  1.6276 -0.9830 -0.5315
23620WAT     H296286   9.364   0.322   2.305  0.5757  0.1437 -1.6787
23620WAT    EPW96287   9.372   0.409   2.312  0.3242  0.0547  0.2346
23621WAT      O96288   3.520   8.005   7.290 -0.3667  0.4054  0.2176
23621WAT     H196289   3.554   7.955   7.365 -0.4103 -0.3180 -0.2441
23621WAT     H296290   3.456   7.947   7.249 -0.0845  0.6554 -0.5941
23621WAT    EPW96291   3.516   7.991   7.295 -0.3352  0.3431  0.0498
23622WAT      O96292   3.126   0.507   1.110  0.3611  0.2872  0.0912
23622WAT     H196293   3.148   0.417   1.131 -0.8162 -0.1262 -0.3678
23622WAT     H296294   3.192   0.559   1.155  0.4136 -0.7484  1.2578
23622WAT    EPW96295   3.138   0.502   1.118  0.2127  0.0961  0.1845
23623WAT      O96296   3.466   3.421   0.178 -0.4784 -0.2322 -0.8485
23623WAT     H196297   3.545   3.376   0.206  2.2555  3.4292 -1.8923
23623WAT     H296298   3.425   3.361   0.116  2.2395 -1.7555 -1.3158
23623WAT    EPW96299   3.471   3.407   0.174  0.2407  0.0497 -1.0478
23624WAT      O96300   6.983   2.822   1.777  0.9316 -0.1621 -0.4055
23624WAT     H196301   7.000   2.739   1.822  1.5433  0.1003 -0.1415
23624WAT     H296302   7.043   2.884   1.818  0.6492  0.3566 -0.7700
23624WAT    EPW96303   6.994   2.819   1.788  0.9749 -0.0591 -0.4188
23625WAT      O96304   0.760  10.184   3.661 -0.0339 -0.4947 -0.2079
23625WAT     H196305   0.714  10.243   3.720  1.6240  0.0593  0.5939
23625WAT     H296306   0.690  10.140   3.612 -1.3593  1.6940 -0.4366
23625WAT    EPW96307   0.745  10.186   3.662  0.0099 -0.1330 -0.1323
23626WAT      O96308   0.663   2.902   7.221 -0.2317 -0.0859  0.1855
23626WAT     H196309   0.662   2.933   7.130 -2.0025  0.3678  0.3335
23626WAT     H296310   0.593   2.951   7.264 -1.0326 -2.0180  1.2011
23626WAT    EPW96311   0.654   2.912   7.215 -0.5709 -0.2809  0.3388
23627WAT      O96312  -2.137   5.008   0.913 -0.4543 -0.5265  0.3551
23627WAT     H196313  -2.095   5.001   0.828 -2.6933 -0.6146 -0.8000
23627WAT     H296314  -2.086   4.950   0.970  0.9119 -0.6613 -0.9489
23627WAT    EPW96315  -2.125   5.000   0.909 -0.5695 -0.5558  0.0308
23628WAT      O96316   0.166   6.576   2.215 -0.1600  0.1548 -0.0604
23628WAT     H196317   0.210   6.491   2.213  2.8585  1.6017 -0.3986
23628WAT     H296318   0.156   6.599   2.122 -2.2794 -0.3728 -0.0177
23628WAT    EPW96319   0.170   6.568   2.202 -0.0414  0.2759 -0.0994
23629WAT      O96320   3.551   2.231   0.056  0.2086 -0.3057 -0.6998
23629WAT     H196321   3.587   2.174  -0.013 -0.4710 -0.0553 -1.2748
23629WAT     H296322   3.615   2.302   0.063 -0.7054  0.7927 -2.5792
23629WAT    EPW96323   3.564   2.233   0.048 -0.0015 -0.1278 -1.0235
23630WAT      O96324  -1.705   6.802   4.523 -0.9504  0.3471  0.7406
23630WAT     H196325  -1.745   6.780   4.439  2.1241 -2.0203 -0.2625
23630WAT     H296326  -1.642   6.871   4.502 -0.5505  0.1248  1.1987
23630WAT    EPW96327  -1.702   6.808   4.509 -0.4922  0.0055  0.6688
23631WAT      O96328  -3.293   8.524   5.074 -0.3013  0.3276 -0.3948
23631WAT     H196329  -3.256   8.589   5.133  0.8476  1.0536 -1.8594
23631WAT     H296330  -3.230   8.452   5.076 -1.1084 -0.3875  0.5133
23631WAT    EPW96331  -3.280   8.523   5.082 -0.2562  0.3290 -0.4683
23632WAT      O96332  -5.168   8.705   3.586  0.6587  0.5884 -0.0865
23632WAT     H196333  -5.247   8.735   3.630  0.2644 -1.7372  0.9037
23632WAT     H296334  -5.199   8.670   3.502  0.6203 -0.2607  0.2725
23632WAT    EPW96335  -5.183   8.705   3.581  0.6015  0.1698  0.0914
23633WAT      O96336  -2.172   8.316   6.592  0.0245 -1.3818 -0.5687
23633WAT     H196337  -2.231   8.354   6.658  4.0058  2.5383  1.3030
23633WAT     H296338  -2.143   8.233   6.630  0.1184 -0.5169  1.3576
23633WAT    EPW96339  -2.176   8.310   6.606  0.5621 -0.7510 -0.0677
23634WAT      O96340   4.484   0.891   3.522  0.5712  0.1132  0.3639
23634WAT     H196341   4.412   0.921   3.466  1.8172  1.4204 -0.6046
23634WAT     H296342   4.544   0.965   3.526  1.4562 -0.6361  1.8816
23634WAT    EPW96343   4.482   0.905   3.515  0.8523  0.1868  0.4363
23635WAT      O96344  -7.608   7.602   8.624  0.1328 -0.5192 -0.6494
23635WAT     H196345  -7.645   7.539   8.686  0.7049 -0.8745 -0.6605
23635WAT     H296346  -7.660   7.591   8.545 -1.4804  0.8757  0.1607
23635WAT    EPW96347  -7.620   7.592   8.622 -0.0045 -0.3822 -0.5445
23636WAT      O96348   0.863   4.085   4.415  0.2309 -0.6756 -0.2840
23636WAT     H196349   0.807   4.008   4.428  1.4235 -1.6618 -0.7094
23636WAT     H296350   0.847   4.112   4.325 -1.0870  0.3593  0.2270
23636WAT    EPW96351   0.853   4.078   4.405  0.2143 -0.6695 -0.2728
23637WAT      O96352  -0.391   1.617   7.842  0.4698  0.6164 -0.1140
23637WAT     H196353  -0.358   1.685   7.901  0.8579 -0.2517  0.7065
23637WAT     H296354  -0.376   1.651   7.755  1.7243  1.1086  0.2684
23637WAT    EPW96355  -0.384   1.630   7.839  0.6865  0.5668  0.0443
23638WAT      O96356  -0.648   3.524   7.967  0.8357  0.2892 -0.5756
23638WAT     H196357  -0.713   3.550   8.032  0.8571  0.4935 -0.6352
23638WAT     H296358  -0.698   3.513   7.886  0.6342 -1.0074 -0.2906
23638WAT    EPW96359  -0.663   3.526   7.965  0.8120  0.1452 -0.5457
23639WAT      O96360  -3.082   2.277   5.953 -0.2014 -0.7385  0.0533
23639WAT     H196361  -3.101   2.230   5.872  2.0275 -0.4205 -0.7292
23639WAT     H296362  -3.017   2.343   5.928  2.0644 -1.9064  2.4077
23639WAT    EPW96363  -3.076   2.280   5.939  0.3915 -0.8506  0.2606
23640WAT      O96364   1.428   1.015   4.398 -0.0050 -0.0291  0.0329
23640WAT     H196365   1.466   1.091   4.442 -1.6931  2.0189 -1.7910
23640WAT     H296366   1.479   1.006   4.317 -0.1138 -0.5743  0.0184
23640WAT    EPW96367   1.440   1.024   4.393 -0.2420  0.1692 -0.2096
23641WAT      O96368   0.486   0.225   6.571  0.3304 -0.6517  0.0261
23641WAT     H196369   0.576   0.233   6.540  0.6485 -1.2934  0.7290
23641WAT     H296370   0.467   0.309   6.612 -0.1979  0.3069 -2.0869
23641WAT    EPW96371   0.495   0.237   6.572  0.3027 -0.6099 -0.1600
23642WAT      O96372   3.317   3.782   5.542 -0.1689 -0.0698 -0.2851
23642WAT     H196373   3.404   3.754   5.513 -0.5772 -0.7663 -0.8744
23642WAT     H296374   3.286   3.709   5.596 -0.0910  0.5028  0.5470
23642WAT    EPW96375   3.324   3.769   5.545 -0.2124 -0.0862 -0.2532
23643WAT      O96376   3.607   6.846   5.103  0.9190  1.1595  0.2822
23643WAT     H196377   3.550   6.839   5.026  2.2963 -0.6089 -0.6415
23643WAT     H296378   3.650   6.931   5.093  1.1051  0.9458 -0.9656
23643WAT    EPW96379   3.605   6.856   5.092  1.1252  0.8981 -0.0043
23644WAT      O96380   0.577   2.140   7.475  0.7748  0.2379  0.4427
23644WAT     H196381   0.580   2.135   7.570  0.5959 -1.3403  0.3884
23644WAT     H296382   0.615   2.058   7.445 -2.2613 -0.8934 -0.7568
23644WAT    EPW96383   0.582   2.128   7.483  0.3508 -0.1194  0.2773
23645WAT      O96384  -1.493   6.961   7.757  0.2587  0.1429 -0.2191
23645WAT     H196385  -1.416   6.992   7.806 -0.2539 -0.7131  1.1931
23645WAT     H296386  -1.455   6.913   7.683  1.0579  1.4106 -0.6651
23645WAT    EPW96387  -1.478   6.959   7.753  0.2965  0.1972 -0.0916
23646WAT      O96388  -4.359  10.265   3.999  0.1942 -0.3914 -0.2380
23646WAT     H196389  -4.288  10.231   3.944  0.6524 -1.9277  1.2114
23646WAT     H296390  -4.397  10.336   3.948  2.4926  0.2075 -1.2545
23646WAT    EPW96391  -4.354  10.270   3.985  0.5579 -0.5155 -0.1810
23647WAT      O96392   3.076   2.438   1.424  0.2204  0.1193  0.3122
23647WAT     H196393   3.114   2.416   1.510  1.1537 -1.1874 -0.3965
23647WAT     H296394   2.989   2.398   1.426 -0.9307  2.4830  1.6616
23647WAT    EPW96395   3.070   2.430   1.436  0.1917  0.2588  0.3967
23648WAT      O96396  -4.187   9.508   2.266 -0.4017 -0.2481  0.3694
23648WAT     H196397  -4.236   9.458   2.331 -1.9252  1.9376  1.0138
23648WAT     H296398  -4.154   9.584   2.313 -0.2255  0.6154 -1.0756
23648WAT    EPW96399  -4.189   9.512   2.281 -0.5794  0.1535  0.2638
23649WAT      O96400  -0.411   8.586   3.183 -0.4289 -0.7774 -0.7072
23649WAT     H196401  -0.456   8.556   3.104  0.5210 -0.0757 -1.5552
23649WAT     H296402  -0.402   8.507   3.237 -3.5692 -0.7583  0.0294
23649WAT    EPW96403  -0.415   8.572   3.180 -0.7178 -0.6828 -0.7219
23650WAT      O96404   6.330   5.807   2.977 -0.0586  0.2335 -0.7615
23650WAT     H196405   6.369   5.727   3.013  1.8813  1.8410  1.0139
23650WAT     H296406   6.386   5.829   2.902 -1.0144 -0.3981 -1.6850
23650WAT    EPW96407   6.343   5.799   2.972  0.0710  0.3622 -0.6492
23651WAT      O96408  -5.105   6.527   8.391  0.9361  0.1119 -0.3362
23651WAT     H196409  -5.081   6.439   8.421  0.4491  1.2957  4.4168
23651WAT     H296410  -5.024   6.577   8.397  0.4710  0.7675  0.7483
23651WAT    EPW96411  -5.091   6.522   8.396  0.8106  0.3543  0.4339
23652WAT      O96412   1.211   1.936   2.382  0.1718 -0.1995  0.4809
23652WAT     H196413   1.143   1.997   2.352  0.1630 -1.1602 -1.5759
23652WAT     H296414   1.181   1.909   2.469  0.2571  2.7723  1.5476
23652WAT    EPW96415   1.198   1.940   2.390  0.1819  0.0657  0.3504
23653WAT      O96416   0.452   6.191   6.654 -0.9323 -0.6964 -0.6989
23653WAT     H196417   0.489   6.254   6.592 -0.7662 -0.8010 -0.7070
23653WAT     H296418   0.524   6.131   6.673 -1.2715 -1.2659 -1.1843
23653WAT    EPW96419   0.466   6.191   6.649 -0.9551 -0.7851 -0.7639
23654WAT      O96420   0.770   0.097   7.281 -0.2096  0.9387  0.1167
23654WAT     H196421   0.786   0.123   7.190 -1.3500  0.2896 -0.2761
23654WAT     H296422   0.858   0.094   7.320  0.4418 -0.1557 -1.3373
23654WAT    EPW96423   0.784   0.100   7.275 -0.2741  0.7088 -0.1271
23655WAT      O96424  -5.191   5.039   8.646  0.0025 -0.3637 -0.3423
23655WAT     H196425  -5.215   4.970   8.584  1.0987 -0.8376 -0.2678
23655WAT     H296426  -5.239   5.017   8.726 -0.7328 -0.2447 -0.7391
23655WAT    EPW96427  -5.200   5.027   8.649  0.0503 -0.4108 -0.3848
23656WAT      O96428   7.015   0.424   3.781  0.0468  0.2788  0.2652
23656WAT     H196429   6.966   0.503   3.756 -0.2807 -0.5320 -1.8092
23656WAT     H296430   6.984   0.357   3.721  2.5590 -0.6688 -0.0631
23656WAT    EPW96431   7.004   0.426   3.770  0.3350  0.0469 -0.0516
23657WAT      O96432  -0.487   2.673   1.868  0.2066  0.0522 -0.5544
23657WAT     H196433  -0.456   2.738   1.805  0.0940  0.4872 -0.1692
23657WAT     H296434  -0.482   2.718   1.953 -2.3115  0.4569 -0.5591
23657WAT    EPW96435  -0.482   2.688   1.871 -0.1404  0.1630 -0.5043
23658WAT      O96436  -0.246  10.002   0.555 -0.7616  0.4163  0.5433
23658WAT     H196437  -0.199  10.080   0.581 -2.7627  1.3737  1.4999
23658WAT     H296438  -0.224   9.990   0.462  1.0837  0.9309  0.8685
23658WAT    EPW96439  -0.237  10.010   0.546 -0.7822  0.6104  0.7123
23659WAT      O96440  -1.290   7.661   1.395 -0.0891 -0.3150 -0.3514
23659WAT     H196441  -1.261   7.710   1.472 -0.1441 -0.6202 -0.1358
23659WAT     H296442  -1.385   7.671   1.394  0.0839  1.8380 -1.8309
23659WAT    EPW96443  -1.298   7.669   1.405 -0.0736 -0.0713 -0.5181
23660WAT      O96444   1.256  10.350   1.073 -0.2313  0.1105 -0.6965
23660WAT     H196445   1.201  10.382   1.002 -0.3842 -1.3845 -1.2885
23660WAT     H296446   1.304  10.276   1.035  0.0193 -0.4412  0.6275
23660WAT    EPW96447   1.255  10.344   1.059 -0.2185 -0.1593 -0.5999
23661WAT      O96448  -1.433   2.130   5.801 -0.3498  0.1424  0.3678
23661WAT     H196449  -1.390   2.117   5.716  2.2859 -1.3770  1.8087
23661WAT     H296450  -1.506   2.188   5.781  1.9600  2.4577 -2.4642
23661WAT    EPW96451  -1.437   2.136   5.787  0.3024  0.2474  0.1845
23662WAT      O96452   5.142   0.193   0.849 -0.2487 -0.7109  0.1320
23662WAT     H196453   5.209   0.259   0.868 -0.6564 -0.1361 -0.3766
23662WAT     H296454   5.142   0.136   0.926  0.9404 -0.8307  0.0630
23662WAT    EPW96455   5.151   0.194   0.862 -0.1457 -0.6509  0.0559
23663WAT      O96456  -2.049   6.315   8.220 -0.4066  0.1042 -0.6974
23663WAT     H196457  -1.965   6.285   8.183 -0.0313 -0.2786  0.4309
23663WAT     H296458  -2.042   6.296   8.313 -1.5703  0.5190 -0.5138
23663WAT    EPW96459  -2.037   6.308   8.227 -0.5106  0.1082 -0.5240
23664WAT      O96460   1.319   0.197   5.931 -0.6158  0.2551  0.1386
23664WAT     H196461   1.317   0.290   5.906  0.0509 -0.0138 -0.9432
23664WAT     H296462   1.241   0.160   5.890  0.6456 -0.2534 -1.9023
23664WAT    EPW96463   1.308   0.204   5.923 -0.3615  0.1525 -0.2730
23665WAT      O96464  -3.227   0.148   5.575 -1.0762 -0.3127  0.0999
23665WAT     H196465  -3.148   0.099   5.556 -1.3109 -0.5898 -0.1679
23665WAT     H296466  -3.292   0.082   5.597 -1.1028 -0.0582  0.8177
23665WAT    EPW96467  -3.225   0.133   5.575 -1.1107 -0.3157  0.1593
23666WAT      O96468   4.454   3.820   7.034  0.2002  0.6527  0.2867
23666WAT     H196469   4.514   3.839   6.962 -1.5756 -0.6059 -1.6303
23666WAT     H296470   4.415   3.904   7.056 -0.7204  0.7872 -1.6789
23666WAT    EPW96471   4.457   3.833   7.027 -0.1554  0.5045 -0.2253
23667WAT      O96472   0.170   9.192   4.513  0.4296 -0.4383 -0.1340
23667WAT     H196473   0.164   9.101   4.542 -1.9023 -0.5606 -0.8398
23667WAT     H296474   0.125   9.242   4.581  0.4125  0.0216 -0.4787
23667WAT    EPW96475   0.163   9.187   4.526  0.1198 -0.3939 -0.2725
23668WAT      O96476   3.466   2.762   6.095  0.3940  0.1071 -0.3776
23668WAT     H196477   3.495   2.757   6.004  0.8919  3.6613 -0.5446
23668WAT     H296478   3.378   2.726   6.094 -0.5406  2.2014 -2.8238
23668WAT    EPW96479   3.459   2.756   6.083  0.3365  0.8521 -0.7224
23669WAT      O96480  -6.869   8.390   7.888 -0.3067 -0.5534  0.4885
23669WAT     H196481  -6.880   8.377   7.794 -5.5996  0.9668  0.5749
23669WAT     H296482  -6.792   8.446   7.896  0.7842 -1.3954 -2.8018
23669WAT    EPW96483  -6.860   8.395   7.877 -0.8609 -0.4635  0.0660
23670WAT      O96484   5.062   3.644   0.627  0.1685  0.6042 -0.7154
23670WAT     H196485   5.045   3.561   0.671 -1.3702  1.6658  0.8188
23670WAT     H296486   5.126   3.688   0.682  0.8848  0.5344 -1.4613
23670WAT    EPW96487   5.068   3.639   0.640  0.0601  0.7350 -0.6114
23671WAT      O96488  -1.578   9.768   2.994  0.2610 -0.0600  0.0640
23671WAT     H196489  -1.550   9.782   2.903 -0.9057  0.2616 -0.2519
23671WAT     H296490  -1.673   9.764   2.990  0.1692  0.4094  1.3442
23671WAT    EPW96491  -1.587   9.769   2.982  0.0950  0.0443  0.1912
23672WAT      O96492   3.938   8.314   5.360 -0.3419  0.1271 -0.7814
23672WAT     H196493   3.952   8.347   5.448  0.8038  0.5884 -1.1054
23672WAT     H296494   3.861   8.257   5.366  1.0862 -1.7621  1.0325
23672WAT    EPW96495   3.930   8.311   5.372 -0.0024 -0.0610 -0.5848
23673WAT      O96496  -0.461   1.420   4.841  0.6675 -0.1006  0.4856
23673WAT     H196497  -0.531   1.456   4.896 -0.2837  0.0785 -0.8111
23673WAT     H296498  -0.506   1.385   4.765  1.9571 -0.4406 -0.1427
23673WAT    EPW96499  -0.476   1.420   4.838  0.7122 -0.1219  0.2315
23674WAT      O96500  -2.747  10.335   3.647 -0.4388  0.2431 -0.0698
23674WAT     H196501  -2.748  10.427   3.621  0.6186  0.3393  0.1742
23674WAT     H296502  -2.798  10.290   3.579 -0.5543  0.9422 -0.4519
23674WAT    EPW96503  -2.754  10.341   3.635 -0.3146  0.3481 -0.0880
23675WAT      O96504   2.381   2.447   3.337 -0.2860  0.3609 -0.8069
23675WAT     H196505   2.395   2.457   3.431  0.6085  0.8524 -0.9809
23675WAT     H296506   2.296   2.489   3.320 -1.3483 -1.3525  0.0487
23675WAT    EPW96507   2.371   2.454   3.347 -0.3082  0.1998 -0.7170
23676WAT      O96508  -4.364  10.115   2.435 -0.0124 -0.3934  0.2195
23676WAT     H196509  -4.442  10.151   2.393  0.2010 -0.1741  0.0050
23676WAT     H296510  -4.295  10.179   2.416  1.1182 -2.3126 -2.7708
23676WAT    EPW96511  -4.365  10.128   2.427  0.1647 -0.6175 -0.2031
23677WAT      O96512  -0.845   0.790   4.346  0.3485  0.3027 -0.6282
23677WAT     H196513  -0.787   0.844   4.293  0.2592  1.4424  0.4195
23677WAT     H296514  -0.787   0.726   4.388  0.9204  1.6376  0.6672
23677WAT    EPW96515  -0.830   0.788   4.345  0.4121  0.6291 -0.3190
23678WAT      O96516  -4.308   3.495   6.134  0.7747  0.3103 -0.6723
23678WAT     H196517  -4.376   3.454   6.082 -1.1963  1.4527  0.8513
23678WAT     H296518  -4.281   3.571   6.083 -0.5210  0.9405 -0.4528
23678WAT    EPW96519  -4.313   3.500   6.121  0.3438  0.5442 -0.4425
23679WAT      O96520  -2.108   6.693   3.518  0.9475  0.0399  0.1015
23679WAT     H196521  -2.138   6.609   3.552  1.3885  1.5072  4.8402
23679WAT     H296522  -2.178   6.754   3.539  2.6626  1.6434  1.4762
23679WAT    EPW96523  -2.121   6.690   3.526  1.2319  0.4449  0.9078
23680WAT      O96524   3.430   0.526   8.317 -0.4069 -0.1919  0.5726
23680WAT     H196525   3.482   0.553   8.242  1.7599 -1.5142  1.4948
23680WAT     H296526   3.377   0.602   8.339  1.2958  1.3184 -0.3151
23680WAT    EPW96527   3.430   0.539   8.310  0.1035 -0.1671  0.5770
23681WAT      O96528   3.386   5.446   1.067  0.5496 -0.0403 -0.1730
23681WAT     H196529   3.310   5.420   1.118 -0.2126 -1.1749 -1.8071
23681WAT     H296530   3.351   5.499   0.996  1.4974  0.8289 -0.0288
23681WAT    EPW96531   3.372   5.450   1.065  0.5741 -0.0753 -0.3695
23682WAT      O96532   6.213   9.711   2.114  0.0284 -0.0593 -0.8322
23682WAT     H196533   6.164   9.632   2.134 -0.5184  0.4740  0.0303
23682WAT     H296534   6.259   9.692   2.032 -0.6077 -1.0222 -0.9740
23682WAT    EPW96535   6.213   9.698   2.106 -0.1278 -0.1163 -0.7372
23683WAT      O96536  -4.291   2.372   6.685  0.7547 -0.9467 -0.1101
23683WAT     H196537  -4.245   2.345   6.606  3.8740  0.0668  1.1949
23683WAT     H296538  -4.285   2.467   6.685  0.2915 -0.9031  1.0474
23683WAT    EPW96539  -4.284   2.381   6.675  1.1053 -0.8074  0.2146
23684WAT      O96540   6.393   1.775   6.213 -0.3232  0.1947 -0.2062
23684WAT     H196541   6.424   1.701   6.160 -1.0683 -0.2939  0.0186
23684WAT     H296542   6.469   1.799   6.266 -0.2421 -0.8477  0.1882
23684WAT    EPW96543   6.407   1.768   6.213 -0.4108 -0.0072 -0.1245
23685WAT      O96544   3.660   1.274   0.487  0.1431  0.2649 -0.1448
23685WAT     H196545   3.622   1.214   0.423  1.3887  1.3266 -1.9529
23685WAT     H296546   3.754   1.276   0.465  0.0675  3.3432 -0.6120
23685WAT    EPW96547   3.668   1.266   0.476  0.2974  0.8110 -0.4449
23686WAT      O96548   3.902   0.743   3.237 -0.4554  0.0800 -0.1727
23686WAT     H196549   3.996   0.759   3.249  0.1358 -1.7895 -1.7155
23686WAT     H296550   3.889   0.653   3.266 -1.4697 -0.1542 -1.2699
23686WAT    EPW96551   3.913   0.734   3.242 -0.5112 -0.1975 -0.5209
23687WAT      O96552  -0.716   4.598   4.278  0.0762  0.0867  0.3973
23687WAT     H196553  -0.695   4.691   4.293  2.0392 -0.5266  1.8903
23687WAT     H296554  -0.632   4.554   4.282 -0.6076 -1.6223 -2.0352
23687WAT    EPW96555  -0.702   4.605   4.281  0.2449 -0.2196  0.2735
23688WAT      O96556  -1.313  10.086   6.997  0.0980  0.6698 -0.7967
23688WAT     H196557  -1.282  10.027   7.066 -1.5551 -0.0709 -0.6407
23688WAT     H296558  -1.344  10.163   7.044  2.8749  2.0463 -1.0411
23688WAT    EPW96559  -1.313  10.088   7.013  0.2463  0.7539 -0.8085
23689WAT      O96560   2.750   4.028   1.680  0.3605  0.0952 -0.4039
23689WAT     H196561   2.687   3.987   1.621  0.7964 -1.1186 -0.0354
23689WAT     H296562   2.695   4.079   1.741 -0.3413 -1.4999  0.3428
23689WAT    EPW96563   2.734   4.029   1.680  0.3254 -0.2751 -0.2568
23690WAT      O96564  -7.286   8.334   7.534  0.2807 -0.1324  0.2602
23690WAT     H196565  -7.367   8.284   7.532 -0.3129  0.7582  1.2537
23690WAT     H296566  -7.221   8.272   7.568  0.1447 -0.9935 -1.0040
23690WAT    EPW96567  -7.288   8.319   7.538  0.1845 -0.1287  0.2246
23691WAT      O96568   1.742   8.838   1.032  0.8263 -0.5236  0.3706
23691WAT     H196569   1.738   8.806   1.123 -1.6264  0.6882  0.7765
23691WAT     H296570   1.651   8.853   1.008  1.4839  0.1680 -1.9717
23691WAT    EPW96571   1.730   8.836   1.041  0.5895 -0.2723  0.1152
23692WAT      O96572  -2.191   3.764   6.856  0.4953 -0.0180  0.7528
23692WAT     H196573  -2.254   3.831   6.828 -1.4463 -1.5707  1.1892
23692WAT     H296574  -2.143   3.806   6.928 -1.1482  0.7295  1.4800
23692WAT    EPW96575  -2.193   3.778   6.862  0.0224 -0.1243  0.9065
23693WAT      O96576  -2.016   3.335   8.072 -0.0116  0.4034 -0.0705
23693WAT     H196577  -1.968   3.416   8.086 -0.1939  0.5576 -0.3261
23693WAT     H296578  -2.083   3.357   8.008 -0.6804  0.2918  0.5718
23693WAT    EPW96579  -2.019   3.348   8.066 -0.1239  0.4090 -0.0196
23694WAT      O96580   4.995   9.919   2.342 -1.3668  0.1843  0.2854
23694WAT     H196581   5.000   9.944   2.250 -3.3320  2.1026  0.5988
23694WAT     H296582   5.050   9.983   2.387 -2.4873  0.9473  0.6347
23694WAT    EPW96583   5.003   9.931   2.336 -1.7738  0.5383  0.3729
23695WAT      O96584   3.845   1.169   1.680  0.7720  0.3670  0.0357
23695WAT     H196585   3.812   1.159   1.590 -1.7118 -1.9517  1.0650
23695WAT     H296586   3.795   1.242   1.716 -0.8481 -0.9022  0.5028
23695WAT    EPW96587   3.834   1.177   1.673  0.2308 -0.1062  0.2331
23696WAT      O96588  -1.228   3.473   2.537  0.7844 -0.0173  0.0231
23696WAT     H196589  -1.287   3.546   2.516 -0.4300 -0.6627  1.1180
23696WAT     H296590  -1.186   3.498   2.619  1.7636  0.2459 -0.5328
23696WAT    EPW96591  -1.230   3.486   2.545  0.7534 -0.0677  0.0943
23697WAT      O96592  -2.498   8.841   1.843  0.1472  0.0362 -0.2994
23697WAT     H196593  -2.561   8.909   1.819 -0.4886  0.7469  2.9442
23697WAT     H296594  -2.420   8.889   1.871  0.0058 -0.5380  1.1849
23697WAT    EPW96595  -2.496   8.856   1.844  0.0447  0.0544  0.3242
23698WAT      O96596  -4.280   2.246   8.298 -0.6031  0.5170 -0.0943
23698WAT     H196597  -4.210   2.180   8.293 -0.1669  0.7739  2.0346
23698WAT     H296598  -4.257   2.309   8.229 -0.4929 -1.0012 -1.5182
23698WAT    EPW96599  -4.267   2.245   8.288 -0.5310  0.3506 -0.0014
23699WAT      O96600   0.750   0.458   7.006  0.0335 -0.0377 -0.4211
23699WAT     H196601   0.657   0.439   7.021 -0.5126  3.3861  1.8121
23699WAT     H296602   0.796   0.403   7.069 -0.4344 -1.6524 -1.4347
23699WAT    EPW96603   0.744   0.448   7.016 -0.1003  0.2009 -0.2601
23700WAT      O96604   6.038   5.806   3.720  0.5523  0.5763  0.0973
23700WAT     H196605   5.945   5.785   3.727  1.0081 -1.1332  1.9597
23700WAT     H296606   6.048   5.890   3.764 -0.3162  1.5692 -1.5272
23700WAT    EPW96607   6.027   5.814   3.727  0.4981  0.4818  0.1286
23701WAT      O96608  -2.496   2.789   5.720  0.6707  0.7479 -0.3030
23701WAT     H196609  -2.510   2.805   5.813  0.1955 -1.8934  0.1414
23701WAT     H296610  -2.442   2.863   5.691  0.7555  1.6715  2.0221
23701WAT    EPW96611  -2.490   2.801   5.728  0.6192  0.5213  0.0622
23702WAT      O96612  -7.426   8.357   8.364  0.6706 -0.3914  1.0225
23702WAT     H196613  -7.471   8.273   8.366  1.8098 -1.0445  0.3429
23702WAT     H296614  -7.424   8.381   8.272  0.0287  0.5806  1.2493
23702WAT    EPW96615  -7.431   8.349   8.352  0.7362 -0.3495  0.9627
23703WAT      O96616   5.037   5.771   2.920  0.3143 -0.1290  0.9948
23703WAT     H196617   5.005   5.829   2.852 -0.3498  2.5926  3.4275
23703WAT     H296618   4.967   5.770   2.986  0.6720 -3.0871  1.4710
23703WAT    EPW96619   5.024   5.778   2.920  0.2739 -0.1602  1.3784
23704WAT      O96620  -4.006   2.952   5.694 -0.0224  0.3540 -0.0949
23704WAT     H196621  -3.997   2.988   5.783  0.0676 -0.9087  0.4300
23704WAT     H296622  -3.972   3.021   5.637 -0.1753  1.2305  0.8399
23704WAT    EPW96623  -4.000   2.966   5.699 -0.0308  0.3030  0.0975
23705WAT      O96624   4.152   1.130   0.992  0.1589  0.5260  0.6432
23705WAT     H196625   4.072   1.086   1.023 -0.3080  1.5704  0.9861
23705WAT     H296626   4.201   1.149   1.072 -0.7190  2.6055  0.7665
23705WAT    EPW96627   4.148   1.127   1.007 -0.0184  0.9381  0.7046
23706WAT      O96628   3.404   2.420   3.659 -1.0078  0.1971  0.1455
23706WAT     H196629   3.412   2.332   3.698  0.7946  0.1086 -0.3017
23706WAT     H296630   3.409   2.404   3.565  0.2225  0.8125  0.0842
23706WAT    EPW96631   3.406   2.406   3.652 -0.6078  0.2666  0.0786
23707WAT      O96632  -3.428   2.898   6.805  0.0742  0.1946  0.4131
23707WAT     H196633  -3.377   2.915   6.726 -0.2058 -0.4808  0.0775
23707WAT     H296634  -3.387   2.952   6.872  3.5005 -2.7802  1.0604
23707WAT    EPW96635  -3.416   2.907   6.803  0.4892 -0.2868  0.4544
23708WAT      O96636  -3.325   6.214   5.295 -0.1604  0.1727  0.2130
23708WAT     H196637  -3.332   6.242   5.204 -1.2983 -0.6185  0.0421
23708WAT     H296638  -3.236   6.240   5.321 -0.4419  2.0293 -0.5478
23708WAT    EPW96639  -3.314   6.221   5.287 -0.3476  0.3130  0.0901
23709WAT      O96640   5.260   8.596   0.172  0.1290 -0.7247  0.6849
23709WAT     H196641   5.304   8.543   0.105 -2.3599 -2.2842  0.1355
23709WAT     H296642   5.230   8.533   0.237 -1.8016  0.1005  0.6790
23709WAT    EPW96643   5.262   8.581   0.172 -0.4539 -0.8216  0.6116
23710WAT      O96644   0.496   9.856   2.552 -0.2008 -0.4913  0.4906
23710WAT     H196645   0.553   9.864   2.476 -1.3726  4.1489 -0.2472
23710WAT     H296646   0.529   9.922   2.613 -2.2129 -0.6389  1.8329
23710WAT    EPW96647   0.508   9.866   2.550 -0.6207  0.1011  0.5703
23711WAT      O96648   0.818   5.214   0.944  0.1736  0.3655 -0.3674
23711WAT     H196649   0.845   5.125   0.967  0.9211  0.7030  0.1040
23711WAT     H296650   0.764   5.204   0.866  1.4427 -0.3732 -1.1782
23711WAT    EPW96651   0.814   5.201   0.937  0.4396  0.3128 -0.4121
23712WAT      O96652   1.029   8.132   5.132 -0.1563 -0.3857  0.4226
23712WAT     H196653   1.024   8.074   5.056 -0.9371 -0.0974  0.2460
23712WAT     H296654   0.944   8.124   5.174 -1.3031  2.6012 -1.0737
23712WAT    EPW96655   1.017   8.123   5.128 -0.4106  0.0467  0.2019
23713WAT      O96656  -5.402   3.101   8.423  0.6807 -0.4444  0.4120
23713WAT     H196657  -5.359   3.178   8.460  1.3968 -0.9241  0.6000
23713WAT     H296658  -5.477   3.136   8.375  0.8500  0.3450  0.7107
23713WAT    EPW96659  -5.406   3.116   8.422  0.7973 -0.4035  0.4764
23714WAT      O96660  -0.439   8.652   0.049  0.1365 -0.4836 -0.2793
23714WAT     H196661  -0.528   8.676   0.074 -0.0804 -2.6038  1.2304
23714WAT     H296662  -0.433   8.558   0.069  3.0962 -0.1382  0.9405
23714WAT    EPW96663  -0.450   8.643   0.055  0.4982 -0.7176  0.0807
23715WAT      O96664   4.246   6.772   2.813 -0.0105 -0.2489  0.1263
23715WAT     H196665   4.269   6.823   2.736  0.1069  0.9259  0.9159
23715WAT     H296666   4.192   6.701   2.779 -0.0245  0.2929 -1.0275
23715WAT    EPW96667   4.242   6.770   2.799  0.0031 -0.0226  0.0784
23716WAT      O96668   6.350   3.222   0.961 -0.2328  0.6713  0.2054
23716WAT     H196669   6.402   3.247   1.038  1.4628 -0.1137 -0.6249
23716WAT     H296670   6.269   3.187   0.997  0.1984  1.0555  1.6068
23716WAT    EPW96671   6.346   3.221   0.976  0.0477  0.6183  0.2808
23717WAT      O96672   2.648  10.220   1.332 -0.1054 -0.4564  0.7497
23717WAT     H196673   2.572  10.270   1.362 -2.2540 -2.3230 -1.2214
23717WAT     H296674   2.714  10.287   1.312 -2.7988  1.7730 -1.7162
23717WAT    EPW96675   2.646  10.235   1.333 -0.7440 -0.4086  0.1645
23718WAT      O96676  -1.062   4.994   7.380  0.1146 -0.1235 -0.3018
23718WAT     H196677  -0.987   5.054   7.383 -0.0632  0.0606  0.7292
23718WAT     H296678  -1.134   5.048   7.349  0.6030 -0.5396 -2.2951
23718WAT    EPW96679  -1.061   5.009   7.376  0.1556 -0.1540 -0.4287
23719WAT      O96680   0.254   1.898   4.767 -0.6101 -0.3798  0.6132
23719WAT     H196681   0.192   1.935   4.704  0.4043 -1.4012 -1.0652
23719WAT     H296682   0.238   1.804   4.764  1.5371 -0.7774 -0.5237
23719WAT    EPW96683   0.244   1.891   4.758 -0.1931 -0.5669  0.2418
23720WAT      O96684   0.432   8.141   6.606  0.0923  0.1037 -0.3842
23720WAT     H196685   0.510   8.195   6.616 -0.9121  1.4900  0.2371
23720WAT     H296686   0.365   8.201   6.573 -1.2705 -0.5555  1.0520
23720WAT    EPW96687   0.433   8.156   6.603 -0.2199  0.1998 -0.1128
23721WAT      O96688   5.262   2.951   1.230 -0.6218  0.0679  0.2805
23721WAT     H196689   5.335   3.010   1.213  0.3347 -1.4162 -0.9795
23721WAT     H296690   5.225   2.982   1.313 -1.1961  3.4010 -1.0401
23721WAT    EPW96691   5.266   2.963   1.239 -0.5715  0.3119 -0.0599
23722WAT      O96692   3.692   2.016   0.376 -0.2403  0.6484 -0.0007
23722WAT     H196693   3.628   2.071   0.332  0.4029 -0.8827 -3.1690
23722WAT     H296694   3.641   1.945   0.415 -0.6484  0.4778 -0.8314
23722WAT    EPW96695   3.677   2.014   0.375 -0.2093  0.4240 -0.5282
23723WAT      O96696  -0.734  10.251   5.742  0.5942  0.1586  0.1482
23723WAT     H196697  -0.759  10.295   5.661  0.2644  3.5244  1.8864
23723WAT     H296698  -0.809  10.263   5.801  2.3873  1.7513  2.3017
23723WAT    EPW96699  -0.747  10.258   5.739  0.7872  0.8125  0.6614
23724WAT      O96700  -3.366   1.975   7.198 -0.1573 -0.1905 -0.5404
23724WAT     H196701  -3.312   2.043   7.240 -0.0798 -0.7788  0.3286
23724WAT     H296702  -3.431   2.024   7.148 -0.1637  0.5264  0.1579
23724WAT    EPW96703  -3.367   1.991   7.197 -0.1479 -0.1736 -0.3338
23725WAT      O96704   2.355   7.340   4.237 -0.4814  0.2385 -0.0811
23725WAT     H196705   2.419   7.405   4.266  1.4664 -0.3884 -2.6279
23725WAT     H296706   2.289   7.391   4.189  1.3536  0.4079 -2.5964
23725WAT    EPW96707   2.355   7.355   4.234  0.0175  0.1781 -0.7486
23726WAT      O96708  -3.817   6.982   8.164  0.0540  0.7328  0.7396
23726WAT     H196709  -3.897   7.031   8.186 -0.3239  0.8648 -0.8223
23726WAT     H296710  -3.843   6.891   8.173 -0.5831  0.7447 -0.5942
23726WAT    EPW96711  -3.831   6.977   8.168 -0.0799  0.7517  0.3576
23727WAT      O96712   1.728   4.951   0.740 -0.2468 -0.4145 -0.1500
23727WAT     H196713   1.809   4.924   0.782  0.4439  0.1653 -1.0855
23727WAT     H296714   1.666   4.881   0.761 -0.0634  0.0070  2.1163
23727WAT    EPW96715   1.730   4.938   0.749 -0.1315 -0.2823  0.0255
23728WAT      O96716   2.776   1.676   7.287  0.3975 -0.9661  0.4393
23728WAT     H196717   2.843   1.658   7.221  0.3992 -1.6009  0.6051
23728WAT     H296718   2.811   1.750   7.337  0.9721 -1.2771  0.5098
23728WAT    EPW96719   2.789   1.683   7.285  0.4735 -1.0908  0.4704
23729WAT      O96720   3.588   2.163   2.516 -0.1349  0.4890 -0.1462
23729WAT     H196721   3.497   2.153   2.488 -0.8470  0.0262  2.1767
23729WAT     H296722   3.597   2.256   2.537  0.2151  0.7110 -1.2229
23729WAT    EPW96723   3.577   2.174   2.515 -0.1826  0.4573  0.0182
23730WAT      O96724   2.051   1.820   3.214  0.1148 -0.0154 -0.0085
23730WAT     H196725   2.079   1.911   3.202  2.8124 -0.7460 -0.0295
23730WAT     H296726   2.107   1.788   3.285 -1.4544 -1.4146  0.6419
23730WAT    EPW96727   2.062   1.828   3.222  0.2636 -0.2963  0.0745
23731WAT      O96728   4.182   9.271   2.451  0.1076 -0.2222 -0.5869
23731WAT     H196729   4.250   9.226   2.502  0.2945 -2.4980 -2.6429
23731WAT     H296730   4.119   9.202   2.431 -1.9968  1.4727 -0.1787
23731WAT    EPW96731   4.182   9.256   2.455 -0.1452 -0.2990 -0.8043
23732WAT      O96732   3.990   7.940   1.664  1.0873  0.3377  0.0707
23732WAT     H196733   4.027   7.860   1.625 -1.1926 -2.1222  2.4744
23732WAT     H296734   4.038   7.951   1.746 -0.8339 -0.7044  1.4105
23732WAT    EPW96735   4.001   7.931   1.670  0.5333 -0.1240  0.5645
23733WAT      O96736  -3.232   2.005   5.371  0.0271  0.1728  0.1895
23733WAT     H196737  -3.204   2.095   5.387  1.7955 -0.2124 -0.4568
23733WAT     H296738  -3.163   1.969   5.315 -1.6960 -0.9712 -1.3159
23733WAT    EPW96739  -3.219   2.012   5.365  0.0331 -0.0290 -0.0944
23734WAT      O96740   3.435  -0.003   8.130 -0.8941  0.0867 -0.0254
23734WAT     H196741   3.425   0.084   8.167 -0.1534 -0.1820  0.8529
23734WAT     H296742   3.451  -0.060   8.206  0.8009 -0.4656 -0.7523
23734WAT    EPW96743   3.436   0.001   8.145 -0.5728 -0.0216 -0.0052
23735WAT      O96744   0.933   2.508   0.776  0.1677 -0.5978  0.1046
23735WAT     H196745   0.992   2.558   0.832  0.9561 -0.2028 -1.0619
23735WAT     H296746   0.990   2.451   0.725 -0.4894 -0.5267 -0.7288
23735WAT    EPW96747   0.948   2.507   0.777  0.1850 -0.5363 -0.1592
23736WAT      O96748   0.022   6.593   5.497 -0.6299  0.6700 -0.0354
23736WAT     H196749   0.114   6.581   5.523  0.0656  2.6971 -1.2619
23736WAT     H296750  -0.004   6.675   5.538 -1.0655  1.3802 -1.6346
23736WAT    EPW96751   0.031   6.602   5.506 -0.5956  1.0312 -0.4082
23737WAT      O96752   2.062   2.021   4.055  0.4496 -0.4003  0.1633
23737WAT     H196753   2.080   1.997   3.964  1.1485  1.2613 -0.1881
23737WAT     H296754   2.089   1.945   4.106 -0.6008 -1.6319 -1.0356
23737WAT    EPW96755   2.068   2.008   4.050  0.4034 -0.3434 -0.0412
23738WAT      O96756   5.368   3.024   6.085 -0.2471 -0.7457  0.0540
23738WAT     H196757   5.375   3.102   6.030 -1.4581 -1.2016 -0.7892
23738WAT     H296758   5.310   3.051   6.157 -0.4333 -0.7785 -0.0824
23738WAT    EPW96759   5.361   3.038   6.087 -0.4313 -0.8101 -0.0751
23739WAT      O96760  -5.071   3.021   8.226 -0.2884  0.0004  0.7092
23739WAT     H196761  -4.983   2.983   8.221 -0.5910 -0.6640  0.2777
23739WAT     H296762  -5.125   2.951   8.262 -0.8439  0.0476 -0.0220
23739WAT    EPW96763  -5.066   3.007   8.230 -0.4015 -0.0809  0.5560
23740WAT      O96764   1.718   1.127   8.493 -0.8549  0.4883  0.3166
23740WAT     H196765   1.667   1.047   8.498 -0.6179  0.3628  0.8240
23740WAT     H296766   1.739   1.148   8.584  1.5573 -0.4941  0.0662
23740WAT    EPW96767   1.714   1.119   8.505 -0.5055  0.3422  0.3505
23741WAT      O96768   7.666   1.950   0.998 -0.2419  0.6970 -0.5399
23741WAT     H196769   7.594   1.938   1.061 -1.1302  1.2252 -1.4287
23741WAT     H296770   7.725   2.011   1.042  0.9842 -1.5979  1.2491
23741WAT    EPW96771   7.664   1.957   1.012 -0.1974  0.4640 -0.4212
23742WAT      O96772   6.891   8.302   0.461  0.1216 -0.3304 -0.8714
23742WAT     H196773   6.929   8.317   0.374  1.3791  0.2852 -0.2448
23742WAT     H296774   6.966   8.301   0.520 -0.8414  1.1727  0.4596
23742WAT    EPW96775   6.906   8.304   0.457  0.1605 -0.0510 -0.6132
23743WAT      O96776  -3.494   6.312   2.538 -0.4622 -0.6219 -0.2274
23743WAT     H196777  -3.400   6.316   2.553 -0.5036 -1.8296  0.4868
23743WAT     H296778  -3.533   6.307   2.626 -1.2232  0.0861 -0.4985
23743WAT    EPW96779  -3.487   6.312   2.552 -0.5680 -0.6881 -0.1690
23744WAT      O96780  -2.318   9.719   2.181 -0.3710  0.3535  0.3722
23744WAT     H196781  -2.357   9.718   2.268  0.1332 -0.4210  0.6022
23744WAT     H296782  -2.228   9.748   2.195 -0.2223  0.0116  0.1478
23744WAT    EPW96783  -2.312   9.723   2.194 -0.2849  0.2060  0.3729
23745WAT      O96784   5.654   4.832   0.240  0.2030  0.0274  0.5462
23745WAT     H196785   5.681   4.923   0.226  0.8548  0.0032  1.4966
23745WAT     H296786   5.668   4.818   0.334 -0.0317 -1.0154  0.4347
23745WAT    EPW96787   5.659   4.842   0.251  0.2580 -0.1132  0.6568
23746WAT      O96788  -2.989   7.222   2.870  0.4472  0.0172 -0.5198
23746WAT     H196789  -2.949   7.135   2.868  1.6349  0.4639  1.2302
23746WAT     H296790  -3.031   7.227   2.956  3.3828  2.3372  1.0041
23746WAT    EPW96791  -2.989   7.211   2.881  0.9911  0.3819 -0.0880
23747WAT      O96792  -1.559   7.459   2.066 -0.1290  0.0055 -0.0754
23747WAT     H196793  -1.589   7.397   2.000 -0.2441 -1.3224  1.1839
23747WAT     H296794  -1.466   7.469   2.049 -0.3751  0.6219 -1.1652
23747WAT    EPW96795  -1.551   7.452   2.055 -0.1767 -0.0885 -0.0530
23748WAT      O96796   0.171   2.752   8.119  0.7704 -0.9241 -0.4459
23748WAT     H196797   0.084   2.760   8.080  0.6012 -0.3875  0.0342
23748WAT     H296798   0.227   2.725   8.046 -0.0970 -3.0221 -0.3965
23748WAT    EPW96799   0.167   2.749   8.104  0.6336 -1.1301 -0.3762
23749WAT      O96800  -4.580   3.091   6.042 -0.2831  0.0559  0.0355
23749WAT     H196801  -4.491   3.087   6.006 -1.5102 -0.5385 -3.2624
23749WAT     H296802  -4.595   3.004   6.080  0.3203 -0.0473  0.0415
23749WAT    EPW96803  -4.570   3.079   6.042 -0.3653 -0.0361 -0.3989
23750WAT      O96804  -1.347   3.728   2.467 -0.0312 -0.2450 -0.1459
23750WAT     H196805  -1.398   3.776   2.533 -0.5995 -0.1262 -0.6629
23750WAT     H296806  -1.260   3.768   2.470 -0.2045  0.1122  0.1626
23750WAT    EPW96807  -1.343   3.740   2.476 -0.1290 -0.1822 -0.1733
23751WAT      O96808   6.952   1.313   1.660 -0.3242 -1.1754 -0.1602
23751WAT     H196809   6.862   1.335   1.687 -0.1124 -2.3528  1.7031
23751WAT     H296810   7.004   1.324   1.740  1.0808 -1.2036 -1.0409
23751WAT    EPW96811   6.947   1.318   1.674 -0.1106 -1.3344 -0.0306
23752WAT      O96812   3.869   8.164   0.904 -0.0177 -0.7285  0.5611
23752WAT     H196813   3.911   8.102   0.963  1.2814 -0.5536 -0.1466
23752WAT     H296814   3.795   8.115   0.867  1.5223 -2.2415 -0.7172
23752WAT    EPW96815   3.865   8.149   0.907  0.3568 -0.9050  0.2992
23753WAT      O96816  -0.820   8.773   5.521  0.2907  0.7831  0.0308
23753WAT     H196817  -0.778   8.742   5.441 -0.0049  0.0695  0.1526
23753WAT     H296818  -0.747   8.807   5.574  0.7492 -0.6062  0.3129
23753WAT    EPW96819  -0.805   8.774   5.518  0.3122  0.5059  0.0839
23754WAT      O96820   3.387   6.478   5.301 -1.0341 -0.0053 -0.6793
23754WAT     H196821   3.417   6.524   5.223 -1.6535  1.3459 -0.1515
23754WAT     H296822   3.434   6.394   5.299  0.0125  0.5741 -1.7500
23754WAT    EPW96823   3.397   6.473   5.291 -0.9778  0.2494 -0.7510
23755WAT      O96824  -4.393   8.727   2.591  0.2193  0.4984  0.3443
23755WAT     H196825  -4.428   8.811   2.622  1.1832  0.9192  0.3263
23755WAT     H296826  -4.415   8.665   2.660 -1.8064  0.4350 -0.3024
23755WAT    EPW96827  -4.400   8.730   2.604  0.0794  0.5455  0.2567
23756WAT      O96828  -1.131   4.891   3.070 -0.4955 -0.1489 -0.7067
23756WAT     H196829  -1.198   4.957   3.088  0.6492  0.4982  1.6220
23756WAT     H296830  -1.136   4.831   3.144  1.0834 -0.3910 -0.7558
23756WAT    EPW96831  -1.140   4.892   3.082 -0.1363 -0.0954 -0.4060
23757WAT      O96832   4.039   1.361   4.769  0.0647  0.7252  0.1629
23757WAT     H196833   4.017   1.290   4.829  2.1497  0.6883  0.9529
23757WAT     H296834   4.041   1.319   4.683 -1.0704  0.3685  0.2962
23757WAT    EPW96835   4.036   1.346   4.765  0.1900  0.6732  0.2847
23758WAT      O96836   6.675   0.323   0.975 -0.2135  0.3677  0.1487
23758WAT     H196837   6.716   0.408   0.961  0.6309  0.2618  1.6890
23758WAT     H296838   6.612   0.338   1.046 -2.3160  0.3429 -1.6363
23758WAT    EPW96839   6.673   0.336   0.983 -0.3796  0.3505  0.1164
23759WAT      O96840  -6.502   4.474   8.456 -0.0855 -0.5228  0.0005
23759WAT     H196841  -6.529   4.564   8.474 -1.4114 -1.1150  1.0600
23759WAT     H296842  -6.425   4.461   8.512  0.7772  0.2611 -0.9495
23759WAT    EPW96843  -6.495   4.484   8.466 -0.1464 -0.4973  0.0148
23760WAT      O96844  -0.506   1.493   6.177 -0.6087 -1.1253  0.3588
23760WAT     H196845  -0.591   1.500   6.133 -1.1248 -2.2689  1.1076
23760WAT     H296846  -0.446   1.461   6.108 -0.9810 -1.1317  0.0349
23760WAT    EPW96847  -0.509   1.490   6.162 -0.7259 -1.2770  0.4146
23761WAT      O96848   1.008   1.058   7.467 -0.2291 -0.2917 -0.4491
23761WAT     H196849   1.030   1.004   7.391  0.5527 -1.6903  0.7067
23761WAT     H296850   1.049   1.013   7.541 -1.8234  0.4504  0.9599
23761WAT    EPW96851   1.017   1.045   7.467 -0.3363 -0.3783 -0.1109
23762WAT      O96852   5.190   3.379   3.641  0.0752 -0.5964  0.3048
23762WAT     H196853   5.159   3.460   3.601  0.1786  0.0128  1.4068
23762WAT     H296854   5.262   3.350   3.585  0.3224  0.3115  0.1382
23762WAT    EPW96855   5.196   3.386   3.628  0.1216 -0.3963  0.4282
23763WAT      O96856   1.915   5.715   1.086  0.1026 -0.1555 -0.6383
23763WAT     H196857   1.898   5.636   1.137 -0.9025  0.3398 -0.1773
23763WAT     H296858   1.875   5.697   1.001  1.0364 -0.6480 -0.9866
23763WAT    EPW96859   1.907   5.702   1.081  0.0932 -0.1552 -0.6235
23764WAT      O96860   1.026   6.095   1.654  0.5913 -0.3236 -0.3093
23764WAT     H196861   1.047   6.004   1.675  0.4345 -0.1426  0.6531
23764WAT     H296862   1.107   6.143   1.673  0.1830 -0.0316  0.7653
23764WAT    EPW96863   1.040   6.090   1.659  0.5168 -0.2611 -0.0407
23765WAT      O96864  -0.850   6.349   4.665 -1.1653  0.2363  0.8059
23765WAT     H196865  -0.940   6.333   4.695 -0.8179 -1.9075  0.8682
23765WAT     H296866  -0.859   6.356   4.569 -1.2459 -1.5181  0.6587
23765WAT    EPW96867  -0.863   6.348   4.656 -1.1301 -0.2778  0.7946
23766WAT      O96868   3.691   5.428   3.880  0.4722  0.0055 -0.0906
23766WAT     H196869   3.674   5.419   3.974 -0.6856 -1.9460 -0.4361
23766WAT     H296870   3.721   5.342   3.853  2.2416  0.9440 -1.2766
23766WAT    EPW96871   3.692   5.416   3.889  0.5529 -0.1283 -0.2925
23767WAT      O96872   2.118   4.054   8.855 -0.3094 -0.0463 -0.9442
23767WAT     H196873   2.138   4.143   8.883 -2.8066  1.5684 -3.7170
23767WAT     H296874   2.055   4.022   8.919 -0.9760  1.0088 -1.0575
23767WAT    EPW96875   2.112   4.061   8.867 -0.7267  0.3059 -1.3247
23768WAT      O96876   2.493   9.055   7.370 -0.2495  0.1304  0.7960
23768WAT     H196877   2.475   9.137   7.416  0.3822 -0.4327  2.1019
23768WAT     H296878   2.587   9.042   7.380 -0.2784 -0.5414  0.2401
23768WAT    EPW96879   2.503   9.064   7.378 -0.1700 -0.0324  0.8950
23769WAT      O96880  -4.676   7.975   5.002  0.3446 -0.4768 -0.0554
23769WAT     H196881  -4.642   8.054   4.959 -1.1126 -0.0790 -0.5335
23769WAT     H296882  -4.759   7.957   4.958  0.4256 -2.0302  0.3547
23769WAT    EPW96883  -4.683   7.983   4.991  0.1631 -0.6294 -0.0644
23770WAT      O96884  -0.391   8.323   2.811  0.2830 -0.2588  1.0275
23770WAT     H196885  -0.360   8.349   2.724  2.0310  0.6528  1.8747
23770WAT     H296886  -0.486   8.311   2.800 -0.5367  4.7647  0.0504
23770WAT    EPW96887  -0.400   8.325   2.798  0.4054  0.5240  1.0103
23771WAT      O96888  -3.205   8.022   5.177 -0.3030  0.2465 -0.1143
23771WAT     H196889  -3.119   7.980   5.165 -1.2611 -1.6767 -0.6708
23771WAT     H296890  -3.229   8.053   5.090 -0.5328  0.0120 -0.1367
23771WAT    EPW96891  -3.197   8.021   5.164 -0.4597 -0.0377 -0.1905
23772WAT      O96892  -0.573   4.630   5.969 -0.2172 -0.4573  0.3930
23772WAT     H196893  -0.519   4.604   5.894  0.5578  0.2583  0.6800
23772WAT     H296894  -0.526   4.596   6.045  1.1022  2.0612  0.8224
23772WAT    EPW96895  -0.560   4.622   5.969  0.0590 -0.0308  0.4876
23773WAT      O96896   1.173   8.771   5.208  0.0356 -0.1564  0.1309
23773WAT     H196897   1.208   8.707   5.146  1.1324 -0.1780  0.7413
23773WAT     H296898   1.236   8.843   5.207  0.0205 -0.1108  1.1210
23773WAT    EPW96899   1.186   8.772   5.200  0.1783 -0.1535  0.3419
23774WAT      O96900   1.952   9.399   2.637 -0.1541 -0.2599 -0.0569
23774WAT     H196901   2.039   9.370   2.664  1.0278  2.3972 -0.6347
23774WAT     H296902   1.952   9.392   2.542 -0.8787 -0.9649 -0.0128
23774WAT    EPW96903   1.963   9.395   2.628 -0.0939 -0.0024 -0.1273
23775WAT      O96904   0.178   8.491   1.645 -0.6582  0.6403  0.0137
23775WAT     H196905   0.148   8.551   1.713 -2.0461 -1.4058  1.3267
23775WAT     H296906   0.109   8.491   1.579 -1.1433 -0.1602  0.4917
23775WAT    EPW96907   0.165   8.499   1.645 -0.9053  0.2651  0.2500
23776WAT      O96908   3.718   9.216   4.438 -0.2256  0.5941  0.4134
23776WAT     H196909   3.716   9.227   4.533 -1.2942 -0.0175  0.4710
23776WAT     H296910   3.628   9.195   4.414  0.5262 -2.1178 -0.3818
23776WAT    EPW96911   3.706   9.215   4.448 -0.2674  0.1559  0.3161
23777WAT      O96912  -4.187   1.284   7.047 -0.0126 -0.8031 -0.8801
23777WAT     H196913  -4.278   1.311   7.039 -0.3055 -1.3838  0.2503
23777WAT     H296914  -4.184   1.197   7.007 -0.1951 -1.2132 -0.0330
23777WAT    EPW96915  -4.199   1.276   7.041 -0.0753 -0.9338 -0.6192
23778WAT      O96916   0.104   3.300   7.118  1.1165  0.0487  0.1876
23778WAT     H196917   0.097   3.395   7.128  2.2617  0.2603 -0.7418
23778WAT     H296918   0.198   3.284   7.111  0.8532 -0.8163 -2.5082
23778WAT    EPW96919   0.116   3.311   7.118  1.2328 -0.0374 -0.2906
23779WAT      O96920  -3.963   2.379   5.940  1.1354  0.2559  0.0828
23779WAT     H196921  -3.991   2.330   6.017 -2.2040 -0.6134 -1.5125
23779WAT     H296922  -3.913   2.315   5.888 -0.0136 -0.3664 -0.2727
23779WAT    EPW96923  -3.960   2.364   5.943  0.5435  0.0592 -0.1745
23780WAT      O96924   7.577   0.937   4.635  0.2663 -0.4729  0.5226
23780WAT     H196925   7.515   1.007   4.657 -0.6251 -0.9457 -0.3811
23780WAT     H296926   7.660   0.982   4.619  0.0724  0.2178  1.3533
23780WAT    EPW96927   7.580   0.952   4.636  0.1230 -0.4441  0.5131
23781WAT      O96928  -1.084   5.278   1.386  0.1590  0.5361 -0.3558
23781WAT     H196929  -1.051   5.231   1.309 -1.7525  1.2093 -1.6698
23781WAT     H296930  -1.107   5.365   1.353 -0.1008  1.0699  1.1483
23781WAT    EPW96931  -1.083   5.283   1.371 -0.1273  0.6952 -0.3307
23782WAT      O96932   6.595   0.863   3.438 -0.1735  0.1851  0.5203
23782WAT     H196933   6.679   0.819   3.427  0.0299  0.5375  0.6837
23782WAT     H296934   6.530   0.792   3.427  0.0787  0.1468 -0.9092
23782WAT    EPW96935   6.597   0.848   3.435 -0.1135  0.2265  0.3533
23783WAT      O96936  -1.081   5.971   0.239  0.7240 -0.6485  0.0021
23783WAT     H196937  -1.134   5.915   0.181 -0.6943 -0.4725  1.0852
23783WAT     H296938  -1.141   6.039   0.268  2.0074  0.5199 -0.0105
23783WAT    EPW96939  -1.096   5.972   0.235  0.7063 -0.4711  0.1433
23784WAT      O96940  -0.331   7.474   5.915 -0.4286 -0.0180  1.1854
23784WAT     H196941  -0.335   7.562   5.951 -0.8901 -0.7411  2.9823
23784WAT     H296942  -0.238   7.454   5.909 -0.3405  0.2578  1.6115
23784WAT    EPW96943  -0.320   7.483   5.919 -0.4778 -0.0768  1.4784
23785WAT      O96944   7.765   3.746   1.739  0.4355  0.4911 -0.4769
23785WAT     H196945   7.773   3.651   1.731 -1.1165  0.0429  2.2641
23785WAT     H296946   7.680   3.767   1.700 -0.9515  0.1497  2.1665
23785WAT    EPW96947   7.755   3.736   1.733  0.0479  0.3870  0.2332
23786WAT      O96948   1.042   2.764   5.117 -0.0049  0.3690  0.0374
23786WAT     H196949   0.986   2.687   5.109  0.4739  0.0921 -0.7500
23786WAT     H296950   1.117   2.734   5.169 -1.2325  1.1200  2.3620
23786WAT    EPW96951   1.045   2.750   5.123 -0.1037  0.4315  0.2401
23787WAT      O96952  -0.371   1.217   0.038  0.2051  0.6176 -0.3955
23787WAT     H196953  -0.277   1.223   0.025  0.0102  2.1973 -1.3509
23787WAT     H296954  -0.407   1.206  -0.050 -0.4114 -2.6843  0.1405
23787WAT    EPW96955  -0.364   1.216   0.025  0.0980  0.3905 -0.4508
23788WAT      O96956  -2.306   0.544   5.595  0.4151  0.3160  0.7436
23788WAT     H196957  -2.360   0.622   5.607  0.7997  0.5403  0.9987
23788WAT     H296958  -2.366   0.471   5.610 -0.6000  0.4884 -1.9610
23788WAT    EPW96959  -2.321   0.544   5.598  0.3320  0.3683  0.4206
23789WAT      O96960   0.914   5.083   6.314  0.5022  0.0276  0.1503
23789WAT     H196961   0.881   5.092   6.403 -1.1071 -0.1169 -0.3949
23789WAT     H296962   1.007   5.105   6.320  0.2484  0.7811  1.7072
23789WAT    EPW96963   0.922   5.087   6.326  0.2565  0.1080  0.2840
23790WAT      O96964   4.170   3.619   1.604  0.5060  0.1786 -0.2365
23790WAT     H196965   4.209   3.623   1.517  0.8591  1.6331 -0.0320
23790WAT     H296966   4.234   3.660   1.662 -0.1717  0.1778  0.5388
23790WAT    EPW96967   4.184   3.625   1.600  0.4632  0.3703 -0.1072
23791WAT      O96968   3.559   1.425   3.724  0.6731 -0.1872  0.7691
23791WAT     H196969   3.622   1.457   3.660  0.6602 -1.1478  0.2682
23791WAT     H296970   3.491   1.493   3.726 -0.4359 -1.1239 -1.8390
23791WAT    EPW96971   3.558   1.438   3.716  0.5251 -0.4374  0.3589
23792WAT      O96972   3.167   9.446   1.774  0.2805 -0.2159 -0.5205
23792WAT     H196973   3.253   9.481   1.751 -0.5932  1.2043 -1.7378
23792WAT     H296974   3.156   9.470   1.866  1.9266 -2.0725  0.2463
23792WAT    EPW96975   3.177   9.454   1.783  0.3824 -0.2737 -0.5798
23793WAT      O96976   3.995   8.741   3.544 -0.0637  0.4966  0.4098
23793WAT     H196977   4.052   8.796   3.488  2.7120 -3.4358 -1.0780
23793WAT     H296978   3.922   8.717   3.487  1.5394 -1.5618 -0.9420
23793WAT    EPW96979   3.993   8.745   3.529  0.5138 -0.2937  0.0353
23794WAT      O96980  -1.761   1.851   2.519 -0.2281  0.9667 -0.3341
23794WAT     H196981  -1.777   1.874   2.610  0.8291  0.6010 -0.0425
23794WAT     H296982  -1.752   1.756   2.519  0.9966  1.0621 -0.5976
23794WAT    EPW96983  -1.762   1.841   2.531  0.0729  0.9310 -0.3303
23795WAT      O96984   5.429   2.315   4.608  0.2154  0.3949 -0.1618
23795WAT     H196985   5.475   2.245   4.655  1.2790 -1.0503 -3.0789
23795WAT     H296986   5.424   2.387   4.670  4.2489 -0.2579  1.2112
23795WAT    EPW96987   5.435   2.315   4.622  0.8876  0.1181 -0.3655
23796WAT      O96988   4.879   6.561   3.667  0.5319  0.0432 -0.1320
23796WAT     H196989   4.813   6.509   3.712 -0.6957  2.2881  0.8071
23796WAT     H296990   4.943   6.496   3.636 -1.0324 -2.0164  0.6809
23796WAT    EPW96991   4.879   6.545   3.669  0.1636  0.0677  0.0992
23797WAT      O96992   4.782   9.691   2.312  0.3406 -0.3955  1.1837
23797WAT     H196993   4.809   9.607   2.275  0.5869 -0.8394  2.3388
23797WAT     H296994   4.839   9.756   2.269  1.6893 -1.0689  1.9227
23797WAT    EPW96995   4.793   9.689   2.301  0.5510 -0.5426  1.4335
23798WAT      O96996   8.287   2.302   2.592 -0.3130  0.4621  0.1873
23798WAT     H196997   8.259   2.346   2.673 -1.5409 -0.4656  0.3004
23798WAT     H296998   8.308   2.374   2.533  1.4746  1.1672  1.5801
23798WAT    EPW96999   8.286   2.318   2.595 -0.2394  0.4327  0.3859
23799WAT      O97000   7.745   0.980   1.990 -0.3319 -0.0468 -0.1086
23799WAT     H197001   7.657   0.956   1.961 -0.3191 -1.9976  1.3037
23799WAT     H297002   7.788   1.010   1.910 -2.0205  0.2020 -0.9792
23799WAT    EPW97003   7.739   0.981   1.975 -0.5529 -0.2713 -0.0371
23800WAT      O97004   3.438  10.180   6.397 -0.2220  0.3368 -0.0875
23800WAT     H197005   3.442  10.276   6.402 -0.3064  0.3454 -0.2021
23800WAT     H297006   3.457  10.151   6.487  0.1960  0.4484 -0.1365
23800WAT    EPW97007   3.441  10.189   6.410 -0.1780  0.3524 -0.1090
23801WAT      O97008   2.459   9.020   3.837 -0.0085  0.5077 -0.5548
23801WAT     H197009   2.371   9.057   3.836 -0.8321 -1.3436 -0.5338
23801WAT     H297010   2.502   9.058   3.761 -1.0905  0.8447 -1.0156
23801WAT    EPW97011   2.453   9.029   3.827 -0.2600  0.3080 -0.6129
23802WAT      O97012  -1.335   5.329   7.380 -0.6384 -0.2758 -0.3197
23802WAT     H197013  -1.324   5.245   7.336  0.7377 -0.1682 -0.2301
23802WAT     H297014  -1.409   5.316   7.440 -1.0919 -1.0944 -1.0446
23802WAT    EPW97015  -1.343   5.316   7.382 -0.5167 -0.3695 -0.4036
23803WAT      O97016   0.052   7.172   1.739 -0.5812 -0.3277 -0.3960
23803WAT     H197017   0.007   7.230   1.800  1.7196  2.1904 -0.8864
23803WAT     H297018   0.094   7.231   1.677  4.9905 -2.0651  1.1398
23803WAT    EPW97019   0.052   7.188   1.739  0.4572 -0.2246 -0.2581
23804WAT      O97020  -1.959   8.707   4.199  0.3275 -0.3817 -0.3897
23804WAT     H197021  -2.006   8.633   4.238 -1.2938  1.2056  0.8424
23804WAT     H297022  -1.994   8.784   4.244  0.1335  1.3703 -3.2747
23804WAT    EPW97023  -1.970   8.708   4.210  0.0881  0.0587 -0.6077
23805WAT      O97024   1.516   9.835   0.066 -0.2297  0.3535  0.6381
23805WAT     H197025   1.578   9.908   0.061 -0.9850  0.9416 -2.0242
23805WAT     H297026   1.543   9.785   0.143  2.6725  1.3322  0.3811
23805WAT    EPW97027   1.527   9.838   0.076  0.0534  0.5598  0.2531
23806WAT      O97028   2.950   5.462   7.638 -0.4841  0.0525  0.2981
23806WAT     H197029   2.939   5.557   7.634 -0.3877  0.0509 -0.0109
23806WAT     H297030   3.039   5.447   7.607 -0.6872 -0.1834 -0.1830
23806WAT    EPW97031   2.960   5.472   7.634 -0.4982  0.0210  0.1938
23807WAT      O97032  -6.863  10.033   6.046  0.2554  0.0304 -0.0042
23807WAT     H197033  -6.789  10.092   6.035  1.3789 -1.4407 -0.5348
23807WAT     H297034  -6.900  10.058   6.131  2.3556 -0.2641  1.0592
23807WAT    EPW97035  -6.858  10.044   6.056  0.6804 -0.2027  0.0660
23808WAT      O97036   2.990   1.493   0.972 -0.7387 -0.4165  0.1608
23808WAT     H197037   3.015   1.412   1.016  0.0730  1.3651  3.2591
23808WAT     H297038   3.045   1.496   0.894  1.1347 -1.6242  1.3559
23808WAT    EPW97039   3.000   1.483   0.968 -0.3844 -0.3408  0.7271
23809WAT      O97040  -1.419   1.337   5.615  0.5685  0.3919  0.4737
23809WAT     H197041  -1.394   1.428   5.631 -0.3825  0.7942 -0.2070
23809WAT     H297042  -1.377   1.315   5.532  0.7852  0.2109  0.6306
23809WAT    EPW97043  -1.410   1.346   5.607  0.4717  0.4211  0.4048
23810WAT      O97044   2.376   2.202   5.687 -0.9241  0.3226  0.2443
23810WAT     H197045   2.398   2.168   5.774  1.3992  0.9591 -0.0112
23810WAT     H297046   2.454   2.251   5.660 -1.8328  0.7081 -1.9339
23810WAT    EPW97047   2.389   2.204   5.695 -0.7375  0.4574 -0.0765
23811WAT      O97048  -0.056   6.621   4.397 -0.1248  0.4568 -0.0238
23811WAT     H197049  -0.111   6.683   4.443  0.0464  0.0294  0.7689
23811WAT     H297050  -0.039   6.551   4.460  1.8466  0.8886 -0.0153
23811WAT    EPW97051  -0.061   6.620   4.411  0.1578  0.4575  0.0818
23812WAT      O97052  -2.224   1.035   3.005  0.3134  0.7799  0.3598
23812WAT     H197053  -2.133   1.066   3.008  0.4453  0.4293  0.0857
23812WAT     H297054  -2.219   0.945   3.038  0.1903  0.4886 -0.3931
23812WAT    EPW97055  -2.211   1.027   3.010  0.3142  0.6952  0.2244
23813WAT      O97056   3.652   5.494   4.167  0.5991 -0.1397  0.7748
23813WAT     H197057   3.579   5.532   4.218 -2.0361 -3.3767 -0.2448
23813WAT     H297058   3.684   5.423   4.222 -0.6907 -2.1484 -0.9388
23813WAT    EPW97059   3.647   5.490   4.181  0.0813 -0.8314  0.4144
23814WAT      O97060   1.286   3.591   3.988  0.1753  0.0932 -0.0793
23814WAT     H197061   1.319   3.605   3.899 -1.4221  2.3344 -0.4239
23814WAT     H297062   1.200   3.551   3.975 -0.5674  1.4794  0.3380
23814WAT    EPW97063   1.279   3.588   3.974 -0.1334  0.5717 -0.0697
23815WAT      O97064   4.611   0.353   4.505  0.0306  0.2664  0.1985
23815WAT     H197065   4.527   0.379   4.542  1.1838  4.0325  0.6336
23815WAT     H297066   4.608   0.386   4.415  0.8253 -0.0862  0.0365
23815WAT    EPW97067   4.599   0.361   4.498  0.2875  0.7166  0.2346
23816WAT      O97068   2.055   7.713   6.056 -0.3983  0.3195 -0.2611
23816WAT     H197069   1.999   7.657   6.111 -1.2185  0.5076 -0.8827
23816WAT     H297070   2.143   7.681   6.071 -0.8119 -0.8532 -0.2593
23816WAT    EPW97071   2.059   7.701   6.065 -0.5610  0.1895 -0.3428
23817WAT      O97072  -3.567  10.077   2.799  0.2395  0.4646 -0.0339
23817WAT     H197073  -3.606  10.096   2.884  0.8185 -0.6353  0.5039
23817WAT     H297074  -3.533  10.161   2.768  1.0326  0.6833  1.3533
23817WAT    EPW97075  -3.568  10.090   2.806  0.4205  0.3486  0.2199
23818WAT      O97076   5.103   0.972   2.577 -0.1747 -0.5226  0.3695
23818WAT     H197077   5.118   1.066   2.571  1.2332 -0.8068 -1.9424
23818WAT     H297078   5.139   0.948   2.663 -0.8365  1.0392  1.1301
23818WAT    EPW97079   5.110   0.981   2.588 -0.0763 -0.3541  0.1649
23819WAT      O97080   3.499   5.781   2.576 -0.2483 -0.3422  0.3147
23819WAT     H197081   3.481   5.847   2.509  1.8102 -0.6366 -0.6160
23819WAT     H297082   3.509   5.831   2.657 -0.4747  0.2845 -0.0411
23819WAT    EPW97083   3.498   5.796   2.578 -0.0066 -0.2983  0.1451
23820WAT      O97084  -0.136   5.020   2.262  0.0695  0.5306 -0.0781
23820WAT     H197085  -0.217   4.994   2.306 -0.6508  3.9366  0.9160
23820WAT     H297086  -0.155   5.008   2.169 -1.2747  0.4641  0.1894
23820WAT    EPW97087  -0.149   5.015   2.255 -0.2027  0.9711  0.0882
23821WAT      O97088   7.745   1.914   3.761  0.3415  0.2808  0.2750
23821WAT     H197089   7.813   1.856   3.728  0.6091 -0.3917  1.8936
23821WAT     H297090   7.738   1.983   3.695  0.6665 -1.0775 -1.2416
23821WAT    EPW97091   7.753   1.916   3.748  0.4196  0.0129  0.2885
23822WAT      O97092  -0.433   8.107   6.145  0.7010 -0.6301  0.2991
23822WAT     H197093  -0.410   8.073   6.232 -0.8867 -0.5474  0.7965
23822WAT     H297094  -0.392   8.046   6.084 -0.8579 -2.6618  1.1570
23822WAT    EPW97095  -0.425   8.094   6.149  0.2860 -0.8869  0.4780
23823WAT      O97096   0.204   7.682   0.634  0.1411  0.3904  0.0762
23823WAT     H197097   0.235   7.603   0.591 -2.5007 -0.0711 -1.1914
23823WAT     H297098   0.173   7.738   0.562 -0.1101  1.6121  1.0904
23823WAT    EPW97099   0.204   7.679   0.619 -0.2405  0.4907  0.0428
23824WAT      O97100   4.547   9.709   0.346 -0.1692  0.3316 -0.3788
23824WAT     H197101   4.591   9.779   0.297  0.9056  0.1503  0.2882
23824WAT     H297102   4.468   9.750   0.381 -0.5819  0.6617 -1.6396
23824WAT    EPW97103   4.543   9.724   0.344 -0.0818  0.3510 -0.4571
23825WAT      O97104   2.670   8.551   6.580  0.6074 -0.4855  0.3100
23825WAT     H197105   2.588   8.581   6.541 -0.5343 -2.3053  1.1497
23825WAT     H297106   2.738   8.602   6.536 -0.8327 -0.2170 -1.7460
23825WAT    EPW97107   2.668   8.562   6.570  0.2669 -0.6900  0.1497
23826WAT      O97108  -0.957   4.727   3.938 -0.3856 -0.0092 -1.0036
23826WAT     H197109  -0.866   4.716   3.912 -0.3365 -0.0393 -0.8194
23826WAT     H297110  -0.987   4.805   3.890 -0.5506 -0.5600 -1.8306
23826WAT    EPW97111  -0.949   4.736   3.928 -0.4009 -0.0858 -1.0884
23827WAT      O97112   1.992   4.379   2.555  0.3539 -0.4934 -0.1739
23827WAT     H197113   1.913   4.425   2.581 -0.4295 -0.9764 -1.6089
23827WAT     H297114   1.968   4.287   2.558  0.0831 -0.5719 -2.8519
23827WAT    EPW97115   1.979   4.373   2.559  0.2148 -0.5674 -0.7163
23828WAT      O97116  -0.261   1.605   4.328  0.0325 -0.0774 -0.0357
23828WAT     H197117  -0.243   1.590   4.421 -0.0221 -0.4123 -0.0798
23828WAT     H297118  -0.177   1.590   4.285 -0.1343 -0.7315 -0.1353
23828WAT    EPW97119  -0.247   1.601   4.335  0.0033 -0.2078 -0.0548
23829WAT      O97120  -5.560   8.090   6.129  0.1764  0.5828 -0.1928
23829WAT     H197121  -5.637   8.034   6.131  0.1993  0.3283 -2.8683
23829WAT     H297122  -5.565   8.140   6.209 -1.9562 -0.4905  0.4205
23829WAT    EPW97123  -5.571   8.089   6.139 -0.1018  0.4082 -0.4647
23830WAT      O97124   8.075   4.484   1.088 -0.9266 -0.9068 -0.3764
23830WAT     H197125   8.102   4.498   1.178 -0.8010 -2.7544 -0.0833
23830WAT     H297126   8.144   4.523   1.035 -1.7620  1.6123  0.2571
23830WAT    EPW97127   8.087   4.491   1.093 -1.0204 -0.8180 -0.2542
23831WAT      O97128   3.571   0.495   1.168 -0.2996  0.8805 -0.7396
23831WAT     H197129   3.580   0.493   1.073 -2.2312 -0.2120 -0.9382
23831WAT     H297130   3.567   0.404   1.195 -0.1033  1.1725  0.3669
23831WAT    EPW97131   3.572   0.483   1.159 -0.5285  0.7749 -0.6199
23832WAT      O97132   0.022   3.046   0.097  0.2647 -0.4826  0.3319
23832WAT     H197133   0.030   2.968   0.152 -0.8916 -1.2041 -0.4938
23832WAT     H297134   0.100   3.044   0.042 -0.4175 -1.8683 -0.6561
23832WAT    EPW97135   0.033   3.035   0.097  0.0223 -0.7606  0.0927
23833WAT      O97136   2.156   0.392   6.536 -0.5664 -0.4230  0.7009
23833WAT     H197137   2.153   0.321   6.600  0.9606 -0.9460  0.2538
23833WAT     H297138   2.200   0.464   6.583  1.7364 -1.2372 -0.0642
23833WAT    EPW97139   2.162   0.392   6.551 -0.0613 -0.5993  0.5412
23834WAT      O97140   3.139   5.829   8.528  0.3411 -1.0332 -0.0413
23834WAT     H197141   3.124   5.910   8.478 -0.0579 -0.3006  1.2294
23834WAT     H297142   3.234   5.827   8.542  0.3731 -0.8838 -0.2230
23834WAT    EPW97143   3.150   5.839   8.523  0.2927 -0.9170  0.1020
23835WAT      O97144  -5.265   9.460   7.758 -0.2783 -0.3813 -0.0547
23835WAT     H197145  -5.237   9.542   7.717 -0.5227 -0.9251 -1.3623
23835WAT     H297146  -5.184   9.419   7.787  0.0348 -0.5283 -1.0826
23835WAT    EPW97147  -5.250   9.465   7.756 -0.2692 -0.4725 -0.3629
23836WAT      O97148  -3.253   6.407   2.867 -0.5262  0.5869  0.1488
23836WAT     H197149  -3.251   6.502   2.853 -0.5926  0.4990 -0.4703
23836WAT     H297150  -3.220   6.395   2.956 -3.3116  1.4328  1.4054
23836WAT    EPW97151  -3.249   6.418   2.877 -0.9024  0.6871  0.2329
23837WAT      O97152  -1.891   0.497   8.929 -1.1596 -0.2042 -0.1706
23837WAT     H197153  -1.918   0.490   9.020 -0.7232 -2.8889 -0.1572
23837WAT     H297154  -1.969   0.475   8.878 -0.5691 -2.2679 -0.2817
23837WAT    EPW97155  -1.905   0.493   8.934 -1.0242 -0.8305 -0.1836
23838WAT      O97156   2.742   8.894   7.012 -0.2960 -0.6655  0.4209
23838WAT     H197157   2.722   8.972   6.961 -1.8991  0.2472  2.3379
23838WAT     H297158   2.837   8.893   7.017 -0.0859 -0.4839 -2.0173
23838WAT    EPW97159   2.752   8.904   7.006 -0.4798 -0.5207  0.3524
23839WAT      O97160   3.027   2.896   2.168  0.4176 -0.1438  0.9179
23839WAT     H197161   2.934   2.914   2.156 -0.2029 -2.7635  1.2680
23839WAT     H297162   3.034   2.864   2.258  1.0135 -3.1402 -0.0651
23839WAT    EPW97163   3.016   2.894   2.178  0.4145 -0.8845  0.8345
23840WAT      O97164  -2.795   3.827   2.612 -0.4525 -0.1613  0.8376
23840WAT     H197165  -2.885   3.803   2.633 -0.7938 -1.4115 -1.7068
23840WAT     H297166  -2.803   3.898   2.549  0.4313  1.0199  2.0067
23840WAT    EPW97167  -2.808   3.833   2.607 -0.3810 -0.1704  0.6562
23841WAT      O97168   0.068   6.845   0.470 -0.3278  0.5986  0.0734
23841WAT     H197169   0.118   6.842   0.388  0.0800  1.0288  0.3029
23841WAT     H297170   0.063   6.753   0.498 -1.5665  0.2789 -1.0767
23841WAT    EPW97171   0.074   6.832   0.463 -0.4374  0.6130 -0.0480
23842WAT      O97172  -1.308   7.637   3.392  0.3693 -0.2872 -0.1546
23842WAT     H197173  -1.227   7.588   3.383  0.2419 -1.1231  2.3927
23842WAT     H297174  -1.331   7.663   3.302  2.7502 -1.0903 -1.0704
23842WAT    EPW97175  -1.301   7.634   3.379  0.6665 -0.5033  0.0606
23843WAT      O97176   0.553   0.981   1.289 -0.3230 -0.2629 -0.5081
23843WAT     H197177   0.502   1.061   1.280 -1.0486 -0.6628  0.0117
23843WAT     H297178   0.644   1.009   1.274 -0.5373  0.7073 -0.0499
23843WAT    EPW97179   0.558   0.995   1.286 -0.4470 -0.1877 -0.3791
23844WAT      O97180  -1.380   8.239   5.344 -0.4740  0.5686 -0.1746
23844WAT     H197181  -1.312   8.291   5.386 -0.6699 -1.2704  2.6656
23844WAT     H297182  -1.458   8.296   5.345  0.1414  1.4397 -0.3420
23844WAT    EPW97183  -1.382   8.254   5.350 -0.4187  0.4411  0.1779
23845WAT      O97184  -1.977   6.732   5.296  0.2328 -0.2711 -0.5359
23845WAT     H197185  -1.954   6.753   5.206  0.5366  3.5485  0.2935
23845WAT     H297186  -1.892   6.727   5.341 -0.0149  0.4719  0.0184
23845WAT    EPW97187  -1.963   6.734   5.290  0.2402  0.3307 -0.3533
23846WAT      O97188   1.152   2.587   8.617  0.1241  0.2346 -0.3230
23846WAT     H197189   1.143   2.657   8.552 -0.3387  0.9208  0.4684
23846WAT     H297190   1.109   2.512   8.577  1.4421  0.0950 -1.5906
23846WAT    EPW97191   1.145   2.586   8.603  0.2369  0.3066 -0.3858
23847WAT      O97192   5.149   2.171   4.609 -0.0185  0.4217  0.4275
23847WAT     H197193   5.232   2.175   4.655 -0.1341  1.5251  0.5585
23847WAT     H297194   5.173   2.163   4.516  0.2196  0.2778  0.5009
23847WAT    EPW97195   5.163   2.170   4.603 -0.0026  0.5484  0.4544
23848WAT      O97196   1.613   6.195   1.414 -0.2456  0.0578 -0.3678
23848WAT     H197197   1.587   6.215   1.504  0.1712  1.4051 -0.5173
23848WAT     H297198   1.706   6.173   1.420  0.0204  1.0628 -0.5629
23848WAT    EPW97199   1.622   6.195   1.426 -0.1556  0.3681 -0.4132
23849WAT      O97200   1.169   3.867   2.241 -0.4873 -0.2919 -0.1756
23849WAT     H197201   1.159   3.801   2.309  1.0824  0.0487  0.4404
23849WAT     H297202   1.218   3.823   2.171  0.3491  0.1350  0.1320
23849WAT    EPW97203   1.174   3.853   2.240 -0.1699 -0.1906 -0.0538
23850WAT      O97204  -1.136   4.745   4.194  0.6685 -0.6117  0.2671
23850WAT     H197205  -1.133   4.813   4.261  0.4561 -0.1374 -0.1934
23850WAT     H297206  -1.066   4.769   4.133 -0.0408 -0.2363 -0.4228
23850WAT    EPW97207  -1.126   4.757   4.195  0.5469 -0.4997  0.1154
23851WAT      O97208   4.288   5.920   4.096 -0.5434 -0.6045  0.3982
23851WAT     H197209   4.200   5.886   4.115 -0.9811 -0.0975 -0.6111
23851WAT     H297210   4.347   5.861   4.142 -1.4850  1.3741  4.5464
23851WAT    EPW97211   4.284   5.907   4.104 -0.7253 -0.2768  0.8123
23852WAT      O97212  -6.822   8.465   7.036  0.3734 -0.3570 -0.2732
23852WAT     H197213  -6.862   8.484   7.122 -1.8427 -3.6163 -0.3903
23852WAT     H297214  -6.799   8.372   7.041 -1.6239 -1.2229 -3.7559
23852WAT    EPW97215  -6.825   8.455   7.048 -0.1824 -0.9007 -0.7482
23853WAT      O97216   1.395   4.093   5.792  0.2590 -0.0010 -0.3357
23853WAT     H197217   1.479   4.047   5.797  1.5921  1.8664 -3.0144
23853WAT     H297218   1.339   4.035   5.740  1.1964  0.3287 -1.7845
23853WAT    EPW97219   1.399   4.079   5.786  0.5585  0.2887 -0.8802
23854WAT      O97220   5.272   4.720   0.191  0.6207 -0.2302 -0.0889
23854WAT     H197221   5.331   4.748   0.120  1.6278  0.5181  1.0048
23854WAT     H297222   5.271   4.624   0.183  0.9889 -0.1827 -0.8975
23854WAT    EPW97223   5.280   4.711   0.180  0.8020 -0.1254 -0.0513
23855WAT      O97224   6.056   0.269   1.249  0.2331 -0.0287  0.1056
23855WAT     H197225   6.090   0.218   1.322 -0.5967 -0.3467  0.2894
23855WAT     H297226   6.005   0.206   1.197 -0.9294  0.6220  0.4149
23855WAT    EPW97227   6.054   0.254   1.252 -0.0296  0.0152  0.1706
23856WAT      O97228  -1.151   0.340   2.262 -0.1041 -0.3132 -0.4033
23856WAT     H197229  -1.089   0.409   2.285 -1.6376  0.9400  0.1704
23856WAT     H297230  -1.153   0.282   2.338  1.7743 -1.5211 -1.1886
23856WAT    EPW97231  -1.144   0.341   2.275 -0.0586 -0.3072 -0.4313
23857WAT      O97232   4.674   0.109   2.103  0.4503  0.0168 -0.0499
23857WAT     H197233   4.617   0.129   2.029  0.1506  1.4496  0.5429
23857WAT     H297234   4.673   0.188   2.157  0.3211 -1.1214  1.7089
23857WAT    EPW97235   4.666   0.122   2.101  0.3939  0.0556  0.2602
23858WAT      O97236  -3.391   9.108   7.497 -0.6340 -0.2690 -0.2720
23858WAT     H197237  -3.370   9.039   7.559 -1.1479  0.5271  0.8107
23858WAT     H297238  -3.423   9.061   7.419  4.0991 -1.5435 -1.7737
23858WAT    EPW97239  -3.392   9.092   7.495 -0.0775 -0.3324 -0.3271
23859WAT      O97240   1.309   7.660   0.370 -0.1702 -0.0263 -0.6689
23859WAT     H197241   1.367   7.711   0.426 -0.1908 -0.5857 -0.1312
23859WAT     H297242   1.226   7.707   0.373 -0.5323 -0.6962  0.7603
23859WAT    EPW97243   1.306   7.673   0.378 -0.2207 -0.1884 -0.4095
23860WAT      O97244  -7.893   7.703   8.728 -0.3002  0.3225 -0.6948
23860WAT     H197245  -7.814   7.752   8.706  0.1858  0.3886  1.0468
23860WAT     H297246  -7.930   7.749   8.803  1.1000 -2.7896  2.1456
23860WAT    EPW97247  -7.888   7.715   8.735 -0.0515 -0.0794 -0.0901
23861WAT      O97248   4.761   2.336   4.829 -0.4422  0.6597  0.1892
23861WAT     H197249   4.816   2.370   4.758  1.8815 -3.1003 -0.1194
23861WAT     H297250   4.688   2.293   4.784  0.5700 -0.9677  0.0082
23861WAT    EPW97251   4.759   2.335   4.814 -0.0024 -0.0509  0.1247
23862WAT      O97252  -1.705   6.349   2.648 -0.3513  0.1140  0.3896
23862WAT     H197253  -1.657   6.283   2.698  0.8977  0.5213 -0.2387
23862WAT     H297254  -1.642   6.380   2.582 -1.6003  0.3873 -0.7148
23862WAT    EPW97255  -1.690   6.344   2.646 -0.3513  0.2038  0.1611
23863WAT      O97256  -3.419   6.296   8.023  0.3309 -0.6146 -0.4909
23863WAT     H197257  -3.458   6.377   8.055  0.8716 -1.0063  1.2772
23863WAT     H297258  -3.493   6.245   7.990 -0.3367 -0.3704  0.5927
23863WAT    EPW97259  -3.434   6.300   8.023  0.3142 -0.6342 -0.1154
23864WAT      O97260   4.004   2.967   6.742 -0.0369  0.6199 -0.1277
23864WAT     H197261   4.020   2.879   6.710 -0.3030  1.3547 -2.5123
23864WAT     H297262   3.933   2.958   6.805 -2.3733 -0.5946 -2.7054
23864WAT    EPW97263   3.997   2.954   6.746 -0.3800  0.5566 -0.7820
23865WAT      O97264   3.902   2.506   2.895 -0.1992  0.1270 -0.2235
23865WAT     H197265   3.885   2.418   2.862  0.7498 -0.8516  1.7755
23865WAT     H297266   3.993   2.504   2.924 -0.7282  1.1538  1.6671
23865WAT    EPW97267   3.912   2.494   2.894 -0.1438  0.1333  0.2896
23866WAT      O97268   2.805   4.999   2.583  0.1909 -0.2672  0.4238
23866WAT     H197269   2.775   4.970   2.497  0.2122  0.9084  0.0107
23866WAT     H297270   2.894   5.031   2.569 -0.1173  0.7524  0.6958
23866WAT    EPW97271   2.812   4.999   2.570  0.1529  0.0224  0.4052
23867WAT      O97272  -0.369   8.814   4.634  0.2604  0.2119  0.3879
23867WAT     H197273  -0.324   8.734   4.660 -1.2373 -0.7730  0.0630
23867WAT     H297274  -0.362   8.871   4.711 -0.2785 -0.9577  1.3338
23867WAT    EPW97275  -0.362   8.811   4.647 -0.0082 -0.0725  0.4697
23868WAT      O97276   5.594   5.275   3.916 -0.1216  1.0580 -0.6514
23868WAT     H197277   5.575   5.319   3.834 -2.3961  1.6623  0.1161
23868WAT     H297278   5.584   5.344   3.983 -0.6535  0.0825  0.3103
23868WAT    EPW97279   5.590   5.290   3.914 -0.4916  1.0090 -0.4233
23869WAT      O97280  -0.223   1.228   7.519 -0.3845  0.3522  0.8544
23869WAT     H197281  -0.264   1.268   7.595 -1.7253  0.2007  0.2563
23869WAT     H297282  -0.278   1.152   7.499  1.1360 -0.8249  0.9617
23869WAT    EPW97283  -0.236   1.223   7.526 -0.3608  0.1770  0.7899
23870WAT      O97284  -4.246   9.141   3.423 -0.0622 -0.0683 -0.2241
23870WAT     H197285  -4.218   9.092   3.346  0.0733 -0.7241  0.2273
23870WAT     H297286  -4.226   9.082   3.497 -1.1235  0.1185  0.2327
23870WAT    EPW97287  -4.240   9.126   3.423 -0.1841 -0.1302 -0.1043
23871WAT      O97288   5.818   7.849   2.894 -0.1243 -0.8027  0.0490
23871WAT     H197289   5.874   7.807   2.828 -0.0294  0.7816 -0.9444
23871WAT     H297290   5.736   7.800   2.890 -0.1657 -0.6846 -1.3840
23871WAT    EPW97291   5.815   7.837   2.885 -0.1175 -0.5784 -0.2710
23872WAT      O97292   0.220  10.005   0.934  0.1200  0.2691  0.2156
23872WAT     H197293   0.158  10.030   0.866 -1.0398 -1.5626  0.5296
23872WAT     H297294   0.169   9.952   0.996  1.5190  0.4686  1.6156
23872WAT    EPW97295   0.205  10.001   0.933  0.1515  0.0539  0.4417
23873WAT      O97296   2.843   0.200   0.416  0.9414  0.6729  0.3532
23873WAT     H197297   2.894   0.221   0.495  3.6121 -1.5140 -0.6366
23873WAT     H297298   2.828   0.105   0.422  1.4882  0.3947 -1.8917
23873WAT    EPW97299   2.848   0.190   0.427  1.3659  0.3478 -0.0734
23874WAT      O97300  -1.800   5.137   5.350  0.8642 -0.0395 -0.2389
23874WAT     H197301  -1.872   5.082   5.321 -0.8083  3.0047 -2.4100
23874WAT     H297302  -1.821   5.160   5.441 -0.6601  0.3572 -0.6757
23874WAT    EPW97303  -1.812   5.133   5.358  0.4426  0.4144 -0.5827
23875WAT      O97304   5.895   0.159   7.389  0.3934 -0.1254  0.1100
23875WAT     H197305   5.845   0.220   7.335  0.0463 -0.0800  0.4765
23875WAT     H297306   5.980   0.200   7.400 -0.5377  1.4365  2.2620
23875WAT    EPW97307   5.899   0.172   7.383  0.2248  0.0866  0.4420
23876WAT      O97308   5.680   0.287   3.859 -0.6814 -0.2806 -0.3377
23876WAT     H197309   5.622   0.334   3.919  0.3486 -0.2667  0.6962
23876WAT     H297310   5.638   0.295   3.773 -3.4163 -2.2185  0.6746
23876WAT    EPW97311   5.667   0.294   3.856 -0.9062 -0.5343 -0.0677
23877WAT      O97312  -1.003   4.871   6.151  0.2995 -0.4622 -0.2216
23877WAT     H197313  -1.014   4.966   6.149  3.2782 -0.0280 -0.8649
23877WAT     H297314  -1.037   4.841   6.066  0.2037  0.1495 -0.4005
23877WAT    EPW97315  -1.009   4.879   6.140  0.6797 -0.3245 -0.3300
23878WAT      O97316   2.663   4.271   7.595 -0.4072  0.1653 -0.1770
23878WAT     H197317   2.582   4.321   7.603  0.2994  1.2271  0.6513
23878WAT     H297318   2.732   4.338   7.593  0.4250 -0.6818 -1.5348
23878WAT    EPW97319   2.662   4.287   7.596 -0.2043  0.1936 -0.2468
23879WAT      O97320   4.255   0.906   2.933 -0.4238  0.7308 -0.5532
23879WAT     H197321   4.162   0.885   2.923 -0.0242 -0.8806 -1.2001
23879WAT     H297322   4.257   1.000   2.950 -2.3172  0.4352  1.8674
23879WAT    EPW97323   4.243   0.916   2.934 -0.6211  0.4793 -0.3194
23880WAT      O97324   5.323   1.457   6.001  0.9160  0.0356  0.2639
23880WAT     H197325   5.306   1.543   6.039 -0.2932  0.4301 -1.0875
23880WAT     H297326   5.337   1.400   6.076  0.6419  1.1854  1.2174
23880WAT    EPW97327   5.323   1.461   6.016  0.7205  0.2392  0.2112
23881WAT      O97328   5.306   3.891   3.569  0.2088 -0.0554  0.4669
23881WAT     H197329   5.239   3.945   3.528  0.4688  1.0592  1.4465
23881WAT     H297330   5.369   3.953   3.604  1.3365 -1.0590  0.2825
23881WAT    EPW97331   5.306   3.906   3.568  0.3920 -0.0407  0.5717
23882WAT      O97332   6.270   1.346   0.391 -0.1793 -0.1762  0.0050
23882WAT     H197333   6.256   1.268   0.444 -2.0319  0.6864  0.8739
23882WAT     H297334   6.333   1.319   0.324  1.0433 -1.7191  1.7040
23882WAT    EPW97335   6.276   1.332   0.389 -0.2625 -0.2659  0.3437
23883WAT      O97336   4.049   2.403   4.968  0.9889 -0.1057  0.3145
23883WAT     H197337   4.132   2.400   5.015  0.5207 -0.8187  1.1292
23883WAT     H297338   3.998   2.330   5.005  0.7598 -0.9793 -1.6179
23883WAT    EPW97339   4.053   2.393   4.979  0.8969 -0.3151  0.1674
23884WAT      O97340   3.481   9.704   2.732  0.1315  0.4990  0.1941
23884WAT     H197341   3.503   9.652   2.809 -1.7687  0.8779  1.0529
23884WAT     H297342   3.563   9.710   2.683  1.1795 -0.4999  1.7287
23884WAT    EPW97343   3.495   9.698   2.736  0.0191  0.4172  0.5097
23885WAT      O97344   0.183   6.205   1.843  0.7429  0.3054 -0.1344
23885WAT     H197345   0.220   6.187   1.929  1.7989 -1.9084 -0.9881
23885WAT     H297346   0.099   6.159   1.843 -0.3037  2.1113  0.4231
23885WAT    EPW97347   0.177   6.197   1.854  0.7441  0.2518 -0.1735
23886WAT      O97348  -2.694   4.656   8.909 -0.2192  0.0375 -0.0101
23886WAT     H197349  -2.671   4.606   8.830  1.3571  0.7213 -0.0180
23886WAT     H297350  -2.624   4.720   8.918  1.1050 -1.6532  3.4103
23886WAT    EPW97351  -2.682   4.658   8.900  0.1633 -0.0954  0.4401
23887WAT      O97352   0.457  10.207   2.804 -0.1434 -0.7262 -0.7750
23887WAT     H197353   0.396  10.245   2.867 -1.5731 -2.6202 -0.9116
23887WAT     H297354   0.483  10.279   2.748 -0.6613  0.5323  0.5485
23887WAT    EPW97355   0.453  10.221   2.805 -0.4003 -0.8097 -0.6185
23888WAT      O97356   2.236   0.960   5.633  0.5550  0.7843  0.9810
23888WAT     H197357   2.141   0.958   5.638  0.6346 -0.2753  2.7856
23888WAT     H297358   2.261   1.046   5.667  0.2555  1.4620 -0.4045
23888WAT    EPW97359   2.227   0.971   5.638  0.5261  0.7339  1.0362
23889WAT      O97360   0.543   1.742   0.098  0.4131  0.2176  0.3278
23889WAT     H197361   0.621   1.697   0.130 -0.6824 -1.1090  1.2557
23889WAT     H297362   0.533   1.711   0.008  0.3969 -0.4286  0.5427
23889WAT    EPW97363   0.552   1.732   0.091  0.2665 -0.0427  0.4786
23890WAT      O97364  -3.836   3.587   5.611 -0.1329 -0.2309  0.3866
23890WAT     H197365  -3.868   3.666   5.655 -1.1986 -0.7686  0.6299
23890WAT     H297366  -3.852   3.516   5.674 -0.3104 -0.8073 -0.2875
23890WAT    EPW97367  -3.843   3.588   5.625 -0.2970 -0.3779  0.3297
23891WAT      O97368   1.559   1.840   2.028 -0.4865 -0.9547  0.2454
23891WAT     H197369   1.631   1.876   1.977 -0.5562 -3.3859 -1.7851
23891WAT     H297370   1.489   1.905   2.021  0.5506  0.1392 -0.1885
23891WAT    EPW97371   1.559   1.853   2.020 -0.3589 -1.1311 -0.0798
23892WAT      O97372   1.632   6.813   1.952 -0.2077 -0.5016 -0.2447
23892WAT     H197373   1.662   6.829   2.041 -1.4648 -1.1815  0.3159
23892WAT     H297374   1.583   6.731   1.957  0.1658 -0.8432 -1.6724
23892WAT    EPW97375   1.630   6.804   1.964 -0.3242 -0.6363 -0.3591
23893WAT      O97376  -5.385   8.328   7.334  0.1262  0.0080 -0.9104
23893WAT     H197377  -5.381   8.405   7.277 -1.5205  2.5421  2.1014
23893WAT     H297378  -5.296   8.293   7.332  1.6563  3.4711 -0.6011
23893WAT    EPW97379  -5.373   8.333   7.326  0.1106  0.7992 -0.4723
23894WAT      O97380   2.339   1.189   1.704 -0.5954  0.0252  0.3741
23894WAT     H197381   2.324   1.173   1.611 -2.1323  2.5327  0.0999
23894WAT     H297382   2.277   1.258   1.727  1.9849  1.8690  2.4723
23894WAT    EPW97383   2.329   1.196   1.694 -0.4579  0.5991  0.6147
23895WAT      O97384   4.478   1.246   1.926  0.4056  0.1790 -0.0451
23895WAT     H197385   4.493   1.318   1.865 -1.0205  0.8464  0.3346
23895WAT     H297386   4.564   1.208   1.940  0.9967  1.0030 -1.2509
23895WAT    EPW97387   4.491   1.251   1.920  0.2954  0.3757 -0.1541
23896WAT      O97388   1.875   2.853   3.001 -0.5643  0.4648  0.0662
23896WAT     H197389   1.818   2.805   3.061  0.3675 -1.2854 -0.3980
23896WAT     H297390   1.941   2.790   2.974  0.1880  1.7646 -1.2957
23896WAT    EPW97391   1.876   2.839   3.005 -0.3421  0.4053 -0.1746
23897WAT      O97392   6.539   3.061   3.547  0.3912  0.3710 -0.1470
23897WAT     H197393   6.631   3.044   3.567  1.1022 -0.3905 -3.5340
23897WAT     H297394   6.521   3.146   3.588  2.7532  0.8055  0.1198
23897WAT    EPW97395   6.549   3.070   3.555  0.7966  0.3278 -0.5585
23898WAT      O97396   2.579   5.928   4.866 -0.6017 -0.2709 -0.5038
23898WAT     H197397   2.528   6.008   4.854 -1.4033 -0.7753 -0.5525
23898WAT     H297398   2.582   5.888   4.780 -0.0234 -0.1908 -0.5210
23898WAT    EPW97399   2.573   5.933   4.853 -0.6312 -0.3269 -0.5126
23899WAT      O97400  -1.956   7.631   5.929  0.1162 -0.1409  0.4868
23899WAT     H197401  -1.965   7.546   5.886 -1.8757  0.1237  0.2841
23899WAT     H297402  -1.887   7.619   5.993  1.7900 -1.1175 -1.4121
23899WAT    EPW97403  -1.948   7.619   5.932  0.0742 -0.2348  0.2098
23900WAT      O97404   2.429   4.112   6.652  0.7146 -0.1694 -0.3024
23900WAT     H197405   2.380   4.171   6.710 -0.0748  0.4172 -1.5154
23900WAT     H297406   2.374   4.034   6.646  1.3028 -0.6643  0.5481
23900WAT    EPW97407   2.415   4.110   6.659  0.6881 -0.1571 -0.3500
23901WAT      O97408  -0.994   5.778   6.437  0.9920 -0.1817 -0.0793
23901WAT     H197409  -1.020   5.775   6.529  1.0206  0.2297 -0.0540
23901WAT     H297410  -1.009   5.690   6.404  1.1822 -0.3834  0.3749
23901WAT    EPW97411  -1.000   5.766   6.444  1.0209 -0.1540 -0.0160
23902WAT      O97412  -2.770   9.770   0.323  0.2162 -0.6586  0.3795
23902WAT     H197413  -2.842   9.790   0.263 -0.0801 -0.4310  0.8073
23902WAT     H297414  -2.801   9.799   0.408  1.7094  1.5759  0.2326
23902WAT    EPW97415  -2.784   9.776   0.326  0.3741 -0.3338  0.4165
23903WAT      O97416   2.108   0.401   8.496 -0.6512 -0.1605  0.6384
23903WAT     H197417   2.121   0.346   8.573  0.9003 -0.5919  0.0990
23903WAT     H297418   2.124   0.342   8.422  1.0258  0.9643  0.0536
23903WAT    EPW97419   2.112   0.386   8.497 -0.2253 -0.0691  0.4897
23904WAT      O97420  -4.709   8.961   8.038  0.2327 -0.5220 -0.0148
23904WAT     H197421  -4.674   8.907   7.967  1.8532  0.1165  0.2610
23904WAT     H297422  -4.643   8.958   8.106 -1.0213 -0.6108  1.2493
23904WAT    EPW97423  -4.696   8.954   8.038  0.2809 -0.4492  0.1884
23905WAT      O97424   0.413   4.424   4.823  0.3421 -0.3829  0.2071
23905WAT     H197425   0.490   4.368   4.822  0.0420 -0.8736  1.8175
23905WAT     H297426   0.444   4.507   4.861 -0.4133 -1.5076  3.6535
23905WAT    EPW97427   0.427   4.428   4.828  0.2029 -0.5958  0.8740
23906WAT      O97428   3.037   3.690   1.595  0.0256  0.5834 -0.2904
23906WAT     H197429   2.984   3.697   1.516 -2.4881 -1.8033  1.0182
23906WAT     H297430   3.012   3.767   1.647 -2.2523 -0.4609  0.2774
23906WAT    EPW97431   3.027   3.701   1.592 -0.6064  0.1308 -0.0429
23907WAT      O97432   0.835   7.313   2.245 -0.8091 -0.2337  0.7762
23907WAT     H197433   0.910   7.372   2.239 -1.4431  0.4782 -0.3662
23907WAT     H297434   0.843   7.256   2.168 -0.8619 -0.8771  1.2320
23907WAT    EPW97435   0.846   7.313   2.234 -0.8997 -0.2246  0.6856
23908WAT      O97436   0.660   8.113   1.435 -0.3377  0.5204 -0.3550
23908WAT     H197437   0.637   8.198   1.397  0.1342  0.0234 -1.8025
23908WAT     H297438   0.603   8.106   1.512  0.7294  2.8258  0.7464
23908WAT    EPW97439   0.649   8.124   1.440 -0.1347  0.7591 -0.4007
23909WAT      O97440  -0.082   6.150   6.788 -0.5117  0.6480  0.1722
23909WAT     H197441  -0.077   6.084   6.857  1.3683 -0.4410 -0.9166
23909WAT     H297442  -0.173   6.181   6.790 -0.9959 -0.7528  1.8133
23909WAT    EPW97443  -0.093   6.146   6.797 -0.3276  0.3195  0.2451
23910WAT      O97444   0.333   2.651   4.304  0.8471 -0.6300 -0.2028
23910WAT     H197445   0.388   2.722   4.271  0.9985  0.3628  1.9622
23910WAT     H297446   0.256   2.652   4.248  0.2007  2.2696  0.5556
23910WAT    EPW97447   0.330   2.661   4.293  0.7818 -0.1166  0.1826
23911WAT      O97448  -1.222   0.206   6.704  0.7384 -0.0116 -0.3452
23911WAT     H197449  -1.288   0.174   6.766 -0.5945  2.2167 -0.5223
23911WAT     H297450  -1.179   0.278   6.749  1.0698  0.4008 -1.2998
23911WAT    EPW97451  -1.225   0.211   6.718  0.6064  0.3367 -0.4945
23912WAT      O97452   1.132   4.968   3.990 -0.0127  0.7232 -0.1639
23912WAT     H197453   1.161   4.883   3.959  0.7232  1.4371 -1.5400
23912WAT     H297454   1.157   4.970   4.082 -1.7587 -1.2457  0.4063
23912WAT    EPW97455   1.140   4.957   3.998 -0.1459  0.5577 -0.2701
23913WAT      O97456   3.738   2.931   3.619  0.7850 -0.5140 -0.5319
23913WAT     H197457   3.652   2.967   3.601  1.3732  1.8555  0.9294
23913WAT     H297458   3.776   2.916   3.533 -1.2768 -2.2767 -1.2120
23913WAT    EPW97459   3.732   2.934   3.606  0.5906 -0.4339 -0.4288
23914WAT      O97460   4.422   5.097   4.718  0.1646 -0.0266  1.0998
23914WAT     H197461   4.343   5.095   4.664 -0.9928  1.9474  2.5727
23914WAT     H297462   4.481   5.156   4.671  2.1862 -3.7360 -1.5751
23914WAT    EPW97463   4.419   5.104   4.705  0.2785 -0.2556  0.9413
23915WAT      O97464   6.410   8.569   2.384 -0.0540  0.3604  0.0659
23915WAT     H197465   6.496   8.605   2.404 -0.2253  0.7579  0.0993
23915WAT     H297466   6.427   8.501   2.320 -0.0144  2.6619 -2.5659
23915WAT    EPW97467   6.424   8.565   2.378 -0.0713  0.7167 -0.2769
23916WAT      O97468  -0.143   5.288   5.819  0.0788 -0.4318  0.1574
23916WAT     H197469  -0.138   5.317   5.910  1.1117 -0.0023 -0.0142
23916WAT     H297470  -0.232   5.310   5.792  0.1875  0.7241  0.6627
23916WAT    EPW97471  -0.154   5.295   5.827  0.2294 -0.2227  0.2015
23917WAT      O97472   3.484   4.931   7.910  0.1394 -0.3811  0.1916
23917WAT     H197473   3.570   4.922   7.950 -0.6909 -3.2872  1.5758
23917WAT     H297474   3.435   4.986   7.970  0.1325 -1.3039  1.0478
23917WAT    EPW97475   3.489   4.937   7.923  0.0291 -0.8860  0.4869
23918WAT      O97476   3.356   5.428   6.991  0.0008 -0.0681 -0.0355
23918WAT     H197477   3.409   5.378   6.929 -0.3300 -0.7190  0.1896
23918WAT     H297478   3.362   5.519   6.961 -1.7800 -0.5884 -2.2504
23918WAT    EPW97479   3.363   5.433   6.979 -0.2779 -0.2227 -0.2978
23919WAT      O97480   1.757   3.108   4.476  0.2250 -0.1591 -0.0239
23919WAT     H197481   1.825   3.173   4.460  0.0368 -0.0331 -0.3265
23919WAT     H297482   1.742   3.113   4.571 -0.2524  0.7232 -0.1277
23919WAT    EPW97483   1.764   3.118   4.487  0.1372 -0.0262 -0.0775
23920WAT      O97484   2.062   0.114   0.302  0.2821  0.5763 -0.4635
23920WAT     H197485   2.088   0.080   0.387  1.4425 -1.4209 -1.5442
23920WAT     H297486   2.007   0.046   0.264 -0.8883  1.7785 -1.0427
23920WAT    EPW97487   2.058   0.101   0.308  0.2809  0.4714 -0.6825
23921WAT      O97488   8.889   0.938   0.825 -0.3913  0.3837 -0.0746
23921WAT     H197489   8.929   0.909   0.907  1.0082  0.6289 -0.6618
23921WAT     H297490   8.917   0.873   0.761  2.5955  2.7214 -1.3755
23921WAT    EPW97491   8.898   0.925   0.827  0.1874  0.7243 -0.3237
23922WAT      O97492   5.722   4.780   0.489 -0.3194  0.0690  0.5710
23922WAT     H197493   5.806   4.787   0.534 -0.3559 -0.7961  0.8065
23922WAT     H297494   5.727   4.696   0.443 -1.7474 -0.9020  2.0812
23922WAT    EPW97495   5.734   4.770   0.489 -0.5124 -0.1731  0.8013
23923WAT      O97496   3.066   5.137   5.954  0.3948  0.3329  0.5344
23923WAT     H197497   3.123   5.215   5.959  0.1153  0.4578  3.2812
23923WAT     H297498   3.124   5.064   5.976  0.3844 -0.1263 -0.8632
23923WAT    EPW97499   3.081   5.138   5.958  0.3567  0.2887  0.7126
23924WAT      O97500  -4.385   6.007   3.939 -0.5541 -0.0579  0.1873
23924WAT     H197501  -4.314   5.945   3.925 -0.7102  0.0262 -1.1208
23924WAT     H297502  -4.409   6.036   3.851  0.4928  2.9742  0.8003
23924WAT    EPW97503  -4.379   6.003   3.925 -0.4368  0.3529  0.0957
23925WAT      O97504   2.281   8.168   4.673 -0.1876  0.3833  0.7364
23925WAT     H197505   2.190   8.168   4.644 -0.2342 -0.3942  0.8554
23925WAT     H297506   2.277   8.148   4.766 -0.0523  3.0571  1.4025
23925WAT    EPW97507   2.269   8.165   4.681 -0.1760  0.6337  0.8399
23926WAT      O97508   5.385  10.087   1.976  0.3125 -0.1776 -0.2825
23926WAT     H197509   5.432  10.039   2.045 -3.9129 -0.1847  2.9941
23926WAT     H297510   5.376  10.023   1.905  1.6224 -1.4725  0.6441
23926WAT    EPW97511   5.390  10.072   1.976 -0.0718 -0.3490  0.2719
23927WAT      O97512  -1.376   5.719   4.291 -0.0762  0.5031  0.3359
23927WAT     H197513  -1.397   5.793   4.235 -1.6614  1.6126  2.2540
23927WAT     H297514  -1.316   5.665   4.239 -0.7829  1.8730 -2.0223
23927WAT    EPW97515  -1.371   5.721   4.277 -0.3784  0.8302  0.2780
23928WAT      O97516   1.635   7.071   5.583 -0.5525 -0.6858 -0.1954
23928WAT     H197517   1.724   7.090   5.556 -0.3075  1.9603  2.0404
23928WAT     H297518   1.622   7.124   5.662 -3.4501 -2.5012  0.7154
23928WAT    EPW97519   1.645   7.080   5.590 -0.9024 -0.5760  0.2198
23929WAT      O97520  -3.022   8.355   1.697  0.1426 -0.2483 -0.5817
23929WAT     H197521  -2.930   8.382   1.705 -0.4083  1.6592 -0.0247
23929WAT     H297522  -3.067   8.433   1.664 -1.6569 -0.3264  1.4668
23929WAT    EPW97523  -3.016   8.369   1.694 -0.1675 -0.0072 -0.2381
23930WAT      O97524   2.692   3.023   7.135 -0.2779  0.0518  0.6207
23930WAT     H197525   2.718   2.938   7.170  1.0539  0.7386  1.3874
23930WAT     H297526   2.668   3.074   7.212  3.4509  1.8528  0.8399
23930WAT    EPW97527   2.693   3.018   7.150  0.3897  0.3799  0.7508
23931WAT      O97528  -0.637   9.631   2.411 -0.1812 -0.1300 -0.2231
23931WAT     H197529  -0.641   9.721   2.381 -1.2779 -0.8271 -2.3445
23931WAT     H297530  -0.550   9.623   2.453 -0.8519  2.3823  1.9006
23931WAT    EPW97531  -0.626   9.642   2.413 -0.4143  0.1092 -0.2227
23932WAT      O97532  -3.806   6.836   5.612  0.3020  0.4140 -0.6163
23932WAT     H197533  -3.774   6.869   5.696 -3.7044  2.3578  0.3708
23932WAT     H297534  -3.854   6.756   5.634 -2.8944  2.2237 -0.4532
23932WAT    EPW97535  -3.808   6.830   5.626 -0.6480  0.9089 -0.4644
23933WAT      O97536  -3.736   1.311   6.157 -0.1898 -0.3836 -0.5452
23933WAT     H197537  -3.822   1.278   6.184 -0.7033  1.1127 -0.2340
23933WAT     H297538  -3.710   1.254   6.084 -0.6083 -1.9759  0.4910
23933WAT    EPW97539  -3.744   1.299   6.151 -0.3127 -0.3963 -0.3674
23934WAT      O97540  -0.361   7.167   2.172 -0.3838 -0.0912 -0.0931
23934WAT     H197541  -0.428   7.098   2.173  0.5539 -1.1225  2.9779
23934WAT     H297542  -0.407   7.246   2.199 -0.7772 -0.2718 -0.2249
23934WAT    EPW97543  -0.376   7.168   2.175 -0.3120 -0.2513  0.2946
23935WAT      O97544  -2.573   6.161   6.188  0.5812 -0.1651  0.2424
23935WAT     H197545  -2.527   6.171   6.271 -0.9763  1.8719  0.9356
23935WAT     H297546  -2.618   6.077   6.195 -1.4997  1.0196  2.5740
23935WAT    EPW97547  -2.573   6.151   6.200  0.1013  0.2596  0.6413
23936WAT      O97548  -0.275   8.140   2.342  0.0982  0.5064  0.5483
23936WAT     H197549  -0.184   8.164   2.360  0.9423 -0.6476 -1.6845
23936WAT     H297550  -0.274   8.114   2.250 -2.0198 -1.7002  1.0545
23936WAT    EPW97551  -0.263   8.140   2.332 -0.0698  0.0629  0.3206
23937WAT      O97552   0.821   4.954   8.037 -0.5281  0.9571 -0.7154
23937WAT     H197553   0.871   4.941   8.117 -1.0641  0.5301 -0.4486
23937WAT     H297554   0.862   5.030   7.995 -0.6948  1.6214  0.3065
23937WAT    EPW97555   0.833   4.962   8.042 -0.6208  0.9885 -0.5455
23938WAT      O97556   2.037   8.398   7.880  0.1768  0.3740  0.3672
23938WAT     H197557   1.972   8.343   7.923 -1.5457  2.2884  0.4244
23938WAT     H297558   2.121   8.371   7.916 -0.4143 -2.7634 -0.2868
23938WAT    EPW97559   2.039   8.387   7.890 -0.1284  0.2131  0.2885
23939WAT      O97560  -6.390   7.455   7.563 -0.0225  0.2494  0.6528
23939WAT     H197561  -6.477   7.479   7.529 -0.1173  0.1542  0.8291
23939WAT     H297562  -6.347   7.539   7.579 -0.5628  0.3192  1.8111
23939WAT    EPW97563  -6.396   7.469   7.560 -0.1066  0.2460  0.8287
23940WAT      O97564   8.114   4.464   1.900  0.2876  0.7175  0.3270
23940WAT     H197565   8.154   4.464   1.813 -1.7458  0.6851 -0.6677
23940WAT     H297566   8.123   4.374   1.931  0.2438  0.5043 -0.2561
23940WAT    EPW97567   8.120   4.452   1.892  0.0134  0.6855  0.1189
23941WAT      O97568   3.734   4.691   8.055 -0.2712 -0.3734 -0.0760
23941WAT     H197569   3.820   4.714   8.018  0.3587 -0.5637  1.2000
23941WAT     H297570   3.678   4.677   7.979  0.5713  0.7010 -0.9345
23941WAT    EPW97571   3.738   4.692   8.040 -0.0770 -0.2568 -0.0205
23942WAT      O97572  -0.505   3.062   1.973 -0.1294 -0.4316 -0.3534
23942WAT     H197573  -0.429   3.015   1.939  0.0586 -0.2419 -0.1986
23942WAT     H297574  -0.536   3.008   2.046  0.1885 -0.2291 -0.0685
23942WAT    EPW97575  -0.499   3.049   1.978 -0.0627 -0.3799 -0.2954
23943WAT      O97576   6.888   1.188   0.846 -0.9719 -0.1607  0.3417
23943WAT     H197577   6.920   1.207   0.935 -0.6121  0.6650  0.0533
23943WAT     H297578   6.793   1.187   0.854 -0.9220 -2.4563  1.1795
23943WAT    EPW97579   6.880   1.191   0.859 -0.9177 -0.3546  0.4142
23944WAT      O97580   6.731   1.300   5.498 -0.2784  0.1806  0.3698
23944WAT     H197581   6.639   1.312   5.520 -0.6892  1.6587 -1.7997
23944WAT     H297582   6.759   1.385   5.464  1.0974 -0.9865 -1.6375
23944WAT    EPW97583   6.723   1.313   5.497 -0.1512  0.2217 -0.1810
23945WAT      O97584   9.243   2.869   0.950  0.3301  0.1358 -0.9486
23945WAT     H197585   9.155   2.843   0.979  0.4408 -0.0471 -0.7738
23945WAT     H297586   9.295   2.789   0.956  0.2978  0.0327 -1.8948
23945WAT    EPW97587   9.238   2.855   0.955  0.3405  0.0980 -1.0503
23946WAT      O97588   5.802   0.948   0.933  0.3170  0.7078  0.2295
23946WAT     H197589   5.720   0.898   0.936  0.6088  0.2154  0.1260
23946WAT     H297590   5.832   0.950   1.024  1.1208 -0.6946  0.0207
23946WAT    EPW97591   5.795   0.941   0.945  0.4616  0.4579  0.1884
23947WAT      O97592   7.529   5.971   1.966 -0.8426 -0.1505  0.6766
23947WAT     H197593   7.516   5.878   1.987  2.1038 -1.2114 -1.4002
23947WAT     H297594   7.533   5.973   1.870 -2.5744  2.4835  0.5749
23947WAT    EPW97595   7.528   5.959   1.956 -0.6826  0.0570  0.3893
23948WAT      O97596   3.900   7.069   1.165 -0.2479  0.3849 -0.5992
23948WAT     H197597   3.846   7.108   1.096  2.2115  1.8747 -1.8010
23948WAT     H297598   3.948   6.999   1.122  0.4349  0.5444 -0.1109
23948WAT    EPW97599   3.899   7.065   1.150  0.1665  0.6027 -0.6933
23949WAT      O97600  -0.465   0.348   8.072  0.5903 -0.1050  0.9873
23949WAT     H197601  -0.411   0.339   8.150 -0.7806  1.0656  2.1423
23949WAT     H297602  -0.437   0.431   8.033 -1.0045  1.0630  2.1910
23949WAT    EPW97603  -0.454   0.358   8.077  0.1991  0.2035  1.2984
23950WAT      O97604  -4.481   1.171   8.405  0.0990 -0.3890  0.3425
23950WAT     H197605  -4.564   1.218   8.401 -0.7989 -1.9746 -0.8553
23950WAT     H297606  -4.473   1.144   8.497 -0.3302  0.4025  0.6215
23950WAT    EPW97607  -4.491   1.174   8.417 -0.0758 -0.4937  0.2213
23951WAT      O97608  -6.574   9.375   7.040  0.0253  0.1924 -0.2840
23951WAT     H197609  -6.485   9.345   7.055 -0.2866 -1.5827 -1.7585
23951WAT     H297610  -6.565   9.448   6.978  0.4652  0.2769 -0.1208
23951WAT    EPW97611  -6.561   9.381   7.034  0.0422 -0.0300 -0.4568
23952WAT      O97612   4.125   9.659   1.299 -0.0229 -0.0009 -0.3759
23952WAT     H197613   4.188   9.587   1.293  1.0470  0.7316  1.3775
23952WAT     H297614   4.167   9.731   1.251  0.5127  0.4825  0.7796
23952WAT    EPW97615   4.139   9.659   1.292  0.1888  0.1597  0.0077
23953WAT      O97616   3.125   5.778   3.776  0.3104 -0.5537  0.6856
23953WAT     H197617   3.115   5.746   3.866  1.4552 -0.3247  0.9131
23953WAT     H297618   3.219   5.771   3.759 -0.0813 -2.1324 -1.0910
23953WAT    EPW97619   3.136   5.773   3.786  0.4098 -0.7319  0.4814
23954WAT      O97620  -0.077   3.768   2.532  0.2798 -0.0879  0.2369
23954WAT     H197621  -0.084   3.862   2.552 -4.0245 -0.3335  0.8583
23954WAT     H297622  -0.141   3.754   2.463  0.2791 -2.6721  0.6838
23954WAT    EPW97623  -0.086   3.779   2.526 -0.2880 -0.4611  0.3778
23955WAT      O97624   4.091   1.407   7.202  0.1295 -0.3110  0.1714
23955WAT     H197625   4.133   1.490   7.177  1.0253 -0.9655 -0.5405
23955WAT     H297626   4.138   1.380   7.281  0.4701 -0.6117 -0.1342
23955WAT    EPW97627   4.103   1.415   7.209  0.2928 -0.4370  0.0372
23956WAT      O97628   7.993   5.271   0.720  0.4285  0.1674  0.1439
23956WAT     H197629   7.905   5.251   0.753  0.3538 -1.3796 -0.9120
23956WAT     H297630   7.978   5.335   0.650  0.3245  1.1291  1.0076
23956WAT    EPW97631   7.979   5.277   0.715  0.4051  0.0901  0.1186
23957WAT      O97632  -1.127   4.286   8.274  0.2899  0.2858  1.2896
23957WAT     H197633  -1.134   4.367   8.324  0.1162  0.2652  1.2968
23957WAT     H297634  -1.037   4.257   8.290 -0.3622 -0.8113  3.2824
23957WAT    EPW97635  -1.116   4.293   8.283  0.1810  0.1383  1.5531
23958WAT      O97636  -4.806   5.028   8.438 -0.0358  0.0421  0.4704
23958WAT     H197637  -4.724   5.040   8.486  1.1281 -0.3202 -1.3148
23958WAT     H297638  -4.801   5.091   8.367 -1.2520 -0.0924  0.2610
23958WAT    EPW97639  -4.794   5.038   8.435 -0.0427 -0.0234  0.2074
23959WAT      O97640   4.623   0.673   2.631 -0.1857 -0.2680  0.8872
23959WAT     H197641   4.698   0.614   2.632  0.5537  0.3071 -3.0286
23959WAT     H297642   4.554   0.625   2.585 -1.2274  0.2862  1.8088
23959WAT    EPW97643   4.624   0.659   2.625 -0.2255 -0.1190  0.4922
23960WAT      O97644  -0.537   1.020   4.510  0.0923 -0.0547  0.1338
23960WAT     H197645  -0.578   1.010   4.424  0.9402 -0.1032 -0.2746
23960WAT     H297646  -0.595   0.972   4.569 -0.1070 -0.6556 -0.5283
23960WAT    EPW97647  -0.550   1.013   4.506  0.1779 -0.1404 -0.0076
23961WAT      O97648   6.912   9.223   0.646 -0.1319  0.2174 -0.0687
23961WAT     H197649   6.975   9.151   0.643 -4.0868 -3.8186  1.4212
23961WAT     H297650   6.883   9.233   0.555  0.3171 -0.2184 -0.2664
23961WAT    EPW97651   6.916   9.215   0.633 -0.5944 -0.3724  0.1017
23962WAT      O97652  -3.151   1.784   6.307 -0.0084  0.2774  0.9361
23962WAT     H197653  -3.134   1.690   6.304  4.2878  0.8211  1.7512
23962WAT     H297654  -3.234   1.792   6.354 -1.0301 -3.0712 -0.0385
23962WAT    EPW97655  -3.160   1.773   6.313  0.4234 -0.0925  0.9151
23963WAT      O97656   1.414   9.382   5.854  0.0972  0.5766 -0.2575
23963WAT     H197657   1.352   9.308   5.857  0.1873  0.5439  1.9676
23963WAT     H297658   1.470   9.362   5.779 -1.2208 -0.4899 -1.0267
23963WAT    EPW97659   1.413   9.369   5.844 -0.0647  0.4311 -0.0656
23964WAT      O97660   0.064   4.108   4.961 -0.1170  0.2722  0.3509
23964WAT     H197661  -0.020   4.111   4.916 -0.6315 -0.0982  1.2593
23964WAT     H297662   0.129   4.118   4.891 -0.8983  0.1644 -0.4075
23964WAT    EPW97663   0.061   4.110   4.946 -0.2879  0.2091  0.3707
23965WAT      O97664   1.299   8.946   7.395 -0.1057 -0.0322 -0.1248
23965WAT     H197665   1.263   9.032   7.415  1.6712  1.4371 -2.5723
23965WAT     H297666   1.269   8.928   7.306  0.0839 -1.6369  0.1157
23965WAT    EPW97667   1.290   8.955   7.386  0.1537 -0.0501 -0.4160
23966WAT      O97668   9.285   1.664   1.512  0.2823  0.1115 -0.0692
23966WAT     H197669   9.374   1.631   1.515  0.1713 -0.1214  1.7532
23966WAT     H297670   9.231   1.585   1.498  0.2764  0.0626  0.2264
23966WAT    EPW97671   9.289   1.649   1.511  0.2675  0.0743  0.2102
23967WAT      O97672   7.071   1.691   3.578 -0.5954  0.2515 -1.0920
23967WAT     H197673   7.087   1.668   3.487  0.4372 -1.8234 -0.4520
23967WAT     H297674   7.149   1.738   3.606  0.5836 -1.9293 -0.4657
23967WAT    EPW97675   7.083   1.694   3.570 -0.3037 -0.3098 -0.9249
23968WAT      O97676   1.516   5.208   8.520  0.1826 -0.5610  0.0409
23968WAT     H197677   1.439   5.166   8.558 -1.4173 -0.6922 -2.9986
23968WAT     H297678   1.584   5.141   8.523 -1.0435 -1.9082 -0.7706
23968WAT    EPW97679   1.514   5.193   8.525 -0.1901 -0.7560 -0.4668
23969WAT      O97680  -4.571   5.467   8.931  0.9979 -0.6713  0.4475
23969WAT     H197681  -4.576   5.410   8.854 -0.4655 -1.1592  0.8740
23969WAT     H297682  -4.492   5.519   8.917  0.2662 -0.0281 -1.9015
23969WAT    EPW97683  -4.561   5.467   8.919  0.7083 -0.6509  0.1936
23970WAT      O97684  -2.232   1.909   5.159 -0.0625 -0.4896  0.0771
23970WAT     H197685  -2.138   1.897   5.144  0.1914 -0.5240  1.4806
23970WAT     H297686  -2.252   1.994   5.119  1.4783  1.4549  2.9920
23970WAT    EPW97687  -2.222   1.919   5.152  0.1743 -0.2377  0.6466
23971WAT      O97688  -0.436   1.964   0.075  0.0563  0.1833  0.0455
23971WAT     H197689  -0.438   2.056   0.049 -1.2127 -0.1871 -1.3465
23971WAT     H297690  -0.519   1.929   0.044  0.4876 -1.4238  0.6137
23971WAT    EPW97691  -0.447   1.971   0.067 -0.0542 -0.0775 -0.0631
23972WAT      O97692  -1.010   5.705   6.717  0.1520  0.0851 -0.1845
23972WAT     H197693  -0.957   5.772   6.761  0.6994 -0.8008  0.5322
23972WAT     H297694  -0.946   5.644   6.681 -0.2092  1.2446 -3.0839
23972WAT    EPW97695  -0.994   5.706   6.718  0.1765  0.1211 -0.4725
23973WAT      O97696  -1.627   3.558   5.673  0.4408  0.6538  0.4161
23973WAT     H197697  -1.539   3.579   5.704 -0.4272  1.9258  2.2437
23973WAT     H297698  -1.672   3.643   5.671 -0.9893 -0.0827  0.3850
23973WAT    EPW97699  -1.622   3.572   5.677  0.1377  0.7244  0.6530
23974WAT      O97700  -2.430   9.289   4.027  0.0478 -0.3129 -0.0258
23974WAT     H197701  -2.473   9.320   3.947 -0.0618 -0.2943  0.0405
23974WAT     H297702  -2.338   9.312   4.015 -0.3213  1.8396  0.8657
23974WAT    EPW97703  -2.424   9.296   4.015 -0.0155 -0.0262  0.1006
23975WAT      O97704   5.944   6.183   3.368 -0.2972  0.3245 -0.5802
23975WAT     H197705   5.943   6.100   3.321 -1.7349 -1.2375  2.0218
23975WAT     H297706   5.854   6.215   3.364 -0.4051  0.2752  0.8301
23975WAT    EPW97707   5.932   6.176   3.361 -0.5012  0.1121 -0.0510
23976WAT      O97708   8.615   2.546   1.671 -0.3715 -0.4598  0.8859
23976WAT     H197709   8.654   2.463   1.698  0.0155 -0.5310  0.1304
23976WAT     H297710   8.688   2.598   1.639 -0.6118  0.1847  1.3746
23976WAT    EPW97711   8.630   2.542   1.670 -0.3524 -0.3842  0.8508
23977WAT      O97712   0.782   6.585   5.978  0.5775 -0.3244 -0.1991
23977WAT     H197713   0.694   6.561   6.007 -0.6711  1.0851 -2.4891
23977WAT     H297714   0.769   6.666   5.927  3.0372 -0.6481 -1.4886
23977WAT    EPW97715   0.768   6.593   5.975  0.7372 -0.1814 -0.6714
23978WAT      O97716  -2.881   6.262   4.810  0.0399 -0.2971  0.0803
23978WAT     H197717  -2.818   6.260   4.738  0.9194 -1.4666  0.8517
23978WAT     H297718  -2.841   6.319   4.876  0.7507 -1.7472  0.9451
23978WAT    EPW97719  -2.868   6.269   4.809  0.2497 -0.6425  0.2961
23979WAT      O97720   3.690   6.137   5.571 -0.5704 -0.4830 -0.1799
23979WAT     H197721   3.711   6.045   5.556  1.0079 -0.0736 -0.7626
23979WAT     H297722   3.619   6.136   5.636  1.9222 -2.1083  2.8291
23979WAT    EPW97723   3.684   6.125   5.578 -0.0335 -0.6435  0.1400
23980WAT      O97724  -4.045   3.146   5.917  0.1147  0.5789  0.5536
23980WAT     H197725  -4.035   3.210   5.846  1.8191  2.8345  2.6899
23980WAT     H297726  -4.045   3.198   5.997 -5.5073 -1.4013  2.3102
23980WAT    EPW97727  -4.044   3.162   5.918 -0.4020  0.6152  1.0672
23981WAT      O97728  -2.642   7.952   8.252  0.5922 -0.3976  0.1430
23981WAT     H197729  -2.595   7.875   8.220 -0.3397 -1.7602  1.8234
23981WAT     H297730  -2.587   7.988   8.321  1.4018  0.9889 -1.1632
23981WAT    EPW97731  -2.629   7.947   8.257  0.5761 -0.3943  0.1926
23982WAT      O97732   4.752   1.450   1.993 -0.2708  0.6647 -0.3171
23982WAT     H197733   4.707   1.534   2.009 -0.4782  0.2320  1.6785
23982WAT     H297734   4.819   1.446   2.062  1.6160  0.4110 -2.0820
23982WAT    EPW97735   4.755   1.461   2.004 -0.0494  0.5741 -0.2868
23983WAT      O97736  -3.789   6.684   2.828  0.1364  0.6260 -0.0854
23983WAT     H197737  -3.702   6.695   2.788  1.5364 -4.4882  0.8570
23983WAT     H297738  -3.781   6.724   2.914  1.1854  1.1555 -0.4140
23983WAT    EPW97739  -3.776   6.691   2.834  0.4594  0.0212 -0.0044
23984WAT      O97740   0.214   1.100   4.349 -1.1927  1.0758 -0.0084
23984WAT     H197741   0.237   1.193   4.356  1.3999  0.3798  2.5804
23984WAT     H297742   0.185   1.076   4.437  2.5021 -1.4724  0.7209
23984WAT    EPW97743   0.213   1.109   4.361 -0.3634  0.6479  0.4294
23985WAT      O97744   2.480   6.277   5.736 -0.3112  0.0934 -0.4532
23985WAT     H197745   2.548   6.321   5.686  0.8187 -0.5374  0.4810
23985WAT     H297746   2.506   6.288   5.827 -0.6169 -1.4605 -0.1427
23985WAT    EPW97747   2.492   6.284   5.741 -0.2024 -0.1948 -0.2892
23986WAT      O97748   6.095   9.926   0.401 -0.2431  0.2183  0.0510
23986WAT     H197749   6.095   9.953   0.492  0.6720  0.8028 -0.1083
23986WAT     H297750   6.186   9.904   0.382 -0.8416 -2.6529  0.0414
23986WAT    EPW97751   6.107   9.926   0.410 -0.2015 -0.0830  0.0288
23987WAT      O97752   3.866   8.408   1.526 -0.1904 -0.2355 -0.7883
23987WAT     H197753   3.793   8.418   1.587  0.6637 -0.2279  0.2737
23987WAT     H297754   3.933   8.467   1.560 -0.7003  2.1029 -3.4540
23987WAT    EPW97755   3.865   8.417   1.539 -0.1451  0.0739 -0.9998
23988WAT      O97756   0.650   8.828   6.556  0.3189  0.3364  1.0319
23988WAT     H197757   0.657   8.919   6.587 -1.9906  1.2020 -0.6949
23988WAT     H297758   0.687   8.830   6.468 -0.0037 -0.3156  0.8788
23988WAT    EPW97759   0.656   8.841   6.549 -0.0283  0.3648  0.7839
23989WAT      O97760   2.903   2.705   5.320  0.3259  0.3124 -0.2431
23989WAT     H197761   2.964   2.777   5.335  1.0028 -0.4559  0.7831
23989WAT     H297762   2.958   2.633   5.290  0.0089 -0.5208  1.0972
23989WAT    EPW97763   2.918   2.705   5.318  0.3735  0.1012  0.0689
23990WAT      O97764  -3.306   8.213   1.159 -0.1659 -0.4746  0.3549
23990WAT     H197765  -3.332   8.191   1.070 -0.8877  1.6707 -0.0266
23990WAT     H297766  -3.389   8.216   1.207 -0.1143  1.2571  0.3785
23990WAT    EPW97767  -3.321   8.210   1.154 -0.2543  0.0362  0.3076
23991WAT      O97768   7.007   0.183   3.623 -0.0217  0.0578  0.7738
23991WAT     H197769   7.070   0.112   3.616  1.8863  1.5258  2.0780
23991WAT     H297770   6.921   0.140   3.613  1.0874 -1.7308 -3.2621
23991WAT    EPW97771   7.004   0.168   3.621  0.3762  0.0155  0.4135
23992WAT      O97772   1.775   0.448   0.482  0.5119  0.1952  0.0363
23992WAT     H197773   1.825   0.451   0.400  1.1902 -0.5989  0.4087
23992WAT     H297774   1.691   0.409   0.457  1.2873 -1.4942 -0.0129
23992WAT    EPW97775   1.771   0.443   0.468  0.7036 -0.1324  0.0789
23993WAT      O97776  -2.235   4.290   1.677  1.0145 -0.8377 -0.3606
23993WAT     H197777  -2.218   4.384   1.677 -1.1843 -0.3196  2.2334
23993WAT     H297778  -2.203   4.260   1.763  0.5050 -2.1881 -0.6162
23993WAT    EPW97779  -2.228   4.298   1.689  0.6573 -0.9475 -0.0522
23994WAT      O97780  -5.007   1.988   7.719 -0.7351 -0.0813  0.0124
23994WAT     H197781  -5.014   2.069   7.770  2.6058  0.0378  0.5163
23994WAT     H297782  -5.006   2.018   7.628 -0.6077  0.3409  0.1491
23994WAT    EPW97783  -5.008   2.003   7.713 -0.2778 -0.0099  0.0968
23995WAT      O97784   6.419   1.955   2.405  0.3416 -0.1268  0.1210
23995WAT     H197785   6.411   1.901   2.483  3.2641 -0.2957  0.4385
23995WAT     H297786   6.403   1.895   2.332 -1.4613 -0.1804  0.5322
23995WAT    EPW97787   6.416   1.940   2.405  0.4892 -0.1562  0.2172
23996WAT      O97788  -0.327   1.329   2.346 -0.1316  0.2478  0.0585
23996WAT     H197789  -0.372   1.311   2.429 -0.6020 -1.1421 -0.4680
23996WAT     H297790  -0.372   1.406   2.311 -0.3658  0.4458  0.7810
23996WAT    EPW97791  -0.339   1.337   2.352 -0.2245  0.0906  0.0844
23997WAT      O97792  -0.039   6.998   4.701 -0.6941  0.0097 -1.1229
23997WAT     H197793   0.049   6.979   4.734  0.0194  0.7145 -2.5320
23997WAT     H297794  -0.068   7.073   4.753 -1.4024 -1.5496  0.8558
23997WAT    EPW97795  -0.031   7.005   4.712 -0.6934 -0.1030 -1.0476
23998WAT      O97796   3.829   3.732   8.249  0.2997 -0.3654  0.2663
23998WAT     H197797   3.744   3.746   8.207 -0.0453  1.2172  1.3944
23998WAT     H297798   3.892   3.743   8.178 -0.3509  0.2764 -0.2293
23998WAT    EPW97799   3.826   3.735   8.234  0.1683 -0.0720  0.3500
23999WAT      O97800   1.272   5.953   0.694  0.4766  0.1666  0.0204
23999WAT     H197801   1.210   6.025   0.684  0.8687  0.7112  1.3242
23999WAT     H297802   1.230   5.878   0.651 -0.5480  0.8160 -0.1274
23999WAT    EPW97803   1.259   5.952   0.687  0.3932  0.3242  0.1729
24000WAT      O97804  -4.209   8.671   2.961  0.3150 -0.1422  0.2257
24000WAT     H197805  -4.130   8.720   2.985  1.4274 -2.0750  0.7210
24000WAT     H297806  -4.207   8.668   2.865  0.7449 -0.0458  0.2307
24000WAT    EPW97807  -4.198   8.677   2.951  0.5183 -0.3848  0.2917
24001WAT      O97808   3.713   0.142   0.659 -0.1792 -0.2904 -0.6364
24001WAT     H197809   3.710   0.231   0.694  0.0387 -0.8438  0.8615
24001WAT     H297810   3.794   0.139   0.608 -0.9394  0.7945 -1.9682
24001WAT    EPW97811   3.723   0.153   0.657 -0.2507 -0.2203 -0.6145
24002WAT      O97812  -4.769   8.464   6.732 -0.3404 -0.1788 -0.5083
24002WAT     H197813  -4.759   8.389   6.790  1.5306  1.3441  1.2817
24002WAT     H297814  -4.690   8.464   6.679  0.2552  1.1369  0.3269
24002WAT    EPW97815  -4.758   8.454   6.733 -0.0150  0.1955 -0.1619
24003WAT      O97816   5.851   8.150   2.894 -0.1128 -0.1159  0.3539
24003WAT     H197817   5.932   8.166   2.942  0.2415  0.9823 -0.5577
24003WAT     H297818   5.829   8.234   2.854 -1.0118 -0.6993 -0.4529
24003WAT    EPW97819   5.859   8.163   2.895 -0.1845 -0.0477  0.1272
24004WAT      O97820  -1.110  10.162   6.700  0.0575  0.4332  0.1093
24004WAT     H197821  -1.104  10.068   6.687 -2.0209  0.2412  0.2459
24004WAT     H297822  -1.039  10.183   6.761  1.2231 -0.8277 -0.7444
24004WAT    EPW97823  -1.100  10.153   6.706 -0.0629  0.2418  0.0148
24005WAT      O97824  -2.175   0.118   7.518  0.3190 -0.0713  0.2638
24005WAT     H197825  -2.214   0.104   7.605  1.3093  1.2050  0.9599
24005WAT     H297826  -2.241   0.166   7.470 -0.5792 -1.5204 -0.0068
24005WAT    EPW97827  -2.189   0.123   7.523  0.3312 -0.0941  0.3200
24006WAT      O97828  -0.419   2.860   5.914 -0.5917  0.8010  0.2543
24006WAT     H197829  -0.349   2.858   5.979 -1.8722  1.9989  1.7510
24006WAT     H297830  -0.432   2.768   5.891  1.4248  0.5521 -0.0506
24006WAT    EPW97831  -0.412   2.848   5.920 -0.4946  0.9261  0.4113
24007WAT      O97832   4.136   4.811   2.769 -0.4922  0.4707 -0.7129
24007WAT     H197833   4.181   4.727   2.758 -1.8896 -0.3931 -0.0804
24007WAT     H297834   4.100   4.808   2.857 -1.0448  1.5054 -0.8894
24007WAT    EPW97835   4.137   4.800   2.779 -0.7496  0.4933 -0.6529
24008WAT      O97836   2.910   4.002   0.548 -0.1609 -0.3332  0.6152
24008WAT     H197837   2.915   3.910   0.574  2.1693 -0.1883  0.8750
24008WAT     H297838   2.930   4.001   0.455  1.8956  0.0253  1.0040
24008WAT    EPW97839   2.913   3.989   0.539  0.4177 -0.2667  0.7007
24009WAT      O97840   1.051  10.095   5.661  0.0934 -0.4021  0.0255
24009WAT     H197841   0.983  10.159   5.678 -2.7537 -2.3281 -2.9448
24009WAT     H297842   1.034  10.025   5.725  0.2653 -0.2367  0.2557
24009WAT    EPW97843   1.040  10.094   5.672 -0.2595 -0.6337 -0.3359
24010WAT      O97844   2.458   6.855   3.955 -0.5974 -0.4162  0.3591
24010WAT     H197845   2.380   6.877   3.905 -1.3385 -1.6957  0.8728
24010WAT     H297846   2.479   6.934   4.004 -1.1582  0.1657 -0.3293
24010WAT    EPW97847   2.450   6.868   3.955 -0.7691 -0.5083  0.3362
24011WAT      O97848   2.101   5.909   8.826  0.0901  0.1513 -0.0643
24011WAT     H197849   2.091   5.872   8.738  0.4513 -1.0062  0.3728
24011WAT     H297850   2.194   5.904   8.844  0.1492  1.2909  0.0173
24011WAT    EPW97851   2.112   5.903   8.817  0.1456  0.1490  0.0043
24012WAT      O97852   2.011   6.884   3.161  0.1897  0.3732 -0.3551
24012WAT     H197853   2.056   6.831   3.227  0.7400  1.4309  0.1566
24012WAT     H297854   2.060   6.966   3.160 -0.7013  0.9128 -1.0433
24012WAT    EPW97855   2.024   6.888   3.170  0.1447  0.5841 -0.3784
24013WAT      O97856   2.210   4.575   8.347 -1.0019  0.2092 -0.4386
24013WAT     H197857   2.227   4.491   8.389 -0.0807  1.1270  1.1219
24013WAT     H297858   2.114   4.582   8.345 -1.1003  0.1788  1.7091
24013WAT    EPW97859   2.200   4.565   8.352 -0.8932  0.3264  0.0505
24014WAT      O97860   1.935   6.718   6.088 -0.1692 -0.5318 -0.4492
24014WAT     H197861   1.980   6.799   6.110 -0.6032 -0.0777 -1.1769
24014WAT     H297862   2.004   6.651   6.086  0.3059 -0.0437 -0.5528
24014WAT    EPW97863   1.950   6.720   6.090 -0.1638 -0.4075 -0.5589
24015WAT      O97864  -1.431   6.242   1.507 -0.0441  0.4315 -0.3596
24015WAT     H197865  -1.381   6.321   1.527  0.5628 -0.5727  2.6103
24015WAT     H297866  -1.397   6.176   1.568 -1.0778 -1.9221 -2.1668
24015WAT    EPW97867  -1.420   6.244   1.518 -0.1004 -0.0114 -0.2062
24016WAT      O97868   0.743   3.564   1.468 -0.1566  0.5498  0.4942
24016WAT     H197869   0.718   3.491   1.412 -0.3511  1.0532 -0.0979
24016WAT     H297870   0.671   3.572   1.531  0.0559 -0.0101  0.8100
24016WAT    EPW97871   0.730   3.556   1.469 -0.1542  0.5423  0.4578
24017WAT      O97872   2.158   2.275   2.539  0.4214 -0.3673  0.0766
24017WAT     H197873   2.068   2.263   2.569  0.7349  0.7648  1.6214
24017WAT     H297874   2.187   2.187   2.515 -1.9808 -0.3964 -3.3647
24017WAT    EPW97875   2.150   2.262   2.540  0.1459 -0.2218 -0.1736
24018WAT      O97876  -1.553   4.279   1.236  0.4314 -0.5364 -1.1198
24018WAT     H197877  -1.535   4.200   1.286 -0.3173 -0.0652 -0.0780
24018WAT     H297878  -1.529   4.351   1.295 -1.8665  0.0667 -0.8207
24018WAT    EPW97879  -1.547   4.278   1.250  0.0296 -0.3946 -0.9429
24019WAT      O97880  -2.348   4.933   8.823  0.2008 -0.1403 -0.4840
24019WAT     H197881  -2.368   4.881   8.901  1.3859  1.8641  1.2696
24019WAT     H297882  -2.274   4.888   8.783 -0.5399 -1.2966 -0.6141
24019WAT    EPW97883  -2.341   4.921   8.828  0.2594 -0.0286 -0.2699
24020WAT      O97884   6.680   1.845   1.272  0.0637 -0.3250  0.7451
24020WAT     H197885   6.682   1.844   1.176 -1.9646 -2.4652  0.6273
24020WAT     H297886   6.761   1.888   1.297  1.0314 -0.3847 -1.9380
24020WAT    EPW97887   6.691   1.850   1.263 -0.0761 -0.6152  0.3757
24021WAT      O97888   5.531   6.328   1.955  0.0313  0.0110  0.0754
24021WAT     H197889   5.483   6.258   1.999  1.2786 -1.1811 -0.3892
24021WAT     H297890   5.510   6.407   2.006 -2.6650 -0.3508 -0.3423
24021WAT    EPW97891   5.522   6.329   1.968 -0.1600 -0.1941 -0.0410
24022WAT      O97892   0.381   5.856   8.904 -0.0644  0.0892 -0.2195
24022WAT     H197893   0.359   5.831   8.994  0.8858  1.6605  0.4961
24022WAT     H297894   0.446   5.925   8.914  1.3227 -0.8519 -2.1674
24022WAT    EPW97895   0.386   5.862   8.917  0.2439  0.1724 -0.3819
24023WAT      O97896   2.671   1.188   1.748  0.1889  0.4188 -0.1477
24023WAT     H197897   2.581   1.157   1.733 -0.4885  1.4625  1.4738
24023WAT     H297898   2.725   1.110   1.742 -0.7116 -0.1278 -1.8678
24023WAT    EPW97899   2.666   1.174   1.745 -0.0193  0.4843 -0.1607
24024WAT      O97900   3.096   7.916   3.741 -0.1922  0.4859 -0.0983
24024WAT     H197901   3.013   7.876   3.767 -1.4936  2.1934 -1.3767
24024WAT     H297902   3.128   7.956   3.822 -3.0093  3.7185 -0.3326
24024WAT    EPW97903   3.089   7.916   3.755 -0.7354  1.1373 -0.2978
24025WAT      O97904   4.054   9.740   2.106 -0.5111  0.1926  0.4867
24025WAT     H197905   4.088   9.664   2.155 -0.2193  1.5026  2.4680
24025WAT     H297906   4.108   9.813   2.137 -0.6593  1.1956 -1.5029
24025WAT    EPW97907   4.066   9.740   2.117 -0.4921  0.4978  0.4855
24026WAT      O97908   2.143   7.868   5.623 -0.2142 -1.1347  0.6439
24026WAT     H197909   2.234   7.858   5.652  1.3386  2.6020 -2.0625
24026WAT     H297910   2.100   7.911   5.697  0.9270 -0.7791  1.1391
24026WAT    EPW97911   2.150   7.873   5.637  0.1410 -0.5951  0.3524
24027WAT      O97912   2.865   9.519   3.856 -1.0088  0.2666 -0.4666
24027WAT     H197913   2.913   9.602   3.862 -0.9717  0.2260 -0.1958
24027WAT     H297914   2.784   9.534   3.905 -0.5161 -0.1973  0.5170
24027WAT    EPW97915   2.861   9.532   3.863 -0.9389  0.2003 -0.3011
24028WAT      O97916   0.134   0.432   8.322 -0.0091  0.1926 -0.1376
24028WAT     H197917   0.083   0.504   8.284  1.0743  0.9023 -0.2976
24028WAT     H297918   0.123   0.443   8.417 -1.3767 -0.5946 -0.1721
24028WAT    EPW97919   0.126   0.443   8.330 -0.0466  0.1824 -0.1631
24029WAT      O97920  -6.103   6.247   8.849 -0.9006 -0.2376 -0.1725
24029WAT     H197921  -6.048   6.324   8.861 -1.5851 -0.0567  2.3684
24029WAT     H297922  -6.073   6.185   8.915 -1.0352 -1.7757 -1.5039
24029WAT    EPW97923  -6.092   6.249   8.859 -1.0087 -0.4168 -0.0124
24030WAT      O97924  -0.377  10.061   0.274  0.0280  0.4967 -0.2814
24030WAT     H197925  -0.312  10.129   0.289  1.2325 -0.7553  0.3607
24030WAT     H297926  -0.449  10.106   0.230  0.2098  2.4555  1.2994
24030WAT    EPW97927  -0.378  10.076   0.271  0.2108  0.5898  0.0117
24031WAT      O97928   4.447   3.289   7.569  0.2410  0.3180  0.0476
24031WAT     H197929   4.477   3.232   7.640  0.9404 -0.0413 -0.5231
24031WAT     H297930   4.355   3.264   7.555  0.3381 -0.1741  0.2781
24031WAT    EPW97931   4.438   3.278   7.576  0.3462  0.2058  0.0026
24032WAT      O97932   3.374   9.735   6.467  0.3827  0.0737  0.4376
24032WAT     H197933   3.441   9.795   6.434 -2.3959  2.9890 -0.5026
24032WAT     H297934   3.342   9.690   6.389 -1.1689  1.4473  0.2421
24032WAT    EPW97935   3.379   9.737   6.453 -0.1885  0.6394  0.2880
24033WAT      O97936  -2.567   7.647   7.524 -0.0520  0.0565 -0.0185
24033WAT     H197937  -2.595   7.591   7.597  0.2313 -0.3802 -0.2364
24033WAT     H297938  -2.490   7.694   7.557  1.7349 -2.0776 -0.8178
24033WAT    EPW97939  -2.560   7.645   7.538  0.2210 -0.2825 -0.1528
24034WAT      O97940   1.181   7.287   2.538  0.2975 -0.6384 -0.0318
24034WAT     H197941   1.106   7.230   2.521  0.0225 -0.3448  0.1923
24034WAT     H297942   1.143   7.370   2.565  0.6868 -0.2031 -0.7784
24034WAT    EPW97943   1.166   7.290   2.539  0.3126 -0.5424 -0.1007
24035WAT      O97944   7.990   4.808  -0.003 -0.0968  0.3124  0.7592
24035WAT     H197945   7.911   4.806   0.052 -0.4703 -1.1028  0.2179
24035WAT     H297946   8.062   4.793   0.058 -0.4545 -0.6638  0.9598
24035WAT    EPW97947   7.989   4.806   0.012 -0.1931 -0.0031  0.7143
24036WAT      O97948  -1.807   0.017   7.517  0.2881  0.2666 -0.2442
24036WAT     H197949  -1.726  -0.030   7.537  1.2889  1.8341 -0.4138
24036WAT     H297950  -1.805   0.093   7.574 -1.3907  0.0266  0.1772
24036WAT    EPW97951  -1.796   0.021   7.527  0.1987  0.4416 -0.2110
24037WAT      O97952   2.788   0.084   4.133  0.0088 -0.0773  0.0943
24037WAT     H197953   2.796  -0.011   4.122  2.9816  0.0583  0.0895
24037WAT     H297954   2.700   0.098   4.168 -1.6916 -2.5159 -2.7884
24037WAT    EPW97955   2.778   0.074   4.136  0.1767 -0.3810 -0.2866
24038WAT      O97956   8.499   6.124   0.195  0.0180 -0.0098  0.2321
24038WAT     H197957   8.418   6.170   0.174  0.6854  0.5092 -1.3754
24038WAT     H297958   8.505   6.054   0.130 -0.1390 -1.3676  1.6113
24038WAT    EPW97959   8.489   6.121   0.183  0.0849 -0.1204  0.2019
24039WAT      O97960   0.560   1.203   2.876 -0.5865  0.2894  0.1832
24039WAT     H197961   0.584   1.112   2.855 -0.4695  0.2577  0.4519
24039WAT     H297962   0.531   1.240   2.792 -1.6306 -0.3060  0.2666
24039WAT    EPW97963   0.559   1.196   2.862 -0.7088  0.2066  0.2296
24040WAT      O97964   1.625   3.085   5.098  0.0162 -0.2403 -0.2076
24040WAT     H197965   1.637   3.014   5.034  0.5542 -2.5379  2.2398
24040WAT     H297966   1.530   3.101   5.098 -0.7042 -3.4522  1.4301
24040WAT    EPW97967   1.614   3.077   5.090 -0.0079 -0.9669  0.3312
24041WAT      O97968  -3.603  10.039   7.236  0.3971 -0.4746  0.8211
24041WAT     H197969  -3.681   9.986   7.248 -0.6827  0.9586  0.3659
24041WAT     H297970  -3.545  10.012   7.308 -1.4699  0.1050  2.6682
24041WAT    EPW97971  -3.605  10.028   7.247  0.0083 -0.2089  1.0047
24042WAT      O97972   5.599   6.545   4.019 -0.8853  0.1222 -0.6443
24042WAT     H197973   5.653   6.583   3.950 -0.6765 -0.9974 -1.1305
24042WAT     H297974   5.663   6.513   4.084 -1.0437  0.4129 -0.3436
24042WAT    EPW97975   5.615   6.546   4.018 -0.8786  0.0131 -0.6688
24043WAT      O97976   2.422   9.058   2.733 -0.0259 -0.5649  0.0232
24043WAT     H197977   2.487   9.122   2.764 -0.9908 -0.0071  0.9453
24043WAT     H297978   2.438   9.052   2.639  0.0068  1.1475 -0.1153
24043WAT    EPW97979   2.433   9.065   2.725 -0.1489 -0.2656  0.1266
24044WAT      O97980   3.589   1.455   5.314  0.0879 -0.3370  0.5135
24044WAT     H197981   3.636   1.381   5.275 -0.1558 -1.2727  1.9330
24044WAT     H297982   3.631   1.532   5.276  0.8141 -1.1838 -0.4674
24044WAT    EPW97983   3.601   1.456   5.304  0.1515 -0.5721  0.5713
24045WAT      O97984   7.526   2.741   1.896  0.0831  0.1005  0.4545
24045WAT     H197985   7.458   2.713   1.835  1.6318 -1.0427 -0.8605
24045WAT     H297986   7.526   2.837   1.889 -0.6194  0.0535 -0.4077
24045WAT    EPW97987   7.517   2.750   1.887  0.1945 -0.0565  0.1673
24046WAT      O97988  -3.538   9.026   8.422  0.0448  0.5891 -0.1118
24046WAT     H197989  -3.472   9.018   8.491 -1.4193  0.7749  1.3919
24046WAT     H297990  -3.620   9.000   8.465 -0.9321  0.7658 -1.7901
24046WAT    EPW97991  -3.540   9.021   8.437 -0.2772  0.6371 -0.1349
24047WAT      O97992   2.810   1.399   5.090  0.5455  0.1074 -0.4630
24047WAT     H197993   2.866   1.322   5.099 -2.8980 -2.4570  2.0670
24047WAT     H297994   2.734   1.367   5.040 -1.8259  1.1401  2.2061
24047WAT    EPW97995   2.807   1.384   5.085 -0.2215 -0.0946  0.2227
24048WAT      O97996  -1.444   9.604   0.667 -0.5380  0.2618 -0.4270
24048WAT     H197997  -1.533   9.568   0.667  0.7703 -3.3503 -0.4662
24048WAT     H297998  -1.419   9.604   0.574 -0.0115 -0.1057 -0.2847
24048WAT    EPW97999  -1.453   9.599   0.655 -0.2960 -0.2632 -0.4134
24049WAT      O98000   1.929   2.630   5.425  1.3288  0.4121  0.3142
24049WAT     H198001   1.987   2.583   5.365  1.5007  0.6968  0.2560
24049WAT     H298002   1.953   2.598   5.511  2.3974  1.3981  0.3985
24049WAT    EPW98003   1.939   2.619   5.428  1.4924  0.5797  0.3176
24050WAT      O98004   5.281   8.077   1.628 -0.1592  0.5747  0.1450
24050WAT     H198005   5.319   8.140   1.567  1.2480  0.4338  0.8119
24050WAT     H298006   5.196   8.113   1.651 -0.6117  0.7332 -1.7024
24050WAT    EPW98007   5.275   8.090   1.623 -0.0331  0.5770 -0.0107
24051WAT      O98008  -0.494   8.906   2.900 -0.5056 -0.8575 -0.3202
24051WAT     H198009  -0.586   8.896   2.922 -0.5280 -0.1963 -0.0840
24051WAT     H298010  -0.453   8.939   2.980 -0.3216  0.1570 -0.8076
24051WAT    EPW98011  -0.501   8.909   2.913 -0.4843 -0.6361 -0.3532
24052WAT      O98012   5.184   2.717   0.163 -0.8143 -0.2337 -0.0282
24052WAT     H198013   5.118   2.658   0.200 -0.6302 -0.0723  0.5678
24052WAT     H298014   5.215   2.672   0.084 -2.3979  0.1757 -0.9289
24052WAT    EPW98015   5.179   2.703   0.157 -0.9990 -0.1584 -0.0684
24053WAT      O98016  -1.836   0.493   4.663 -0.2863 -0.6659 -0.2733
24053WAT     H198017  -1.804   0.463   4.748 -0.7923 -0.0224  0.1621
24053WAT     H298018  -1.764   0.545   4.628 -0.2616 -0.5161 -0.0066
24053WAT    EPW98019  -1.822   0.496   4.670 -0.3498 -0.5613 -0.1805
24054WAT      O98020  -7.488   6.715   8.859 -0.0796 -0.1383  0.0219
24054WAT     H198021  -7.436   6.785   8.819 -0.3447 -1.0069 -1.9625
24054WAT     H298022  -7.424   6.666   8.911  0.1109  1.5061  1.4404
24054WAT    EPW98023  -7.473   6.718   8.861 -0.0894 -0.0360 -0.0525
24055WAT      O98024   3.049   9.059   1.311 -0.5483 -0.5688  0.7714
24055WAT     H198025   3.074   8.970   1.333  0.4126  0.3020  3.6409
24055WAT     H298026   3.077   9.111   1.386  0.1048  2.3755 -1.3344
24055WAT    EPW98027   3.056   9.054   1.323 -0.3355 -0.0653  0.8721
24056WAT      O98028  -3.392   8.947   5.225  0.3226  0.0527  0.1658
24056WAT     H198029  -3.330   9.021   5.220 -1.6761  2.0370  2.3247
24056WAT     H298030  -3.471   8.980   5.183 -0.7235 -0.7267  1.4609
24056WAT    EPW98031  -3.394   8.961   5.219 -0.0790  0.2117  0.6213
24057WAT      O98032   2.401   7.896   1.137  0.2336 -0.1698 -0.2117
24057WAT     H198033   2.450   7.974   1.162  0.2854 -0.4822  0.6856
24057WAT     H298034   2.392   7.845   1.218 -1.6107 -0.1133 -0.3312
24057WAT    EPW98035   2.406   7.899   1.151 -0.0029 -0.2036 -0.1091
24058WAT      O98036   4.675   9.968   2.499 -0.4757  0.7941  0.5495
24058WAT     H198037   4.634   9.899   2.550 -1.4441  0.2922 -0.8401
24058WAT     H298038   4.745   9.924   2.451 -1.5560  0.5690 -0.8971
24058WAT    EPW98039   4.679   9.953   2.499 -0.7463  0.6981  0.1755
24059WAT      O98040   2.945   7.084   8.515 -0.3401 -0.2492  0.0763
24059WAT     H198041   2.854   7.073   8.488 -0.2317 -0.2198 -0.3037
24059WAT     H298042   2.940   7.126   8.601 -0.7458 -1.9072  0.9086
24059WAT    EPW98043   2.933   7.088   8.523 -0.3793 -0.4640  0.1359
24060WAT      O98044   2.810   4.917   1.066 -0.0892 -0.7263 -0.4417
24060WAT     H198045   2.785   4.986   1.128 -1.7783 -0.4407 -1.3702
24060WAT     H298046   2.736   4.856   1.068 -0.4494 -0.4278 -2.5317
24060WAT    EPW98047   2.797   4.918   1.075 -0.3595 -0.6492 -0.8398
24061WAT      O98048  -2.856   7.978   5.776 -0.2429  0.2266 -0.2334
24061WAT     H198049  -2.919   8.019   5.835 -0.3623  0.6877 -0.6701
24061WAT     H298050  -2.843   7.890   5.812 -0.6452  0.3489  0.2237
24061WAT    EPW98051  -2.863   7.972   5.788 -0.3117  0.3037 -0.2308
24062WAT      O98052   2.889   7.171   3.763  0.0855 -0.4679 -0.0279
24062WAT     H198053   2.831   7.096   3.751 -0.3516 -0.1924  0.3270
24062WAT     H298054   2.977   7.133   3.767 -0.0338 -0.8594 -0.9056
24062WAT    EPW98055   2.893   7.156   3.762  0.0122 -0.4830 -0.0968
24063WAT      O98056   2.612   6.137   8.463 -0.1509  0.3958 -0.0326
24063WAT     H198057   2.561   6.187   8.400  0.7269 -1.5644 -2.4801
24063WAT     H298058   2.683   6.099   8.412  0.1154 -2.0628  1.9496
24063WAT    EPW98059   2.615   6.138   8.448  0.0000 -0.1869 -0.0939
24064WAT      O98060   2.544   3.670   2.131  0.5081 -0.2848 -0.2493
24064WAT     H198061   2.461   3.633   2.162  0.5076 -0.4468 -0.4451
24064WAT     H298062   2.536   3.671   2.036  0.2368  0.8370 -0.2334
24064WAT    EPW98063   2.532   3.665   2.123  0.4722 -0.1582 -0.2730
24065WAT      O98064   1.899   0.318   3.807 -0.4535  0.2689  0.3706
24065WAT     H198065   1.932   0.231   3.828 -1.3029 -0.0377  0.4645
24065WAT     H298066   1.831   0.335   3.872 -1.8051  0.0972 -0.9335
24065WAT    EPW98067   1.895   0.309   3.818 -0.7438  0.2058  0.2110
24066WAT      O98068   1.287   4.237   8.892  0.0969  0.3163 -0.1217
24066WAT     H198069   1.270   4.310   8.951  0.2142 -0.0798  0.4086
24066WAT     H298070   1.201   4.201   8.872  0.0799  0.2641  0.0486
24066WAT    EPW98071   1.274   4.242   8.897  0.1101  0.2573 -0.0291
24067WAT      O98072   4.411   3.765   0.802 -0.4010  0.4629  0.1885
24067WAT     H198073   4.332   3.712   0.809 -1.2359  1.8016  1.6466
24067WAT     H298074   4.483   3.703   0.814 -1.3419 -0.3508  2.1854
24067WAT    EPW98075   4.410   3.750   0.805 -0.6354  0.5322  0.6441
24068WAT      O98076   1.925   4.438   8.783  0.1804 -0.2066 -0.1482
24068WAT     H198077   1.852   4.500   8.776 -0.2171 -0.4900  1.1818
24068WAT     H298078   1.990   4.483   8.835  1.1117  0.1452 -1.5554
24068WAT    EPW98079   1.924   4.452   8.789  0.2508 -0.1974 -0.1588
24069WAT      O98080   2.606   4.210   0.078 -0.0927 -0.5037  1.0952
24069WAT     H198081   2.543   4.246   0.014  0.7030  0.1347  0.6542
24069WAT     H298082   2.692   4.235   0.044  0.4026 -1.2098  1.7902
24069WAT    EPW98083   2.609   4.218   0.065  0.0775 -0.5121  1.1287
24070WAT      O98084  -1.199   4.318   0.887  0.1704  0.2993  0.0360
24070WAT     H198085  -1.166   4.231   0.908 -0.2920 -0.1790 -1.1286
24070WAT     H298086  -1.293   4.313   0.903  0.0450  0.3778 -0.6158
24070WAT    EPW98087  -1.207   4.306   0.892  0.0929  0.2463 -0.2036
24071WAT      O98088  -7.656   8.317   8.803 -0.3293  0.5686  0.0523
24071WAT     H198089  -7.676   8.405   8.770 -2.4255  1.3784  3.0598
24071WAT     H298090  -7.571   8.328   8.847  1.8131 -0.2135 -3.4439
24071WAT    EPW98091  -7.647   8.330   8.805 -0.3233  0.5727 -0.0124
24072WAT      O98092   1.762  10.315   6.158  0.1564  0.5319  0.3992
24072WAT     H198093   1.773  10.335   6.251 -0.9460  2.0936  0.2400
24072WAT     H298094   1.675  10.275   6.153 -1.1939  3.2689 -0.2468
24072WAT    EPW98095   1.752  10.313   6.170 -0.1671  1.0991  0.2928
24073WAT      O98096   1.328   1.580   4.972  0.2945  0.2689 -0.2650
24073WAT     H198097   1.250   1.602   5.023 -0.4201  0.6407 -1.4794
24073WAT     H298098   1.308   1.494   4.934 -0.6141  1.4243 -2.5734
24073WAT    EPW98099   1.315   1.571   4.974  0.0804  0.4703 -0.7296
24074WAT      O98100   2.907   2.221   2.807  0.2451  0.9269  0.9446
24074WAT     H198101   2.957   2.249   2.884  2.2568  0.7645 -0.2490
24074WAT     H298102   2.854   2.298   2.784 -0.4457  0.9629  2.4679
24074WAT    EPW98103   2.906   2.235   2.814  0.4193  0.9103  0.9881
24075WAT      O98104   5.902   0.935   6.987 -0.2134  0.0192  0.3237
24075WAT     H198105   5.967   0.912   7.052  0.2801 -0.1066 -0.2074
24075WAT     H298106   5.824   0.959   7.038 -0.2380 -1.2636  0.9276
24075WAT    EPW98107   5.900   0.935   7.002 -0.1514 -0.1666  0.3333
24076WAT      O98108   2.253   9.609   3.613 -0.4930 -0.3221 -0.2055
24076WAT     H198109   2.307   9.608   3.692 -0.0863  0.9266 -0.4449
24076WAT     H298110   2.313   9.637   3.544 -0.8794 -1.2599 -0.9401
24076WAT    EPW98111   2.268   9.613   3.614 -0.4903 -0.2813 -0.3339
24077WAT      O98112  -3.899   4.821   7.320  0.8424  0.1722  0.1525
24077WAT     H198113  -3.859   4.766   7.387  1.8228 -0.0588 -0.6011
24077WAT     H298114  -3.845   4.807   7.242 -1.0442 -0.6256 -1.0875
24077WAT    EPW98115  -3.887   4.812   7.319  0.7229  0.0365 -0.1104
24078WAT      O98116  -2.636   4.442   2.388  0.0436  0.1209 -0.0593
24078WAT     H198117  -2.564   4.380   2.399  1.3135  1.5743  0.1555
24078WAT     H298118  -2.690   4.430   2.466  1.0353  0.2284  0.6620
24078WAT    EPW98119  -2.634   4.433   2.400  0.3419  0.3269  0.0641
24079WAT      O98120   3.000   4.122   1.511  0.0459  0.1274 -0.3773
24079WAT     H198121   3.045   4.042   1.485  1.3439  1.3788 -2.3343
24079WAT     H298122   2.921   4.093   1.556  0.5238 -2.2159 -0.9385
24079WAT    EPW98123   2.996   4.108   1.514  0.2801 -0.0167 -0.7094
24080WAT      O98124   0.795   6.119   4.678 -0.1164 -0.0106 -0.4277
24080WAT     H198125   0.776   6.141   4.769  1.7982  0.1320 -0.0181
24080WAT     H298126   0.875   6.168   4.658  0.3105 -1.1748 -1.7199
24080WAT    EPW98127   0.803   6.128   4.688  0.1924 -0.1452 -0.5441
24081WAT      O98128   0.651  10.207   5.542  0.3828 -0.5944 -0.4240
24081WAT     H198129   0.560  10.208   5.571 -0.3706  0.0331 -2.6141
24081WAT     H298130   0.692  10.139   5.595 -1.8615 -2.3677 -0.7767
24081WAT    EPW98131   0.644  10.198   5.553 -0.0126 -0.7458 -0.7594
24082WAT      O98132   6.041   0.588   4.129  0.9901 -0.3634  0.0363
24082WAT     H198133   6.015   0.509   4.082 -0.5406 -0.8293  1.5894
24082WAT     H298134   5.962   0.642   4.129  1.8482  0.9474 -0.4904
24082WAT    EPW98135   6.027   0.585   4.123  0.9015 -0.2519  0.1717
24083WAT      O98136  -1.208   9.402   6.359 -0.4014  0.5654 -0.2709
24083WAT     H198137  -1.177   9.435   6.444 -1.4517  3.8411 -1.0060
24083WAT     H298138  -1.231   9.481   6.310 -0.6383 -1.2535 -3.3343
24083WAT    EPW98139  -1.207   9.417   6.364 -0.5713  0.7572 -0.7718
24084WAT      O98140   5.510   8.064   1.210 -0.7521  0.2486  0.0535
24084WAT     H198141   5.535   8.138   1.154  2.8239  0.8376  2.0682
24084WAT     H298142   5.475   8.106   1.289  3.0853  0.1629  2.0279
24084WAT    EPW98143   5.509   8.080   1.213  0.2258  0.3147  0.5797
24085WAT      O98144   5.973   0.124   7.046  0.2733  0.1896 -0.5930
24085WAT     H198145   6.041   0.121   7.113 -1.7496  1.8721  1.6573
24085WAT     H298146   5.960   0.032   7.021  3.2556 -0.1944 -1.1011
24085WAT    EPW98147   5.981   0.111   7.051  0.3998  0.3609 -0.3633
24086WAT      O98148  -2.714  10.050   6.541  0.7496 -0.7576  1.1937
24086WAT     H198149  -2.806  10.073   6.543 -0.0850 -3.3081 -1.2872
24086WAT     H298150  -2.686  10.067   6.451  2.6413 -0.3087  1.8195
24086WAT    EPW98151  -2.722  10.055   6.530  0.8891 -1.0347  0.9491
24087WAT      O98152   4.801   5.467   4.998 -0.2297  0.4744 -0.4119
24087WAT     H198153   4.755   5.409   4.936  1.1238 -0.5960 -0.4621
24087WAT     H298154   4.811   5.414   5.077 -2.5167  2.0433  1.0621
24087WAT    EPW98155   4.796   5.452   5.000 -0.3526  0.5403 -0.2241
24088WAT      O98156   8.948   1.131   2.083  0.2014 -0.4576  0.0665
24088WAT     H198157   8.898   1.204   2.045  0.9668 -0.1970 -0.4622
24088WAT     H298158   8.882   1.080   2.131 -0.1571  1.1991  1.4291
24088WAT    EPW98159   8.932   1.134   2.084  0.2551 -0.2047  0.1764
24089WAT      O98160   2.725   8.956   5.525 -0.3861 -0.5922  0.1794
24089WAT     H198161   2.755   9.045   5.505  0.8841 -1.1743 -0.5945
24089WAT     H298162   2.797   8.900   5.499  0.0663 -1.6897  3.3549
24089WAT    EPW98163   2.739   8.961   5.519 -0.1588 -0.8135  0.4961
24090WAT      O98164  -1.793   5.578   6.758  0.5616 -0.3703  0.0933
24090WAT     H198165  -1.804   5.612   6.669  0.8537 -0.9760 -0.1791
24090WAT     H298166  -1.842   5.640   6.813 -1.8442 -1.3899 -0.7518
24090WAT    EPW98167  -1.801   5.591   6.753  0.2828 -0.5846 -0.0544
24091WAT      O98168   1.030   2.496   3.246  0.5665  0.6463  0.3696
24091WAT     H198169   1.067   2.449   3.320  2.2882 -0.3013 -1.0258
24091WAT     H298170   1.032   2.434   3.174 -0.6476  1.6804 -0.6131
24091WAT    EPW98171   1.035   2.482   3.246  0.6335  0.6577  0.0559
24092WAT      O98172  -6.281   9.693   8.077 -0.9391 -0.2281 -0.0204
24092WAT     H198173  -6.267   9.738   8.161  1.9220 -1.8863  0.5472
24092WAT     H298174  -6.374   9.674   8.075 -1.1967  0.3982  2.5085
24092WAT    EPW98175  -6.291   9.697   8.088 -0.5956 -0.3643  0.3881
24093WAT      O98176  -0.038   6.155   0.177  0.3387  0.2881  0.3931
24093WAT     H198177   0.027   6.170   0.109  0.2931  0.0066  0.2842
24093WAT     H298178  -0.099   6.229   0.170 -1.1385 -1.0182 -1.5921
24093WAT    EPW98179  -0.038   6.167   0.167  0.1378  0.0787  0.1169
24094WAT      O98180   4.214   8.467   4.125  0.5026  0.3416  0.3671
24094WAT     H198181   4.197   8.376   4.100  1.3462  0.1418  0.4753
24094WAT     H298182   4.241   8.462   4.216  1.1010  0.6230  0.2172
24094WAT    EPW98183   4.216   8.454   4.133  0.6928  0.3519  0.3617
24095WAT      O98184   1.242   4.108   8.013  0.2302 -0.2531  0.1821
24095WAT     H198185   1.273   4.197   8.032  2.1183 -1.0160  0.9033
24095WAT     H298186   1.311   4.051   8.046  0.2061 -1.9294 -2.3531
24095WAT    EPW98187   1.255   4.112   8.020  0.4761 -0.5748 -0.0567
24096WAT      O98188  -4.724   7.544   4.091 -0.1868 -0.1736  0.1984
24096WAT     H198189  -4.716   7.451   4.071 -0.4083  0.1636 -1.7065
24096WAT     H298190  -4.652   7.562   4.152 -0.0338 -1.5508  0.4466
24096WAT    EPW98191  -4.713   7.534   4.096 -0.1960 -0.3109 -0.0203
24097WAT      O98192   0.782   8.356   1.931  1.0202 -0.3671 -0.4043
24097WAT     H198193   0.847   8.287   1.920  1.7534  0.4656 -1.6106
24097WAT     H298194   0.699   8.317   1.904  1.2157 -1.1135  0.0712
24097WAT    EPW98195   0.780   8.342   1.926  1.1427 -0.3557 -0.5007
24098WAT      O98196   4.778   1.577   8.287 -0.7672  0.5376  0.1454
24098WAT     H198197   4.866   1.582   8.325 -0.1282 -0.9684 -1.0131
24098WAT     H298198   4.772   1.655   8.232 -0.1153  0.6166  0.1691
24098WAT    EPW98199   4.789   1.588   8.284 -0.5968  0.3495 -0.0043
24099WAT      O98200  -0.269   3.268   1.098 -0.5046 -0.2447 -0.0958
24099WAT     H198201  -0.237   3.334   1.036 -1.6205  1.2225  0.8310
24099WAT     H298202  -0.355   3.243   1.063 -0.7754 -0.0212  0.4021
24099WAT    EPW98203  -0.276   3.273   1.085 -0.6875 -0.0216  0.0921
24100WAT      O98204   8.903   2.263   1.564  0.6119  0.0024 -0.3894
24100WAT     H198205   8.835   2.239   1.627  0.7395 -2.1464 -0.9910
24100WAT     H298206   8.856   2.308   1.494 -0.0040 -0.3400 -0.2069
24100WAT    EPW98207   8.888   2.266   1.563  0.5474 -0.3262 -0.4447
24101WAT      O98208   5.165   6.403   5.141 -0.0264 -0.3765  0.0782
24101WAT     H198209   5.165   6.400   5.237 -0.2060 -1.5601  0.0667
24101WAT     H298210   5.248   6.363   5.116  0.9225  1.7255 -0.2692
24101WAT    EPW98211   5.176   6.397   5.151  0.0749 -0.2553  0.0308
24102WAT      O98212   5.242   6.017   2.374  0.0488 -0.3993 -0.2948
24102WAT     H198213   5.233   5.958   2.448 -2.2487  0.3897  0.1288
24102WAT     H298214   5.271   6.100   2.413 -0.5781 -0.1536 -0.3400
24102WAT    EPW98215   5.245   6.020   2.389 -0.3369 -0.2630 -0.2449
24103WAT      O98216  -4.616   1.905   8.190 -0.6768 -0.0535 -0.1965
24103WAT     H198217  -4.603   1.870   8.278 -1.1394  1.3312  0.4510
24103WAT     H298218  -4.597   1.999   8.198 -0.5994  0.0808 -1.6086
24103WAT    EPW98219  -4.612   1.913   8.202 -0.7277  0.1469 -0.2971
24104WAT      O98220   5.331   4.211   6.758  1.0234 -0.2196  0.4769
24104WAT     H198221   5.270   4.176   6.692  0.9223  2.4736 -0.9838
24104WAT     H298222   5.416   4.210   6.714  0.6595  3.4245 -0.6414
24104WAT    EPW98223   5.334   4.206   6.743  0.9618  0.6161  0.1369
24105WAT      O98224  -3.450   8.034   4.102 -0.4378  0.0279 -0.0621
24105WAT     H198225  -3.431   8.122   4.135  3.8078 -1.0989  1.1496
24105WAT     H298226  -3.518   8.001   4.161  1.7302  0.7196  3.1436
24105WAT    EPW98227  -3.456   8.042   4.114  0.4081 -0.0296  0.5205
24106WAT      O98228   3.245   5.617   5.010 -0.6244 -0.4832  0.1571
24106WAT     H198229   3.212   5.671   5.082  2.1728 -0.2975  1.4298
24106WAT     H298230   3.215   5.528   5.031 -2.0608 -0.0402  0.0776
24106WAT    EPW98231   3.237   5.612   5.023 -0.4449 -0.4003  0.3145
24107WAT      O98232   2.543   0.948   6.791 -0.8658  0.2703  0.2545
24107WAT     H198233   2.595   0.869   6.810 -0.9239  0.3086  0.5863
24107WAT     H298234   2.541   0.953   6.696  1.7853  1.6166  0.1858
24107WAT    EPW98235   2.550   0.938   6.781 -0.5238  0.4529  0.2892
24108WAT      O98236  -6.513   9.111   7.352  0.2610 -0.2894 -0.7311
24108WAT     H198237  -6.459   9.188   7.371  0.7732 -0.3912 -1.7329
24108WAT     H298238  -6.579   9.143   7.290  1.4639 -0.9890 -2.4436
24108WAT    EPW98239  -6.514   9.125   7.346  0.4873 -0.3948 -1.0891
24109WAT      O98240   1.165   5.141   8.084  0.9799  0.2231  0.0853
24109WAT     H198241   1.194   5.227   8.114 -0.4074  0.2741  1.3687
24109WAT     H298242   1.174   5.084   8.160  0.5908 -0.4385 -0.3499
24109WAT    EPW98243   1.170   5.145   8.098  0.7456  0.1423  0.1969
24110WAT      O98244  -2.071   6.171   1.963  0.9517  0.2465  0.4732
24110WAT     H198245  -2.156   6.142   1.998  1.3541  0.1067  1.3518
24110WAT     H298246  -2.089   6.189   1.871 -0.3323  1.4186  0.9093
24110WAT    EPW98247  -2.085   6.170   1.956  0.8354  0.3824  0.6465
24111WAT      O98248  -4.478   7.607   5.762 -0.4895  0.7449 -0.3459
24111WAT     H198249  -4.561   7.654   5.770 -0.8362  0.0940 -0.0062
24111WAT     H298250  -4.478   7.547   5.836  1.4077  2.3982  1.0946
24111WAT    EPW98251  -4.489   7.605   5.773 -0.2851  0.8769 -0.1109
24112WAT      O98252   7.886   0.747   2.107  0.2374 -0.2614 -0.2280
24112WAT     H198253   7.871   0.810   2.036  1.7980 -1.1277 -1.4012
24112WAT     H298254   7.816   0.682   2.095  0.0248  0.0117 -0.4975
24112WAT    EPW98255   7.875   0.747   2.096  0.4151 -0.3397 -0.4183
24113WAT      O98256   7.095   8.483   1.095  0.5714  0.1953  0.1296
24113WAT     H198257   7.054   8.565   1.069  0.8583  0.2496 -0.1587
24113WAT     H298258   7.182   8.486   1.055  0.3794 -0.4964 -0.3402
24113WAT    EPW98259   7.101   8.494   1.087  0.5839  0.1116  0.0296
24114WAT      O98260  -4.169   9.125   7.776  0.1289 -0.3338 -0.8036
24114WAT     H198261  -4.253   9.128   7.730 -0.5441  0.4669  0.3987
24114WAT     H298262  -4.109   9.172   7.719 -0.9279  1.5501 -0.4691
24114WAT    EPW98263  -4.173   9.132   7.762 -0.0992  0.0205 -0.6008
24115WAT      O98264  -3.325   9.476   4.398  0.4536 -0.3306 -0.3581
24115WAT     H198265  -3.388   9.414   4.363  1.4511 -1.5025 -0.1721
24115WAT     H298266  -3.259   9.485   4.329 -0.2481  1.4346 -0.8409
24115WAT    EPW98267  -3.324   9.469   4.385  0.4926 -0.2527 -0.3972
24116WAT      O98268  -5.173   7.840   4.072 -0.1343  0.3056 -0.1040
24116WAT     H198269  -5.095   7.892   4.052 -0.3008  0.1504 -1.1992
24116WAT     H298270  -5.161   7.758   4.025 -0.5809 -0.0410  0.3753
24116WAT    EPW98271  -5.161   7.836   4.063 -0.2151  0.2394 -0.1850
24117WAT      O98272   2.465   7.331   5.760  0.0796  0.1449 -0.3954
24117WAT     H198273   2.385   7.369   5.723  1.0020  1.4792 -1.1169
24117WAT     H298274   2.486   7.387   5.835  2.4044  2.3646 -2.4835
24117WAT    EPW98275   2.457   7.344   5.765  0.5080  0.6137 -0.7660
24118WAT      O98276  -3.104   3.874   3.888  0.1271 -0.1200 -0.2445
24118WAT     H198277  -3.089   3.949   3.946  1.0596  0.6736 -1.4767
24118WAT     H298278  -3.191   3.889   3.852  0.1955  0.2201 -0.2732
24118WAT    EPW98279  -3.113   3.886   3.891  0.2592  0.0296 -0.4108
24119WAT      O98280   4.758   8.116   4.544  0.2711 -0.9406 -0.1065
24119WAT     H198281   4.751   8.161   4.629 -2.4375  0.9462 -1.1890
24119WAT     H298282   4.668   8.095   4.520  0.6173  0.8103 -3.5967
24119WAT    EPW98283   4.746   8.119   4.552 -0.0405 -0.4606 -0.7095
24120WAT      O98284   5.674   7.986   0.582  0.1288 -0.8407 -0.2909
24120WAT     H198285   5.666   7.997   0.487 -1.8538  0.6242 -0.0333
24120WAT     H298286   5.592   7.943   0.607 -0.3915  0.8015  0.9803
24120WAT    EPW98287   5.662   7.982   0.573 -0.2015 -0.4308 -0.0892
24121WAT      O98288   0.769   8.837   1.419 -0.2215 -0.0902  0.1284
24121WAT     H198289   0.798   8.747   1.402 -0.0632  0.0274 -0.2433
24121WAT     H298290   0.696   8.827   1.480  0.1526 -0.4372  0.5354
24121WAT    EPW98291   0.764   8.823   1.425 -0.1513 -0.1202  0.1330
24122WAT      O98292   4.527   4.880   0.389  0.3239  0.3312  0.1700
24122WAT     H198293   4.505   4.919   0.304  0.2972  0.0432  0.0422
24122WAT     H298294   4.442   4.852   0.424  0.1539  1.6901  0.9241
24122WAT    EPW98295   4.513   4.882   0.382  0.2980  0.4725  0.2526
24123WAT      O98296   1.911   2.505   1.947 -0.3823 -0.6242 -0.0251
24123WAT     H198297   1.974   2.470   2.011 -1.2358 -2.1436  0.0137
24123WAT     H298298   1.840   2.540   2.001 -0.8188 -1.3625 -0.1023
24123WAT    EPW98299   1.910   2.505   1.963 -0.5524 -0.9220 -0.0302
24124WAT      O98300   5.234   1.925   8.057 -0.2453  0.1739 -0.6132
24124WAT     H198301   5.275   1.855   8.006 -0.5028  0.0747 -0.6903
24124WAT     H298302   5.175   1.878   8.117  0.7989  0.2209  0.4854
24124WAT    EPW98303   5.231   1.909   8.059 -0.1416  0.1670 -0.4787
24125WAT      O98304   0.422   2.075   1.955 -0.5084 -0.7765 -0.4632
24125WAT     H198305   0.363   2.013   1.998  3.0050 -3.5461  0.8809
24125WAT     H298306   0.435   2.145   2.018  1.5857 -2.8691  1.6374
24125WAT    EPW98307   0.416   2.076   1.969  0.2312 -1.4179 -0.0089
24126WAT      O98308  -2.889  10.247   5.860  0.3191 -0.0307 -0.3941
24126WAT     H198309  -2.878  10.319   5.923  0.8634 -0.6315  0.2227
24126WAT     H298310  -2.809  10.195   5.870 -0.2824 -0.9946 -0.4691
24126WAT    EPW98311  -2.877  10.250   5.870  0.3116 -0.2375 -0.3228
24127WAT      O98312   1.142   3.705   7.957  0.1750 -0.1708  0.4345
24127WAT     H198313   1.170   3.618   7.984  4.8664  1.8469  3.3012
24127WAT     H298314   1.070   3.727   8.016  0.6553 -1.1877  1.4389
24127WAT    EPW98315   1.136   3.696   7.968  0.8572 -0.0387  0.9451
24128WAT      O98316   8.078   7.042   0.359  0.0317  0.3181  0.2187
24128WAT     H198317   8.167   7.077   0.358  0.2820 -0.3223 -0.3485
24128WAT     H298318   8.038   7.074   0.278  0.6500 -1.6399 -0.9189
24128WAT    EPW98319   8.084   7.051   0.348  0.1459 -0.0246 -0.0062
24129WAT      O98320   3.057   8.840   3.130 -0.2573 -0.0162  0.1298
24129WAT     H198321   2.984   8.813   3.186  1.2601  0.3294  2.4579
24129WAT     H298322   3.101   8.909   3.180  0.6918  1.0030 -1.9709
24129WAT    EPW98323   3.053   8.846   3.144  0.0681  0.1636  0.1599
24130WAT      O98324  -5.744   8.537   8.131  0.6018  0.2072 -0.1288
24130WAT     H198325  -5.749   8.569   8.221 -2.0409  0.2752 -0.2415
24130WAT     H298326  -5.798   8.458   8.131  2.7406 -1.3601 -1.0927
24130WAT    EPW98327  -5.752   8.531   8.143  0.5357  0.0095 -0.2708
24131WAT      O98328  -1.608   5.543   1.286  0.1742  0.2531 -0.1080
24131WAT     H198329  -1.606   5.470   1.348  1.1425 -2.1685 -2.7520
24131WAT     H298330  -1.701   5.561   1.274 -0.2478 -2.0658 -0.9298
24131WAT    EPW98331  -1.620   5.535   1.293  0.2463 -0.3722 -0.5651
24132WAT      O98332   3.618   3.638   8.645  0.7013 -0.7830 -0.9904
24132WAT     H198333   3.538   3.659   8.597  0.9220  2.9464 -0.0063
24132WAT     H298334   3.588   3.589   8.722 -0.6336  0.2694 -0.8110
24132WAT    EPW98335   3.604   3.634   8.649  0.5543 -0.1523 -0.8373
24133WAT      O98336   2.093   8.211   4.357  0.3138 -0.2500  0.1173
24133WAT     H198337   2.026   8.148   4.333  0.3347  0.0177 -0.6895
24133WAT     H298338   2.071   8.290   4.307  1.5736 -0.3582 -0.6676
24133WAT    EPW98339   2.081   8.213   4.348  0.4827 -0.2294 -0.0927
24134WAT      O98340   3.889   1.064   1.391 -0.2937 -0.0535 -0.1384
24134WAT     H198341   3.964   1.123   1.386  0.1771 -0.5101  1.2563
24134WAT     H298342   3.920   0.982   1.351 -0.8761  0.5129 -1.8637
24134WAT    EPW98343   3.903   1.061   1.385 -0.3084 -0.0390 -0.1820
24135WAT      O98344  -3.035   8.161   5.943 -0.0031  0.1440  0.5829
24135WAT     H198345  -3.109   8.145   5.885  0.3620  0.1365  0.1134
24135WAT     H298346  -3.068   8.139   6.031 -0.5673  0.1959  0.3873
24135WAT    EPW98347  -3.049   8.156   5.947 -0.0294  0.1497  0.4952
24136WAT      O98348   6.262   1.113   4.437  0.4407  0.1045 -0.5784
24136WAT     H198349   6.348   1.077   4.415  0.5453  0.8832 -1.4566
24136WAT     H298350   6.257   1.196   4.390  0.3352  1.4552  1.6676
24136WAT    EPW98351   6.273   1.119   4.428  0.4406  0.3854 -0.3979
24137WAT      O98352  -0.218   4.952   6.334  0.0629  0.2199  0.4038
24137WAT     H198353  -0.245   5.017   6.399 -1.4482  0.0612 -0.0189
24137WAT     H298354  -0.228   4.997   6.250 -0.4314 -0.3650  0.1438
24137WAT    EPW98355  -0.223   4.967   6.331 -0.2016  0.1218  0.3138
24138WAT      O98356   2.496   0.721   3.850  0.6190 -0.0904  0.0746
24138WAT     H198357   2.510   0.725   3.756 -2.7022  2.1024 -0.5331
24138WAT     H298358   2.524   0.633   3.876  2.6580 -0.3717 -2.6984
24138WAT    EPW98359   2.501   0.710   3.841  0.4499  0.1617 -0.3712
24139WAT      O98360   4.676   0.211   6.060 -0.3124 -0.2519 -1.0070
24139WAT     H198361   4.663   0.227   5.966  0.2799  1.2053 -0.8700
24139WAT     H298362   4.737   0.137   6.063  0.1585  0.0906 -1.7839
24139WAT    EPW98363   4.682   0.203   6.048 -0.1721 -0.0145 -1.0915
24140WAT      O98364   2.250  10.260   2.544 -0.1448 -0.5431  0.6834
24140WAT     H198365   2.194  10.197   2.591 -1.4860  0.3410  0.3258
24140WAT     H298366   2.272  10.216   2.463 -3.0536  0.2362 -0.6685
24140WAT    EPW98367   2.245  10.246   2.540 -0.7054 -0.3238  0.4579
24141WAT      O98368   1.821   1.628   1.585 -0.2997 -0.0397 -0.0229
24141WAT     H198369   1.856   1.623   1.674  0.0037  0.5850 -0.0953
24141WAT     H298370   1.737   1.584   1.590  0.6884 -2.0193  0.0412
24141WAT    EPW98371   1.815   1.622   1.597 -0.1293 -0.2184 -0.0240
24142WAT      O98372   4.449   1.810   5.240 -0.0259 -0.2619 -0.5812
24142WAT     H198373   4.394   1.804   5.162  2.8841 -2.2990 -2.6927
24142WAT     H298374   4.432   1.729   5.287 -0.5648  0.2157  0.0598
24142WAT    EPW98375   4.440   1.799   5.236  0.2868 -0.4676 -0.7753
24143WAT      O98376   0.484   5.328   6.395  0.5091  0.2657 -0.4284
24143WAT     H198377   0.443   5.367   6.317  0.4471 -0.9822 -1.0406
24143WAT     H298378   0.526   5.402   6.439 -2.3000  1.5953  0.1988
24143WAT    EPW98379   0.484   5.343   6.390  0.1304  0.2766 -0.4263
24144WAT      O98380  -2.894   2.133   5.178 -0.3861 -0.2681 -0.4072
24144WAT     H198381  -2.863   2.170   5.095 -0.2805 -0.6948 -0.5615
24144WAT     H298382  -2.953   2.062   5.152 -0.6480 -0.1594 -0.1152
24144WAT    EPW98383  -2.897   2.129   5.163 -0.4067 -0.3101 -0.3891
24145WAT      O98384  -0.969   9.157   0.374  0.1292 -0.2482 -0.5982
24145WAT     H198385  -0.943   9.097   0.304  1.0843  0.9483 -1.3236
24145WAT     H298386  -0.958   9.244   0.335 -3.2444  0.4440 -0.3395
24145WAT    EPW98387  -0.964   9.161   0.359 -0.1898  0.0005 -0.6598
24146WAT      O98388   5.892   2.315   0.366 -0.1267 -0.4537  0.2531
24146WAT     H198389   5.864   2.322   0.457 -0.6989 -1.9397  0.2204
24146WAT     H298390   5.906   2.406   0.338 -0.0373  0.0323  1.7728
24146WAT    EPW98391   5.891   2.328   0.374 -0.1905 -0.5854  0.4493
24147WAT      O98392  -1.385   5.170   8.737 -1.3921  0.4173 -0.3126
24147WAT     H198393  -1.415   5.220   8.813 -0.3153  0.9171 -0.1984
24147WAT     H298394  -1.293   5.151   8.756 -1.5290 -0.7986 -0.7945
24147WAT    EPW98395  -1.376   5.175   8.750 -1.2681  0.3228 -0.3610
24148WAT      O98396  -3.911   8.916   3.506  0.2887  0.1538  0.2571
24148WAT     H198397  -3.864   8.895   3.586  2.5970  4.9106  0.5337
24148WAT     H298398  -3.844   8.916   3.437 -0.9746 -0.5846 -1.0415
24148WAT    EPW98399  -3.896   8.913   3.507  0.4265  0.6833  0.1222
24149WAT      O98400   3.315   5.462   3.448 -0.3378  0.3617 -0.1625
24149WAT     H198401   3.365   5.481   3.368 -1.1582  1.8941 -0.3497
24149WAT     H298402   3.348   5.525   3.512 -2.6371  2.0958 -0.5676
24149WAT    EPW98403   3.326   5.473   3.446 -0.7492  0.7927 -0.2406
24150WAT      O98404  -3.081   1.441   8.546 -0.2166  0.0491  0.2579
24150WAT     H198405  -3.057   1.421   8.455 -0.4812  0.4402  0.1024
24150WAT     H298406  -3.025   1.515   8.570 -0.1824 -0.0222  0.4021
24150WAT    EPW98407  -3.070   1.448   8.537 -0.2470  0.0913  0.2565
24151WAT      O98408   2.427   5.098   6.041  0.1596 -0.0548 -0.2717
24151WAT     H198409   2.389   5.143   5.966 -0.8043  0.1785  0.3493
24151WAT     H298410   2.370   5.119   6.114  1.6325  0.5179  0.7551
24151WAT    EPW98411   2.415   5.107   6.040  0.2267  0.0515 -0.0544
24152WAT      O98412   4.118   6.703   0.287  0.2261 -0.1479  0.6561
24152WAT     H198413   4.086   6.649   0.215  1.2783 -1.1016  0.8580
24152WAT     H298414   4.083   6.790   0.270  1.7362  0.0666 -1.9365
24152WAT    EPW98415   4.109   6.707   0.275  0.5641 -0.2456  0.3408
24153WAT      O98416  -2.036   6.254   1.034  0.2448 -0.4055 -0.1538
24153WAT     H198417  -2.041   6.278   0.942  1.1446  1.2911  0.2059
24153WAT     H298418  -2.128   6.251   1.063 -0.0031 -0.0662 -0.8815
24153WAT    EPW98419  -2.049   6.256   1.026  0.3308 -0.1371 -0.2024
24154WAT      O98420   2.403   5.755   5.027 -0.6300  0.1979 -0.5808
24154WAT     H198421   2.444   5.813   4.962 -0.5441  0.4002 -0.3481
24154WAT     H298422   2.462   5.758   5.102  0.7912 -2.2729 -1.5045
24154WAT    EPW98423   2.416   5.763   5.028 -0.4313 -0.1011 -0.6721
24155WAT      O98424   1.408   8.088   4.032 -0.2011  0.3002 -0.2653
24155WAT     H198425   1.420   8.059   3.942 -1.7307 -0.2834 -0.3108
24155WAT     H298426   1.331   8.041   4.063  0.2952  0.4784  1.3648
24155WAT    EPW98427   1.399   8.078   4.024 -0.3374  0.2465 -0.0563
24156WAT      O98428  -5.531   5.890   8.947 -0.3606 -0.6734 -0.6173
24156WAT     H198429  -5.555   5.886   9.040  0.1108  0.8830 -0.3920
24156WAT     H298430  -5.457   5.951   8.945 -0.7042 -0.2774 -2.0798
24156WAT    EPW98431  -5.524   5.898   8.959 -0.3436 -0.4160 -0.7806
24157WAT      O98432   0.834   3.647   3.688 -0.0517 -0.4610 -0.0028
24157WAT     H198433   0.919   3.680   3.718 -0.9379  1.1435  0.8435
24157WAT     H298434   0.801   3.714   3.629 -0.6230 -1.2256 -0.5754
24157WAT    EPW98435   0.841   3.660   3.684 -0.2439 -0.3501  0.0333
24158WAT      O98436  -4.144   7.332   7.119 -0.6228  0.2806  0.8552
24158WAT     H198437  -4.195   7.412   7.107 -1.0778 -0.0799  0.3088
24158WAT     H298438  -4.202   7.263   7.088  0.1081 -0.1644  0.4645
24158WAT    EPW98439  -4.159   7.334   7.113 -0.5863  0.1743  0.7317
24159WAT      O98440  -2.043   9.111   3.049 -0.9244 -0.3331  0.6801
24159WAT     H198441  -2.078   9.044   3.107 -2.1060 -2.0600 -1.8283
24159WAT     H298442  -2.082   9.192   3.080 -1.0615 -1.0841  2.5909
24159WAT    EPW98443  -2.053   9.113   3.061 -1.0984 -0.6599  0.6013
24160WAT      O98444   9.005   2.395   0.429 -0.0222  0.0558 -0.7708
24160WAT     H198445   9.095   2.427   0.422  0.0825 -0.4115 -1.6444
24160WAT     H298446   9.007   2.332   0.501  0.0116  1.1366  0.2171
24160WAT    EPW98447   9.017   2.391   0.438 -0.0038  0.1367 -0.7557
24161WAT      O98448   5.285   5.599   2.745  0.0087  0.4867 -0.4123
24161WAT     H198449   5.296   5.689   2.777 -2.7222  1.0653 -0.9211
24161WAT     H298450   5.295   5.545   2.824 -0.1929  1.3697  0.2316
24161WAT    EPW98451   5.288   5.603   2.760 -0.3779  0.6795 -0.3946
24162WAT      O98452   5.285   0.661   2.290 -0.6135 -0.1642 -0.3822
24162WAT     H198453   5.344   0.665   2.214 -2.1432  0.2414 -1.5945
24162WAT     H298454   5.341   0.684   2.364  0.8396 -0.1541 -1.4248
24162WAT    EPW98455   5.300   0.664   2.290 -0.6235 -0.1094 -0.6797
24163WAT      O98456   4.266   1.790   2.818  0.1045 -0.0421  1.0354
24163WAT     H198457   4.350   1.833   2.833 -0.0575  1.1528 -1.1022
24163WAT     H298458   4.282   1.698   2.839  1.7641  0.2607  1.2302
24163WAT    EPW98459   4.279   1.784   2.823  0.3021  0.1555  0.7792
24164WAT      O98460   6.570   7.713   0.089  0.1646  0.1046  0.4776
24164WAT     H198461   6.491   7.699   0.140  1.0339  1.5647  2.3872
24164WAT     H298462   6.545   7.778   0.023 -0.1473  0.9091  1.3660
24164WAT    EPW98463   6.556   7.720   0.087  0.2382  0.4032  0.8466
24165WAT      O98464  -4.662   7.172   5.240  0.2290  0.0218  0.4605
24165WAT     H198465  -4.749   7.193   5.272 -0.1492 -0.8363  0.0305
24165WAT     H298466  -4.641   7.242   5.178 -0.8847 -0.6735 -0.7460
24165WAT    EPW98467  -4.671   7.184   5.236  0.0322 -0.1831  0.2449
24166WAT      O98468   2.102   4.657   8.032 -0.2942 -0.1091 -0.2071
24166WAT     H198469   2.063   4.688   7.950  0.0283 -3.9476 -2.0591
24166WAT     H298470   2.193   4.685   8.028 -0.7254  1.3244 -0.2314
24166WAT    EPW98471   2.108   4.664   8.021 -0.3085 -0.4261 -0.4544
24167WAT      O98472   1.412   3.255   6.965 -0.0558  0.4525  0.0838
24167WAT     H198473   1.462   3.182   6.928  1.2113  1.5875 -0.4929
24167WAT     H298474   1.473   3.299   7.024 -0.6147  1.3912 -0.0165
24167WAT    EPW98475   1.427   3.251   6.968  0.0376  0.7260 -0.0055
24168WAT      O98476   7.215   0.837   2.917 -0.5001  0.5443 -0.0421
24168WAT     H198477   7.130   0.870   2.946 -0.4204  0.4894  0.2571
24168WAT     H298478   7.278   0.898   2.956 -0.3933  0.4820 -0.1193
24168WAT    EPW98479   7.212   0.850   2.926 -0.4754  0.5288 -0.0128
24169WAT      O98480  -2.934   8.627   3.996 -0.0969  0.0668  0.3708
24169WAT     H198481  -3.012   8.653   4.045  0.8673 -0.0495  2.0437
24169WAT     H298482  -2.949   8.660   3.908 -1.6247  0.8706  0.8954
24169WAT    EPW98483  -2.946   8.635   3.991 -0.1712  0.1574  0.6607
24170WAT      O98484  -3.377   7.226   1.468  0.3906 -0.5774 -0.6499
24170WAT     H198485  -3.284   7.235   1.491  0.1181 -1.3887  0.8438
24170WAT     H298486  -3.405   7.315   1.447  1.5758 -0.3676 -1.4838
24170WAT    EPW98487  -3.368   7.239   1.468  0.5111 -0.6566 -0.5628
24171WAT      O98488  -5.169   6.261   5.693 -0.4537 -0.0916 -0.1060
24171WAT     H198489  -5.252   6.308   5.690 -0.6956 -0.5464 -1.5138
24171WAT     H298490  -5.122   6.292   5.615 -0.2662 -1.5404 -0.5974
24171WAT    EPW98491  -5.174   6.271   5.682 -0.4609 -0.3426 -0.3564
24172WAT      O98492  -1.748   5.752   4.535  0.0414 -0.5394  0.4990
24172WAT     H198493  -1.770   5.697   4.610 -1.8586 -0.8716 -0.2450
24172WAT     H298494  -1.833   5.776   4.497  0.9313 -0.5613 -1.6566
24172WAT    EPW98495  -1.762   5.748   4.540 -0.0918 -0.5863  0.1166
24173WAT      O98496   5.911   2.531   2.171 -0.3377 -0.2956  0.3145
24173WAT     H198497   5.948   2.502   2.088 -0.1116 -1.0529  0.6664
24173WAT     H298498   5.912   2.452   2.226  1.3875  0.6395  1.7138
24173WAT    EPW98499   5.916   2.517   2.167 -0.0803 -0.2722  0.5455
24174WAT      O98500   0.955   5.333   2.325  0.9395  0.8281 -0.5826
24174WAT     H198501   0.935   5.300   2.413  0.7734 -1.5381 -1.4367
24174WAT     H298502   0.972   5.426   2.338  2.0462  0.3518  2.1277
24174WAT    EPW98503   0.954   5.341   2.338  1.0636  0.4532 -0.3380
24175WAT      O98504  -1.940   9.673   8.099 -0.3587  0.3388  0.3073
24175WAT     H198505  -1.934   9.651   8.006 -3.1530 -0.9392  0.3398
24175WAT     H298506  -1.867   9.625   8.139  0.1774 -0.0431 -1.0532
24175WAT    EPW98507  -1.930   9.664   8.092 -0.6566  0.1197  0.1326
24176WAT      O98508  -0.061   3.479   1.738  0.0424  0.6860  0.0268
24176WAT     H198509  -0.029   3.408   1.682  1.0070  0.6160  0.6542
24176WAT     H298510  -0.040   3.559   1.689 -0.6250  0.5800 -0.4621
24176WAT    EPW98511  -0.054   3.480   1.724  0.0816  0.6627  0.0451
24177WAT      O98512  -5.366   8.362   6.465  0.5270 -0.1879 -0.6115
24177WAT     H198513  -5.271   8.355   6.476  0.6079  0.5353 -0.8420
24177WAT     H298514  -5.381   8.451   6.435 -0.5452  1.0328  2.9825
24177WAT    EPW98515  -5.356   8.373   6.463  0.3965  0.0687 -0.1678
24178WAT      O98516  -0.746   7.402   6.270  0.8191 -0.0672  0.2455
24178WAT     H198517  -0.774   7.352   6.347  0.1858  1.5823  1.1316
24178WAT     H298518  -0.823   7.400   6.212  0.7476  0.0029  0.3384
24178WAT    EPW98519  -0.760   7.395   6.272  0.7262  0.1595  0.3746
24179WAT      O98520   4.306   8.340   0.577  0.2587  0.1800  1.0807
24179WAT     H198521   4.216   8.331   0.607  0.0096  1.7199  0.8869
24179WAT     H298522   4.358   8.342   0.657 -0.1680  1.8610  1.3594
24179WAT    EPW98523   4.301   8.339   0.591  0.1695  0.6046  1.0919
24180WAT      O98524   3.239  10.282   6.207  0.6235  0.3079  0.4473
24180WAT     H198525   3.241  10.209   6.270  0.1990 -0.3678 -0.3089
24180WAT     H298526   3.279  10.246   6.128  0.5503  0.9526  0.1133
24180WAT    EPW98527   3.245  10.268   6.205  0.5578  0.3037  0.3035
24181WAT      O98528  -5.589   8.966   5.109  0.1454  0.0171  0.3480
24181WAT     H198529  -5.666   9.022   5.117 -0.5540 -0.5102 -1.8952
24181WAT     H298530  -5.585   8.918   5.192 -1.4358  0.6545  0.8347
24181WAT    EPW98531  -5.599   8.967   5.121 -0.1554  0.0310  0.1163
24182WAT      O98532  -1.172   2.274   5.314 -0.6631 -0.1705 -0.1911
24182WAT     H198533  -1.121   2.226   5.379  0.6352  1.0926 -0.2150
24182WAT     H298534  -1.107   2.328   5.269 -2.0542  1.6296 -0.1220
24182WAT    EPW98535  -1.157   2.275   5.317 -0.6753  0.2335 -0.1853
24183WAT      O98536   1.762   7.356   8.057 -0.9421 -0.3207 -0.0837
24183WAT     H198537   1.683   7.353   8.003 -2.1528 -1.3382  1.6498
24183WAT     H298538   1.739   7.412   8.131  0.6056  0.8581 -0.4234
24183WAT    EPW98539   1.749   7.363   8.060 -0.8976 -0.2995  0.1001
24184WAT      O98540  -6.783   8.494   8.250 -0.2070  0.9152 -0.2688
24184WAT     H198541  -6.757   8.417   8.200 -0.3896 -1.0015  2.3938
24184WAT     H298542  -6.700   8.535   8.275 -0.1029  1.3783 -1.3140
24184WAT    EPW98543  -6.768   8.489   8.247 -0.2174  0.7234 -0.0558
24185WAT      O98544  -1.402   3.571   4.852 -0.2004  0.0367 -0.5460
24185WAT     H198545  -1.488   3.569   4.810 -0.6792  1.0993  0.3462
24185WAT     H298546  -1.383   3.664   4.865  1.0294 -0.1855 -0.6025
24185WAT    EPW98547  -1.411   3.583   4.848 -0.1013  0.1476 -0.4358
24186WAT      O98548   0.381   0.133   8.516 -0.3436  0.2854  0.3687
24186WAT     H198549   0.390   0.074   8.441 -0.0682  2.4945 -1.4866
24186WAT     H298550   0.462   0.122   8.566 -0.8877 -1.8266  0.8585
24186WAT    EPW98551   0.393   0.124   8.513 -0.3790  0.2982  0.1884
24187WAT      O98552  -1.893   1.394   2.535 -0.2530  0.2126 -0.2032
24187WAT     H198553  -1.892   1.368   2.627 -0.2886  1.1809  0.0791
24187WAT     H298554  -1.869   1.314   2.487  0.1966 -0.1882  0.6703
24187WAT    EPW98555  -1.890   1.380   2.540 -0.1984  0.2874 -0.0508
24188WAT      O98556  -2.488  10.072   6.367 -0.1580 -0.2676 -0.3627
24188WAT     H198557  -2.405  10.081   6.321  0.0899  0.0405  0.1278
24188WAT     H298558  -2.467  10.095   6.458 -1.0567  1.1951 -0.4860
24188WAT    EPW98559  -2.474  10.076   6.373 -0.2439 -0.0339 -0.3142
24189WAT      O98560  -1.667   4.646   7.358 -0.3452 -0.1027 -0.0491
24189WAT     H198561  -1.757   4.619   7.378 -0.4912 -0.3199 -0.9460
24189WAT     H298562  -1.618   4.625   7.437 -1.0565 -0.1346  0.3912
24189WAT    EPW98563  -1.672   4.639   7.371 -0.4583 -0.1357 -0.1092
24190WAT      O98564   0.661   0.041   8.611 -0.3702 -0.2366  0.1165
24190WAT     H198565   0.751   0.066   8.591 -0.2455  0.1369  1.1100
24190WAT     H298566   0.657  -0.052   8.592  0.7878 -0.7066  1.9756
24190WAT    EPW98567   0.672   0.032   8.606 -0.2010 -0.2493  0.4930
24191WAT      O98568  -1.962   2.746   2.370  0.1079  0.7171  0.3265
24191WAT     H198569  -1.912   2.811   2.418 -0.6350  0.1790  1.9230
24191WAT     H298570  -1.962   2.669   2.428 -3.7412  1.1574  1.1847
24191WAT    EPW98571  -1.956   2.744   2.384 -0.4977  0.7043  0.6503
24192WAT      O98572   0.264   9.261   5.549  0.9883 -0.1003  0.0183
24192WAT     H198573   0.326   9.218   5.491  2.0161 -1.3203  1.9242
24192WAT     H298574   0.259   9.204   5.626 -1.0513  0.9469  0.7475
24192WAT    EPW98575   0.271   9.248   5.551  0.8549 -0.1225  0.3660
24193WAT      O98576  -2.922   7.865   5.493 -0.1031 -0.6022 -0.1035
24193WAT     H198577  -2.871   7.887   5.416 -1.0964  1.1269 -0.3169
24193WAT     H298578  -2.882   7.915   5.564 -3.0647  3.1764 -0.8019
24193WAT    EPW98579  -2.910   7.874   5.492 -0.6248  0.1240 -0.2239
24194WAT      O98580  -0.759   0.181   5.806 -0.2986 -0.2158 -0.0637
24194WAT     H198581  -0.847   0.143   5.806  0.6106 -2.4671 -0.0758
24194WAT     H298582  -0.774   0.275   5.811 -2.6847 -0.5704  0.9391
24194WAT    EPW98583  -0.773   0.188   5.806 -0.4934 -0.5595  0.0670
24195WAT      O98584  -0.427   5.265   4.448 -0.3131  0.1462 -0.0861
24195WAT     H198585  -0.425   5.360   4.463 -3.1407  0.1426  0.9503
24195WAT     H298586  -0.425   5.256   4.353 -2.3388  1.4407 -0.3086
24195WAT    EPW98587  -0.427   5.277   4.437 -0.9533  0.3164  0.0212
24196WAT      O98588   5.514   2.778   6.796 -0.2464  0.3759  0.0709
24196WAT     H198589   5.514   2.720   6.720  0.5693 -1.1799  1.2074
24196WAT     H298590   5.506   2.719   6.871  0.9237  1.7159  1.2888
24196WAT    EPW98591   5.513   2.763   6.796  0.0155  0.3474  0.3817
24197WAT      O98592  -1.665   2.710   5.715 -0.3399  0.6401 -0.5756
24197WAT     H198593  -1.747   2.661   5.722  0.3412 -0.3460  1.0784
24197WAT     H298594  -1.637   2.697   5.624 -0.5927 -1.4034 -0.4091
24197WAT    EPW98595  -1.672   2.702   5.704 -0.2834  0.2406 -0.3355
24198WAT      O98596  -5.748   8.002   8.052  0.5145 -0.4586  0.4115
24198WAT     H198597  -5.677   7.961   8.001  0.2341  0.2935 -0.6183
24198WAT     H298598  -5.778   8.074   7.997  0.6871  0.8597  1.9716
24198WAT    EPW98599  -5.742   8.006   8.038  0.5004 -0.1855  0.4816
24199WAT      O98600   0.419   3.355   1.127  0.2743 -0.4016  0.3316
24199WAT     H198601   0.390   3.327   1.040  0.4734 -0.4163  0.2692
24199WAT     H298602   0.424   3.451   1.121  1.4157 -0.4703 -0.0348
24199WAT    EPW98603   0.416   3.364   1.115  0.4511 -0.4126  0.2750
24200WAT      O98604  -3.167   9.122   8.892 -0.2462  0.2843  0.0929
24200WAT     H198605  -3.262   9.132   8.881 -0.0307  1.9190 -0.4561
24200WAT     H298606  -3.157   9.083   8.979 -1.5926 -4.2043 -1.4727
24200WAT    EPW98607  -3.178   9.118   8.902 -0.3954 -0.0925 -0.1860
24201WAT      O98608   5.429   7.872   3.441  0.7944  0.6143  0.3728
24201WAT     H198609   5.450   7.789   3.483  0.3616 -0.8056 -2.0250
24201WAT     H298610   5.492   7.879   3.369 -0.5467  1.2584 -0.7920
24201WAT    EPW98611   5.440   7.862   3.437  0.5605  0.5119 -0.0972
24202WAT      O98612  -5.202   2.844   8.376 -0.1161 -0.1853  0.4699
24202WAT     H198613  -5.286   2.883   8.400 -0.3824 -1.7464  2.2910
24202WAT     H298614  -5.137   2.903   8.414 -0.4025  0.3567  0.1399
24202WAT    EPW98615  -5.205   2.857   8.384 -0.1891 -0.3196  0.6671
24203WAT      O98616  -0.146   4.894   2.620  0.2964 -0.4611 -0.2748
24203WAT     H198617  -0.198   4.890   2.700 -2.2251 -2.9224 -1.8594
24203WAT     H298618  -0.183   4.967   2.571 -1.3335 -1.7868 -1.1023
24203WAT    EPW98619  -0.158   4.903   2.624 -0.2511 -0.9606 -0.5928
24204WAT      O98620  -0.760   7.084   5.616 -0.4122  0.4573 -0.1548
24204WAT     H198621  -0.669   7.081   5.645  0.7474 -2.2604 -3.3932
24204WAT     H298622  -0.796   6.998   5.638 -0.8409 -0.0215 -2.3985
24204WAT    EPW98623  -0.753   7.072   5.622 -0.3158  0.0355 -0.8779
24205WAT      O98624   0.527   2.312   2.066  0.5008 -0.0649 -0.2230
24205WAT     H198625   0.619   2.335   2.083  1.0237 -0.1489 -2.5693
24205WAT     H298626   0.500   2.373   1.998  0.8260 -3.7679 -4.0917
24205WAT    EPW98627   0.536   2.323   2.059  0.6126 -0.5645 -1.0427
24206WAT      O98628   4.491   1.712   8.299  0.0320 -0.6200 -0.1606
24206WAT     H198629   4.554   1.769   8.253 -0.1921 -0.1914  0.0581
24206WAT     H298630   4.546   1.647   8.343  0.4978  0.9245  1.6936
24206WAT    EPW98631   4.507   1.711   8.299  0.0639 -0.3597  0.1130
24207WAT      O98632   1.785   6.662   0.415 -0.3765 -0.5240  0.4585
24207WAT     H198633   1.800   6.753   0.443 -2.3077 -0.1210  0.3024
24207WAT     H298634   1.870   6.619   0.427  0.4366  1.1618  1.0481
24207WAT    EPW98635   1.798   6.668   0.420 -0.5240 -0.2484  0.5157
24208WAT      O98636   4.385   4.582   1.618 -0.2881 -0.6518 -0.5478
24208WAT     H198637   4.455   4.615   1.563 -0.8421  0.8756 -0.3868
24208WAT     H298638   4.425   4.509   1.666  0.0008 -2.5624 -3.4415
24208WAT    EPW98639   4.399   4.577   1.617 -0.3231 -0.7024 -0.9083
24209WAT      O98640  -5.542   3.207   7.595 -0.7852 -0.2250  0.5868
24209WAT     H198641  -5.577   3.135   7.541 -0.4688 -0.0146  0.0906
24209WAT     H298642  -5.531   3.169   7.682 -2.9308 -0.1181  0.9727
24209WAT    EPW98643  -5.545   3.192   7.599 -1.0264 -0.1831  0.5722
24210WAT      O98644  -0.007  10.013   7.587 -0.0919  0.0983  0.3388
24210WAT     H198645   0.016  10.022   7.494 -2.4482  0.2732 -0.2965
24210WAT     H298646  -0.010   9.919   7.602 -3.0473 -0.1166 -0.8010
24210WAT    EPW98647  -0.005  10.002   7.576 -0.7925  0.0935  0.1047
24211WAT      O98648   2.706   6.496   8.616  0.0755  0.5653  0.4644
24211WAT     H198649   2.774   6.472   8.679  0.6544 -1.1563 -0.7208
24211WAT     H298650   2.742   6.469   8.531 -0.7666  2.5788 -0.6131
24211WAT    EPW98651   2.720   6.489   8.613  0.0408  0.6039  0.1659
24212WAT      O98652  -3.099   7.184   4.173  0.3733 -0.3983 -0.4963
24212WAT     H198653  -3.127   7.238   4.099  0.4366 -1.0040 -0.9692
24212WAT     H298654  -3.080   7.099   4.134  0.2116 -0.7790  0.2544
24212WAT    EPW98655  -3.100   7.180   4.158  0.3605 -0.5283 -0.4597
24213WAT      O98656   5.359   0.529   5.611 -0.2077  0.2512 -0.3908
24213WAT     H198657   5.413   0.491   5.680 -1.9618  0.5791  1.2282
24213WAT     H298658   5.361   0.463   5.541  0.6595 -0.6253  0.4145
24213WAT    EPW98659   5.367   0.515   5.611 -0.3247  0.1788 -0.0710
24214WAT      O98660   1.665   9.556   3.724 -0.3449  0.0399 -0.2232
24214WAT     H198661   1.624   9.641   3.739  0.1896  0.5215 -1.3314
24214WAT     H298662   1.751   9.577   3.687  0.1911 -0.9743  0.3980
24214WAT    EPW98663   1.671   9.570   3.721 -0.2037 -0.0300 -0.2875
24215WAT      O98664   6.097   3.136   2.288 -0.1116 -0.1497  0.5148
24215WAT     H198665   6.142   3.121   2.371 -1.5117  0.8737  1.5151
24215WAT     H298666   6.140   3.212   2.251 -1.1741  1.0483  1.6415
24215WAT    EPW98667   6.109   3.144   2.294 -0.4365  0.1432  0.7954
24216WAT      O98668   6.087   2.799   4.035 -0.2777 -0.0144 -0.0746
24216WAT     H198669   6.150   2.850   3.985  0.0633 -0.4203 -0.0581
24216WAT     H298670   6.055   2.733   3.974 -1.8290  1.1254 -0.5564
24216WAT    EPW98671   6.091   2.797   4.021 -0.4375  0.0825 -0.1359
24217WAT      O98672   4.453   4.661   4.110  0.0110 -0.8199 -0.0995
24217WAT     H198673   4.383   4.621   4.059 -1.0626  0.8804 -0.0282
24217WAT     H298674   4.422   4.750   4.128  2.1437 -0.0599  0.0470
24217WAT    EPW98675   4.440   4.667   4.106  0.1507 -0.4954 -0.0708
24218WAT      O98676  -0.270   0.869   0.874 -0.4052 -0.4246 -0.2876
24218WAT     H198677  -0.236   0.821   0.950 -1.8374 -3.8451 -1.5884
24218WAT     H298678  -0.195   0.873   0.814 -0.0451 -0.2749  0.1641
24218WAT    EPW98679  -0.255   0.863   0.876 -0.5466 -0.8560 -0.3996
24219WAT      O98680  -5.509   8.561   4.333  0.3822  0.4224 -0.5274
24219WAT     H198681  -5.417   8.568   4.360 -0.2290  0.7996  1.6747
24219WAT     H298682  -5.527   8.467   4.334  0.0683  0.4589  1.7372
24219WAT    EPW98683  -5.499   8.550   4.337  0.2601  0.4773  0.0618
24220WAT      O98684  -4.271   2.644   7.646  0.1601  0.3954 -0.3535
24220WAT     H198685  -4.211   2.609   7.712 -1.5016 -3.4360 -0.6130
24220WAT     H298686  -4.356   2.647   7.690 -0.9029 -1.8288 -2.0375
24220WAT    EPW98687  -4.275   2.640   7.660 -0.1993 -0.4033 -0.6096
24221WAT      O98688   4.386   0.453   7.216 -0.6142 -0.0006 -0.5198
24221WAT     H198689   4.378   0.540   7.176 -1.3431 -0.4226 -1.3434
24221WAT     H298690   4.317   0.402   7.174 -1.3971 -0.4974  1.2740
24221WAT    EPW98691   4.376   0.458   7.205 -0.8137 -0.1218 -0.3917
24222WAT      O98692   0.184   5.916   7.443  0.0206  0.6810  0.3938
24222WAT     H198693   0.137   5.943   7.364  0.4470 -0.3900 -0.2608
24222WAT     H298694   0.127   5.850   7.483  1.0638 -0.9358 -0.6284
24222WAT    EPW98695   0.170   5.911   7.438  0.2144  0.3264  0.1726
24223WAT      O98696  -2.197   0.048   6.791  0.1244 -0.2275  0.6280
24223WAT     H198697  -2.191  -0.047   6.778 -1.9821 -0.1268 -1.8309
24223WAT     H298698  -2.132   0.084   6.732 -0.9760 -0.1132 -0.5556
24223WAT    EPW98699  -2.187   0.040   6.782 -0.2986 -0.1992  0.1476
24224WAT      O98700   5.918   0.805   5.545  0.7352 -0.9638  1.1983
24224WAT     H198701   5.981   0.789   5.474  1.3474  1.8350  0.9866
24224WAT     H298702   5.955   0.879   5.593 -2.2608  0.6711  1.1901
24224WAT    EPW98703   5.932   0.813   5.542  0.4208 -0.3790  1.1694
24225WAT      O98704  -1.866   8.928   3.435  0.0458 -0.0868  0.2649
24225WAT     H198705  -1.813   8.978   3.496  1.2761 -1.8304  0.7200
24225WAT     H298706  -1.929   8.882   3.490  0.5678 -0.9601  0.1547
24225WAT    EPW98707  -1.867   8.928   3.450  0.2770 -0.4320  0.3103
24226WAT      O98708   2.876   2.256   1.850  0.3387  0.0338 -0.0894
24226WAT     H198709   2.904   2.271   1.759 -1.5263 -0.1319 -0.7381
24226WAT     H298710   2.924   2.178   1.877 -0.7194 -1.2573 -1.7406
24226WAT    EPW98711   2.886   2.248   1.841 -0.0467 -0.1583 -0.3927
24227WAT      O98712   0.613   4.199   8.353 -0.4130  0.1011 -0.0422
24227WAT     H198713   0.554   4.271   8.373 -1.7420 -1.6133  2.7956
24227WAT     H298714   0.558   4.121   8.360  1.1450 -1.2894 -2.2297
24227WAT    EPW98715   0.598   4.198   8.356 -0.3828 -0.3085  0.0439
24228WAT      O98716  -4.559   6.695   6.180  0.0059 -0.1156  0.5989
24228WAT     H198717  -4.626   6.731   6.122 -1.5654 -0.6764  1.9767
24228WAT     H298718  -4.477   6.724   6.142 -1.0034  0.6686 -1.1283
24228WAT    EPW98719  -4.557   6.704   6.167 -0.3343 -0.0861  0.5529
24229WAT      O98720   5.205   3.549   5.411  0.4670 -0.0400 -0.1738
24229WAT     H198721   5.235   3.522   5.324 -2.4656 -1.5055 -0.8626
24229WAT     H298722   5.271   3.514   5.471  1.9927  0.0746 -1.7283
24229WAT    EPW98723   5.218   3.541   5.407  0.2813 -0.2183 -0.4697
24230WAT      O98724  -6.397   6.801   7.485  0.1253  0.4144  0.1712
24230WAT     H198725  -6.390   6.807   7.390  0.5736 -0.8363  0.1134
24230WAT     H298726  -6.309   6.818   7.517 -0.1345  1.3800  0.4114
24230WAT    EPW98727  -6.385   6.804   7.477  0.1500  0.3769  0.1953
24231WAT      O98728  -1.991   5.428   2.123  0.2543 -0.7191 -0.5077
24231WAT     H198729  -1.975   5.413   2.216  1.0594 -0.1142 -0.5424
24231WAT     H298730  -2.083   5.405   2.111 -0.2630  0.5484  0.7252
24231WAT    EPW98731  -2.001   5.423   2.134  0.2922 -0.4721 -0.3498
24232WAT      O98732   0.982   4.571   1.290  0.5682  0.4355  0.2135
24232WAT     H198733   1.048   4.502   1.284 -0.2097 -0.5081  1.8093
24232WAT     H298734   0.898   4.526   1.277 -0.0892  0.6807  2.8582
24232WAT    EPW98735   0.979   4.556   1.288  0.3789  0.3433  0.7728
24233WAT      O98736  -1.225   9.437   5.184  0.4164  0.5542 -1.0998
24233WAT     H198737  -1.132   9.458   5.181  0.5178  0.0698 -1.2949
24233WAT     H298738  -1.268   9.515   5.149  0.6785  1.2123 -0.0193
24233WAT    EPW98739  -1.219   9.450   5.179  0.4643  0.5770 -0.9830
24234WAT      O98740  -3.520   0.614   7.141 -0.2991  0.7822 -1.1904
24234WAT     H198741  -3.471   0.684   7.098  0.3725  0.0862 -1.6076
24234WAT     H298742  -3.501   0.624   7.234  0.5568  0.5977 -1.3371
24234WAT    EPW98743  -3.511   0.624   7.147 -0.0976  0.6661 -1.2648
24235WAT      O98744   3.127   2.878   6.100 -0.4260 -0.2637  0.7121
24235WAT     H198745   3.074   2.923   6.167 -0.7205 -0.9156  0.9308
24235WAT     H298746   3.149   2.946   6.037 -3.9664 -0.4564 -0.9623
24235WAT    EPW98747   3.123   2.893   6.101 -0.9317 -0.3752  0.5202
24236WAT      O98748   1.215   3.608   1.066 -0.9298  0.8627  0.1464
24236WAT     H198749   1.130   3.611   1.024 -0.8216  2.9786 -0.0295
24236WAT     H298750   1.196   3.587   1.158 -1.3981 -0.9120 -0.3179
24236WAT    EPW98751   1.201   3.606   1.073 -0.9773  0.9078  0.0620
24237WAT      O98752   5.293   2.546   4.087 -0.2503  0.5904 -0.6665
24237WAT     H198753   5.370   2.529   4.141  0.0790  1.9472 -0.6750
24237WAT     H298754   5.265   2.460   4.058 -0.3073 -0.1672  1.4681
24237WAT    EPW98755   5.300   2.533   4.090 -0.2143  0.6695 -0.3858
24238WAT      O98756   2.110   0.392   0.084  0.2493 -0.3497 -0.3731
24238WAT     H198757   2.154   0.444   0.016  1.4780 -0.6314  0.1771
24238WAT     H298758   2.103   0.451   0.159  1.7462 -0.9542  0.2916
24238WAT    EPW98759   2.115   0.407   0.085  0.6088 -0.4666 -0.2129
24239WAT      O98760  -6.164   7.500   7.768 -0.1936  0.5434 -0.0393
24239WAT     H198761  -6.207   7.431   7.818 -0.1716  0.6106  0.0746
24239WAT     H298762  -6.217   7.578   7.786 -0.1752  0.5716 -0.1072
24239WAT    EPW98763  -6.177   7.501   7.777 -0.1884  0.5560 -0.0329
24240WAT      O98764  -4.013   6.855   2.826  0.0413  0.6813 -0.2038
24240WAT     H198765  -3.995   6.820   2.913 -1.2470  1.0677  0.2365
24240WAT     H298766  -3.940   6.823   2.772 -0.7561 -2.2397  0.2929
24240WAT    EPW98767  -4.001   6.846   2.830 -0.2339  0.3471 -0.0801
24241WAT      O98768  -0.366   1.171   1.576  0.1391  0.6870  0.5654
24241WAT     H198769  -0.291   1.183   1.634 -0.0780  0.8291  0.8226
24241WAT     H298770  -0.439   1.213   1.623 -0.1087  0.5109  0.3405
24241WAT    EPW98771  -0.366   1.178   1.590  0.0778  0.6825  0.5696
24242WAT      O98772   3.577   4.578   1.064  0.2964  0.1495 -0.0590
24242WAT     H198773   3.606   4.576   1.156  0.5528  0.9910 -0.1120
24242WAT     H298774   3.484   4.602   1.070  1.0837  3.7460 -0.1111
24242WAT    EPW98775   3.568   4.581   1.077  0.4340  0.7348 -0.0729
24243WAT      O98776   3.817   3.106   3.831 -0.3424 -0.4277 -0.6139
24243WAT     H198777   3.770   3.072   3.908  2.0040 -1.9290  0.2719
24243WAT     H298778   3.790   3.048   3.760  0.8260 -1.8989  0.0950
24243WAT    EPW98779   3.807   3.094   3.832  0.1211 -0.8197 -0.4036
24244WAT      O98780  -0.866   2.540   7.523  0.6012  0.3858  0.2318
24244WAT     H198781  -0.802   2.599   7.483  0.2304 -0.9041 -2.5326
24244WAT     H298782  -0.821   2.455   7.528 -0.3132 -0.1448 -0.1816
24244WAT    EPW98783  -0.852   2.536   7.518  0.4317  0.1457 -0.1874
24245WAT      O98784  -0.331   2.192   8.142 -0.2898  1.2586 -0.7680
24245WAT     H198785  -0.372   2.254   8.203 -0.2839 -0.6494  1.2687
24245WAT     H298786  -0.364   2.106   8.169  1.1417  0.1645 -2.3109
24245WAT    EPW98787  -0.341   2.189   8.154 -0.1002  0.8627 -0.7029
24246WAT      O98788  -2.347   6.408   7.015  0.0298 -0.6483 -0.2998
24246WAT     H198789  -2.260   6.425   7.050  1.2755 -2.6345 -2.1901
24246WAT     H298790  -2.390   6.354   7.081  1.7056 -2.8750 -0.9042
24246WAT    EPW98791  -2.341   6.403   7.028  0.4151 -1.2040 -0.6287
24247WAT      O98792   6.318   0.252   4.432  0.2727  0.0279  0.0307
24247WAT     H198793   6.271   0.296   4.361  0.5343 -1.9592 -1.4531
24247WAT     H298794   6.397   0.305   4.445  2.5214 -1.7419 -4.2819
24247WAT    EPW98795   6.322   0.265   4.424  0.6037 -0.4676 -0.7339
24248WAT      O98796   0.733   6.510   3.166 -0.1456  1.0955  0.7017
24248WAT     H198797   0.654   6.459   3.184  2.1440 -1.5382  4.7584
24248WAT     H298798   0.753   6.492   3.074  0.0942 -5.2824  1.5338
24248WAT    EPW98799   0.725   6.501   3.156  0.1880 -0.0930  1.3465
24249WAT      O98800   1.742   4.002   2.924 -0.3707 -0.3251  0.8098
24249WAT     H198801   1.648   4.011   2.934 -0.2441  1.8860  0.5273
24249WAT     H298802   1.777   4.009   3.013 -0.4424 -1.0670  0.9054
24249WAT    EPW98803   1.734   4.004   2.937 -0.3635 -0.1314  0.7851
24250WAT      O98804   4.051   0.572   1.689 -0.2029  0.1315 -0.1561
24250WAT     H198805   3.964   0.577   1.729 -1.3092  2.0038 -2.5125
24250WAT     H298806   4.059   0.481   1.660  0.0831 -0.9239  2.8926
24250WAT    EPW98807   4.041   0.561   1.691 -0.3109  0.2392 -0.0648
24251WAT      O98808   1.753   2.170   2.745  0.0754  0.1678 -0.6759
24251WAT     H198809   1.737   2.167   2.651  1.3743 -1.6350 -0.8909
24251WAT     H298810   1.692   2.107   2.782 -0.9585  1.4207 -0.1880
24251WAT    EPW98811   1.743   2.161   2.737  0.1103  0.0951 -0.6399
24252WAT      O98812  -2.549   1.148   5.528  0.1766 -0.2441  0.2359
24252WAT     H198813  -2.575   1.137   5.436  1.1578 -0.2939 -0.0575
24252WAT     H298814  -2.627   1.126   5.578 -0.6382  0.6217 -0.6107
24252WAT    EPW98815  -2.562   1.143   5.522  0.1986 -0.1366  0.0856
24253WAT      O98816  -2.215   6.168   3.501  0.8274  0.7095 -0.0808
24253WAT     H198817  -2.277   6.126   3.441 -0.7375  0.4262  1.6760
24253WAT     H298818  -2.135   6.115   3.492 -0.1486 -0.8031 -0.1479
24253WAT    EPW98819  -2.212   6.155   3.492  0.4923  0.4728  0.1421
24254WAT      O98820  -3.180   3.201   6.148  0.0726 -0.8985 -0.5306
24254WAT     H198821  -3.175   3.256   6.070  0.7635 -0.1492  0.0322
24254WAT     H298822  -3.141   3.254   6.217  0.4560 -1.9769  0.0959
24254WAT    EPW98823  -3.174   3.215   6.146  0.2143 -0.9419 -0.3738
24255WAT      O98824   1.589   9.017   8.104  0.0964  0.1874 -0.4710
24255WAT     H198825   1.663   9.000   8.162 -1.1178 -1.4951  0.6674
24255WAT     H298826   1.552   9.099   8.137  0.8760  0.5422 -0.4597
24255WAT    EPW98827   1.594   9.026   8.116  0.0390  0.0124 -0.3195
24256WAT      O98828   6.432   5.038   1.979  0.7254 -0.3064  0.3934
24256WAT     H198829   6.348   5.008   2.013 -0.4146  2.4658  0.2330
24256WAT     H298830   6.480   4.957   1.959 -2.0332 -1.9831  0.0706
24256WAT    EPW98831   6.427   5.023   1.981  0.2115 -0.1621  0.3297
24257WAT      O98832   3.922   5.417   2.361  0.2779  0.2363  0.1604
24257WAT     H198833   3.990   5.460   2.308  0.2027 -1.4264 -1.3822
24257WAT     H298834   3.968   5.349   2.408 -0.0397  0.2435  0.4815
24257WAT    EPW98835   3.937   5.414   2.360  0.2261  0.0181 -0.0007
24258WAT      O98836   4.521   2.730   6.949 -0.2921  0.8839  0.9436
24258WAT     H198837   4.537   2.819   6.919  0.4068  0.6509  0.6211
24258WAT     H298838   4.558   2.674   6.882 -0.0847  0.3505  1.4896
24258WAT    EPW98839   4.528   2.734   6.936 -0.1726  0.7827  0.9730
24259WAT      O98840  -0.984   2.321   6.399 -0.8002 -0.2336 -0.7604
24259WAT     H198841  -1.025   2.349   6.481  1.0316 -0.9274  0.4674
24259WAT     H298842  -1.044   2.255   6.364 -0.7525 -1.2735  1.0049
24259WAT    EPW98843  -0.997   2.316   6.405 -0.5523 -0.4622 -0.3655
24260WAT      O98844   1.286   9.491   3.239  0.2408  0.1495 -1.0801
24260WAT     H198845   1.241   9.570   3.211  2.6218  2.3863  0.9364
24260WAT     H298846   1.346   9.472   3.167  0.2670  0.6994 -1.2068
24260WAT    EPW98847   1.288   9.499   3.225  0.5584  0.5169 -0.8309
24261WAT      O98848   2.005   9.466   7.669  0.1482 -0.3682 -0.1838
24261WAT     H198849   1.929   9.519   7.692 -0.5844 -0.6916 -1.7405
24261WAT     H298850   2.072   9.530   7.644  0.9472 -0.0093  2.5441
24261WAT    EPW98851   2.004   9.482   7.669  0.1570 -0.3633 -0.0293
24262WAT      O98852   5.699   2.315   0.616 -0.7400  0.0997  0.2595
24262WAT     H198853   5.611   2.296   0.645 -0.0864 -0.9941  1.6263
24262WAT     H298854   5.713   2.407   0.639 -1.2394  0.0484  0.7772
24262WAT    EPW98855   5.690   2.325   0.623 -0.7198 -0.0514  0.5081
24263WAT      O98856  -3.958   3.842   5.731  0.3270 -0.4453 -0.1758
24263WAT     H198857  -4.047   3.868   5.756 -0.6069 -2.6699 -0.8724
24263WAT     H298858  -3.948   3.876   5.642  0.2327 -0.0296 -0.0269
24263WAT    EPW98859  -3.968   3.850   5.722  0.1916 -0.6840 -0.2482
24264WAT      O98860  -6.895   9.831   8.527  0.1452  0.0534 -0.5047
24264WAT     H198861  -6.949   9.772   8.476 -0.0373 -0.1776 -0.0524
24264WAT     H298862  -6.938   9.916   8.521  0.1458  0.0353 -0.7607
24264WAT    EPW98863  -6.908   9.834   8.520  0.1211  0.0205 -0.4787
24265WAT      O98864   1.247   2.356   6.873  0.3543 -0.2003  0.0822
24265WAT     H198865   1.297   2.438   6.877 -1.3977  0.9714 -0.5355
24265WAT     H298866   1.253   2.329   6.782 -1.0639  0.6262 -0.2976
24265WAT    EPW98867   1.254   2.363   6.862 -0.0638  0.0633 -0.0494
24266WAT      O98868   1.983   7.504   4.821  0.6705 -0.6510  0.3700
24266WAT     H198869   1.943   7.517   4.907 -0.2430 -1.9277  0.1768
24266WAT     H298870   2.013   7.413   4.822 -1.1818 -1.3839 -1.3220
24266WAT    EPW98871   1.981   7.493   4.832  0.3057 -0.9162  0.1214
24267WAT      O98872  -0.500   7.362   4.246 -0.0084  0.1864 -0.3279
24267WAT     H198873  -0.575   7.344   4.303  0.4790  0.8708  0.5573
24267WAT     H298874  -0.507   7.456   4.226  0.1034  0.0576 -1.0014
24267WAT    EPW98875  -0.511   7.372   4.251  0.0706  0.2596 -0.2999
24268WAT      O98876   4.051   5.067   5.202 -0.1833  1.0369  0.2955
24268WAT     H198877   4.139   5.050   5.236 -0.5100  1.0320  1.1605
24268WAT     H298878   3.998   4.994   5.233 -0.6721  1.4596  0.4907
24268WAT    EPW98879   4.055   5.055   5.211 -0.2909  1.0920  0.4354
24269WAT      O98880   4.057   1.676   5.403  0.1347  1.0495 -0.0616
24269WAT     H198881   4.012   1.650   5.323 -1.1823 -1.0242  1.2474
24269WAT     H298882   4.046   1.770   5.408 -0.1029  1.1664 -2.0917
24269WAT    EPW98883   4.050   1.685   5.393 -0.0706  0.7914 -0.1566
24270WAT      O98884  -3.648   9.127   1.144  0.0324 -0.0709 -0.0928
24270WAT     H198885  -3.693   9.180   1.209  0.5062 -2.0879  2.0209
24270WAT     H298886  -3.718   9.086   1.094 -0.3368  1.7182 -1.1318
24270WAT    EPW98887  -3.663   9.128   1.146  0.0461 -0.1011  0.0489
24271WAT      O98888   1.442   6.339   0.975 -0.2699  0.7624 -0.1029
24271WAT     H198889   1.484   6.257   0.953  1.8413  1.1474  2.0599
24271WAT     H298890   1.377   6.353   0.906  1.6709 -0.9726 -2.4314
24271WAT    EPW98891   1.439   6.330   0.963  0.2645  0.5844 -0.1247
24272WAT      O98892   7.054   6.588   1.606  0.1997  0.3740 -1.1398
24272WAT     H198893   7.018   6.579   1.518 -0.1577 -0.6353 -0.9037
24272WAT     H298894   6.977   6.601   1.662  0.3396 -0.0516 -0.8466
24272WAT    EPW98895   7.039   6.589   1.602  0.1712  0.1848 -1.0700
24273WAT      O98896   1.123   8.505   7.040  0.0147 -0.1006 -0.0051
24273WAT     H198897   1.173   8.431   7.006 -0.0904 -0.4442  0.5832
24273WAT     H298898   1.104   8.558   6.963 -0.1680 -0.8389 -0.4767
24273WAT    EPW98899   1.127   8.503   7.025 -0.0232 -0.2432  0.0103
24274WAT      O98900   7.900   1.416   2.597  0.2475 -0.1999  0.0328
24274WAT     H198901   7.980   1.443   2.552  1.9404 -2.6442  1.2878
24274WAT     H298902   7.923   1.417   2.690 -1.4709 -0.1686  0.4983
24274WAT    EPW98903   7.913   1.419   2.603  0.2439 -0.5182  0.2596
24275WAT      O98904   1.833   8.489   0.044 -0.5359  0.1998  0.1341
24275WAT     H198905   1.836   8.397   0.069  0.7867  0.4291  0.9305
24275WAT     H298906   1.759   8.525   0.092  0.2684  0.0125  1.5614
24275WAT    EPW98907   1.824   8.482   0.054 -0.2553  0.2050  0.4274
24276WAT      O98908   3.698   2.335   4.846  0.1665 -0.2737  0.7978
24276WAT     H198909   3.684   2.419   4.889 -2.2448 -0.1987  0.0109
24276WAT     H298910   3.741   2.357   4.763  0.9443 -0.0098  1.2566
24276WAT    EPW98911   3.702   2.349   4.840 -0.0489 -0.2290  0.7546
24277WAT      O98912   8.784   0.607   0.971 -0.3358  0.7611 -0.5947
24277WAT     H198913   8.736   0.595   1.053  0.1334  1.5100 -0.1956
24277WAT     H298914   8.859   0.662   0.996  1.3492 -1.2355 -0.9703
24277WAT    EPW98915   8.788   0.613   0.985 -0.0520  0.5965 -0.5916
24278WAT      O98916   3.977   8.657   6.164  0.2599  0.0935 -0.3879
24278WAT     H198917   3.889   8.673   6.129  0.3701  1.6285 -0.0293
24278WAT     H298918   4.014   8.591   6.105 -1.0181 -0.3856 -0.7079
24278WAT    EPW98919   3.970   8.650   6.151  0.1059  0.2327 -0.3829
24279WAT      O98920   2.750   7.056   7.981  0.2038 -0.3298 -0.3747
24279WAT     H198921   2.845   7.069   7.982 -0.0326  2.0197 -1.3398
24279WAT     H298922   2.715   7.131   8.030 -1.2022 -0.0854 -1.6706
24279WAT    EPW98923   2.758   7.068   7.988 -0.0128  0.0124 -0.6728
24280WAT      O98924   7.643   1.570   0.940 -0.3720 -0.3972 -0.1105
24280WAT     H198925   7.595   1.557   1.021  0.3944 -0.4290  0.3434
24280WAT     H298926   7.676   1.659   0.945 -0.8552 -0.1746 -0.6849
24280WAT    EPW98927   7.641   1.580   0.951 -0.3345 -0.3720 -0.1265
24281WAT      O98928   6.947   6.008   2.399 -0.8739 -0.1057 -0.1806
24281WAT     H198929   6.997   6.066   2.457 -2.2038  2.5105 -1.4850
24281WAT     H298930   7.008   5.936   2.380  0.9809  0.9581  1.3241
24281WAT    EPW98931   6.962   6.006   2.404 -0.8044  0.3796 -0.1543
24282WAT      O98932   4.292   1.990   0.705  0.2851  0.0912 -0.2716
24282WAT     H198933   4.289   2.070   0.652  0.9292  1.3836  1.5259
24282WAT     H298934   4.350   1.931   0.657  0.8798  1.2228 -0.9775
24282WAT    EPW98935   4.299   1.993   0.692  0.4485  0.4109 -0.1277
24283WAT      O98936  -0.158   2.683   1.649  0.4037  0.0974  0.3841
24283WAT     H198937  -0.075   2.681   1.697  0.0709 -3.5952  1.1090
24283WAT     H298938  -0.213   2.744   1.698  2.2383  1.6247  0.6277
24283WAT    EPW98939  -0.155   2.691   1.662  0.6018 -0.1881  0.5119
24284WAT      O98940   0.947   9.946   8.064  0.6790 -0.2799  0.5107
24284WAT     H198941   0.966  10.005   7.991 -0.3790 -0.3505  0.1523
24284WAT     H298942   1.009   9.874   8.054 -0.9537 -1.5017 -1.7690
24284WAT    EPW98943   0.957   9.944   8.053  0.3242 -0.4501  0.1631
24285WAT      O98944  -2.448   7.024   8.663  0.0787 -0.2262  0.5412
24285WAT     H198945  -2.418   6.950   8.715  0.4520 -2.0646 -2.1231
24285WAT     H298946  -2.370   7.077   8.649 -0.4400  1.5862  3.6116
24285WAT    EPW98947  -2.434   7.021   8.668  0.0594 -0.2296  0.5946
24286WAT      O98948   6.689   2.862   3.117 -0.2745 -0.4243 -0.2643
24286WAT     H198949   6.747   2.864   3.194 -0.6420 -3.0490  0.2082
24286WAT     H298950   6.608   2.901   3.148  0.6430  1.7142 -0.4119
24286WAT    EPW98951   6.686   2.867   3.132 -0.2019 -0.4884 -0.2214
24287WAT      O98952  -1.565   3.845   4.854 -0.3078 -0.7610  0.3548
24287WAT     H198953  -1.655   3.845   4.821 -0.8946  1.2879  1.7096
24287WAT     H298954  -1.524   3.920   4.812 -0.0688 -0.1094  1.6896
24287WAT    EPW98955  -1.571   3.855   4.844 -0.3538 -0.4048  0.7095
24288WAT      O98956  -0.614   5.391   1.312  0.9864  0.5327  1.1212
24288WAT     H198957  -0.687   5.407   1.253  0.2451 -0.8620  1.6145
24288WAT     H298958  -0.536   5.417   1.263  0.2626  0.9551  0.1729
24288WAT    EPW98959  -0.613   5.397   1.298  0.7931  0.4046  1.0612
24289WAT      O98960  -3.340   9.804   4.312 -0.5018 -0.2822  1.0860
24289WAT     H198961  -3.377   9.838   4.394 -0.7149 -0.9607  1.2737
24289WAT     H298962  -3.393   9.728   4.291 -1.8729  1.1082 -0.8613
24289WAT    EPW98963  -3.352   9.799   4.320 -0.7107 -0.1884  0.8540
24290WAT      O98964   3.097   6.777   7.711 -0.2034 -0.6977 -0.8725
24290WAT     H198965   3.131   6.797   7.798 -0.7840  2.0732 -1.1667
24290WAT     H298966   3.173   6.751   7.660  0.3662 -0.9622  0.0916
24290WAT    EPW98967   3.111   6.776   7.716 -0.2048 -0.3669 -0.7842
24291WAT      O98968   4.336   9.561   2.881  0.3294  0.4443  0.3244
24291WAT     H198969   4.391   9.621   2.831 -2.8867  2.8387 -0.6668
24291WAT     H298970   4.300   9.500   2.816 -0.7638  1.0337  0.3590
24291WAT    EPW98971   4.339   9.561   2.866 -0.2389  0.8378  0.1982
24292WAT      O98972   5.548   7.404   2.991  0.1187 -0.3455 -0.4843
24292WAT     H198973   5.521   7.445   3.073 -0.2017 -2.7815  0.7259
24292WAT     H298974   5.498   7.322   2.987  1.0944 -0.9262 -2.4669
24292WAT    EPW98975   5.538   7.398   3.001  0.2050 -0.7434 -0.5862
24293WAT      O98976  -3.128   4.951   8.020  0.3736 -0.8808 -0.6100
24293WAT     H198977  -3.100   4.889   8.087 -0.8740 -1.0086 -0.1785
24293WAT     H298978  -3.111   5.037   8.059 -1.0366 -0.9405  0.2311
24293WAT    EPW98979  -3.122   4.954   8.034  0.0231 -0.9053 -0.4420
24294WAT      O98980  -2.502   7.776   5.225  0.3403  0.1431  0.2974
24294WAT     H198981  -2.521   7.717   5.298 -1.0925 -0.3415 -0.4212
24294WAT     H298982  -2.568   7.845   5.232  0.5273  0.3834 -0.2172
24294WAT    EPW98983  -2.513   7.777   5.235  0.1758  0.1109  0.1347
24295WAT      O98984   1.692   1.909   2.252  0.6909  0.2982  0.2270
24295WAT     H198985   1.644   1.991   2.268 -0.0750 -0.0680 -0.1325
24295WAT     H298986   1.653   1.874   2.172  0.8077 -0.5729  0.5478
24295WAT    EPW98987   1.680   1.915   2.243  0.6053  0.1351  0.2218
24296WAT      O98988  -0.080   9.646   2.775  0.2851 -0.3252 -0.2540
24296WAT     H198989  -0.095   9.699   2.696  1.6290  2.2628  1.0920
24296WAT     H298990  -0.168   9.617   2.800 -0.9372  3.1083  0.0477
24296WAT    EPW98991  -0.094   9.649   2.768  0.3011  0.4692 -0.0367
24297WAT      O98992  -0.589   1.889   0.740  0.4139  0.8364 -0.0055
24297WAT     H198993  -0.664   1.833   0.761  1.3787 -0.0345  1.2225
24297WAT     H298994  -0.619   1.940   0.665 -1.3119  0.3185  0.2767
24297WAT    EPW98995  -0.603   1.888   0.733  0.3135  0.6532  0.1937
24298WAT      O98996   3.697   4.413   3.928 -0.5958 -0.2459 -0.1899
24298WAT     H198997   3.674   4.326   3.893 -0.1132 -1.1408  1.6129
24298WAT     H298998   3.613   4.452   3.953 -1.2464  1.3274 -4.0723
24298WAT    EPW98999   3.683   4.406   3.926 -0.6180 -0.1566 -0.4642
24299WAT      O99000   1.980   1.041   7.458  0.0777 -0.1158  0.6312
24299WAT     H199001   1.991   1.040   7.553 -3.0176 -0.0254  1.1057
24299WAT     H299002   1.885   1.050   7.446  0.3184 -0.8773 -2.4768
24299WAT    EPW99003   1.969   1.042   7.469 -0.2988 -0.2043  0.2837
24300WAT      O99004   0.181   9.237   2.618  0.2909 -0.5759 -0.2601
24300WAT     H199005   0.235   9.224   2.695 -0.6981  0.2583  0.5999
24300WAT     H299006   0.236   9.286   2.557  0.5493  0.1646  0.5528
24300WAT    EPW99007   0.195   9.241   2.620  0.1945 -0.3681 -0.0395
24301WAT      O99008   2.610   5.058   1.887  0.4771 -0.2881 -0.1452
24301WAT     H199009   2.541   5.035   1.824  0.8804  2.0578 -1.5860
24301WAT     H299010   2.689   5.064   1.834  0.9215  1.3264  0.6371
24301WAT    EPW99011   2.611   5.056   1.871  0.5889  0.2344 -0.2321
24302WAT      O99012  -1.893   3.669   1.264  0.2840  0.4520 -0.3128
24302WAT     H199013  -1.889   3.614   1.185  1.4044  0.0128  0.0336
24302WAT     H299014  -1.803   3.670   1.297 -0.7120 -2.5919  3.1514
24302WAT    EPW99015  -1.880   3.662   1.258  0.3004 -0.0074  0.1898
24303WAT      O99016   1.974   4.283   2.246 -0.3476  0.0637 -0.2690
24303WAT     H199017   2.032   4.337   2.193  0.3449  0.7748  1.1400
24303WAT     H299018   1.925   4.231   2.183  2.0355 -0.8095 -1.5299
24303WAT    EPW99019   1.975   4.284   2.231  0.0581  0.0424 -0.2494
24304WAT      O99020   6.051   0.243   2.538 -0.2027 -0.3569 -0.2803
24304WAT     H199021   6.029   0.231   2.445 -0.7301 -0.0817 -0.1984
24304WAT     H299022   5.969   0.223   2.584  0.0510 -0.4705  0.1258
24304WAT    EPW99023   6.037   0.239   2.532 -0.2389 -0.3355 -0.2159
24305WAT      O99024   4.449   2.343   3.485  0.1355 -0.1702 -0.2405
24305WAT     H199025   4.430   2.264   3.536  0.9989  0.4108  1.0626
24305WAT     H299026   4.405   2.413   3.533  2.9351  0.7558  1.1940
24305WAT    EPW99027   4.441   2.342   3.498  0.6187  0.0285  0.1206
24306WAT      O99028   8.851   3.970   0.652 -0.1296 -0.5111 -0.8532
24306WAT     H199029   8.939   3.992   0.622  0.5964  0.6518  1.8431
24306WAT     H299030   8.860   3.884   0.693 -0.4450 -0.7228 -1.2138
24306WAT    EPW99031   8.864   3.962   0.653 -0.0758 -0.3856 -0.5451
24307WAT      O99032   2.245   5.203   6.911 -0.0907 -0.2737  0.1429
24307WAT     H199033   2.292   5.126   6.941 -0.9771 -1.2860 -0.9590
24307WAT     H299034   2.312   5.260   6.874  0.4603 -1.0131 -0.0184
24307WAT    EPW99035   2.260   5.200   6.910 -0.1349 -0.5045 -0.0236
24308WAT      O99036   8.135   4.424   0.583 -0.3849 -0.4727  1.1697
24308WAT     H199037   8.093   4.495   0.632 -0.6815  1.8328 -2.0962
24308WAT     H299038   8.067   4.357   0.574 -1.6640  0.8596  0.5249
24308WAT    EPW99039   8.121   4.425   0.588 -0.5927  0.0072  0.6539
24309WAT      O99040   7.498   2.503   0.416 -0.0633 -0.0232 -0.3692
24309WAT     H199041   7.576   2.477   0.368  0.5348 -1.5565  1.3175
24309WAT     H299042   7.438   2.429   0.407  0.7965 -1.2546  2.6738
24309WAT    EPW99043   7.500   2.490   0.409  0.1287 -0.3878  0.2546
24310WAT      O99044  -1.316   3.114   5.818  0.0829  0.0723  0.1089
24310WAT     H199045  -1.407   3.123   5.847  0.3199 -0.2860  0.9829
24310WAT     H299046  -1.311   3.024   5.785 -0.4322  0.7584 -1.9971
24310WAT    EPW99047  -1.327   3.103   5.817  0.0461  0.1154 -0.0536
24311WAT      O99048  -4.252   7.312   8.919  0.4502 -0.6209  0.0574
24311WAT     H199049  -4.157   7.305   8.931  0.6189  0.7503 -0.2858
24311WAT     H299050  -4.269   7.406   8.920 -1.0395 -0.8673  1.0490
24311WAT    EPW99051  -4.242   7.324   8.921  0.2763 -0.4725  0.1431
24312WAT      O99052   2.671   1.329   5.369 -0.0816 -0.1964  0.0546
24312WAT     H199053   2.607   1.362   5.307 -1.1726  1.0347  1.7524
24312WAT     H299054   2.743   1.296   5.315 -1.2286  0.2905 -1.8351
24312WAT    EPW99055   2.672   1.329   5.354 -0.3768  0.0303  0.0293
24313WAT      O99056   3.332   5.632   4.020 -0.2058 -0.6716 -0.1030
24313WAT     H199057   3.240   5.650   4.000 -0.1310  0.6415  0.6184
24313WAT     H299058   3.362   5.710   4.067  0.7070 -1.9484  1.5597
24313WAT    EPW99059   3.324   5.645   4.024 -0.0756 -0.6666  0.2115
24314WAT      O99060  -4.350  10.147   7.896 -0.1879  0.1597 -0.6928
24314WAT     H199061  -4.420  10.119   7.954 -0.0541  0.2885 -0.4699
24314WAT     H299062  -4.394  10.200   7.829  0.0660  3.0355  1.2448
24314WAT    EPW99063  -4.365  10.150   7.895 -0.1369  0.5560 -0.4079
24315WAT      O99064   4.830   3.895   1.559 -0.0171  0.0600 -0.4117
24315WAT     H199065   4.922   3.903   1.585 -0.4151  0.3205  0.9987
24315WAT     H299066   4.833   3.855   1.472  1.4577  0.8331 -0.7476
24315WAT    EPW99067   4.842   3.891   1.551  0.1252  0.1962 -0.2700
24316WAT      O99068  -1.058   6.886   0.946 -0.0437 -0.2133  0.1203
24316WAT     H199069  -0.986   6.872   1.007  0.8304  1.1028 -0.5605
24316WAT     H299070  -1.072   6.981   0.946 -2.6994 -0.4980  1.2181
24316WAT    EPW99071  -1.050   6.896   0.954 -0.2788 -0.0772  0.1753
24317WAT      O99072   1.061   9.061   7.658  0.5090  0.1671 -0.0360
24317WAT     H199073   1.015   9.134   7.617 -0.2477 -1.3568 -2.0710
24317WAT     H299074   1.027   8.983   7.613  3.0710 -1.2484  0.2896
24317WAT    EPW99075   1.051   9.060   7.647  0.7471 -0.2208 -0.2615
24318WAT      O99076  -0.172   5.799   8.002  0.8999 -0.3138 -1.5363
24318WAT     H199077  -0.093   5.758   8.038  1.3928  0.4202 -1.7762
24318WAT     H299078  -0.242   5.737   8.024  1.5736 -1.1131 -1.5621
24318WAT    EPW99079  -0.171   5.785   8.010  1.0538 -0.3223 -1.5712
24319WAT      O99080   4.372   0.224   4.020 -0.5657  0.4624  0.0263
24319WAT     H199081   4.445   0.265   4.066 -0.0259 -1.7866  1.3181
24319WAT     H299082   4.298   0.233   4.080 -0.8758  1.0583 -0.4422
24319WAT    EPW99083   4.372   0.230   4.034 -0.5355  0.2444  0.1352
24320WAT      O99084   2.293   9.165   0.568 -0.4523 -0.3474  0.4392
24320WAT     H199085   2.387   9.160   0.557 -0.5784 -1.0414 -0.4384
24320WAT     H299086   2.280   9.213   0.650  0.6370  0.5778  0.0797
24320WAT    EPW99087   2.303   9.171   0.577 -0.3252 -0.3166  0.2761
24321WAT      O99088   0.868   8.900   5.642  0.0010  0.1527 -0.1793
24321WAT     H199089   0.892   8.989   5.668  0.4454  0.2395 -0.8633
24321WAT     H299090   0.849   8.855   5.725  3.8759 -0.3221  0.6462
24321WAT    EPW99091   0.869   8.905   5.657  0.5707  0.1016 -0.1607
24322WAT      O99092  -3.220  10.229   0.002 -0.0361  0.1903 -0.0985
24322WAT     H199093  -3.278  10.156   0.027 -0.1178  0.2636 -0.0740
24322WAT     H299094  -3.134  10.203   0.036 -0.3509  0.7739  1.2333
24322WAT    EPW99095  -3.216  10.216   0.010 -0.0883  0.2770  0.0804
24323WAT      O99096   3.629   5.629   8.362  0.1746  0.8134 -0.0453
24323WAT     H199097   3.586   5.555   8.320  1.2701 -0.0491  0.2970
24323WAT     H299098   3.710   5.642   8.312  2.1057 -0.9932  2.3487
24323WAT    EPW99099   3.634   5.621   8.350  0.5738  0.4611  0.3157
24324WAT      O99100  -0.310   3.798   0.482 -0.1116  0.0951 -0.4916
24324WAT     H199101  -0.257   3.827   0.407 -1.4730 -0.8397 -1.8700
24324WAT     H299102  -0.269   3.717   0.510  0.8358  0.8158  0.2829
24324WAT    EPW99103  -0.297   3.791   0.476 -0.1662  0.0669 -0.5712
24325WAT      O99104  -4.937   3.486   6.692  0.6668 -0.1815  0.5554
24325WAT     H199105  -5.026   3.473   6.726  0.5012  2.4541  1.3327
24325WAT     H299106  -4.942   3.454   6.602 -0.1820 -2.8939  1.4528
24325WAT    EPW99107  -4.949   3.480   6.685  0.5331 -0.1916  0.7763
24326WAT      O99108   5.147   8.706   4.335  0.1003  0.1883 -0.2514
24326WAT     H199109   5.124   8.756   4.413  1.3624 -2.0818  1.7238
24326WAT     H299110   5.088   8.630   4.336  1.9365 -1.3223  0.1768
24326WAT    EPW99111   5.136   8.702   4.345  0.5088 -0.3104  0.0653
24327WAT      O99112   3.900   1.216   4.140  0.0495  0.8376  0.8163
24327WAT     H199113   3.919   1.194   4.048 -0.4823 -2.3312  1.3617
24327WAT     H299114   3.959   1.289   4.159  0.3984  1.4080 -1.9166
24327WAT    EPW99115   3.910   1.223   4.130  0.0254  0.4948  0.5279
24328WAT      O99116   0.718   5.262   8.393  0.4257  0.3172 -0.5700
24328WAT     H199117   0.683   5.288   8.307  1.8863  2.3050 -0.6232
24328WAT     H299118   0.678   5.324   8.454 -1.2424 -1.5971  0.3734
24328WAT    EPW99119   0.708   5.274   8.389  0.3983  0.3269 -0.4525
24329WAT      O99120   4.010   1.969   2.678  0.6277  0.5035  0.1231
24329WAT     H199121   4.096   2.009   2.694  0.5830  0.6320  0.0536
24329WAT     H299122   3.976   2.017   2.602  1.2867 -0.7800 -1.0297
24329WAT    EPW99123   4.017   1.981   2.670  0.7088  0.3512 -0.0381
24330WAT      O99124   4.770   1.718   3.285 -0.3092 -0.2547  0.5440
24330WAT     H199125   4.703   1.679   3.228 -1.3943 -0.4533  1.8999
24330WAT     H299126   4.851   1.675   3.259 -0.5128  0.6256 -1.7390
24330WAT    EPW99127   4.772   1.707   3.274 -0.4790 -0.1648  0.4216
24331WAT      O99128  -2.761   2.518   4.244  0.2424  0.5751  0.5856
24331WAT     H199129  -2.837   2.522   4.302 -0.7828  2.3482 -0.7734
24331WAT     H299130  -2.747   2.609   4.217  1.9533  0.0804 -0.3341
24331WAT    EPW99131  -2.769   2.531   4.248  0.3328  0.7437  0.2851
24332WAT      O99132   3.059   8.158   0.383 -0.4318 -0.2040  0.3378
24332WAT     H199133   2.991   8.170   0.450  1.5340  3.8473  1.9647
24332WAT     H299134   3.012   8.124   0.307 -3.8704  0.4001  1.9747
24332WAT    EPW99135   3.044   8.155   0.382 -0.6261  0.4101  0.7683
24333WAT      O99136   7.715   3.206   0.568 -0.4348 -0.5572 -0.4117
24333WAT     H199137   7.681   3.117   0.576 -0.8014 -0.5637 -1.8835
24333WAT     H299138   7.643   3.256   0.530  0.4371 -0.0643 -1.4527
24333WAT    EPW99139   7.701   3.201   0.564 -0.3681 -0.4930 -0.7431
24334WAT      O99140   3.034   2.125   8.097 -0.0707 -0.0794  0.0403
24334WAT     H199141   3.029   2.206   8.146  0.4638  0.2997 -0.5080
24334WAT     H299142   3.085   2.147   8.019 -1.7282 -0.4022 -1.2021
24334WAT    EPW99143   3.040   2.138   8.093 -0.2189 -0.0721 -0.1965
24335WAT      O99144   5.079   2.369   7.041  0.4363  0.0326  0.0464
24335WAT     H199145   4.991   2.373   7.077 -0.2977  1.7628 -1.7666
24335WAT     H299146   5.120   2.294   7.084 -1.9264 -0.8513  0.8626
24335WAT    EPW99147   5.073   2.360   7.051  0.0279  0.1441 -0.0849
24336WAT      O99148  -2.945   7.283   8.187 -0.9635 -0.3831  0.8138
24336WAT     H199149  -2.998   7.363   8.188  1.0751  1.0750 -0.4032
24336WAT     H299150  -2.896   7.289   8.105  2.5446 -0.6115  2.7219
24336WAT    EPW99151  -2.946   7.294   8.176 -0.2320 -0.2210  0.9050
24337WAT      O99152  -0.829   9.031   4.751  0.1091  0.0886  0.0912
24337WAT     H199153  -0.867   9.108   4.793 -0.0047  0.1495 -0.1236
24337WAT     H299154  -0.897   9.000   4.691 -1.7065 -2.7807  3.2930
24337WAT    EPW99155  -0.843   9.037   4.748 -0.1454 -0.2823  0.4852
24338WAT      O99156   1.996   3.509   3.515  0.8470  0.9875  0.3339
24338WAT     H199157   2.035   3.478   3.597 -1.7356 -3.5128  0.1675
24338WAT     H299158   1.923   3.565   3.543 -0.6462 -1.3178  1.3134
24338WAT    EPW99159   1.991   3.512   3.530  0.3095  0.0899  0.4412
24339WAT      O99160   0.611   8.572   5.541 -0.0340  0.1336  0.3268
24339WAT     H199161   0.689   8.628   5.543 -0.9413  1.4533  0.4924
24339WAT     H299162   0.629   8.508   5.472  1.3906  0.1011  0.7029
24339WAT    EPW99163   0.624   8.571   5.532  0.0342  0.3033  0.3982
24340WAT      O99164  -0.984   6.025   7.397 -0.4962  0.1822  0.2063
24340WAT     H199165  -0.979   5.953   7.334  2.0437 -0.5421  1.1504
24340WAT     H299166  -1.003   5.983   7.480 -1.3867  0.8936  0.3820
24340WAT    EPW99167  -0.986   6.010   7.399 -0.2787  0.1805  0.3538
24341WAT      O99168   2.934   5.140   0.907 -1.2109 -0.2209  0.4862
24341WAT     H199169   3.003   5.155   0.972  1.0724  1.9566 -2.1890
24341WAT     H299170   2.890   5.061   0.937  1.2980 -0.7391  3.2962
24341WAT    EPW99171   2.937   5.132   0.920 -0.5789 -0.0019  0.5040
24342WAT      O99172  -2.936   9.750   0.897  0.3529 -0.5469 -0.0947
24342WAT     H199173  -2.885   9.701   0.833  0.2047 -0.8833  0.0472
24342WAT     H299174  -2.875   9.767   0.969  0.9113  0.9610 -0.8727
24342WAT    EPW99175  -2.921   9.746   0.898  0.4069 -0.3920 -0.1786
24343WAT      O99176   3.440   5.595   8.894  0.6646  0.1067  0.6791
24343WAT     H199177   3.384   5.668   8.920 -0.6155 -0.1299 -1.2861
24343WAT     H299178   3.509   5.635   8.841  1.7344  0.2265  2.0773
24343WAT    EPW99179   3.442   5.609   8.891  0.6368  0.0913  0.6042
24344WAT      O99180  -4.359   9.003   5.367  0.4934 -0.3902  0.9344
24344WAT     H199181  -4.377   9.032   5.278  0.0350 -1.8998  0.5003
24344WAT     H299182  -4.290   9.061   5.398  0.7497  0.0781 -0.4452
24344WAT    EPW99183  -4.352   9.015   5.359  0.4668 -0.5274  0.6952
24345WAT      O99184   5.318   4.297   1.704  0.6400 -0.8125 -0.3933
24345WAT     H199185   5.281   4.222   1.659 -1.3655  0.2727 -0.6727
24345WAT     H299186   5.274   4.299   1.789  0.9395 -0.1740 -0.2421
24345WAT    EPW99187   5.307   4.288   1.709  0.4151 -0.5851 -0.4103
24346WAT      O99188  -3.832   4.713   7.041  0.4177  0.2472 -0.2425
24346WAT     H199189  -3.793   4.791   7.001 -0.0641  1.3064  1.2619
24346WAT     H299190  -3.780   4.640   7.006  0.9362  1.2339 -1.6179
24346WAT    EPW99191  -3.820   4.714   7.031  0.4226  0.5169 -0.2255
24347WAT      O99192  -3.035   8.506   6.185  0.4840  0.2267 -0.2240
24347WAT     H199193  -2.984   8.485   6.107  1.5354 -0.6158  0.6677
24347WAT     H299194  -2.976   8.558   6.240 -0.4255  1.2907 -0.1959
24347WAT    EPW99195  -3.021   8.510   6.182  0.5027  0.2561 -0.1028
24348WAT      O99196  -1.223   0.944   3.471  0.0314 -0.0775 -0.1531
24348WAT     H199197  -1.134   0.952   3.435  0.1487  0.4092  0.2401
24348WAT     H299198  -1.257   1.033   3.469 -0.3279 -0.2118  0.0157
24348WAT    EPW99199  -1.215   0.957   3.466 -0.0005 -0.0310 -0.0790
24349WAT      O99200  -7.299   8.600   7.441  0.0526  0.1135  0.1983
24349WAT     H199201  -7.294   8.511   7.474 -2.7837  0.4627  1.8471
24349WAT     H299202  -7.246   8.651   7.503 -1.1337  0.0359  1.3008
24349WAT    EPW99203  -7.291   8.595   7.454 -0.4780  0.1497  0.5610
24350WAT      O99204  -1.239   8.414   0.924  0.4275  1.2791 -0.0268
24350WAT     H199205  -1.284   8.444   0.846  1.3875  0.2629 -1.0072
24350WAT     H299206  -1.308   8.380   0.981 -0.2288  1.6050 -0.6222
24350WAT    EPW99207  -1.254   8.414   0.921  0.4676  1.1883 -0.2347
24351WAT      O99208  -4.478   1.253   7.653 -0.1917  1.2328 -0.5331
24351WAT     H199209  -4.423   1.213   7.585 -1.7259 -0.5802 -0.8036
24351WAT     H299210  -4.476   1.347   7.634  4.3683  1.6178  0.6715
24351WAT    EPW99211  -4.471   1.260   7.641  0.2074  1.0444 -0.4098
24352WAT      O99212  -4.087   9.147   4.556 -0.5503  0.3029 -0.7216
24352WAT     H199213  -4.109   9.193   4.475 -2.6624 -0.6941 -0.7763
24352WAT     H299214  -4.018   9.086   4.530 -1.6986 -0.5301 -1.9991
24352WAT    EPW99215  -4.081   9.145   4.542 -0.9804  0.0615 -0.8974
24353WAT      O99216   1.569   9.281   5.628  0.3300  0.2030 -0.5472
24353WAT     H199217   1.615   9.342   5.570  1.2521  0.9305  0.8921
24353WAT     H299218   1.636   9.251   5.689 -0.7766  0.1269  0.6840
24353WAT    EPW99219   1.584   9.285   5.628  0.3057  0.2894 -0.1950
24354WAT      O99220   0.027   6.408   3.068 -0.1095 -0.1658  0.1581
24354WAT     H199221   0.009   6.314   3.064  3.8885 -1.0468 -2.0427
24354WAT     H299222  -0.051   6.448   3.029 -1.6758 -2.5822  0.5645
24354WAT    EPW99223   0.014   6.400   3.062  0.2112 -0.6006 -0.0786
24355WAT      O99224  -2.399   7.088   6.562 -0.1661 -0.6115  0.3965
24355WAT     H199225  -2.468   7.152   6.580  0.5244 -0.0088  0.9307
24355WAT     H299226  -2.407   7.024   6.633  0.4607  0.0003  1.0243
24355WAT    EPW99227  -2.409   7.088   6.574  0.0076 -0.4513  0.5498
24356WAT      O99228  -1.435   0.533   2.934  0.2091  0.3903  0.1967
24356WAT     H199229  -1.364   0.589   2.964 -0.5180  1.0915  0.6108
24356WAT     H299230  -1.390   0.457   2.895  1.2836  2.2080 -2.3987
24356WAT    EPW99231  -1.420   0.530   2.933  0.2549  0.7226 -0.0911
24357WAT      O99232  -3.042   2.520   7.747 -0.9194  0.3882  0.1155
24357WAT     H199233  -3.053   2.585   7.816 -2.0763 -0.0369  0.3408
24357WAT     H299234  -3.094   2.445   7.776 -0.7685 -0.0967 -0.8435
24357WAT    EPW99235  -3.050   2.519   7.760 -1.0521  0.2681  0.0186
24358WAT      O99236  -1.036   7.975   6.518  0.7904  0.4458  0.3486
24358WAT     H199237  -1.110   7.963   6.578 -1.4616 -1.8165 -2.6218
24358WAT     H299238  -1.059   8.053   6.467  0.2108 -0.4360 -0.7846
24358WAT    EPW99239  -1.049   7.984   6.519  0.4169  0.0310 -0.1926
24359WAT      O99240   5.634   4.738   3.530 -0.0393  0.9875 -0.1227
24359WAT     H199241   5.703   4.672   3.519 -1.5584 -0.6347 -0.3407
24359WAT     H299242   5.608   4.731   3.621 -0.1356  1.3924 -0.1167
24359WAT    EPW99243   5.640   4.729   3.541 -0.2522  0.8271 -0.1507
24360WAT      O99244   5.704   5.064   4.943  0.0447 -0.3584  0.0428
24360WAT     H199245   5.688   5.109   5.026  1.0187  0.6267 -0.2865
24360WAT     H299246   5.797   5.078   4.925 -0.2516 -0.1526 -1.4577
24360WAT    EPW99247   5.714   5.072   4.952  0.1342 -0.2015 -0.1986
24361WAT      O99248  -4.057   6.957   8.453  0.4513 -0.0925  0.4204
24361WAT     H199249  -4.047   6.863   8.439 -0.3558 -0.1333  0.0415
24361WAT     H299250  -4.105   6.964   8.536  0.7575 -0.0051  0.5917
24361WAT    EPW99251  -4.062   6.946   8.462  0.3853 -0.0863  0.3929
24362WAT      O99252  -2.336   6.227   4.915  0.2878  0.7122  0.4737
24362WAT     H199253  -2.369   6.148   4.873  0.5765  0.8414 -0.0068
24362WAT     H299254  -2.397   6.245   4.986  1.1609 -0.9413  1.7125
24362WAT    EPW99255  -2.348   6.219   4.919  0.4410  0.5112  0.5736
24363WAT      O99256  -1.414   2.842   4.587  0.0569  0.8505 -0.7627
24363WAT     H199257  -1.509   2.830   4.585  0.0182  1.1172 -0.5249
24363WAT     H299258  -1.381   2.780   4.522  0.0813 -2.5001  2.1724
24363WAT    EPW99259  -1.422   2.832   4.578  0.0551  0.4437 -0.3440
24364WAT      O99260  -4.666   7.310   3.932  0.1666  0.3203  0.2510
24364WAT     H199261  -4.720   7.234   3.954 -0.4848  0.3698 -1.0164
24364WAT     H299262  -4.729   7.373   3.896  0.7802  1.2507  0.7787
24364WAT    EPW99263  -4.682   7.308   3.930  0.1616  0.4494  0.1534
24365WAT      O99264   4.189   7.199   1.142 -0.3361 -0.1694 -0.4129
24365WAT     H199265   4.172   7.115   1.186 -2.4813 -0.9833 -2.5915
24365WAT     H299266   4.237   7.176   1.063  1.3364  1.0137  0.1978
24365WAT    EPW99267   4.193   7.185   1.138 -0.3982 -0.1209 -0.6197
24366WAT      O99268   7.787   4.460  -0.022 -0.2641 -0.5561  0.1836
24366WAT     H199269   7.879   4.435  -0.030  0.2259  0.9748  0.7117
24366WAT     H299270   7.771   4.462   0.073  0.0222  1.9619  0.2537
24366WAT    EPW99271   7.797   4.457  -0.010 -0.1616 -0.0222  0.2625
24367WAT      O99272   3.671   0.651   5.420 -0.0329  0.0833 -0.8399
24367WAT     H199273   3.621   0.573   5.444  1.5506 -0.0194  2.6173
24367WAT     H299274   3.623   0.723   5.461  0.0007  0.6133 -1.7125
24367WAT    EPW99275   3.658   0.650   5.428  0.1804  0.1397 -0.4990
24368WAT      O99276  -2.699   7.709   2.353  0.1365 -0.1507  0.3435
24368WAT     H199277  -2.706   7.632   2.295 -0.6435  1.3305 -1.6399
24368WAT     H299278  -2.661   7.777   2.297 -1.9797  1.7766  1.1081
24368WAT    EPW99279  -2.694   7.708   2.338 -0.2453  0.2990  0.1826
24369WAT      O99280  -4.004   5.278   8.195  0.4329  0.0395  0.0383
24369WAT     H199281  -4.028   5.187   8.181 -1.8339  0.6309 -0.3561
24369WAT     H299282  -3.921   5.288   8.149  0.7746 -1.8411  0.1853
24369WAT    EPW99283  -3.996   5.268   8.187  0.1789 -0.1304  0.0057
24370WAT      O99284   0.774   4.980   5.216  0.1462 -0.1837 -0.6411
24370WAT     H199285   0.741   5.059   5.258  0.8591  0.8696 -1.9936
24370WAT     H299286   0.851   4.955   5.269 -0.1993 -0.1090 -0.0921
24370WAT    EPW99287   0.780   4.987   5.229  0.1946 -0.0350 -0.7470
24371WAT      O99288  -0.454   0.553   2.473 -0.3430  0.7583 -0.1368
24371WAT     H199289  -0.524   0.570   2.410 -2.3782 -0.9076  1.5009
24371WAT     H299290  -0.487   0.588   2.555 -0.1055 -1.5924  1.0502
24371WAT    EPW99291  -0.468   0.560   2.475 -0.5801  0.2286  0.2358
24372WAT      O99292   4.318   2.540   1.712 -0.5735 -0.5737  0.2543
24372WAT     H199293   4.250   2.509   1.651 -0.2482 -1.6408  0.4109
24372WAT     H299294   4.348   2.623   1.674 -2.1569  0.0704  0.3293
24372WAT    EPW99295   4.313   2.547   1.699 -0.7396 -0.6294  0.2848
24373WAT      O99296  -2.372   3.587   4.136  0.3494  0.1529  0.1639
24373WAT     H199297  -2.447   3.645   4.145 -0.5032 -0.9865  0.5837
24373WAT     H299298  -2.396   3.509   4.186  1.7547 -0.2892  0.1894
24373WAT    EPW99299  -2.385   3.585   4.144  0.4221 -0.0557  0.2224
24374WAT      O99300  -1.142   6.528   2.384  0.1367  0.0982  0.7505
24374WAT     H199301  -1.147   6.434   2.368 -0.5761  0.3455 -0.5919
24374WAT     H299302  -1.057   6.554   2.348 -0.5668  0.2974 -0.8477
24374WAT    EPW99303  -1.132   6.519   2.377 -0.0501  0.1569  0.3626
24375WAT      O99304  -3.337   8.608   4.821 -0.2026 -0.2922 -0.4095
24375WAT     H199305  -3.272   8.558   4.771 -0.7208 -1.9117  0.4741
24375WAT     H299306  -3.319   8.586   4.912 -0.6364  0.9520  0.0000
24375WAT    EPW99307  -3.326   8.599   4.826 -0.3281 -0.3419 -0.2391
24376WAT      O99308  -4.404   9.248   7.586 -0.3401  0.8048 -0.1470
24376WAT     H199309  -4.490   9.207   7.597  1.4144 -3.2019  0.5880
24376WAT     H299310  -4.368   9.208   7.507  1.9461 -0.0286  1.1965
24376WAT    EPW99311  -4.410   9.237   7.577  0.1929  0.1669  0.1273
24377WAT      O99312   2.845   1.263   2.001 -0.4907 -0.6178  0.3234
24377WAT     H199313   2.813   1.184   2.046  0.1080 -0.9808  0.1285
24377WAT     H299314   2.766   1.308   1.973 -0.8752 -0.4622  1.5955
24377WAT    EPW99315   2.830   1.258   2.004 -0.4624 -0.6452  0.4655
24378WAT      O99316  -4.303  10.053   2.151 -0.0995 -0.2173 -0.6047
24378WAT     H199317  -4.292  10.067   2.245 -0.1311 -0.4725 -0.5615
24378WAT     H299318  -4.246  10.118   2.110 -1.0851  0.7876 -0.4326
24378WAT    EPW99319  -4.294  10.063   2.158 -0.2339 -0.1183 -0.5764
24379WAT      O99320   4.230   5.268   1.482 -0.0915  0.0582  0.1951
24379WAT     H199321   4.315   5.226   1.470  0.7509  1.9654 -0.9482
24379WAT     H299322   4.251   5.350   1.528 -1.2855  0.5780 -0.1629
24379WAT    EPW99323   4.244   5.273   1.487 -0.1380  0.3786 -0.0029
24380WAT      O99324   3.995   0.304   0.357 -0.9279 -0.0056  0.4491
24380WAT     H199325   3.961   0.280   0.271 -0.9369 -1.0891  0.7356
24380WAT     H299326   3.959   0.391   0.374 -2.9377 -0.7661  0.3852
24380WAT    EPW99327   3.986   0.312   0.348 -1.1941 -0.2488  0.4784
24381WAT      O99328  -0.872   5.881   6.150 -0.0831 -0.4460 -0.4843
24381WAT     H199329  -0.924   5.935   6.092  2.2502 -1.1252 -3.4296
24381WAT     H299330  -0.913   5.794   6.145 -0.9909 -0.0964  0.4595
24381WAT    EPW99331  -0.884   5.876   6.142  0.1049 -0.4895 -0.7482
24382WAT      O99332  -6.848   8.322   7.621  0.4034  0.2178  0.0152
24382WAT     H199333  -6.829   8.339   7.529 -0.8568 -2.5522 -0.8482
24382WAT     H299334  -6.768   8.283   7.656  0.6855  0.7373 -0.0448
24382WAT    EPW99335  -6.835   8.320   7.614  0.2742 -0.0792 -0.1066
24383WAT      O99336   6.564   0.228   5.212  1.0497 -0.5241  0.3456
24383WAT     H199337   6.640   0.173   5.231  1.3850 -0.6275 -1.1621
24383WAT     H299338   6.497   0.199   5.274  1.2530 -2.5534 -0.3280
24383WAT    EPW99339   6.565   0.217   5.223  1.1206 -0.8054  0.0579
24384WAT      O99340   3.023   1.100   8.406  0.0121  0.7615 -0.0742
24384WAT     H199341   2.995   1.009   8.410  0.8394  0.4492 -1.1052
24384WAT     H299342   3.069   1.115   8.489 -2.0236  0.9288  1.1148
24384WAT    EPW99343   3.025   1.090   8.418 -0.1472  0.7424 -0.0539
24385WAT      O99344   5.925   7.185   0.235 -0.2324  0.0812  0.6746
24385WAT     H199345   5.938   7.271   0.272  2.1196  0.7836 -1.5070
24385WAT     H299346   5.991   7.130   0.276 -1.1715 -0.5116  1.4357
24385WAT    EPW99347   5.935   7.189   0.245 -0.0458  0.0956  0.4872
24386WAT      O99348   5.185   2.151   4.329 -0.4350 -0.3392  0.1658
24386WAT     H199349   5.221   2.178   4.244 -0.5091 -0.2901  0.1497
24386WAT     H299350   5.091   2.145   4.314 -0.3191 -1.6349 -0.1128
24386WAT    EPW99351   5.178   2.154   4.316 -0.4294 -0.5037  0.1268
24387WAT      O99352   5.449   8.875   2.627 -1.4275  0.3051  0.3465
24387WAT     H199353   5.456   8.963   2.590  2.9687  0.0938  0.1987
24387WAT     H299354   5.428   8.890   2.720 -0.5306  1.5225  0.3766
24387WAT    EPW99355   5.447   8.889   2.635 -0.7293  0.4377  0.3310
24388WAT      O99356   2.409   3.648   7.098 -0.8342 -0.2650  0.3708
24388WAT     H199357   2.486   3.655   7.041 -1.2349 -0.7221 -0.2410
24388WAT     H299358   2.345   3.600   7.046 -1.0533 -1.0994  1.3748
24388WAT    EPW99359   2.411   3.643   7.084 -0.9159 -0.4352  0.4225
24389WAT      O99360  -0.902  10.171   1.113  0.7025  0.5781  0.0203
24389WAT     H199361  -0.907  10.082   1.078 -0.2670  0.5540  0.1887
24389WAT     H299362  -0.809  10.193   1.109  1.3528 -1.3776  2.3594
24389WAT    EPW99363  -0.891  10.162   1.108  0.6604  0.3171  0.3510
24390WAT      O99364   0.685  10.141   1.174 -1.1747 -0.0315 -0.1078
24390WAT     H199365   0.762  10.181   1.133 -1.0681  0.4809  0.5935
24390WAT     H299366   0.611  10.177   1.125 -1.0219  0.1875 -0.1795
24390WAT    EPW99367   0.685  10.151   1.162 -1.1405  0.0648 -0.0247
24391WAT      O99368   4.904   6.755   1.915 -0.1379 -0.4816 -0.1498
24391WAT     H199369   4.923   6.822   1.981 -0.4179 -0.6107  0.0647
24391WAT     H299370   4.861   6.685   1.965 -1.4732 -0.0557 -0.6941
24391WAT    EPW99371   4.901   6.755   1.931 -0.3510 -0.4425 -0.1933
24392WAT      O99372   2.906   5.192   5.446 -0.3377 -0.6080  0.5586
24392WAT     H199373   2.920   5.256   5.376 -2.0198  1.8685  2.3212
24392WAT     H299374   2.992   5.177   5.483  0.2463 -0.2261 -0.5904
24392WAT    EPW99375   2.919   5.199   5.442 -0.4826 -0.2310  0.6394
24393WAT      O99376   2.859   0.681   4.435  0.0844  0.5730  0.3546
24393WAT     H199377   2.817   0.732   4.503 -0.8063 -1.2888  1.2656
24393WAT     H299378   2.799   0.608   4.418  2.2255 -1.4112  0.7052
24393WAT    EPW99379   2.846   0.678   4.442  0.2493  0.0657  0.5212
24394WAT      O99380  -2.985   5.500   7.603 -0.5616  0.6182  0.0998
24394WAT     H199381  -2.972   5.406   7.593  0.8617  0.7380  0.5649
24394WAT     H299382  -3.068   5.518   7.559  0.1725 -0.5299 -1.8540
24394WAT    EPW99383  -2.994   5.490   7.596 -0.2770  0.4826 -0.0963
24395WAT      O99384  -7.706   8.663   8.266  0.1033 -0.0982 -0.3284
24395WAT     H199385  -7.724   8.756   8.255 -0.4296 -0.2753 -1.0458
24395WAT     H299386  -7.653   8.658   8.345  0.1962  0.8201 -0.3217
24395WAT    EPW99387  -7.701   8.674   8.275  0.0451 -0.0005 -0.4220
24396WAT      O99388  -6.559   8.436   6.276 -0.5856 -0.0699  0.0303
24396WAT     H199389  -6.475   8.482   6.277 -0.6837  0.1034  0.2435
24396WAT     H299390  -6.566   8.397   6.363 -0.7357 -0.0673  0.0193
24396WAT    EPW99391  -6.549   8.437   6.287 -0.6187 -0.0467  0.0567
24397WAT      O99392  -0.759   3.636   2.550  0.1642  0.1063  0.1060
24397WAT     H199393  -0.752   3.722   2.590  1.3544  0.1449 -0.1519
24397WAT     H299394  -0.839   3.599   2.587 -0.4892  1.3948  0.0572
24397WAT    EPW99395  -0.768   3.642   2.560  0.2350  0.2813  0.0656
24398WAT      O99396  -0.667   9.498   4.488 -0.6218 -0.5695  0.1885
24398WAT     H199397  -0.675   9.408   4.519 -1.4449 -1.7071 -2.9553
24398WAT     H299398  -0.758   9.524   4.469 -0.5736  1.5091  2.2467
24398WAT    EPW99399  -0.680   9.490   4.490 -0.7240 -0.4454  0.0453
24399WAT      O99400  -0.359   3.590   5.890  0.4685  0.2541 -0.2790
24399WAT     H199401  -0.296   3.582   5.961  0.5560  0.5076 -0.3270
24399WAT     H299402  -0.393   3.502   5.878  0.5832  0.1770 -0.0409
24399WAT    EPW99403  -0.355   3.578   5.898  0.4952  0.2774 -0.2539
24400WAT      O99404  -3.905   4.944   8.648  0.6360 -0.9908 -0.2738
24400WAT     H199405  -3.946   5.008   8.589  2.2005  1.0473  0.7114
24400WAT     H299406  -3.860   4.884   8.589  0.8989  0.1025 -1.2372
24400WAT    EPW99407  -3.904   4.945   8.632  0.8770 -0.5777 -0.2708
24401WAT      O99408  -2.864  10.222   0.756 -0.5602  0.1085 -0.1938
24401WAT     H199409  -2.947  10.175   0.763 -1.4799  1.6307 -0.4534
24401WAT     H299410  -2.803  10.171   0.809 -1.5048 -1.3481 -0.4579
24401WAT    EPW99411  -2.867  10.209   0.764 -0.8062  0.1168 -0.2629
24402WAT      O99412  -5.623  10.311   5.645  0.8709 -0.2040 -0.4947
24402WAT     H199413  -5.688  10.245   5.620  1.0345 -0.1211 -1.1373
24402WAT     H299414  -5.550  10.260   5.681  0.3150 -0.2810  0.5901
24402WAT    EPW99415  -5.622  10.295   5.647  0.8192 -0.2031 -0.4363
24403WAT      O99416   2.376   9.555   5.956  0.3134 -0.0984  0.3281
24403WAT     H199417   2.374   9.649   5.974  2.0248 -0.0335  0.3357
24403WAT     H299418   2.371   9.548   5.861 -1.2484 -0.0955  0.3830
24403WAT    EPW99419   2.375   9.566   5.946  0.3331 -0.0892  0.3364
24404WAT      O99420   4.743   5.438   1.201 -0.6620 -0.2840  0.2870
24404WAT     H199421   4.714   5.442   1.110  0.6984 -0.7642 -0.1885
24404WAT     H299422   4.802   5.512   1.212 -2.3718  0.9777  1.3889
24404WAT    EPW99423   4.747   5.448   1.190 -0.7081 -0.1810  0.3695
24405WAT      O99424   1.118   8.643   4.595 -0.1656  0.5921 -0.2860
24405WAT     H199425   1.210   8.665   4.611 -1.0604  3.3460  1.7583
24405WAT     H299426   1.098   8.685   4.511  0.6374 -0.8006 -1.1985
24405WAT    EPW99427   1.128   8.652   4.586 -0.1777  0.7715 -0.1366
24406WAT      O99428   6.614   3.637   1.878  0.0603 -1.0546  0.3832
24406WAT     H199429   6.566   3.596   1.806 -0.2821 -0.6050  0.3568
24406WAT     H299430   6.551   3.695   1.919  0.8713  0.3706 -0.3141
24406WAT    EPW99431   6.600   3.639   1.874  0.1221 -0.8073  0.2878
24407WAT      O99432   0.777   1.446   2.749 -0.0991  0.0299  0.0054
24407WAT     H199433   0.753   1.382   2.817 -0.0066  0.1643  0.1635
24407WAT     H299434   0.738   1.410   2.669 -2.3434  1.0844  0.5216
24407WAT    EPW99435   0.768   1.433   2.747 -0.3829  0.1867  0.0943
24408WAT      O99436  -0.146   7.510   0.812  0.3770 -0.5639 -0.5639
24408WAT     H199437  -0.082   7.482   0.747  2.6397 -0.1765  1.3923
24408WAT     H299438  -0.132   7.453   0.887 -0.2014  0.8049  0.6406
24408WAT    EPW99439  -0.136   7.499   0.813  0.5991 -0.3324 -0.1470
24409WAT      O99440  -2.222   4.485   1.464 -0.5754 -0.4727 -0.0027
24409WAT     H199441  -2.286   4.436   1.414  0.1098  2.6900 -4.6263
24409WAT     H299442  -2.274   4.542   1.521 -1.5597 -1.7370  0.3977
24409WAT    EPW99443  -2.237   4.486   1.465 -0.6148 -0.2224 -0.5597
24410WAT      O99444  -8.408   8.765   8.911 -0.2259  0.4783 -0.8605
24410WAT     H199445  -8.345   8.702   8.876 -0.8175  0.1613 -1.3905
24410WAT     H299446  -8.403   8.756   9.006 -0.6805 -0.7645 -0.9398
24410WAT    EPW99447  -8.399   8.756   8.919 -0.3638  0.2728 -0.9413
24411WAT      O99448   0.595  10.080   1.468  0.8211 -0.0494 -0.4498
24411WAT     H199449   0.503  10.097   1.491  0.1690 -1.1134 -2.0463
24411WAT     H299450   0.629  10.166   1.443 -0.2354  0.1360 -1.3603
24411WAT    EPW99451   0.587  10.093   1.468  0.5957 -0.1650 -0.7805
24412WAT      O99452  -0.380  10.177   5.667  0.7946 -0.2666  0.0286
24412WAT     H199453  -0.430  10.258   5.679  0.7241 -0.4496  1.0638
24412WAT     H299454  -0.405  10.146   5.580  0.7964  0.8030 -0.3644
24412WAT    EPW99455  -0.390  10.184   5.657  0.7856 -0.1493  0.1132
24413WAT      O99456   4.721  10.386   0.828 -0.1317  0.2920  0.6605
24413WAT     H199457   4.634  10.348   0.833  0.0033  0.1315  1.9646
24413WAT     H299458   4.776  10.315   0.793 -0.2094 -0.1506  1.4336
24413WAT    EPW99459   4.717  10.372   0.824 -0.1240  0.2122  0.9345
24414WAT      O99460   2.633   7.138   8.920  0.5579  0.5108 -0.2595
24414WAT     H199461   2.551   7.185   8.907  1.5706  2.8441  1.0917
24414WAT     H299462   2.608   7.059   8.968 -1.0609  0.3004 -1.3715
24414WAT    EPW99463   2.619   7.134   8.925  0.4780  0.7908 -0.2279
24415WAT      O99464  -1.348   3.249   1.469  0.4132  0.1193 -0.1492
24415WAT     H199465  -1.347   3.307   1.393 -0.0472  1.8524  1.1110
24415WAT     H299466  -1.383   3.166   1.435 -1.3084  1.3204 -1.5242
24415WAT    EPW99467  -1.353   3.245   1.454  0.1255  0.5063 -0.1643
24416WAT      O99468  -5.046   9.314   7.898 -0.1382 -0.5109  0.0906
24416WAT     H199469  -5.065   9.220   7.899  2.6683 -1.1585  1.7620
24416WAT     H299470  -5.096   9.349   7.973 -0.1477 -0.9162  0.2769
24416WAT    EPW99471  -5.055   9.307   7.908  0.2306 -0.6495  0.3357
24417WAT      O99472  -5.690   3.518   8.189  0.7427 -0.0171 -0.0077
24417WAT     H199473  -5.754   3.499   8.121  1.4731  0.4768 -0.8455
24417WAT     H299474  -5.676   3.613   8.183  1.3768 -0.0835  0.3230
24417WAT    EPW99475  -5.697   3.528   8.179  0.9229  0.0392 -0.0744
24418WAT      O99476   7.055   1.771   1.172 -0.0393 -0.4359 -0.5148
24418WAT     H199477   7.092   1.732   1.251  1.2806 -0.5901 -1.1752
24418WAT     H299478   6.981   1.823   1.203  0.3700 -0.5951  0.8023
24418WAT    EPW99479   7.050   1.773   1.186  0.1891 -0.4772 -0.4282
24419WAT      O99480   1.122  10.253   4.217 -0.8833  0.2003  0.1304
24419WAT     H199481   1.192  10.314   4.240 -1.2876  0.4466  0.7272
24419WAT     H299482   1.149  10.170   4.257 -0.7732  0.2071  0.0725
24419WAT    EPW99483   1.135  10.250   4.225 -0.9221  0.2337  0.2015
24420WAT      O99484  -1.544   0.724   7.134  0.2802 -0.0406  0.0912
24420WAT     H199485  -1.529   0.637   7.170 -0.0007 -0.5061 -0.8982
24420WAT     H299486  -1.633   0.721   7.099  0.5550  0.3884 -0.6665
24420WAT    EPW99487  -1.554   0.712   7.134  0.2794 -0.0454 -0.1392
24421WAT      O99488   2.721   1.498   3.677 -0.2969 -0.1844  0.0098
24421WAT     H199489   2.730   1.551   3.598  0.0523  1.9104  1.3825
24421WAT     H299490   2.688   1.559   3.744  1.4117 -1.3392  2.0379
24421WAT    EPW99491   2.718   1.513   3.676 -0.0254 -0.0604  0.4584
24422WAT      O99492  -0.852   0.499   8.634 -0.4610 -0.6340  0.1137
24422WAT     H199493  -0.772   0.463   8.596 -0.7811 -2.0855  0.7317
24422WAT     H299494  -0.909   0.422   8.646 -1.3725  0.1646  1.0258
24422WAT    EPW99495  -0.849   0.484   8.631 -0.6235 -0.7201  0.3157
24423WAT      O99496  -2.291   9.956   8.301  0.1800  0.0251  0.2570
24423WAT     H199497  -2.231   9.920   8.236  1.5612  0.4903  1.2458
24423WAT     H299498  -2.305  10.047   8.273 -0.2481 -0.1346 -0.0753
24423WAT    EPW99499  -2.285   9.963   8.289  0.3057  0.0653  0.3438
24424WAT      O99500   5.377   7.134   3.771 -0.3822 -0.2433  0.1971
24424WAT     H199501   5.451   7.074   3.759  0.8195  0.6300  2.4945
24424WAT     H299502   5.359   7.130   3.865 -2.0930  0.9388 -0.0374
24424WAT    EPW99503   5.385   7.126   3.782 -0.4492  0.0277  0.4691
24425WAT      O99504   6.963   0.398   3.108  0.2614 -0.4413  1.0393
24425WAT     H199505   7.058   0.390   3.101  0.1466 -1.7764  0.8230
24425WAT     H299506   6.950   0.465   3.176  1.3287  1.5044 -0.5443
24425WAT    EPW99507   6.973   0.406   3.116  0.3870 -0.3607  0.8019
24426WAT      O99508  -2.753   2.950   7.726  0.1604 -0.0351  0.2595
24426WAT     H199509  -2.822   3.015   7.713  1.8062  2.0782  1.3518
24426WAT     H299510  -2.798   2.874   7.762 -1.8217  0.5680 -0.8036
24426WAT    EPW99511  -2.768   2.949   7.729  0.1161  0.3231  0.2635
24427WAT      O99512   2.049   8.196   2.859 -0.0488 -0.0203  0.8657
24427WAT     H199513   2.070   8.285   2.887  1.4258 -0.8418  2.5957
24427WAT     H299514   2.101   8.183   2.780 -2.4582  1.5296 -1.1512
24427WAT    EPW99515   2.059   8.206   2.853 -0.1721  0.0753  0.8278
24428WAT      O99516  -1.722   2.290   3.403  0.6335  0.4146 -0.3932
24428WAT     H199517  -1.662   2.312   3.475  0.1269 -1.5649  0.6962
24428WAT     H299518  -1.729   2.195   3.406 -1.8340  0.5103 -1.0829
24428WAT    EPW99519  -1.715   2.280   3.413  0.2412  0.1663 -0.3406
24429WAT      O99520  -3.514   6.051   8.317  0.6025 -0.4893  0.0515
24429WAT     H199521  -3.477   5.963   8.316  2.9075  0.4026 -1.2625
24429WAT     H299522  -3.545   6.062   8.407  1.2162 -2.2619  0.5300
24429WAT    EPW99523  -3.513   6.041   8.329  0.9874 -0.6053 -0.0587
24430WAT      O99524   0.145   8.384   4.711 -0.8114 -0.4110  0.4826
24430WAT     H199525   0.122   8.414   4.623 -0.6086 -0.1446  0.5178
24430WAT     H299526   0.116   8.455   4.769  1.4178  0.6525  0.4108
24430WAT    EPW99527   0.138   8.397   4.707 -0.4907 -0.2356  0.4778
24431WAT      O99528   5.656   4.003   3.517  0.0152  0.1914 -0.3718
24431WAT     H199529   5.654   3.908   3.524  1.6113  0.0978 -0.8885
24431WAT     H299530   5.679   4.034   3.605  0.0090  0.0724 -0.3288
24431WAT    EPW99531   5.659   3.995   3.529  0.2248  0.1632 -0.4344
24432WAT      O99532   4.840   5.776   0.646  0.0916 -0.6622  0.1603
24432WAT     H199533   4.808   5.863   0.623 -1.2875 -0.3480  2.8462
24432WAT     H299534   4.772   5.716   0.614 -0.6640 -0.4296  1.2843
24432WAT    EPW99535   4.826   5.779   0.639 -0.1900 -0.5901  0.6628
24433WAT      O99536  -6.183   8.300   6.181  0.4647  0.0174 -0.8106
24433WAT     H199537  -6.277   8.315   6.171  0.6759  1.2383 -1.1617
24433WAT     H299538  -6.162   8.336   6.268  0.5090 -0.7790 -0.4885
24433WAT    EPW99539  -6.193   8.307   6.191  0.4983  0.0739 -0.8144
24434WAT      O99540   0.155   5.881   2.988 -0.7179 -0.3493 -0.1178
24434WAT     H199541   0.151   5.934   2.909 -1.2625  1.0631  0.8196
24434WAT     H299542   0.203   5.935   3.051 -2.8819 -0.1228  1.4457
24434WAT    EPW99543   0.161   5.895   2.986 -1.0751 -0.1330  0.2121
24435WAT      O99544   4.484   3.780   0.153  0.1723  0.1635 -0.9301
24435WAT     H199545   4.517   3.819   0.234 -3.4528  0.8623  0.4185
24435WAT     H299546   4.484   3.852   0.090 -0.7802  0.7427 -0.2880
24435WAT    EPW99547   4.488   3.795   0.155 -0.4315  0.3321 -0.6675
24436WAT      O99548   1.400   3.817   6.190  0.9405  0.2303  0.1996
24436WAT     H199549   1.455   3.746   6.158 -0.2929  0.2096 -2.1102
24436WAT     H299550   1.420   3.891   6.132 -1.4148  0.1882 -0.8094
24436WAT    EPW99551   1.410   3.817   6.178  0.4671  0.2221 -0.2382
24437WAT      O99552   7.550   1.723   3.721  0.3793  0.0933  0.4537
24437WAT     H199553   7.621   1.784   3.744 -0.0211  1.3255 -1.3859
24437WAT     H299554   7.595   1.644   3.692  1.0502  0.8823 -0.7518
24437WAT    EPW99555   7.565   1.721   3.721  0.4151  0.3599  0.0520
24438WAT      O99556  -5.001  10.328   4.834 -0.1605 -0.6145  0.1356
24438WAT     H199557  -4.911  10.302   4.857 -0.1616  0.0288  0.9177
24438WAT     H299558  -5.052  10.248   4.844  0.3848 -1.0744 -0.6744
24438WAT    EPW99559  -4.996  10.314   4.839 -0.0887 -0.5898  0.1321
24439WAT      O99560  -1.361   5.896   3.708 -0.6002 -0.2717 -0.3954
24439WAT     H199561  -1.434   5.948   3.676 -0.2216 -0.8294 -2.2378
24439WAT     H299562  -1.373   5.895   3.803 -2.1653  0.8342 -0.5453
24439WAT    EPW99563  -1.373   5.902   3.717 -0.7567 -0.1996 -0.6582
24440WAT      O99564   4.852   7.943   0.875  0.0552 -0.4466  0.2624
24440WAT     H199565   4.932   7.966   0.921 -0.9387 -1.0695  2.4505
24440WAT     H299566   4.876   7.868   0.821  1.1149 -0.1568  0.3203
24440WAT    EPW99567   4.865   7.936   0.874  0.0639 -0.4904  0.5586
24441WAT      O99568   5.653   3.674   0.976  0.6238  0.2742  0.1340
24441WAT     H199569   5.561   3.682   1.001  0.1313 -0.4493 -1.3339
24441WAT     H299570   5.686   3.601   1.029 -0.0211 -0.3262 -0.2707
24441WAT    EPW99571   5.646   3.665   0.986  0.4740  0.0997 -0.1130
24442WAT      O99572   5.489   6.941   1.837 -0.4203  0.3048  0.7851
24442WAT     H199573   5.474   6.998   1.912  0.0046  0.3509  0.8355
24442WAT     H299574   5.414   6.956   1.780 -0.4099  0.7635  0.8939
24442WAT    EPW99575   5.477   6.950   1.839 -0.3631  0.3715  0.8061
24443WAT      O99576  -3.444   7.981   1.862  0.1737 -0.1763 -0.0068
24443WAT     H199577  -3.476   8.071   1.870  1.1608  0.0692  1.8429
24443WAT     H299578  -3.522   7.929   1.847 -0.4216  0.9732 -1.1044
24443WAT    EPW99579  -3.458   7.986   1.861  0.2253  0.0076  0.0924
24444WAT      O99580   9.191   0.556   2.554  0.2329 -0.0610 -0.0344
24444WAT     H199581   9.191   0.488   2.486 -2.4755  1.8774 -2.2058
24444WAT     H299582   9.253   0.622   2.522 -1.3588  1.0531 -0.9419
24444WAT    EPW99583   9.199   0.556   2.541 -0.3343  0.3416 -0.4405
24445WAT      O99584   8.586   4.039   1.326  0.3759  0.1356 -0.1712
24445WAT     H199585   8.658   3.979   1.305 -0.8846 -1.5359  0.0526
24445WAT     H299586   8.553   4.067   1.240 -0.9509 -1.9570 -0.4202
24445WAT    EPW99587   8.591   4.035   1.312  0.0343 -0.3610 -0.1746
24446WAT      O99588   4.556   7.492   0.945  0.2028  0.1137 -0.1592
24446WAT     H199589   4.475   7.450   0.918 -0.1496  0.8090 -0.2026
24446WAT     H299590   4.555   7.577   0.901  0.9798  0.1116 -0.2040
24446WAT    EPW99591   4.545   7.498   0.935  0.2587  0.2053 -0.1709
24447WAT      O99592  -2.383   4.661   7.696  0.0607  0.4968 -0.5726
24447WAT     H199593  -2.390   4.695   7.607 -1.7728 -0.9454 -1.0469
24447WAT     H299594  -2.420   4.730   7.751  1.8399  1.6940 -0.7916
24447WAT    EPW99595  -2.388   4.675   7.691  0.0535  0.4647 -0.6640
24448WAT      O99596   3.697   4.996   4.290 -0.0298  0.2200 -0.5303
24448WAT     H199597   3.669   4.930   4.354  0.0155  0.0406 -0.6944
24448WAT     H299598   3.619   5.047   4.272  0.2706  1.1574  0.7185
24448WAT    EPW99599   3.683   4.994   4.296  0.0159  0.3197 -0.3872
24449WAT      O99600   7.688   2.561   2.071 -0.2944  0.1150 -0.4147
24449WAT     H199601   7.645   2.635   2.029  2.8238  2.0048 -0.5792
24449WAT     H299602   7.753   2.600   2.129  0.7145 -2.5043  0.3963
24449WAT    EPW99603   7.691   2.576   2.073  0.2499  0.0187 -0.3295
24450WAT      O99604   4.337   0.345   4.696 -0.0889 -0.6199 -1.0484
24450WAT     H199605   4.294   0.423   4.661 -1.1508 -2.0184 -3.0412
24450WAT     H299606   4.268   0.300   4.745 -0.3830 -1.7795 -2.4488
24450WAT    EPW99607   4.322   0.349   4.698 -0.2675 -0.9573 -1.4961
24451WAT      O99608  -3.002   7.622   1.238  0.9491 -0.2587  0.2170
24451WAT     H199609  -3.038   7.630   1.327  2.2718 -0.3018  0.7791
24451WAT     H299610  -2.971   7.710   1.217  0.0557 -0.0898 -0.4942
24451WAT    EPW99611  -3.003   7.635   1.247  1.0058 -0.2422  0.1974
24452WAT      O99612   2.841   8.670   8.119  0.3806 -0.2419  0.4031
24452WAT     H199613   2.868   8.761   8.102  0.4806  0.1615  2.4822
24452WAT     H299614   2.747   8.676   8.136  0.1500 -0.7351 -0.5936
24452WAT    EPW99615   2.832   8.683   8.119  0.3635 -0.2537  0.5455
24453WAT      O99616  -0.581   7.576   3.910  1.0396 -0.9434  0.2019
24453WAT     H199617  -0.644   7.507   3.929 -1.2948  1.0203  0.0961
24453WAT     H299618  -0.597   7.642   3.978  0.4152  1.2114 -1.9145
24453WAT    EPW99619  -0.591   7.576   3.922  0.6493 -0.4001 -0.0911
24454WAT      O99620  -3.105  10.223   1.026 -0.1254 -0.0919 -0.4706
24454WAT     H199621  -3.068  10.148   1.072  0.8202 -0.1920 -1.3655
24454WAT     H299622  -3.065  10.221   0.939 -2.3576 -0.3035 -1.5627
24454WAT    EPW99623  -3.095  10.213   1.021 -0.2952 -0.1335 -0.7327
24455WAT      O99624  -0.059   9.905   1.387  0.3427 -0.3657 -0.0780
24455WAT     H199625  -0.085   9.815   1.370 -0.8602  0.0609 -0.6690
24455WAT     H299626  -0.119   9.957   1.333  0.6779  0.7989  0.6428
24455WAT    EPW99627  -0.070   9.900   1.378  0.2283 -0.1559 -0.0609
24456WAT      O99628  -0.830   5.091   4.554  0.0556  0.1781 -0.8868
24456WAT     H199629  -0.768   5.134   4.612  0.8597 -0.8910 -0.9286
24456WAT     H299630  -0.906   5.072   4.610  0.5763 -0.2983 -0.3369
24456WAT    EPW99631  -0.832   5.094   4.569  0.2303 -0.0260 -0.8199
24457WAT      O99632  -3.140   1.308   8.135 -0.7402  0.5414  0.1313
24457WAT     H199633  -3.172   1.244   8.072 -2.0991 -0.0869  1.3980
24457WAT     H299634  -3.219   1.343   8.176 -0.0245  2.9513 -0.4064
24457WAT    EPW99635  -3.155   1.304   8.132 -0.8252  0.7764  0.2275
24458WAT      O99636   4.700   5.125   4.523  0.3312 -0.1734  0.4807
24458WAT     H199637   4.725   5.082   4.605  1.2558  0.1109  0.3610
24458WAT     H299638   4.663   5.056   4.469  0.4089 -0.5124  0.8602
24458WAT    EPW99639   4.699   5.110   4.527  0.4635 -0.1805  0.5152
24459WAT      O99640  -4.117   2.733   7.307 -0.5470  0.4759 -0.0515
24459WAT     H199641  -4.072   2.817   7.314 -1.7629  1.0916  0.7954
24459WAT     H299642  -4.058   2.671   7.351  0.2447  0.9130 -0.4682
24459WAT    EPW99643  -4.103   2.736   7.314 -0.6032  0.6148  0.0052
24460WAT      O99644   4.260   2.971   0.885  0.3141 -0.0003  0.3291
24460WAT     H199645   4.346   2.971   0.927  0.1232  1.5093  0.7769
24460WAT     H299646   4.235   3.063   0.881 -0.0069 -0.1311 -2.4507
24460WAT    EPW99647   4.268   2.983   0.890  0.2465  0.1816  0.0215
24461WAT      O99648   6.987   4.509   3.461  0.1875  0.6652 -0.8972
24461WAT     H199649   6.928   4.579   3.430  0.8333  1.6399 -0.0118
24461WAT     H299650   6.988   4.520   3.556 -1.6884 -2.1884 -0.4225
24461WAT    EPW99651   6.979   4.520   3.469  0.0253  0.4175 -0.7179
24462WAT      O99652   3.098   1.571   1.306  0.9111 -0.2276  0.7653
24462WAT     H199653   3.093   1.521   1.387 -0.6636  0.2964  1.0190
24462WAT     H299654   3.047   1.521   1.243  1.3562 -0.1592  0.3417
24462WAT    EPW99655   3.091   1.558   1.308  0.7621 -0.1494  0.7429
24463WAT      O99656  -2.566  10.138   0.808 -0.0297  0.3839 -0.5986
24463WAT     H199657  -2.565  10.228   0.777 -0.8992  0.0002 -1.8172
24463WAT     H299658  -2.547  10.085   0.731  0.9557 -0.4686  0.1951
24463WAT    EPW99659  -2.563  10.143   0.794 -0.0144  0.2208 -0.6546
24464WAT      O99660  -1.770  10.237   5.286  0.0898  0.2247 -0.1879
24464WAT     H199661  -1.777  10.259   5.378 -1.6696 -1.8111  0.2574
24464WAT     H299662  -1.745  10.319   5.243  0.8333  1.2338  2.0546
24464WAT    EPW99663  -1.768  10.251   5.292 -0.0441  0.0896  0.1667
24465WAT      O99664   3.327   8.360   2.689 -0.2729 -0.2446  0.1571
24465WAT     H199665   3.305   8.356   2.782 -0.9952  1.3151  0.0837
24465WAT     H299666   3.243   8.374   2.645  0.1961  0.1245 -0.6375
24465WAT    EPW99667   3.313   8.361   2.695 -0.3062  0.0095  0.0427
24466WAT      O99668   7.312   1.811   4.573  0.9194  0.6940 -0.4756
24466WAT     H199669   7.271   1.857   4.500 -0.9243 -0.2982 -0.1033
24466WAT     H299670   7.291   1.865   4.650  0.1681  0.1098 -0.2641
24466WAT    EPW99671   7.304   1.824   4.574  0.5772  0.4861 -0.3986
24467WAT      O99672   0.134   4.225   1.560  0.3191 -0.5861 -0.1847
24467WAT     H199673   0.179   4.150   1.600  2.6244  1.0237  0.4153
24467WAT     H299674   0.052   4.233   1.610  0.1614 -2.4772 -0.0669
24467WAT    EPW99675   0.129   4.216   1.572  0.6024 -0.6232 -0.0900
24468WAT      O99676   7.228   0.764   4.122  0.5693  0.5619 -0.7703
24468WAT     H199677   7.167   0.833   4.147  0.1445 -0.0803  0.0320
24468WAT     H299678   7.206   0.691   4.180  3.7020  1.0821  1.2830
24468WAT    EPW99679   7.217   0.763   4.133  0.9265  0.5458 -0.3936
24469WAT      O99680  -0.785   4.723   1.953 -0.1247 -0.7471  0.8112
24469WAT     H199681  -0.767   4.698   1.862 -0.1500  0.6038  0.4049
24469WAT     H299682  -0.699   4.743   1.990 -0.0482 -1.9032  1.2954
24469WAT    EPW99683  -0.772   4.722   1.946 -0.1179 -0.7215  0.8215
24470WAT      O99684   7.932   1.010   4.308  0.3787  0.2222  0.0205
24470WAT     H199685   7.873   1.037   4.378  0.2219  1.5921 -0.6051
24470WAT     H299686   7.905   0.920   4.288 -0.5922  0.3452  0.6705
24470WAT    EPW99687   7.920   1.001   4.314  0.2301  0.4191  0.0238
24471WAT      O99688  -3.937   6.604   5.639  0.3460  0.4313  0.2280
24471WAT     H199689  -4.002   6.643   5.697 -1.5563 -0.5072 -1.1501
24471WAT     H299690  -3.888   6.543   5.694  0.8572  1.9654  1.5423
24471WAT    EPW99691  -3.939   6.601   5.654  0.1626  0.5100  0.2196
24472WAT      O99692  -5.716   8.669   5.158  0.6666  0.1878 -0.2538
24472WAT     H199693  -5.704   8.640   5.068  1.9926  0.7655 -0.2934
24472WAT     H299694  -5.779   8.740   5.153 -0.4036 -0.7561 -0.5178
24472WAT    EPW99695  -5.723   8.675   5.146  0.7002  0.1397 -0.2940
24473WAT      O99696  -0.387   3.397   3.160  0.3208  0.0726  0.3811
24473WAT     H199697  -0.430   3.417   3.076  2.7329  0.3340 -0.8659
24473WAT     H299698  -0.352   3.309   3.148  0.5561  0.0498  1.1781
24473WAT    EPW99699  -0.388   3.388   3.147  0.6699  0.1041  0.3217
24474WAT      O99700   1.331   2.076   6.717  1.0431 -0.0757 -0.1343
24474WAT     H199701   1.339   2.046   6.808  0.2445  0.7049  0.2118
24474WAT     H299702   1.406   2.135   6.705  0.7356  0.4029  0.2641
24474WAT    EPW99703   1.342   2.080   6.728  0.8972  0.0904 -0.0362
24475WAT      O99704   7.412   8.237   0.552  0.6052  0.0226 -0.2499
24475WAT     H199705   7.431   8.331   0.548  0.6930  0.0579  0.7034
24475WAT     H299706   7.350   8.222   0.482  0.7277  0.7653 -0.5251
24475WAT    EPW99707   7.407   8.248   0.543  0.6328  0.1254 -0.1605
24476WAT      O99708   2.693   4.938   5.538 -0.1242  0.0864 -0.4343
24476WAT     H199709   2.778   4.958   5.498  0.0144  0.5262  0.0478
24476WAT     H299710   2.712   4.935   5.632 -0.5341 -0.4041 -0.3619
24476WAT    EPW99711   2.707   4.941   5.545 -0.1599  0.0796 -0.3612
24477WAT      O99712  -0.484   4.123   1.101  0.3765  0.4203  0.1138
24477WAT     H199713  -0.496   4.028   1.108  0.2946  0.5546  2.7451
24477WAT     H299714  -0.573   4.158   1.097  0.3292  0.4473  1.0658
24477WAT    EPW99715  -0.498   4.115   1.102  0.3595  0.4416  0.5865
24478WAT      O99716   0.879   0.682   6.474  0.0408 -0.1398 -0.1070
24478WAT     H199717   0.840   0.595   6.477 -0.4788  0.1018  0.2153
24478WAT     H299718   0.805   0.742   6.468  0.4451  0.2062 -2.2466
24478WAT    EPW99719   0.864   0.678   6.474  0.0256 -0.0623 -0.3467
24479WAT      O99720  -1.704   7.069   3.066  0.0223  0.6843 -0.6068
24479WAT     H199721  -1.693   7.034   3.154 -1.4984 -0.8494 -0.9631
24479WAT     H299722  -1.797   7.055   3.046  0.6285 -0.5165 -3.0320
24479WAT    EPW99723  -1.715   7.062   3.075 -0.0983  0.3238 -0.9736
24480WAT      O99724   3.649   5.063   7.688 -0.2770 -0.3143  0.3006
24480WAT     H199725   3.593   5.049   7.764  0.2226 -2.2811  0.3648
24480WAT     H299726   3.628   5.152   7.658 -1.9349 -0.2607  1.5110
24480WAT    EPW99727   3.639   5.073   7.694 -0.4299 -0.5667  0.4687
24481WAT      O99728  -0.067   7.624   8.091 -0.1057 -1.0578  0.4204
24481WAT     H199729  -0.126   7.686   8.049 -1.2819 -2.6861 -0.4528
24481WAT     H299730  -0.039   7.668   8.171 -2.6090 -0.2526  0.9384
24481WAT    EPW99731  -0.071   7.638   8.096 -0.5910 -1.1666  0.3734
24482WAT      O99732   7.992   2.952   0.350  0.0393 -0.1101  0.3846
24482WAT     H199733   8.076   2.981   0.315  0.7959 -1.3303  1.1097
24482WAT     H299734   7.934   2.947   0.274  1.1149 -0.9380 -0.4112
24482WAT    EPW99735   7.995   2.955   0.336  0.2809 -0.3802  0.3753
24483WAT      O99736   7.348   3.154   1.706 -0.3638 -0.5719  0.2438
24483WAT     H199737   7.253   3.144   1.714 -0.1168 -1.7512  2.3730
24483WAT     H299738   7.369   3.113   1.622 -1.8111  0.7676 -0.8601
24483WAT    EPW99739   7.338   3.147   1.696 -0.5221 -0.5507  0.3791
24484WAT      O99740   1.832   0.727   5.056 -0.4547  0.0017  0.1721
24484WAT     H199741   1.878   0.668   5.116 -0.2988  0.9795  1.0386
24484WAT     H299742   1.837   0.813   5.098 -1.1724  0.5343 -0.7897
24484WAT    EPW99743   1.838   0.731   5.070 -0.5288  0.2009  0.1595
24485WAT      O99744   3.914   5.946   4.675 -0.0124  0.1338  0.1930
24485WAT     H199745   3.875   5.981   4.755 -0.0126  1.6328 -0.4282
24485WAT     H299746   3.870   5.862   4.662 -0.5661  0.2228  1.3440
24485WAT    EPW99747   3.903   5.939   4.684 -0.0855  0.3433  0.2630
24486WAT      O99748   1.094   8.507   0.398  0.8098 -0.2926 -0.5738
24486WAT     H199749   1.165   8.442   0.394  2.4414  1.3166  0.7092
24486WAT     H299750   1.138   8.591   0.388 -1.1991  0.6992 -1.7428
24486WAT    EPW99751   1.109   8.509   0.396  0.7600  0.0505 -0.5588
24487WAT      O99752  -4.433   6.917   7.844  0.3572 -0.3364  0.3021
24487WAT     H199753  -4.374   6.864   7.791  0.3209  1.5067 -1.7350
24487WAT     H299754  -4.501   6.947   7.782 -0.9129  0.1806  1.8722
24487WAT    EPW99755  -4.435   6.914   7.829  0.1848 -0.0250  0.2403
24488WAT      O99756  -1.975   6.241   2.578  0.0499  0.4059 -0.9341
24488WAT     H199757  -1.902   6.201   2.532 -0.1616 -0.2743 -0.6925
24488WAT     H299758  -1.978   6.196   2.662 -0.4593  0.6383 -0.8214
24488WAT    EPW99759  -1.966   6.230   2.583 -0.0452  0.3469 -0.8874
24489WAT      O99760  -5.812   8.348   7.100 -0.0907  0.8041  0.4166
24489WAT     H199761  -5.886   8.287   7.100 -0.5044  1.1825 -2.4666
24489WAT     H299762  -5.842   8.423   7.048  2.1636  1.1266 -0.5449
24489WAT    EPW99763  -5.826   8.350   7.093  0.1521  0.8965 -0.0904
24490WAT      O99764  -4.327   6.057   5.408  1.0178  0.2543  0.3759
24490WAT     H199765  -4.301   5.975   5.451  1.6234  0.8769  1.2306
24490WAT     H299766  -4.272   6.061   5.330 -0.2803 -1.0175 -0.6655
24490WAT    EPW99767  -4.316   6.046   5.403  0.9267  0.1686  0.3512
24491WAT      O99768   0.333   2.001   7.552 -0.0002  0.3856  0.1283
24491WAT     H199769   0.369   2.083   7.521  1.9686 -0.7940 -0.8862
24491WAT     H299770   0.407   1.955   7.591 -0.9119 -1.1483  0.1556
24491WAT    EPW99771   0.347   2.005   7.553  0.1392  0.0277 -0.0019
24492WAT      O99772  -6.448   8.546   7.081 -0.3612  0.1747  0.0542
24492WAT     H199773  -6.356   8.558   7.059 -0.2385  0.1797  0.5510
24492WAT     H299774  -6.452   8.460   7.121 -1.0419 -1.0531 -2.4400
24492WAT    EPW99775  -6.437   8.536   7.083 -0.4349  0.0129 -0.2093
24493WAT      O99776   0.164   8.290   8.590 -0.0593 -0.0299  0.3121
24493WAT     H199777   0.221   8.217   8.617  0.9213  0.4557 -0.3621
24493WAT     H299778   0.078   8.250   8.579  0.0840 -0.7426  1.5840
24493WAT    EPW99779   0.160   8.275   8.592  0.0889 -0.0601  0.3910
24494WAT      O99780   5.247   0.919   1.367  0.5454 -0.2679 -0.0286
24494WAT     H199781   5.288   0.994   1.324 -1.1118  0.5362 -0.2756
24494WAT     H299782   5.259   0.846   1.305  1.6982 -0.1095 -0.0170
24494WAT    EPW99783   5.254   0.919   1.353  0.4790 -0.1409 -0.0597
24495WAT      O99784   2.111   4.413   7.064 -0.8791  0.4259  0.0681
24495WAT     H199785   2.016   4.402   7.077 -0.7223 -0.4468  0.5153
24495WAT     H299786   2.147   4.420   7.152 -0.7145  2.7474 -0.1080
24495WAT    EPW99787   2.103   4.412   7.077 -0.8368  0.6173  0.1037
24496WAT      O99788  -4.917   4.292   8.216  0.1327 -0.3161  0.0608
24496WAT     H199789  -4.988   4.329   8.163  0.0131  0.1463  0.5346
24496WAT     H299790  -4.956   4.214   8.256  0.0151 -0.2870  0.0060
24496WAT    EPW99791  -4.932   4.286   8.214  0.1016 -0.2513  0.1159
24497WAT      O99792  -0.908   9.007   8.217  0.5010  0.1279 -0.5920
24497WAT     H199793  -0.843   8.942   8.244  2.7367  1.2013 -2.9174
24497WAT     H299794  -0.976   8.956   8.172  1.4601 -0.7767 -1.0676
24497WAT    EPW99795  -0.909   8.992   8.214  0.9224  0.1502 -0.9613
24498WAT      O99796  -0.032   1.017   1.714 -0.3014 -0.5621  1.0753
24498WAT     H199797  -0.077   1.070   1.779 -3.6647  1.2902 -2.3576
24498WAT     H299798  -0.070   0.929   1.724 -1.2942 -0.1278  1.1970
24498WAT    EPW99799  -0.043   1.012   1.724 -0.8759 -0.2605  0.6386
24499WAT      O99800  -2.152   9.333   3.989  0.2611 -0.7639  0.6856
24499WAT     H199801  -2.102   9.323   4.070 -0.8973 -0.3059  1.4904
24499WAT     H299802  -2.138   9.425   3.964  2.2287 -1.3945 -0.7768
24499WAT    EPW99803  -2.144   9.344   3.997  0.3678 -0.7868  0.5989
24500WAT      O99804   5.958   3.457   2.769 -0.5954 -0.7583  0.4069
24500WAT     H199805   6.043   3.492   2.744 -0.6025  0.0639  1.4738
24500WAT     H299806   5.949   3.479   2.862 -2.5288  0.3800  0.0086
24500WAT    EPW99807   5.968   3.465   2.778 -0.8514 -0.4996  0.4952
24501WAT      O99808   4.144   6.256   1.310  0.8158  0.2454 -0.6736
24501WAT     H199809   4.123   6.342   1.347 -0.2196 -0.7355  1.1773
24501WAT     H299810   4.119   6.263   1.218  0.2438  1.7621 -0.4401
24501WAT    EPW99811   4.138   6.269   1.303  0.6037  0.3159 -0.3986
24502WAT      O99812  -2.796   8.625   4.255 -0.5937 -0.8263  0.0477
24502WAT     H199813  -2.836   8.699   4.300 -1.2000  0.2014 -2.0852
24502WAT     H299814  -2.842   8.619   4.171  2.1736 -0.9855 -1.5937
24502WAT    EPW99815  -2.807   8.634   4.250 -0.3086 -0.7114 -0.4501
24503WAT      O99816   3.265   1.272   4.332  0.4770 -0.4428 -0.1283
24503WAT     H199817   3.211   1.202   4.369  3.5532 -3.1307 -0.3411
24503WAT     H299818   3.324   1.296   4.403  1.5961 -0.3717 -1.0647
24503WAT    EPW99819   3.265   1.266   4.347  1.0303 -0.7880 -0.2799
24504WAT      O99820   4.325   8.520   1.976  0.0452  0.0422 -0.1656
24504WAT     H199821   4.375   8.526   1.895  2.0502 -0.7315  0.9289
24504WAT     H299822   4.326   8.610   2.011  0.6160  0.0584 -0.2080
24504WAT    EPW99823   4.332   8.533   1.970  0.3850 -0.0582 -0.0268
24505WAT      O99824   6.424   2.742   4.217  0.2178 -0.3759  0.3112
24505WAT     H199825   6.383   2.658   4.197 -0.1541 -0.2814  0.6637
24505WAT     H299826   6.364   2.784   4.279  0.3243  0.2157  0.0245
24505WAT    EPW99827   6.411   2.737   4.223  0.1829 -0.2854  0.3200
24506WAT      O99828  -0.154   1.967   4.208  1.0352 -0.0910  0.1663
24506WAT     H199829  -0.230   1.913   4.187  0.7078 -0.2578  1.6593
24506WAT     H299830  -0.180   2.056   4.183  0.3164 -0.1334  0.7409
24506WAT    EPW99831  -0.167   1.972   4.202  0.8972 -0.1186  0.4392
24507WAT      O99832  -1.641   8.320   6.713  0.6949 -0.4806 -0.0231
24507WAT     H199833  -1.711   8.365   6.759  0.3031  1.4380 -2.3025
24507WAT     H299834  -1.561   8.361   6.744  0.6719 -1.2080  1.0291
24507WAT    EPW99835  -1.640   8.331   6.723  0.6402 -0.3233 -0.1848
24508WAT      O99836  -3.525   7.014   8.063  0.1111  0.0837 -0.4039
24508WAT     H199837  -3.568   7.000   7.979 -0.7785 -2.4431  0.3736
24508WAT     H299838  -3.587   6.979   8.127  1.8307 -0.4154  1.0665
24508WAT    EPW99839  -3.539   7.007   8.061  0.2207 -0.3154 -0.1078
24509WAT      O99840   0.417   5.884   2.191 -0.6699 -0.7039 -1.4065
24509WAT     H199841   0.460   5.886   2.277 -0.0878  1.1767 -1.6911
24509WAT     H299842   0.386   5.794   2.182  3.2232 -2.2526 -1.1758
24509WAT    EPW99843   0.419   5.873   2.201 -0.0796 -0.6599 -1.4136
24510WAT      O99844   2.061   5.995   5.345  0.1425 -0.7075 -0.9824
24510WAT     H199845   1.975   5.961   5.319 -0.5314 -0.4118  0.7094
24510WAT     H299846   2.091   5.934   5.413 -0.6224  1.3764  1.3783
24510WAT    EPW99847   2.053   5.982   5.351 -0.0473 -0.3939 -0.4478
24511WAT      O99848  -0.248   9.343   1.313  0.1024 -0.2637 -0.0924
24511WAT     H199849  -0.213   9.312   1.396  0.9513  0.1012 -0.2975
24511WAT     H299850  -0.188   9.307   1.247 -0.0126  0.2226 -0.4681
24511WAT    EPW99851  -0.235   9.334   1.315  0.1992 -0.1516 -0.1690
24512WAT      O99852  -3.264   0.594   6.769  0.0828  0.3771  0.7721
24512WAT     H199853  -3.352   0.598   6.731  1.0856 -0.6853 -1.8881
24512WAT     H299854  -3.227   0.681   6.753 -0.0148  0.3993  0.6654
24512WAT    EPW99855  -3.271   0.606   6.762  0.2023  0.2399  0.4070
24513WAT      O99856  -6.641   7.598   7.975 -0.0555  0.3480  0.3732
24513WAT     H199857  -6.661   7.682   7.933  1.2141  0.5024  0.0308
24513WAT     H299858  -6.697   7.535   7.930  0.6962  0.6405 -1.0477
24513WAT    EPW99859  -6.651   7.601   7.963  0.2110  0.4067  0.1409
24514WAT      O99860  -3.118   8.984   7.845  0.1834 -0.0305 -0.6567
24514WAT     H199861  -3.101   9.077   7.861 -1.5189  0.1349  0.2974
24514WAT     H299862  -3.201   8.982   7.798 -0.2086 -1.1090  0.0388
24514WAT    EPW99863  -3.127   8.996   7.841 -0.0927 -0.1512 -0.4389
24515WAT      O99864   5.626   5.338   5.298  0.3043 -0.4996  0.0974
24515WAT     H199865   5.590   5.330   5.386 -1.5168 -0.8012 -0.6118
24515WAT     H299866   5.637   5.247   5.268  0.6714 -0.3996 -0.0768
24515WAT    EPW99867   5.622   5.325   5.305  0.1125 -0.5262 -0.0193
24516WAT      O99868   1.899   0.055   7.926  0.1418 -0.0199  0.2193
24516WAT     H199869   1.813   0.014   7.927 -0.3245  0.9490  0.2845
24516WAT     H299870   1.887   0.139   7.970  1.0226  0.3094 -0.1330
24516WAT    EPW99871   1.886   0.061   7.932  0.1965  0.1513  0.1814
24517WAT      O99872  -1.451   7.521   3.788  0.3589  0.0428  0.2231
24517WAT     H199873  -1.432   7.464   3.713 -0.5396 -0.2406  0.1954
24517WAT     H299874  -1.371   7.571   3.801  0.3757  0.4505 -1.2519
24517WAT    EPW99875  -1.438   7.520   3.780  0.2427  0.0591  0.0249
24518WAT      O99876  -5.530   9.287   6.395 -0.3249 -0.0254  0.3558
24518WAT     H199877  -5.490   9.368   6.362  0.3846 -1.5287 -2.9500
24518WAT     H299878  -5.621   9.293   6.367  0.1766 -1.1063 -1.7721
24518WAT    EPW99879  -5.537   9.299   6.387 -0.1650 -0.3662 -0.3607
24519WAT      O99880   2.517   3.357   8.546 -0.2470  0.8086 -0.5349
24519WAT     H199881   2.559   3.442   8.555  0.0617  0.8439 -2.0459
24519WAT     H299882   2.505   3.326   8.636  0.4829  2.0262 -0.0008
24519WAT    EPW99883   2.521   3.364   8.559 -0.1099  0.9739 -0.6638
24520WAT      O99884   5.245   2.822   4.875 -0.4126  0.0047 -0.2310
24520WAT     H199885   5.165   2.863   4.842 -0.0555  0.9779  0.0494
24520WAT     H299886   5.303   2.896   4.894  0.0734 -0.6123  0.8069
24520WAT    EPW99887   5.242   2.837   4.873 -0.3011  0.0517 -0.0570
24521WAT      O99888   3.274   4.422   3.189  0.2713 -0.5494  0.2016
24521WAT     H199889   3.223   4.366   3.247  0.4159  1.0451  1.9755
24521WAT     H299890   3.227   4.506   3.190  2.7125  0.9140  1.7441
24521WAT    EPW99891   3.261   4.426   3.196  0.6124 -0.1462  0.6390
24522WAT      O99892  -1.717   3.065   1.942 -0.0739 -0.3374 -0.3642
24522WAT     H199893  -1.726   3.043   2.035 -1.6786 -1.2385 -0.6907
24522WAT     H299894  -1.648   3.005   1.910  1.4746  0.9100  0.4808
24522WAT    EPW99895  -1.709   3.054   1.950 -0.0813 -0.2917 -0.2958
24523WAT      O99896  -6.235   5.840   8.631 -0.0659  0.0319  0.1746
24523WAT     H199897  -6.245   5.931   8.600  0.1348  0.5396  1.5317
24523WAT     H299898  -6.312   5.795   8.595  0.7861  0.2490 -2.0873
24523WAT    EPW99899  -6.247   5.846   8.622  0.0727  0.1273  0.0553
24524WAT      O99900  -3.744   9.401   4.001  0.6210  0.4512 -0.3101
24524WAT     H199901  -3.816   9.342   4.022 -2.0867  3.2443 -1.1226
24524WAT     H299902  -3.729   9.388   3.907  2.6295 -1.4844  0.1933
24524WAT    EPW99903  -3.751   9.391   3.991  0.5288  0.5641 -0.3507
24525WAT      O99904   1.435   9.624   2.450  0.3581 -0.8753 -0.1074
24525WAT     H199905   1.485   9.596   2.527  0.6683  0.1102  0.0677
24525WAT     H299906   1.353   9.658   2.486  0.9049  0.5140 -0.0946
24525WAT    EPW99907   1.431   9.625   2.465  0.4711 -0.5622 -0.0827
24526WAT      O99908   0.239   7.316   2.010  0.9272  0.5953 -0.8187
24526WAT     H199909   0.173   7.311   2.080  1.8257  1.5335  0.1354
24526WAT     H299910   0.192   7.348   1.934  0.1233  0.4802 -0.3821
24526WAT    EPW99911   0.224   7.319   2.010  0.9396  0.7038 -0.6353
24527WAT      O99912   2.429   5.503   3.486 -0.3000  0.3762 -0.4380
24527WAT     H199913   2.369   5.428   3.492 -0.3528  0.5098  0.8938
24527WAT     H299914   2.463   5.498   3.396 -1.4762 -0.3268 -0.8747
24527WAT    EPW99915   2.426   5.492   3.475 -0.4621  0.3009 -0.3200
24528WAT      O99916  -3.408   2.849   8.283  0.2628  0.4126 -0.2578
24528WAT     H199917  -3.374   2.926   8.329 -2.1788  1.5156 -0.1643
24528WAT     H299918  -3.431   2.788   8.353  1.0995  0.0602 -0.2790
24528WAT    EPW99919  -3.406   2.851   8.298  0.0511  0.5115 -0.2480
24529WAT      O99920  -3.280  10.083   7.978  0.1560 -0.6242 -0.4179
24529WAT     H199921  -3.332  10.155   7.943  2.5271  0.8751 -1.0694
24529WAT     H299922  -3.215  10.125   8.034  0.7376 -2.4096  0.3293
24529WAT    EPW99923  -3.278  10.098   7.981  0.5454 -0.6623 -0.4053
24530WAT      O99924   3.261   2.272   5.013 -0.1791 -0.5827 -0.8399
24530WAT     H199925   3.344   2.245   5.052 -0.4045  0.0650  0.1477
24530WAT     H299926   3.229   2.340   5.072 -1.5886 -1.0810 -0.9860
24530WAT    EPW99927   3.268   2.277   5.026 -0.3947 -0.5630 -0.7288
24531WAT      O99928  -2.317   8.556   2.271  0.0581 -0.4253  0.3646
24531WAT     H199929  -2.370   8.486   2.309 -2.5739  0.5475 -1.2332
24531WAT     H299930  -2.242   8.564   2.330 -2.1749 -1.0672  3.5415
24531WAT    EPW99931  -2.314   8.548   2.284 -0.5836 -0.3819  0.5729
24532WAT      O99932   2.361   1.017   6.246  0.8788  0.0669  0.1870
24532WAT     H199933   2.281   1.061   6.219  1.8439  0.0998 -3.1178
24532WAT     H299934   2.417   1.020   6.168  2.9037 -2.6678  1.3654
24532WAT    EPW99935   2.358   1.024   6.232  1.2732 -0.2894 -0.0932
24533WAT      O99936  -1.075   2.291   7.623  0.2082 -0.6948 -0.7890
24533WAT     H199937  -0.986   2.263   7.646 -0.0336 -0.4712  0.4780
24533WAT     H299938  -1.084   2.377   7.664 -1.0828 -1.3421  0.3621
24533WAT    EPW99939  -1.064   2.298   7.631  0.0060 -0.7507 -0.4699
24534WAT      O99940  -1.080   5.263   3.003  0.2355 -0.2080 -0.1242
24534WAT     H199941  -1.117   5.217   2.927 -0.3905 -0.2761  0.2132
24534WAT     H299942  -1.011   5.318   2.966  0.4553 -0.8146 -0.6434
24534WAT    EPW99943  -1.076   5.264   2.988  0.1820 -0.2968 -0.1481
24535WAT      O99944  -0.407   0.197   2.009  1.2082  0.0054 -0.0238
24535WAT     H199945  -0.473   0.137   2.042  2.8687 -0.3468  3.0434
24535WAT     H299946  -0.455   0.255   1.950 -1.7195 -0.5921  1.5634
24535WAT    EPW99947  -0.422   0.197   2.006  1.0411 -0.1199  0.5902
24536WAT      O99948   4.901   3.172   0.630 -0.3951  1.2501 -0.6839
24536WAT     H199949   4.908   3.159   0.536  0.6315 -3.2670 -0.2162
24536WAT     H299950   4.807   3.178   0.647 -0.5698  2.8018 -1.9542
24536WAT    EPW99951   4.890   3.171   0.620 -0.2830  0.8589 -0.7897
24537WAT      O99952  -1.082   2.067   8.947  0.5627 -0.2712 -0.5181
24537WAT     H199953  -1.034   1.996   8.904  0.3981 -0.0611 -1.0578
24537WAT     H299954  -1.114   2.121   8.875 -0.8983 -0.6601 -0.1844
24537WAT    EPW99955  -1.080   2.065   8.932  0.3483 -0.2948 -0.5455
24538WAT      O99956   4.269   0.822   1.482 -0.7021  0.2292 -0.6696
24538WAT     H199957   4.178   0.816   1.453 -0.6204 -0.2370 -0.8350
24538WAT     H299958   4.269   0.892   1.547 -1.1244  0.4300 -0.8798
24538WAT    EPW99959   4.257   0.831   1.487 -0.7470  0.1942 -0.7192
24539WAT      O99960  -5.605   9.324   4.276 -0.2025  0.0279 -0.0117
24539WAT     H199961  -5.554   9.249   4.309  0.8022  1.9523  3.2083
24539WAT     H299962  -5.541   9.378   4.231 -0.4829  0.0423 -0.4005
24539WAT    EPW99963  -5.590   9.321   4.274 -0.1070  0.2832  0.3614
24540WAT      O99964  -5.018   4.761   7.634 -0.8828 -0.0849 -0.0645
24540WAT     H199965  -5.031   4.855   7.622  2.7287  0.4432 -0.7972
24540WAT     H299966  -4.985   4.752   7.723  1.9766 -0.1358 -1.0396
24540WAT    EPW99967  -5.016   4.772   7.644 -0.0291 -0.0219 -0.2897
24541WAT      O99968   7.280   3.614   2.216  0.4592  0.0426 -0.4933
24541WAT     H199969   7.207   3.598   2.276  1.0285  1.3489  0.6049
24541WAT     H299970   7.320   3.695   2.248  1.0539  0.5545 -2.3972
24541WAT    EPW99971   7.276   3.623   2.228  0.6127  0.2824 -0.5995
24542WAT      O99972   1.370   5.591   3.108  0.1032 -0.6530 -0.2335
24542WAT     H199973   1.431   5.664   3.107  0.9745 -1.3573 -1.4866
24542WAT     H299974   1.409   5.526   3.050  0.2548 -2.8791  2.1526
24542WAT    EPW99975   1.383   5.592   3.100  0.2381 -1.0395 -0.0842
24543WAT      O99976  -2.043   7.711   2.301 -0.3574  0.1535  0.9220
24543WAT     H199977  -2.043   7.726   2.206 -3.0380 -1.5576  0.5412
24543WAT     H299978  -1.957   7.673   2.319  1.3609  3.1467 -0.2230
24543WAT    EPW99979  -2.032   7.708   2.291 -0.4843  0.3226  0.7207
24544WAT      O99980  -0.295   0.467   4.845  0.8131 -0.3584  0.2512
24544WAT     H199981  -0.300   0.376   4.875 -1.0283 -1.0770 -1.9554
24544WAT     H299982  -0.266   0.516   4.922  3.9929 -3.0023  0.9799
24544WAT    EPW99983  -0.292   0.462   4.859  0.9896 -0.8019  0.0563
24545WAT      O99984   6.591   4.140   2.659  0.1669  0.4427  0.0483
24545WAT     H199985   6.637   4.180   2.585  1.4718  0.9361  1.0846
24545WAT     H299986   6.511   4.104   2.621  0.0843  1.9825 -1.3475
24545WAT    EPW99987   6.586   4.141   2.644  0.3281  0.7107  0.0010
24546WAT      O99988   4.277   4.173   0.403 -0.1495 -0.8605  0.4758
24546WAT     H199989   4.221   4.140   0.474 -2.5604  1.9106  0.0812
24546WAT     H299990   4.218   4.179   0.327  1.0572  0.7915 -0.3928
24546WAT    EPW99991   4.262   4.169   0.402 -0.3085 -0.2770  0.3092
24547WAT      O99992  -2.939   6.570   5.871  0.3531  0.2962  0.1121
24547WAT     H199993  -3.012   6.573   5.933 -0.3299 -1.1041 -0.5743
24547WAT     H299994  -2.913   6.478   5.870  1.3995  0.5876 -0.5069
24547WAT    EPW99995  -2.945   6.558   5.879  0.4010  0.1500 -0.0601
24548WAT      O99996  -3.857   3.981   6.666  0.6500  0.7515 -0.3119
24548WAT     H199997  -3.820   4.068   6.680  0.0308  1.4955 -2.7189
24548WAT     H299998  -3.880   3.950   6.753  2.1378  2.4114  0.7354
24548WAT    EPW99999  -3.855   3.988   6.679  0.7646  1.0685 -0.4911
24549WAT      O    0  -1.419   8.591   7.214 -0.3238  0.0362 -0.4788
24549WAT     H1    1  -1.457   8.585   7.127  0.1256  2.0850 -0.8905
24549WAT     H2    2  -1.403   8.685   7.226 -0.3655 -0.1963  1.8059
24549WAT    EPW    3  -1.422   8.603   7.204 -0.2700  0.2756 -0.2317
24550WAT      O    4   1.791   1.888   5.495  0.1037  0.3244  0.1100
24550WAT     H1    5   1.809   1.973   5.535 -0.2192  0.0886  0.7585
24550WAT     H2    6   1.696   1.887   5.482  0.1341  0.1527 -0.1048
24550WAT    EPW    7   1.781   1.899   5.498  0.0651  0.2707  0.1669
24551WAT      O    8   6.034   0.813   5.957 -0.7081 -0.1692  0.0857
24551WAT     H1    9   6.122   0.826   5.991 -0.7048  3.3623 -0.7859
24551WAT     H2   10   6.041   0.739   5.897  1.7435  0.1745 -0.1366
24551WAT    EPW   11   6.046   0.805   5.953 -0.3843  0.3420 -0.0587
24552WAT      O   12  -0.933   9.554   0.449 -0.5271  0.0043 -0.6041
24552WAT     H1   13  -0.857   9.591   0.494  0.7780 -1.2572 -1.6605
24552WAT     H2   14  -1.003   9.619   0.462  0.9983  1.7015 -0.4726
24552WAT    EPW   15  -0.932   9.568   0.457 -0.1538  0.0615 -0.7261
24553WAT      O   16  -1.560   8.892   7.269  0.1586  0.6233 -0.0060
24553WAT     H1   17  -1.475   8.895   7.313  0.5611  1.6150 -0.8032
24553WAT     H2   18  -1.618   8.848   7.331  0.5297  2.5359  1.7826
24553WAT    EPW   19  -1.556   8.886   7.283  0.2606  1.0061  0.1247
24554WAT      O   20   7.508   4.041   1.777 -0.1645 -0.1846 -0.5939
24554WAT     H1   21   7.467   4.124   1.803  0.3539  0.3526 -1.4249
24554WAT     H2   22   7.505   4.043   1.681  2.5567  0.3022 -0.7453
24554WAT    EPW   23   7.502   4.052   1.767  0.2627 -0.0498 -0.7234
24555WAT      O   24   1.871   8.993   2.484  0.1433 -0.1292  0.2844
24555WAT     H1   25   1.897   8.953   2.401  0.3693  0.3878  0.1048
24555WAT     H2   26   1.905   9.082   2.480  0.0673 -0.0661  0.8898
24555WAT    EPW   27   1.879   9.000   2.472  0.1631 -0.0529  0.3406
24556WAT      O   28   1.263   8.667   8.631 -0.2844  0.0830  0.9005
24556WAT     H1   29   1.196   8.717   8.678  1.8436  2.5402  1.5162
24556WAT     H2   30   1.343   8.718   8.642  1.3073 -1.7144 -1.4601
24556WAT    EPW   31   1.264   8.681   8.638  0.2062  0.1702  0.6709
24557WAT      O   32  -0.913   7.290   5.520  0.3925  0.1819  0.2971
24557WAT     H1   33  -0.993   7.238   5.512 -1.3333  2.7225 -0.0629
24557WAT     H2   34  -0.847   7.227   5.550 -1.9579 -1.8181  1.6941
24557WAT    EPW   35  -0.915   7.275   5.523 -0.1452  0.2532  0.4339
24558WAT      O   36  -4.565   8.697   8.076  0.1116 -0.3739  0.0095
24558WAT     H1   37  -4.630   8.664   8.014  1.0673 -0.3872 -1.0128
24558WAT     H2   38  -4.579   8.646   8.156 -2.0520  0.5808  0.3137
24558WAT    EPW   39  -4.575   8.686   8.079 -0.0474 -0.2494 -0.0854
24559WAT      O   40   1.332   8.361   2.117 -0.1954  0.2308  1.0433
24559WAT     H1   41   1.409   8.310   2.142 -0.8766 -0.6991  1.2924
24559WAT     H2   42   1.260   8.298   2.115 -0.5456  0.6098 -1.5031
24559WAT    EPW   43   1.333   8.346   2.120 -0.3315  0.1578  0.7403
24560WAT      O   44   3.229   2.626   6.068  0.0911 -0.9538  0.6364
24560WAT     H1   45   3.183   2.709   6.072 -2.0868 -1.8126 -2.5893
24560WAT     H2   46   3.221   2.590   6.156  2.2591  2.6391  2.5366
24560WAT    EPW   47   3.222   2.632   6.080  0.0898 -0.5932  0.4616
24561WAT      O   48   6.219   5.637   0.313 -0.0402  0.1431  0.3776
24561WAT     H1   49   6.154   5.663   0.248 -0.6228 -0.2633  0.7936
24561WAT     H2   50   6.258   5.557   0.277  1.6502  1.4235 -0.8316
24561WAT    EPW   51   6.216   5.630   0.300  0.1059  0.2582  0.2730
24562WAT      O   52  -0.525   0.283   1.537  0.5199  0.4859 -0.1550
24562WAT     H1   53  -0.565   0.303   1.621 -1.6769 -1.2157 -0.7058
24562WAT     H2   54  -0.431   0.286   1.554  0.1534  1.3735  2.0375
24562WAT    EPW   55  -0.518   0.286   1.550  0.1818  0.3786  0.0616
24563WAT      O   56   0.683   9.921   5.981  0.5433  0.2952 -0.8201
24563WAT     H1   57   0.671   9.826   5.985  0.2744  0.3798  1.3065
24563WAT     H2   58   0.596   9.956   5.965  0.8085  0.1838 -2.7788
24563WAT    EPW   59   0.670   9.913   5.979  0.5428  0.2918 -0.7980
24564WAT      O   60   8.174   0.554   0.035 -0.2318 -0.3380  0.9499
24564WAT     H1   61   8.141   0.530   0.122 -3.7467 -1.5063 -0.5361
24564WAT     H2   62   8.221   0.476   0.005 -1.9513 -1.2415  0.5223
24564WAT    EPW   63   8.176   0.540   0.043 -0.9222 -0.6113  0.6975
24565WAT      O   64   1.021  10.197   3.471 -0.0813 -0.0968 -0.2691
24565WAT     H1   65   0.935  10.155   3.472 -0.8154  1.3383  0.3111
24565WAT     H2   66   1.009  10.277   3.522  2.0480 -0.6950  1.3145
24565WAT    EPW   67   1.008  10.202   3.478  0.1028  0.0134  0.0165
24566WAT      O   68  -2.084   7.154   6.684  0.3888 -0.0219 -1.1214
24566WAT     H1   69  -2.031   7.177   6.760 -0.1989 -1.4211 -0.2528
24566WAT     H2   70  -2.039   7.194   6.610 -0.0138  2.9494  0.1262
24566WAT    EPW   71  -2.071   7.162   6.684  0.2581  0.1855 -0.8423
24567WAT      O   72  -2.420   7.109   2.317  0.2280 -0.0951 -0.0856
24567WAT     H1   73  -2.386   7.040   2.374 -0.5502  0.0242  0.5281
24567WAT     H2   74  -2.342   7.157   2.288  0.5410  1.1756  2.5855
24567WAT    EPW   75  -2.405   7.107   2.321  0.1667  0.0882  0.3476
24568WAT      O   76   4.178  10.150   2.066  0.1548  0.0440  0.4513
24568WAT     H1   77   4.112  10.110   2.009  0.1214  0.1063  0.4461
24568WAT     H2   78   4.250  10.172   2.007 -0.2151  0.8757  0.2834
24568WAT    EPW   79   4.178  10.148   2.050  0.1016  0.1621  0.4284
24569WAT      O   80  -0.788   3.393   8.559  0.1934 -0.1821  0.6147
24569WAT     H1   81  -0.873   3.390   8.604  0.3530 -0.0704  0.9262
24569WAT     H2   82  -0.731   3.336   8.612  0.8418  1.2740  1.5278
24569WAT    EPW   83  -0.792   3.385   8.572  0.3000  0.0247  0.7758
24570WAT      O   84   3.145   2.464   2.018  0.1593  0.3491  0.7058
24570WAT     H1   85   3.115   2.497   1.933 -0.7886  2.8670  1.9089
24570WAT     H2   86   3.185   2.380   1.998 -0.9595  0.3588 -2.0847
24570WAT    EPW   87   3.146   2.458   2.004 -0.1132  0.6825  0.4965
24571WAT      O   88  -1.224   4.452   3.428  0.3398  0.1620  0.0029
24571WAT     H1   89  -1.161   4.398   3.476  0.4489 -0.5963 -0.9596
24571WAT     H2   90  -1.169   4.516   3.382  0.3797 -0.1880 -0.4453
24571WAT    EPW   91  -1.208   4.453   3.428  0.3595  0.0157 -0.1832
24572WAT      O   92   1.760   7.620   1.188  0.4776 -0.5779 -0.2197
24572WAT     H1   93   1.715   7.539   1.212 -0.1229 -1.0155 -2.5699
24572WAT     H2   94   1.849   7.592   1.165  1.7901  0.1343  3.3216
24572WAT    EPW   95   1.766   7.606   1.188  0.5714 -0.5417 -0.0626
24573WAT      O   96   1.555   2.376   4.152  0.2027 -0.1838  0.0348
24573WAT     H1   97   1.641   2.391   4.114 -0.0364  0.6034 -0.2033
24573WAT     H2   98   1.495   2.381   4.077 -0.0988 -0.3006  0.2655
24573WAT    EPW   99   1.558   2.378   4.137  0.1314 -0.0954  0.0339
24574WAT      O  100   3.659   0.152   8.675 -0.2649 -0.1793  0.2841
24574WAT     H1  101   3.611   0.208   8.615  1.1697  1.6539  0.7391
24574WAT     H2  102   3.627   0.064   8.657 -3.7026  0.8716  0.5243
24574WAT    EPW  103   3.648   0.148   8.665 -0.5291  0.2011  0.3762
24575WAT      O  104   1.846   1.199   7.039  0.0254  0.1625  0.2179
24575WAT     H1  105   1.864   1.105   7.048  0.3145  0.0049 -1.7240
24575WAT     H2  106   1.921   1.241   7.081  0.6155 -0.4847 -0.1647
24575WAT    EPW  107   1.858   1.192   7.046  0.1414  0.0564 -0.0887
24576WAT      O  108   4.577   8.621   1.030  0.4613  0.0341 -0.2165
24576WAT     H1  109   4.491   8.581   1.043 -0.1817  0.3685 -2.8063
24576WAT     H2  110   4.626   8.557   0.978  1.0501  0.6709 -0.4713
24576WAT    EPW  111   4.572   8.608   1.025  0.4542  0.1626 -0.5918
24577WAT      O  112  -1.799   6.356   0.096  0.5429  0.9319  0.2685
24577WAT     H1  113  -1.848   6.383   0.174 -0.2360 -0.1294  0.1606
24577WAT     H2  114  -1.865   6.345   0.029  0.9654 -0.1668  0.0125
24577WAT    EPW  115  -1.814   6.358   0.098  0.4960  0.6471  0.2205
24578WAT      O  116   1.740   4.162   2.143 -0.3883  0.3859 -0.7961
24578WAT     H1  117   1.754   4.113   2.224  1.0317  3.2189  0.8419
24578WAT     H2  118   1.685   4.105   2.090 -3.0987 -0.8782  2.9021
24578WAT    EPW  119   1.735   4.148   2.147 -0.5585  0.5929 -0.0923
24579WAT      O  120   0.243   6.143   3.437  0.2568  0.4116 -0.3626
24579WAT     H1  121   0.250   6.110   3.527 -0.3311  0.3461 -0.3368
24579WAT     H2  122   0.274   6.070   3.382  0.7653  0.5089 -0.2047
24579WAT    EPW  123   0.248   6.129   3.442  0.2463  0.4158 -0.3383
24580WAT      O  124   1.578   6.203  -0.018 -0.4482 -0.3441  0.8014
24580WAT     H1  125   1.654   6.204   0.041 -0.3183 -2.4958  0.7417
24580WAT     H2  126   1.507   6.168   0.036 -0.9679  0.0151  0.3570
24580WAT    EPW  127   1.579   6.199  -0.003 -0.4996 -0.5805  0.7343
24581WAT      O  128  -4.252  10.152   6.169 -0.1692  0.0178  0.7455
24581WAT     H1  129  -4.192  10.116   6.104 -0.4777 -0.6365  0.8111
24581WAT     H2  130  -4.265  10.243   6.143 -2.0230 -0.7954 -1.4300
24581WAT    EPW  131  -4.246  10.159   6.157 -0.4544 -0.1755  0.4673
24582WAT      O  132   5.584   0.743   0.565 -0.0543 -0.2190  0.3335
24582WAT     H1  133   5.489   0.736   0.558 -0.1872 -1.5883  2.4815
24582WAT     H2  134   5.615   0.652   0.563  1.1112  0.1530  0.6827
24582WAT    EPW  135   5.576   0.730   0.564  0.0818 -0.3505  0.6629
24583WAT      O  136  -0.673  10.356   0.655 -0.3799  1.0320  0.0073
24583WAT     H1  137  -0.611  10.428   0.655  1.0950 -0.1378 -2.3456
24583WAT     H2  138  -0.639  10.295   0.721 -1.8384  2.5115  2.2795
24583WAT    EPW  139  -0.660  10.357   0.664 -0.3777  1.0734 -0.0033
24584WAT      O  140   4.468   1.920   8.845  0.3764  0.3205 -0.1746
24584WAT     H1  141   4.467   1.995   8.785  3.0316  0.5843 -0.0235
24584WAT     H2  142   4.430   1.954   8.927 -1.1962  0.5881 -0.9721
24584WAT    EPW  143   4.463   1.935   8.848  0.5193  0.3906 -0.2599
24585WAT      O  144   1.761   9.065   1.415  0.6391  0.5574  0.4942
24585WAT     H1  145   1.667   9.071   1.397  0.9071 -1.7476 -2.3204
24585WAT     H2  146   1.766   9.064   1.511 -2.2622 -0.0128  0.7354
24585WAT    EPW  147   1.749   9.066   1.426  0.2918  0.1779  0.1548
24586WAT      O  148   0.622   5.532   2.750 -0.3590  0.1815 -0.5050
24586WAT     H1  149   0.610   5.480   2.670  1.0819 -0.4001 -0.3760
24586WAT     H2  150   0.627   5.467   2.820  1.2867  0.4750 -0.3208
24586WAT    EPW  151   0.621   5.516   2.749  0.0481  0.1435 -0.4638
24587WAT      O  152   4.214   0.290   6.301 -0.3288  0.3428 -0.2847
24587WAT     H1  153   4.297   0.256   6.265 -0.6286  1.8897 -2.7191
24587WAT     H2  154   4.158   0.213   6.308  1.2641 -0.7426  1.4337
24587WAT    EPW  155   4.218   0.275   6.297 -0.1583  0.4037 -0.3791
24588WAT      O  156   1.506   9.928   2.002  1.2906  0.1706 -0.1974
24588WAT     H1  157   1.442  10.000   2.006 -0.8937 -1.6100 -0.7119
24588WAT     H2  158   1.489   9.878   2.082  0.8460 -1.2253 -1.1265
24588WAT    EPW  159   1.495   9.931   2.013  0.9439 -0.2484 -0.3878
24589WAT      O  160   6.592   3.817   4.543 -0.0332 -0.4102  0.4350
24589WAT     H1  161   6.537   3.891   4.516 -1.6168 -0.7099  2.5637
24589WAT     H2  162   6.586   3.755   4.470 -1.9828 -0.1036  0.2749
24589WAT    EPW  163   6.584   3.818   4.530 -0.4990 -0.4094  0.6948
24590WAT      O  164   5.636   9.082   0.537  0.1602  0.4897 -0.0010
24590WAT     H1  165   5.546   9.080   0.505  0.2548  0.8446 -0.3015
24590WAT     H2  166   5.682   9.139   0.475  0.9760 -0.9977 -0.8344
24590WAT    EPW  167   5.631   9.090   0.525  0.2804  0.3405 -0.1506
24591WAT      O  168   2.726   3.309   3.384  0.7139  0.4252  0.3400
24591WAT     H1  169   2.796   3.372   3.369  2.6145 -1.0169  2.6071
24591WAT     H2  170   2.646   3.363   3.387  1.4956  2.0445 -2.9055
24591WAT    EPW  171   2.725   3.324   3.382  1.0676  0.4485  0.2110
24592WAT      O  172  -0.168   4.031   2.319  0.9351  0.8154  0.5567
24592WAT     H1  173  -0.219   3.950   2.313  1.7064  0.4474 -2.9592
24592WAT     H2  174  -0.233   4.100   2.332 -0.3143  0.1258 -1.5898
24592WAT    EPW  175  -0.183   4.029   2.320  0.8721  0.6757 -0.1901
24593WAT      O  176  -0.102   3.992   3.593  0.2772  0.2069 -0.5695
24593WAT     H1  177  -0.181   4.015   3.643  0.9706 -1.5421  1.4676
24593WAT     H2  178  -0.135   3.939   3.521 -0.3862 -1.7226  1.0518
24593WAT    EPW  179  -0.117   3.988   3.590  0.2811 -0.2782 -0.0870
24594WAT      O  180  -2.327   3.377   8.584  0.1525 -0.1292  0.0817
24594WAT     H1  181  -2.249   3.322   8.577 -0.4628 -0.7586 -4.6499
24594WAT     H2  182  -2.302   3.460   8.543 -1.1413  0.4018  0.3079
24594WAT    EPW  183  -2.313   3.381   8.578 -0.0993 -0.1421 -0.5126
24595WAT      O  184   3.942   0.844   1.221  0.2994  0.1277 -0.4254
24595WAT     H1  185   3.907   0.759   1.246  1.7709 -0.7600 -1.1881
24595WAT     H2  186   4.034   0.826   1.200  1.3954  2.3839  1.9576
24595WAT    EPW  187   3.950   0.830   1.221  0.6381  0.3082 -0.2116
24596WAT      O  188   2.192   9.371   7.378 -0.5196 -0.0831 -0.6747
24596WAT     H1  189   2.109   9.326   7.392 -0.9258  0.2051 -2.0709
24596WAT     H2  190   2.194   9.390   7.284  1.2110 -0.2566 -0.7029
24596WAT    EPW  191   2.182   9.368   7.367 -0.3449 -0.0682 -0.8626
24597WAT      O  192   3.653   4.838   1.923 -0.2895 -0.0828  0.6077
24597WAT     H1  193   3.638   4.836   2.018  0.2514  1.3404  0.7385
24597WAT     H2  194   3.566   4.835   1.885 -0.4961 -1.1333  1.1259
24597WAT    EPW  195   3.640   4.837   1.931 -0.2455 -0.0339  0.6933
24598WAT      O  196   1.914   5.897   1.514 -0.3041 -0.6434 -0.6421
24598WAT     H1  197   1.826   5.875   1.546  0.1746 -0.6402  0.7605
24598WAT     H2  198   1.972   5.870   1.585  0.6644  1.2622 -0.6503
24598WAT    EPW  199   1.910   5.890   1.528 -0.1132 -0.3915 -0.4582
24599WAT      O  200   6.290   3.180   3.708  0.4216  0.0765  0.9779
24599WAT     H1  201   6.343   3.247   3.751 -0.6570  0.5569  1.5843
24599WAT     H2  202   6.322   3.097   3.743 -0.4763  0.4561  2.8027
24599WAT    EPW  203   6.301   3.178   3.718  0.1609  0.1900  1.2984
24600WAT      O  204  -6.062   2.923   8.256  0.1171  0.1805 -0.2007
24600WAT     H1  205  -6.076   2.919   8.351  1.5431  2.2637  0.1612
24600WAT     H2  206  -6.147   2.947   8.219 -0.1631  0.5466  0.6661
24600WAT    EPW  207  -6.075   2.925   8.264  0.2682  0.5035 -0.0386
24601WAT      O  208  -2.706   8.386   3.239 -1.1067  0.1753 -0.3196
24601WAT     H1  209  -2.724   8.470   3.197 -1.9778  0.7273  1.0622
24601WAT     H2  210  -2.749   8.393   3.325  0.8746 -0.7363  0.8147
24601WAT    EPW  211  -2.714   8.398   3.245 -0.9603  0.1278  0.0123
24602WAT      O  212  -1.840   0.630   7.443  0.1409 -0.3030  0.1316
24602WAT     H1  213  -1.860   0.581   7.363 -0.0593  1.3033 -0.8410
24602WAT     H2  214  -1.751   0.662   7.430  0.2636 -0.3878  0.7430
24602WAT    EPW  215  -1.831   0.628   7.431  0.1307 -0.1024  0.0839
24603WAT      O  216   5.904   7.842   3.146 -1.0229  0.3534  0.5378
24603WAT     H1  217   5.916   7.930   3.182  1.5712  0.0767  0.5781
24603WAT     H2  218   5.874   7.856   3.056  0.1391  1.3433  0.2732
24603WAT    EPW  219   5.902   7.855   3.139 -0.5274  0.4475  0.5083
24604WAT      O  220  -2.664   7.724   8.587  0.0354  0.7119 -0.2737
24604WAT     H1  221  -2.643   7.729   8.680  3.0034 -0.4058 -0.7503
24604WAT     H2  222  -2.712   7.805   8.569 -0.4741  1.0387  2.1499
24604WAT    EPW  223  -2.667   7.735   8.597  0.3597  0.6075 -0.0172
24605WAT      O  224   5.647   3.303   5.125  0.0879 -0.2265 -0.3934
24605WAT     H1  225   5.565   3.316   5.172 -0.5750 -0.6291 -1.4205
24605WAT     H2  226   5.627   3.322   5.034  1.4229  0.7888 -0.5160
24605WAT    EPW  227   5.634   3.307   5.119  0.1767 -0.1456 -0.5450
24606WAT      O  228   4.977   7.184   4.851 -0.1480  0.1200  0.9127
24606WAT     H1  229   4.957   7.157   4.761  0.7059 -1.8692  1.2695
24606WAT     H2  230   4.909   7.142   4.904  0.4904 -0.3351  1.3752
24606WAT    EPW  231   4.965   7.175   4.846  0.0489 -0.2022  1.0209
24607WAT      O  232   1.038   4.919   0.440  0.0255  0.2008 -0.2606
24607WAT     H1  233   0.998   4.991   0.489 -0.6415 -1.2719  1.4599
24607WAT     H2  234   0.964   4.864   0.414  0.6855 -0.9852  0.3262
24607WAT    EPW  235   1.023   4.922   0.443  0.0246 -0.1500  0.0437
24608WAT      O  236   8.166   2.178   0.111  0.6565 -0.3032 -0.3774
24608WAT     H1  237   8.132   2.094   0.143 -2.6721  1.0522  0.0498
24608WAT     H2  238   8.194   2.159   0.021 -0.6773 -1.7311 -0.5417
24608WAT    EPW  239   8.165   2.164   0.103  0.0415 -0.3127 -0.3427
24609WAT      O  240   2.056   9.232   0.466 -0.2509 -0.5354  0.4721
24609WAT     H1  241   2.017   9.152   0.501  1.5349 -1.1029  1.2969
24609WAT     H2  242   2.146   9.232   0.501  0.6235  0.4932 -1.5906
24609WAT    EPW  243   2.063   9.221   0.475  0.1000 -0.4749  0.3088
24610WAT      O  244   3.259   6.792   5.155  0.3389  0.0634  0.8329
24610WAT     H1  245   3.178   6.814   5.109  0.4005  0.1241  0.7527
24610WAT     H2  246   3.296   6.719   5.105 -0.1378 -0.5859  1.4106
24610WAT    EPW  247   3.253   6.785   5.142  0.2841 -0.0143  0.8984
24611WAT      O  248   6.701   5.121   1.574  0.3588 -0.0185  0.2286
24611WAT     H1  249   6.759   5.188   1.611  3.1546 -1.6413 -0.8317
24611WAT     H2  250   6.677   5.155   1.488 -1.4601  1.2497  1.1872
24611WAT    EPW  251   6.706   5.134   1.567  0.4876 -0.0653  0.2152
24612WAT      O  252  -3.846  10.012   5.764  0.0392  0.4144  0.3887
24612WAT     H1  253  -3.931  10.017   5.809 -0.5394 -1.3407 -0.4014
24612WAT     H2  254  -3.835   9.918   5.746 -0.4621  1.0243 -4.3605
24612WAT    EPW  255  -3.856  10.000   5.768 -0.1034  0.2637 -0.3419
24613WAT      O  256   2.059   4.623   6.325  0.5487 -0.4870  0.3338
24613WAT     H1  257   2.070   4.573   6.405 -0.0292 -0.7008  0.2768
24613WAT     H2  258   2.005   4.568   6.269  0.3418 -0.0227  0.0755
24613WAT    EPW  259   2.054   4.609   6.328  0.4452 -0.4537  0.2923
24614WAT      O  260   8.139   0.449   1.805 -0.2057 -0.3385 -0.2009
24614WAT     H1  261   8.200   0.519   1.783 -1.4803  0.2660 -2.0259
24614WAT     H2  262   8.052   0.487   1.791 -0.9567 -1.9328 -0.1074
24614WAT    EPW  263   8.136   0.463   1.801 -0.4730 -0.4690 -0.4293
24615WAT      O  264   2.035   9.504   6.046  0.2003  0.1826 -0.4789
24615WAT     H1  265   2.047   9.587   5.999 -1.8156  0.9595  0.2634
24615WAT     H2  266   2.122   9.483   6.080  0.2107  4.1739  2.7771
24615WAT    EPW  267   2.048   9.513   6.044 -0.0643  0.8116  0.0486
24616WAT      O  268   4.387   1.359   7.059 -0.3149 -0.3008  0.7713
24616WAT     H1  269   4.440   1.336   6.984 -0.9574 -0.8971  0.4951
24616WAT     H2  270   4.447   1.406   7.117 -0.3654  2.4496 -1.1909
24616WAT    EPW  271   4.402   1.362   7.057 -0.4063 -0.0167  0.4759
24617WAT      O  272   1.263   7.700   4.489 -0.5782 -0.2979 -0.1128
24617WAT     H1  273   1.319   7.696   4.411 -1.8790 -1.8935 -1.0246
24617WAT     H2  274   1.300   7.771   4.541  0.4258  0.7493 -2.1224
24617WAT    EPW  275   1.275   7.709   4.485 -0.6173 -0.3705 -0.4981
24618WAT      O  276   4.355   6.316   6.995 -0.4986 -1.1723 -0.1719
24618WAT     H1  277   4.280   6.283   6.946 -1.8099 -1.0376  1.6413
24618WAT     H2  278   4.354   6.411   6.978  1.6845 -1.5353 -3.2455
24618WAT    EPW  279   4.345   6.324   6.986 -0.3839 -1.2026 -0.3381
24619WAT      O  280   1.394   4.460   5.237  0.4457  0.4307 -0.7109
24619WAT     H1  281   1.397   4.551   5.266 -1.7090  0.1859  0.5356
24619WAT     H2  282   1.303   4.433   5.253  0.4770 -1.3396 -2.9645
24619WAT    EPW  283   1.382   4.468   5.243  0.1656  0.1650 -0.8438
24620WAT      O  284   2.083   2.343   8.011  0.5050  0.6133 -0.7390
24620WAT     H1  285   2.087   2.290   7.931  0.5452 -2.1925  1.0102
24620WAT     H2  286   1.989   2.355   8.026  0.5042  1.8935 -1.6141
24620WAT    EPW  287   2.071   2.338   8.002  0.5102  0.4121 -0.6237
24621WAT      O  288   1.399   6.511   3.265 -0.0996 -0.2632 -0.1969
24621WAT     H1  289   1.351   6.531   3.185 -0.1347  0.6243  0.0347
24621WAT     H2  290   1.449   6.433   3.244 -0.0221  0.0220 -1.1232
24621WAT    EPW  291   1.399   6.504   3.252 -0.0940 -0.1082 -0.2885
24622WAT      O  292   1.110   8.041   5.973 -0.5550  0.6301 -0.6473
24622WAT     H1  293   1.206   8.040   5.975 -0.4106 -1.2808 -3.3008
24622WAT     H2  294   1.084   8.033   6.065  1.8551  0.1651  0.0576
24622WAT    EPW  295   1.119   8.040   5.986 -0.2181  0.3166 -0.9043
24623WAT      O  296  -0.101   2.491   6.044 -0.2768 -0.0514 -0.3002
24623WAT     H1  297  -0.033   2.441   5.999 -1.1800  0.0822 -1.8776
24623WAT     H2  298  -0.125   2.437   6.119  0.3259 -0.9196 -0.7189
24623WAT    EPW  299  -0.095   2.478   6.048 -0.3164 -0.1483 -0.5634
24624WAT      O  300  -3.075   8.002   8.120  0.2192  0.4672  0.2640
24624WAT     H1  301  -3.056   7.967   8.207 -0.9055  0.1617  0.4106
24624WAT     H2  302  -3.126   7.933   8.077  1.6453  0.1819 -1.0333
24624WAT    EPW  303  -3.080   7.988   8.126  0.2589  0.3893  0.1125
24625WAT      O  304  -2.143   2.670   3.922 -0.0031 -0.5247  0.3048
24625WAT     H1  305  -2.111   2.674   3.832 -3.0865  0.5060 -0.8654
24625WAT     H2  306  -2.222   2.616   3.917 -1.6130  1.5415  1.8656
24625WAT    EPW  307  -2.149   2.663   3.909 -0.6220 -0.1163  0.3562
24626WAT      O  308   3.721   4.013   7.302 -0.2308  0.5445 -0.0897
24626WAT     H1  309   3.645   3.956   7.297  0.0139  0.2094 -0.0714
24626WAT     H2  310   3.742   4.033   7.210  1.0243 -1.2270 -0.2499
24626WAT    EPW  311   3.714   4.008   7.289 -0.0329  0.2663 -0.1085
24627WAT      O  312  -4.217   4.307   7.106 -0.1767  0.3289  0.7243
24627WAT     H1  313  -4.173   4.365   7.168  0.0442  2.0607 -0.9550
24627WAT     H2  314  -4.265   4.366   7.047 -1.3619 -1.2968 -0.0352
24627WAT    EPW  315  -4.218   4.322   7.106 -0.3040  0.3428  0.4025
24628WAT      O  316   7.400   0.269   5.237 -0.3377  0.2070 -0.4472
24628WAT     H1  317   7.398   0.317   5.154  0.4290  2.5633  0.7999
24628WAT     H2  318   7.492   0.243   5.246 -0.2360  0.7095  0.0305
24628WAT    EPW  319   7.412   0.272   5.227 -0.2234  0.5841 -0.2198
24629WAT      O  320   5.728   8.825   0.423  0.0228 -0.2316 -1.0810
24629WAT     H1  321   5.684   8.897   0.468  1.7155  0.3033 -0.2065
24629WAT     H2  322   5.818   8.826   0.456  0.6469 -1.4709 -2.5594
24629WAT    EPW  323   5.734   8.835   0.433  0.3283 -0.3242 -1.1606
24630WAT      O  324  -1.021   8.406   3.739  0.3643 -0.3861 -0.1546
24630WAT     H1  325  -1.083   8.338   3.715  0.5080 -0.7414  0.4520
24630WAT     H2  326  -0.960   8.362   3.799  0.9617  0.0565 -0.4348
24630WAT    EPW  327  -1.021   8.391   3.744  0.4621 -0.3748 -0.1116
24631WAT      O  328  -6.398   8.658   6.233 -0.0421  0.0179  1.2914
24631WAT     H1  329  -6.342   8.735   6.236 -1.2846  0.9631  1.1628
24631WAT     H2  330  -6.486   8.693   6.219 -0.2787 -1.5633 -2.0879
24631WAT    EPW  331  -6.402   8.673   6.232 -0.2372 -0.0658  0.8287
24632WAT      O  332   7.052   6.692   0.113  0.0696  0.5656  0.0719
24632WAT     H1  333   7.086   6.605   0.133 -0.8326  0.1158 -0.3107
24632WAT     H2  334   7.112   6.751   0.159  1.9748 -0.1103 -1.3885
24632WAT    EPW  335   7.064   6.688   0.122  0.2017  0.4170 -0.1712
24633WAT      O  336  -4.121   7.777   4.727 -0.2026  0.4766  0.5829
24633WAT     H1  337  -4.215   7.781   4.744 -0.0908  0.4897  1.2094
24633WAT     H2  338  -4.087   7.717   4.794  0.0516 -0.5401 -0.4192
24633WAT    EPW  339  -4.129   7.769   4.738 -0.1543  0.3443  0.5331
24634WAT      O  340   0.611   9.773   0.618 -0.2577  0.6057  0.0921
24634WAT     H1  341   0.660   9.831   0.676 -4.4246 -0.0508  4.9547
24634WAT     H2  342   0.524   9.812   0.612 -0.8063 -0.7115 -4.0614
24634WAT    EPW  343   0.606   9.786   0.625 -0.8796  0.3452  0.1856
24635WAT      O  344   1.470   7.477   6.614 -0.2970 -0.1980 -0.7364
24635WAT     H1  345   1.419   7.464   6.694  1.9523 -1.0345  0.6276
24635WAT     H2  346   1.425   7.424   6.548 -0.7503 -1.5529  0.6100
24635WAT    EPW  347   1.457   7.469   6.616 -0.0601 -0.4871 -0.3791
24636WAT      O  348   4.501   7.200   2.611  0.5254  0.0369  0.1185
24636WAT     H1  349   4.438   7.156   2.554 -0.8035  2.1448 -0.1508
24636WAT     H2  350   4.479   7.169   2.699  0.2976 -0.5977 -0.1551
24636WAT    EPW  351   4.490   7.190   2.615  0.3202  0.2313  0.0470
24637WAT      O  352   3.504   7.540   5.371  0.6484  0.1373  0.1197
24637WAT     H1  353   3.558   7.615   5.343  0.6665 -0.0589 -0.3879
24637WAT     H2  354   3.414   7.573   5.368  0.7013  0.3167  0.4793
24637WAT    EPW  355   3.499   7.554   5.367  0.6578  0.1352  0.1001
24638WAT      O  356   6.939   0.417   1.247 -0.6759 -0.3932 -0.8245
24638WAT     H1  357   6.948   0.443   1.156  0.1155  1.0334 -0.3656
24638WAT     H2  358   6.947   0.322   1.246  1.3412 -0.2495 -2.0307
24638WAT    EPW  359   6.941   0.408   1.235 -0.3054 -0.1861 -0.9230
24639WAT      O  360   2.028   4.479   6.596 -0.6275 -0.7707 -0.1309
24639WAT     H1  361   2.032   4.391   6.634 -3.1950 -1.8568 -2.0311
24639WAT     H2  362   1.956   4.522   6.642  1.1607  0.7911  1.4053
24639WAT    EPW  363   2.019   4.473   6.607 -0.7302 -0.7079 -0.1788
24640WAT      O  364  -2.684   7.252   0.644 -0.2608  0.4728  0.7177
24640WAT     H1  365  -2.758   7.288   0.595  1.0434  1.6070 -0.4926
24640WAT     H2  366  -2.619   7.322   0.644  0.9156 -0.5787  1.5499
24640WAT    EPW  367  -2.686   7.266   0.638  0.0663  0.4838  0.6678
24641WAT      O  368   0.526   5.127   7.757 -0.2758  0.2424 -0.0407
24641WAT     H1  369   0.471   5.179   7.698 -0.2780 -0.1466 -0.3801
24641WAT     H2  370   0.579   5.072   7.700  0.4051  0.5413  0.2907
24641WAT    EPW  371   0.526   5.127   7.742 -0.1863  0.2306 -0.0420
24642WAT      O  372   5.802   8.929   1.297  0.7733  0.9263 -0.2175
24642WAT     H1  373   5.800   8.851   1.241  0.8961  1.1621 -0.5540
24642WAT     H2  374   5.793   8.895   1.386 -2.7742  0.7353 -0.5077
24642WAT    EPW  375   5.800   8.914   1.301  0.3214  0.9327 -0.3002
24643WAT      O  376  -4.140   8.293   4.093  0.1517 -0.1890  0.2352
24643WAT     H1  377  -4.222   8.258   4.059 -0.0331  0.1886  0.2849
24643WAT     H2  378  -4.163   8.331   4.177  0.4657 -0.4716  0.4509
24643WAT    EPW  379  -4.154   8.293   4.099  0.1688 -0.1764  0.2704
24644WAT      O  380  -6.769   9.403   7.941 -0.1433 -0.1754  0.1166
24644WAT     H1  381  -6.773   9.498   7.928 -1.8133 -0.5635 -3.3099
24644WAT     H2  382  -6.676   9.386   7.961  0.4868  2.0579 -0.6033
24644WAT    EPW  383  -6.757   9.413   7.942 -0.2804  0.0682 -0.4301
24645WAT      O  384   5.610   5.668   4.028 -0.1995 -0.0372 -0.6296
24645WAT     H1  385   5.556   5.711   4.094 -0.9622 -2.6197  0.5390
24645WAT     H2  386   5.699   5.696   4.048 -0.7804  2.1369 -0.8836
24645WAT    EPW  387   5.615   5.677   4.039 -0.3767 -0.0911 -0.5090
24646WAT      O  388   0.896   8.542   2.492 -0.9129 -0.4662  0.3614
24646WAT     H1  389   0.829   8.601   2.458 -2.2048 -1.1202  1.6575
24646WAT     H2  390   0.892   8.465   2.435 -2.3448 -1.1206  1.2701
24646WAT    EPW  391   0.887   8.540   2.480 -1.2721 -0.6390  0.6522
24647WAT      O  392  -6.161   9.693   4.828  0.8150  0.4680  0.7075
24647WAT     H1  393  -6.171   9.669   4.920  3.4166  1.0250  1.2154
24647WAT     H2  394  -6.235   9.751   4.810 -0.7204 -1.0211  1.9131
24647WAT    EPW  395  -6.172   9.697   4.838  0.9556  0.3448  0.9334
24648WAT      O  396   1.451   9.754   3.513 -0.0927  1.1686 -0.6636
24648WAT     H1  397   1.482   9.789   3.596  1.5715  1.5214 -1.4033
24648WAT     H2  398   1.378   9.811   3.489 -1.4474  0.2898  1.1364
24648WAT    EPW  399   1.445   9.766   3.521 -0.0519  1.0991 -0.5238
24649WAT      O  400   1.877   4.032   4.956 -0.2935 -0.2692  0.4281
24649WAT     H1  401   1.796   3.985   4.935 -0.3296 -2.0648  3.9956
24649WAT     H2  402   1.864   4.065   5.045  1.8678  1.9312  0.0541
24649WAT    EPW  403   1.864   4.030   4.965 -0.0132 -0.2160  0.8492
24650WAT      O  404   5.772   5.233   2.670  0.1936 -0.4799  0.1262
24650WAT     H1  405   5.838   5.227   2.739  0.1223 -0.4228  0.2005
24650WAT     H2  406   5.772   5.326   2.646 -1.6736  0.0790  1.9293
24650WAT    EPW  407   5.781   5.245   2.676 -0.0622 -0.3984  0.3738
24651WAT      O  408   6.042   8.524   3.077 -0.0708  0.3966  0.2135
24651WAT     H1  409   5.986   8.594   3.111  1.1956  0.8408  1.4651
24651WAT     H2  410   6.111   8.569   3.028  0.3530 -0.0110  0.4209
24651WAT    EPW  411   6.044   8.539   3.075  0.1521  0.4010  0.4059
24652WAT      O  412  -2.526   0.412   7.759 -0.4637 -0.6906 -0.6368
24652WAT     H1  413  -2.508   0.483   7.697 -0.3309  0.4145  0.6180
24652WAT     H2  414  -2.443   0.400   7.806 -1.2573  0.4292  1.1957
24652WAT    EPW  415  -2.513   0.420   7.757 -0.5507 -0.3972 -0.2296
24653WAT      O  416   3.407   7.731   0.927 -1.0766 -0.1116  0.0797
24653WAT     H1  417   3.375   7.802   0.871 -1.5542 -0.6685 -0.3715
24653WAT     H2  418   3.376   7.753   1.014  0.0755  1.0142  0.2335
24653WAT    EPW  419   3.399   7.743   0.931 -0.9876 -0.0365  0.0405
24654WAT      O  420  -3.769   3.447   6.898 -0.5021 -0.7272  0.0677
24654WAT     H1  421  -3.770   3.439   6.993 -0.3833 -0.0233  0.1302
24654WAT     H2  422  -3.756   3.540   6.882 -4.7172 -0.0311 -0.5920
24654WAT    EPW  423  -3.768   3.458   6.908 -1.0424 -0.5425 -0.0112
24655WAT      O  424   1.616   0.950   7.852 -0.6597 -0.0415  0.0026
24655WAT     H1  425   1.561   1.015   7.898 -1.2696 -0.3692 -0.2566
24655WAT     H2  426   1.581   0.865   7.880  1.1153 -0.3210  1.5617
24655WAT    EPW  427   1.604   0.948   7.862 -0.5060 -0.1216  0.1740
24656WAT      O  428  -3.036   9.236   4.104 -0.0107 -0.6600 -0.2453
24656WAT     H1  429  -3.088   9.185   4.166 -0.9223 -1.2974 -1.4902
24656WAT     H2  430  -3.076   9.323   4.106  0.5822 -0.3929  0.7521
24656WAT    EPW  431  -3.048   9.241   4.112 -0.0527 -0.7086 -0.2778
24657WAT      O  432   2.107   4.622   8.905  0.0432  0.2237  0.1110
24657WAT     H1  433   2.174   4.579   8.852 -2.1028 -1.9298 -1.0293
24657WAT     H2  434   2.056   4.674   8.843 -1.0795 -0.4587  0.4304
24657WAT    EPW  435   2.109   4.623   8.890 -0.3879 -0.1504  0.0029
24658WAT      O  436   2.260   2.021   3.233  0.0388 -0.1112 -0.0611
24658WAT     H1  437   2.185   2.071   3.265 -0.0793 -0.1886 -0.2146
24658WAT     H2  438   2.328   2.087   3.218 -0.4568  0.1483 -1.2702
24658WAT    EPW  439   2.259   2.036   3.235 -0.0422 -0.0871 -0.2408
24659WAT      O  440   3.707   1.340   0.881  0.5740 -0.3697 -0.7485
24659WAT     H1  441   3.754   1.258   0.892 -1.2031 -1.1274  2.6071
24659WAT     H2  442   3.769   1.407   0.909  0.7614 -1.0191  0.4320
24659WAT    EPW  443   3.721   1.338   0.886  0.3642 -0.5553 -0.1502
24660WAT      O  444   1.342   6.140   1.337  0.9604 -0.0243  0.1661
24660WAT     H1  445   1.326   6.218   1.284  0.1695  0.0228  0.4757
24660WAT     H2  446   1.437   6.140   1.350  0.9394  1.0280  0.3895
24660WAT    EPW  447   1.353   6.151   1.332  0.8534  0.1209  0.2364
24661WAT      O  448   1.700   5.913   3.500  0.4576  0.0402 -0.0435
24661WAT     H1  449   1.744   5.831   3.480  3.8809  0.9584  2.6530
24661WAT     H2  450   1.677   5.907   3.592 -1.2717  1.3079 -0.3312
24661WAT    EPW  451   1.703   5.902   3.509  0.6810  0.3285  0.2742
24662WAT      O  452   1.036   4.703   3.332  0.0182 -0.2693 -0.7752
24662WAT     H1  453   0.952   4.657   3.337 -2.1305  3.0454 -2.7328
24662WAT     H2  454   1.048   4.723   3.239  2.4670  0.2869 -0.4188
24662WAT    EPW  455   1.026   4.700   3.321  0.0578  0.2413 -0.9865
24663WAT      O  456   0.714   5.985   5.517 -0.3282 -1.4145 -0.6384
24663WAT     H1  457   0.723   5.901   5.563  0.1578 -0.0102  2.0147
24663WAT     H2  458   0.677   6.044   5.582  1.7636  1.1028 -1.5666
24663WAT    EPW  459   0.711   5.981   5.532  0.0117 -0.8972 -0.4110
24664WAT      O  460   6.852   2.141   1.978 -0.5974  0.0654 -0.1095
24664WAT     H1  461   6.914   2.067   1.976  0.7900  1.0422  2.2086
24664WAT     H2  462   6.774   2.104   2.020 -0.7369 -0.6026 -0.9292
24664WAT    EPW  463   6.850   2.126   1.983 -0.4327  0.1061  0.0881
24665WAT      O  464   8.492   2.065   2.155  0.2645  0.0519 -0.0297
24665WAT     H1  465   8.475   2.150   2.114  1.0160 -0.9522 -2.5788
24665WAT     H2  466   8.566   2.083   2.214 -0.9023  1.5531  1.0746
24665WAT    EPW  467   8.500   2.079   2.158  0.2098  0.1174 -0.2203
24666WAT      O  468  -1.700   1.497   8.775 -0.3815  0.2095 -0.5829
24666WAT     H1  469  -1.751   1.442   8.835  0.2394  2.3536  2.0780
24666WAT     H2  470  -1.704   1.584   8.813  3.1521  0.9953 -1.6545
24666WAT    EPW  471  -1.707   1.501   8.788  0.1665  0.5959 -0.3734
24667WAT      O  472  -2.243   3.289   4.075 -0.1108 -0.3102  0.2600
24667WAT     H1  473  -2.213   3.380   4.061  2.3486 -1.3147 -2.0383
24667WAT     H2  474  -2.329   3.286   4.033 -0.9790  1.2773  1.7709
24667WAT    EPW  475  -2.250   3.301   4.067  0.0992 -0.2334  0.1562
24668WAT      O  476   2.547   4.657   4.447 -0.1472  0.3775  0.0941
24668WAT     H1  477   2.461   4.664   4.405 -0.5948 -1.9282  0.4762
24668WAT     H2  478   2.566   4.563   4.448  1.5479  0.6701  1.6780
24668WAT    EPW  479   2.538   4.646   4.442  0.0174  0.1121  0.3533
24669WAT      O  480  -1.253   9.283   0.705  0.3123  0.0799 -0.7283
24669WAT     H1  481  -1.261   9.292   0.800 -0.3365 -0.2564 -0.7457
24669WAT     H2  482  -1.168   9.321   0.684 -0.6579  2.5913 -0.3612
24669WAT    EPW  483  -1.243   9.289   0.715  0.0987  0.3662 -0.6822
24670WAT      O  484  -3.425   5.505   3.870  0.1292 -0.4548 -0.3077
24670WAT     H1  485  -3.426   5.574   3.804  0.0367  1.7159  1.8109
24670WAT     H2  486  -3.458   5.428   3.825 -0.0646  0.9487 -2.7274
24670WAT    EPW  487  -3.429   5.504   3.855  0.0913  0.0167 -0.3474
24671WAT      O  488   3.304  10.109   1.302 -0.1830 -0.3423 -0.0143
24671WAT     H1  489   3.298  10.202   1.323 -2.0928 -0.7759  1.6434
24671WAT     H2  490   3.213  10.081   1.294  0.3549 -2.1241 -0.2419
24671WAT    EPW  491   3.291  10.118   1.303 -0.3639 -0.6342  0.1743
24672WAT      O  492   0.380   5.996   5.500 -0.2137  0.0178  0.2923
24672WAT     H1  493   0.418   5.981   5.413  0.4660  0.0437  0.5847
24672WAT     H2  494   0.425   6.074   5.532  0.2877 -0.5995  1.1053
24672WAT    EPW  495   0.391   6.005   5.493 -0.0579 -0.0601  0.4380
24673WAT      O  496  -3.354  10.012   7.140 -0.0628  0.1685  0.0159
24673WAT     H1  497  -3.316   9.974   7.220  0.6051 -1.0748 -0.8403
24673WAT     H2  498  -3.445   9.984   7.141  0.8981 -3.7711 -1.7472
24673WAT    EPW  499  -3.361  10.003   7.150  0.1521 -0.5155 -0.3297
24674WAT      O  500   3.562   5.651   5.723 -0.2002  0.1642  0.3738
24674WAT     H1  501   3.596   5.600   5.797  1.0456  0.5740  0.1078
24674WAT     H2  502   3.538   5.584   5.658  1.0589 -0.1233  0.1773
24674WAT    EPW  503   3.564   5.635   5.724  0.1303  0.1805  0.3130
24675WAT      O  504   5.352   3.084   6.541 -0.0732  0.0869  0.0369
24675WAT     H1  505   5.376   3.160   6.488  1.0314  0.2367  0.7369
24675WAT     H2  506   5.281   3.116   6.597 -0.7310  0.1344 -0.7972
24675WAT    EPW  507   5.346   3.098   6.541 -0.0143  0.1129  0.0191
24676WAT      O  508   5.749   6.801   2.567  0.1792  0.6000  0.8827
24676WAT     H1  509   5.706   6.861   2.628 -0.8765 -0.4653  1.2237
24676WAT     H2  510   5.694   6.802   2.488  1.4117  1.7947 -0.0028
24676WAT    EPW  511   5.736   6.809   2.565  0.2024  0.6170  0.8109
24677WAT      O  512   4.694   6.547   3.139 -0.4143  0.2238  0.3319
24677WAT     H1  513   4.633   6.617   3.113  0.7054  0.5456 -1.5740
24677WAT     H2  514   4.779   6.590   3.144 -0.0720 -0.5287  1.5708
24677WAT    EPW  515   4.697   6.562   3.137 -0.2217  0.1671  0.2439
24678WAT      O  516  -5.243   9.490   5.778 -0.5882 -0.6240  0.0701
24678WAT     H1  517  -5.264   9.440   5.699 -0.1041 -1.4854  0.4717
24678WAT     H2  518  -5.202   9.570   5.746 -1.2370 -0.5522 -0.5845
24678WAT    EPW  519  -5.240   9.494   5.763 -0.6099 -0.7281  0.0367
24679WAT      O  520   6.603   3.725   0.571 -0.3268  0.2540 -0.1553
24679WAT     H1  521   6.625   3.696   0.660 -2.2349 -1.0790 -0.0414
24679WAT     H2  522   6.685   3.721   0.523  0.2613 -1.6817  0.8858
24679WAT    EPW  523   6.617   3.720   0.577 -0.5009 -0.1771 -0.0029
24680WAT      O  524  -0.466   2.119   7.631  0.5306  0.5215 -0.7669
24680WAT     H1  525  -0.506   2.069   7.702 -0.0928  0.2365 -1.3115
24680WAT     H2  526  -0.514   2.201   7.629  1.0647  0.8520 -0.3593
24680WAT    EPW  527  -0.477   2.123   7.640  0.5189  0.5275 -0.7849
24681WAT      O  528   0.632   3.328   1.331  0.2068  0.3767 -0.4634
24681WAT     H1  529   0.693   3.255   1.322  0.3718  0.2905  1.0351
24681WAT     H2  530   0.569   3.316   1.260  1.5098  0.0605 -1.5934
24681WAT    EPW  531   0.632   3.317   1.321  0.4004  0.3235 -0.4147
24682WAT      O  532   0.519   2.881   4.465 -0.2015  0.2071  0.4228
24682WAT     H1  533   0.498   2.798   4.508 -2.5829  0.6423  0.2811
24682WAT     H2  534   0.607   2.902   4.495  0.0427 -1.8319  1.3131
24682WAT    EPW  535   0.528   2.873   4.475 -0.4834 -0.0044  0.5217
24683WAT      O  536   2.892   8.370   7.098  0.6758 -0.1427  0.5199
24683WAT     H1  537   2.834   8.293   7.093  0.3231  0.0766  1.0976
24683WAT     H2  538   2.978   8.337   7.073  0.5761 -0.7884  1.0016
24683WAT    EPW  539   2.895   8.355   7.094  0.6161 -0.1988  0.6597
24684WAT      O  540  -1.364   2.218   4.562  0.0489  0.3614 -0.1214
24684WAT     H1  541  -1.330   2.195   4.475  2.2577 -0.8515  0.9765
24684WAT     H2  542  -1.378   2.312   4.558 -1.2507  0.1520 -2.2008
24684WAT    EPW  543  -1.362   2.227   4.550  0.1688  0.1737 -0.2508
24685WAT      O  544   3.959   9.225   0.129 -0.1743 -0.6804  0.2041
24685WAT     H1  545   4.022   9.297   0.130 -0.4065 -0.4720  0.0592
24685WAT     H2  546   3.931   9.219   0.038 -0.2936 -0.8328  0.2508
24685WAT    EPW  547   3.963   9.234   0.117 -0.2207 -0.6733  0.1912
24686WAT      O  548   2.105   9.653   8.618  0.5417 -0.0911  0.3299
24686WAT     H1  549   2.030   9.712   8.613  1.7377  1.8334  2.6448
24686WAT     H2  550   2.092   9.605   8.700  0.6901 -1.5299 -0.4480
24686WAT    EPW  551   2.094   9.654   8.628  0.7191 -0.0267  0.5326
24687WAT      O  552   1.121   6.086   6.165 -0.4017 -0.0760 -0.2262
24687WAT     H1  553   1.158   6.151   6.105 -1.0753  0.8469  0.3225
24687WAT     H2  554   1.181   6.085   6.239  0.3033 -1.0443 -0.7859
24687WAT    EPW  555   1.133   6.095   6.167 -0.3975 -0.0820 -0.2277
24688WAT      O  556   1.349   6.302   7.796 -0.4305  0.2518 -0.0772
24688WAT     H1  557   1.254   6.313   7.793 -0.4588  0.7654  1.4404
24688WAT     H2  558   1.364   6.248   7.874  0.6764  3.6026  2.3133
24688WAT    EPW  559   1.338   6.297   7.806 -0.2882  0.7615  0.4382
24689WAT      O  560  -1.376   8.439   5.923 -0.6513  0.7543 -0.6661
24689WAT     H1  561  -1.382   8.476   6.011  0.9252  0.5850 -0.4585
24689WAT     H2  562  -1.452   8.382   5.916 -0.4270  0.2137  0.8711
24689WAT    EPW  563  -1.387   8.436   5.933 -0.4138  0.6604 -0.4358
24690WAT      O  564   2.992   4.403   1.488  0.3878  0.1462  0.3018
24690WAT     H1  565   3.016   4.310   1.482  1.8214  0.5620 -1.2058
24690WAT     H2  566   2.952   4.423   1.403  1.5450  1.2566 -0.0142
24690WAT    EPW  567   2.990   4.393   1.476  0.7296  0.3474  0.0613
24691WAT      O  568   1.600   6.831   4.515  0.4888 -0.0005  0.0109
24691WAT     H1  569   1.695   6.833   4.502  0.5059  0.8346  0.2314
24691WAT     H2  570   1.565   6.885   4.444  0.3323  1.4808  1.1751
24691WAT    EPW  571   1.608   6.839   4.504  0.4704  0.3049  0.1936
24692WAT      O  572   0.082   4.721   5.931  0.3894  0.0974  0.3510
24692WAT     H1  573   0.137   4.791   5.967 -1.4889  1.9459 -0.1576
24692WAT     H2  574   0.061   4.666   6.007  3.4060 -1.1278  0.4446
24692WAT    EPW  575   0.087   4.723   5.946  0.5396  0.1795  0.2964
24693WAT      O  576   1.298   9.653   0.463  0.6295 -0.5296 -0.3353
24693WAT     H1  577   1.241   9.657   0.386 -0.6117  0.8723  0.5852
24693WAT     H2  578   1.272   9.573   0.508 -0.8935  0.2258  0.2148
24693WAT    EPW  579   1.287   9.643   0.459  0.2649 -0.2456 -0.1414
24694WAT      O  580   1.016   3.813   5.030 -0.3950  0.6945 -0.0915
24694WAT     H1  581   1.030   3.813   4.935 -1.3759  1.3780 -0.2474
24694WAT     H2  582   0.995   3.723   5.051 -0.4196  0.5886 -0.5603
24694WAT    EPW  583   1.015   3.801   5.020 -0.5277  0.7707 -0.1740
24695WAT      O  584  -0.047   2.511   2.395 -0.0773 -0.5670 -0.3423
24695WAT     H1  585  -0.034   2.552   2.480 -1.0048 -0.6897 -0.1413
24695WAT     H2  586  -0.114   2.564   2.352 -0.3455 -1.1063 -0.5956
24695WAT    EPW  587  -0.054   2.524   2.401 -0.2350 -0.6543 -0.3493
24696WAT      O  588  -1.514   9.928   7.420  1.0854  0.1391 -0.1977
24696WAT     H1  589  -1.500   9.974   7.503 -1.6195  0.1045  0.3390
24696WAT     H2  590  -1.564   9.989   7.366  1.0978 -0.6023 -1.0767
24696WAT    EPW  591  -1.518   9.942   7.424  0.7303  0.0372 -0.2427
24697WAT      O  592   6.770   0.974   1.251 -0.3395  0.5984  0.3429
24697WAT     H1  593   6.706   0.937   1.312  1.2500  0.6376  2.1412
24697WAT     H2  594   6.823   0.899   1.223  0.7614  0.9801  1.3383
24697WAT    EPW  595   6.768   0.959   1.256  0.0153  0.6539  0.7114
24698WAT      O  596  -2.311   8.942   0.034 -0.1265 -0.2840  0.0142
24698WAT     H1  597  -2.313   8.990   0.117  1.3935 -2.0618  1.1877
24698WAT     H2  598  -2.382   8.878   0.042 -1.9251  1.4398 -1.3942
24698WAT    EPW  599  -2.320   8.940   0.046 -0.1633 -0.2913 -0.0167
24699WAT      O  600   3.667  10.063   1.949 -0.6912 -0.1906 -0.1181
24699WAT     H1  601   3.680  10.111   1.867  1.5045  0.9240  0.8215
24699WAT     H2  602   3.688  10.126   2.017  0.5066 -1.9557  1.2297
24699WAT    EPW  603   3.671  10.078   1.947 -0.2437 -0.2766  0.1836
24700WAT      O  604  -3.997   9.618   8.121 -0.3450  0.3901  0.2829
24700WAT     H1  605  -4.062   9.624   8.050  0.1238  2.7337 -0.0532
24700WAT     H2  606  -3.924   9.570   8.083 -0.6458  0.4499 -0.3894
24700WAT    EPW  607  -3.996   9.613   8.106 -0.3228  0.7071  0.1497
24701WAT      O  608   0.835   8.891   0.460  0.5127  0.2417 -0.5864
24701WAT     H1  609   0.840   8.917   0.552 -1.0770  1.5972 -0.8234
24701WAT     H2  610   0.808   8.971   0.414  0.6158 -0.5722 -2.1428
24701WAT    EPW  611   0.832   8.905   0.466  0.3166  0.3133 -0.8229
24702WAT      O  612  -0.335   9.729   7.829 -0.3837  0.3022 -0.1687
24702WAT     H1  613  -0.246   9.701   7.810 -0.6624 -1.4032  0.8492
24702WAT     H2  614  -0.325   9.797   7.896  0.1968  1.1192 -1.0654
24702WAT    EPW  615  -0.322   9.734   7.835 -0.3439  0.1855 -0.1528
24703WAT      O  616  -0.789   4.628   1.674 -0.3626  0.4970 -1.1505
24703WAT     H1  617  -0.826   4.621   1.587  0.4695 -1.6364 -1.4163
24703WAT     H2  618  -0.841   4.568   1.728  2.3477 -2.4431 -1.5030
24703WAT    EPW  619  -0.800   4.619   1.670  0.1046 -0.1721 -1.2320
24704WAT      O  620  -0.765   4.452   2.356 -0.0013 -0.0928 -0.9669
24704WAT     H1  621  -0.860   4.442   2.363 -0.0418  0.9806  0.4372
24704WAT     H2  622  -0.729   4.372   2.394 -0.3289 -0.7094 -1.9257
24704WAT    EPW  623  -0.773   4.440   2.362 -0.0499 -0.0327 -0.9080
24705WAT      O  624   0.599   7.420   5.158  0.7087  0.2812 -0.1034
24705WAT     H1  625   0.673   7.364   5.181  1.2385  0.7930 -0.5580
24705WAT     H2  626   0.547   7.366   5.098  1.9934  0.7714 -1.7364
24705WAT    EPW  627   0.602   7.405   5.153  0.9480  0.4134 -0.3786
24706WAT      O  628   6.919   1.746   0.801  1.3540 -0.4834  0.0863
24706WAT     H1  629   6.848   1.733   0.864  0.1263 -0.9163 -1.3178
24706WAT     H2  630   6.998   1.755   0.855 -0.0796  3.0891  1.9461
24706WAT    EPW  631   6.920   1.746   0.817  1.0028 -0.0693  0.1464
24707WAT      O  632  -4.759   8.450   4.980 -0.1390 -0.3479 -0.0969
24707WAT     H1  633  -4.853   8.444   4.996  0.0310 -1.4905  0.6572
24707WAT     H2  634  -4.751   8.476   4.888 -1.1774  1.1525  0.2036
24707WAT    EPW  635  -4.770   8.452   4.970 -0.2534 -0.3009  0.0422
24708WAT      O  636   5.864   4.494   0.325  0.1212 -0.7651  0.2593
24708WAT     H1  637   5.798   4.464   0.387  0.0736 -0.4303  0.3715
24708WAT     H2  638   5.817   4.506   0.243 -0.1201  0.2133  0.5302
24708WAT    EPW  639   5.849   4.491   0.323  0.0830 -0.5920  0.3098
24709WAT      O  640   1.507   4.270   2.436  0.5162  0.3788 -0.1430
24709WAT     H1  641   1.480   4.336   2.373 -0.0236 -0.7246 -1.0904
24709WAT     H2  642   1.451   4.194   2.418  1.2353 -0.4093  0.7967
24709WAT    EPW  643   1.496   4.268   2.426  0.5399  0.1295 -0.1440
24710WAT      O  644   3.723   9.587   1.069 -0.0065 -0.1145  0.3092
24710WAT     H1  645   3.671   9.635   1.133 -0.2890  0.7651 -0.5623
24710WAT     H2  646   3.771   9.523   1.121 -1.9526 -0.9690  1.1348
24710WAT    EPW  647   3.723   9.585   1.084 -0.3004 -0.1111  0.3031
24711WAT      O  648   5.384   3.551   4.120 -0.2725  0.0706  0.0872
24711WAT     H1  649   5.479   3.552   4.108 -0.4338 -1.0290 -1.4954
24711WAT     H2  650   5.354   3.475   4.071 -1.8077 -0.7012  2.1002
24711WAT    EPW  651   5.393   3.541   4.112 -0.4964 -0.1763  0.1438
24712WAT      O  652  -2.790   9.925   7.273  0.5392  0.5377  0.1606
24712WAT     H1  653  -2.702   9.955   7.295 -0.0897  2.1644  0.6166
24712WAT     H2  654  -2.838  10.005   7.253 -0.5391 -0.4117 -1.2389
24712WAT    EPW  655  -2.784   9.940   7.273  0.3140  0.6270  0.0360
24713WAT      O  656  -3.913   9.185   4.800 -0.0609  0.4889 -0.3073
24713WAT     H1  657  -3.861   9.191   4.719 -2.0491  0.6203 -1.6441
24713WAT     H2  658  -3.976   9.115   4.782  0.5357 -0.6764  1.8215
24713WAT    EPW  659  -3.914   9.176   4.787 -0.2444  0.3524 -0.2027
24714WAT      O  660   0.622   3.088   8.899  0.0288 -0.4095 -0.0048
24714WAT     H1  661   0.663   3.172   8.878 -0.5866  0.1101  0.8217
24714WAT     H2  662   0.567   3.106   8.975 -0.0544 -1.5864  0.2351
24714WAT    EPW  663   0.620   3.102   8.906 -0.0634 -0.4961  0.1359
24715WAT      O  664  -2.088   2.106   4.627  0.3234  0.8112 -0.1022
24715WAT     H1  665  -2.151   2.042   4.593  0.9909 -0.3849  0.8684
24715WAT     H2  666  -2.003   2.064   4.618  0.8568  1.8296 -0.0370
24715WAT    EPW  667  -2.085   2.092   4.621  0.4818  0.7877  0.0343
24716WAT      O  668   4.439   9.192   2.262  0.2149 -0.7716  0.4403
24716WAT     H1  669   4.491   9.211   2.340 -0.9650  1.2948  0.7914
24716WAT     H2  670   4.383   9.269   2.251 -1.0556 -1.8690 -1.3061
24716WAT    EPW  671   4.438   9.205   2.271 -0.1085 -0.6437  0.2563
24717WAT      O  672   2.374   5.018   3.061  0.1297 -0.2923  0.9691
24717WAT     H1  673   2.289   5.060   3.076 -0.7177 -1.4329 -0.4236
24717WAT     H2  674   2.400   5.046   2.974  0.7337 -0.7014  1.0143
24717WAT    EPW  675   2.366   5.027   3.052  0.0976 -0.4966  0.7913
24718WAT      O  676  -1.996   9.325   7.319  0.0523  0.1933  0.0710
24718WAT     H1  677  -2.052   9.363   7.251  1.5043  1.2080 -0.6048
24718WAT     H2  678  -2.054   9.316   7.395 -0.8094  2.1700 -0.2823
24718WAT    EPW  679  -2.011   9.329   7.320  0.1302  0.5875 -0.0648
24719WAT      O  680  -3.829   9.518   4.893  0.5148 -0.4749 -0.5197
24719WAT     H1  681  -3.814   9.499   4.801 -1.1809  1.4262 -1.2628
24719WAT     H2  682  -3.752   9.567   4.921  1.3306 -1.6123 -0.7246
24719WAT    EPW  683  -3.817   9.522   4.885  0.3986 -0.3743 -0.6449
24720WAT      O  684  -4.059   3.113   6.876  0.3447 -0.1451 -0.6282
24720WAT     H1  685  -4.004   3.189   6.893 -0.4635  0.2013  0.5702
24720WAT     H2  686  -4.097   3.130   6.790 -0.1679  1.0302 -0.1844
24720WAT    EPW  687  -4.057   3.126   6.867  0.1705  0.0557 -0.4117
24721WAT      O  688  -4.072   3.100   5.100  0.2706 -0.0096 -0.6015
24721WAT     H1  689  -4.100   3.142   5.181  0.1659  2.5929 -1.8645
24721WAT     H2  690  -4.153   3.074   5.056  0.1502  0.8738 -0.9447
24721WAT    EPW  691  -4.086   3.102   5.105  0.2408  0.4501 -0.8132
24722WAT      O  692   1.811   3.046   3.538 -0.8880  0.0302 -0.1958
24722WAT     H1  693   1.795   3.136   3.565 -0.0747 -0.7288  3.3159
24722WAT     H2  694   1.894   3.022   3.581 -1.7438 -2.7372  0.1350
24722WAT    EPW  695   1.820   3.055   3.548 -0.8936 -0.4350  0.3110
24723WAT      O  696   0.584   4.723   1.515  0.2204 -0.6754  0.1016
24723WAT     H1  697   0.677   4.725   1.492  0.3413  1.0871  0.5925
24723WAT     H2  698   0.567   4.810   1.550 -1.6677 -0.9321 -0.1146
24723WAT    EPW  699   0.594   4.734   1.517 -0.0127 -0.4768  0.1378
24724WAT      O  700  -2.232   5.247   3.532 -0.3776  0.1585  0.0555
24724WAT     H1  701  -2.232   5.342   3.519 -1.4202 -0.1947 -3.5822
24724WAT     H2  702  -2.294   5.233   3.604 -1.1588  2.1650 -0.1557
24724WAT    EPW  703  -2.240   5.258   3.540 -0.6180  0.3767 -0.4523
24725WAT      O  704   3.237   8.984   1.784 -1.1213 -0.0884  0.8200
24725WAT     H1  705   3.229   8.932   1.703  1.1074  0.4744  0.1669
24725WAT     H2  706   3.208   8.925   1.853 -2.0817 -0.9495 -0.2804
24725WAT    EPW  707   3.232   8.969   1.782 -0.9540 -0.1273  0.5887
24726WAT      O  708   7.856   0.500   1.773 -0.1852  0.5159 -0.1782
24726WAT     H1  709   7.831   0.500   1.681  2.8476  0.0721 -1.1222
24726WAT     H2  710   7.854   0.593   1.798  0.9955  0.9166 -1.3939
24726WAT    EPW  711   7.853   0.513   1.764  0.3705  0.5102 -0.4630
24727WAT      O  712   8.199   3.725   1.484 -0.5553 -0.5454  0.3750
24727WAT     H1  713   8.107   3.752   1.479 -0.6779 -1.0991 -0.7265
24727WAT     H2  714   8.243   3.779   1.419 -0.2083 -0.6883  0.4897
24727WAT    EPW  715   8.193   3.736   1.475 -0.5255 -0.6373  0.2449
24728WAT      O  716   0.323   6.971   5.033 -0.4903  0.2448  0.6286
24728WAT     H1  717   0.399   6.970   5.091  1.0991  1.1170 -1.3082
24728WAT     H2  718   0.314   7.063   5.008 -3.2444  0.4485  2.0282
24728WAT    EPW  719   0.332   6.983   5.037 -0.6439  0.3867  0.5579
24729WAT      O  720  -0.020   5.413   1.341  0.2003  0.1910  0.3950
24729WAT     H1  721   0.022   5.497   1.357  0.8323  0.0180 -0.2944
24729WAT     H2  722   0.051   5.355   1.313 -0.4843 -0.1089 -0.8156
24729WAT    EPW  723  -0.005   5.416   1.339  0.1934  0.1287  0.1444
24730WAT      O  724   8.213   4.825   1.165 -0.4899 -0.6170  0.0335
24730WAT     H1  725   8.173   4.899   1.210  0.3988  0.7346 -1.3007
24730WAT     H2  726   8.296   4.859   1.132  0.3185 -2.4483  0.0499
24730WAT    EPW  727   8.219   4.839   1.166 -0.2661 -0.6802 -0.1402
24731WAT      O  728  -0.496   9.991   8.540  0.0848 -0.0507 -0.0552
24731WAT     H1  729  -0.515   9.915   8.595 -0.1488 -0.2558 -0.4116
24731WAT     H2  730  -0.474  10.060   8.601  2.0464 -0.8691  0.2464
24731WAT    EPW  731  -0.495   9.990   8.555  0.3127 -0.1860 -0.0625
24732WAT      O  732  -3.670   0.220   6.272 -0.0378  0.7351  0.6018
24732WAT     H1  733  -3.700   0.234   6.182  2.1547 -1.2896 -0.5916
24732WAT     H2  734  -3.670   0.307   6.311 -0.6891  1.7590 -1.4828
24732WAT    EPW  735  -3.674   0.233   6.265  0.1655  0.6031  0.1695
24733WAT      O  736  -3.745   4.856   6.085  0.0092 -0.4529 -0.0594
24733WAT     H1  737  -3.715   4.767   6.105 -1.3294 -0.6972  1.0495
24733WAT     H2  738  -3.813   4.845   6.019 -0.6193 -0.3299  0.5556
24733WAT    EPW  739  -3.750   4.843   6.079 -0.2501 -0.4687  0.1681
24734WAT      O  740  -2.381   2.613   8.888  0.2885  1.0075 -0.1048
24734WAT     H1  741  -2.431   2.553   8.943 -1.3346  1.9976 -0.4382
24734WAT     H2  742  -2.292   2.579   8.890 -0.1953 -0.2644  1.2995
24734WAT    EPW  743  -2.376   2.601   8.895  0.0105  0.9702  0.0367
24735WAT      O  744   4.506   9.225   0.224 -0.1047  0.3286 -0.2459
24735WAT     H1  745   4.490   9.238   0.317  2.5308 -0.5747  0.4234
24735WAT     H2  746   4.490   9.311   0.185 -0.8852  0.8113  1.0629
24735WAT    EPW  747   4.502   9.238   0.231  0.1400  0.2732  0.0150
24736WAT      O  748  -5.689   2.761   8.802 -0.0612  0.2314 -0.2071
24736WAT     H1  749  -5.716   2.695   8.738  1.6647 -0.4269 -0.3057
24736WAT     H2  750  -5.594   2.766   8.793 -0.1163  2.5460  0.0111
24736WAT    EPW  751  -5.680   2.753   8.792  0.1590  0.4499 -0.1917
24737WAT      O  752  -0.053   4.237   5.183 -0.7572 -0.0846 -0.5837
24737WAT     H1  753   0.011   4.201   5.121  0.2587  1.1293 -0.2829
24737WAT     H2  754  -0.097   4.307   5.134 -1.0456 -0.1543 -0.4265
24737WAT    EPW  755  -0.050   4.242   5.168 -0.6613  0.0663 -0.5233
24738WAT      O  756   2.256   3.794   4.239 -0.6915  0.2077  0.4702
24738WAT     H1  757   2.280   3.724   4.299  2.5908 -1.8959 -2.8220
24738WAT     H2  758   2.168   3.772   4.209  0.4180 -2.9534 -0.8187
24738WAT    EPW  759   2.248   3.782   4.243 -0.1123 -0.4866 -0.1340
24739WAT      O  760   1.787   9.663   7.721  0.4654 -0.7073  1.2190
24739WAT     H1  761   1.824   9.745   7.753  1.9984 -2.1835  3.4700
24739WAT     H2  762   1.716   9.691   7.663  2.5598  2.2150 -0.2269
24739WAT    EPW  763   1.782   9.678   7.717  0.9438 -0.5164  1.3249
24740WAT      O  764   1.008   6.022   2.064 -0.6401 -0.1243 -1.2544
24740WAT     H1  765   0.957   5.958   2.115 -2.1604  1.6973 -0.3786
24740WAT     H2  766   1.076   5.969   2.022 -1.3026 -2.1937  0.0866
24740WAT    EPW  767   1.010   6.006   2.065 -0.9279 -0.1569 -0.9620
24741WAT      O  768   6.144   2.620   3.125 -0.5484 -0.2759 -0.2632
24741WAT     H1  769   6.212   2.617   3.058  0.0388 -0.7339  0.3439
24741WAT     H2  770   6.114   2.711   3.124  0.5121  0.0855 -0.1020
24741WAT    EPW  771   6.149   2.632   3.116 -0.3312 -0.2886 -0.1620
24742WAT      O  772   4.419   3.845   2.824 -0.0805  0.9526 -0.0411
24742WAT     H1  773   4.385   3.895   2.899 -0.0222 -0.9392  1.3291
24742WAT     H2  774   4.341   3.809   2.782 -0.0600  1.2540 -0.3405
24742WAT    EPW  775   4.404   3.847   2.829 -0.0703  0.7427  0.1001
24743WAT      O  776  -1.270   9.538   8.703 -0.4250  0.0743  0.1216
24743WAT     H1  777  -1.245   9.445   8.700 -1.9812 -0.5609  3.0176
24743WAT     H2  778  -1.209   9.576   8.767 -1.8404  0.2470  1.4124
24743WAT    EPW  779  -1.258   9.530   8.711 -0.8170  0.0134  0.6738
24744WAT      O  780   4.514   3.899   1.071  0.2923  0.2434  0.4329
24744WAT     H1  781   4.465   3.828   1.029  0.8762  0.2396 -0.2450
24744WAT     H2  782   4.578   3.926   1.006 -2.9382  4.7356 -1.4573
24744WAT    EPW  783   4.516   3.893   1.057 -0.0567  0.8354  0.0942
24745WAT      O  784   5.768   5.709   3.765  0.1619 -0.1158 -0.3770
24745WAT     H1  785   5.732   5.793   3.794 -2.0870 -1.4086  0.7969
24745WAT     H2  786   5.732   5.645   3.827  1.9525 -1.9491 -1.1355
24745WAT    EPW  787   5.759   5.712   3.777  0.1016 -0.5281 -0.3222
24746WAT      O  788   7.265   8.154   1.332  0.1147 -0.0493  0.1509
24746WAT     H1  789   7.328   8.084   1.351  0.4916  0.1845 -0.1973
24746WAT     H2  790   7.225   8.174   1.416 -1.3269 -1.9250 -0.0397
24746WAT    EPW  791   7.268   8.147   1.345 -0.0257 -0.2661  0.0798
24747WAT      O  792   5.045   1.565   6.853 -0.7610 -0.4857  0.5748
24747WAT     H1  793   4.977   1.549   6.918 -2.6097  2.3392 -0.4576
24747WAT     H2  794   5.011   1.527   6.773 -0.1343 -0.8686  0.4829
24747WAT    EPW  795   5.032   1.558   6.851 -0.9222 -0.1636  0.4265
24748WAT      O  796  -1.630   1.827   7.091  0.1688 -1.1417 -0.6254
24748WAT     H1  797  -1.617   1.915   7.127  0.8328 -0.7034 -1.8808
24748WAT     H2  798  -1.721   1.806   7.113 -0.3209  0.2915 -1.1624
24748WAT    EPW  799  -1.641   1.836   7.099  0.1918 -0.8948 -0.8616
24749WAT      O  800   6.392   7.777   2.707  0.5558  0.6204  0.1695
24749WAT     H1  801   6.387   7.852   2.648 -3.6899 -0.5172 -1.2857
24749WAT     H2  802   6.319   7.790   2.768  0.9058 -1.3590  1.0856
24749WAT    EPW  803   6.382   7.789   2.707  0.0420  0.2093  0.0985
24750WAT      O  804  -2.744  10.331   8.748 -0.3509  0.3538 -0.3942
24750WAT     H1  805  -2.670  10.309   8.805 -0.5181 -1.1551 -0.7179
24750WAT     H2  806  -2.743  10.427   8.744  2.7021  0.3983 -1.8310
24750WAT    EPW  807  -2.734  10.341   8.755  0.0297  0.1607 -0.6266
24751WAT      O  808  -3.923   8.868   6.660 -0.1065 -0.0056 -0.1014
24751WAT     H1  809  -3.853   8.855   6.724 -2.6537  0.8408  3.1007
24751WAT     H2  810  -3.965   8.950   6.686 -3.4351 -1.3877 -0.6567
24751WAT    EPW  811  -3.920   8.877   6.672 -0.8814 -0.0763  0.2477
24752WAT      O  812   1.628   6.556   3.703  0.2395  0.3452  0.3427
24752WAT     H1  813   1.573   6.483   3.672  0.4292  0.4009 -0.1282
24752WAT     H2  814   1.716   6.534   3.673  0.1645  1.1698 -0.5382
24752WAT    EPW  815   1.632   6.544   3.695  0.2546  0.4613  0.1645
24753WAT      O  816   6.446   2.256   2.058  0.2934 -0.3811  0.5317
24753WAT     H1  817   6.508   2.329   2.049  0.9762 -1.1924 -1.9948
24753WAT     H2  818   6.493   2.191   2.109  1.1215 -0.5323 -0.4023
24753WAT    EPW  819   6.460   2.257   2.064  0.4928 -0.5081  0.0752
24754WAT      O  820  -3.018   5.230   7.636 -0.6103 -0.6517 -0.0246
24754WAT     H1  821  -2.967   5.177   7.576  0.8629  0.1226  0.4969
24754WAT     H2  822  -3.018   5.180   7.718 -1.2505 -0.9465 -0.1963
24754WAT    EPW  823  -3.012   5.216   7.639 -0.5004 -0.5884  0.0215
24755WAT      O  824  -4.202   8.303   8.469  0.2109  0.0837  0.4645
24755WAT     H1  825  -4.173   8.301   8.377  1.1335 -0.7391  0.7504
24755WAT     H2  826  -4.126   8.337   8.516  0.0514 -0.3338  1.0239
24755WAT    EPW  827  -4.188   8.307   8.463  0.3116 -0.0801  0.5755
24756WAT      O  828   5.428   1.841   4.609 -0.5321  0.0513  0.0598
24756WAT     H1  829   5.353   1.782   4.614 -0.4918 -0.0815 -0.7485
24756WAT     H2  830   5.402   1.917   4.660 -1.0220 -0.1996  0.1936
24756WAT    EPW  831   5.415   1.843   4.616 -0.5915  0.0007 -0.0291
24757WAT      O  832   1.438   3.424   8.522 -0.0156 -0.7274 -0.3200
24757WAT     H1  833   1.453   3.467   8.606 -4.6849  4.2534 -1.4602
24757WAT     H2  834   1.519   3.437   8.473  1.4683 -0.2554  2.0737
24757WAT    EPW  835   1.450   3.431   8.527 -0.4358 -0.0082 -0.1545
24758WAT      O  836   6.345   3.222   5.689 -0.2979  0.1712  0.0853
24758WAT     H1  837   6.286   3.239   5.763 -0.5215 -0.0873 -0.0324
24758WAT     H2  838   6.338   3.127   5.675  0.0575  0.1563 -0.0043
24758WAT    EPW  839   6.336   3.211   5.697 -0.2806  0.1352  0.0579
24759WAT      O  840   1.015   0.863   5.725 -0.9138  0.1563 -0.4227
24759WAT     H1  841   1.099   0.856   5.679 -1.8726 -2.2901 -2.0167
24759WAT     H2  842   1.028   0.809   5.803 -1.1679 -0.7507 -0.9937
24759WAT    EPW  843   1.028   0.855   5.729 -1.0738 -0.2860 -0.7081
24760WAT      O  844   2.968   5.720   0.021  0.3961  0.1659 -0.7310
24760WAT     H1  845   3.059   5.712  -0.005 -0.1424 -0.4140 -2.5807
24760WAT     H2  846   2.950   5.641   0.072  0.5313 -0.4809 -1.6679
24760WAT    EPW  847   2.977   5.709   0.024  0.3428  0.0043 -1.0985
24761WAT      O  848   0.403   6.883   1.726  0.2647 -0.0686  0.2937
24761WAT     H1  849   0.376   6.944   1.794  1.1885  1.1584 -0.3880
24761WAT     H2  850   0.321   6.848   1.691 -0.6622  3.4636 -1.6539
24761WAT    EPW  851   0.389   6.887   1.730  0.2643  0.5591 -0.0531
24762WAT      O  852   3.654   7.776   5.311  0.1941  0.7328  0.1813
24762WAT     H1  853   3.657   7.844   5.379 -0.4853  0.7816  0.1664
24762WAT     H2  854   3.567   7.784   5.272  0.2259  0.0700 -0.0476
24762WAT    EPW  855   3.643   7.786   5.315  0.1087  0.6516  0.1490
24763WAT      O  856   6.080   9.490   2.167  0.2080  0.2651  0.3749
24763WAT     H1  857   6.091   9.396   2.174 -1.3575 -0.1790 -1.9883
24763WAT     H2  858   5.993   9.507   2.204 -1.1566  0.1466 -2.5371
24763WAT    EPW  859   6.070   9.480   2.173 -0.1786  0.1907 -0.3209
24764WAT      O  860  -5.314   7.157   7.479  0.2974  0.3377 -0.3682
24764WAT     H1  861  -5.247   7.105   7.523 -1.5162 -1.9007 -0.0928
24764WAT     H2  862  -5.279   7.246   7.479  4.4329 -1.0298 -2.4985
24764WAT    EPW  863  -5.301   7.162   7.484  0.6034 -0.1380 -0.6130
24765WAT      O  864   1.667   8.790   6.076  0.1370 -0.4506  0.1011
24765WAT     H1  865   1.661   8.857   6.145  0.7675  2.1137 -2.1317
24765WAT     H2  866   1.576   8.770   6.055 -0.1283  1.2237 -0.4920
24765WAT    EPW  867   1.654   8.797   6.083  0.1851  0.1082 -0.2716
24766WAT      O  868   4.572   4.033   5.688  0.2688 -0.5594 -0.1953
24766WAT     H1  869   4.600   3.964   5.747 -1.0307 -0.2271  0.8588
24766WAT     H2  870   4.533   4.100   5.745  2.9383  1.8714 -0.9757
24766WAT    EPW  871   4.571   4.033   5.703  0.4494 -0.1950 -0.1593
24767WAT      O  872  -4.633   7.456   5.131  0.3974  0.3799 -0.2641
24767WAT     H1  873  -4.656   7.511   5.206  0.7941 -2.3276  1.9895
24767WAT     H2  874  -4.702   7.474   5.067 -1.7294  0.5973  1.9420
24767WAT    EPW  875  -4.645   7.466   5.133  0.1690  0.0515  0.3242
24768WAT      O  876   3.365   7.200   6.502 -0.2124 -0.2362 -0.3479
24768WAT     H1  877   3.287   7.145   6.508  0.9762 -2.3102 -2.2517
24768WAT     H2  878   3.368   7.226   6.410  0.9038  0.5322 -0.1098
24768WAT    EPW  879   3.355   7.196   6.491  0.0916 -0.4086 -0.5677
24769WAT      O  880   3.179   0.218   8.123  0.1683 -1.0982 -0.1823
24769WAT     H1  881   3.143   0.134   8.094 -2.2577 -0.2043  0.0235
24769WAT     H2  882   3.129   0.240   8.201  0.5249  0.7043 -0.4266
24769WAT    EPW  883   3.168   0.210   8.129 -0.1045 -0.7426 -0.1874
24770WAT      O  884   2.062   6.584   7.149  0.3039  0.3796  0.6273
24770WAT     H1  885   2.097   6.658   7.198 -0.0247  1.1197 -0.2269
24770WAT     H2  886   2.139   6.531   7.127  0.4514 -0.0295  1.9878
24770WAT    EPW  887   2.077   6.587   7.153  0.2800  0.4232  0.6940
24771WAT      O  888  -3.790   3.728   8.630 -0.1776  0.2501  0.1799
24771WAT     H1  889  -3.759   3.676   8.556 -2.0639  0.7692 -1.0502
24771WAT     H2  890  -3.805   3.664   8.700 -0.1396 -0.5190 -0.5061
24771WAT    EPW  891  -3.788   3.713   8.630 -0.4214  0.2171 -0.0730
24772WAT      O  892   2.540  10.254   7.323 -0.2637  0.5036 -0.2141
24772WAT     H1  893   2.449  10.247   7.352  0.2640 -2.6405  1.0474
24772WAT     H2  894   2.591  10.252   7.404  1.0054  1.9084 -0.9237
24772WAT    EPW  895   2.534  10.253   7.338 -0.0267  0.2742 -0.1411
24773WAT      O  896  -1.147   3.555   7.953  0.0564  0.0631  0.5567
24773WAT     H1  897  -1.121   3.564   8.045  0.3314  0.7018  0.4231
24773WAT     H2  898  -1.191   3.471   7.949  1.8633 -0.9631  0.8608
24773WAT    EPW  899  -1.149   3.545   7.965  0.3310  0.0120  0.5791
24774WAT      O  900  -0.226   5.514   5.441 -0.1014  0.3553  0.2611
24774WAT     H1  901  -0.206   5.548   5.528 -0.0375  2.1399 -0.4216
24774WAT     H2  902  -0.245   5.591   5.388 -0.1045 -0.6859 -1.3325
24774WAT    EPW  903  -0.226   5.528   5.446 -0.0934  0.4535 -0.0391
24775WAT      O  904  -1.640   6.803   0.839 -0.3975 -0.2568  0.3231
24775WAT     H1  905  -1.635   6.750   0.918 -0.6433 -1.8701 -0.6949
24775WAT     H2  906  -1.631   6.893   0.869  0.9054 -0.9160  2.0388
24775WAT    EPW  907  -1.638   6.808   0.853 -0.2581 -0.5565  0.4151
24776WAT      O  908   6.388   1.123   1.459  0.0896  0.2358  0.2873
24776WAT     H1  909   6.323   1.053   1.458  0.2167  0.0924 -1.3588
24776WAT     H2  910   6.354   1.187   1.521  0.9210 -2.0932  3.3565
24776WAT    EPW  911   6.375   1.122   1.467  0.2160 -0.0902  0.4749
24777WAT      O  912  -1.777   1.717   8.132  0.0155  0.8214  0.4990
24777WAT     H1  913  -1.692   1.699   8.171 -0.5520  0.5458  1.6463
24777WAT     H2  914  -1.786   1.812   8.136  0.2086  0.8413  0.4804
24777WAT    EPW  915  -1.767   1.727   8.137 -0.0339  0.7877  0.6480
24778WAT      O  916  -6.998   9.360   7.101 -0.4467  0.0642 -0.3561
24778WAT     H1  917  -7.052   9.336   7.026 -1.0582  2.2997 -0.7127
24778WAT     H2  918  -6.991   9.455   7.096  2.2084  0.0021  0.6350
24778WAT    EPW  919  -7.004   9.370   7.091 -0.1771  0.3510 -0.2725
24779WAT      O  920   0.966   7.909   3.167 -0.1465  0.2193 -0.5225
24779WAT     H1  921   0.988   7.868   3.084  0.9048 -1.2941  0.4663
24779WAT     H2  922   0.874   7.889   3.180 -0.0353 -0.5120 -0.8040
24779WAT    EPW  923   0.957   7.901   3.158  0.0068 -0.0768 -0.4293
24780WAT      O  924  -4.360   7.869   8.628  0.6026 -0.6119  0.1529
24780WAT     H1  925  -4.302   7.801   8.594  1.0521  0.7570 -1.9455
24780WAT     H2  926  -4.440   7.822   8.653  2.3377 -2.4891  2.7814
24780WAT    EPW  927  -4.363   7.854   8.627  0.8907 -0.6788  0.2227
24781WAT      O  928   6.705   4.878   2.260  0.5343 -0.3501  0.2206
24781WAT     H1  929   6.714   4.973   2.273 -0.1087 -0.3965  1.1168
24781WAT     H2  930   6.780   4.854   2.206 -0.5709  1.0395 -2.0596
24781WAT    EPW  931   6.716   4.888   2.255  0.3037 -0.1729  0.0380
24782WAT      O  932   3.219   8.654   0.385  0.0506  0.0074  0.0861
24782WAT     H1  933   3.156   8.726   0.389  1.0054  0.9076 -0.6311
24782WAT     H2  934   3.164   8.575   0.389 -1.0140  0.7506  0.8403
24782WAT    EPW  935   3.203   8.653   0.386  0.0360  0.2241  0.0910
24783WAT      O  936  -0.148   6.650   3.257  0.1455 -0.1396  0.1439
24783WAT     H1  937  -0.094   6.669   3.333 -0.1654 -0.9356  0.5705
24783WAT     H2  938  -0.195   6.569   3.280 -0.0929 -0.2826 -0.8095
24783WAT    EPW  939  -0.147   6.642   3.270  0.0731 -0.2632  0.0744
24784WAT      O  940  -3.099   6.932   2.547  0.0210  0.2915 -0.2371
24784WAT     H1  941  -3.098   6.932   2.642 -0.3798 -0.6843 -0.2315
24784WAT     H2  942  -3.066   6.846   2.522  0.2767  0.5935 -0.9884
24784WAT    EPW  943  -3.094   6.921   2.556  0.0019  0.2024 -0.3353
24785WAT      O  944   1.278   4.044   7.210 -0.1550 -0.7429 -0.1069
24785WAT     H1  945   1.225   4.091   7.274 -0.5496 -0.9857 -0.2441
24785WAT     H2  946   1.295   4.109   7.141  0.2852 -0.4779  0.2515
24785WAT    EPW  947   1.273   4.059   7.209 -0.1490 -0.7401 -0.0777
24786WAT      O  948  -1.443   1.580   2.632  0.5658 -0.0633  0.8539
24786WAT     H1  949  -1.406   1.615   2.551  2.0732 -2.8561  0.2070
24786WAT     H2  950  -1.538   1.585   2.618  0.7767  0.8908 -0.4327
24786WAT    EPW  951  -1.451   1.585   2.619  0.7925 -0.3058  0.5989
24787WAT      O  952   2.835   5.781   7.493 -0.9921 -0.1511  0.1934
24787WAT     H1  953   2.846   5.874   7.478  0.0478 -0.0587  1.3823
24787WAT     H2  954   2.882   5.738   7.422  0.2240  0.2479  0.7409
24787WAT    EPW  955   2.842   5.787   7.482 -0.6946 -0.0861  0.4225
24788WAT      O  956   1.389   6.090   4.170 -0.2891  0.2308  0.0255
24788WAT     H1  957   1.375   5.995   4.172 -0.4725  0.2557 -0.0913
24788WAT     H2  958   1.434   6.106   4.088  0.6104  0.1276  0.4853
24788WAT    EPW  959   1.393   6.079   4.160 -0.1947  0.2205  0.0708
24789WAT      O  960  -0.495   1.835   7.475  0.1679  0.2394 -0.1355
24789WAT     H1  961  -0.496   1.914   7.529  0.3997  0.1795 -0.0419
24789WAT     H2  962  -0.409   1.837   7.432  0.2629 -0.0774  0.0380
24789WAT    EPW  963  -0.483   1.846   7.476  0.2110  0.1897 -0.1004
24790WAT      O  964   6.349   2.793   1.175 -0.4278 -0.4911  0.2143
24790WAT     H1  965   6.263   2.811   1.213  0.2973  0.2585  1.6236
24790WAT     H2  966   6.336   2.799   1.081 -1.2309  3.3658  0.3781
24790WAT    EPW  967   6.336   2.796   1.168 -0.4380  0.1165  0.4218
24791WAT      O  968   5.678   2.037   1.202 -0.1962  0.4621  0.0053
24791WAT     H1  969   5.687   2.045   1.297  2.5998 -0.9817 -0.0332
24791WAT     H2  970   5.607   1.974   1.190 -0.1550  0.1692  1.1794
24791WAT    EPW  971   5.670   2.030   1.213  0.1781  0.2331  0.1550
24792WAT      O  972   3.262   4.365   1.969 -0.3665 -0.1381  0.7151
24792WAT     H1  973   3.233   4.274   1.960  1.8028 -0.7667 -0.8122
24792WAT     H2  974   3.204   4.414   1.911 -1.5127 -0.5326  1.4996
24792WAT    EPW  975   3.250   4.359   1.960 -0.2315 -0.2732  0.6171
24793WAT      O  976  -2.123   1.309   4.220  0.0965  0.1657 -0.4144
24793WAT     H1  977  -2.152   1.399   4.214 -2.7044 -0.4631  1.6811
24793WAT     H2  978  -2.196   1.257   4.185 -2.2201 -1.5257  5.5973
24793WAT    EPW  979  -2.136   1.314   4.215 -0.5784 -0.1404  0.6549
24794WAT      O  980   5.613   7.598   3.775  0.0967 -0.0444  0.0572
24794WAT     H1  981   5.643   7.637   3.693  2.0485  0.3296  0.8910
24794WAT     H2  982   5.688   7.606   3.834 -1.3038 -0.1226  1.9466
24794WAT    EPW  983   5.627   7.604   3.772  0.1693 -0.0055  0.4164
24795WAT      O  984   2.580   2.533   0.723 -0.0377  0.0110 -0.1845
24795WAT     H1  985   2.611   2.624   0.725  1.3986 -0.3929 -1.3534
24795WAT     H2  986   2.638   2.487   0.783 -0.1107 -0.2989 -0.3504
24795WAT    EPW  987   2.592   2.539   0.731  0.1422 -0.0831 -0.3605
24796WAT      O  988  -5.692   3.082   8.690  0.2613  0.3313 -0.2161
24796WAT     H1  989  -5.700   3.009   8.628  1.9168  1.0484 -1.3296
24796WAT     H2  990  -5.602   3.075   8.724 -0.2517  0.6076  1.3065
24796WAT    EPW  991  -5.681   3.071   8.687  0.4120  0.4623 -0.1621
24797WAT      O  992  -6.944   7.214   8.496  0.3710 -0.0146  0.0387
24797WAT     H1  993  -6.932   7.159   8.574  1.5443 -1.0124 -0.8144
24797WAT     H2  994  -6.857   7.222   8.459 -0.3606 -0.6322 -1.9021
24797WAT    EPW  995  -6.931   7.208   8.502  0.4292 -0.2275 -0.3300
24798WAT      O  996   5.569   8.998   2.274 -0.1692 -0.4380 -0.1061
24798WAT     H1  997   5.582   9.045   2.357 -2.1461 -1.3874  0.8010
24798WAT     H2  998   5.597   8.909   2.293 -1.2004 -0.8050 -0.2296
24798WAT    EPW  999   5.574   8.993   2.288 -0.5660 -0.6118 -0.0026
24799WAT      O 1000  -3.131  10.291   2.458  0.6699  0.3997  0.1103
24799WAT     H1 1001  -3.133  10.384   2.479  0.1100  0.0039  2.0765
24799WAT     H2 1002  -3.040  10.273   2.435  0.3482  1.8309 -2.6336
24799WAT    EPW 1003  -3.119  10.301   2.458  0.5536  0.5364  0.0077
24800WAT      O 1004  -3.185   6.038   6.084  0.3009 -0.6395 -0.0793
24800WAT     H1 1005  -3.189   6.026   6.179 -0.6365 -0.1323 -0.0476
24800WAT     H2 1006  -3.153   5.954   6.051 -1.0080 -1.4288  0.5607
24800WAT    EPW 1007  -3.181   6.025   6.092  0.0048 -0.6766  0.0093
24801WAT      O 1008   0.149   5.741   5.926  0.1572  0.1375 -0.3964
24801WAT     H1 1009   0.070   5.697   5.893  0.5015 -0.8865  0.1141
24801WAT     H2 1010   0.222   5.693   5.887  0.5458 -0.0037  0.4760
24801WAT    EPW 1011   0.148   5.729   5.916  0.2539 -0.0162 -0.2141
24802WAT      O 1012   1.920   5.095   0.985  0.0395  0.6316  0.6421
24802WAT     H1 1013   1.977   5.059   0.917  1.2627  1.3303  1.2709
24802WAT     H2 1014   1.953   5.184   0.999 -0.4252  0.6161  1.8995
24802WAT    EPW 1015   1.931   5.102   0.978  0.1395  0.7217  0.8909
24803WAT      O 1016  -4.295   8.255   5.479 -0.0274 -0.5494  0.1723
24803WAT     H1 1017  -4.315   8.200   5.403  0.1551 -1.8342  1.0080
24803WAT     H2 1018  -4.209   8.223   5.509  0.4547  0.7486  0.2124
24803WAT    EPW 1019  -4.286   8.243   5.473  0.0601 -0.5479  0.2878
24804WAT      O 1020   4.036   6.282   1.765  0.1428 -0.1746  0.2647
24804WAT     H1 1021   4.062   6.268   1.856  0.0414 -1.8714  0.0584
24804WAT     H2 1022   3.950   6.242   1.757  0.0584  0.1346 -0.5320
24804WAT    EPW 1023   4.028   6.275   1.776  0.1183 -0.3576  0.1324
24805WAT      O 1024   0.978   7.401   1.278 -0.3879 -0.2971  0.4349
24805WAT     H1 1025   0.981   7.496   1.275  0.1070 -0.3292 -1.8810
24805WAT     H2 1026   0.887   7.379   1.260 -0.7994 -0.2809  2.3298
24805WAT    EPW 1027   0.967   7.410   1.275 -0.3769 -0.2992  0.3794
24806WAT      O 1028  -4.670   2.583   8.683 -0.0594 -0.2135 -0.6390
24806WAT     H1 1029  -4.627   2.632   8.613  1.8422 -0.0516  0.5878
24806WAT     H2 1030  -4.644   2.627   8.763 -2.7539  0.0287  0.2085
24806WAT    EPW 1031  -4.661   2.595   8.684 -0.1638 -0.1602 -0.3657
24807WAT      O 1032  -2.311   8.015   8.132 -0.5931 -0.4888  0.5995
24807WAT     H1 1033  -2.300   8.034   8.039 -0.0006  2.0913  1.1193
24807WAT     H2 1034  -2.331   7.922   8.135 -1.7963 -0.4336 -2.1974
24807WAT    EPW 1035  -2.312   8.005   8.120 -0.6737 -0.1416  0.2990
24808WAT      O 1036   4.125   5.966   0.038 -0.6730 -0.3246  0.1194
24808WAT     H1 1037   4.044   5.966  -0.013 -0.7628 -1.2725  0.2368
24808WAT     H2 1038   4.147   6.058   0.048 -2.7232  0.0707  1.6428
24808WAT    EPW 1039   4.117   5.978   0.032 -0.9551 -0.3974  0.3358
24809WAT      O 1040   4.638   0.052   3.689 -0.0380 -0.4077  0.9701
24809WAT     H1 1041   4.547   0.065   3.717 -0.3924  2.7623 -1.1702
24809WAT     H2 1042   4.690   0.096   3.756 -0.3306  0.4653  0.6352
24809WAT    EPW 1043   4.632   0.060   3.702 -0.1235  0.1256  0.6436
24810WAT      O 1044   7.392   1.594   0.143 -0.4141  0.2931  0.3277
24810WAT     H1 1045   7.338   1.673   0.140  3.5522  3.2829  0.1899
24810WAT     H2 1046   7.407   1.572   0.051 -1.5216 -0.7484  0.3650
24810WAT    EPW 1047   7.386   1.601   0.130 -0.0372  0.5501  0.3144
24811WAT      O 1048   4.780   1.444   7.928 -0.4743 -0.3348 -1.0196
24811WAT     H1 1049   4.787   1.349   7.929 -0.9339 -0.3653 -0.3618
24811WAT     H2 1050   4.727   1.465   8.004  1.7062  0.6087  0.3540
24811WAT    EPW 1051   4.774   1.434   7.938 -0.2472 -0.2144 -0.7517
24812WAT      O 1052   3.187   7.634   3.102 -0.2213  0.5301 -0.0775
24812WAT     H1 1053   3.142   7.686   3.169 -0.1331  0.7612 -0.1970
24812WAT     H2 1054   3.168   7.679   3.020 -0.6807  0.0110 -0.2653
24812WAT    EPW 1055   3.179   7.647   3.100 -0.2702  0.4921 -0.1180
24813WAT      O 1056  -1.404   4.383   2.405  0.9322  0.3649 -0.0127
24813WAT     H1 1057  -1.436   4.338   2.326  1.5971  0.1869 -0.1884
24813WAT     H2 1058  -1.391   4.473   2.376 -1.1158  0.8968  0.5309
24813WAT    EPW 1059  -1.407   4.389   2.391  0.7498  0.4115  0.0359
24814WAT      O 1060   0.782   0.919   3.139 -0.0445  0.0794  0.6745
24814WAT     H1 1061   0.756   0.935   3.048  1.0741  1.2851  0.5313
24814WAT     H2 1062   0.708   0.951   3.191 -0.5755 -0.3632  0.2069
24814WAT    EPW 1063   0.769   0.925   3.134  0.0330  0.1801  0.5939
24815WAT      O 1064   0.665   3.779   3.485 -1.4822  0.0524 -0.5164
24815WAT     H1 1065   0.704   3.810   3.403 -1.7223  3.3225  0.4651
24815WAT     H2 1066   0.572   3.799   3.476 -1.7817 -1.0597 -0.0403
24815WAT    EPW 1067   0.658   3.786   3.473 -1.5534  0.3370 -0.3242
24816WAT      O 1068   4.959   0.075   1.761 -0.3284  0.0219  0.7569
24816WAT     H1 1069   4.968   0.033   1.847 -1.5955 -1.1859  0.3397
24816WAT     H2 1070   4.969   0.169   1.779  0.0643 -0.2660  2.1237
24816WAT    EPW 1071   4.961   0.082   1.775 -0.4435 -0.1753  0.8821
24817WAT      O 1072  -3.089   4.423   7.701 -0.4562  0.6431  0.0456
24817WAT     H1 1073  -3.176   4.460   7.712 -0.5489  0.1892  1.0068
24817WAT     H2 1074  -3.095   4.336   7.741  0.2987  0.4100 -0.3257
24817WAT    EPW 1075  -3.101   4.416   7.708 -0.3688  0.5527  0.1233
24818WAT      O 1076   3.382   3.769   5.172 -0.0036 -0.2405  0.2760
24818WAT     H1 1077   3.424   3.852   5.197 -0.0607  0.0972 -0.7210
24818WAT     H2 1078   3.429   3.741   5.094 -0.1751 -1.0105  0.4483
24818WAT    EPW 1079   3.393   3.776   5.165 -0.0337 -0.2975  0.1671
24819WAT      O 1080   2.222   9.094   2.212 -0.2677 -0.3502 -0.2636
24819WAT     H1 1081   2.201   9.054   2.128  1.6892 -1.9964 -0.0385
24819WAT     H2 1082   2.278   9.169   2.189 -2.1363  1.0239 -0.5470
24819WAT    EPW 1083   2.227   9.099   2.198 -0.2561 -0.3867 -0.2712
24820WAT      O 1084   4.963   5.095   2.112 -0.0493 -0.4786  1.1480
24820WAT     H1 1085   5.057   5.082   2.125  0.3529  1.0530  0.1535
24820WAT     H2 1086   4.945   5.178   2.155 -0.7272 -0.2731  0.4913
24820WAT    EPW 1087   4.973   5.104   2.119 -0.0854 -0.2494  0.9302
24821WAT      O 1088  -6.627   9.035   8.595 -0.1752 -0.1391 -0.0179
24821WAT     H1 1089  -6.636   9.098   8.667 -3.3375  2.6554 -2.4803
24821WAT     H2 1090  -6.546   9.060   8.551 -0.3693  0.9436  0.2114
24821WAT    EPW 1091  -6.618   9.047   8.599 -0.6180  0.3724 -0.3123
24822WAT      O 1092   2.141   7.729   7.876 -0.9731  0.2174  0.4247
24822WAT     H1 1093   2.235   7.734   7.895 -0.9960  0.7530  0.3954
24822WAT     H2 1094   2.104   7.684   7.952 -0.9214  1.4664  1.2176
24822WAT    EPW 1095   2.148   7.723   7.888 -0.9694  0.4528  0.5252
24823WAT      O 1096  -3.634   5.806   7.959 -0.9818  0.3342 -1.0974
24823WAT     H1 1097  -3.608   5.838   7.873 -0.0067  1.4121 -0.4349
24823WAT     H2 1098  -3.682   5.878   7.998  0.8860  0.9351  0.2617
24823WAT    EPW 1099  -3.637   5.820   7.953 -0.6069  0.5555 -0.8307
24824WAT      O 1100  -2.575   8.683   6.373  0.2744 -0.0989  1.0016
24824WAT     H1 1101  -2.568   8.778   6.386  2.1019 -0.0578  0.0205
24824WAT     H2 1102  -2.564   8.646   6.461  2.4491  0.5118  1.0252
24824WAT    EPW 1103  -2.573   8.691   6.387  0.8023 -0.0129  0.8752
24825WAT      O 1104  -0.637   3.879   5.778  0.0138 -0.2773 -0.3498
24825WAT     H1 1105  -0.674   3.944   5.719  2.5786  1.3823 -0.2942
24825WAT     H2 1106  -0.681   3.797   5.755 -2.4685  1.2153 -1.2417
24825WAT    EPW 1107  -0.648   3.877   5.767  0.0247  0.1385 -0.4601
24826WAT      O 1108   4.656   8.551   5.305 -0.3933 -0.3267  1.2052
24826WAT     H1 1109   4.613   8.470   5.277  2.3815 -1.4591 -0.1400
24826WAT     H2 1110   4.697   8.528   5.388  0.2359 -0.2400  0.9197
24826WAT    EPW 1111   4.655   8.537   5.312  0.0556 -0.4649  0.9902
24827WAT      O 1112   0.233   3.634   0.295 -0.7001 -0.0997  0.7530
24827WAT     H1 1113   0.185   3.715   0.314 -0.9296 -0.0264 -0.0802
24827WAT     H2 1114   0.324   3.661   0.288 -0.9208  0.3421 -0.8050
24827WAT    EPW 1115   0.239   3.648   0.296 -0.7595 -0.0317  0.4376
24828WAT      O 1116   1.871   5.450   8.786  0.1301  0.6298 -0.0122
24828WAT     H1 1117   1.805   5.381   8.779  1.6192 -1.1120  1.7434
24828WAT     H2 1118   1.899   5.466   8.696  2.5560 -4.0981 -0.4084
24828WAT    EPW 1119   1.866   5.443   8.773  0.6464 -0.2234  0.1669
24829WAT      O 1120   4.547   3.016   8.450  0.7726  0.1061  0.4205
24829WAT     H1 1121   4.609   3.002   8.379  0.4607 -1.1372  0.3778
24829WAT     H2 1122   4.517   2.928   8.474 -3.8301  0.6723 -2.1032
24829WAT    EPW 1123   4.551   3.003   8.444  0.1247  0.0168  0.0820
24830WAT      O 1124  -2.043  10.152   5.218 -0.2285 -0.1066 -0.5999
24830WAT     H1 1125  -2.022  10.067   5.179 -1.0133 -0.2688 -0.6889
24830WAT     H2 1126  -1.964  10.177   5.265  0.3888 -0.3879 -1.4514
24830WAT    EPW 1127  -2.030  10.144   5.219 -0.2506 -0.1655 -0.7238
24831WAT      O 1128   3.457   7.355   4.886 -0.6095 -0.6209 -0.5904
24831WAT     H1 1129   3.551   7.360   4.903 -1.0308  0.3517  2.0237
24831WAT     H2 1130   3.445   7.394   4.800  1.1940  1.2833 -0.0413
24831WAT    EPW 1131   3.467   7.361   4.877 -0.4271 -0.2415 -0.1731
24832WAT      O 1132   5.437   9.289   0.389  0.0192  0.4146 -1.0285
24832WAT     H1 1133   5.426   9.317   0.480  0.9411 -0.1071 -0.7399
24832WAT     H2 1134   5.525   9.319   0.366  0.6144 -1.2655 -1.0545
24832WAT    EPW 1135   5.448   9.297   0.398  0.2193  0.1240 -0.9939
24833WAT      O 1136  -1.134   0.178   5.999  0.7098 -0.3016  0.4247
24833WAT     H1 1137  -1.210   0.119   5.999 -0.3703  0.8849 -2.5385
24833WAT     H2 1138  -1.166   0.258   5.958  3.2582  0.7289  0.2514
24833WAT    EPW 1139  -1.148   0.181   5.994  0.9035 -0.0092  0.0112
24834WAT      O 1140   0.174   3.133   1.143 -1.1976 -0.6409  0.2869
24834WAT     H1 1141   0.183   3.192   1.068 -0.8927  0.2493  0.9955
24834WAT     H2 1142   0.094   3.083   1.125 -1.6824  0.2660 -0.1677
24834WAT    EPW 1143   0.164   3.134   1.131 -1.2214 -0.4039  0.3204
24835WAT      O 1144  -2.148   7.116   1.487  0.2132  0.1657 -1.1110
24835WAT     H1 1145  -2.175   7.127   1.396  0.3786  0.3304 -1.1392
24835WAT     H2 1146  -2.055   7.093   1.482  0.7995  2.2948 -0.8899
24835WAT    EPW 1147  -2.140   7.114   1.475  0.3122  0.4683 -1.0856
24836WAT      O 1148   8.630   3.599   0.239  0.4898  0.2205  0.1725
24836WAT     H1 1149   8.664   3.623   0.153 -0.7169 -1.9482 -0.9727
24836WAT     H2 1150   8.540   3.572   0.223  0.5693 -1.2967  1.9495
24836WAT    EPW 1151   8.622   3.599   0.226  0.3409 -0.2656  0.2559
24837WAT      O 1152  -1.199   6.751   2.584  0.4434 -0.1183  0.2349
24837WAT     H1 1153  -1.282   6.727   2.625  0.5592  0.8020  1.0475
24837WAT     H2 1154  -1.181   6.680   2.522  0.2827 -1.5700  1.7895
24837WAT    EPW 1155  -1.208   6.739   2.581  0.4375 -0.1884  0.5471
24838WAT      O 1156  -4.232   8.559   5.771 -0.0953  0.3943 -0.0938
24838WAT     H1 1157  -4.147   8.516   5.760 -0.8947 -1.1021 -0.6872
24838WAT     H2 1158  -4.259   8.584   5.682 -0.5060  0.4139  0.0316
24838WAT    EPW 1159  -4.224   8.557   5.758 -0.2546  0.1993 -0.1557
24839WAT      O 1160   3.994   9.704   5.852  1.1093  0.3415  0.9159
24839WAT     H1 1161   3.970   9.691   5.760  2.4106  0.1143  0.5955
24839WAT     H2 1162   3.940   9.778   5.880 -0.1191 -0.2874  0.3036
24839WAT    EPW 1163   3.983   9.712   5.844  1.1189  0.2284  0.7930
24840WAT      O 1164   3.653   2.906   7.830 -0.1395  0.2631 -0.4512
24840WAT     H1 1165   3.666   2.971   7.762 -0.1196 -0.2949 -0.9920
24840WAT     H2 1166   3.722   2.841   7.815  1.2655  1.2273  1.4516
24840WAT    EPW 1167   3.664   2.906   7.819  0.0484  0.3167 -0.2716
24841WAT      O 1168   4.680   3.232   2.238 -0.8339 -0.2554 -0.1652
24841WAT     H1 1169   4.636   3.269   2.314  0.1172  0.3491  0.0957
24841WAT     H2 1170   4.612   3.181   2.194 -1.6108  0.0887  0.6168
24841WAT    EPW 1171   4.665   3.230   2.242 -0.8109 -0.1303 -0.0277
24842WAT      O 1172   3.308   1.081   5.587 -0.1552  0.2442 -0.2313
24842WAT     H1 1173   3.384   1.101   5.533 -0.7691  0.8711 -0.8933
24842WAT     H2 1174   3.304   1.154   5.650 -0.1691  0.1779 -0.1554
24842WAT    EPW 1175   3.317   1.093   5.588 -0.2382  0.3182 -0.3085
24843WAT      O 1176  -2.312   9.504   5.201  0.5192 -0.1775 -0.3311
24843WAT     H1 1177  -2.361   9.551   5.268  1.3031 -1.6047  1.3009
24843WAT     H2 1178  -2.378   9.480   5.136 -0.7987 -1.1843  1.2999
24843WAT    EPW 1179  -2.327   9.507   5.201  0.4487 -0.4983  0.0994
24844WAT      O 1180   0.639   8.124   8.394 -0.4943  0.2873  1.2096
24844WAT     H1 1181   0.729   8.130   8.426  0.0777 -1.0843 -0.0563
24844WAT     H2 1182   0.647   8.102   8.301 -2.1326  1.8773  0.6359
24844WAT    EPW 1183   0.652   8.122   8.386 -0.6349  0.3161  0.9670
24845WAT      O 1184  -1.550   0.484   8.886 -0.1426  0.3985  0.3459
24845WAT     H1 1185  -1.636   0.483   8.930 -0.5566  0.8392 -0.4279
24845WAT     H2 1186  -1.491   0.524   8.951 -0.3126 -0.7268  1.2258
24845WAT    EPW 1187  -1.554   0.489   8.901 -0.2196  0.3082  0.3600
24846WAT      O 1188   3.390   0.655   2.782 -0.2470 -0.1076  0.3050
24846WAT     H1 1189   3.345   0.575   2.809 -1.1950 -0.5072 -2.1859
24846WAT     H2 1190   3.482   0.629   2.771 -0.4301 -0.6907  0.1356
24846WAT    EPW 1191   3.396   0.641   2.784 -0.3961 -0.2372 -0.0458
24847WAT      O 1192   1.893   0.705   7.407 -1.1688  0.3496  0.2900
24847WAT     H1 1193   1.929   0.617   7.418 -0.1250  0.6437 -0.5853
24847WAT     H2 1194   1.826   0.695   7.339 -0.9376  0.2507  0.0727
24847WAT    EPW 1195   1.889   0.692   7.399 -1.0006  0.3753  0.1462
24848WAT      O 1196  -0.863   0.377   3.546 -0.0856 -0.1493 -0.4038
24848WAT     H1 1197  -0.854   0.429   3.466  0.4585  1.1928  0.4959
24848WAT     H2 1198  -0.858   0.441   3.617  2.2134 -1.5521  0.8160
24848WAT    EPW 1199  -0.861   0.392   3.545  0.2894 -0.1573 -0.1242
24849WAT      O 1200   3.959   3.869   5.659 -0.2832  0.2943 -0.0793
24849WAT     H1 1201   4.046   3.878   5.696  0.4580 -0.5396 -1.5229
24849WAT     H2 1202   3.931   3.959   5.642  1.3141  0.5451 -1.7716
24849WAT    EPW 1203   3.967   3.882   5.662  0.0253  0.2173 -0.4928
24850WAT      O 1204  -3.609   9.199   7.652  0.1074 -0.2865  0.3935
24850WAT     H1 1205  -3.548   9.165   7.587  2.0318  2.1417  0.8106
24850WAT     H2 1206  -3.696   9.181   7.615  1.0580 -2.3081 -1.0139
24850WAT    EPW 1207  -3.613   9.192   7.639  0.4866 -0.2327  0.2630
24851WAT      O 1208  -0.583   8.361   2.536 -0.8906  0.7208  0.4212
24851WAT     H1 1209  -0.627   8.412   2.604  1.7329  1.9619  1.3350
24851WAT     H2 1210  -0.537   8.426   2.483  0.6221 -0.5245  0.1442
24851WAT    EPW 1211  -0.583   8.376   2.538 -0.3450  0.7200  0.5051
24852WAT      O 1212  -2.140   9.580   7.631 -1.2999 -0.2950  0.3084
24852WAT     H1 1213  -2.101   9.656   7.587 -2.0288 -0.5220 -0.7576
24852WAT     H2 1214  -2.134   9.509   7.567 -1.5921 -0.8621  0.9018
24852WAT    EPW 1215  -2.134   9.581   7.617 -1.4346 -0.3996  0.2460
24853WAT      O 1216   2.322   5.375   6.530  0.6389  0.4119  0.8814
24853WAT     H1 1217   2.286   5.460   6.504 -1.3845 -0.6565 -0.0629
24853WAT     H2 1218   2.336   5.382   6.624  0.5195  1.7732  0.8163
24853WAT    EPW 1219   2.319   5.387   6.539  0.3563  0.4506  0.7484
24854WAT      O 1220   3.692   8.103   1.565 -0.5362  0.4090  0.5924
24854WAT     H1 1221   3.785   8.101   1.545 -0.5701 -1.8881  0.4556
24854WAT     H2 1222   3.682   8.045   1.640 -2.2092 -1.9061 -1.2726
24854WAT    EPW 1223   3.703   8.095   1.572 -0.7613 -0.1993  0.3284
24855WAT      O 1224  -5.519   9.672   3.472  0.2416 -0.3434  0.3943
24855WAT     H1 1225  -5.450   9.614   3.505  1.8104  2.1731  1.8628
24855WAT     H2 1226  -5.570   9.695   3.550  0.1341  0.8632 -0.0208
24855WAT    EPW 1227  -5.517   9.667   3.487  0.4342  0.1478  0.5333
24856WAT      O 1228   8.011   2.940   1.742 -0.4545 -0.8399 -0.1062
24856WAT     H1 1229   8.071   2.930   1.668 -0.3329 -0.2479 -0.0898
24856WAT     H2 1230   7.925   2.922   1.705 -0.4912  0.2539 -0.5930
24856WAT    EPW 1231   8.007   2.936   1.728 -0.4430 -0.6175 -0.1683
24857WAT      O 1232  -0.127   9.790   7.324  0.0882 -0.3263  0.2227
24857WAT     H1 1233  -0.199   9.765   7.265 -1.1188  2.9578  0.0590
24857WAT     H2 1234  -0.098   9.875   7.290  2.5890 -0.5246  1.6499
24857WAT    EPW 1235  -0.133   9.798   7.311  0.2588  0.0806  0.3896
24858WAT      O 1236  -1.531   0.369   4.381  0.1380  0.5736 -0.5554
24858WAT     H1 1237  -1.543   0.454   4.424  0.2454 -0.1994  1.0886
24858WAT     H2 1238  -1.501   0.390   4.293 -1.0049  2.2596 -0.5790
24858WAT    EPW 1239  -1.529   0.383   4.375  0.0014  0.6940 -0.3419
24859WAT      O 1240   5.039   1.359   7.732  0.9786 -0.2689  0.1763
24859WAT     H1 1241   5.125   1.351   7.774  1.3520 -1.3347 -0.7384
24859WAT     H2 1242   4.999   1.434   7.775  2.8682  1.0514 -0.2431
24859WAT    EPW 1243   5.045   1.368   7.743  1.2772 -0.2354  0.0002
24860WAT      O 1244   0.419   0.746   4.265  0.0611  0.1461  0.5773
24860WAT     H1 1245   0.427   0.783   4.177 -0.7072 -0.1944  0.3514
24860WAT     H2 1246   0.363   0.669   4.253 -1.1300  0.8223  1.5579
24860WAT    EPW 1247   0.413   0.741   4.252 -0.1973  0.1903  0.6771
24861WAT      O 1248  -3.162   4.076   7.582  0.4006  0.2581 -0.2884
24861WAT     H1 1249  -3.124   4.010   7.525 -0.5439 -2.1421  1.6973
24861WAT     H2 1250  -3.117   4.065   7.666 -2.0148 -0.2032  1.0407
24861WAT    EPW 1251  -3.151   4.066   7.586 -0.0426 -0.1192  0.1488
24862WAT      O 1252  -2.104   4.891   2.838  0.1352 -1.0638 -0.1487
24862WAT     H1 1253  -2.148   4.826   2.784 -1.8480  0.3277 -0.3001
24862WAT     H2 1254  -2.147   4.974   2.816  2.7297  0.3820 -0.1478
24862WAT    EPW 1255  -2.116   4.894   2.828  0.2159 -0.6895 -0.1687
24863WAT      O 1256  -1.871   3.249   7.410 -0.3862 -0.3406 -0.1560
24863WAT     H1 1257  -1.865   3.178   7.474  0.8214 -0.4550 -0.3754
24863WAT     H2 1258  -1.965   3.253   7.388 -0.5173 -1.7025  0.0400
24863WAT    EPW 1259  -1.883   3.240   7.415 -0.2442 -0.5354 -0.1590
24864WAT      O 1260   1.150   8.706   7.563 -0.6523 -0.2610 -0.4879
24864WAT     H1 1261   1.117   8.636   7.619  1.0309 -0.8679 -0.2032
24864WAT     H2 1262   1.230   8.735   7.605 -1.0172  1.4827 -0.9110
24864WAT    EPW 1263   1.156   8.701   7.576 -0.4784 -0.1111 -0.5062
24865WAT      O 1264   4.402   2.177   7.432  0.3076 -0.1574  0.0277
24865WAT     H1 1265   4.338   2.239   7.397  1.9015  0.2784 -2.3509
24865WAT     H2 1266   4.414   2.204   7.523 -3.1011 -0.5119  0.7266
24865WAT    EPW 1267   4.395   2.189   7.439  0.0682 -0.1467 -0.1938
24866WAT      O 1268  -4.628   9.747   3.720 -0.4076 -0.8723 -0.0817
24866WAT     H1 1269  -4.552   9.705   3.760  0.5621  0.0574 -0.9004
24866WAT     H2 1270  -4.701   9.728   3.780  0.7647 -0.4751  1.5210
24866WAT    EPW 1271  -4.628   9.739   3.733 -0.1252 -0.6976  0.0217
24867WAT      O 1272  -0.598   0.503   4.897  0.0455  0.1923  0.2486
24867WAT     H1 1273  -0.646   0.519   4.816 -1.9626 -0.7091  1.2025
24867WAT     H2 1274  -0.507   0.492   4.868 -0.1983  2.2269 -1.5751
24867WAT    EPW 1275  -0.592   0.503   4.882 -0.2515  0.3418  0.1340
24868WAT      O 1276   4.474   0.714   2.884  0.0179  0.1363 -0.1914
24868WAT     H1 1277   4.395   0.768   2.875  0.6295  1.6452  2.4138
24868WAT     H2 1278   4.523   0.729   2.803 -1.8929 -0.1334 -1.4743
24868WAT    EPW 1279   4.470   0.723   2.872 -0.1533  0.2997 -0.0169
24869WAT      O 1280  -1.749  10.206   8.851  0.1758  0.0109 -0.8505
24869WAT     H1 1281  -1.661  10.203   8.814  1.2970  2.4389  1.2941
24869WAT     H2 1282  -1.783  10.292   8.825 -0.3412  0.3308  0.7691
24869WAT    EPW 1283  -1.742  10.217   8.843  0.2556  0.3734 -0.3543
24870WAT      O 1284   4.056   6.338   2.863  0.4370 -0.3262 -0.1122
24870WAT     H1 1285   4.061   6.413   2.803  3.1245 -0.4098 -0.0720
24870WAT     H2 1286   3.972   6.350   2.908 -1.2793  0.2351 -3.1823
24870WAT    EPW 1287   4.045   6.350   2.861  0.5651 -0.2632 -0.5119
24871WAT      O 1288   1.781   2.391   8.489  0.3634 -0.9352  0.0039
24871WAT     H1 1289   1.819   2.470   8.451  0.3455 -1.4615 -1.1399
24871WAT     H2 1290   1.723   2.424   8.558 -2.7526  0.4340 -2.9602
24871WAT    EPW 1291   1.778   2.406   8.493 -0.0499 -0.8241 -0.5379
24872WAT      O 1292   1.259   6.945   0.317 -0.3611  0.6466  0.0458
24872WAT     H1 1293   1.227   7.032   0.292  0.5911  1.3603  1.2305
24872WAT     H2 1294   1.201   6.916   0.386 -0.9202  0.1449 -0.6164
24872WAT    EPW 1295   1.247   6.953   0.323 -0.3093  0.6745  0.1147
24873WAT      O 1296   0.340   5.099   4.338  0.0306 -0.0493  0.1777
24873WAT     H1 1297   0.373   5.014   4.366  2.2636  0.9697  0.8080
24873WAT     H2 1298   0.311   5.141   4.419 -2.8602 -0.8421 -0.3310
24873WAT    EPW 1299   0.340   5.093   4.352 -0.0561 -0.0196  0.1941
24874WAT      O 1300   1.727   4.621   7.017  0.0061 -0.2488  0.5045
24874WAT     H1 1301   1.738   4.703   7.065  0.1210  0.2901 -0.4070
24874WAT     H2 1302   1.790   4.628   6.945 -0.1544 -1.0369  0.2845
24874WAT    EPW 1303   1.737   4.633   7.014  0.0001 -0.2818  0.3552
24875WAT      O 1304   3.174   2.461   4.780 -0.3075 -0.7202  0.0831
24875WAT     H1 1305   3.095   2.508   4.805 -0.3385 -1.0665  0.6427
24875WAT     H2 1306   3.173   2.382   4.833  1.4435  0.2217  1.6268
24875WAT    EPW 1307   3.164   2.457   4.790 -0.0806 -0.6416  0.3605
24876WAT      O 1308   0.743   5.355   3.731 -0.5231 -0.4325 -0.7352
24876WAT     H1 1309   0.793   5.431   3.700 -2.1288  1.5752  1.1558
24876WAT     H2 1310   0.694   5.326   3.655 -0.2349  0.7670 -1.4170
24876WAT    EPW 1311   0.743   5.361   3.717 -0.6969 -0.0095 -0.5757
24877WAT      O 1312   3.792   3.180   4.576 -0.6510 -0.2276  0.1286
24877WAT     H1 1313   3.778   3.085   4.567  2.5867 -0.8383  0.3734
24877WAT     H2 1314   3.793   3.194   4.671 -1.0808  0.0688  0.0922
24877WAT    EPW 1315   3.790   3.169   4.588 -0.2806 -0.2691  0.1562
24878WAT      O 1316  -1.867   9.317   4.603  0.1326 -0.8435  0.4023
24878WAT     H1 1317  -1.942   9.344   4.550 -1.3643 -1.4783  2.1160
24878WAT     H2 1318  -1.807   9.391   4.598 -2.0419  1.1429  1.6366
24878WAT    EPW 1319  -1.869   9.330   4.595 -0.3517 -0.6652  0.7911
24879WAT      O 1320  -0.596   2.610   1.639  0.3011  0.6101  0.1948
24879WAT     H1 1321  -0.535   2.584   1.708  0.1527 -0.1357  0.0479
24879WAT     H2 1322  -0.661   2.664   1.685 -0.7916 -1.2929  1.0234
24879WAT    EPW 1323  -0.596   2.614   1.654  0.1374  0.2608  0.2847
24880WAT      O 1324  -0.130   9.667   6.729  0.4408 -0.3119 -0.3728
24880WAT     H1 1325  -0.213   9.637   6.766  0.1541  1.9376  0.9948
24880WAT     H2 1326  -0.066   9.602   6.759 -0.8870 -2.6605 -2.2973
24880WAT    EPW 1327  -0.132   9.654   6.738  0.2279 -0.3252 -0.4461
24881WAT      O 1328  -1.162   3.551   7.433 -0.4083  0.4601 -0.7526
24881WAT     H1 1329  -1.213   3.497   7.493 -0.2071 -0.1962 -1.1653
24881WAT     H2 1330  -1.209   3.545   7.350 -2.3258  3.6197 -0.1023
24881WAT    EPW 1331  -1.175   3.543   7.430 -0.6347  0.7901 -0.7215
24882WAT      O 1332  -2.867   3.104   6.404 -1.0501 -0.6955 -0.1709
24882WAT     H1 1333  -2.784   3.095   6.451 -0.9454  1.0576  0.0709
24882WAT     H2 1334  -2.884   3.018   6.366  0.8517 -1.0938 -0.1865
24882WAT    EPW 1335  -2.858   3.092   6.405 -0.7855 -0.5168 -0.1409
24883WAT      O 1336  -2.803   8.030   6.145 -0.5201  0.0185 -0.2966
24883WAT     H1 1337  -2.810   7.940   6.113  1.1349 -0.5147  0.7144
24883WAT     H2 1338  -2.882   8.042   6.198 -1.3412 -0.4084 -1.3839
24883WAT    EPW 1339  -2.814   8.020   6.148 -0.4100 -0.1078 -0.3066
24884WAT      O 1340   3.117   0.667   6.409 -0.1821 -0.6174 -0.6551
24884WAT     H1 1341   3.031   0.707   6.420  0.0331  0.0778 -1.3206
24884WAT     H2 1342   3.134   0.675   6.315 -0.2993 -2.6865 -0.8852
24884WAT    EPW 1343   3.108   0.673   6.398 -0.1693 -0.7986 -0.7734
24885WAT      O 1344  -5.923   6.320   7.763  0.3099  0.0113 -0.0760
24885WAT     H1 1345  -5.929   6.228   7.787 -0.7200 -0.5476 -2.2028
24885WAT     H2 1346  -5.968   6.366   7.834 -0.5787 -1.2812  0.2433
24885WAT    EPW 1347  -5.930   6.314   7.776  0.0570 -0.2327 -0.3142
24886WAT      O 1348  -0.502   6.672   4.775 -0.2796  0.1943  0.3599
24886WAT     H1 1349  -0.556   6.684   4.697  0.5464  1.0748 -0.0928
24886WAT     H2 1350  -0.517   6.751   4.827  2.4756  1.7380 -0.9757
24886WAT    EPW 1351  -0.511   6.684   4.771  0.1927  0.5140  0.1240
24887WAT      O 1352   4.621   2.307   2.744 -0.1590 -0.3218  0.4276
24887WAT     H1 1353   4.533   2.335   2.718 -0.0691  1.3169  1.7724
24887WAT     H2 1354   4.651   2.373   2.806  1.9998 -0.9075  0.1054
24887WAT    EPW 1355   4.613   2.319   2.748  0.1376 -0.1829  0.5625
24888WAT      O 1356   2.030   5.715   7.341  0.0702 -0.5116 -0.5308
24888WAT     H1 1357   2.105   5.773   7.353  0.2925 -0.9130  0.0854
24888WAT     H2 1358   1.965   5.768   7.295 -0.5540  0.8852  1.8206
24888WAT    EPW 1359   2.031   5.729   7.336  0.0172 -0.3805 -0.1395
24889WAT      O 1360   6.696   5.888   0.534  0.4968  0.1154  0.1809
24889WAT     H1 1361   6.719   5.975   0.566 -0.1983 -0.0776  1.2655
24889WAT     H2 1362   6.775   5.856   0.491  0.3754  1.7666 -1.3675
24889WAT    EPW 1363   6.709   5.895   0.532  0.3893  0.3078  0.1197
24890WAT      O 1364   4.003   6.816   2.940  0.6561 -0.3216  0.3788
24890WAT     H1 1365   4.090   6.811   2.899  1.7725 -2.9336  2.7229
24890WAT     H2 1366   4.019   6.852   3.027 -0.3419 -1.9324  1.2937
24890WAT    EPW 1367   4.017   6.820   2.946  0.6716 -0.8788  0.8087
24891WAT      O 1368   4.472   8.235   1.761  0.9901  0.1194  0.4387
24891WAT     H1 1369   4.424   8.288   1.698  1.8177  1.0253  0.5414
24891WAT     H2 1370   4.537   8.295   1.799  1.4688 -0.7780  1.0952
24891WAT    EPW 1371   4.474   8.250   1.758  1.1623  0.1202  0.5388
24892WAT      O 1372  -1.922   2.774   8.895 -0.5792 -0.0064  0.2322
24892WAT     H1 1373  -1.980   2.806   8.964 -4.3610 -3.0229 -1.1818
24892WAT     H2 1374  -1.897   2.686   8.923  4.8838  1.5215  1.4079
24892WAT    EPW 1375  -1.926   2.767   8.908 -0.3574 -0.2028  0.2007
24893WAT      O 1376   5.614   7.880   3.226 -0.0581 -0.6345  0.6276
24893WAT     H1 1377   5.710   7.880   3.237 -0.0777 -0.3482  0.7985
24893WAT     H2 1378   5.601   7.838   3.140  0.4169  2.2249 -0.9679
24893WAT    EPW 1379   5.625   7.874   3.216  0.0017 -0.2196  0.4396
24894WAT      O 1380   0.942   2.709   6.177  0.6974  0.0375  0.2226
24894WAT     H1 1381   0.914   2.619   6.160 -1.5435  0.4927  1.1745
24894WAT     H2 1382   0.860   2.759   6.183  1.8702  2.0827  0.0773
24894WAT    EPW 1383   0.927   2.704   6.176  0.5565  0.3673  0.3288
24895WAT      O 1384  -1.998   2.969   2.083  0.6205  0.2775 -0.2397
24895WAT     H1 1385  -2.090   2.958   2.107  0.4240  0.5857 -0.8251
24895WAT     H2 1386  -2.000   3.020   2.002  1.3573  1.6540  0.5572
24895WAT    EPW 1387  -2.010   2.974   2.075  0.6918  0.4997 -0.2117
24896WAT      O 1388   0.785   6.383   3.576  0.1462  0.2674  0.4225
24896WAT     H1 1389   0.700   6.410   3.609  0.3478  3.1781 -1.0917
24896WAT     H2 1390   0.844   6.391   3.651 -0.5533  0.2082  0.9820
24896WAT    EPW 1391   0.782   6.387   3.590  0.0805  0.6437  0.2967
24897WAT      O 1392  -2.303   3.791   5.158 -0.0017  0.4228  0.8569
24897WAT     H1 1393  -2.385   3.756   5.123  0.9445 -0.8601 -0.1746
24897WAT     H2 1394  -2.290   3.873   5.110  1.1413 -1.1671 -1.8203
24897WAT    EPW 1395  -2.312   3.797   5.147  0.2737  0.0440  0.3679
24898WAT      O 1396   6.681   8.059   2.273 -0.3468  0.1138  1.0153
24898WAT     H1 1397   6.657   8.057   2.181 -2.2350 -0.2458  1.4628
24898WAT     H2 1398   6.688   7.967   2.298 -3.0850  0.0563  1.9252
24898WAT    EPW 1399   6.679   8.046   2.264 -0.9573  0.0587  1.1944
24899WAT      O 1400   0.585   1.475   3.319  0.0313 -0.1203 -0.2739
24899WAT     H1 1401   0.631   1.464   3.236  1.4124 -1.0184  0.5709
24899WAT     H2 1402   0.495   1.497   3.294  0.8038  1.3244 -1.9673
24899WAT    EPW 1403   0.579   1.476   3.305  0.3153 -0.0482 -0.3859
24900WAT      O 1404   1.885   5.711   3.436  0.5854  0.4477  0.3360
24900WAT     H1 1405   1.922   5.653   3.502  3.1921 -0.6666 -1.9054
24900WAT     H2 1406   1.955   5.722   3.372 -1.0167  3.2838 -1.1428
24900WAT    EPW 1407   1.899   5.705   3.436  0.7179  0.6747 -0.1546
24901WAT      O 1408  -4.218   1.588   6.482  0.6743  0.2936  0.2542
24901WAT     H1 1409  -4.134   1.547   6.461 -0.3688 -2.0970  0.4096
24901WAT     H2 1410  -4.196   1.661   6.540  2.6355 -0.0816  0.0476
24901WAT    EPW 1411  -4.204   1.593   6.487  0.7954 -0.0712  0.2475
24902WAT      O 1412  -0.693   3.972   8.116 -0.4086  0.3856 -0.5007
24902WAT     H1 1413  -0.751   3.920   8.172  1.2428 -2.5653 -1.3134
24902WAT     H2 1414  -0.613   3.983   8.168 -0.6628  2.0841 -0.4118
24902WAT    EPW 1415  -0.690   3.967   8.130 -0.2244  0.2204 -0.5960
24903WAT      O 1416  -0.945   6.433   0.780 -0.0722  0.5452 -0.4586
24903WAT     H1 1417  -1.034   6.458   0.755 -0.9479  1.4697  2.9449
24903WAT     H2 1418  -0.957   6.353   0.832  0.8097  1.4564  1.2409
24903WAT    EPW 1419  -0.958   6.425   0.784 -0.0714  0.7873  0.2145
24904WAT      O 1420   1.629   0.143   3.819  0.0330  0.0444 -0.6757
24904WAT     H1 1421   1.538   0.161   3.798 -0.4036 -0.0021  1.0274
24904WAT     H2 1422   1.657   0.079   3.753 -1.7434 -1.3771 -0.1120
24904WAT    EPW 1423   1.621   0.137   3.808 -0.2589 -0.1492 -0.3768
24905WAT      O 1424   4.014   1.888   8.755 -0.2000 -0.0082 -0.6398
24905WAT     H1 1425   4.040   1.961   8.811 -1.0265 -0.0971 -0.1367
24905WAT     H2 1426   4.009   1.926   8.667 -0.4003  0.4799 -0.4163
24905WAT    EPW 1427   4.017   1.903   8.751 -0.3352  0.0445 -0.5441
24906WAT      O 1428  -0.071   1.246   0.052 -0.3002 -0.3331 -0.6233
24906WAT     H1 1429  -0.038   1.175   0.107 -0.9535 -0.0806  0.1126
24906WAT     H2 1430  -0.020   1.323   0.078 -0.6536 -0.1993 -0.3198
24906WAT    EPW 1431  -0.060   1.247   0.063 -0.4330 -0.2822 -0.4862
24907WAT      O 1432  -4.249   6.765   7.676 -0.0135 -0.0985  0.3491
24907WAT     H1 1433  -4.224   6.673   7.683  2.1898  0.1187 -2.4730
24907WAT     H2 1434  -4.308   6.768   7.600  2.0563  0.9964 -1.3535
24907WAT    EPW 1435  -4.254   6.753   7.667  0.5500  0.0746 -0.2475
24908WAT      O 1436   7.674   5.222   1.841  0.0731 -0.8970 -0.2295
24908WAT     H1 1437   7.643   5.140   1.802 -0.3506  0.4061 -2.8674
24908WAT     H2 1438   7.740   5.195   1.905  0.5714 -3.2579 -1.6272
24908WAT    EPW 1439   7.679   5.207   1.844  0.0827 -1.0366 -0.7617
24909WAT      O 1440   1.732   9.287   2.762 -0.2530  0.7699  0.0428
24909WAT     H1 1441   1.810   9.323   2.721  1.4064 -1.6380  0.8594
24909WAT     H2 1442   1.763   9.210   2.810 -3.6670 -2.9949 -3.0515
24909WAT    EPW 1443   1.747   9.281   2.763 -0.4844 -0.0443 -0.2576
24910WAT      O 1444  -5.330   3.760   7.918  0.1252 -0.1660  0.2470
24910WAT     H1 1445  -5.425   3.751   7.912  0.0504  0.6520 -0.0252
24910WAT     H2 1446  -5.308   3.725   8.004 -0.1813 -2.0271 -0.3892
24910WAT    EPW 1447  -5.340   3.755   7.929  0.0749 -0.3035  0.1271
24911WAT      O 1448   2.058   1.064   3.245  0.3553  0.0211 -0.2274
24911WAT     H1 1449   2.048   1.069   3.150 -1.9140  3.6992  0.0150
24911WAT     H2 1450   1.970   1.075   3.279  1.2113 -0.4284  2.3174
24911WAT    EPW 1451   2.045   1.066   3.237  0.1688  0.4470  0.1402
24912WAT      O 1452  -0.085   1.954   7.633  0.2832 -0.0911 -0.1496
24912WAT     H1 1453  -0.173   1.988   7.615  0.1339 -0.5752 -0.3265
24912WAT     H2 1454  -0.051   2.012   7.702 -1.3843 -1.7687  2.2515
24912WAT    EPW 1455  -0.092   1.967   7.640  0.0436 -0.3762  0.1438
24913WAT      O 1456   1.959   3.758   4.165 -0.2448  0.5857 -0.3674
24913WAT     H1 1457   1.910   3.684   4.131 -0.9030  1.0505 -0.4514
24913WAT     H2 1458   1.951   3.826   4.098  1.6129  0.2541 -0.9845
24913WAT    EPW 1459   1.952   3.757   4.152 -0.0867  0.6033 -0.4599
24914WAT      O 1460   3.349   3.868   8.279 -0.8634 -0.6177 -0.1149
24914WAT     H1 1461   3.306   3.886   8.196  0.5395 -1.9994 -1.1895
24914WAT     H2 1462   3.291   3.807   8.324 -0.9697 -0.9363 -0.6885
24914WAT    EPW 1463   3.336   3.863   8.274 -0.6924 -0.8420 -0.3324
24915WAT      O 1464   3.409   3.913   3.368  0.3744  0.3789 -0.0275
24915WAT     H1 1465   3.332   3.951   3.412  0.9721  0.6064  0.8382
24915WAT     H2 1466   3.441   3.847   3.429  0.3896 -0.3038 -0.7578
24915WAT    EPW 1467   3.403   3.909   3.382  0.4551  0.3189 -0.0098
24916WAT      O 1468  -5.078   4.575   6.232  0.3183 -0.6445 -1.1171
24916WAT     H1 1469  -5.161   4.531   6.250  0.8132 -2.6274 -3.1541
24916WAT     H2 1470  -5.012   4.505   6.239  1.7233  0.6880 -0.4252
24916WAT    EPW 1471  -5.080   4.560   6.235  0.5689 -0.7303 -1.2946
24917WAT      O 1472  -3.679   9.792   6.187  0.0677 -0.4008  0.2074
24917WAT     H1 1473  -3.632   9.709   6.175 -2.1060 -1.5906 -0.5161
24917WAT     H2 1474  -3.697   9.795   6.281 -0.7751 -1.3131  0.0891
24917WAT    EPW 1475  -3.675   9.782   6.198 -0.3301 -0.6785  0.0963
24918WAT      O 1476   1.848   9.546   0.056  0.7077 -0.5134  0.2852
24918WAT     H1 1477   1.800   9.628   0.070  1.4452  0.0706 -0.5075
24918WAT     H2 1478   1.938   9.574   0.040  1.5595 -1.6072  2.5951
24918WAT    EPW 1479   1.854   9.561   0.056  0.9174 -0.5808  0.4853
24919WAT      O 1480   3.920   1.414   6.416 -0.1934  0.4292  0.3352
24919WAT     H1 1481   3.829   1.395   6.395 -0.6462 -1.3436  3.1756
24919WAT     H2 1482   3.970   1.359   6.356 -1.1374 -0.5599  0.4121
24919WAT    EPW 1483   3.915   1.404   6.406 -0.3775  0.0650  0.7200
24920WAT      O 1484  -1.431   0.611   6.597  0.7198  0.5998 -0.0742
24920WAT     H1 1485  -1.385   0.694   6.611  0.5562  0.5521  0.7903
24920WAT     H2 1486  -1.492   0.605   6.670 -0.0325  0.2304 -0.7235
24920WAT    EPW 1487  -1.433   0.621   6.609  0.5990  0.5448 -0.0458
24921WAT      O 1488   0.134   4.648   3.882 -0.7082  0.0776 -0.4123
24921WAT     H1 1489   0.193   4.709   3.925 -3.1835  1.4410  1.2866
24921WAT     H2 1490   0.192   4.586   3.837  1.9386  1.8891  0.2799
24921WAT    EPW 1491   0.149   4.648   3.882 -0.6856  0.4964 -0.0969
24922WAT      O 1492  -2.826   8.125   6.932 -0.7023 -0.4267  0.3509
24922WAT     H1 1493  -2.839   8.030   6.942 -1.4216 -0.3496  0.2339
24922WAT     H2 1494  -2.915   8.161   6.931 -0.4357  0.2419  0.3021
24922WAT    EPW 1495  -2.839   8.117   6.933 -0.7621 -0.3281  0.3290
24923WAT      O 1496  -1.916   2.811   3.151 -0.1773  0.0914  0.3976
24923WAT     H1 1497  -1.948   2.896   3.179 -0.0346  0.5938 -0.9099
24923WAT     H2 1498  -1.861   2.781   3.223 -1.5930  0.3069  1.6210
24923WAT    EPW 1499  -1.913   2.818   3.164 -0.3452  0.1860  0.3865
24924WAT      O 1500  -1.696   2.994   6.494 -0.2726 -0.3162 -0.3361
24924WAT     H1 1501  -1.775   3.007   6.442  0.8865  0.8917 -1.9246
24924WAT     H2 1502  -1.668   2.905   6.475 -0.5452 -0.3002 -0.8116
24924WAT    EPW 1503  -1.702   2.984   6.485 -0.1556 -0.1546 -0.6082
24925WAT      O 1504   0.895   6.843   4.208  0.1975 -0.2969  0.1239
24925WAT     H1 1505   0.891   6.780   4.135  1.7634  1.2096 -1.3524
24925WAT     H2 1506   0.808   6.881   4.212 -0.0279 -0.6969 -0.7186
24925WAT    EPW 1507   0.883   6.839   4.199  0.3743 -0.1507 -0.1819
24926WAT      O 1508   3.333   8.073   7.724 -0.5132  0.0027  0.4697
24926WAT     H1 1509   3.373   8.138   7.782 -1.1845  0.3158  0.6055
24926WAT     H2 1510   3.259   8.038   7.774 -1.1442  0.3209 -0.1997
24926WAT    EPW 1511   3.328   8.077   7.738 -0.6850  0.0858  0.3994
24927WAT      O 1512   4.336   8.860   4.594  0.9582 -0.4697 -0.2727
24927WAT     H1 1513   4.253   8.877   4.638  1.1865  0.9907 -0.3657
24927WAT     H2 1514   4.402   8.881   4.659  1.2877  1.3439 -1.1240
24927WAT    EPW 1515   4.333   8.865   4.608  1.0319 -0.0377 -0.3972
24928WAT      O 1516  -1.783   0.555   5.262 -0.3679  0.2362 -0.7559
24928WAT     H1 1517  -1.757   0.462   5.261 -1.6651 -0.1642  0.0364
24928WAT     H2 1518  -1.749   0.590   5.180  3.0804 -0.0750  0.3955
24928WAT    EPW 1519  -1.775   0.547   5.251 -0.0842  0.1423 -0.4995
24929WAT      O 1520   0.760   7.341   2.561  0.4824  0.7473 -0.1758
24929WAT     H1 1521   0.672   7.371   2.584  1.4042  2.5415  1.3987
24929WAT     H2 1522   0.746   7.270   2.499 -2.2038 -1.2144  2.3561
24929WAT    EPW 1523   0.747   7.336   2.556  0.2497  0.7250  0.3657
24930WAT      O 1524   6.218   3.791   0.979  0.0337 -0.3879 -0.3516
24930WAT     H1 1525   6.158   3.756   1.045 -0.9554 -0.4451 -1.2448
24930WAT     H2 1526   6.239   3.717   0.922  0.9999 -0.3764 -0.0212
24930WAT    EPW 1527   6.212   3.777   0.980  0.0308 -0.3940 -0.4258
24931WAT      O 1528   8.936   4.109  -0.025  0.0928  0.6379 -0.3371
24931WAT     H1 1529   8.957   4.033   0.029 -0.0859  0.2014 -0.8697
24931WAT     H2 1530   8.953   4.185   0.031  0.3858  0.2067  0.1580
24931WAT    EPW 1531   8.941   4.109  -0.011  0.1082  0.5236 -0.3421
24932WAT      O 1532   6.441   6.999   1.727  0.2007 -0.3064  0.2534
24932WAT     H1 1533   6.511   6.940   1.756  0.2463 -0.3590  0.0392
24932WAT     H2 1534   6.364   6.943   1.719 -0.4386  0.1284  2.5828
24932WAT    EPW 1535   6.440   6.983   1.730  0.1225 -0.2561  0.5324
24933WAT      O 1536   6.781   7.598   0.937 -0.0361  0.0100  0.0264
24933WAT     H1 1537   6.794   7.593   1.032  0.9480 -3.1500 -0.1591
24933WAT     H2 1538   6.710   7.662   0.926 -1.3084 -0.7070  3.0048
24933WAT    EPW 1539   6.774   7.606   0.948 -0.0741 -0.5014  0.3948
24934WAT      O 1540   0.981   4.553   0.973  1.0511 -0.6329  0.0348
24934WAT     H1 1541   1.004   4.612   1.045 -0.2382 -1.4982  1.2022
24934WAT     H2 1542   0.893   4.522   0.995  0.2369 -0.2172 -2.3916
24934WAT    EPW 1543   0.973   4.557   0.986  0.7736 -0.6921 -0.1312
24935WAT      O 1544   3.511   2.958   4.679  0.3437  0.1991  0.1141
24935WAT     H1 1545   3.457   2.880   4.694 -2.2394  1.7397 -0.5381
24935WAT     H2 1546   3.507   3.007   4.761  0.3259  0.5791 -0.1119
24935WAT    EPW 1547   3.503   2.954   4.691  0.0006  0.4524 -0.0017
24936WAT      O 1548   2.881   6.632   5.041 -0.3250 -0.5450  0.5302
24936WAT     H1 1549   2.942   6.590   4.980  1.3219  1.3558  0.7638
24936WAT     H2 1550   2.795   6.599   5.015 -0.1135  1.8844 -4.4881
24936WAT    EPW 1551   2.878   6.622   5.029 -0.0800  0.0262 -0.1006
24937WAT      O 1552   5.701   2.914   0.634 -0.5771 -0.1020  0.0220
24937WAT     H1 1553   5.762   2.846   0.605  0.8124  0.9250  0.4089
24937WAT     H2 1554   5.646   2.931   0.558 -0.8265 -1.5111 -0.1368
24937WAT    EPW 1555   5.702   2.907   0.620 -0.4268 -0.1525  0.0521
24938WAT      O 1556  -0.847   2.081   5.973 -0.3627 -0.2511 -1.1698
24938WAT     H1 1557  -0.772   2.026   5.997 -0.7466 -0.5709 -0.6722
24938WAT     H2 1558  -0.808   2.160   5.936  0.2683  0.1929  0.3400
24938WAT    EPW 1559  -0.832   2.084   5.972 -0.3301 -0.2347 -0.9050
24939WAT      O 1560   1.782   2.760   0.570  0.4530  0.4402  0.0559
24939WAT     H1 1561   1.725   2.691   0.537  1.9834 -0.0392 -1.7707
24939WAT     H2 1562   1.724   2.835   0.583 -0.9732 -0.7153  0.6125
24939WAT    EPW 1563   1.767   2.761   0.568  0.4667  0.2246 -0.1116
24940WAT      O 1564  -4.928   6.187   8.136  0.1626 -0.1171  0.0193
24940WAT     H1 1565  -4.867   6.153   8.201  0.8910 -0.2131 -0.6891
24940WAT     H2 1566  -4.913   6.132   8.059  0.0230  0.6181 -0.5418
24940WAT    EPW 1567  -4.918   6.175   8.134  0.2403 -0.0329 -0.1483
24941WAT      O 1568   0.229   3.141   2.551  0.3137  0.4809 -0.2938
24941WAT     H1 1569   0.147   3.165   2.509  0.2910  0.3806 -0.3068
24941WAT     H2 1570   0.274   3.086   2.487 -0.8198 -1.8051  0.7506
24941WAT    EPW 1571   0.224   3.137   2.537  0.1612  0.1662 -0.1578
24942WAT      O 1572  -1.868   3.157   2.985  0.6471 -0.5747 -0.0406
24942WAT     H1 1573  -1.942   3.170   2.926  0.3624  0.6619  0.5477
24942WAT     H2 1574  -1.804   3.222   2.957 -0.0029  0.9441  1.7516
24942WAT    EPW 1575  -1.870   3.167   2.974  0.5238 -0.2112  0.2735
24943WAT      O 1576   2.106   7.319   6.471 -1.0687 -0.0859 -0.1644
24943WAT     H1 1577   2.030   7.264   6.450 -1.3838 -0.8771  2.5549
24943WAT     H2 1578   2.070   7.385   6.530  0.5601 -1.6613  2.8220
24943WAT    EPW 1579   2.091   7.320   6.476 -0.8955 -0.3979  0.5884
24944WAT      O 1580   6.156   3.765   0.181  0.4631 -0.1895 -0.5063
24944WAT     H1 1581   6.113   3.851   0.182  0.8229  0.0094  1.1770
24944WAT     H2 1582   6.183   3.751   0.271  0.7811 -1.9118 -0.8321
24944WAT    EPW 1583   6.154   3.775   0.193  0.5527 -0.3903 -0.3272
24945WAT      O 1584  -1.061   1.009   8.563  0.2948  0.7686 -0.0281
24945WAT     H1 1585  -1.156   0.997   8.564  0.0780  2.2289 -0.3570
24945WAT     H2 1586  -1.026   0.923   8.537 -0.9976  0.5167 -1.0625
24945WAT    EPW 1587  -1.069   0.996   8.559  0.0957  0.9280 -0.2079
24946WAT      O 1588   7.338   0.094   5.849 -0.3917  0.4340 -0.5902
24946WAT     H1 1589   7.370   0.150   5.777  0.6813  0.6515  0.0279
24946WAT     H2 1590   7.296   0.020   5.805 -0.5386  1.0123 -1.4356
24946WAT    EPW 1591   7.337   0.092   5.833 -0.2697  0.5389 -0.6201
24947WAT      O 1592   4.311   5.433   1.229 -0.0451  0.5480 -0.6015
24947WAT     H1 1593   4.274   5.365   1.285  0.7664 -0.9765 -1.8422
24947WAT     H2 1594   4.243   5.449   1.163  0.8225 -1.1717 -1.9913
24947WAT    EPW 1595   4.297   5.426   1.228  0.1762  0.1199 -0.9484
24948WAT      O 1596   1.916   6.437   2.161 -0.2616  0.5147 -0.2792
24948WAT     H1 1597   1.885   6.482   2.240 -2.1540  0.6213 -1.0304
24948WAT     H2 1598   1.922   6.507   2.095 -0.7752  0.1008 -0.7763
24948WAT    EPW 1599   1.913   6.452   2.163 -0.5789  0.4742 -0.4439
24949WAT      O 1600   0.528   4.436   2.534  0.2721 -0.1010 -0.2082
24949WAT     H1 1601   0.603   4.443   2.592  0.3035  0.1413 -0.2751
24949WAT     H2 1602   0.541   4.505   2.469 -0.4068  0.4767  0.2455
24949WAT    EPW 1603   0.540   4.446   2.533  0.1867  0.0072 -0.1572
24950WAT      O 1604   5.044   9.986   3.908 -0.3965 -0.1845 -0.0809
24950WAT     H1 1605   5.116   9.975   3.846  0.0830  0.5115  0.3350
24950WAT     H2 1606   5.004  10.069   3.882  0.2721  0.4918  0.9815
24950WAT    EPW 1607   5.048   9.996   3.896 -0.2451 -0.0038  0.1140
24951WAT      O 1608   6.312   6.562   3.064  0.1223  0.4660 -0.2395
24951WAT     H1 1609   6.235   6.612   3.040 -1.7081 -0.7447  2.6155
24951WAT     H2 1610   6.289   6.471   3.045  0.9757  0.1192  0.3031
24951WAT    EPW 1611   6.299   6.557   3.058 -0.0064  0.2606  0.2086
24952WAT      O 1612  -3.319   4.778   4.639  0.5936  0.4707 -0.1245
24952WAT     H1 1613  -3.357   4.780   4.726 -1.4402  3.8162 -0.8899
24952WAT     H2 1614  -3.279   4.865   4.628  0.2189  0.4141 -2.6986
24952WAT    EPW 1615  -3.319   4.790   4.649  0.2760  0.9043 -0.5651
24953WAT      O 1616  -2.174   2.529   7.131 -0.0598  0.2016  0.4084
24953WAT     H1 1617  -2.116   2.590   7.086  2.0013  0.5606  3.2283
24953WAT     H2 1618  -2.132   2.444   7.122 -0.9339 -0.1656 -0.3539
24953WAT    EPW 1619  -2.161   2.526   7.124  0.0968  0.2005  0.6797
24954WAT      O 1620   3.450   8.614   6.987  0.6471 -0.1300 -0.1535
24954WAT     H1 1621   3.393   8.555   7.035 -0.2826 -0.3117 -1.4259
24954WAT     H2 1622   3.537   8.600   7.025 -0.0367 -0.2228  1.4757
24954WAT    EPW 1623   3.454   8.605   6.998  0.4344 -0.1659 -0.1066
24955WAT      O 1624  -2.386   9.744   6.149  0.4817  0.5369 -0.8632
24955WAT     H1 1625  -2.296   9.776   6.159  0.5741  0.2391 -0.7431
24955WAT     H2 1626  -2.421   9.744   6.238  0.7850 -0.5801 -0.7291
24955WAT    EPW 1627  -2.378   9.748   6.162  0.5339  0.3505 -0.8297
24956WAT      O 1628  -2.885   4.950   8.935  0.1363 -0.4845 -0.0528
24956WAT     H1 1629  -2.960   4.937   8.877 -1.7237  0.6282  1.9275
24956WAT     H2 1630  -2.891   4.880   8.999  0.7775 -0.3810  0.1272
24956WAT    EPW 1631  -2.896   4.939   8.936 -0.0243 -0.3242  0.2317
24957WAT      O 1632   4.602   1.645   3.085 -0.1257 -0.3703 -0.2388
24957WAT     H1 1633   4.582   1.559   3.048 -3.5297  0.0076  0.4180
24957WAT     H2 1634   4.598   1.704   3.010  1.7325 -0.6262 -0.6039
24957WAT    EPW 1635   4.599   1.641   3.070 -0.3295 -0.3542 -0.2004
24958WAT      O 1636   3.859   4.797   0.048 -0.1059  0.0241 -0.3539
24958WAT     H1 1637   3.919   4.865   0.015 -0.4344  0.1707 -0.6600
24958WAT     H2 1638   3.777   4.813   0.000 -0.1304 -0.7005 -0.5656
24958WAT    EPW 1639   3.856   4.808   0.037 -0.1525 -0.0520 -0.4222
24959WAT      O 1640  -2.045   1.063   5.488  0.4895 -0.0481  0.1335
24959WAT     H1 1641  -2.115   1.007   5.520  1.1736 -0.6789  0.5472
24959WAT     H2 1642  -2.030   1.126   5.559 -0.2575  0.6629 -0.3184
24959WAT    EPW 1643  -2.052   1.064   5.502  0.4812 -0.0376  0.1283
24960WAT      O 1644   1.272   6.997   4.542  0.0772  0.7469 -0.3154
24960WAT     H1 1645   1.334   6.949   4.597 -0.8704  3.2735  3.3133
24960WAT     H2 1646   1.324   7.029   4.469  1.4504 -2.6874 -1.0526
24960WAT    EPW 1647   1.287   6.995   4.540  0.1333  0.6273  0.0660
24961WAT      O 1648   0.126   6.401   3.352  0.5818  0.5333 -0.4902
24961WAT     H1 1649   0.165   6.317   3.377 -1.0411  0.0222  0.5039
24961WAT     H2 1650   0.089   6.385   3.265 -1.0647 -0.3264  0.3056
24961WAT    EPW 1651   0.126   6.388   3.344  0.1506  0.3526 -0.2540
24962WAT      O 1652  -2.775   7.371   8.636 -0.3277  0.3975 -0.6807
24962WAT     H1 1653  -2.827   7.451   8.623 -1.3466 -0.0447  0.4247
24962WAT     H2 1654  -2.757   7.340   8.548 -3.9851 -0.6764 -1.2403
24962WAT    EPW 1655  -2.780   7.378   8.623 -0.9445  0.1974 -0.6089
24963WAT      O 1656   5.237   3.361   2.171  0.4274  0.7559 -0.4781
24963WAT     H1 1657   5.277   3.448   2.180 -1.0164  1.4677 -0.7513
24963WAT     H2 1658   5.152   3.378   2.131  0.4446 -0.8749 -1.2760
24963WAT    EPW 1659   5.231   3.375   2.167  0.2389  0.6347 -0.6193
24964WAT      O 1660  -2.308   6.816   1.437 -0.0839  0.8788  0.0429
24964WAT     H1 1661  -2.311   6.911   1.434  1.4830  0.9842  0.9841
24964WAT     H2 1662  -2.219   6.793   1.409 -0.7560 -0.3723 -1.1931
24964WAT    EPW 1663  -2.297   6.825   1.433  0.0341  0.7279  0.0040
24965WAT      O 1664  -2.185   8.634   3.984 -0.0314 -0.2387 -0.0421
24965WAT     H1 1665  -2.259   8.597   4.031  0.0536 -1.7062 -0.9954
24965WAT     H2 1666  -2.112   8.626   4.045 -0.2633 -0.5503  0.1963
24965WAT    EPW 1667  -2.185   8.628   3.998 -0.0507 -0.4735 -0.1364
24966WAT      O 1668  -0.208   8.169   1.414  0.1131 -0.5408 -0.3125
24966WAT     H1 1669  -0.243   8.145   1.500 -1.1140 -1.1519 -0.9387
24966WAT     H2 1670  -0.161   8.091   1.385  1.4480  0.0456  0.2446
24966WAT    EPW 1671  -0.207   8.156   1.421  0.1273 -0.5436 -0.3216
24967WAT      O 1672   4.710   4.899   2.070  0.1256 -0.3165 -0.4389
24967WAT     H1 1673   4.695   4.994   2.068  0.6002 -0.2467 -1.4004
24967WAT     H2 1674   4.661   4.868   2.146 -1.7514  0.3951 -1.3137
24967WAT    EPW 1675   4.702   4.908   2.080 -0.0596 -0.2134 -0.6812
24968WAT      O 1676  -3.775   6.441   2.986 -0.2670  0.0708 -0.5263
24968WAT     H1 1677  -3.716   6.477   3.052 -2.8329  0.9144  1.4947
24968WAT     H2 1678  -3.795   6.515   2.929 -0.6969  0.2609 -0.1389
24968WAT    EPW 1679  -3.770   6.456   2.988 -0.6621  0.2069 -0.2087
24969WAT      O 1680  -3.430   8.363   3.817  0.1859  0.1721 -0.7449
24969WAT     H1 1681  -3.479   8.334   3.740 -0.3838  1.0179 -0.7188
24969WAT     H2 1682  -3.342   8.326   3.804  0.1341  0.3787 -1.8595
24969WAT    EPW 1683  -3.425   8.355   3.805  0.1040  0.3109 -0.8886
24970WAT      O 1684   6.344   6.743   2.012  0.1890  0.0325  0.0358
24970WAT     H1 1685   6.354   6.741   2.107  0.2086  1.2273  0.0707
24970WAT     H2 1686   6.300   6.661   1.991  0.8007 -0.5602  0.9963
24970WAT    EPW 1687   6.340   6.732   2.022  0.2725  0.1118  0.1671
24971WAT      O 1688   6.566   5.990   3.367  0.0805  0.4911 -0.5958
24971WAT     H1 1689   6.598   6.078   3.387 -1.0326  0.7102  0.3026
24971WAT     H2 1690   6.489   5.978   3.423 -0.1265 -0.8432 -1.1091
24971WAT    EPW 1691   6.560   6.000   3.377 -0.0937  0.3440 -0.5450
24972WAT      O 1692   5.786   8.709   1.991  0.0709 -0.3459  0.0507
24972WAT     H1 1693   5.842   8.787   1.994  0.2966 -0.2639 -2.8714
24972WAT     H2 1694   5.699   8.744   1.972 -0.3326 -0.6877  1.2144
24972WAT    EPW 1695   5.782   8.724   1.989  0.0474 -0.3800 -0.1812
24973WAT      O 1696   4.899   0.003   5.630  0.1029  0.2931 -0.1138
24973WAT     H1 1697   4.991   0.011   5.605  0.0077 -0.9298 -0.9675
24973WAT     H2 1698   4.852  -0.009   5.547 -0.7534  0.3264  0.3505
24973WAT    EPW 1699   4.905   0.002   5.616 -0.0226  0.1359 -0.1650
24974WAT      O 1700   2.138   1.226   2.113  0.6265  0.0451 -0.1074
24974WAT     H1 1701   2.121   1.295   2.177 -1.8028  0.3739 -0.9942
24974WAT     H2 1702   2.233   1.216   2.113  0.8460  1.4481  2.0370
24974WAT    EPW 1703   2.148   1.234   2.122  0.3350  0.2736  0.0585
24975WAT      O 1704   1.215   7.553   5.529  0.1879  0.1751 -0.8146
24975WAT     H1 1705   1.233   7.510   5.613 -0.4628  0.6072 -0.4433
24975WAT     H2 1706   1.283   7.521   5.471  1.2006  0.5583  0.1228
24975WAT    EPW 1707   1.226   7.543   5.533  0.2357  0.2828 -0.6421
24976WAT      O 1708   0.479   2.527   7.579 -0.5371  0.1490  0.2090
24976WAT     H1 1709   0.559   2.475   7.578  0.3379  1.3596  1.7260
24976WAT     H2 1710   0.462   2.546   7.486  3.2316  3.1159 -0.1482
24976WAT    EPW 1711   0.487   2.523   7.566  0.0754  0.7000  0.3622
24977WAT      O 1712  -1.767   4.212   1.004  0.3856  0.6021  0.5854
24977WAT     H1 1713  -1.733   4.286   0.955  4.3901 -0.1916  1.7836
24977WAT     H2 1714  -1.733   4.224   1.093 -0.7547 -1.5157  1.3946
24977WAT    EPW 1715  -1.758   4.223   1.009  0.7634  0.2182  0.8501
24978WAT      O 1716  -3.009   6.140   5.155  0.1539 -0.2728  0.0649
24978WAT     H1 1717  -3.070   6.163   5.085  0.7853 -0.1077 -0.4316
24978WAT     H2 1718  -2.985   6.224   5.195  0.2609 -0.3155  0.0904
24978WAT    EPW 1719  -3.014   6.154   5.151  0.2513 -0.2568  0.0026
24979WAT      O 1720   3.651   3.375   4.231 -0.4627 -0.5179  0.0121
24979WAT     H1 1721   3.646   3.438   4.160  1.4247 -0.6565 -0.2932
24979WAT     H2 1722   3.695   3.423   4.302 -2.9815 -0.1275  1.4411
24979WAT    EPW 1723   3.656   3.390   4.231 -0.5459 -0.4846  0.1602
24980WAT      O 1724   2.812   7.794   4.203  0.0739  0.1253 -0.1157
24980WAT     H1 1725   2.850   7.778   4.117 -0.7882 -0.5032 -0.3893
24980WAT     H2 1726   2.878   7.764   4.265  0.3149 -0.2915 -0.5745
24980WAT    EPW 1727   2.825   7.788   4.200 -0.0080 -0.0126 -0.2122
24981WAT      O 1728  -2.642   6.888   6.583  0.1337  0.3785  0.2017
24981WAT     H1 1729  -2.725   6.852   6.550  1.5023 -1.7918 -1.1348
24981WAT     H2 1730  -2.642   6.865   6.676 -0.8628  0.6271  0.2791
24981WAT    EPW 1731  -2.653   6.880   6.591  0.1829  0.1247  0.0358
24982WAT      O 1732   1.009   6.363   7.120  1.2862  0.3650  0.0612
24982WAT     H1 1733   1.003   6.433   7.055  1.2555 -1.2468 -1.7444
24982WAT     H2 1734   0.939   6.383   7.183  0.6008  1.3764 -0.9869
24982WAT    EPW 1735   0.999   6.375   7.120  1.1917  0.2859 -0.3150
24983WAT      O 1736   8.621   0.289   2.146  0.1675 -0.3394 -0.1447
24983WAT     H1 1737   8.635   0.377   2.111 -2.5528  1.1092  1.9752
24983WAT     H2 1738   8.591   0.238   2.071  0.7792  0.8034 -1.2142
24983WAT    EPW 1739   8.619   0.294   2.132 -0.1101  0.0024 -0.0061
24984WAT      O 1740   6.538   8.627   0.249 -0.4011  0.0339 -0.4412
24984WAT     H1 1741   6.475   8.646   0.180  1.0631 -0.6427 -2.0573
24984WAT     H2 1742   6.613   8.682   0.229  1.5007 -2.7406 -1.6651
24984WAT    EPW 1743   6.540   8.636   0.238  0.0427 -0.4210 -0.8158
24985WAT      O 1744   2.215   1.908   1.792  0.3814  0.3029  1.0448
24985WAT     H1 1745   2.285   1.959   1.752 -0.5087  1.0411  0.4098
24985WAT     H2 1746   2.222   1.927   1.886  1.5102 -0.2511  1.0946
24985WAT    EPW 1747   2.225   1.917   1.799  0.4128  0.3272  0.9677
24986WAT      O 1748   6.515   9.577   0.940 -0.2398  0.2936 -0.3589
24986WAT     H1 1749   6.435   9.608   0.897 -1.1591 -2.3910 -0.7957
24986WAT     H2 1750   6.554   9.655   0.978 -4.6090  1.4351  2.5060
24986WAT    EPW 1751   6.510   9.591   0.939 -0.9375  0.0901 -0.0386
24987WAT      O 1752  -1.517   1.733   8.336  0.1494  0.2949  0.8641
24987WAT     H1 1753  -1.457   1.799   8.372  0.3528 -0.2140  1.4846
24987WAT     H2 1754  -1.583   1.720   8.404 -1.6518  2.0235 -0.4480
24987WAT    EPW 1755  -1.517   1.740   8.349 -0.0613  0.4558  0.7730
24988WAT      O 1756  -0.765   1.238   5.593  0.7146 -0.1841 -0.9118
24988WAT     H1 1757  -0.854   1.206   5.584  0.2859  1.4467 -3.4546
24988WAT     H2 1758  -0.753   1.250   5.687 -1.9908  0.2480 -0.5499
24988WAT    EPW 1759  -0.775   1.235   5.604  0.3012  0.0880 -1.1995
24989WAT      O 1760   0.199   0.924   2.559 -0.2120 -0.5165  0.0607
24989WAT     H1 1761   0.199   0.833   2.528 -1.5175  0.2877 -2.7075
24989WAT     H2 1762   0.112   0.957   2.535  0.4627  1.6415  0.3587
24989WAT    EPW 1763   0.188   0.916   2.552 -0.2952 -0.1258 -0.2651
24990WAT      O 1764  -2.271   0.899   5.502  0.3688 -0.2048  0.4023
24990WAT     H1 1765  -2.297   0.946   5.422  1.8309  0.2480  0.1558
24990WAT     H2 1766  -2.337   0.831   5.512 -0.3031  0.2371 -0.7406
24990WAT    EPW 1767  -2.283   0.896   5.493  0.4731 -0.0868  0.2189
24991WAT      O 1768   4.030   4.353   7.284 -0.0205 -0.4522  0.0519
24991WAT     H1 1769   3.954   4.310   7.323  1.8761 -2.9348  1.2349
24991WAT     H2 1770   3.993   4.429   7.239 -3.6974 -3.3071 -2.3559
24991WAT    EPW 1771   4.015   4.358   7.283 -0.2551 -1.1561 -0.1097
24992WAT      O 1772   2.046   7.914   1.464 -0.2127  0.2306  0.1381
24992WAT     H1 1773   2.051   7.960   1.381  0.5780 -0.7503 -0.3788
24992WAT     H2 1774   2.086   7.829   1.447  0.0244  0.0337  1.5333
24992WAT    EPW 1775   2.052   7.909   1.451 -0.0771  0.0753  0.2540
24993WAT      O 1776   3.235   3.804   3.170  0.3517 -0.7372  0.4296
24993WAT     H1 1777   3.300   3.826   3.236  1.4115  0.1657 -0.8538
24993WAT     H2 1778   3.158   3.857   3.193  1.4489  1.2730 -0.2294
24993WAT    EPW 1779   3.233   3.814   3.182  0.6362 -0.3530  0.1734
24994WAT      O 1780   4.761  10.036   0.048  0.6807 -0.1087  0.8379
24994WAT     H1 1781   4.709   9.978   0.103  1.7294 -0.4615  1.4656
24994WAT     H2 1782   4.725  10.123   0.064 -1.5572 -0.6253 -0.8418
24994WAT    EPW 1783   4.749  10.040   0.057  0.5240 -0.2232  0.6991
24995WAT      O 1784   2.122   1.195   0.916  0.0081 -0.6174  0.6053
24995WAT     H1 1785   2.096   1.234   0.833  2.3251 -0.9427 -0.3727
24995WAT     H2 1786   2.046   1.205   0.973 -2.3537 -1.9873 -2.0512
24995WAT    EPW 1787   2.109   1.201   0.912  0.0021 -0.8410  0.1259
24996WAT      O 1788   6.398   7.758   1.624  0.3018 -0.6978  0.6025
24996WAT     H1 1789   6.410   7.663   1.623  1.9357 -0.5314  0.4973
24996WAT     H2 1790   6.481   7.791   1.658  0.6343  0.7938 -1.4645
24996WAT    EPW 1791   6.411   7.750   1.629  0.5612 -0.4792  0.3160
24997WAT      O 1792   3.565   8.841   1.828  0.6285  1.0120  0.5742
24997WAT     H1 1793   3.585   8.786   1.752 -0.1325 -2.9499  2.9678
24997WAT     H2 1794   3.503   8.906   1.796  0.0145 -0.7586 -2.0958
24997WAT    EPW 1795   3.560   8.843   1.814  0.4472  0.2561  0.5378
24998WAT      O 1796   4.531   3.610   4.457  0.5300  0.5443  0.5445
24998WAT     H1 1797   4.456   3.638   4.509  0.4596 -0.1602  0.8346
24998WAT     H2 1798   4.583   3.555   4.517  2.0738  2.2304  0.8336
24998WAT    EPW 1799   4.528   3.606   4.472  0.7241  0.6738  0.6208
24999WAT      O 1800  -8.052   8.394   8.717  0.4310 -0.1350 -0.4789
24999WAT     H1 1801  -8.053   8.362   8.807  1.3284  1.0889 -0.0084
24999WAT     H2 1802  -8.099   8.327   8.667 -3.0677  0.6899  1.3761
24999WAT    EPW 1803  -8.058   8.381   8.722  0.0882  0.1354 -0.1721
25000WAT      O 1804   0.866   0.275   5.487 -1.2203 -0.0345  0.0077
25000WAT     H1 1805   0.851   0.360   5.529  0.4412  0.3028  0.0080
25000WAT     H2 1806   0.858   0.293   5.394 -2.9872 -0.3694  0.0596
25000WAT    EPW 1807   0.863   0.289   5.480 -1.2342 -0.0342  0.0148
25001WAT      O 1808   2.217   7.951   3.123 -0.4082 -0.2217 -0.2853
25001WAT     H1 1809   2.147   7.994   3.172 -2.9243 -3.7557 -0.4127
25001WAT     H2 1810   2.194   7.964   3.031 -0.4815 -0.7455 -0.3445
25001WAT    EPW 1811   2.205   7.958   3.117 -0.7497 -0.7570 -0.3098
25002WAT      O 1812   3.525   1.125   8.924 -0.0350 -0.3246 -0.0703
25002WAT     H1 1813   3.476   1.045   8.943 -1.4855  0.6626  0.5838
25002WAT     H2 1814   3.533   1.126   8.828 -1.1868 -0.5924 -0.1818
25002WAT    EPW 1815   3.519   1.115   8.914 -0.3783 -0.2297  0.0014
25003WAT      O 1816   5.274   6.927   1.625  0.1275  0.3324 -0.2954
25003WAT     H1 1817   5.212   6.903   1.694  0.4469 -1.6382 -0.6427
25003WAT     H2 1818   5.295   6.844   1.582  0.9957  1.3311 -1.8809
25003WAT    EPW 1819   5.268   6.913   1.628  0.2842  0.2043 -0.5503
25004WAT      O 1820   2.649   8.131   4.336 -0.3869  0.0047  0.4242
25004WAT     H1 1821   2.673   8.052   4.383  1.7778  1.4460  1.9447
25004WAT     H2 1822   2.569   8.162   4.379 -2.5764 -2.3618 -1.5996
25004WAT    EPW 1823   2.642   8.125   4.348 -0.3902 -0.1173  0.3579
25005WAT      O 1824   0.963   8.443   6.415 -0.1002  0.3359  0.0623
25005WAT     H1 1825   0.974   8.418   6.507 -1.8396 -2.1870 -0.3332
25005WAT     H2 1826   1.030   8.393   6.368 -0.8967 -0.3822 -0.3122
25005WAT    EPW 1827   0.974   8.433   6.421 -0.4347 -0.0911 -0.0393
25006WAT      O 1828  -0.581   8.243   3.469 -0.0106  0.5302 -0.3483
25006WAT     H1 1829  -0.542   8.293   3.398  2.7922 -1.7387 -0.6020
25006WAT     H2 1830  -0.533   8.270   3.547  1.9239 -1.9295 -0.5725
25006WAT    EPW 1831  -0.570   8.253   3.470  0.6142 -0.0935 -0.4114
25007WAT      O 1832   5.300   2.406   7.869 -0.5684 -0.3191  0.1595
25007WAT     H1 1833   5.279   2.327   7.919 -1.5266 -1.1187 -1.4447
25007WAT     H2 1834   5.307   2.474   7.936  0.1585 -1.7060  1.5740
25007WAT    EPW 1835   5.298   2.405   7.884 -0.5987 -0.6075  0.1345
25008WAT      O 1836  -0.778   1.412   1.256  0.1777 -0.1130 -0.5425
25008WAT     H1 1837  -0.772   1.372   1.343 -2.6357  1.3648  0.4672
25008WAT     H2 1838  -0.701   1.380   1.209  1.9905 -0.7209  2.5778
25008WAT    EPW 1839  -0.767   1.402   1.261  0.0457  0.0017  0.0022
25009WAT      O 1840  -2.427   5.949   1.453  0.1612  0.3903 -0.0182
25009WAT     H1 1841  -2.413   5.855   1.454  1.0400  0.5127 -0.1216
25009WAT     H2 1842  -2.397   5.979   1.538 -1.8996  0.3560  0.7709
25009WAT    EPW 1843  -2.422   5.941   1.464  0.0054  0.4020  0.0723
25010WAT      O 1844   3.534   5.882   1.617 -0.1961  0.2987 -0.5511
25010WAT     H1 1845   3.561   5.951   1.677 -0.0285 -0.8906  0.8054
25010WAT     H2 1846   3.458   5.918   1.571  0.3676  1.6541 -0.4459
25010WAT    EPW 1847   3.528   5.896   1.619 -0.0997  0.3207 -0.3583
25011WAT      O 1848  -4.648   3.837   7.751  0.5887  0.1670 -0.9350
25011WAT     H1 1849  -4.655   3.752   7.708 -0.2938  0.3844 -1.2402
25011WAT     H2 1850  -4.731   3.848   7.798  0.8752  0.6611 -0.5283
25011WAT    EPW 1851  -4.660   3.827   7.752  0.5102  0.2609 -0.9217
25012WAT      O 1852   2.203   6.357   3.498 -0.2513 -0.0064  0.1679
25012WAT     H1 1853   2.221   6.390   3.586  0.8780 -0.0102 -0.0496
25012WAT     H2 1854   2.134   6.293   3.511  0.4971 -0.6466  1.1859
25012WAT    EPW 1855   2.196   6.353   3.512 -0.0037 -0.0913  0.2735
25013WAT      O 1856  -3.685   9.450   3.128 -0.0982  0.3889 -0.3797
25013WAT     H1 1857  -3.751   9.519   3.126 -2.2730 -1.4783  0.9299
25013WAT     H2 1858  -3.608   9.491   3.168 -1.0030  2.2384 -0.4193
25013WAT    EPW 1859  -3.684   9.464   3.133 -0.5044  0.3867 -0.2122
25014WAT      O 1860   5.438   3.324   6.427  0.2787 -0.5377 -0.0523
25014WAT     H1 1861   5.533   3.320   6.433  0.2263 -2.1820  5.1134
25014WAT     H2 1862   5.414   3.402   6.477 -1.1109 -0.6136 -0.5439
25014WAT    EPW 1863   5.447   3.334   6.435  0.0885 -0.7646  0.5643
25015WAT      O 1864  -5.260   9.347   3.801  0.1014  1.1915 -0.2371
25015WAT     H1 1865  -5.319   9.366   3.728  2.1423 -0.5739 -2.4978
25015WAT     H2 1866  -5.287   9.260   3.832  0.3439  1.1919 -0.0178
25015WAT    EPW 1867  -5.271   9.338   3.796  0.4027  0.9584 -0.5063
25016WAT      O 1868  -2.293   8.843   0.391 -1.0317  0.3670  0.2169
25016WAT     H1 1869  -2.208   8.875   0.420 -1.2807 -1.3123  3.2523
25016WAT     H2 1870  -2.351   8.859   0.466 -2.2490 -2.6110  0.0371
25016WAT    EPW 1871  -2.290   8.849   0.405 -1.2250 -0.2475  0.5935
25017WAT      O 1872   0.913   9.616   4.407 -0.8132  0.1394  0.5847
25017WAT     H1 1873   0.850   9.629   4.336 -2.2705  1.6560  2.0607
25017WAT     H2 1874   0.872   9.656   4.484  1.2681 -0.2605  2.0080
25017WAT    EPW 1875   0.900   9.623   4.408 -0.7309  0.2866  0.9670
25018WAT      O 1876   2.723   1.476   1.085 -0.2623 -0.3634  0.2533
25018WAT     H1 1877   2.661   1.533   1.041 -2.1352 -2.7861 -0.4613
25018WAT     H2 1878   2.802   1.478   1.030 -2.0419 -2.2305 -2.6149
25018WAT    EPW 1879   2.725   1.484   1.072 -0.7440 -0.9292 -0.2192
25019WAT      O 1880   1.872   6.949   2.210  0.2462 -0.3886  0.6648
25019WAT     H1 1881   1.884   6.980   2.300  0.4759 -2.2743  1.3426
25019WAT     H2 1882   1.916   7.014   2.156  0.5124  0.5487  1.9534
25019WAT    EPW 1883   1.880   6.961   2.215  0.3116 -0.5136  0.9241
25020WAT      O 1884  -3.795   3.899   7.104 -0.7296  0.3181 -0.2651
25020WAT     H1 1885  -3.796   3.809   7.138 -1.9539  1.3875  2.9121
25020WAT     H2 1886  -3.702   3.920   7.095 -0.4245 -1.2295 -1.1241
25020WAT    EPW 1887  -3.783   3.890   7.107 -0.8509  0.2550  0.0405
25021WAT      O 1888   4.625   3.161   5.284  0.0649  0.0228  0.5142
25021WAT     H1 1889   4.699   3.208   5.321 -0.0332 -0.2170  1.0201
25021WAT     H2 1890   4.558   3.228   5.272  0.6037  0.3933 -0.6579
25021WAT    EPW 1891   4.626   3.176   5.287  0.1230  0.0399  0.4265
25022WAT      O 1892  -5.478   9.093   4.399 -0.1143  0.9036  0.1007
25022WAT     H1 1893  -5.455   9.091   4.492  0.6320 -0.3691 -0.0915
25022WAT     H2 1894  -5.523   9.010   4.383 -1.4421  1.6788 -0.4073
25022WAT    EPW 1895  -5.481   9.082   4.409 -0.1907  0.8383  0.0083
25023WAT      O 1896  -0.200   4.447   3.508  0.8325  0.0189 -0.3452
25023WAT     H1 1897  -0.271   4.489   3.460  1.4653  1.1908 -0.3004
25023WAT     H2 1898  -0.187   4.503   3.585  0.7397 -1.0815  0.4899
25023WAT    EPW 1899  -0.208   4.460   3.511  0.9037  0.0284 -0.2291
25024WAT      O 1900   3.430   9.442   3.237  0.9760  0.1430 -0.4144
25024WAT     H1 1901   3.485   9.439   3.315 -2.7177  1.9956  2.6245
25024WAT     H2 1902   3.367   9.370   3.249  0.6182  0.1510 -1.9720
25024WAT    EPW 1903   3.429   9.432   3.249  0.4416  0.3886 -0.2190
25025WAT      O 1904  -0.664   0.805   4.644  0.3239 -0.2575 -0.6488
25025WAT     H1 1905  -0.607   0.818   4.720 -1.3817 -1.2483  0.9051
25025WAT     H2 1906  -0.721   0.733   4.670 -2.0989  1.1246 -1.7873
25025WAT    EPW 1907  -0.664   0.797   4.658 -0.2206 -0.2059 -0.5941
25026WAT      O 1908   4.292  10.331   2.762  1.6055 -0.1219 -0.3993
25026WAT     H1 1909   4.256  10.412   2.799 -1.2109 -1.5277  0.1968
25026WAT     H2 1910   4.339  10.290   2.835 -0.4694 -0.9177  0.5715
25026WAT    EPW 1911   4.294  10.336   2.776  0.9603 -0.4120 -0.1925
25027WAT      O 1912   3.859   8.973   5.441  0.0243  0.4448 -0.1293
25027WAT     H1 1913   3.768   8.999   5.422  0.1639  0.0588 -1.4482
25027WAT     H2 1914   3.854   8.925   5.524 -1.2347 -0.9369 -0.9535
25027WAT    EPW 1915   3.846   8.970   5.449 -0.1233  0.2117 -0.4120
25028WAT      O 1916  -2.462   4.248   6.042  0.4329 -0.1191 -0.0446
25028WAT     H1 1917  -2.437   4.161   6.011 -2.2082 -1.4671  1.2549
25028WAT     H2 1918  -2.456   4.242   6.138  0.7352  1.3472  0.0588
25028WAT    EPW 1919  -2.458   4.236   6.051  0.1245 -0.1035  0.1404
25029WAT      O 1920   3.841   3.155   5.364 -0.0149  0.0114  0.4196
25029WAT     H1 1921   3.839   3.174   5.458  1.2810  1.2494  0.2364
25029WAT     H2 1922   3.934   3.140   5.345 -0.3964 -1.4031 -0.4651
25029WAT    EPW 1923   3.853   3.156   5.374  0.1057 -0.0119  0.2785
25030WAT      O 1924   2.289   7.130   1.829 -0.3814  0.0918  0.0736
25030WAT     H1 1925   2.299   7.224   1.846 -1.0074  0.3142 -0.7290
25030WAT     H2 1926   2.338   7.115   1.749 -0.0177 -0.3346  0.3747
25030WAT    EPW 1927   2.296   7.140   1.821 -0.4160  0.0646  0.0075
25031WAT      O 1928  -0.970   8.974   1.625 -0.2024 -0.3560  0.9480
25031WAT     H1 1929  -0.901   9.031   1.593 -1.0486 -1.0091 -2.3780
25031WAT     H2 1930  -1.038   9.034   1.657 -1.1802  0.7214 -2.6889
25031WAT    EPW 1931  -0.970   8.989   1.625 -0.4430 -0.2999  0.0297
25032WAT      O 1932   2.581   5.409   3.758  0.4332 -0.0239 -0.9322
25032WAT     H1 1933   2.674   5.432   3.751  0.2723  0.6750 -0.8559
25032WAT     H2 1934   2.542   5.444   3.678 -0.1413  1.5988  0.0161
25032WAT    EPW 1935   2.588   5.417   3.746  0.3362  0.2825 -0.7970
25033WAT      O 1936   0.323   7.379   3.916  0.2414  0.6365  0.4656
25033WAT     H1 1937   0.322   7.427   3.999  0.6141 -1.0456  1.4831
25033WAT     H2 1938   0.237   7.336   3.913  0.7066 -0.3186  0.6131
25033WAT    EPW 1939   0.311   7.380   3.927  0.3519  0.2887  0.6193
25034WAT      O 1940  -6.214   6.556   8.000 -0.2115 -0.3567 -0.5054
25034WAT     H1 1941  -6.303   6.572   7.967  0.4089 -0.5783 -2.4619
25034WAT     H2 1942  -6.174   6.643   8.003 -0.4300 -0.2784  0.1848
25034WAT    EPW 1943  -6.221   6.570   7.996 -0.1585 -0.3755 -0.6726
25035WAT      O 1944   0.277   7.900   6.201  0.4790 -0.3510  0.5059
25035WAT     H1 1945   0.278   7.887   6.296 -0.9771  0.8718  0.7313
25035WAT     H2 1946   0.211   7.838   6.169 -0.8984  0.9754  0.6497
25035WAT    EPW 1947   0.269   7.890   6.210  0.1052 -0.0148  0.5548
25036WAT      O 1948   0.695   5.040   5.833  0.1059  1.0570  0.1399
25036WAT     H1 1949   0.611   4.999   5.811  0.5198  0.0428  0.3967
25036WAT     H2 1950   0.747   4.969   5.871  0.9107  1.7880  0.4317
25036WAT    EPW 1951   0.691   5.025   5.835  0.2666  1.0195  0.2122
25037WAT      O 1952   1.991   3.861   5.910 -0.0858  0.0572 -0.1525
25037WAT     H1 1953   2.086   3.850   5.906 -0.0561  0.5566 -1.1714
25037WAT     H2 1954   1.962   3.796   5.973  0.4646 -3.5021 -3.1940
25037WAT    EPW 1955   2.000   3.851   5.918 -0.0093 -0.3464 -0.6881
25038WAT      O 1956  -5.310   1.493   8.453 -0.0104  0.0361 -0.8680
25038WAT     H1 1957  -5.226   1.520   8.416  0.5274  1.5561  1.2497
25038WAT     H2 1958  -5.364   1.573   8.451 -1.3374 -0.8411 -1.9131
25038WAT    EPW 1959  -5.306   1.507   8.448 -0.1144  0.1209 -0.7267
25039WAT      O 1960   0.234   0.579   5.910  0.1464  0.4113 -0.6245
25039WAT     H1 1961   0.209   0.490   5.887  0.7879  0.4794 -1.6252
25039WAT     H2 1962   0.196   0.634   5.841 -1.1982  1.0509  0.5742
25039WAT    EPW 1963   0.226   0.575   5.898  0.0537  0.5046 -0.5982
25040WAT      O 1964  -2.363   6.513   4.993  0.2370  0.0785  0.4308
25040WAT     H1 1965  -2.403   6.470   4.918  1.7287 -1.6973  0.5788
25040WAT     H2 1966  -2.288   6.560   4.956 -0.9413  2.0616  0.3844
25040WAT    EPW 1967  -2.358   6.514   4.978  0.2784  0.1056  0.4442
25041WAT      O 1968   7.027   4.596   0.419  0.1532  0.3202 -0.7102
25041WAT     H1 1969   6.958   4.636   0.367 -0.8980 -1.1504 -0.5079
25041WAT     H2 1970   7.052   4.664   0.482 -1.5392  0.6940 -0.3965
25041WAT    EPW 1971   7.021   4.610   0.421 -0.2086  0.1757 -0.6422
25042WAT      O 1972  -5.610   9.865   8.470 -0.1302 -0.0185  0.5507
25042WAT     H1 1973  -5.609   9.957   8.498 -1.8721  0.7843 -1.6855
25042WAT     H2 1974  -5.562   9.865   8.387 -2.4431 -0.4759 -0.8952
25042WAT    EPW 1975  -5.604   9.877   8.463 -0.6652  0.0272  0.0648
25043WAT      O 1976  -6.229   9.902   5.212 -0.0532  0.1947 -0.3314
25043WAT     H1 1977  -6.235   9.978   5.155  1.1652  0.1077 -0.6177
25043WAT     H2 1978  -6.261   9.829   5.158  1.2049  0.0923 -0.9775
25043WAT    EPW 1979  -6.234   9.902   5.197  0.2735  0.1693 -0.4547
25044WAT      O 1980   3.235   2.193   1.912  0.7723 -0.4790 -0.6378
25044WAT     H1 1981   3.176   2.165   1.981 -1.4673  2.2110 -1.3109
25044WAT     H2 1982   3.321   2.159   1.939 -0.4870 -1.9450  1.9186
25044WAT    EPW 1983   3.239   2.185   1.924  0.3108 -0.3176 -0.3894
25045WAT      O 1984   5.867   6.282   3.029 -0.2491  0.0050  0.4060
25045WAT     H1 1985   5.903   6.352   2.975  0.6230 -0.0018  0.9611
25045WAT     H2 1986   5.801   6.325   3.083 -0.0715  0.2987  0.3896
25045WAT    EPW 1987   5.863   6.297   3.029 -0.1106  0.0427  0.4770
25046WAT      O 1988  -2.689   1.908   4.433  0.5338 -0.0181 -0.0444
25046WAT     H1 1989  -2.774   1.936   4.400 -0.5844 -0.6102  2.1287
25046WAT     H2 1990  -2.628   1.976   4.404 -0.4592 -0.0465 -2.4277
25046WAT    EPW 1991  -2.692   1.921   4.425  0.2553 -0.1000 -0.0722
25047WAT      O 1992  -1.659   1.541   2.432  0.5872  0.5346  0.3128
25047WAT     H1 1993  -1.578   1.504   2.398 -0.9885 -1.5275 -1.4863
25047WAT     H2 1994  -1.704   1.467   2.473 -1.0713  1.2260 -0.1610
25047WAT    EPW 1995  -1.654   1.527   2.433  0.1606  0.3538  0.0131
25048WAT      O 1996   4.146   1.273   3.899  0.1042  0.2899 -0.0827
25048WAT     H1 1997   4.069   1.285   3.844  0.0599  0.9154  0.1070
25048WAT     H2 1998   4.177   1.185   3.879  0.3580  0.6675 -1.4552
25048WAT    EPW 1999   4.140   1.263   3.889  0.1318  0.4222 -0.2387
25049WAT      O 2000   1.461   5.769   3.390  0.7773  0.4991 -0.2452
25049WAT     H1 2001   1.542   5.741   3.433  0.3582  1.3174  1.1360
25049WAT     H2 2002   1.421   5.830   3.452  0.4150  2.1942 -2.0464
25049WAT    EPW 2003   1.467   5.774   3.404  0.6742  0.8307 -0.3005
25050WAT      O 2004   4.201   3.511   8.059  0.1527 -0.2340 -0.1520
25050WAT     H1 2005   4.275   3.548   8.108  0.2963 -0.3517 -0.2792
25050WAT     H2 2006   4.142   3.478   8.127  0.1356  0.0173 -0.0454
25050WAT    EPW 2007   4.203   3.511   8.075  0.1693 -0.2164 -0.1545
25051WAT      O 2008   3.112   7.986   2.168  0.1233 -0.5347 -0.6472
25051WAT     H1 2009   3.104   8.032   2.085  0.0760  1.1533  0.2465
25051WAT     H2 2010   3.202   8.003   2.196 -0.1757 -0.2035  0.1330
25051WAT    EPW 2011   3.123   7.994   2.161  0.0776 -0.2685 -0.4264
25052WAT      O 2012  -0.321   8.276   1.156 -0.2567 -0.0039 -0.0815
25052WAT     H1 2013  -0.273   8.260   1.237 -1.7035  0.8817  1.0016
25052WAT     H2 2014  -0.334   8.371   1.155 -1.0049 -0.1037 -0.9096
25052WAT    EPW 2015  -0.317   8.287   1.167 -0.5462  0.1001 -0.0479
25053WAT      O 2016   0.672   7.923   1.221  0.2171 -0.1084  0.2035
25053WAT     H1 2017   0.682   7.957   1.132  0.4511 -0.3061  0.1537
25053WAT     H2 2018   0.662   8.000   1.276 -2.9685 -0.0087 -0.3492
25053WAT    EPW 2019   0.672   7.937   1.217 -0.1722 -0.1211  0.1240
25054WAT      O 2020   3.294   1.685   4.124 -0.6391 -0.0602 -0.4987
25054WAT     H1 2021   3.261   1.600   4.097 -0.9491 -0.2070  0.3068
25054WAT     H2 2022   3.226   1.747   4.099 -1.2938 -0.2918  0.6211
25054WAT    EPW 2023   3.281   1.682   4.117 -0.7664 -0.1101 -0.2451
25055WAT      O 2024  -2.432   2.464   2.666  0.5111  0.9933  0.2526
25055WAT     H1 2025  -2.482   2.542   2.642 -1.5845  0.8056  3.4526
25055WAT     H2 2026  -2.395   2.483   2.752  2.3749 -0.5487 -0.1259
25055WAT    EPW 2027  -2.434   2.477   2.674  0.4807  0.7651  0.6248
25056WAT      O 2028   2.565  10.001   7.475 -0.6896 -0.2467 -0.0795
25056WAT     H1 2029   2.658   9.992   7.452  0.0322  0.0471  2.4324
25056WAT     H2 2030   2.542   9.917   7.515 -0.9975  0.2878  0.8842
25056WAT    EPW 2031   2.574   9.989   7.477 -0.6350 -0.1378  0.3788
25057WAT      O 2032  -0.261   7.771   0.726  0.4087 -0.3559 -0.3415
25057WAT     H1 2033  -0.193   7.769   0.659  1.4827  0.1810  0.6905
25057WAT     H2 2034  -0.251   7.688   0.773  0.6805 -0.0704  0.1143
25057WAT    EPW 2035  -0.250   7.760   0.724  0.5862 -0.2475 -0.1452
25058WAT      O 2036  -3.363   0.034   8.954 -0.1067  0.2165 -0.9463
25058WAT     H1 2037  -3.377   0.078   9.038 -1.4568  0.9619 -1.5379
25058WAT     H2 2038  -3.385   0.100   8.888 -0.0535 -0.6759 -1.8767
25058WAT    EPW 2039  -3.367   0.048   8.956 -0.2778  0.1971 -1.1468
25059WAT      O 2040  -5.510   9.711   4.674 -0.1353  0.2639  0.0089
25059WAT     H1 2041  -5.563   9.683   4.599 -0.5337 -0.3553  0.5148
25059WAT     H2 2042  -5.553   9.672   4.750  1.4686 -0.9257  0.3662
25059WAT    EPW 2043  -5.523   9.702   4.674  0.0236  0.0253  0.1228
25060WAT      O 2044   5.288   6.367   0.788 -0.2008 -0.6833 -0.5304
25060WAT     H1 2045   5.281   6.294   0.850 -1.3466  0.3230  0.6000
25060WAT     H2 2046   5.315   6.441   0.843 -4.5413  1.0878 -0.4036
25060WAT    EPW 2047   5.291   6.367   0.804 -0.9243 -0.3169 -0.3646
25061WAT      O 2048   8.057   3.556   2.246  0.5259  0.4754 -0.5688
25061WAT     H1 2049   8.098   3.585   2.328 -0.4422  1.3236 -0.3658
25061WAT     H2 2050   7.980   3.508   2.274  1.8802 -2.0867 -0.9108
25061WAT    EPW 2051   8.053   3.554   2.261  0.5770  0.2494 -0.5871
25062WAT      O 2052  -7.896  10.264   6.997 -0.1695 -0.3384 -0.1389
25062WAT     H1 2053  -7.829  10.236   6.935 -2.3870  0.2931 -3.0536
25062WAT     H2 2054  -7.877  10.357   7.012 -1.1966  0.2603 -2.2222
25062WAT    EPW 2055  -7.885  10.273   6.991 -0.5975 -0.1764 -0.7982
25063WAT      O 2056  -3.304   6.734   8.324 -0.7839  0.2875 -0.4720
25063WAT     H1 2057  -3.212   6.708   8.327 -0.3238  1.8758  0.2167
25063WAT     H2 2058  -3.348   6.660   8.282  0.6684 -0.8631 -0.0672
25063WAT    EPW 2059  -3.298   6.721   8.319 -0.5317  0.3452 -0.3281
25064WAT      O 2060  -2.249   7.139   0.198  0.6613 -0.5533  0.4560
25064WAT     H1 2061  -2.252   7.073   0.268  0.2935 -0.4428  0.5452
25064WAT     H2 2062  -2.159   7.173   0.202  0.3018  0.3302  1.6908
25064WAT    EPW 2063  -2.237   7.135   0.208  0.5653 -0.4220  0.6306
25065WAT      O 2064  -4.575   7.145   8.943 -0.4032 -0.3096  0.2017
25065WAT     H1 2065  -4.506   7.155   9.009 -1.7992  0.9656  1.5233
25065WAT     H2 2066  -4.644   7.096   8.987 -1.9250  1.6925  0.1868
25065WAT    EPW 2067  -4.575   7.140   8.957 -0.7880  0.1227  0.3740
25066WAT      O 2068  -4.051   8.164   7.345 -0.3796  0.0389  0.0148
25066WAT     H1 2069  -3.983   8.098   7.360 -0.1882  0.3791  0.6883
25066WAT     H2 2070  -4.074   8.194   7.433 -1.0213  0.3124 -0.2427
25066WAT    EPW 2071  -4.045   8.159   7.358 -0.4389  0.1202  0.0696
25067WAT      O 2072   2.064   0.870   5.272  0.3856 -0.1573 -0.2834
25067WAT     H1 2073   2.121   0.872   5.195 -2.4273 -0.5605 -2.5253
25067WAT     H2 2074   2.051   0.961   5.296 -0.4071  0.1204 -1.6848
25067WAT    EPW 2075   2.070   0.882   5.265 -0.0899 -0.1739 -0.7641
25068WAT      O 2076   2.255   5.892   7.397  0.4601  0.0532 -0.6628
25068WAT     H1 2077   2.249   5.946   7.476 -2.1618  0.0217 -0.7382
25068WAT     H2 2078   2.348   5.873   7.387  1.2182  2.6841  0.6283
25068WAT    EPW 2079   2.267   5.896   7.406  0.2143  0.3960 -0.5023
25069WAT      O 2080   1.833   6.978   2.501 -0.1005 -1.0149 -0.6608
25069WAT     H1 2081   1.801   6.888   2.505  1.0153 -1.3851  0.3199
25069WAT     H2 2082   1.911   6.979   2.556 -2.4014  1.5392  3.0677
25069WAT    EPW 2083   1.839   6.967   2.508 -0.2568 -0.7269 -0.0396
25070WAT      O 2084  -1.249   8.156   8.455  0.1972  0.0966 -0.4492
25070WAT     H1 2085  -1.259   8.184   8.546 -1.9684 -1.4384 -0.1448
25070WAT     H2 2086  -1.328   8.187   8.412  0.1730 -1.0739 -1.2799
25070WAT    EPW 2087  -1.261   8.164   8.462 -0.0917 -0.2604 -0.5183
25071WAT      O 2088   1.494   5.755   5.379  0.3750  0.1008 -0.2852
25071WAT     H1 2089   1.468   5.847   5.391  1.9793  0.3749  1.6128
25071WAT     H2 2090   1.419   5.705   5.412  0.4309  0.7823  0.9149
25071WAT    EPW 2091   1.481   5.760   5.385  0.5940  0.2270  0.1235
25072WAT      O 2092  -4.430   7.418   4.393  0.5345  0.2193 -0.1619
25072WAT     H1 2093  -4.365   7.349   4.379  0.6220  0.2131  0.2662
25072WAT     H2 2094  -4.514   7.375   4.377  0.5229 -0.2684  1.1364
25072WAT    EPW 2095  -4.432   7.403   4.389  0.5445  0.1540  0.0658
25073WAT      O 2096  -0.581   2.525   8.988 -0.3042  0.1374  0.3922
25073WAT     H1 2097  -0.644   2.471   8.942  0.4180  1.0834 -1.8507
25073WAT     H2 2098  -0.497   2.482   8.974 -0.0765  0.3725  0.9783
25073WAT    EPW 2099  -0.578   2.513   8.980 -0.1789  0.2931  0.1736
25074WAT      O 2100  -1.398   9.419   4.104 -0.6702  0.3243 -0.4950
25074WAT     H1 2101  -1.480   9.396   4.061 -0.9594  0.9854 -0.3194
25074WAT     H2 2102  -1.364   9.493   4.052 -0.5192  0.4735 -0.1863
25074WAT    EPW 2103  -1.405   9.426   4.091 -0.6884  0.4311 -0.4313
25075WAT      O 2104  -0.921   4.875   2.604 -0.3372  0.0111 -0.4324
25075WAT     H1 2105  -1.004   4.827   2.602 -3.0761  4.2457 -1.0208
25075WAT     H2 2106  -0.854   4.806   2.603 -3.7397 -3.6998 -0.4254
25075WAT    EPW 2107  -0.924   4.859   2.604 -1.1473  0.0801 -0.5091
25076WAT      O 2108   5.422   0.002   1.534  0.3383  0.1565 -0.1697
25076WAT     H1 2109   5.461   0.074   1.483 -0.1234  0.7219  0.2590
25076WAT     H2 2110   5.453   0.017   1.623 -1.2862  0.9554  0.2974
25076WAT    EPW 2111   5.432   0.014   1.539  0.0632  0.3365 -0.0516
25077WAT      O 2112  -1.742  10.300   6.133 -0.2382  0.1759 -0.5595
25077WAT     H1 2113  -1.832  10.274   6.151  0.2418 -1.1517  0.0258
25077WAT     H2 2114  -1.692  10.219   6.138  0.6295  0.4109 -3.4494
25077WAT    EPW 2115  -1.747  10.286   6.136 -0.0605  0.0319 -0.8633
25078WAT      O 2116  -1.298   0.669   3.928 -0.0646  0.1719  0.2169
25078WAT     H1 2117  -1.320   0.760   3.945 -0.0644  0.1686  0.2351
25078WAT     H2 2118  -1.214   0.656   3.972 -0.4183 -0.0398  0.8424
25078WAT    EPW 2119  -1.290   0.679   3.936 -0.1113  0.1436  0.3017
25079WAT      O 2120  -2.277   8.363   5.016 -0.0721 -0.6249 -0.1734
25079WAT     H1 2121  -2.311   8.397   4.933 -1.0788  0.6404  0.7291
25079WAT     H2 2122  -2.277   8.268   5.004 -0.1284 -0.4727 -1.6376
25079WAT    EPW 2123  -2.281   8.355   5.003 -0.2123 -0.4382 -0.2477
25080WAT      O 2124   0.697   8.968   5.053 -0.7771 -0.1336  0.2875
25080WAT     H1 2125   0.719   9.061   5.045 -0.5908 -0.3462 -2.4300
25080WAT     H2 2126   0.782   8.924   5.065 -0.0569 -0.3615 -4.0287
25080WAT    EPW 2127   0.711   8.974   5.054 -0.6576 -0.1912 -0.6402
25081WAT      O 2128   1.934   5.495   7.456 -0.4472  0.2325 -0.4668
25081WAT     H1 2129   1.919   5.504   7.550  0.6019 -0.9771 -0.1518
25081WAT     H2 2130   1.965   5.581   7.429 -0.1137  0.4112  0.4387
25081WAT    EPW 2131   1.936   5.508   7.465 -0.2649  0.0966 -0.3057
25082WAT      O 2132   6.332   1.360   5.832  0.2042  0.0792 -0.4457
25082WAT     H1 2133   6.347   1.449   5.863 -0.8222  0.7323 -1.7277
25082WAT     H2 2134   6.419   1.328   5.808  0.3866  1.4668 -1.7799
25082WAT    EPW 2135   6.346   1.367   5.833  0.0927  0.3484 -0.7908
25083WAT      O 2136   0.924   2.078   2.836  0.4810  0.0628  0.7668
25083WAT     H1 2137   0.894   2.021   2.907  2.3197 -1.8146  0.1324
25083WAT     H2 2138   1.007   2.114   2.867 -0.1700  1.6944  0.7471
25083WAT    EPW 2139   0.931   2.075   2.849  0.6377  0.0304  0.6806
25084WAT      O 2140   0.265   8.164   0.194  1.0641 -0.3404 -0.2845
25084WAT     H1 2141   0.278   8.236   0.132 -0.8989 -0.5031 -0.9486
25084WAT     H2 2142   0.270   8.205   0.280 -1.5583  0.9791 -0.6577
25084WAT    EPW 2143   0.268   8.179   0.197  0.4593 -0.1879 -0.4213
25085WAT      O 2144  -2.671   0.118   8.268  0.1357 -0.6606 -0.0297
25085WAT     H1 2145  -2.636   0.207   8.273  3.1158 -1.7792  2.0692
25085WAT     H2 2146  -2.700   0.098   8.356 -0.7626 -1.6856 -0.5363
25085WAT    EPW 2147  -2.670   0.127   8.280  0.4103 -0.9433  0.1802
25086WAT      O 2148  -4.033   8.719   8.453  0.5236 -0.0942 -0.0308
25086WAT     H1 2149  -4.058   8.800   8.499  0.1193 -1.0578  1.5160
25086WAT     H2 2150  -3.979   8.749   8.380 -0.6876  1.6775 -0.2806
25086WAT    EPW 2151  -4.029   8.734   8.450  0.3107  0.0129  0.1407
25087WAT      O 2152   7.249   6.549   1.914  0.9493 -0.6251 -0.3800
25087WAT     H1 2153   7.176   6.609   1.902 -1.0996 -3.2076 -2.0203
25087WAT     H2 2154   7.294   6.548   1.830  0.0636 -2.3214 -0.8988
25087WAT    EPW 2155   7.245   6.556   1.901  0.5624 -1.1897 -0.6648
25088WAT      O 2156   6.038   5.548   3.392 -0.3655 -0.4902 -0.4988
25088WAT     H1 2157   5.968   5.601   3.430  1.0652 -0.0829  1.7392
25088WAT     H2 2158   6.074   5.603   3.322  1.7473  2.1097  2.4169
25088WAT    EPW 2159   6.033   5.562   3.387  0.1018 -0.0935  0.1808
25089WAT      O 2160   5.674   1.422   7.573  0.1619  0.4003  0.1696
25089WAT     H1 2161   5.626   1.502   7.552 -2.9625 -1.3684 -0.0929
25089WAT     H2 2162   5.716   1.397   7.490 -0.3005  0.8561 -0.2035
25089WAT    EPW 2163   5.673   1.429   7.559 -0.3111  0.2271  0.0858
25090WAT      O 2164   2.588   9.360   0.102  0.0837  0.6457 -0.1578
25090WAT     H1 2165   2.604   9.447   0.138 -0.8921 -0.4766  3.3061
25090WAT     H2 2166   2.518   9.373   0.038  2.0844  2.7736 -2.1598
25090WAT    EPW 2167   2.581   9.373   0.098  0.2189  0.7782  0.0350
25091WAT      O 2168  -0.198   8.213   5.700 -0.3925 -0.2619 -0.1430
25091WAT     H1 2169  -0.155   8.128   5.714 -0.9105 -0.7870 -1.5976
25091WAT     H2 2170  -0.130   8.269   5.664  0.3542  0.4426  2.1493
25091WAT    EPW 2171  -0.183   8.209   5.697 -0.3624 -0.2384 -0.0324
25092WAT      O 2172  -2.249  10.306   7.748  0.1095  0.1944  0.0065
25092WAT     H1 2173  -2.250  10.213   7.771 -2.1215  0.2732  0.4286
25092WAT     H2 2174  -2.333  10.340   7.779  0.6127  2.2363 -0.6727
25092WAT    EPW 2175  -2.260  10.298   7.755 -0.1183  0.4735 -0.0274
25093WAT      O 2176   3.038   9.663   1.000 -0.1638  0.3093  0.5939
25093WAT     H1 2177   3.055   9.597   0.932  1.8303 -0.5893  1.8599
25093WAT     H2 2178   3.087   9.740   0.972 -2.6596  1.4160 -0.9899
25093WAT    EPW 2179   3.047   9.664   0.987 -0.2300  0.3366  0.5520
25094WAT      O 2180   2.597   3.756   3.152 -0.9314 -0.3719  0.3059
25094WAT     H1 2181   2.603   3.679   3.095  3.7924  0.7431 -1.1188
25094WAT     H2 2182   2.546   3.819   3.102  1.4123 -0.1377 -2.0069
25094WAT    EPW 2183   2.591   3.754   3.138  0.0007 -0.1940 -0.1870
25095WAT      O 2184  -2.525   6.219   2.778 -0.0773 -0.0332  0.0332
25095WAT     H1 2185  -2.533   6.297   2.833  2.3586  0.6206 -0.4327
25095WAT     H2 2186  -2.523   6.147   2.840  0.6341  0.5365  0.6947
25095WAT    EPW 2187  -2.526   6.220   2.793  0.3377  0.1283  0.0591
25096WAT      O 2188  -3.074   5.779   8.345 -0.3319 -0.0624  0.2173
25096WAT     H1 2189  -3.146   5.765   8.407 -1.4293  1.6630 -0.5904
25096WAT     H2 2190  -3.027   5.696   8.343 -2.1044 -1.1338  1.0259
25096WAT    EPW 2191  -3.077   5.766   8.353 -0.7105  0.0241  0.2170
25097WAT      O 2192  -3.669   7.627   4.894  0.0883 -0.1999 -0.3494
25097WAT     H1 2193  -3.725   7.606   4.819  0.6053 -0.0580 -0.7783
25097WAT     H2 2194  -3.692   7.717   4.916 -2.6319 -1.3018  1.9284
25097WAT    EPW 2195  -3.680   7.636   4.887 -0.2023 -0.3266 -0.1056
25098WAT      O 2196   1.363   0.652   8.948 -0.1838  0.0872  0.9016
25098WAT     H1 2197   1.440   0.709   8.951  1.1585 -1.5142 -0.6875
25098WAT     H2 2198   1.289   0.712   8.940  1.2807  1.7068 -2.6124
25098WAT    EPW 2199   1.364   0.668   8.947  0.1864  0.0896  0.2279
25099WAT      O 2200  -0.933   6.411   4.364  0.0682 -0.7204 -0.3477
25099WAT     H1 2201  -0.965   6.461   4.289  1.3317 -0.8752 -1.0137
25099WAT     H2 2202  -0.845   6.384   4.339  0.8220 -0.1390  1.4984
25099WAT    EPW 2203  -0.926   6.414   4.351  0.3342 -0.6640 -0.1919
25100WAT      O 2204  -0.387   0.355   8.371  0.6924  0.1457  0.5431
25100WAT     H1 2205  -0.309   0.373   8.317 -0.4141 -0.4231 -1.3209
25100WAT     H2 2206  -0.381   0.261   8.390  0.9847  0.3097  1.2956
25100WAT    EPW 2207  -0.376   0.345   8.367  0.5850  0.0923  0.3963
25101WAT      O 2208  -2.392   9.224   6.449 -0.5966  0.0605  0.1247
25101WAT     H1 2209  -2.484   9.204   6.430 -0.9659  1.8095 -0.0397
25101WAT     H2 2210  -2.343   9.174   6.383 -1.2614 -2.4215  1.3796
25101WAT    EPW 2211  -2.397   9.214   6.437 -0.7330 -0.0362  0.2687
25102WAT      O 2212  -0.091   5.438   2.068 -0.3664  0.3650 -0.4680
25102WAT     H1 2213  -0.049   5.396   1.993  2.3435  1.1009  0.4921
25102WAT     H2 2214  -0.059   5.389   2.143 -1.8854  0.5326  0.3283
25102WAT    EPW 2215  -0.081   5.426   2.068 -0.2094  0.4840 -0.2363
25103WAT      O 2216   0.328   9.456   1.803  0.1467 -0.0363  0.4868
25103WAT     H1 2217   0.328   9.539   1.755 -0.4811  0.4824  1.3506
25103WAT     H2 2218   0.358   9.480   1.891  0.8895 -0.8977  0.4872
25103WAT    EPW 2219   0.332   9.470   1.808  0.1618 -0.0820  0.6008
25104WAT      O 2220  -5.378   9.812   5.858 -0.6054  0.1232 -0.2568
25104WAT     H1 2221  -5.295   9.805   5.810  0.1095 -2.1968  1.1745
25104WAT     H2 2222  -5.445   9.794   5.792  0.3038 -2.2966 -0.6071
25104WAT    EPW 2223  -5.376   9.809   5.843 -0.3915 -0.5021 -0.1142
25105WAT      O 2224  -0.756   3.414   8.254 -0.3214  0.0128  0.5095
25105WAT     H1 2225  -0.791   3.385   8.338 -3.0556  0.8142 -0.2251
25105WAT     H2 2226  -0.777   3.342   8.194  0.3438  0.0403  0.2361
25105WAT    EPW 2227  -0.764   3.400   8.257 -0.5943  0.1221  0.3767
25106WAT      O 2228   5.510   2.368   0.063  0.1198 -0.4423 -0.8645
25106WAT     H1 2229   5.544   2.280   0.077  1.8909  0.1611 -1.1414
25106WAT     H2 2230   5.587   2.425   0.065 -0.7691  0.9064 -2.3806
25106WAT    EPW 2231   5.524   2.364   0.065  0.2363 -0.1848 -1.1010
25107WAT      O 2232   1.894   2.488   0.863  0.6510  0.2046 -0.5175
25107WAT     H1 2233   1.939   2.404   0.851  0.5618  0.0669  0.0577
25107WAT     H2 2234   1.939   2.548   0.804 -0.8735 -0.8018 -2.8810
25107WAT    EPW 2235   1.905   2.485   0.854  0.4382  0.0538 -0.7534
25108WAT      O 2236   0.308   5.585   0.883  0.0255 -0.2929  0.3030
25108WAT     H1 2237   0.371   5.517   0.906  1.1432  1.0983  1.5779
25108WAT     H2 2238   0.229   5.561   0.931  0.0873 -1.1983 -0.0378
25108WAT    EPW 2239   0.306   5.573   0.893  0.1810 -0.2286  0.4262
25109WAT      O 2240  -1.092   0.023   4.258  0.7298  0.3996  0.0331
25109WAT     H1 2241  -1.068   0.004   4.349 -1.7148  2.2577  1.1851
25109WAT     H2 2242  -1.105   0.117   4.256  0.9525  0.4434 -2.3677
25109WAT    EPW 2243  -1.091   0.033   4.270  0.4368  0.6504 -0.1316
25110WAT      O 2244  -0.447   2.633   8.439 -0.1796  0.5120 -0.1638
25110WAT     H1 2245  -0.503   2.592   8.504  0.9905  0.8936  1.1352
25110WAT     H2 2246  -0.499   2.706   8.405 -0.0375  1.7111  2.0089
25110WAT    EPW 2247  -0.461   2.637   8.443 -0.0065  0.7205  0.2947
25111WAT      O 2248  -2.802   4.193   7.440  0.0156  0.3455  0.5014
25111WAT     H1 2249  -2.801   4.180   7.535  0.2836 -0.5177  0.3827
25111WAT     H2 2250  -2.894   4.205   7.419 -0.0726  0.2723  0.8324
25111WAT    EPW 2251  -2.814   4.193   7.450  0.0392  0.2222  0.5295
25112WAT      O 2252  -0.779  10.042   5.480 -0.0334 -0.2194 -0.3711
25112WAT     H1 2253  -0.745  10.119   5.525  0.8912 -0.6790 -0.2468
25112WAT     H2 2254  -0.711   9.975   5.493 -0.5676 -0.8887 -0.9365
25112WAT    EPW 2255  -0.765  10.043   5.488  0.0181 -0.3686 -0.4292
25113WAT      O 2256   1.861   3.776   8.438  0.8162  0.2623  0.4660
25113WAT     H1 2257   1.799   3.816   8.378  1.3845 -1.2590 -1.2481
25113WAT     H2 2258   1.863   3.834   8.513 -0.1918  2.0852 -0.8371
25113WAT    EPW 2259   1.853   3.789   8.440  0.7582  0.3021  0.0682
25114WAT      O 2260   5.723   4.783   2.881 -0.1223 -0.3917  0.0243
25114WAT     H1 2261   5.780   4.706   2.876  1.0841  0.5515 -1.7220
25114WAT     H2 2262   5.748   4.824   2.964  0.3404 -1.0395  0.2207
25114WAT    EPW 2263   5.734   4.778   2.891  0.0978 -0.3529 -0.1801
25115WAT      O 2264  -0.570   1.181   7.884  0.1312  0.1075 -0.1013
25115WAT     H1 2265  -0.502   1.236   7.846  0.7077 -0.0990  0.6211
25115WAT     H2 2266  -0.549   1.092   7.854  0.5174 -0.0383  0.5935
25115WAT    EPW 2267  -0.559   1.177   7.875  0.2581  0.0610  0.0854
25116WAT      O 2268  -5.162   9.768   5.698 -0.3068 -0.1267 -0.1609
25116WAT     H1 2269  -5.178   9.767   5.603 -1.1148 -1.2975 -0.0354
25116WAT     H2 2270  -5.079   9.722   5.709 -1.3354 -2.0759 -0.1552
25116WAT    EPW 2271  -5.153   9.762   5.687 -0.5491 -0.5383 -0.1438
25117WAT      O 2272  -3.574   2.140   6.558  0.3714 -0.4470 -0.0620
25117WAT     H1 2273  -3.500   2.176   6.607 -0.6604  1.4183  0.2140
25117WAT     H2 2274  -3.533   2.084   6.492  2.1185  1.2926 -0.5648
25117WAT    EPW 2275  -3.559   2.137   6.556  0.4658  0.0284 -0.0920
25118WAT      O 2276  -0.065   4.109  -0.003  0.1262 -0.2223 -0.1611
25118WAT     H1 2277  -0.054   4.201   0.020 -0.2738  0.1982 -1.5597
25118WAT     H2 2278   0.022   4.070   0.009  1.0566  1.0099 -2.3015
25118WAT    EPW 2279  -0.052   4.116   0.002  0.1962 -0.0045 -0.6279
25119WAT      O 2280  -2.547   3.959   5.378  0.5522 -0.3141  0.2544
25119WAT     H1 2281  -2.536   3.937   5.286 -1.8819  1.1403 -0.4703
25119WAT     H2 2282  -2.488   3.899   5.424  0.9156 -1.9368 -2.1362
25119WAT    EPW 2283  -2.538   3.948   5.372  0.2791 -0.3363 -0.1566
25120WAT      O 2284   0.717   1.435   4.202 -0.1521 -0.1865  0.7279
25120WAT     H1 2285   0.627   1.469   4.202  0.0227  0.3404 -0.7900
25120WAT     H2 2286   0.707   1.344   4.175 -0.1665  0.1356 -0.4050
25120WAT    EPW 2287   0.704   1.428   4.199 -0.1309 -0.0745  0.3781
25121WAT      O 2288   5.507   5.676   0.425  0.0591 -0.4272  0.0427
25121WAT     H1 2289   5.573   5.744   0.411  0.5061 -1.0738 -1.2471
25121WAT     H2 2290   5.429   5.708   0.380 -0.2677 -0.0268  0.8763
25121WAT    EPW 2291   5.506   5.689   0.417  0.0751 -0.4597 -0.0174
25122WAT      O 2292   1.650   7.564   7.710  0.4732  0.2854  0.0089
25122WAT     H1 2293   1.641   7.507   7.787  0.6905 -1.8969 -1.4963
25122WAT     H2 2294   1.706   7.635   7.739 -1.5910  1.0189  2.6193
25122WAT    EPW 2295   1.656   7.566   7.724  0.2297  0.0944  0.1547
25123WAT      O 2296   3.355   2.836   2.941  0.1161  0.2114  0.0108
25123WAT     H1 2297   3.297   2.910   2.923  0.0386  1.4680  4.3212
25123WAT     H2 2298   3.443   2.868   2.921 -0.0427  1.0146  0.5733
25123WAT    EPW 2299   3.359   2.850   2.936  0.0850  0.4830  0.6535
25124WAT      O 2300   2.244   8.226   6.331 -0.0025  0.0234  0.1267
25124WAT     H1 2301   2.327   8.193   6.366  1.8197  3.8183 -0.0983
25124WAT     H2 2302   2.262   8.240   6.238 -2.6789 -3.7482 -1.2031
25124WAT    EPW 2303   2.257   8.223   6.323 -0.1153  0.0262 -0.0784
25125WAT      O 2304   1.557   9.655   0.997  0.4073  0.0698 -0.3823
25125WAT     H1 2305   1.496   9.696   0.936  0.4528  1.8680  0.7114
25125WAT     H2 2306   1.558   9.563   0.971 -2.7548 -0.0632 -0.4354
25125WAT    EPW 2307   1.549   9.649   0.986 -0.0037  0.2894 -0.2451
25126WAT      O 2308   0.934   3.182   0.172 -0.3318 -0.3628 -0.1289
25126WAT     H1 2309   0.966   3.135   0.095 -0.5205  0.4648 -0.7233
25126WAT     H2 2310   0.999   3.250   0.188  0.0073 -0.8804  0.8108
25126WAT    EPW 2311   0.947   3.185   0.164 -0.3119 -0.3219 -0.0834
25127WAT      O 2312  -4.373   9.372   7.875  0.4001  0.5008  0.0574
25127WAT     H1 2313  -4.321   9.314   7.820  1.9538  2.7641 -0.9964
25127WAT     H2 2314  -4.456   9.325   7.887  0.7107 -0.9392 -2.6209
25127WAT    EPW 2315  -4.377   9.358   7.869  0.6459  0.6094 -0.4349
25128WAT      O 2316  -4.449   1.568   6.820  0.7290 -0.3243 -0.3912
25128WAT     H1 2317  -4.405   1.654   6.824  0.0056  0.0224  0.3247
25128WAT     H2 2318  -4.403   1.522   6.749  0.7287  0.8799 -1.2164
25128WAT    EPW 2319  -4.437   1.574   6.811  0.6337 -0.1197 -0.4055
25129WAT      O 2320   0.486   7.603   2.970 -0.1499 -0.2771 -0.5560
25129WAT     H1 2321   0.546   7.617   3.043  0.5675  1.5190 -1.4221
25129WAT     H2 2322   0.487   7.509   2.955  2.3166 -0.3347 -0.4066
25129WAT    EPW 2323   0.494   7.592   2.977  0.2700 -0.0479 -0.6504
25130WAT      O 2324   0.261   9.053   1.001 -0.5204  0.6722 -0.4286
25130WAT     H1 2325   0.252   9.125   0.938  0.2304  0.9982 -0.1735
25130WAT     H2 2326   0.327   9.084   1.064 -0.0441 -0.3189 -0.4259
25130WAT    EPW 2327   0.268   9.066   1.001 -0.3585  0.5846 -0.3946
25131WAT      O 2328  -1.597   7.346   5.924 -0.1650  0.2334 -0.1625
25131WAT     H1 2329  -1.643   7.263   5.931 -0.6482  0.6312  2.3930
25131WAT     H2 2330  -1.509   7.328   5.957  0.4538  0.2863 -1.6804
25131WAT    EPW 2331  -1.591   7.333   5.929 -0.1472  0.2928 -0.0257
25132WAT      O 2332  -0.827   8.609   1.231  0.3321 -0.0859  0.5888
25132WAT     H1 2333  -0.909   8.611   1.182  1.2047  1.4916 -0.9262
25132WAT     H2 2334  -0.849   8.650   1.315 -0.4437  0.3170  0.2059
25132WAT    EPW 2335  -0.841   8.615   1.235  0.3449  0.1755  0.3384
25133WAT      O 2336  -0.880   4.627   5.819  0.1829 -0.0037  0.2611
25133WAT     H1 2337  -0.932   4.558   5.777 -3.5499  2.2908  0.6303
25133WAT     H2 2338  -0.869   4.596   5.909  1.0004 -1.2797 -0.2486
25133WAT    EPW 2339  -0.885   4.614   5.825 -0.2016  0.1307  0.2425
25134WAT      O 2340   5.304  10.355   2.259  0.2131 -0.5302 -0.4095
25134WAT     H1 2341   5.391  10.315   2.260  0.6975  0.4716 -0.0801
25134WAT     H2 2342   5.299  10.401   2.176  1.0048  1.4298  0.5567
25134WAT    EPW 2343   5.315  10.356   2.248  0.3815 -0.1395 -0.2385
25135WAT      O 2344  -1.809   6.367   1.482 -0.4740 -0.3442  0.0684
25135WAT     H1 2345  -1.883   6.394   1.427  0.5914  2.4122 -0.2087
25135WAT     H2 2346  -1.743   6.337   1.419 -0.1447  0.5020 -0.0124
25135WAT    EPW 2347  -1.810   6.367   1.466 -0.2900  0.1309  0.0212
25136WAT      O 2348   1.273   6.861   5.780 -0.2801  0.5419  0.0674
25136WAT     H1 2349   1.331   6.789   5.807 -0.7440  1.3718  3.9378
25136WAT     H2 2350   1.229   6.829   5.702  0.4042 -2.8913  0.9210
25136WAT    EPW 2351   1.275   6.847   5.774 -0.2510  0.1986  0.6905
25137WAT      O 2352  -7.540  10.074   7.749  0.8966  0.1058 -0.1060
25137WAT     H1 2353  -7.634  10.092   7.742  0.6342 -0.0635  2.2414
25137WAT     H2 2354  -7.515  10.047   7.660 -0.9792  1.3396 -1.0940
25137WAT    EPW 2355  -7.549  10.073   7.736  0.6146  0.2465  0.0732
25138WAT      O 2356  -0.991   1.804   5.507  0.3583  0.1068 -0.4260
25138WAT     H1 2357  -1.063   1.865   5.524  1.1477  1.0768 -0.5162
25138WAT     H2 2358  -0.959   1.780   5.595 -0.9513 -1.4441 -0.3161
25138WAT    EPW 2359  -0.997   1.809   5.521  0.2897  0.0302 -0.4232
25139WAT      O 2360  -7.089   5.563   8.435 -0.2938  0.4833  0.0306
25139WAT     H1 2361  -7.095   5.658   8.427 -0.7135  0.4451 -0.1592
25139WAT     H2 2362  -7.008   5.548   8.482 -0.0437  0.9231 -0.2495
25139WAT    EPW 2363  -7.079   5.574   8.440 -0.3161  0.5362 -0.0319
25140WAT      O 2364   5.764   4.915   3.138 -0.5389 -0.6674  0.1577
25140WAT     H1 2365   5.680   4.917   3.185 -0.0037 -0.5808  1.1265
25140WAT     H2 2366   5.802   4.831   3.162 -1.6757 -2.1111 -2.6980
25140WAT    EPW 2367   5.758   4.904   3.148 -0.6182 -0.8461 -0.0912
25141WAT      O 2368   4.335   1.135   6.511 -0.3015 -0.2005  0.2217
25141WAT     H1 2369   4.421   1.114   6.476 -1.3172 -1.7749 -1.5019
25141WAT     H2 2370   4.331   1.089   6.595 -0.2084 -1.9027 -0.6671
25141WAT    EPW 2371   4.346   1.126   6.517 -0.4232 -0.6326 -0.1228
25142WAT      O 2372   4.505   1.995  -0.017 -0.5879 -0.1023 -0.1259
25142WAT     H1 2373   4.538   1.957   0.065 -2.7008 -0.9782  0.3850
25142WAT     H2 2374   4.476   2.083   0.008  1.5601  0.8298 -0.6646
25142WAT    EPW 2375   4.506   2.002  -0.003 -0.5834 -0.0949 -0.1296
25143WAT      O 2376   6.033   1.843   6.029 -0.2667  0.0757  0.2833
25143WAT     H1 2377   6.112   1.791   6.041 -0.6005 -1.1769 -2.3119
25143WAT     H2 2378   6.061   1.918   5.977 -0.3926  0.8350  1.2833
25143WAT    EPW 2379   6.047   1.846   6.024 -0.3273  0.0106  0.0730
25144WAT      O 2380  -1.164   4.455   7.760 -0.0623  0.2342 -0.2557
25144WAT     H1 2381  -1.116   4.393   7.705 -1.3430 -0.1264 -0.9997
25144WAT     H2 2382  -1.218   4.505   7.698 -2.3794 -0.9259  0.7129
25144WAT    EPW 2383  -1.165   4.453   7.744 -0.5368  0.0339 -0.2263
25145WAT      O 2384   4.479   2.593   3.144 -0.1557 -0.3811 -0.0481
25145WAT     H1 2385   4.555   2.538   3.128  0.1349  0.0528 -0.2007
25145WAT     H2 2386   4.513   2.667   3.194 -0.6403 -0.6067  0.6192
25145WAT    EPW 2387   4.493   2.596   3.148 -0.1814 -0.3536  0.0197
25146WAT      O 2388  -2.028   2.891   7.634 -0.5630 -0.3318 -0.1165
25146WAT     H1 2389  -2.039   2.834   7.558  3.1660 -2.6538  0.7888
25146WAT     H2 2390  -2.074   2.846   7.705  0.8464 -1.3664  0.1884
25146WAT    EPW 2391  -2.035   2.878   7.633  0.1147 -0.7745  0.0432
25147WAT      O 2392   0.725   3.005   4.643  0.1845 -0.1596  0.3723
25147WAT     H1 2393   0.748   2.933   4.700  0.3223 -1.6642 -1.4870
25147WAT     H2 2394   0.799   3.014   4.583 -0.4106  0.6020 -0.2899
25147WAT    EPW 2395   0.738   2.997   4.642  0.1242 -0.2577  0.0398
25148WAT      O 2396  -0.510   5.398   2.617  0.3657 -0.3340 -0.3635
25148WAT     H1 2397  -0.445   5.460   2.583  1.2030 -0.2260  1.3133
25148WAT     H2 2398  -0.489   5.390   2.710 -1.1074 -1.4650 -0.0851
25148WAT    EPW 2399  -0.498   5.405   2.625  0.2818 -0.4690 -0.1057
25149WAT      O 2400   3.540   2.265   5.142  0.6299  0.3095 -0.3267
25149WAT     H1 2401   3.628   2.300   5.129  1.8977 -2.3780  0.4163
25149WAT     H2 2402   3.534   2.252   5.237 -0.7529  0.7990 -0.3211
25149WAT    EPW 2403   3.551   2.268   5.153  0.6148  0.0197 -0.2279
25150WAT      O 2404   0.678   2.533   2.402  0.1177  0.3353  0.7009
25150WAT     H1 2405   0.737   2.496   2.336  0.6448  0.8690  0.8693
25150WAT     H2 2406   0.737   2.570   2.468 -0.3950  1.5277  0.5073
25150WAT    EPW 2407   0.694   2.533   2.402  0.1196  0.5630  0.6975
25151WAT      O 2408   3.454  -0.014   2.713 -0.2049 -0.2934  0.6130
25151WAT     H1 2409   3.463   0.078   2.740 -0.8492 -0.0636  0.0669
25151WAT     H2 2410   3.528  -0.030   2.656 -1.1422  0.4819 -0.8734
25151WAT    EPW 2411   3.465  -0.004   2.709 -0.4134 -0.1609  0.3449
25152WAT      O 2412  -0.318   0.029   1.718  0.0363 -0.1514  0.3498
25152WAT     H1 2413  -0.271   0.101   1.677 -1.7894  0.4945 -0.7416
25152WAT     H2 2414  -0.284  -0.050   1.675 -0.8950  0.4182 -1.5423
25152WAT    EPW 2415  -0.307   0.028   1.707 -0.3273  0.0089 -0.0437
25153WAT      O 2416  -1.145   6.908   2.806 -0.3972 -0.0952  0.1661
25153WAT     H1 2417  -1.230   6.891   2.846 -0.7969 -0.0677 -0.6383
25153WAT     H2 2418  -1.157   6.885   2.714  0.6629 -0.7276  0.1725
25153WAT    EPW 2419  -1.157   6.903   2.799 -0.3101 -0.1750  0.0609
25154WAT      O 2420   0.701   0.739   8.636 -0.1360  0.2990  0.0314
25154WAT     H1 2421   0.767   0.681   8.676  0.6709  0.5656 -0.8878
25154WAT     H2 2422   0.687   0.807   8.702  0.0720 -0.0801  0.4777
25154WAT    EPW 2423   0.708   0.740   8.650 -0.0021  0.2842 -0.0310
25155WAT      O 2424  -1.798   0.663   4.192  0.5829  0.3148 -0.0049
25155WAT     H1 2425  -1.720   0.717   4.178 -0.2677  1.6213  0.1185
25155WAT     H2 2426  -1.863   0.701   4.133 -0.0863 -0.4994  0.1989
25155WAT    EPW 2427  -1.796   0.675   4.182  0.3824  0.3797  0.0384
25156WAT      O 2428  -4.753   1.728   8.027 -0.1210 -0.6773  0.6821
25156WAT     H1 2429  -4.683   1.777   8.071  0.1343 -0.3988 -0.0193
25156WAT     H2 2430  -4.777   1.783   7.953 -1.0291 -0.8159  0.8651
25156WAT    EPW 2431  -4.747   1.742   8.023 -0.2069 -0.6588  0.6137
25157WAT      O 2432   1.259   5.003   8.306  0.3383 -0.2054  0.2409
25157WAT     H1 2433   1.326   5.071   8.309  1.6234 -1.3810 -0.2635
25157WAT     H2 2434   1.307   4.924   8.278 -0.2261 -2.2401  4.2383
25157WAT    EPW 2435   1.274   5.001   8.303  0.4333 -0.6289  0.7019
25158WAT      O 2436   1.004   0.887   1.963  0.6069  0.3535 -0.3081
25158WAT     H1 2437   0.999   0.931   2.048  1.7593  0.1484 -0.1263
25158WAT     H2 2438   1.082   0.923   1.921  0.7578 -0.4682 -0.7538
25158WAT    EPW 2439   1.013   0.898   1.969  0.7788  0.2181 -0.3428
25159WAT      O 2440   2.987   7.520   1.825  0.7789  0.3248  0.7239
25159WAT     H1 2441   2.951   7.606   1.843  1.2411  0.7197 -0.1689
25159WAT     H2 2442   2.926   7.481   1.762 -0.4557 -0.7717  2.5027
25159WAT    EPW 2443   2.974   7.526   1.819  0.6770  0.2325  0.8407
25160WAT      O 2444  -2.868   5.405   5.707  0.0546  0.0864 -0.2233
25160WAT     H1 2445  -2.873   5.498   5.683  0.4888  0.2583  0.3343
25160WAT     H2 2446  -2.808   5.367   5.642  0.1928  0.2804 -0.2111
25160WAT    EPW 2447  -2.861   5.412   5.695  0.1301  0.1347 -0.1483
25161WAT      O 2448  -1.599   0.029   3.825 -0.3476 -0.0418 -0.1647
25161WAT     H1 2449  -1.610   0.075   3.908 -0.2276 -1.4217  0.6534
25161WAT     H2 2450  -1.530   0.077   3.780 -0.8772  1.1251  0.2178
25161WAT    EPW 2451  -1.591   0.041   3.830 -0.4017 -0.0699 -0.0064
25162WAT      O 2452   6.328   2.456   1.456 -0.0824 -0.1684  1.0312
25162WAT     H1 2453   6.400   2.499   1.409  0.0348  0.8824  2.1370
25162WAT     H2 2454   6.293   2.393   1.393 -0.4697  1.7595 -0.8090
25162WAT    EPW 2455   6.333   2.454   1.441 -0.1180  0.2245  0.9343
25163WAT      O 2456   5.168   1.156   4.762 -0.0538  0.5987 -0.1217
25163WAT     H1 2457   5.192   1.072   4.801 -0.1263  1.2529  1.4057
25163WAT     H2 2458   5.188   1.220   4.830 -3.1301  1.5021  0.0651
25163WAT    EPW 2459   5.174   1.153   4.776 -0.4690  0.8042  0.1044
25164WAT      O 2460   6.417   5.321   1.083  0.6758  0.4159  0.7768
25164WAT     H1 2461   6.479   5.260   1.122  1.0854  0.4631  0.2116
25164WAT     H2 2462   6.468   5.367   1.016  0.2757  1.1083  0.9361
25164WAT    EPW 2463   6.432   5.319   1.080  0.6771  0.5136  0.7232
25165WAT      O 2464   2.938   1.038   3.294  0.0211  0.8383 -0.1624
25165WAT     H1 2465   2.895   0.965   3.250 -2.4618  1.0866  1.6413
25165WAT     H2 2466   2.971   1.001   3.376 -0.6743  1.5811  0.4641
25165WAT    EPW 2467   2.937   1.024   3.299 -0.3982  0.9690  0.1582
25166WAT      O 2468   4.527   2.989   3.668  0.2887 -0.1942 -0.1941
25166WAT     H1 2469   4.468   2.948   3.731  1.3822 -1.0302  0.3120
25166WAT     H2 2470   4.529   3.081   3.694  0.7996 -0.5460  1.0695
25166WAT    EPW 2471   4.519   2.996   3.679  0.5002 -0.3508  0.0393
25167WAT      O 2472  -7.170   9.053   8.748 -0.4851 -0.0223 -0.4804
25167WAT     H1 2473  -7.114   8.986   8.708  0.6311  0.2152  0.6008
25167WAT     H2 2474  -7.237   9.003   8.795 -0.8096 -0.3243 -1.2381
25167WAT    EPW 2475  -7.171   9.037   8.749 -0.3808 -0.0305 -0.4377
25168WAT      O 2476   1.569   6.110   2.518  0.1529 -0.9913  0.0492
25168WAT     H1 2477   1.615   6.036   2.477  2.9773  0.3156  0.6020
25168WAT     H2 2478   1.522   6.071   2.591  0.5211 -2.4140 -0.4294
25168WAT    EPW 2479   1.569   6.095   2.522  0.5739 -1.0066  0.0590
25169WAT      O 2480  -4.549   4.956   8.058  0.8114 -0.3519 -0.1246
25169WAT     H1 2481  -4.533   4.910   8.141  1.9875 -1.2887 -0.8416
25169WAT     H2 2482  -4.612   5.025   8.081  0.1641 -1.3598  1.2883
25169WAT    EPW 2483  -4.555   4.959   8.072  0.8812 -0.6084 -0.0329
25170WAT      O 2484  -1.532   2.732   3.710 -0.1311 -0.4767 -0.6783
25170WAT     H1 2485  -1.572   2.817   3.726  0.9538 -0.1961  0.7882
25170WAT     H2 2486  -1.604   2.676   3.680 -1.7616 -0.0992  2.1427
25170WAT    EPW 2487  -1.546   2.736   3.708 -0.2031 -0.3901 -0.1128
25171WAT      O 2488   2.149   7.691   0.148  0.5671 -0.3979 -0.0576
25171WAT     H1 2489   2.137   7.729   0.061 -0.4310  1.8593  0.9726
25171WAT     H2 2490   2.071   7.719   0.197  2.3833  0.7989  2.3265
25171WAT    EPW 2491   2.137   7.700   0.143  0.6750  0.0577  0.3928
25172WAT      O 2492  -5.499   9.531   6.924  0.5746 -0.0618  0.2261
25172WAT     H1 2493  -5.509   9.538   7.019 -1.8215 -0.1286  0.0355
25172WAT     H2 2494  -5.406   9.547   6.908  1.4383 -1.9594  2.7463
25172WAT    EPW 2495  -5.488   9.534   6.934  0.3726 -0.3204  0.5333
25173WAT      O 2496  -3.015   1.174   5.668  0.8704 -0.2324  0.1604
25173WAT     H1 2497  -2.935   1.136   5.630  1.2297  3.4379 -3.4886
25173WAT     H2 2498  -3.085   1.144   5.611  0.8537  2.3913 -1.3482
25173WAT    EPW 2499  -3.014   1.165   5.655  0.9155  0.5977 -0.5198
25174WAT      O 2500   5.222   5.183   5.652 -0.5710 -1.2457 -0.3809
25174WAT     H1 2501   5.233   5.238   5.729  0.7012 -1.4509 -0.3858
25174WAT     H2 2502   5.130   5.159   5.652 -0.9609  0.1670  0.0952
25174WAT    EPW 2503   5.211   5.187   5.662 -0.4547 -1.0865 -0.3188
25175WAT      O 2504   6.627   2.798   2.502  0.5658 -0.2983 -0.5880
25175WAT     H1 2505   6.708   2.748   2.514  0.7580 -0.2164 -1.4852
25175WAT     H2 2506   6.568   2.765   2.570  0.7884 -1.5442 -0.9835
25175WAT    EPW 2507   6.630   2.787   2.512  0.6206 -0.4518 -0.7585
25176WAT      O 2508  -2.252   8.760   4.581  0.7509 -0.1658 -0.3882
25176WAT     H1 2509  -2.244   8.835   4.639 -1.1873 -0.2800  0.0928
25176WAT     H2 2510  -2.224   8.793   4.495 -1.4471  1.6203 -0.5264
25176WAT    EPW 2511  -2.248   8.774   4.577  0.2053  0.0548 -0.3431
25177WAT      O 2512   1.376   9.832   6.473  0.1518 -0.3967  0.3971
25177WAT     H1 2513   1.312   9.894   6.438  0.5277  0.0392  0.4689
25177WAT     H2 2514   1.365   9.753   6.420 -0.4975 -0.3591  0.4629
25177WAT    EPW 2515   1.366   9.830   6.462  0.1158 -0.3343  0.4153
25178WAT      O 2516   3.651   1.051   7.616  0.1412 -0.5585  0.0992
25178WAT     H1 2517   3.688   1.139   7.605  0.1688 -0.7724 -2.0319
25178WAT     H2 2518   3.559   1.067   7.637  0.1132  0.0012 -0.4090
25178WAT    EPW 2519   3.644   1.065   7.617  0.1410 -0.5129 -0.2489
25179WAT      O 2520  -2.053   1.833   3.096 -0.7349  0.1026  0.2738
25179WAT     H1 2521  -2.069   1.900   3.030 -0.0524  1.1662  1.1633
25179WAT     H2 2522  -2.002   1.766   3.050  0.1401  1.0535 -0.1836
25179WAT    EPW 2523  -2.048   1.833   3.081 -0.5294  0.3684  0.3308
25180WAT      O 2524   3.668   8.359   5.749  0.2627  0.5892 -0.4246
25180WAT     H1 2525   3.742   8.302   5.768 -0.3813  0.1734  0.9712
25180WAT     H2 2526   3.708   8.442   5.723  1.2055  0.0710 -0.6989
25180WAT    EPW 2527   3.683   8.362   5.748  0.3021  0.4659 -0.2768
25181WAT      O 2528   7.544   4.990   0.371  0.2072  0.2539  0.4477
25181WAT     H1 2529   7.562   5.077   0.406 -1.9623  1.3600 -0.9535
25181WAT     H2 2530   7.520   5.006   0.279 -1.8910 -1.5861  0.5984
25181WAT    EPW 2531   7.543   5.004   0.363 -0.3557  0.1571  0.2828
25182WAT      O 2532  -3.304   6.591   6.515 -0.2975  0.2958  0.5391
25182WAT     H1 2533  -3.386   6.574   6.562 -1.9802  0.8170 -1.9739
25182WAT     H2 2534  -3.298   6.520   6.451  0.1601  1.2735 -0.5579
25182WAT    EPW 2535  -3.314   6.580   6.513 -0.4591  0.4933  0.0629
25183WAT      O 2536   4.491   2.544   4.284  0.2818 -0.3339  0.0568
25183WAT     H1 2537   4.450   2.463   4.315 -1.7632  1.0048  1.0357
25183WAT     H2 2538   4.439   2.570   4.208  2.2454 -0.9858 -1.6077
25183WAT    EPW 2539   4.479   2.537   4.278  0.2711 -0.2432 -0.0334
25184WAT      O 2540  -2.288  10.264   3.281 -0.0329 -0.7417  0.3111
25184WAT     H1 2541  -2.335  10.226   3.356  0.9243 -1.0229  0.7924
25184WAT     H2 2542  -2.311  10.357   3.283 -1.9966 -1.1499 -0.5680
25184WAT    EPW 2543  -2.297  10.271   3.291 -0.1657 -0.8330  0.2587
25185WAT      O 2544   0.023   3.839   0.620  0.2487 -0.1578 -0.3678
25185WAT     H1 2545  -0.066   3.828   0.656  0.0141  1.9694 -0.1447
25185WAT     H2 2546   0.080   3.799   0.685 -0.5700 -4.1116 -1.7763
25185WAT    EPW 2547   0.019   3.832   0.633  0.1097 -0.3986 -0.5241
25186WAT      O 2548  -3.970   3.149   8.618  0.4645  0.8559  0.4778
25186WAT     H1 2549  -3.933   3.236   8.633  0.9883  0.9841 -1.3745
25186WAT     H2 2550  -3.908   3.107   8.558  0.5890 -1.0699  1.8730
25186WAT    EPW 2551  -3.957   3.155   8.612  0.5500  0.6188  0.4177
25187WAT      O 2552  -4.277   4.016   5.331 -0.5563  0.3017 -0.3458
25187WAT     H1 2553  -4.276   4.101   5.375 -2.4357 -0.2734  0.9664
25187WAT     H2 2554  -4.213   3.963   5.380 -0.0351  0.7081 -0.5919
25187WAT    EPW 2555  -4.268   4.020   5.344 -0.7355  0.2794 -0.2053
25188WAT      O 2556  -3.417   2.687   5.027 -0.7708  0.3924  0.5760
25188WAT     H1 2557  -3.500   2.733   5.016 -1.8173 -1.7078 -0.8943
25188WAT     H2 2558  -3.439   2.607   5.074  0.5661  0.1692  0.8803
25188WAT    EPW 2559  -3.431   2.683   5.032 -0.7324  0.0859  0.4222
25189WAT      O 2560  -0.696   8.779   2.634 -0.4550  0.8658 -0.3617
25189WAT     H1 2561  -0.615   8.825   2.610  1.1351 -1.3248  0.4627
25189WAT     H2 2562  -0.718   8.814   2.720 -1.0331  2.2037 -1.0105
25189WAT    EPW 2563  -0.688   8.790   2.642 -0.3215  0.7534 -0.3386
25190WAT      O 2564  -5.921   9.324   4.613 -0.6143 -0.2177 -0.3214
25190WAT     H1 2565  -5.980   9.338   4.539 -0.8536  0.6040  0.0219
25190WAT     H2 2566  -5.848   9.385   4.598  0.0793 -1.0962 -0.6490
25190WAT    EPW 2567  -5.919   9.334   4.601 -0.5543 -0.2255 -0.3195
25191WAT      O 2568  -0.548   1.190   3.002 -0.0891 -0.5257 -0.2276
25191WAT     H1 2569  -0.529   1.261   2.940  0.9476 -0.2200  0.4064
25191WAT     H2 2570  -0.463   1.171   3.042 -0.5550 -1.4267  0.3552
25191WAT    EPW 2571  -0.534   1.197   2.999 -0.0138 -0.6042 -0.0670
25192WAT      O 2572   2.634   2.585   8.501  0.3144  0.3396 -0.4724
25192WAT     H1 2573   2.691   2.602   8.427 -0.6231 -3.4356 -2.3048
25192WAT     H2 2574   2.565   2.650   8.494 -0.2511 -0.4245 -3.6112
25192WAT    EPW 2575   2.632   2.596   8.491  0.1162 -0.2590 -1.1282
25193WAT      O 2576   6.020   0.147   5.561  0.2282 -0.2564  0.1548
25193WAT     H1 2577   5.925   0.160   5.565  0.3177  0.8842 -0.6778
25193WAT     H2 2578   6.055   0.207   5.627  0.4942  1.7925 -1.7186
25193WAT    EPW 2579   6.012   0.157   5.570  0.2751  0.1643 -0.2022
25194WAT      O 2580   0.899   4.555   4.347  0.0926  0.3620 -0.2492
25194WAT     H1 2581   0.946   4.593   4.422 -1.1279 -1.8988  1.8231
25194WAT     H2 2582   0.845   4.626   4.314  1.0439  1.5764  0.6714
25194WAT    EPW 2583   0.898   4.569   4.353  0.0571  0.2241  0.1457
25195WAT      O 2584   1.804   7.285   4.214 -0.4289 -0.1640  0.0868
25195WAT     H1 2585   1.813   7.238   4.131  1.4041  1.1992 -0.5585
25195WAT     H2 2586   1.815   7.377   4.190 -0.9483  0.3485  1.7158
25195WAT    EPW 2587   1.807   7.291   4.200 -0.2556  0.0834  0.2165
25196WAT      O 2588   7.042   2.755   3.154  0.7484 -0.1784  0.5923
25196WAT     H1 2589   6.977   2.742   3.085  0.8728 -1.7220  0.7413
25196WAT     H2 2590   7.103   2.820   3.118  0.4427 -0.4793 -0.4877
25196WAT    EPW 2591   7.042   2.762   3.140  0.7246 -0.4218  0.4694
25197WAT      O 2592   0.884   1.633   7.712  0.4295  1.0744  0.1193
25197WAT     H1 2593   0.944   1.656   7.783  0.5776  1.1363 -0.0254
25197WAT     H2 2594   0.800   1.670   7.740 -0.0884 -0.8682  1.3645
25197WAT    EPW 2595   0.880   1.641   7.725  0.3808  0.8263  0.2644
25198WAT      O 2596   3.198   3.302   3.076  0.3086 -0.3824  0.2549
25198WAT     H1 2597   3.235   3.259   2.999  2.1945 -1.6106  1.7339
25198WAT     H2 2598   3.130   3.242   3.107 -1.6800  0.9326 -1.3454
25198WAT    EPW 2599   3.194   3.288   3.070  0.2950 -0.3710  0.2390
25199WAT      O 2600  -0.198   8.790   0.772 -0.4574  0.1032  0.1836
25199WAT     H1 2601  -0.160   8.871   0.807 -0.5306 -0.8984  2.7490
25199WAT     H2 2602  -0.291   8.796   0.792 -1.1096  0.7897 -2.6101
25199WAT    EPW 2603  -0.205   8.802   0.779 -0.5531  0.0610  0.1535
25200WAT      O 2604   2.813   6.879   8.258 -0.0349  0.5376 -0.1332
25200WAT     H1 2605   2.745   6.838   8.206  0.6973 -0.9800  0.0400
25200WAT     H2 2606   2.866   6.927   8.195  0.3974 -0.6538 -0.7126
25200WAT    EPW 2607   2.811   6.880   8.243  0.1186  0.1800 -0.1864
25201WAT      O 2608  -1.093   9.093   4.873 -0.5211 -0.3476  0.9696
25201WAT     H1 2609  -1.174   9.068   4.917 -0.8275 -1.7719 -0.3203
25201WAT     H2 2610  -1.120   9.115   4.783  0.5982 -1.7324  0.2473
25201WAT    EPW 2611  -1.107   9.093   4.867 -0.4140 -0.7181  0.7043
25202WAT      O 2612   3.615   9.580   5.217  0.7637 -0.0501  0.1178
25202WAT     H1 2613   3.654   9.659   5.254  0.2408  1.3610 -2.1758
25202WAT     H2 2614   3.564   9.543   5.290  1.7091  1.2158  1.4943
25202WAT    EPW 2615   3.613   9.586   5.232  0.8194  0.3028 -0.0033
25203WAT      O 2616   2.503   2.945   6.420  0.6002 -0.3257 -0.9233
25203WAT     H1 2617   2.435   3.007   6.394  0.1090 -1.3175 -2.1083
25203WAT     H2 2618   2.577   3.000   6.447  0.2872  0.7803 -2.2224
25203WAT    EPW 2619   2.504   2.961   6.420  0.4942 -0.3107 -1.2510
25204WAT      O 2620   0.363   5.689   5.258 -0.0661 -0.7617  0.0909
25204WAT     H1 2621   0.405   5.618   5.307  0.4117 -1.2846 -1.0343
25204WAT     H2 2622   0.359   5.657   5.168  3.7906  2.1425 -1.3671
25204WAT    EPW 2623   0.368   5.675   5.253  0.5056 -0.4478 -0.2499
25205WAT      O 2624  -4.851   4.661   8.180  0.2365 -0.3955 -0.2068
25205WAT     H1 2625  -4.793   4.641   8.254  0.0113 -0.5116 -0.0608
25205WAT     H2 2626  -4.931   4.694   8.221 -0.4924 -1.9435 -0.3214
25205WAT    EPW 2627  -4.854   4.663   8.195  0.1109 -0.6149 -0.2031
25206WAT      O 2628   5.023   3.435   7.479  0.5770  0.3995  0.4105
25206WAT     H1 2629   4.994   3.397   7.562  3.3630 -0.4477  1.1188
25206WAT     H2 2630   5.050   3.524   7.501 -0.5727  0.8993 -0.0754
25206WAT    EPW 2631   5.023   3.442   7.493  0.7930  0.3537  0.4399
25207WAT      O 2632   4.993   3.366   2.008  0.1241  0.1159  0.4020
25207WAT     H1 2633   4.932   3.413   2.066  0.2014  0.6502  0.0543
25207WAT     H2 2634   4.987   3.275   2.037  1.7282  0.6383  2.7019
25207WAT    EPW 2635   4.984   3.360   2.020  0.3459  0.2552  0.6595
25208WAT      O 2636  -0.214  10.220   7.198  0.4444  0.4017  0.0597
25208WAT     H1 2637  -0.223  10.128   7.172  1.8828 -0.5908  2.6625
25208WAT     H2 2638  -0.171  10.261   7.124 -3.3247 -0.0685 -2.6631
25208WAT    EPW 2639  -0.209  10.213   7.185  0.1370  0.2089  0.0439
25209WAT      O 2640   3.837   2.250   5.577  0.5869 -0.4981  0.4129
25209WAT     H1 2641   3.858   2.159   5.558 -0.9413 -0.7043 -0.4710
25209WAT     H2 2642   3.814   2.251   5.670 -0.1060 -1.1653  0.2519
25209WAT    EPW 2643   3.837   2.238   5.587  0.2939 -0.6133  0.2749
25210WAT      O 2644  -0.098   4.400   8.070 -0.3248 -0.6324 -0.8417
25210WAT     H1 2645  -0.174   4.347   8.045 -0.8049 -0.0797 -0.5699
25210WAT     H2 2646  -0.086   4.460   7.996 -0.8889  0.0709 -0.3763
25210WAT    EPW 2647  -0.107   4.401   8.057 -0.4625 -0.4668 -0.7448
25211WAT      O 2648  -0.552   8.276   4.811  0.9274  0.2824  0.1537
25211WAT     H1 2649  -0.500   8.231   4.877  1.4319 -1.8758 -1.5973
25211WAT     H2 2650  -0.524   8.238   4.728 -1.5774  0.9218 -1.0897
25211WAT    EPW 2651  -0.542   8.265   4.809  0.6636  0.0820 -0.2413
25212WAT      O 2652  -1.026   5.736   0.351 -0.6938 -0.1458 -0.2720
25212WAT     H1 2653  -1.057   5.824   0.334  0.0008  0.0300 -0.6723
25212WAT     H2 2654  -1.105   5.682   0.355 -1.0327  0.2213 -1.5883
25212WAT    EPW 2655  -1.040   5.740   0.350 -0.6469 -0.0741 -0.4984
25213WAT      O 2656   2.235   4.659   0.322  0.5043  0.0405  0.0812
25213WAT     H1 2657   2.244   4.663   0.227  2.1455 -0.5262  0.1758
25213WAT     H2 2658   2.204   4.570   0.340  2.1607 -0.5401  0.1695
25213WAT    EPW 2659   2.232   4.648   0.312  0.9392 -0.1109  0.1053
25214WAT      O 2660   1.565  10.107   1.690  0.6329 -0.5007 -0.5409
25214WAT     H1 2661   1.488  10.069   1.733  0.3918  0.2260 -0.3219
25214WAT     H2 2662   1.569  10.063   1.605 -0.7059  0.2714 -1.0246
25214WAT    EPW 2663   1.555  10.096   1.684  0.4245 -0.3028 -0.5758
25215WAT      O 2664   3.871   3.914   0.665  0.2458 -0.7938  0.1066
25215WAT     H1 2665   3.947   3.944   0.714  2.0412 -1.4907 -2.0627
25215WAT     H2 2666   3.813   3.990   0.662  1.5594  0.2696  0.5137
25215WAT    EPW 2667   3.873   3.928   0.671  0.6559 -0.7454 -0.1258
25216WAT      O 2668   5.277   1.901   4.309  0.1464  0.9367  0.0409
25216WAT     H1 2669   5.365   1.906   4.272  1.5467 -1.3514  2.6623
25216WAT     H2 2670   5.248   1.992   4.314  3.0925  1.9643  0.5823
25216WAT    EPW 2671   5.285   1.914   4.305  0.7198  0.7705  0.4582
25217WAT      O 2672  -7.402   8.845   7.250  0.0410  0.6473  0.0441
25217WAT     H1 2673  -7.416   8.925   7.301 -0.5724  0.0494  0.8414
25217WAT     H2 2674  -7.418   8.774   7.313 -0.8902 -0.1126 -1.0150
25217WAT    EPW 2675  -7.406   8.846   7.265 -0.1626  0.4687  0.0095
25218WAT      O 2676  -0.710   8.540   3.332  0.3661  0.1567 -0.5377
25218WAT     H1 2677  -0.650   8.599   3.288 -1.0669  0.8928 -1.5741
25218WAT     H2 2678  -0.671   8.526   3.419  2.3994 -0.0319 -1.4456
25218WAT    EPW 2679  -0.697   8.546   3.338  0.4453  0.2289 -0.7943
25219WAT      O 2680   1.872   7.155   6.421  0.3456 -0.0594  0.3390
25219WAT     H1 2681   1.787   7.191   6.445  0.4087 -1.4126  2.9679
25219WAT     H2 2682   1.859   7.060   6.424  2.5556 -0.4284  3.8387
25219WAT    EPW 2683   1.859   7.147   6.424  0.6454 -0.2866  1.1473
25220WAT      O 2684   6.792   2.203   4.879  0.1386  0.3372  0.8247
25220WAT     H1 2685   6.777   2.111   4.899 -0.1503 -0.1929 -1.5638
25220WAT     H2 2686   6.884   2.218   4.901 -0.3540  0.1439  3.3434
25220WAT    EPW 2687   6.802   2.193   4.884  0.0355  0.2418  0.8419
25221WAT      O 2688   4.081   7.454   1.521  0.1965 -0.0518  0.1437
25221WAT     H1 2689   4.062   7.378   1.467  1.1936  0.1908 -0.5805
25221WAT     H2 2690   4.045   7.528   1.472  0.2839  0.0714  0.2638
25221WAT    EPW 2691   4.073   7.454   1.507  0.3395 -0.0036  0.0640
25222WAT      O 2692  -2.485   8.087   0.458 -0.2306  0.3624 -0.1164
25222WAT     H1 2693  -2.560   8.029   0.469 -0.1140  0.4922  1.7825
25222WAT     H2 2694  -2.489   8.146   0.534  0.2692  2.1414 -1.4097
25222WAT    EPW 2695  -2.496   8.087   0.470 -0.1493  0.6142 -0.0365
25223WAT      O 2696   7.675   2.910   2.155 -0.9340 -0.0538 -0.3620
25223WAT     H1 2697   7.637   2.995   2.179 -0.3809 -0.2881  1.5321
25223WAT     H2 2698   7.687   2.865   2.239 -0.7363 -1.8079 -1.2911
25223WAT    EPW 2699   7.671   2.915   2.169 -0.8347 -0.3160 -0.2347
25224WAT      O 2700   2.765   8.444   0.606  0.3350  0.3617  0.3500
25224WAT     H1 2701   2.778   8.355   0.574 -0.2289  1.2046 -2.6129
25224WAT     H2 2702   2.709   8.434   0.683  1.5467 -1.8876  1.0352
25224WAT    EPW 2703   2.759   8.431   0.612  0.4203  0.1769  0.0496
25225WAT      O 2704   6.338   3.458   3.522 -0.1585  0.2364 -0.0378
25225WAT     H1 2705   6.331   3.492   3.433 -0.9909 -2.6073 -1.1881
25225WAT     H2 2706   6.425   3.417   3.525  0.1728  0.9623  0.7482
25225WAT    EPW 2707   6.349   3.457   3.510 -0.2246 -0.0429 -0.0858
25226WAT      O 2708  -1.402   3.897   3.514  0.0167  0.2569 -0.2428
25226WAT     H1 2709  -1.404   3.840   3.591  0.4707 -1.1448 -1.2192
25226WAT     H2 2710  -1.411   3.986   3.549  0.7768 -0.2990  1.4620
25226WAT    EPW 2711  -1.403   3.901   3.528  0.1768 -0.0013 -0.1467
25227WAT      O 2712   4.301   0.201   3.026  0.9343 -0.3931  0.3633
25227WAT     H1 2713   4.254   0.221   2.944  1.9371  4.0299  0.6390
25227WAT     H2 2714   4.232   0.195   3.092  0.3773  0.9181 -0.0663
25227WAT    EPW 2715   4.286   0.203   3.024  0.9930  0.3632  0.3430
25228WAT      O 2716   0.825   5.071   6.817  0.3351  0.6030  0.0065
25228WAT     H1 2717   0.767   4.998   6.839  1.4607 -0.4330 -0.3712
25228WAT     H2 2718   0.774   5.149   6.839 -1.6586 -0.2138 -1.3883
25228WAT    EPW 2719   0.811   5.071   6.823  0.2206  0.3586 -0.2272
25229WAT      O 2720  -4.841  10.298   8.988  0.2252  0.5886 -0.1978
25229WAT     H1 2721  -4.892  10.326   8.911 -1.5024 -0.2233  0.5958
25229WAT     H2 2722  -4.778  10.235   8.952 -0.9800 -0.2679 -0.8921
25229WAT    EPW 2723  -4.839  10.293   8.973 -0.1616  0.3691 -0.1850
25230WAT      O 2724   3.393   0.912   7.347 -0.8437  0.0817 -0.2859
25230WAT     H1 2725   3.366   0.973   7.416  0.2999  1.0711 -0.6833
25230WAT     H2 2726   3.402   0.828   7.392 -0.9845  0.5170  0.5865
25230WAT    EPW 2727   3.391   0.909   7.362 -0.7114  0.2696 -0.2232
25231WAT      O 2728   6.115   6.535   1.155  0.2481 -0.6522  0.0727
25231WAT     H1 2729   6.068   6.496   1.229 -0.1871  0.3636  0.3507
25231WAT     H2 2730   6.061   6.514   1.079  0.4617 -1.3076  0.0912
25231WAT    EPW 2731   6.102   6.527   1.155  0.2186 -0.6046  0.1118
25232WAT      O 2732  -0.115   8.182   7.875  0.1862 -0.6146 -0.6551
25232WAT     H1 2733  -0.023   8.210   7.870 -0.0490  0.3844  0.3352
25232WAT     H2 2734  -0.130   8.164   7.967 -1.0206  0.7064 -0.5605
25232WAT    EPW 2735  -0.105   8.184   7.886 -0.0040 -0.3085 -0.5121
25233WAT      O 2736   3.926   3.028   5.059 -0.0628  0.1971  0.1827
25233WAT     H1 2737   3.983   3.004   4.986 -0.5583 -0.1872 -0.0853
25233WAT     H2 2738   3.838   3.007   5.028 -0.3474  0.7141  0.6154
25233WAT    EPW 2739   3.922   3.022   5.045 -0.1657  0.2146  0.2043
25234WAT      O 2740  -2.356   0.529   7.214  0.5813  0.3052  0.5692
25234WAT     H1 2741  -2.422   0.492   7.272  0.6180 -1.0348 -0.2064
25234WAT     H2 2742  -2.373   0.623   7.215  1.0819  0.4534  3.3791
25234WAT    EPW 2743  -2.367   0.536   7.222  0.6522  0.1480  0.8376
25235WAT      O 2744   6.193   8.369   1.494 -0.5080 -0.5578  0.2028
25235WAT     H1 2745   6.288   8.375   1.493 -0.5279 -0.0166 -1.0054
25235WAT     H2 2746   6.163   8.460   1.495 -1.0116 -0.7248  0.5769
25235WAT    EPW 2747   6.202   8.382   1.494 -0.5772 -0.5083  0.0927
25236WAT      O 2748  -2.342  10.207   4.463  0.0761  0.2864  0.4974
25236WAT     H1 2749  -2.274  10.183   4.527 -0.0360  0.4113  0.6617
25236WAT     H2 2750  -2.318  10.157   4.384  0.4414  0.4424  0.5075
25236WAT    EPW 2751  -2.330  10.197   4.461  0.1096  0.3238  0.5202
25237WAT      O 2752  -1.093   2.793   4.347  1.2000  0.0679 -0.7543
25237WAT     H1 2753  -1.156   2.804   4.276  0.3123  2.0005  0.2678
25237WAT     H2 2754  -1.008   2.810   4.306  1.0128 -1.5171 -1.9051
25237WAT    EPW 2755  -1.090   2.797   4.332  1.0582  0.1138 -0.7713
25238WAT      O 2756   5.776   1.021   1.218  0.6046 -0.5056  0.0358
25238WAT     H1 2757   5.760   0.929   1.239  2.0370 -0.5995  0.7542
25238WAT     H2 2758   5.857   1.044   1.263  0.3473  1.0876 -0.2278
25238WAT    EPW 2759   5.784   1.012   1.226  0.7596 -0.3079  0.0958
25239WAT      O 2760  -1.660   5.245   8.009 -0.2066 -0.3203  0.2612
25239WAT     H1 2761  -1.566   5.230   8.001 -0.0721  0.0649  0.9762
25239WAT     H2 2762  -1.674   5.254   8.103 -1.0681 -1.0385  0.2140
25239WAT    EPW 2763  -1.650   5.244   8.020 -0.3025 -0.3643  0.3495
25240WAT      O 2764  -2.933   1.413   8.299 -0.2451  0.4485 -0.9461
25240WAT     H1 2765  -2.998   1.363   8.249 -0.9629 -0.9132  1.1860
25240WAT     H2 2766  -2.878   1.346   8.340  1.6871  1.5672 -1.6223
25240WAT    EPW 2767  -2.935   1.398   8.298 -0.0849  0.4165 -0.7539
25241WAT      O 2768  -4.536   7.515   7.278  0.3294 -0.7264 -0.4615
25241WAT     H1 2769  -4.537   7.605   7.309  2.6510 -0.8996  0.3214
25241WAT     H2 2770  -4.611   7.473   7.322 -0.5787  0.6967 -0.5951
25241WAT    EPW 2771  -4.546   7.521   7.288  0.5159 -0.5615 -0.3757
25242WAT      O 2772   5.306   0.158   7.143 -0.0008 -0.7288  0.3984
25242WAT     H1 2773   5.392   0.133   7.111  0.4505 -1.9899  2.4004
25242WAT     H2 2774   5.289   0.097   7.215 -1.1954  1.4955  2.1222
25242WAT    EPW 2775   5.315   0.146   7.148 -0.0989 -0.6017  0.8898
25243WAT      O 2776   3.649   4.187   8.638 -1.4213 -0.7520 -0.3179
25243WAT     H1 2777   3.647   4.263   8.580 -2.6359 -0.9952 -0.6218
25243WAT     H2 2778   3.634   4.224   8.725 -1.5924 -0.6038 -0.4093
25243WAT    EPW 2779   3.647   4.202   8.642 -1.6041 -0.7644 -0.3700
25244WAT      O 2780   0.109   2.699   4.617  0.3426  0.2167 -0.1396
25244WAT     H1 2781   0.016   2.697   4.636  0.9547 -0.3425  3.4012
25244WAT     H2 2782   0.133   2.608   4.603  0.0155  0.5505 -3.8716
25244WAT    EPW 2783   0.100   2.687   4.618  0.3802  0.1869 -0.1647
25245WAT      O 2784   4.197   0.838   7.353 -0.4329 -0.9383  0.3477
25245WAT     H1 2785   4.122   0.820   7.409 -0.7130 -0.8359  0.0080
25245WAT     H2 2786   4.162   0.891   7.281  0.1077 -0.2454  0.5819
25245WAT    EPW 2787   4.182   0.843   7.351 -0.3984 -0.8334  0.3338
25246WAT      O 2788   4.396   8.498   1.270  0.2597 -1.0198 -0.5177
25246WAT     H1 2789   4.394   8.414   1.224  1.3951 -0.2232 -2.1151
25246WAT     H2 2790   4.358   8.560   1.208  2.3683  0.1974 -0.6812
25246WAT    EPW 2791   4.390   8.495   1.256  0.6876 -0.7539 -0.7500
25247WAT      O 2792   0.077   8.969   0.640  0.4186  0.3225 -0.2494
25247WAT     H1 2793   0.164   8.962   0.679 -1.2068  1.4205  4.1143
25247WAT     H2 2794   0.056   8.880   0.611  1.4652 -0.8677  2.3774
25247WAT    EPW 2795   0.086   8.957   0.641  0.3423  0.3104  0.6726
25248WAT      O 2796  -3.240   1.490   5.589  0.8273 -0.0111  0.0744
25248WAT     H1 2797  -3.264   1.573   5.548  3.5690 -0.7232 -3.4350
25248WAT     H2 2798  -3.299   1.425   5.549  1.8144 -0.3520 -0.8784
25248WAT    EPW 2799  -3.251   1.492   5.578  1.3192 -0.1500 -0.5140
25249WAT      O 2800   2.376   6.269   4.988  0.4004 -0.3432  0.9235
25249WAT     H1 2801   2.337   6.190   5.025  1.2984 -1.5332 -0.5221
25249WAT     H2 2802   2.363   6.260   4.894  0.1776  1.4592  0.7359
25249WAT    EPW 2803   2.369   6.257   4.980  0.4895 -0.2625  0.7081
25250WAT      O 2804  -2.733   1.336   7.320 -0.1099  0.7827  0.4316
25250WAT     H1 2805  -2.712   1.313   7.411 -1.2351  0.2042  0.5581
25250WAT     H2 2806  -2.828   1.332   7.316 -0.0481  0.2821 -0.9225
25250WAT    EPW 2807  -2.743   1.333   7.332 -0.2502  0.6404  0.2699
25251WAT      O 2808  -0.694   8.559   6.808 -0.5871 -0.8810  0.1505
25251WAT     H1 2809  -0.748   8.616   6.753 -1.3869 -1.4329  0.3445
25251WAT     H2 2810  -0.729   8.570   6.896  1.6892  1.2114  0.8944
25251WAT    EPW 2811  -0.706   8.568   6.812 -0.3924 -0.6776  0.2742
25252WAT      O 2812  -2.289   0.030   5.531  0.5315  0.2565 -0.0562
25252WAT     H1 2813  -2.249   0.079   5.603 -2.2001  2.3135  0.2659
25252WAT     H2 2814  -2.358  -0.022   5.573 -0.0338  0.2218 -0.9977
25252WAT    EPW 2815  -2.293   0.030   5.546  0.0968  0.5231 -0.1380
25253WAT      O 2816   6.314   2.529   2.311  0.5472 -0.5631  0.1126
25253WAT     H1 2817   6.321   2.460   2.378  3.2608 -1.0356 -0.5461
25253WAT     H2 2818   6.283   2.483   2.233 -2.0941 -0.1090  0.7998
25253WAT    EPW 2819   6.311   2.513   2.310  0.5567 -0.5655  0.1163
25254WAT      O 2820  -1.398   0.813   1.808  0.5680 -0.0513  0.3300
25254WAT     H1 2821  -1.304   0.795   1.811  0.5388 -0.4593 -0.7896
25254WAT     H2 2822  -1.404   0.901   1.770  0.4603 -0.6457 -1.0835
25254WAT    EPW 2823  -1.386   0.823   1.804  0.5500 -0.1835 -0.0041
25255WAT      O 2824   3.241   1.483   4.750  0.0181  0.2728  0.2811
25255WAT     H1 2825   3.305   1.493   4.821 -0.6682 -0.2234  0.9831
25255WAT     H2 2826   3.184   1.411   4.779 -1.3045  1.1866  0.0083
25255WAT    EPW 2827   3.242   1.474   4.763 -0.2469  0.3279  0.3374
25256WAT      O 2828   4.333   9.809   1.725 -0.2612  0.0317 -0.0429
25256WAT     H1 2829   4.246   9.771   1.714 -0.4991  0.7659 -0.7997
25256WAT     H2 2830   4.357   9.838   1.637  0.8854 -0.4438  0.1010
25256WAT    EPW 2831   4.324   9.808   1.712 -0.1416  0.0658 -0.1237
25257WAT      O 2832   3.214   1.941   1.758  0.2429  0.6399 -0.0499
25257WAT     H1 2833   3.310   1.939   1.748  0.2831  1.5817  0.0868
25257WAT     H2 2834   3.198   2.012   1.820 -0.6071  1.1843 -0.8643
25257WAT    EPW 2835   3.225   1.950   1.765  0.1361  0.8359 -0.1393
25258WAT      O 2836   7.945   4.906   1.557  0.1181 -0.0132 -0.0885
25258WAT     H1 2837   8.036   4.874   1.560  0.3152  0.2741 -2.1216
25258WAT     H2 2838   7.935   4.942   1.469 -2.5551 -1.7600 -0.5926
25258WAT    EPW 2839   7.956   4.906   1.546 -0.2084 -0.2058 -0.4232
25259WAT      O 2840  -7.771   7.253   8.730  0.0595 -0.3925 -0.3529
25259WAT     H1 2841  -7.819   7.272   8.649 -0.2550 -0.8809 -0.2891
25259WAT     H2 2842  -7.701   7.193   8.703 -0.0852 -0.6070 -0.2514
25259WAT    EPW 2843  -7.768   7.247   8.716 -0.0010 -0.4852 -0.3309
25260WAT      O 2844  -1.053   9.128   3.191  0.0347 -0.2168  0.5517
25260WAT     H1 2845  -1.067   9.124   3.096 -1.7883  0.2515  0.7766
25260WAT     H2 2846  -1.117   9.191   3.222  0.1470 -0.8736  2.1931
25260WAT    EPW 2847  -1.063   9.136   3.182 -0.1909 -0.2413  0.7977
25261WAT      O 2848   1.325   1.884   0.820  0.9750  0.1550  0.5106
25261WAT     H1 2849   1.282   1.816   0.768  0.0957 -1.0162  2.6453
25261WAT     H2 2850   1.296   1.867   0.910  1.5399  2.7588  1.2655
25261WAT    EPW 2851   1.315   1.873   0.825  0.9336  0.3439  0.8917
25262WAT      O 2852  -0.541   6.331   5.916 -0.2586  0.9109  0.1127
25262WAT     H1 2853  -0.514   6.266   5.980 -0.6515 -0.4197 -1.0323
25262WAT     H2 2854  -0.624   6.366   5.950  0.3692  1.4424  1.1429
25262WAT    EPW 2855  -0.549   6.327   5.929 -0.2276  0.8054  0.0975
25263WAT      O 2856   0.854   7.657   3.693 -0.0908  0.3001 -0.2682
25263WAT     H1 2857   0.931   7.601   3.681  2.6931  3.6590  0.1975
25263WAT     H2 2858   0.843   7.700   3.608  0.3629  1.8715  0.4421
25263WAT    EPW 2859   0.863   7.655   3.680  0.3362  0.9501 -0.1131
25264WAT      O 2860  -5.319   8.766   8.512 -0.0344 -0.1436 -0.2884
25264WAT     H1 2861  -5.383   8.717   8.563  2.8141 -3.1116  0.7936
25264WAT     H2 2862  -5.332   8.737   8.422 -0.9600  0.2185 -0.2771
25264WAT    EPW 2863  -5.329   8.756   8.507  0.2191 -0.4873 -0.1440
25265WAT      O 2864   0.751   5.300   6.991  0.5964 -0.3958 -0.0368
25265WAT     H1 2865   0.837   5.268   7.016  0.4528 -1.3184 -0.6919
25265WAT     H2 2866   0.690   5.232   7.020  0.1459 -0.0463 -0.1462
25265WAT    EPW 2867   0.754   5.287   6.998  0.5181 -0.4714 -0.1376
25266WAT      O 2868   6.494   1.979   5.663  0.1326  0.3476 -0.1881
25266WAT     H1 2869   6.473   2.050   5.603 -3.2320  0.6432  1.1497
25266WAT     H2 2870   6.548   1.919   5.611 -3.6112 -0.1283 -4.1155
25266WAT    EPW 2871   6.499   1.980   5.648 -0.8049  0.3238 -0.5298
25267WAT      O 2872  -2.606   7.435   7.366 -0.2216 -0.1913  0.2151
25267WAT     H1 2873  -2.590   7.499   7.436  0.0491  0.7440 -0.6772
25267WAT     H2 2874  -2.611   7.351   7.411  3.0502 -0.0601  1.1064
25267WAT    EPW 2875  -2.604   7.433   7.381  0.2457 -0.0508  0.2151
25268WAT      O 2876  -1.679   6.679   2.135 -0.3725  0.3412 -1.0270
25268WAT     H1 2877  -1.619   6.608   2.156 -3.1160 -2.0171 -0.4669
25268WAT     H2 2878  -1.626   6.743   2.086  2.9535 -0.5708  1.1019
25268WAT    EPW 2879  -1.664   6.678   2.131 -0.2956 -0.0901 -0.6723
25269WAT      O 2880  -2.600   4.357   2.034  0.4634  0.0795 -0.2308
25269WAT     H1 2881  -2.579   4.279   1.983 -1.4688  0.7895 -2.2470
25269WAT     H2 2882  -2.519   4.377   2.080  1.2476 -2.6591 -0.2064
25269WAT    EPW 2883  -2.587   4.349   2.034  0.3121 -0.1881 -0.4935
25270WAT      O 2884   6.869   0.138   3.159 -0.2288  0.8311  0.4880
25270WAT     H1 2885   6.819   0.132   3.240 -1.9977  0.5496 -0.5910
25270WAT     H2 2886   6.890   0.232   3.152 -0.1870  0.8833  1.1736
25270WAT    EPW 2887   6.866   0.150   3.169 -0.4563  0.8008  0.4362
25271WAT      O 2888   5.276   0.795   2.855 -0.1971  0.1359  0.0024
25271WAT     H1 2889   5.226   0.870   2.886  1.1740  0.4908  1.4883
25271WAT     H2 2890   5.225   0.719   2.882 -0.9415  0.5058 -0.3485
25271WAT    EPW 2891   5.263   0.795   2.863 -0.1147  0.2314  0.1520
25272WAT      O 2892  -2.411   4.011   8.398 -0.0611 -0.5097 -0.2043
25272WAT     H1 2893  -2.418   4.092   8.348  0.1727  0.4165  1.1899
25272WAT     H2 2894  -2.378   4.039   8.484 -3.0178 -1.6065  1.4354
25272WAT    EPW 2895  -2.408   4.025   8.403 -0.4202 -0.5322  0.1955
25273WAT      O 2896  -1.590   0.506   8.291  0.1978 -0.4129 -0.3479
25273WAT     H1 2897  -1.597   0.599   8.268 -0.0920 -0.2959  0.2036
25273WAT     H2 2898  -1.566   0.463   8.209  1.1660  0.2480 -0.4230
25273WAT    EPW 2899  -1.588   0.513   8.277  0.2873 -0.3103 -0.2851
25274WAT      O 2900   2.552   0.799   5.996  0.1101  0.6360  1.0820
25274WAT     H1 2901   2.612   0.779   6.068  0.9333  0.2277  0.2983
25274WAT     H2 2902   2.537   0.893   6.003  1.0969  0.8029  1.1110
25274WAT    EPW 2903   2.558   0.809   6.006  0.3488  0.6042  0.9823
25275WAT      O 2904   9.663   0.207   0.033  0.2732  1.2838 -0.3560
25275WAT     H1 2905   9.686   0.249  -0.050 -0.6688  3.2828  0.3323
25275WAT     H2 2906   9.697   0.267   0.100  1.8863 -0.7719  0.7654
25275WAT    EPW 2907   9.670   0.221   0.031  0.3619  1.2763 -0.1173
25276WAT      O 2908   6.688   6.816   1.413  0.1749  0.6803 -0.0056
25276WAT     H1 2909   6.780   6.832   1.392  0.4047 -0.6376 -0.1215
25276WAT     H2 2910   6.657   6.762   1.341  0.1846 -1.5101  1.5434
25276WAT    EPW 2911   6.696   6.811   1.401  0.2067  0.2174  0.1835
25277WAT      O 2912  -2.182   2.446   4.950 -0.1840 -0.4585 -0.4937
25277WAT     H1 2913  -2.161   2.355   4.929 -0.6359 -1.0016  1.2424
25277WAT     H2 2914  -2.277   2.448   4.956 -0.1712  0.1093 -0.3975
25277WAT    EPW 2915  -2.192   2.434   4.948 -0.2420 -0.4551 -0.2518
25278WAT      O 2916   5.090   0.391   1.166 -0.1177  0.3228 -0.0102
25278WAT     H1 2917   5.032   0.438   1.106 -1.0376 -1.1048 -0.2853
25278WAT     H2 2918   5.123   0.318   1.114  0.4905  0.0762  0.7029
25278WAT    EPW 2919   5.087   0.388   1.151 -0.1588  0.1020  0.0476
25279WAT      O 2920  -3.059   4.671   4.076  0.1553 -0.5217 -0.2760
25279WAT     H1 2921  -3.047   4.576   4.076  2.3797 -0.4370  2.9454
25279WAT     H2 2922  -2.971   4.706   4.062 -0.1770  0.9510  0.9862
25279WAT    EPW 2923  -3.046   4.663   4.074  0.4048 -0.3161  0.3152
25280WAT      O 2924   5.402   4.043   3.753  0.3838 -0.1984  0.4039
25280WAT     H1 2925   5.385   4.137   3.761 -0.6673 -0.3934  0.5285
25280WAT     H2 2926   5.491   4.032   3.786  0.9758  0.9316 -0.7612
25280WAT    EPW 2927   5.411   4.054   3.759  0.3233 -0.0749  0.2666
25281WAT      O 2928   0.129   7.073   3.564 -0.3845  0.0057 -0.1526
25281WAT     H1 2929   0.143   7.157   3.606  0.1077  0.6332 -1.5145
25281WAT     H2 2930   0.081   7.021   3.629  0.6412  0.7977  1.2946
25281WAT    EPW 2931   0.125   7.077   3.578 -0.1843  0.1929 -0.1413
25282WAT      O 2932  -4.882   8.485   7.649 -0.0556  0.2890  0.1906
25282WAT     H1 2933  -4.837   8.551   7.702 -1.5501  3.0340 -1.7055
25282WAT     H2 2934  -4.820   8.464   7.579 -0.1108  0.8870 -0.0485
25282WAT    EPW 2935  -4.868   8.491   7.647 -0.2601  0.7300 -0.0911
25283WAT      O 2936   3.197   0.588   1.479  0.6409  0.1025  0.3284
25283WAT     H1 2937   3.219   0.563   1.568  0.6522  0.0437  0.3092
25283WAT     H2 2938   3.102   0.595   1.479  0.6368  0.0462  0.3303
25283WAT    EPW 2939   3.187   0.586   1.491  0.6418  0.0874  0.3261
25284WAT      O 2940  -5.641   5.794   6.119 -0.2933  0.3125  0.0512
25284WAT     H1 2941  -5.621   5.854   6.191  1.9643 -1.3202  0.8819
25284WAT     H2 2942  -5.627   5.846   6.040  0.2437  1.2708  0.7573
25284WAT    EPW 2943  -5.636   5.809   6.118  0.0753  0.2236  0.2539
25285WAT      O 2944  -5.163   8.742   7.598 -0.4909  0.0226 -0.4675
25285WAT     H1 2945  -5.116   8.816   7.561  0.4097 -1.1466 -1.7488
25285WAT     H2 2946  -5.243   8.780   7.633 -0.5000  1.4754 -1.9452
25285WAT    EPW 2947  -5.167   8.757   7.598 -0.3734  0.0606 -0.8314
25286WAT      O 2948   2.903   6.782   8.892  0.0401 -0.0945 -0.6234
25286WAT     H1 2949   2.981   6.747   8.934  0.6784 -0.7422 -2.2796
25286WAT     H2 2950   2.903   6.875   8.915  0.6681 -0.3123  0.3127
25286WAT    EPW 2951   2.913   6.790   8.901  0.2072 -0.2089 -0.7186
25287WAT      O 2952   1.797   5.267   0.238  0.5598  0.0485  0.3357
25287WAT     H1 2953   1.792   5.176   0.268 -0.0148  0.7637  2.6350
25287WAT     H2 2954   1.763   5.318   0.312  2.8531  2.3026 -0.0277
25287WAT    EPW 2955   1.792   5.261   0.252  0.7865  0.4401  0.5910
25288WAT      O 2956  -1.441   5.724   1.140 -0.1174 -0.7900 -0.0276
25288WAT     H1 2957  -1.504   5.678   1.196  0.9708 -1.5029  0.6418
25288WAT     H2 2958  -1.441   5.814   1.172  0.5427 -1.2069  1.1842
25288WAT    EPW 2959  -1.449   5.730   1.151  0.1132 -0.9391  0.2205
25289WAT      O 2960  -2.424   7.496   1.756  0.1837 -0.0767 -0.5810
25289WAT     H1 2961  -2.443   7.411   1.715  0.5895 -0.7023  0.4942
25289WAT     H2 2962  -2.509   7.539   1.763 -0.2897 -1.1104  0.3827
25289WAT    EPW 2963  -2.438   7.490   1.751  0.1748 -0.2956 -0.3121
25290WAT      O 2964   7.125   2.125   3.807 -0.0103 -0.2223  0.0115
25290WAT     H1 2965   7.141   2.032   3.818  1.5854 -0.1100 -1.0515
25290WAT     H2 2966   7.030   2.132   3.794 -0.4440 -1.4381  2.1966
25290WAT    EPW 2967   7.114   2.114   3.807  0.1426 -0.3679  0.1595
25291WAT      O 2968  -1.087   4.237   2.964  0.6162 -0.3615 -0.0270
25291WAT     H1 2969  -1.137   4.277   3.035  1.4867  1.6685 -0.4877
25291WAT     H2 2970  -1.051   4.157   3.002 -0.5777 -0.3599  1.1789
25291WAT    EPW 2971  -1.089   4.232   2.978  0.5736 -0.0935  0.0714
25292WAT      O 2972   1.571   2.983   2.534 -0.4097 -0.2173  0.3135
25292WAT     H1 2973   1.575   2.994   2.439  2.2230  2.0197  0.5363
25292WAT     H2 2974   1.579   2.888   2.548 -0.4256 -0.5511 -1.6790
25292WAT    EPW 2975   1.573   2.972   2.523 -0.0646  0.0337  0.0801
25293WAT      O 2976   2.142   1.592   6.050  0.1973 -0.0779 -0.3158
25293WAT     H1 2977   2.205   1.604   6.122 -0.6799 -0.8820  0.6231
25293WAT     H2 2978   2.174   1.648   5.980  3.0748 -1.9289 -0.6324
25293WAT    EPW 2979   2.154   1.601   6.051  0.4611 -0.4281 -0.2339
25294WAT      O 2980   3.771   8.572   2.946 -0.4401 -0.0976 -0.2137
25294WAT     H1 2981   3.763   8.595   2.853 -0.0040  0.0520 -0.2190
25294WAT     H2 2982   3.864   8.587   2.966  0.2042 -3.0375 -0.5271
25294WAT    EPW 2983   3.782   8.577   2.936 -0.2975 -0.4659 -0.2557
25295WAT      O 2984   1.063   7.824   6.181 -0.5882 -0.0257  0.0008
25295WAT     H1 2985   1.094   7.812   6.092 -0.6767 -2.1780  0.2064
25295WAT     H2 2986   1.115   7.763   6.233 -0.4209  1.3055  1.4698
25295WAT    EPW 2987   1.074   7.815   6.177 -0.5778 -0.1338  0.2217
25296WAT      O 2988   2.609   3.830   0.359  1.2927  0.2744 -0.9366
25296WAT     H1 2989   2.625   3.922   0.339  2.3305  0.1764 -0.6260
25296WAT     H2 2990   2.659   3.813   0.439  0.1143 -0.2523 -0.2825
25296WAT    EPW 2991   2.618   3.840   0.367  1.2742  0.1920 -0.8094
25297WAT      O 2992   2.967   2.437   6.778 -0.6374  0.1778  0.4416
25297WAT     H1 2993   2.985   2.468   6.867 -0.3628 -0.8146  0.7456
25297WAT     H2 2994   2.909   2.503   6.741 -0.1980  0.9578  1.1213
25297WAT    EPW 2995   2.962   2.450   6.785 -0.5432  0.1497  0.5713
25298WAT      O 2996   3.461   5.149   5.453 -0.2778  0.3588 -0.4574
25298WAT     H1 2997   3.491   5.093   5.525 -0.8024  0.4258 -0.1862
25298WAT     H2 2998   3.529   5.140   5.387 -0.5122 -0.8561 -0.5517
25298WAT    EPW 2999   3.474   5.141   5.454 -0.3779  0.2074 -0.4342
25299WAT      O 3000  -5.070   1.929   8.066  0.4020  0.2216 -0.0605
25299WAT     H1 3001  -5.033   1.840   8.064 -1.8570 -1.0093  3.3837
25299WAT     H2 3002  -5.012   1.978   8.124 -0.7157 -0.3860  1.6412
25299WAT    EPW 3003  -5.057   1.924   8.073 -0.0434 -0.0209  0.6185
25300WAT      O 3004   0.289   6.442   1.798  0.3510  0.0714  0.0172
25300WAT     H1 3005   0.375   6.416   1.833  0.4493 -0.9782 -0.9440
25300WAT     H2 3006   0.239   6.360   1.794 -0.0084  0.3381 -1.2821
25300WAT    EPW 3007   0.294   6.428   1.802  0.3165 -0.0317 -0.2809
25301WAT      O 3008  -0.085   0.743   6.481 -0.1026 -0.5811 -0.4001
25301WAT     H1 3009  -0.061   0.831   6.453 -1.9294 -0.3349 -1.3854
25301WAT     H2 3010  -0.090   0.693   6.400 -4.4193 -0.1447 -0.6617
25301WAT    EPW 3011  -0.083   0.748   6.467 -0.9129 -0.4911 -0.5646
25302WAT      O 3012   7.511   1.276   0.469  0.6118 -0.6080 -0.5789
25302WAT     H1 3013   7.463   1.349   0.430  0.1491  0.5056  1.9193
25302WAT     H2 3014   7.445   1.207   0.479 -0.2748  0.5019  1.7627
25302WAT    EPW 3015   7.496   1.277   0.465  0.4339 -0.3147  0.0594
25303WAT      O 3016  -2.027  10.169   0.069 -0.5756 -0.6908 -0.4684
25303WAT     H1 3017  -2.023  10.075   0.085  1.5821 -0.5377  0.2867
25303WAT     H2 3018  -1.987  10.208   0.147  0.7564  0.6994 -1.7624
25303WAT    EPW 3019  -2.021  10.162   0.081 -0.1153 -0.4873 -0.5395
25304WAT      O 3020  -1.438   3.732   7.959 -0.5297 -0.5302  0.9325
25304WAT     H1 3021  -1.445   3.714   8.053 -1.1558 -0.1259  0.9684
25304WAT     H2 3022  -1.409   3.649   7.921 -0.5574 -0.7810  1.4496
25304WAT    EPW 3023  -1.435   3.718   7.967 -0.6159 -0.5099  1.0054
25305WAT      O 3024  -4.000   1.402   6.893 -0.4501  0.2541  0.2692
25305WAT     H1 3025  -4.069   1.363   6.949 -0.1239  1.3194  1.4534
25305WAT     H2 3026  -3.966   1.474   6.945  0.6762  0.5576 -0.8671
25305WAT    EPW 3027  -4.005   1.406   6.907 -0.2582  0.4346  0.2756
25306WAT      O 3028   1.025   4.423   0.186 -0.6426 -0.1296 -0.0501
25306WAT     H1 3029   1.097   4.464   0.137 -1.6378  0.3009 -1.1926
25306WAT     H2 3030   1.054   4.426   0.277  1.0167 -0.4368 -0.5206
25306WAT    EPW 3031   1.038   4.429   0.191 -0.5550 -0.1132 -0.2628
25307WAT      O 3032   3.372   8.032   1.724  0.0533 -0.3648  0.3197
25307WAT     H1 3033   3.315   8.024   1.648  0.3309 -2.5602  0.2604
25307WAT     H2 3034   3.392   8.125   1.730 -1.1689  0.0521 -1.3976
25307WAT    EPW 3035   3.367   8.043   1.715 -0.0713 -0.5994  0.0854
25308WAT      O 3036   4.756   6.187   1.103 -0.1885  0.2910 -0.0823
25308WAT     H1 3037   4.709   6.265   1.131  0.7591  0.6743  0.5039
25308WAT     H2 3038   4.690   6.118   1.102 -0.7144  0.7612  0.9548
25308WAT    EPW 3039   4.741   6.188   1.107 -0.1330  0.4036  0.1318
25309WAT      O 3040  -4.875   9.091   5.600  0.1756 -0.6325 -0.6459
25309WAT     H1 3041  -4.882   9.076   5.695  1.9361 -0.6462 -0.4872
25309WAT     H2 3042  -4.879   9.003   5.562 -0.8071 -0.6081 -0.6232
25309WAT    EPW 3043  -4.876   9.077   5.608  0.2782 -0.6309 -0.6220
25310WAT      O 3044   2.870   6.150   8.633  0.0717 -0.2599 -0.2784
25310WAT     H1 3045   2.941   6.119   8.576  0.8993 -0.3167  0.7501
25310WAT     H2 3046   2.797   6.165   8.573  1.0079  0.0088 -1.4028
25310WAT    EPW 3047   2.870   6.148   8.617  0.3042 -0.2320 -0.2913
25311WAT      O 3048   3.088   4.425   1.110  0.3320 -0.0537  0.0954
25311WAT     H1 3049   3.071   4.466   1.025 -1.1597 -0.8408 -0.0328
25311WAT     H2 3050   3.113   4.335   1.088 -0.2761 -0.3241  0.4695
25311WAT    EPW 3051   3.089   4.418   1.096  0.0550 -0.1931  0.1278
25312WAT      O 3052   2.166   5.359   1.528 -0.2996  0.3313 -0.2305
25312WAT     H1 3053   2.120   5.440   1.504 -1.0456  0.7611  2.3732
25312WAT     H2 3054   2.108   5.289   1.499  0.2529  0.6828 -2.3201
25312WAT    EPW 3055   2.152   5.361   1.521 -0.3251  0.4344 -0.1627
25313WAT      O 3056   2.298   3.231   0.028  0.0350  0.4062  0.6094
25313WAT     H1 3057   2.217   3.264  -0.011 -0.6421  0.8217  2.2711
25313WAT     H2 3058   2.366   3.289  -0.005 -0.0453 -0.8510 -2.0036
25313WAT    EPW 3059   2.297   3.243   0.018 -0.0648  0.2952  0.4840
25314WAT      O 3060  -3.576   8.446   7.441 -0.2364 -0.4238  0.2889
25314WAT     H1 3061  -3.536   8.369   7.399  1.6802  1.5860 -1.8177
25314WAT     H2 3062  -3.510   8.475   7.504  0.9234  1.7037 -1.7440
25314WAT    EPW 3063  -3.562   8.439   7.444  0.1694  0.1216 -0.2570
25315WAT      O 3064  -3.120   7.383   3.957  0.0832 -0.2098  0.4953
25315WAT     H1 3065  -3.116   7.357   3.865  1.3354  2.1436 -0.1858
25315WAT     H2 3066  -3.043   7.439   3.970  0.0598 -0.6290  3.0439
25315WAT    EPW 3067  -3.109   7.387   3.947  0.2452  0.0455  0.7416
25316WAT      O 3068   3.374   3.713   6.311  0.1274  0.3100  0.3684
25316WAT     H1 3069   3.341   3.732   6.223 -0.7415  0.0597  0.6266
25316WAT     H2 3070   3.395   3.799   6.347  2.3333  0.3141 -0.7426
25316WAT    EPW 3071   3.372   3.727   6.304  0.3039  0.2776  0.2561
25317WAT      O 3072  -5.111   3.073   8.566 -0.6711 -0.1437  0.3263
25317WAT     H1 3073  -5.113   2.996   8.622 -2.2537  0.6637  1.4481
25317WAT     H2 3074  -5.103   3.147   8.626 -0.1225  0.6309 -0.6647
25317WAT    EPW 3075  -5.111   3.073   8.581 -0.8073  0.0650  0.3438
25318WAT      O 3076   2.582   1.282   0.608  0.1837 -0.2111 -0.3168
25318WAT     H1 3077   2.543   1.338   0.541 -1.7295 -1.2714 -0.1503
25318WAT     H2 3078   2.634   1.341   0.662 -0.0539  1.0232 -1.4098
25318WAT    EPW 3079   2.584   1.297   0.606 -0.1000 -0.1882 -0.4390
25319WAT      O 3080   1.143   5.875   0.077  0.0493  0.8593 -0.1095
25319WAT     H1 3081   1.207   5.818   0.121 -1.4313  0.1658  1.2492
25319WAT     H2 3082   1.072   5.816   0.052 -0.6433  1.8094 -0.4277
25319WAT    EPW 3083   1.142   5.860   0.080 -0.2373  0.8931  0.0278
25320WAT      O 3084  -3.773   8.015   2.069  0.4682 -0.0218 -0.5450
25320WAT     H1 3085  -3.701   8.055   2.119  2.2693 -3.1807 -0.3340
25320WAT     H2 3086  -3.843   8.005   2.133  0.5482  1.3024 -0.2182
25320WAT    EPW 3087  -3.772   8.019   2.084  0.7164 -0.2642 -0.4741
25321WAT      O 3088  -2.278   8.249   8.363  0.0378 -0.7482  0.0136
25321WAT     H1 3089  -2.269   8.190   8.289  2.2921 -0.0613 -0.3507
25321WAT     H2 3090  -2.313   8.330   8.325 -1.0843 -1.1551  0.1505
25321WAT    EPW 3091  -2.281   8.252   8.348  0.1872 -0.7114 -0.0167
25322WAT      O 3092   3.671   5.726   1.453  0.3234  0.7035  0.2175
25322WAT     H1 3093   3.621   5.762   1.527 -2.9057 -2.3092 -0.2078
25322WAT     H2 3094   3.659   5.631   1.460  0.3128  0.2205 -3.8188
25322WAT    EPW 3095   3.663   5.718   1.464 -0.1040  0.2425 -0.3710
25323WAT      O 3096   0.248   4.331   8.873 -0.3474 -0.2958  0.1981
25323WAT     H1 3097   0.204   4.249   8.893 -0.7147  0.0989  1.0367
25323WAT     H2 3098   0.304   4.310   8.798 -0.6026 -1.2502  0.2616
25323WAT    EPW 3099   0.250   4.318   8.865 -0.4295 -0.3698  0.3171
25324WAT      O 3100  -6.298   9.023   8.682  0.7037 -0.3128 -0.4266
25324WAT     H1 3101  -6.316   9.104   8.635  0.8186 -0.0295  0.0207
25324WAT     H2 3102  -6.303   9.046   8.774  0.3629 -0.8963 -0.2884
25324WAT    EPW 3103  -6.301   9.037   8.688  0.6738 -0.3524 -0.3495
25325WAT      O 3104  -2.868   6.623   7.544 -0.7953 -0.1022  0.2915
25325WAT     H1 3105  -2.923   6.578   7.609  1.2875  1.8778  3.6956
25325WAT     H2 3106  -2.928   6.643   7.472 -3.1007 -3.0379  1.2122
25325WAT    EPW 3107  -2.883   6.620   7.543 -0.8246 -0.2284  0.8621
25326WAT      O 3108   2.297   1.125   8.194  0.0785  0.6380  0.9801
25326WAT     H1 3109   2.378   1.144   8.242 -0.6096  0.9483  2.0529
25326WAT     H2 3110   2.304   1.178   8.115  1.3469 -0.0627  0.5811
25326WAT    EPW 3111   2.309   1.135   8.190  0.1551  0.5865  1.0691
25327WAT      O 3112   4.420   1.158   7.248 -0.2342 -0.0636  0.8058
25327WAT     H1 3113   4.512   1.170   7.270 -0.5197  1.9397  1.0931
25327WAT     H2 3114   4.412   1.196   7.160 -0.6465 -1.0092  0.4149
25327WAT    EPW 3115   4.431   1.164   7.239 -0.3262  0.0759  0.7920
25328WAT      O 3116   5.471   2.823   5.623  0.5761  0.3876  0.4988
25328WAT     H1 3117   5.458   2.917   5.634 -1.6381  0.1139  0.7356
25328WAT     H2 3118   5.421   2.784   5.695  0.0522 -0.9863 -0.5591
25328WAT    EPW 3119   5.462   2.830   5.634  0.2153  0.1702  0.3905
25329WAT      O 3120  -0.006   0.492   4.872  0.8471 -0.2811  0.0283
25329WAT     H1 3121  -0.076   0.427   4.866 -0.8665  1.2890  1.3866
25329WAT     H2 3122   0.071   0.442   4.898 -0.3981 -1.7929  1.0289
25329WAT    EPW 3123  -0.005   0.477   4.875  0.4569 -0.2734  0.3393
25330WAT      O 3124  -2.141   0.815   7.781 -0.6214 -0.2276  0.2885
25330WAT     H1 3125  -2.087   0.737   7.776  1.5013  1.1557  0.4197
25330WAT     H2 3126  -2.191   0.804   7.862  0.3322 -1.0613  0.7844
25330WAT    EPW 3127  -2.141   0.804   7.791 -0.2158 -0.1551  0.3712
25331WAT      O 3128   0.336   4.159   7.841  0.2148  0.8276 -0.2585
25331WAT     H1 3129   0.283   4.184   7.765 -0.6642  0.6404  0.2711
25331WAT     H2 3130   0.272   4.128   7.905  1.0973 -1.0538 -0.2226
25331WAT    EPW 3131   0.320   4.158   7.839  0.2153  0.5548 -0.1841
25332WAT      O 3132   1.617   2.551   0.485 -0.2676 -0.2569  0.0563
25332WAT     H1 3133   1.640   2.461   0.508 -0.6247  0.0875  1.9225
25332WAT     H2 3134   1.524   2.548   0.466  0.1019 -0.6157 -1.9273
25332WAT    EPW 3135   1.608   2.539   0.486 -0.2660 -0.2588  0.0408
25333WAT      O 3136   2.214   7.400   2.388 -0.2385  0.0071  0.1118
25333WAT     H1 3137   2.135   7.372   2.434  1.3899 -3.8019  0.9958
25333WAT     H2 3138   2.285   7.352   2.432  2.4588  2.4620 -1.2722
25333WAT    EPW 3139   2.213   7.390   2.400  0.3320 -0.1717  0.0458
25334WAT      O 3140   7.407   3.031   1.479 -0.2748 -0.4413 -0.2902
25334WAT     H1 3141   7.314   3.023   1.457 -0.5137  0.7581  0.2314
25334WAT     H2 3142   7.434   2.941   1.498 -0.9239 -1.0328 -1.9347
25334WAT    EPW 3143   7.398   3.018   1.478 -0.3920 -0.3613 -0.4383
25335WAT      O 3144   2.743   0.411   2.337  0.1421  0.3710 -0.9151
25335WAT     H1 3145   2.788   0.355   2.274 -1.5105  0.1927 -1.9812
25335WAT     H2 3146   2.729   0.493   2.290 -0.8645  0.3323 -0.6992
25335WAT    EPW 3147   2.747   0.414   2.323 -0.2086  0.3424 -1.0273
25336WAT      O 3148   6.714   2.335   0.976  0.2258 -0.1905  0.1752
25336WAT     H1 3149   6.736   2.313   1.067  0.9678  1.0251  0.3099
25336WAT     H2 3150   6.736   2.427   0.968 -0.9898  0.0368 -0.9064
25336WAT    EPW 3151   6.719   2.344   0.987  0.1633 -0.0001  0.0503
25337WAT      O 3152   3.239   2.827   5.026  0.7419  0.7833  0.2197
25337WAT     H1 3153   3.303   2.784   4.969  0.6666  2.6947 -1.4146
25337WAT     H2 3154   3.154   2.795   4.996  0.8194 -0.4830  1.2850
25337WAT    EPW 3155   3.236   2.817   5.014  0.7422  0.8684  0.1445
25338WAT      O 3156  -4.177   8.727   8.738 -0.2134  0.2583 -0.1360
25338WAT     H1 3157  -4.250   8.748   8.795 -0.4893  0.3041 -0.5036
25338WAT     H2 3158  -4.138   8.812   8.717  1.7408  0.0958  2.3680
25338WAT    EPW 3159  -4.181   8.741   8.742  0.0081  0.2422  0.1459
25339WAT      O 3160   0.331   2.713   3.416 -0.7301  0.0805 -0.0407
25339WAT     H1 3161   0.397   2.644   3.407 -0.5660  0.2755 -0.3525
25339WAT     H2 3162   0.339   2.764   3.336 -0.9914  0.3407  0.0974
25339WAT    EPW 3163   0.341   2.711   3.404 -0.7429  0.1407 -0.0637
25340WAT      O 3164  -3.427   8.539   2.976 -0.5735 -0.7964 -0.5579
25340WAT     H1 3165  -3.496   8.519   2.913 -0.3707 -0.5703 -0.8607
25340WAT     H2 3166  -3.440   8.632   2.996  0.9447 -0.1262 -2.3107
25340WAT    EPW 3167  -3.438   8.549   2.970 -0.3464 -0.6781 -0.8291
25341WAT      O 3168   5.194   7.181   3.321 -0.5008 -0.6304 -0.5798
25341WAT     H1 3169   5.256   7.210   3.254  2.1641 -1.0284  1.4943
25341WAT     H2 3170   5.219   7.090   3.337 -0.1835 -0.1956  1.7364
25341WAT    EPW 3171   5.206   7.173   3.315 -0.1073 -0.6256 -0.0007
25342WAT      O 3172   2.163   3.818   0.281 -0.6624 -0.0070  0.0336
25342WAT     H1 3173   2.182   3.728   0.307  0.3021  0.9662  3.1890
25342WAT     H2 3174   2.099   3.848   0.345 -2.3471  1.0876 -2.0441
25342WAT    EPW 3175   2.157   3.810   0.293 -0.7573  0.2657  0.1757
25343WAT      O 3176   7.576   4.690   0.454  0.2352 -0.1896  0.1254
25343WAT     H1 3177   7.507   4.651   0.507 -0.9347  0.2812 -1.0011
25343WAT     H2 3178   7.551   4.782   0.445  1.1732  0.0572 -0.0379
25343WAT    EPW 3179   7.564   4.697   0.460  0.2046 -0.0951 -0.0447
25344WAT      O 3180   0.319   7.058   0.476 -0.1708  0.0349 -0.1874
25344WAT     H1 3181   0.295   6.972   0.441 -1.6066 -0.3709  1.6783
25344WAT     H2 3182   0.264   7.120   0.427  2.3846  0.2582 -3.0945
25344WAT    EPW 3183   0.309   7.055   0.465 -0.0231  0.0107 -0.3248
25345WAT      O 3184  -1.735   7.714   4.266 -0.0118  0.1241  0.7059
25345WAT     H1 3185  -1.815   7.709   4.213 -1.7125  0.5826  3.0566
25345WAT     H2 3186  -1.718   7.808   4.275  3.0058  0.1291 -2.6551
25345WAT    EPW 3187  -1.743   7.726   4.260  0.1619  0.1853  0.5727
25346WAT      O 3188   0.199   4.013   1.741  0.9622 -0.2615 -0.4537
25346WAT     H1 3189   0.205   3.919   1.722 -0.1325 -0.6598  1.0245
25346WAT     H2 3190   0.107   4.028   1.762  1.6502  0.4980  2.3809
25346WAT    EPW 3191   0.188   4.003   1.741  0.9086 -0.2139  0.1151
25347WAT      O 3192  -0.901   1.837   4.439 -0.1283 -0.3968  0.1485
25347WAT     H1 3193  -0.906   1.930   4.460  2.4825 -0.3785  1.0847
25347WAT     H2 3194  -0.879   1.835   4.346 -0.1887 -0.0684  0.1247
25347WAT    EPW 3195  -0.898   1.849   4.429  0.2081 -0.3510  0.2689
25348WAT      O 3196  -3.253   4.538   6.206 -0.2390  0.0584 -0.1742
25348WAT     H1 3197  -3.293   4.473   6.263 -1.6232 -0.0806 -1.2377
25348WAT     H2 3198  -3.163   4.506   6.192  0.0982  0.0609  1.7961
25348WAT    EPW 3199  -3.246   4.525   6.211 -0.3771  0.0405 -0.0546
25349WAT      O 3200   2.914   9.303   0.152  0.3771  0.1792 -0.3976
25349WAT     H1 3201   2.886   9.273   0.066 -0.2267  0.0053 -0.1453
25349WAT     H2 3202   2.839   9.286   0.209  0.7437  0.3615  0.1470
25349WAT    EPW 3203   2.901   9.297   0.148  0.3459  0.1807 -0.2925
25350WAT      O 3204   3.100   7.608   4.455 -0.3563  0.2292 -0.3289
25350WAT     H1 3205   3.070   7.696   4.432 -0.5562  0.5770  1.1487
25350WAT     H2 3206   3.032   7.574   4.513  0.4914 -0.2617  0.3995
25350WAT    EPW 3207   3.087   7.615   4.459 -0.2707  0.2103 -0.0381
25351WAT      O 3208   6.344   9.217   1.207  0.7954  0.2254 -0.4816
25351WAT     H1 3209   6.436   9.229   1.182  1.1123 -1.8662 -0.4906
25351WAT     H2 3210   6.300   9.194   1.125  0.8014 -1.3961 -0.0516
25351WAT    EPW 3211   6.350   9.216   1.193  0.8383 -0.2642 -0.4261
25352WAT      O 3212  -1.919   2.088   5.900  0.1958  0.2382 -0.0189
25352WAT     H1 3213  -1.898   2.096   5.807 -0.5781 -0.3760 -0.2557
25352WAT     H2 3214  -1.867   2.013   5.930 -1.6246 -1.3649 -0.6351
25352WAT    EPW 3215  -1.909   2.079   5.892 -0.1463 -0.0542 -0.1316
25353WAT      O 3216   7.283   5.007   0.242  0.2087 -0.4881 -0.3088
25353WAT     H1 3217   7.190   5.019   0.262  0.0424 -1.0784 -0.7143
25353WAT     H2 3218   7.328   5.054   0.313 -0.3943  0.0849 -0.2892
25353WAT    EPW 3219   7.277   5.015   0.254  0.1073 -0.4904 -0.3597
25354WAT      O 3220  -1.243   8.175   5.069 -0.2684  0.7593 -0.8156
25354WAT     H1 3221  -1.162   8.139   5.105  0.3397  0.7216 -2.1582
25354WAT     H2 3222  -1.293   8.203   5.146  1.3174  1.4507  0.0140
25354WAT    EPW 3223  -1.239   8.174   5.084  0.0209  0.8454 -0.8833
25355WAT      O 3224   3.665   9.632   1.458 -0.0128 -0.5525  0.1681
25355WAT     H1 3225   3.749   9.590   1.439 -0.0573 -1.2564  1.4386
25355WAT     H2 3226   3.687   9.708   1.512  0.0379  0.9771 -1.8639
25355WAT    EPW 3227   3.679   9.637   1.463 -0.0119 -0.4435  0.0677
25356WAT      O 3228  -3.831   9.039   4.492  0.8322 -0.4683  0.0707
25356WAT     H1 3229  -3.840   8.974   4.562  1.8604  0.6943  1.3305
25356WAT     H2 3230  -3.830   8.987   4.412 -2.0486 -1.7380  0.7272
25356WAT    EPW 3231  -3.832   9.023   4.491  0.5879 -0.4821  0.3233
25357WAT      O 3232  -2.510   4.737   1.942 -0.4219 -0.4322  0.2480
25357WAT     H1 3233  -2.519   4.644   1.920 -0.5730 -0.9382  2.2279
25357WAT     H2 3234  -2.415   4.754   1.938 -0.3791 -0.7193  0.0565
25357WAT    EPW 3235  -2.498   4.727   1.939 -0.4362 -0.5367  0.4838
25358WAT      O 3236  -1.461   4.471   6.377 -0.6456 -0.4241 -0.3841
25358WAT     H1 3237  -1.416   4.551   6.407 -2.9955  0.5449  0.8119
25358WAT     H2 3238  -1.547   4.502   6.347 -2.0424 -2.5834  1.1341
25358WAT    EPW 3239  -1.466   4.486   6.377 -1.1398 -0.5810 -0.0260
25359WAT      O 3240  -5.917   1.582   8.782 -0.1555  0.1960 -0.0215
25359WAT     H1 3241  -5.909   1.488   8.799  1.7570  0.3663  0.2702
25359WAT     H2 3242  -5.937   1.620   8.867 -0.9554  0.0587 -0.1445
25359WAT    EPW 3243  -5.918   1.575   8.795 -0.0088  0.2004  0.0010
25360WAT      O 3244  -1.452   8.273   2.531  0.4305 -0.0213  0.9642
25360WAT     H1 3245  -1.525   8.325   2.496  1.1395  2.2108  2.5902
25360WAT     H2 3246  -1.489   8.186   2.543 -1.8376  0.9056  1.2432
25360WAT    EPW 3247  -1.467   8.269   2.528  0.2249  0.3953  1.2155
25361WAT      O 3248  -4.447   7.497   5.479  0.1317 -0.2939 -0.8264
25361WAT     H1 3249  -4.533   7.529   5.455  0.3873  0.9286 -0.1702
25361WAT     H2 3250  -4.433   7.527   5.569  2.0234  1.2896 -1.5627
25361WAT    EPW 3251  -4.456   7.505   5.488  0.4148  0.0763 -0.8371
25362WAT      O 3252   1.446   0.738   5.701 -0.1470 -0.3642  0.1277
25362WAT     H1 3253   1.431   0.644   5.687 -0.0467 -0.1496 -1.6542
25362WAT     H2 3254   1.400   0.780   5.629  0.8825  0.8816  0.1689
25362WAT    EPW 3255   1.438   0.731   5.690  0.0020 -0.1716 -0.1020
25363WAT      O 3256  -4.859   8.869   6.276  0.4684 -0.4609 -0.2197
25363WAT     H1 3257  -4.850   8.937   6.209 -1.3942 -0.0508 -0.1259
25363WAT     H2 3258  -4.888   8.916   6.354  3.5815 -0.7941  1.2830
25363WAT    EPW 3259  -4.862   8.884   6.277  0.6332 -0.4511 -0.0091
25364WAT      O 3260  -2.397   8.367   1.333 -0.1032  0.0439 -0.2142
25364WAT     H1 3261  -2.484   8.336   1.307  0.2613  0.1753 -1.7130
25364WAT     H2 3262  -2.365   8.301   1.394 -1.3393  0.1181  0.5453
25364WAT    EPW 3263  -2.404   8.355   1.338 -0.2180  0.0710 -0.3117
25365WAT      O 3264  -1.196   9.629   4.862  0.1432  0.3701 -0.0460
25365WAT     H1 3265  -1.257   9.635   4.787 -0.5878  0.1079  0.5169
25365WAT     H2 3266  -1.120   9.583   4.827  0.3376  1.3405 -0.9581
25365WAT    EPW 3267  -1.194   9.623   4.847  0.0724  0.4635 -0.0920
25366WAT      O 3268   0.372   4.434   8.186  0.2085  0.3753 -0.0427
25366WAT     H1 3269   0.455   4.480   8.175 -0.2565  1.1768 -0.2423
25366WAT     H2 3270   0.311   4.480   8.128 -0.5060  0.1201  0.4945
25366WAT    EPW 3271   0.375   4.446   8.177  0.0529  0.4475  0.0019
25367WAT      O 3272   3.867   7.918   2.921 -0.0064 -0.0720  0.1428
25367WAT     H1 3273   3.819   7.984   2.872 -0.2333  0.8852  1.5694
25367WAT     H2 3274   3.951   7.961   2.942 -0.2166 -0.1568  1.2161
25367WAT    EPW 3275   3.872   7.933   2.918 -0.0640  0.0432  0.4725
25368WAT      O 3276  -2.301   1.877   4.377 -0.4414 -0.4302  0.2849
25368WAT     H1 3277  -2.206   1.877   4.366 -0.5240  0.4950 -0.5928
25368WAT     H2 3278  -2.320   1.964   4.412 -0.9230 -0.7810  0.9008
25368WAT    EPW 3279  -2.291   1.889   4.380 -0.5158 -0.3545  0.2503
25369WAT      O 3280  -2.340   3.526   3.585 -0.4637 -0.0450  0.0306
25369WAT     H1 3281  -2.409   3.557   3.526 -0.7797 -0.0247  0.4087
25369WAT     H2 3282  -2.343   3.587   3.658  1.0917  0.9904 -0.7181
25369WAT    EPW 3283  -2.350   3.538   3.587 -0.3002  0.0943 -0.0184
25370WAT      O 3284   0.917   6.640   8.595  0.5548 -0.0959  0.3439
25370WAT     H1 3285   1.005   6.672   8.616  2.1738 -1.5064 -3.4650
25370WAT     H2 3286   0.905   6.563   8.650  1.0293  0.9119  1.9246
25370WAT    EPW 3287   0.927   6.634   8.605  0.8309 -0.1490  0.0501
25371WAT      O 3288   1.377   0.961   7.337 -1.1606  0.1190 -0.1271
25371WAT     H1 3289   1.384   0.979   7.431  1.8302  0.8762 -0.3648
25371WAT     H2 3290   1.383   1.048   7.296 -1.6960 -0.2649 -1.0541
25371WAT    EPW 3291   1.379   0.975   7.344 -0.8367  0.1683 -0.2809
25372WAT      O 3292  -2.150   0.671   7.374  1.2917  0.4082  0.1369
25372WAT     H1 3293  -2.063   0.672   7.415  0.3633 -0.5925  2.2663
25372WAT     H2 3294  -2.143   0.604   7.306  2.5137  1.1922 -0.5367
25372WAT    EPW 3295  -2.137   0.662   7.371  1.3305  0.3797  0.3290
25373WAT      O 3296   1.498   0.680   7.414 -1.0081 -0.0156 -1.0680
25373WAT     H1 3297   1.419   0.734   7.421  0.1652  1.5793  1.1537
25373WAT     H2 3298   1.468   0.591   7.432 -2.5364  0.2873 -1.9647
25373WAT    EPW 3299   1.484   0.675   7.417 -1.0549  0.2347 -0.8934
25374WAT      O 3300  -3.589   8.407   1.209 -0.0743 -0.4385 -0.0351
25374WAT     H1 3301  -3.618   8.321   1.180  3.7516 -1.8098 -0.3325
25374WAT     H2 3302  -3.574   8.456   1.128 -1.5708  0.3559  0.1210
25374WAT    EPW 3303  -3.591   8.402   1.194  0.2329 -0.5145 -0.0537
25375WAT      O 3304  -1.227   9.047   4.290  0.4693  0.6522  0.0768
25375WAT     H1 3305  -1.193   8.958   4.278 -0.1133  0.6268 -1.5949
25375WAT     H2 3306  -1.168   9.103   4.240  1.8574  1.4992  2.5034
25375WAT    EPW 3307  -1.215   9.042   4.282  0.5755  0.7606  0.1762
25376WAT      O 3308   1.633   3.149   3.289 -0.1093  0.2555 -0.2530
25376WAT     H1 3309   1.571   3.190   3.227 -0.0424  1.0541  0.1976
25376WAT     H2 3310   1.715   3.145   3.241  0.2073  1.8098  0.1026
25376WAT    EPW 3311   1.635   3.154   3.274 -0.0587  0.5658 -0.1466
25377WAT      O 3312   4.866   8.681   2.334  0.2175  0.8396  0.1929
25377WAT     H1 3313   4.896   8.703   2.422  1.3759  0.6022 -0.1254
25377WAT     H2 3314   4.827   8.761   2.301  3.8265  2.3833 -0.7337
25377WAT    EPW 3315   4.865   8.694   2.341  0.8464  1.0118  0.0287
25378WAT      O 3316   0.079   9.614   6.106  0.1361 -0.3295 -0.9636
25378WAT     H1 3317  -0.014   9.636   6.107 -0.4848 -2.6313 -1.8367
25378WAT     H2 3318   0.085   9.540   6.046  2.5842 -0.1191 -1.0715
25378WAT    EPW 3319   0.067   9.607   6.098  0.3771 -0.6056 -1.0929
25379WAT      O 3320  -1.128   3.428   3.671 -0.1635  0.3750 -0.4057
25379WAT     H1 3321  -1.166   3.340   3.673  1.4745 -0.3538  0.7514
25379WAT     H2 3322  -1.106   3.446   3.762  0.2892  1.6463 -0.7554
25379WAT    EPW 3323  -1.130   3.418   3.683  0.1122  0.4466 -0.2992
25380WAT      O 3324   2.843   2.776   5.794 -0.0259 -0.1405 -0.2474
25380WAT     H1 3325   2.885   2.721   5.728  0.0171  0.2943 -0.5866
25380WAT     H2 3326   2.793   2.840   5.744  2.3212  2.0646  0.0333
25380WAT    EPW 3327   2.842   2.777   5.779  0.2893  0.2077 -0.2551
25381WAT      O 3328   3.037   9.713   5.753 -0.9040 -0.1058 -0.3518
25381WAT     H1 3329   2.950   9.689   5.787 -1.2054 -0.5664 -1.3979
25381WAT     H2 3330   3.032   9.694   5.660  0.6540 -1.1094 -0.2720
25381WAT    EPW 3331   3.025   9.707   5.745 -0.7383 -0.2990 -0.4792
25382WAT      O 3332   2.760   4.713   8.002  0.0562 -0.5248  0.1739
25382WAT     H1 3333   2.674   4.744   7.973 -0.5763 -2.2576  0.0420
25382WAT     H2 3334   2.807   4.792   8.028 -2.2303  0.3334  2.0440
25382WAT    EPW 3335   2.755   4.727   8.001 -0.3288 -0.6402  0.4034
25383WAT      O 3336  -0.863   6.871   3.444 -0.4301  0.5315 -0.0133
25383WAT     H1 3337  -0.890   6.876   3.352 -2.5662 -1.0513  0.4609
25383WAT     H2 3338  -0.890   6.784   3.472  0.1315  1.0033  2.1632
25383WAT    EPW 3339  -0.870   6.860   3.435 -0.6377  0.3850  0.3363
25384WAT      O 3340   3.153   2.227   1.263  0.5232  0.1296  0.2161
25384WAT     H1 3341   3.106   2.306   1.290 -0.2244 -0.2954  0.2000
25384WAT     H2 3342   3.089   2.157   1.273 -0.0510 -0.0050 -3.2260
25384WAT    EPW 3343   3.138   2.228   1.268  0.3489  0.0558 -0.2400
25385WAT      O 3344   2.364   2.994   4.769  0.1316 -0.1481  0.0028
25385WAT     H1 3345   2.331   2.913   4.807 -0.1368 -0.8502 -1.6157
25385WAT     H2 3346   2.294   3.023   4.710  0.9484  0.2843 -0.7776
25385WAT    EPW 3347   2.351   2.987   4.766  0.2040 -0.1837 -0.3135
25386WAT      O 3348  -1.888  10.358   3.082  0.2174  0.5232  0.0269
25386WAT     H1 3349  -1.934  10.275   3.068 -0.0509  0.8630 -1.2821
25386WAT     H2 3350  -1.958  10.423   3.091  0.2802  1.3021 -3.5396
25386WAT    EPW 3351  -1.903  10.356   3.082  0.1903  0.6709 -0.6161
25387WAT      O 3352   0.749   2.162   1.831 -0.5031  0.6177  0.3511
25387WAT     H1 3353   0.834   2.124   1.808  0.4133  1.4632  2.1492
25387WAT     H2 3354   0.688   2.088   1.826  0.5365 -0.2430  0.0744
25387WAT    EPW 3355   0.752   2.147   1.827 -0.2451  0.6157  0.5517
25388WAT      O 3356   4.362   2.657   4.064  0.0214  0.3067 -0.3277
25388WAT     H1 3357   4.310   2.700   4.132  0.4585 -1.7275  1.4077
25388WAT     H2 3358   4.301   2.597   4.021  0.7106 -2.0012  1.6378
25388WAT    EPW 3359   4.347   2.655   4.067  0.1700 -0.2660  0.1607
25389WAT      O 3360   4.693   3.796   4.298  0.4150 -0.7241  0.4812
25389WAT     H1 3361   4.774   3.748   4.311  1.0247  0.0949 -0.1777
25389WAT     H2 3362   4.625   3.737   4.330  1.0208 -2.4888 -1.2600
25389WAT    EPW 3363   4.695   3.782   4.304  0.5755 -0.8489  0.1645
25390WAT      O 3364  -3.371   3.683   6.310 -0.7731  0.1174 -0.7042
25390WAT     H1 3365  -3.369   3.686   6.406 -3.1036 -0.1411 -0.5872
25390WAT     H2 3366  -3.409   3.597   6.290  0.2192 -0.0643 -1.8969
25390WAT    EPW 3367  -3.376   3.672   6.320 -0.9496  0.0594 -0.8459
25391WAT      O 3368   1.156   1.856   2.647 -0.7154  0.0903 -0.4035
25391WAT     H1 3369   1.216   1.863   2.722  0.8754 -1.4802 -1.4362
25391WAT     H2 3370   1.088   1.796   2.677 -1.0650  0.8368  0.3424
25391WAT    EPW 3371   1.155   1.849   2.661 -0.5517 -0.0184 -0.4414
25392WAT      O 3372   2.872   1.675   6.289  0.1172 -0.5766  0.5885
25392WAT     H1 3373   2.899   1.584   6.281  0.9037 -0.2072 -1.6956
25392WAT     H2 3374   2.802   1.686   6.225  0.2987  0.4874  0.5409
25392WAT    EPW 3375   2.866   1.665   6.279  0.2449 -0.3875  0.2809
25393WAT      O 3376  -2.481   7.258   1.654  0.8169 -0.3371 -0.4073
25393WAT     H1 3377  -2.570   7.264   1.620  0.2405  0.5944  1.1269
25393WAT     H2 3378  -2.474   7.169   1.688  1.0612 -0.9444 -1.9699
25393WAT    EPW 3379  -2.491   7.247   1.654  0.7731 -0.2942 -0.4110
25394WAT      O 3380   3.003   5.492   4.706  0.0343 -0.0784 -1.3984
25394WAT     H1 3381   2.988   5.398   4.721 -1.2310  0.0985 -1.4148
25394WAT     H2 3382   2.919   5.524   4.674 -0.2608  1.5146  0.7819
25394WAT    EPW 3383   2.990   5.484   4.704 -0.1714  0.1550 -1.1127
25395WAT      O 3384  -5.159   6.768   8.606 -0.4441  0.0928 -0.2136
25395WAT     H1 3385  -5.080   6.759   8.554  0.6304  0.6911  1.2584
25395WAT     H2 3386  -5.230   6.761   8.542  0.7933  0.2553 -1.6694
25395WAT    EPW 3387  -5.158   6.766   8.591 -0.1392  0.1931 -0.2112
25396WAT      O 3388  -6.231   8.812   7.515 -0.2710 -0.1364 -0.5915
25396WAT     H1 3389  -6.301   8.870   7.543  1.4403  1.1337  1.3810
25396WAT     H2 3390  -6.249   8.729   7.561 -0.5886  0.1149 -0.2555
25396WAT    EPW 3391  -6.243   8.809   7.525 -0.0870  0.0644 -0.2871
25397WAT      O 3392   1.419   3.979   2.655 -0.1350 -0.3782 -0.2788
25397WAT     H1 3393   1.326   3.996   2.647 -0.7638 -3.2532 -0.1916
25397WAT     H2 3394   1.450   3.970   2.565 -0.4247 -1.4904 -0.2810
25397WAT    EPW 3395   1.411   3.980   2.642 -0.2561 -0.9041 -0.2676
25398WAT      O 3396   2.479   8.404   1.373  0.2673 -0.4828 -0.1608
25398WAT     H1 3397   2.383   8.395   1.373  0.2416 -0.2537 -0.4976
25398WAT     H2 3398   2.508   8.349   1.300  0.4090 -0.6937  0.0545
25398WAT    EPW 3399   2.470   8.396   1.364  0.2826 -0.4807 -0.1768
25399WAT      O 3400   2.109   9.381   4.316 -0.0212  0.7454 -0.2405
25399WAT     H1 3401   2.184   9.380   4.375 -0.1073 -1.1102 -0.1190
25399WAT     H2 3402   2.114   9.298   4.268 -0.9377  1.4274 -1.5959
25399WAT    EPW 3403   2.120   9.370   4.317 -0.1535  0.5903 -0.4032
25400WAT      O 3404   0.383   3.949   5.537  0.0634 -0.8415  0.2154
25400WAT     H1 3405   0.347   3.988   5.458  0.6749  2.2385  1.3345
25400WAT     H2 3406   0.308   3.909   5.580 -0.5780 -1.0793 -1.0745
25400WAT    EPW 3407   0.368   3.949   5.532  0.0595 -0.4666  0.1929
25401WAT      O 3408   6.819  10.231   0.042  0.6497  0.0252  0.1613
25401WAT     H1 3409   6.831  10.196   0.130  0.9198  0.6015  0.3642
25401WAT     H2 3410   6.786  10.320   0.057 -1.2381 -0.5628 -0.3557
25401WAT    EPW 3411   6.817  10.238   0.056  0.4363  0.0238  0.1199
25402WAT      O 3412   4.596   7.223   4.488  1.3048 -0.0863  0.2443
25402WAT     H1 3413   4.613   7.159   4.419 -0.8594 -0.7733  0.2518
25402WAT     H2 3414   4.513   7.264   4.462  2.3823  2.4010  0.4943
25402WAT    EPW 3415   4.587   7.220   4.476  1.1616  0.1512  0.2780
25403WAT      O 3416  -2.535   1.806   3.750  0.0398 -0.2140 -0.3621
25403WAT     H1 3417  -2.566   1.896   3.745  1.4961  0.4330  0.9780
25403WAT     H2 3418  -2.496   1.789   3.664 -0.6827  0.2596 -0.7897
25403WAT    EPW 3419  -2.534   1.815   3.738  0.1365 -0.0662 -0.2416
25404WAT      O 3420  -0.707   8.340   3.147 -0.2388  0.4027 -0.4883
25404WAT     H1 3421  -0.706   8.417   3.203 -0.5997  0.4856 -0.5942
25404WAT     H2 3422  -0.654   8.364   3.072 -2.9532  1.7741 -2.1320
25404WAT    EPW 3423  -0.700   8.353   3.144 -0.6444  0.5946 -0.7190
25405WAT      O 3424   3.487   6.640   3.426  0.5970  0.0911 -0.1957
25405WAT     H1 3425   3.576   6.613   3.450  0.5031 -0.5650 -0.5715
25405WAT     H2 3426   3.433   6.615   3.501  0.5745 -0.4122 -0.3766
25405WAT    EPW 3427   3.492   6.634   3.439  0.5817 -0.0618 -0.2692
25406WAT      O 3428  -1.915   2.460   3.228  0.1002  0.1252 -0.3259
25406WAT     H1 3429  -1.882   2.547   3.250 -3.0611  0.8052  2.6008
25406WAT     H2 3430  -1.847   2.400   3.260  1.4622  1.4376 -0.6583
25406WAT    EPW 3431  -1.902   2.464   3.235 -0.1372  0.3880  0.0162
25407WAT      O 3432   2.139   9.136   1.683  0.3100 -0.0450 -0.7188
25407WAT     H1 3433   2.227   9.170   1.667  0.3717  0.2737  0.2539
25407WAT     H2 3434   2.115   9.093   1.601  0.5755  1.6027 -1.6989
25407WAT    EPW 3435   2.147   9.135   1.670  0.3531  0.2146 -0.7198
25408WAT      O 3436   2.236   2.537   7.640  0.1418  0.2459  0.5510
25408WAT     H1 3437   2.208   2.557   7.551 -1.8997  0.8157  1.2602
25408WAT     H2 3438   2.303   2.602   7.660  0.2865  0.3999 -0.4163
25408WAT    EPW 3439   2.241   2.548   7.631 -0.1084  0.3414  0.5169
25409WAT      O 3440   7.860   2.582   0.587 -0.3795  0.3272  1.1944
25409WAT     H1 3441   7.869   2.565   0.681  1.8279  0.8005  1.1070
25409WAT     H2 3442   7.881   2.674   0.577  1.2133 -0.1191  0.0507
25409WAT    EPW 3443   7.864   2.592   0.598  0.1218  0.3308  1.0320
25410WAT      O 3444   3.613   1.838   5.515 -1.3888 -0.0742 -0.1558
25410WAT     H1 3445   3.580   1.852   5.427 -0.1993  0.6210 -0.5292
25410WAT     H2 3446   3.678   1.768   5.506  0.7768  1.8146 -0.4431
25410WAT    EPW 3447   3.617   1.831   5.503 -0.9463  0.2666 -0.2432
25411WAT      O 3448  -3.993   6.783   3.096  0.0617 -0.1564 -0.0479
25411WAT     H1 3449  -4.032   6.839   3.163  0.2596  0.0300 -0.0861
25411WAT     H2 3450  -3.904   6.767   3.127  0.0206 -0.4101 -0.0618
25411WAT    EPW 3451  -3.986   6.789   3.109  0.0824 -0.1652 -0.0548
25412WAT      O 3452   6.583   1.927   1.821  0.2718 -0.2948 -0.3093
25412WAT     H1 3453   6.524   1.880   1.763 -0.9409  2.3137 -1.3682
25412WAT     H2 3454   6.567   1.890   1.907  1.0435 -3.2565 -1.3100
25412WAT    EPW 3455   6.573   1.916   1.825  0.2136 -0.3414 -0.5810
25413WAT      O 3456   0.669   7.351   1.637 -0.3159  0.6045  0.3728
25413WAT     H1 3457   0.611   7.313   1.572  0.7740 -1.1481  0.3415
25413WAT     H2 3458   0.736   7.284   1.651  1.0717  2.0912  1.2127
25413WAT    EPW 3459   0.671   7.337   1.631  0.0109  0.5693  0.4795
25414WAT      O 3460   2.926   0.764   0.276 -0.2705 -0.0876 -0.5015
25414WAT     H1 3461   2.837   0.732   0.263 -0.0177 -0.6974 -0.7685
25414WAT     H2 3462   2.923   0.811   0.360 -1.0204  0.5770 -0.8898
25414WAT    EPW 3463   2.914   0.766   0.286 -0.3361 -0.0804 -0.5879
25415WAT      O 3464   1.383   9.694   1.238 -0.2166 -0.4273 -0.6238
25415WAT     H1 3465   1.377   9.599   1.225  1.4685 -0.8110  1.0277
25415WAT     H2 3466   1.457   9.721   1.183 -0.1256 -0.2177 -0.4012
25415WAT    EPW 3467   1.392   9.685   1.229  0.0176 -0.4501 -0.3766
25416WAT      O 3468   0.209   9.776   1.406 -0.3276  0.3970  0.2329
25416WAT     H1 3469   0.137   9.829   1.370 -2.7827 -4.4172 -3.1204
25416WAT     H2 3470   0.170   9.730   1.479 -0.0287 -0.6952 -0.2795
25416WAT    EPW 3471   0.194   9.777   1.411 -0.6120 -0.3824 -0.2769
25417WAT      O 3472  -1.982   0.895   6.236  0.1245  0.2798 -0.6388
25417WAT     H1 3473  -1.924   0.965   6.266  1.1448 -0.0533 -1.7845
25417WAT     H2 3474  -2.064   0.940   6.213  1.6058  1.6031 -3.9514
25417WAT    EPW 3475  -1.985   0.910   6.237  0.4545  0.4104 -1.2267
25418WAT      O 3476   2.734   7.295   3.156 -0.0375  0.2471  0.1398
25418WAT     H1 3477   2.781   7.223   3.197 -2.0593 -0.2084  1.8279
25418WAT     H2 3478   2.704   7.349   3.228 -1.6220  0.7742 -0.8418
25418WAT    EPW 3479   2.736   7.292   3.171 -0.5132  0.2568  0.2329
25419WAT      O 3480   0.123   2.789   2.826  0.0296  0.1253  0.2447
25419WAT     H1 3481   0.205   2.824   2.791 -0.3990  2.0485  1.0706
25419WAT     H2 3482   0.078   2.865   2.863 -2.5988 -0.6759 -1.0740
25419WAT    EPW 3483   0.128   2.803   2.826 -0.3736  0.2733  0.1796
25420WAT      O 3484  -1.826   6.222   8.086 -0.3502  0.3032 -0.2060
25420WAT     H1 3485  -1.891   6.155   8.063  0.7438  0.0886 -3.1402
25420WAT     H2 3486  -1.838   6.290   8.020 -0.3569  2.3094  1.7468
25420WAT    EPW 3487  -1.836   6.222   8.074 -0.2068  0.5395 -0.3352
25421WAT      O 3488  -1.360   6.508   7.820 -0.0063  0.0666  0.4544
25421WAT     H1 3489  -1.391   6.536   7.734 -0.3234 -2.8808 -0.4953
25421WAT     H2 3490  -1.270   6.540   7.825  1.0540 -2.0574 -2.2957
25421WAT    EPW 3491  -1.353   6.516   7.809  0.0917 -0.6022 -0.0336
25422WAT      O 3492   0.869   1.016   8.156 -0.2155 -0.2874  0.1326
25422WAT     H1 3493   0.857   1.103   8.193  1.0079 -0.6684  1.5486
25422WAT     H2 3494   0.787   0.970   8.174 -1.0117  0.6492 -0.9546
25422WAT    EPW 3495   0.857   1.021   8.164 -0.1592 -0.2140  0.1760
25423WAT      O 3496   2.057   7.993   4.072  0.3766  0.0599 -0.1797
25423WAT     H1 3497   2.000   8.063   4.041 -1.6578 -0.2510  2.4454
25423WAT     H2 3498   2.003   7.914   4.068  1.6309 -0.8257 -0.3473
25423WAT    EPW 3499   2.042   7.992   4.068  0.2738 -0.0978  0.1445
25424WAT      O 3500  -2.885   7.978   2.973 -0.5503  0.0653  0.5218
25424WAT     H1 3501  -2.844   8.063   2.988 -0.9836  0.4642 -0.4358
25424WAT     H2 3502  -2.927   7.956   3.056 -1.0228  1.1254  0.5707
25424WAT    EPW 3503  -2.885   7.986   2.986 -0.6698  0.2577  0.4020
25425WAT      O 3504   4.121   0.147   1.293  0.4863 -0.2030 -0.5183
25425WAT     H1 3505   4.180   0.133   1.367 -0.7057  1.1250  0.7701
25425WAT     H2 3506   4.057   0.076   1.299  0.1573  0.1304 -0.0094
25425WAT    EPW 3507   4.120   0.136   1.304  0.2859  0.0162 -0.2813
25426WAT      O 3508  -4.972   9.721   4.194  0.2982 -0.3633  0.5224
25426WAT     H1 3509  -4.957   9.797   4.252 -1.2916  1.1516 -0.9387
25426WAT     H2 3510  -5.059   9.736   4.158  0.5664 -2.1382 -0.9745
25426WAT    EPW 3511  -4.981   9.733   4.197  0.1240 -0.3977  0.1323
25427WAT      O 3512   2.867   6.751   5.589  0.0065 -0.4266 -0.3686
25427WAT     H1 3513   2.863   6.837   5.545  1.3736 -0.1080  0.0747
25427WAT     H2 3514   2.795   6.702   5.551 -0.0607  0.5151 -1.5352
25427WAT    EPW 3515   2.857   6.756   5.578  0.1780 -0.2604 -0.4640
25428WAT      O 3516   1.104   4.384   7.275 -0.5738 -0.0478 -0.4586
25428WAT     H1 3517   1.042   4.376   7.203 -0.2462  1.2458 -0.9128
25428WAT     H2 3518   1.076   4.463   7.322  0.4603  0.3094 -0.4215
25428WAT    EPW 3519   1.092   4.394   7.272 -0.3942  0.1700 -0.5136
25429WAT      O 3520   5.424   3.851   4.588  0.0814  0.1776 -0.5982
25429WAT     H1 3521   5.515   3.830   4.610 -0.5059 -0.8524  1.0052
25429WAT     H2 3522   5.383   3.767   4.573 -1.4553  0.2573  2.3750
25429WAT    EPW 3523   5.431   3.837   4.589 -0.1986  0.0523  0.0055
25430WAT      O 3524  -0.989   2.057   1.401 -0.0375  0.5073  0.0365
25430WAT     H1 3525  -0.981   2.064   1.496  0.2660  1.4582 -0.0539
25430WAT     H2 3526  -0.899   2.053   1.369 -0.1414 -1.4912 -0.1128
25430WAT    EPW 3527  -0.976   2.057   1.409 -0.0111  0.3692  0.0049
25431WAT      O 3528   2.708   7.514   5.447  0.6712 -0.9001  0.1847
25431WAT     H1 3529   2.772   7.484   5.512 -1.0704  0.2678  2.6385
25431WAT     H2 3530   2.625   7.475   5.475  0.1477 -2.1306 -2.7174
25431WAT    EPW 3531   2.705   7.505   5.460  0.3725 -0.9081  0.1254
25432WAT      O 3532   2.725   4.408   1.885 -0.0618 -0.4417  0.1928
25432WAT     H1 3533   2.694   4.318   1.889  0.9454 -0.7591  1.4862
25432WAT     H2 3534   2.700   4.445   1.970  1.6092 -0.2223  0.6070
25432WAT    EPW 3535   2.717   4.401   1.897  0.2915 -0.4547  0.4180
25433WAT      O 3536   2.119   9.674   6.546 -0.4506  0.2241  0.1760
25433WAT     H1 3537   2.121   9.770   6.548  0.5952  0.2123  1.0930
25433WAT     H2 3538   2.085   9.652   6.460 -1.0979  1.4224  0.1072
25433WAT    EPW 3539   2.115   9.684   6.535 -0.3980  0.3805  0.2878
25434WAT      O 3540  -1.253   8.568   4.705 -0.3221  0.3024  0.2635
25434WAT     H1 3541  -1.297   8.619   4.773 -0.8895  2.5884 -1.6679
25434WAT     H2 3542  -1.285   8.605   4.623  0.2440 -2.4151 -1.2925
25434WAT    EPW 3543  -1.263   8.580   4.703 -0.3223  0.2456 -0.1967
25435WAT      O 3544   7.601   0.460   1.001  0.1226  0.2008 -0.7509
25435WAT     H1 3545   7.625   0.465   0.908  1.0954  0.4863 -0.4879
25435WAT     H2 3546   7.681   0.481   1.048 -0.7862  1.8190  0.1498
25435WAT    EPW 3547   7.615   0.463   0.995  0.1309  0.4519 -0.5974
25436WAT      O 3548   9.606   1.524   1.081 -0.2953  0.3820 -0.5707
25436WAT     H1 3549   9.562   1.532   1.166 -0.7420 -0.1177 -0.7497
25436WAT     H2 3550   9.699   1.532   1.101 -0.3721 -0.1591  0.0234
25436WAT    EPW 3551   9.613   1.526   1.095 -0.3643  0.2447 -0.5160
25437WAT      O 3552   2.121   4.268   1.775 -0.6439 -0.2624  0.3177
25437WAT     H1 3553   2.132   4.218   1.694 -1.0113  0.2587 -0.0577
25437WAT     H2 3554   2.209   4.272   1.812 -0.4059 -0.2126 -0.2333
25437WAT    EPW 3555   2.134   4.262   1.769 -0.6610 -0.1872  0.1954
25438WAT      O 3556   2.637   5.989   8.810 -0.1349  0.3258  0.5449
25438WAT     H1 3557   2.558   6.033   8.840 -0.1760  0.6630 -0.0598
25438WAT     H2 3558   2.689   6.057   8.768  0.7447  0.2279  1.4397
25438WAT    EPW 3559   2.634   6.003   8.809 -0.0243  0.3574  0.5832
25439WAT      O 3560  -3.737   2.135   8.814 -0.3388  0.1576 -0.5391
25439WAT     H1 3561  -3.798   2.073   8.852 -0.8957  0.6672 -0.5865
25439WAT     H2 3562  -3.739   2.210   8.873  1.7448 -0.5687  0.5672
25439WAT    EPW 3563  -3.745   2.137   8.827 -0.1374  0.1291 -0.3996
25440WAT      O 3564   0.624   3.480   4.965 -0.2201 -0.2749 -0.5120
25440WAT     H1 3565   0.529   3.491   4.960 -0.1978  1.1839  1.1644
25440WAT     H2 3566   0.654   3.555   5.017  1.8454 -0.7522 -0.9221
25440WAT    EPW 3567   0.616   3.491   4.972  0.0553 -0.1454 -0.3448
25441WAT      O 3568  -3.145   8.645   3.106  0.1034  0.1989 -0.6452
25441WAT     H1 3569  -3.170   8.579   3.041 -0.1917  0.5265 -0.8649
25441WAT     H2 3570  -3.058   8.674   3.078  1.4541 -1.9931  0.9352
25441WAT    EPW 3571  -3.137   8.640   3.094  0.2425 -0.0472 -0.4658
25442WAT      O 3572  -1.109   6.718   6.090  0.4795 -0.3032 -0.2070
25442WAT     H1 3573  -1.062   6.664   6.155  3.6577  2.3105 -0.0338
25442WAT     H2 3574  -1.150   6.787   6.142 -0.0453 -0.2315 -0.7095
25442WAT    EPW 3575  -1.108   6.720   6.106  0.8295  0.0510 -0.2506
25443WAT      O 3576   1.796   2.875   7.909  0.6221 -0.3475  0.0072
25443WAT     H1 3577   1.801   2.791   7.863 -0.2413  0.3174 -1.3678
25443WAT     H2 3578   1.883   2.913   7.901  0.4976 -0.2720 -1.0426
25443WAT    EPW 3579   1.808   2.869   7.902  0.4919 -0.2499 -0.3126
25444WAT      O 3580   5.102   0.830   6.981  0.2481 -0.2704 -0.5990
25444WAT     H1 3581   5.136   0.779   7.055  0.5740  0.7887  0.0136
25444WAT     H2 3582   5.175   0.888   6.958 -1.5209  3.3270  1.8777
25444WAT    EPW 3583   5.116   0.831   6.988  0.0577  0.3437 -0.1917
25445WAT      O 3584   3.745   2.696   0.708  0.4981  0.1845  0.0369
25445WAT     H1 3585   3.730   2.673   0.799 -0.6442  1.5870  0.2540
25445WAT     H2 3586   3.732   2.791   0.705  2.3963  0.4689 -1.2337
25445WAT    EPW 3587   3.742   2.706   0.719  0.5978  0.4069 -0.1020
25446WAT      O 3588   0.636   0.416   7.580 -0.8226 -0.0637  0.4052
25446WAT     H1 3589   0.696   0.341   7.574  0.1942  0.6613  1.1416
25446WAT     H2 3590   0.551   0.377   7.601 -0.2216 -0.9909  1.1845
25446WAT    EPW 3591   0.632   0.401   7.582 -0.6092 -0.0904  0.6051
25447WAT      O 3592  -6.711   6.066   7.602 -0.1111  0.2512  0.0313
25447WAT     H1 3593  -6.640   6.122   7.634 -1.2505  1.6175  0.2441
25447WAT     H2 3594  -6.786   6.088   7.657 -0.5240 -1.7749  0.3678
25447WAT    EPW 3595  -6.712   6.076   7.613 -0.3157  0.1643  0.1037
25448WAT      O 3596   4.781   5.902   2.792  0.4268 -0.2175  0.6021
25448WAT     H1 3597   4.767   5.977   2.851 -0.4153 -0.8843  1.2742
25448WAT     H2 3598   4.734   5.925   2.712  0.0944 -0.0588  0.8393
25448WAT    EPW 3599   4.773   5.915   2.789  0.2718 -0.2847  0.7221
25449WAT      O 3600   2.341   3.033   2.943 -0.0620 -0.4021 -0.4270
25449WAT     H1 3601   2.311   3.102   2.884  2.3970  1.4003  0.2583
25449WAT     H2 3602   2.263   3.010   2.994 -2.5716 -2.7657 -4.7609
25449WAT    EPW 3603   2.327   3.039   2.942 -0.0687 -0.4761 -0.9083
25450WAT      O 3604   2.470   6.654   3.642 -0.3979 -0.2805  0.4765
25450WAT     H1 3605   2.451   6.571   3.599  1.0134 -1.4267  1.9135
25450WAT     H2 3606   2.401   6.664   3.708  0.3913 -1.2517  1.4884
25450WAT    EPW 3607   2.459   6.644   3.645 -0.1078 -0.5598  0.7995
25451WAT      O 3608  -0.238   6.453   3.721  0.2927 -0.1644 -0.4241
25451WAT     H1 3609  -0.307   6.518   3.730 -1.0736 -1.3601 -1.7140
25451WAT     H2 3610  -0.283   6.369   3.725  2.0543 -1.1357  1.6732
25451WAT    EPW 3611  -0.253   6.450   3.723  0.3449 -0.4501 -0.3175
25452WAT      O 3612  -0.894   6.524   7.637 -0.5646  0.7031 -0.1871
25452WAT     H1 3613  -0.925   6.456   7.577 -4.7473  1.0925  1.2476
25452WAT     H2 3614  -0.906   6.488   7.724  1.7919  1.5942  0.6124
25452WAT    EPW 3615  -0.899   6.510   7.640 -0.8055  0.8719  0.1073
25453WAT      O 3616  -1.887   1.336   7.855  0.7777  0.0731 -0.5437
25453WAT     H1 3617  -1.811   1.320   7.800  0.3512 -0.6009 -0.9415
25453WAT     H2 3618  -1.908   1.251   7.893 -1.2753 -0.3245 -2.3707
25453WAT    EPW 3619  -1.880   1.323   7.853  0.4507 -0.0682 -0.8371
25454WAT      O 3620   3.390   1.599   4.548 -0.0860 -0.3567  0.2547
25454WAT     H1 3621   3.428   1.686   4.536 -2.4125  0.5552 -1.0730
25454WAT     H2 3622   3.320   1.613   4.612 -2.2216 -0.6258 -1.9084
25454WAT    EPW 3623   3.386   1.613   4.555 -0.6746 -0.2720 -0.2058
25455WAT      O 3624   1.016  10.318   7.231  0.4431  0.6307  0.4337
25455WAT     H1 3625   1.026  10.231   7.194  1.6412  0.9130  0.0627
25455WAT     H2 3626   1.080  10.372   7.185 -2.5816  2.5784 -1.9220
25455WAT    EPW 3627   1.025  10.314   7.220  0.2022  0.9251  0.0741
25456WAT      O 3628   0.986   9.495   3.005 -0.1203 -0.4200 -0.0729
25456WAT     H1 3629   0.909   9.537   2.966  0.8634  3.4883  1.7259
25456WAT     H2 3630   1.052   9.498   2.935 -0.3996  0.0313 -0.3250
25456WAT    EPW 3631   0.984   9.501   2.990 -0.0274  0.1554  0.1311
25457WAT      O 3632   1.057   6.892   5.536  0.3004 -0.2518  0.0102
25457WAT     H1 3633   0.995   6.822   5.517  0.8424 -0.7132 -0.0738
25457WAT     H2 3634   1.137   6.867   5.489  0.2847  0.7734 -0.6077
25457WAT    EPW 3635   1.060   6.880   5.527  0.3698 -0.1776 -0.0825
25458WAT      O 3636  -3.856   8.441   5.018 -0.5965  0.6422 -0.5160
25458WAT     H1 3637  -3.852   8.474   4.928 -2.0127  2.1027 -0.1030
25458WAT     H2 3638  -3.941   8.398   5.024  0.1964 -0.9551 -0.3221
25458WAT    EPW 3639  -3.867   8.440   5.007 -0.6788  0.6247 -0.4358
25459WAT      O 3640   1.339   2.963   5.641 -0.0706  0.6933 -0.0328
25459WAT     H1 3641   1.318   2.873   5.668  1.4284  0.0492 -0.8692
25459WAT     H2 3642   1.386   3.000   5.715 -0.0720  0.5434  0.0443
25459WAT    EPW 3643   1.342   2.956   5.654  0.1269  0.5885 -0.1330
25460WAT      O 3644  -2.725   6.480   4.961  0.8387  1.0054  0.9504
25460WAT     H1 3645  -2.653   6.485   4.898  0.8350 -0.5903  0.7637
25460WAT     H2 3646  -2.758   6.569   4.967  0.4919  1.1512 -1.7321
25460WAT    EPW 3647  -2.720   6.492   4.953  0.7925  0.8142  0.5720
25461WAT      O 3648  -1.130   4.505   3.864  0.5707 -0.1218 -0.2340
25461WAT     H1 3649  -1.096   4.451   3.792  0.9743  1.5618 -1.3632
25461WAT     H2 3650  -1.060   4.568   3.882  0.5160 -0.5433  1.7380
25461WAT    EPW 3651  -1.116   4.506   3.857  0.6167  0.0446 -0.1229
25462WAT      O 3652   3.283   5.371   5.959 -0.1717  0.0960 -0.4405
25462WAT     H1 3653   3.243   5.373   6.046  1.3667  0.3854  0.2942
25462WAT     H2 3654   3.338   5.293   5.959  1.1117  0.9597 -0.5214
25462WAT    EPW 3655   3.285   5.361   5.970  0.2005  0.2477 -0.3543
25463WAT      O 3656   4.135   6.198   2.025 -0.4559 -0.0693  0.5207
25463WAT     H1 3657   4.101   6.116   1.987  0.9987  0.2632 -1.6563
25463WAT     H2 3658   4.222   6.207   1.987 -0.0896  1.8618  1.7373
25463WAT    EPW 3659   4.142   6.188   2.015 -0.2158  0.2294  0.3940
25464WAT      O 3660   2.048   0.550   5.216 -0.2573 -0.2892 -1.1787
25464WAT     H1 3661   2.059   0.643   5.236  1.1115 -0.6267 -0.2943
25464WAT     H2 3662   2.118   0.530   5.154  1.7121 -1.4956  1.2894
25464WAT    EPW 3663   2.058   0.560   5.211  0.1829 -0.4928 -0.7365
25465WAT      O 3664   2.813   8.820   4.866 -0.2953  0.3576  0.2024
25465WAT     H1 3665   2.865   8.893   4.832 -1.2865  0.5201 -0.9994
25465WAT     H2 3666   2.787   8.848   4.953 -1.3129  1.7885 -0.5333
25465WAT    EPW 3667   2.817   8.833   4.873 -0.5603  0.5674 -0.0532
25466WAT      O 3668   4.860   7.390   1.412 -0.2669 -0.1630 -0.3560
25466WAT     H1 3669   4.808   7.324   1.368  0.6622 -0.1967 -1.4404
25466WAT     H2 3670   4.910   7.341   1.478  0.9902 -0.6964 -1.6645
25466WAT    EPW 3671   4.860   7.375   1.415  0.0215 -0.2377 -0.6716
25467WAT      O 3672   2.071   3.195   7.073  0.2190  0.1715  0.9004
25467WAT     H1 3673   2.058   3.116   7.020  0.9703 -1.3729  2.8499
25467WAT     H2 3674   1.989   3.206   7.121 -0.0060  0.8059  0.3845
25467WAT    EPW 3675   2.059   3.186   7.073  0.2885  0.0515  1.0893
25468WAT      O 3676   3.636   6.975   0.856 -0.2920  0.9053 -0.3458
25468WAT     H1 3677   3.645   6.967   0.951  0.5330  1.5086 -0.3662
25468WAT     H2 3678   3.698   6.911   0.820  0.3849  1.6160 -0.4717
25468WAT    EPW 3679   3.645   6.965   0.864 -0.0939  1.0786 -0.3651
25469WAT      O 3680  -2.136   8.320   3.695  0.3083  0.3403  0.2099
25469WAT     H1 3681  -2.091   8.274   3.766 -1.4583  2.3836  2.8809
25469WAT     H2 3682  -2.070   8.379   3.658  0.7458  0.8942  1.7938
25469WAT    EPW 3683  -2.121   8.322   3.700  0.1330  0.6828  0.7710
25470WAT      O 3684   2.314   7.680   3.579 -0.2504 -0.1462  0.0957
25470WAT     H1 3685   2.236   7.639   3.615 -0.8076  0.1219 -0.7677
25470WAT     H2 3686   2.304   7.671   3.484  0.2529  0.8021 -0.0643
25470WAT    EPW 3687   2.302   7.673   3.571 -0.2575  0.0143 -0.0393
25471WAT      O 3688  -3.178   8.880   6.706 -1.1464  0.2530  0.2979
25471WAT     H1 3689  -3.143   8.892   6.618  1.8938 -3.2435  0.7927
25471WAT     H2 3690  -3.127   8.808   6.743 -1.7188  1.9618  5.2421
25471WAT    EPW 3691  -3.167   8.872   6.699 -0.8209  0.0176  1.0154
25472WAT      O 3692   4.943   0.586   3.206 -0.3877  0.1765 -0.9531
25472WAT     H1 3693   5.020   0.580   3.150 -0.3198  0.3029 -0.8763
25472WAT     H2 3694   4.873   0.543   3.157 -0.0544 -0.7336 -0.6418
25472WAT    EPW 3695   4.944   0.580   3.192 -0.3347  0.0731 -0.9019
25473WAT      O 3696  -4.819   9.306   6.354  0.3733 -0.6543  0.6642
25473WAT     H1 3697  -4.897   9.256   6.376 -1.1238  1.6309  0.9132
25473WAT     H2 3698  -4.807   9.292   6.260 -0.7568 -0.4859  0.4867
25473WAT    EPW 3699  -4.828   9.298   6.344  0.0269 -0.3304  0.6738
25474WAT      O 3700   0.538   2.069   8.391  0.2225  0.2457  0.4054
25474WAT     H1 3701   0.525   1.975   8.405  0.6079  0.3096  1.3099
25474WAT     H2 3702   0.453   2.108   8.413  0.6943  0.2979  2.3000
25474WAT    EPW 3703   0.525   2.061   8.396  0.3356  0.2611  0.7744
25475WAT      O 3704   0.063   5.168   7.390 -0.3181  0.5718 -0.4229
25475WAT     H1 3705   0.031   5.257   7.375 -1.0359 -0.0868 -3.2105
25475WAT     H2 3706  -0.004   5.111   7.351 -0.6717 -1.3484  2.6510
25475WAT    EPW 3707   0.050   5.173   7.383 -0.4594  0.2315 -0.3850
25476WAT      O 3708   5.543   0.340   3.594 -0.0394  0.4246 -0.1917
25476WAT     H1 3709   5.549   0.259   3.542 -2.5078  0.0522 -0.0156
25476WAT     H2 3710   5.450   0.349   3.613  0.2510  3.0033  0.3486
25476WAT    EPW 3711   5.532   0.330   3.589 -0.3266  0.7156 -0.0973
25477WAT      O 3712   2.748   3.276   3.091 -0.1212  0.2732  0.4620
25477WAT     H1 3713   2.680   3.210   3.076 -1.2544  1.2651  1.0552
25477WAT     H2 3714   2.770   3.268   3.183  2.5098 -1.7879 -0.2468
25477WAT    EPW 3715   2.742   3.266   3.101  0.0764  0.1322  0.4468
25478WAT      O 3716  -5.031   9.571   5.519  0.1844 -0.2647 -1.1278
25478WAT     H1 3717  -5.085   9.570   5.441  0.0041  1.0164 -1.0279
25478WAT     H2 3718  -5.028   9.479   5.547 -1.6860 -0.4006 -1.2882
25478WAT    EPW 3719  -5.037   9.559   5.513 -0.0861 -0.1135 -1.1358
25479WAT      O 3720   0.300   4.299   1.092  0.6122 -0.2219 -0.4705
25479WAT     H1 3721   0.392   4.302   1.118  0.3498  0.6105  0.3966
25479WAT     H2 3722   0.275   4.208   1.107  0.8341 -0.0669  0.9573
25479WAT    EPW 3723   0.309   4.287   1.098  0.6068 -0.0916 -0.1678
25480WAT      O 3724   0.739   4.536   8.891  0.1895  0.3767  0.4339
25480WAT     H1 3725   0.648   4.543   8.863  0.8972  3.5616 -1.6611
25480WAT     H2 3726   0.776   4.467   8.837 -0.9139 -0.9222  1.2819
25480WAT    EPW 3727   0.732   4.528   8.880  0.1373  0.6254  0.2694
25481WAT      O 3728  -2.932   9.221   4.796  0.8370  0.0910 -0.0364
25481WAT     H1 3729  -2.860   9.166   4.827 -1.8613 -2.6846  1.9321
25481WAT     H2 3730  -2.921   9.304   4.841  2.2362 -0.6328  1.0178
25481WAT    EPW 3731  -2.921   9.225   4.806  0.6655 -0.3705  0.3624
25482WAT      O 3732   2.495   0.220   4.129 -0.4341  0.0618 -0.2656
25482WAT     H1 3733   2.477   0.239   4.037  2.4660 -1.1725 -1.2083
25482WAT     H2 3734   2.452   0.291   4.177  1.1157  2.9851 -2.8244
25482WAT    EPW 3735   2.487   0.232   4.123  0.1528  0.2846 -0.7274
25483WAT      O 3736   9.407   0.761   1.396  0.4957  0.0535  0.5134
25483WAT     H1 3737   9.428   0.762   1.303  0.8277  0.8725  0.5960
25483WAT     H2 3738   9.416   0.669   1.421 -2.1989 -0.6741 -0.8365
25483WAT    EPW 3739   9.411   0.749   1.387  0.1841  0.0656  0.3462
25484WAT      O 3740   2.512   2.237   8.170  0.9087  0.0469  0.4525
25484WAT     H1 3741   2.463   2.308   8.129  0.2313 -0.6033  0.1195
25484WAT     H2 3742   2.602   2.249   8.140  0.4449 -0.3738 -1.1778
25484WAT    EPW 3743   2.517   2.248   8.161  0.7582 -0.0944  0.1936
25485WAT      O 3744   5.114   8.534   1.933 -0.0322  0.0035 -0.1250
25485WAT     H1 3745   5.130   8.565   2.022  1.9182 -1.4832  0.0908
25485WAT     H2 3746   5.027   8.494   1.937  0.1500 -0.3034  1.1704
25485WAT    EPW 3747   5.105   8.533   1.945  0.2491 -0.2332  0.0743
25486WAT      O 3748   1.613   5.537   7.665 -0.1123  0.4998  0.8852
25486WAT     H1 3749   1.622   5.453   7.710  1.0639  0.0902 -0.0557
25486WAT     H2 3750   1.659   5.600   7.721  0.5777  0.1655  0.6952
25486WAT    EPW 3751   1.620   5.534   7.678  0.1339  0.4015  0.7362
25487WAT      O 3752   1.801   0.373   8.958 -0.2331 -0.2894  0.2156
25487WAT     H1 3753   1.838   0.291   8.925  0.5931  0.6461 -1.2954
25487WAT     H2 3754   1.709   0.371   8.930 -0.2853 -0.7878  0.4009
25487WAT    EPW 3755   1.794   0.362   8.950 -0.1310 -0.2318  0.0405
25488WAT      O 3756   6.517   1.142   6.515  0.3481  0.3036  0.2361
25488WAT     H1 3757   6.572   1.198   6.460  0.0312  0.9924  0.6191
25488WAT     H2 3758   6.563   1.138   6.599  1.4309 -1.6711 -0.3774
25488WAT    EPW 3759   6.531   1.149   6.519  0.4489  0.1341  0.2058
25489WAT      O 3760   2.407   4.354   7.603 -0.2222 -0.2722 -0.4051
25489WAT     H1 3761   2.386   4.307   7.523 -2.1575 -0.6307  0.2496
25489WAT     H2 3762   2.361   4.306   7.672  0.4249  0.7057  0.7527
25489WAT    EPW 3763   2.398   4.341   7.602 -0.3921 -0.1903 -0.1659
25490WAT      O 3764   2.563   9.143   7.008 -0.7052  0.1554  0.2371
25490WAT     H1 3765   2.541   9.145   6.914 -0.9112  1.0157  0.2969
25490WAT     H2 3766   2.518   9.065   7.041  0.2953 -0.8185 -0.5896
25490WAT    EPW 3767   2.554   9.133   7.000 -0.6003  0.1402  0.1357
25491WAT      O 3768   4.305   5.169   5.697 -0.1256 -0.2009  0.5244
25491WAT     H1 3769   4.273   5.180   5.787  0.8546  1.8565  0.6832
25491WAT     H2 3770   4.235   5.122   5.653 -0.7714 -0.9826  2.2800
25491WAT    EPW 3771   4.292   5.165   5.703 -0.0815 -0.0329  0.7770
25492WAT      O 3772  -0.865   5.905   0.084 -0.1522  0.6184  0.6315
25492WAT     H1 3773  -0.910   5.943   0.159  0.4996  1.1846  0.7413
25492WAT     H2 3774  -0.776   5.941   0.088  0.1482 -0.0339  0.0926
25492WAT    EPW 3775  -0.859   5.914   0.095 -0.0266  0.6070  0.5749
25493WAT      O 3776   6.640   3.779   3.813 -0.0021 -1.0320  0.2400
25493WAT     H1 3777   6.679   3.692   3.818 -1.0853 -1.6749 -1.6472
25493WAT     H2 3778   6.653   3.807   3.723 -0.8495  0.2017  0.4612
25493WAT    EPW 3779   6.647   3.772   3.802 -0.2565 -0.9540  0.0203
25494WAT      O 3780   2.275   4.069   6.280 -0.0869  0.2133  0.3413
25494WAT     H1 3781   2.308   4.151   6.319 -1.9253  0.4217  1.5807
25494WAT     H2 3782   2.212   4.098   6.214  0.3413 -0.2052 -0.2609
25494WAT    EPW 3783   2.271   4.084   6.276 -0.2730  0.1855  0.4251
25495WAT      O 3784  -1.355   2.598   7.917  0.4050  0.6039  1.0516
25495WAT     H1 3785  -1.334   2.643   7.999  2.9317  1.2516  0.1334
25495WAT     H2 3786  -1.289   2.529   7.910  0.0363  0.3646 -0.2789
25495WAT    EPW 3787  -1.344   2.595   7.927  0.6896  0.6578  0.7551
25496WAT      O 3788   3.403   1.893   7.351 -0.7419 -0.0731  0.4457
25496WAT     H1 3789   3.459   1.817   7.366 -1.1861 -0.5127 -0.0993
25496WAT     H2 3790   3.413   1.912   7.258 -2.4343 -0.9278  0.0439
25496WAT    EPW 3791   3.412   1.885   7.340 -1.0237 -0.2439  0.3207
25497WAT      O 3792   3.486   4.626   5.706  0.4332  0.1404  0.6562
25497WAT     H1 3793   3.440   4.701   5.668 -1.2646 -1.6660 -1.1245
25497WAT     H2 3794   3.461   4.553   5.650  0.9338 -2.0290  3.1063
25497WAT    EPW 3795   3.477   4.627   5.693  0.2753 -0.3839  0.7446
25498WAT      O 3796   4.092   2.482   6.310 -0.5638 -0.6012  0.0605
25498WAT     H1 3797   4.001   2.471   6.283 -0.5150 -0.6969 -0.0695
25498WAT     H2 3798   4.133   2.398   6.289 -0.8728 -1.2601  1.8603
25498WAT    EPW 3799   4.085   2.469   6.304 -0.5980 -0.7008  0.2809
25499WAT      O 3800   4.270   0.489   0.232  0.6401  0.6890 -0.3971
25499WAT     H1 3801   4.343   0.434   0.203 -0.1737 -0.6971  0.1334
25499WAT     H2 3802   4.193   0.434   0.224 -0.1971  1.7246  0.2513
25499WAT    EPW 3803   4.270   0.475   0.227  0.4225  0.6428 -0.2416
25500WAT      O 3804   2.857   2.996   2.685  0.2968  0.1988  0.2485
25500WAT     H1 3805   2.851   2.988   2.780 -2.8048  1.8002  0.3218
25500WAT     H2 3806   2.785   3.055   2.661  1.3880  0.4337 -3.0463
25500WAT    EPW 3807   2.847   3.003   2.694  0.0316  0.4411 -0.1764
25501WAT      O 3808   2.072   2.938   8.703 -0.2197  0.1974  0.1565
25501WAT     H1 3809   2.100   2.997   8.773 -0.7749  0.4951  0.1300
25501WAT     H2 3810   1.978   2.928   8.716  0.0917 -2.0473  1.2075
25501WAT    EPW 3811   2.063   2.944   8.714 -0.2519 -0.0594  0.2913
25502WAT      O 3812  -0.357   4.193   7.525  0.4772  0.2595 -1.0207
25502WAT     H1 3813  -0.338   4.195   7.432  0.1063 -0.3744 -1.1133
25502WAT     H2 3814  -0.373   4.101   7.545  0.7768  0.3573 -0.2861
25502WAT    EPW 3815  -0.357   4.181   7.516  0.4678  0.1888 -0.9360
25503WAT      O 3816  -4.122   8.846   1.890  0.6119  0.2985 -0.4755
25503WAT     H1 3817  -4.094   8.754   1.894  0.5148  0.3190  1.2076
25503WAT     H2 3818  -4.044   8.893   1.863  0.8621 -0.1901 -0.6251
25503WAT    EPW 3819  -4.108   8.840   1.887  0.6318  0.2365 -0.2732
25504WAT      O 3820   3.891   1.967   6.014 -0.2330 -0.6261  0.4001
25504WAT     H1 3821   3.873   1.885   6.060 -0.2296 -0.4832  0.6573
25504WAT     H2 3822   3.877   2.035   6.079 -2.1205 -0.2776 -0.2984
25504WAT    EPW 3823   3.886   1.965   6.028 -0.4815 -0.5613  0.3419
25505WAT      O 3824   5.501   1.680   2.600  0.0789  0.1371  0.5816
25505WAT     H1 3825   5.499   1.765   2.556  2.6573  1.6051  2.9634
25505WAT     H2 3826   5.571   1.632   2.556  0.9412  0.6225  1.3922
25505WAT    EPW 3827   5.510   1.685   2.588  0.5326  0.3948  1.0027
25506WAT      O 3828   3.718   3.815   0.057  0.4337  0.7305  0.5046
25506WAT     H1 3829   3.635   3.770   0.066  0.2965  0.6146 -0.9957
25506WAT     H2 3830   3.708   3.896   0.108  0.5905 -0.7253  2.9984
25506WAT    EPW 3831   3.706   3.820   0.065  0.4362  0.5232  0.6356
25507WAT      O 3832   0.196   3.256   4.619 -0.2676  0.5196  0.0719
25507WAT     H1 3833   0.150   3.247   4.536 -2.2680 -1.3791  1.2810
25507WAT     H2 3834   0.279   3.211   4.604 -1.3760 -1.4832 -0.4084
25507WAT    EPW 3835   0.201   3.249   4.606 -0.6776  0.0050  0.1681
25508WAT      O 3836  -1.201   9.092   4.572  0.6695 -0.2232 -0.1266
25508WAT     H1 3837  -1.228   9.074   4.483 -0.5830 -0.2686  0.2490
25508WAT     H2 3838  -1.283   9.102   4.621  1.3287  0.2676  0.9197
25508WAT    EPW 3839  -1.215   9.091   4.567  0.5913 -0.1645  0.0608
25509WAT      O 3840  -0.440   5.758   8.918 -0.1921  0.1796  0.3421
25509WAT     H1 3841  -0.515   5.812   8.942  0.2441  0.4573  1.1086
25509WAT     H2 3842  -0.379   5.767   8.992  1.0947  0.8821 -0.7510
25509WAT    EPW 3843  -0.442   5.766   8.931  0.0351  0.3088  0.2990
25510WAT      O 3844   8.305   2.358   0.749 -0.1564  0.1782  0.5599
25510WAT     H1 3845   8.285   2.388   0.660 -0.6098  1.3479  1.0304
25510WAT     H2 3846   8.257   2.418   0.806 -0.8843 -1.3164  1.5880
25510WAT    EPW 3847   8.296   2.370   0.745 -0.3123  0.1353  0.7576
25511WAT      O 3848   3.192   1.759   6.930  0.1631  0.3772 -0.3523
25511WAT     H1 3849   3.250   1.831   6.957 -0.4135 -0.2800  3.1423
25511WAT     H2 3850   3.144   1.793   6.855  1.5517  2.7470 -0.2618
25511WAT    EPW 3851   3.193   1.773   6.924  0.2702  0.6031  0.1206
25512WAT      O 3852   4.139   3.460   5.696 -0.0892 -0.4683 -0.6689
25512WAT     H1 3853   4.127   3.550   5.667 -1.9093 -0.2754  0.5431
25512WAT     H2 3854   4.234   3.450   5.704  0.1258  1.5273 -0.2275
25512WAT    EPW 3855   4.150   3.470   5.693 -0.3009 -0.1798 -0.4508
25513WAT      O 3856  -1.218   3.767   4.241  0.3249 -0.7910 -0.7718
25513WAT     H1 3857  -1.313   3.768   4.231  0.2211  1.5293 -0.0324
25513WAT     H2 3858  -1.204   3.734   4.330  0.2925 -1.7816 -1.1122
25513WAT    EPW 3859  -1.228   3.763   4.252  0.3069 -0.6156 -0.7193
25514WAT      O 3860   0.859   3.352   1.676 -0.5204 -0.3796 -0.0099
25514WAT     H1 3861   0.953   3.358   1.694 -0.9287  0.4913  2.2116
25514WAT     H2 3862   0.841   3.426   1.618 -0.0200  0.2084  0.5649
25514WAT    EPW 3863   0.869   3.363   1.671 -0.5083 -0.1873  0.3589
25515WAT      O 3864  -5.679   9.782   5.836  0.1798 -0.4465  0.1021
25515WAT     H1 3865  -5.755   9.831   5.804 -1.0083 -1.5609  1.1074
25515WAT     H2 3866  -5.670   9.810   5.927  2.8589  1.8897 -0.7459
25515WAT    EPW 3867  -5.688   9.792   5.844  0.3765 -0.2856  0.1228
25516WAT      O 3868   2.512   2.901   1.547 -0.2198 -0.3184 -0.6281
25516WAT     H1 3869   2.440   2.892   1.610 -0.0781  0.8198 -0.2985
25516WAT     H2 3870   2.541   2.992   1.555  0.4233 -0.4132 -1.6690
25516WAT    EPW 3871   2.506   2.912   1.556 -0.1163 -0.1808 -0.7219
25517WAT      O 3872  -3.770   6.749   8.512  0.2692  0.0276 -0.1066
25517WAT     H1 3873  -3.861   6.731   8.537  0.1434 -1.4629 -1.4639
25517WAT     H2 3874  -3.777   6.795   8.429  0.7163 -1.7488 -1.1973
25517WAT    EPW 3875  -3.783   6.752   8.504  0.3116 -0.4034 -0.4296
25518WAT      O 3876   4.678   4.614   4.694  0.7142  0.3341  0.0857
25518WAT     H1 3877   4.648   4.536   4.741  0.3933 -1.3180 -2.6740
25518WAT     H2 3878   4.625   4.685   4.731 -1.2265 -1.2640  0.5410
25518WAT    EPW 3879   4.667   4.613   4.705  0.4160 -0.0947 -0.2184
25519WAT      O 3880  -1.980   8.787   6.292 -0.7923  0.0623  0.1916
25519WAT     H1 3881  -2.039   8.847   6.246  1.2084  0.6880 -1.7566
25519WAT     H2 3882  -2.009   8.700   6.267 -1.9313  0.2812  0.6901
25519WAT    EPW 3883  -1.992   8.784   6.283 -0.6787  0.1736  0.0005
25520WAT      O 3884   4.909   8.469   0.055 -0.3892 -0.2216 -0.2427
25520WAT     H1 3885   4.944   8.382   0.073  2.2937  0.7150 -0.4197
25520WAT     H2 3886   4.920   8.517   0.137  1.2425  0.8205 -1.0100
25520WAT    EPW 3887   4.915   8.464   0.068  0.1800  0.0396 -0.3672
25521WAT      O 3888   2.887   6.366   4.394 -0.0197 -0.3734  0.7692
25521WAT     H1 3889   2.965   6.354   4.339 -0.3068  0.1189  0.2546
25521WAT     H2 3890   2.875   6.281   4.436  1.9915  0.0850  2.4396
25521WAT    EPW 3891   2.896   6.353   4.392  0.2077 -0.2480  0.9217
25522WAT      O 3892   2.746   1.484   1.355  0.1079 -0.0215  0.5038
25522WAT     H1 3893   2.819   1.428   1.381 -2.7376 -3.5719  1.7847
25522WAT     H2 3894   2.742   1.476   1.260  1.4197  0.3700  0.3964
25522WAT    EPW 3895   2.755   1.475   1.346 -0.0944 -0.4382  0.6585
25523WAT      O 3896   6.839   3.756   0.785 -0.3895  0.5365 -0.3309
25523WAT     H1 3897   6.865   3.698   0.713  1.2003 -0.4862  0.9988
25523WAT     H2 3898   6.806   3.835   0.741  1.5316  0.3907 -2.2070
25523WAT    EPW 3899   6.838   3.759   0.770  0.0737  0.3824 -0.4030
25524WAT      O 3900   8.923   3.519   0.068 -0.5998 -0.4529 -0.2857
25524WAT     H1 3901   8.850   3.580   0.058 -0.4155 -0.5206 -2.2619
25524WAT     H2 3902   8.965   3.516  -0.018  0.8770 -1.5182  0.4163
25524WAT    EPW 3903   8.919   3.527   0.056 -0.3810 -0.6024 -0.4538
25525WAT      O 3904   4.422   8.194   3.453 -0.3814 -0.3265 -0.3246
25525WAT     H1 3905   4.352   8.202   3.518 -0.7155 -0.9562 -0.5959
25525WAT     H2 3906   4.376   8.181   3.370  0.0509 -0.7649 -0.5017
25525WAT    EPW 3907   4.407   8.193   3.451 -0.3684 -0.4673 -0.3837
25526WAT      O 3908   4.815   3.953   5.311 -0.9983 -0.6584 -0.7783
25526WAT     H1 3909   4.784   3.999   5.233  2.6336  3.0754 -0.3473
25526WAT     H2 3910   4.910   3.943   5.297  0.2478  2.0313  3.8053
25526WAT    EPW 3911   4.824   3.958   5.299 -0.3550  0.1888 -0.1168
25527WAT      O 3912   6.052   4.335   3.993 -0.2997 -0.7679  0.3418
25527WAT     H1 3913   6.061   4.390   3.915 -2.3013 -2.7984 -1.4880
25527WAT     H2 3914   5.991   4.383   4.049  2.7481  1.7305  1.8354
25527WAT    EPW 3915   6.045   4.349   3.990 -0.1619 -0.7062  0.2975
25528WAT      O 3916   2.429   8.405   3.099 -0.3071  0.2808 -0.5552
25528WAT     H1 3917   2.506   8.444   3.140 -1.5554  0.9793  1.2648
25528WAT     H2 3918   2.380   8.478   3.063 -0.9894  0.0641 -0.1044
25528WAT    EPW 3919   2.432   8.420   3.100 -0.5617  0.3443 -0.2557
25529WAT      O 3920   0.247   7.420   0.989  0.3011 -0.2921  0.3537
25529WAT     H1 3921   0.163   7.382   0.964  1.4134 -3.3414  0.8576
25529WAT     H2 3922   0.252   7.406   1.083  1.3408 -0.0555  0.3424
25529WAT    EPW 3923   0.236   7.413   0.998  0.5849 -0.6633  0.4187
25530WAT      O 3924   1.513   6.744   3.536  0.2334  0.6632 -0.5030
25530WAT     H1 3925   1.553   6.679   3.594  0.3195 -0.1438 -1.4403
25530WAT     H2 3926   1.565   6.739   3.455  0.0486  1.6890 -0.6967
25530WAT    EPW 3927   1.525   6.734   3.533  0.2204  0.6921 -0.6521
25531WAT      O 3928   4.111   5.502   0.275  0.0989  0.0313 -0.4935
25531WAT     H1 3929   4.147   5.434   0.332 -1.5297  0.7873  1.5591
25531WAT     H2 3930   4.147   5.482   0.188  0.5856 -2.7666  0.2500
25531WAT    EPW 3931   4.120   5.490   0.271 -0.0517 -0.2379 -0.1247
25532WAT      O 3932  -3.232   4.245   7.362 -0.5025 -0.2581 -0.8150
25532WAT     H1 3933  -3.220   4.213   7.451  0.9379 -1.1142 -1.2836
25532WAT     H2 3934  -3.152   4.220   7.316  0.4625  3.4097 -1.4460
25532WAT    EPW 3935  -3.220   4.237   7.367 -0.1851  0.1125 -0.9601
25533WAT      O 3936  -5.738   8.900   6.536  0.5649  0.1739 -0.6756
25533WAT     H1 3937  -5.734   8.808   6.509 -2.0650  0.1499 -1.2673
25533WAT     H2 3938  -5.703   8.948   6.461 -1.7685 -0.1959 -2.1009
25533WAT    EPW 3939  -5.733   8.894   6.522 -0.0896  0.1216 -0.9418
25534WAT      O 3940  -6.724  10.008   8.009  0.4792 -0.6623  0.0251
25534WAT     H1 3941  -6.708   9.921   7.974 -2.2709 -1.2347 -0.0157
25534WAT     H2 3942  -6.776   9.993   8.088  1.0132  0.9165  0.7265
25534WAT    EPW 3943  -6.729   9.995   8.015  0.1869 -0.5298  0.1121
25535WAT      O 3944   0.844   6.454   5.480  0.3504 -0.1688  0.4278
25535WAT     H1 3945   0.854   6.495   5.394 -2.2909 -2.8003 -1.3160
25535WAT     H2 3946   0.764   6.493   5.515  0.2413 -0.6838  0.7473
25535WAT    EPW 3947   0.835   6.465   5.473 -0.0124 -0.5839  0.2398
25536WAT      O 3948   1.198   2.932   8.743  0.1659 -0.2032 -0.2958
25536WAT     H1 3949   1.249   2.865   8.698  0.1240  1.0927 -2.4118
25536WAT     H2 3950   1.222   2.923   8.835 -1.8909 -4.9206  0.0657
25536WAT    EPW 3951   1.208   2.922   8.749 -0.1109 -0.6545 -0.5269
25537WAT      O 3952  -1.447   5.656   7.936 -0.5336  0.1647  0.1913
25537WAT     H1 3953  -1.501   5.654   7.857 -0.8408  1.2113  0.3654
25537WAT     H2 3954  -1.476   5.734   7.983 -0.8490 -0.8194  1.6998
25537WAT    EPW 3955  -1.458   5.666   7.932 -0.6157  0.1731  0.4132
25538WAT      O 3956  -0.307   3.091   2.336 -0.1920  0.8315 -0.4160
25538WAT     H1 3957  -0.284   3.172   2.383 -2.4739  1.6295 -0.5482
25538WAT     H2 3958  -0.359   3.041   2.400  1.0628 -0.5109 -0.3893
25538WAT    EPW 3959  -0.311   3.095   2.351 -0.3275  0.7597 -0.4300
25539WAT      O 3960  -1.625   7.760   5.670 -0.6041 -0.0860 -0.4932
25539WAT     H1 3961  -1.687   7.830   5.652 -1.2467 -0.7937 -1.1537
25539WAT     H2 3962  -1.539   7.800   5.658 -0.8695  1.1383  1.2921
25539WAT    EPW 3963  -1.622   7.774   5.666 -0.7239 -0.0179 -0.3450
25540WAT      O 3964   6.603   3.654   0.024  0.2656 -0.5734 -0.6163
25540WAT     H1 3965   6.627   3.744  -0.000  1.1065 -0.4767  0.5004
25540WAT     H2 3966   6.519   3.664   0.070  2.0238  0.1781  2.7432
25540WAT    EPW 3967   6.595   3.667   0.027  0.6084 -0.4616 -0.0259
25541WAT      O 3968   4.405   7.446   3.438  0.3667 -0.2062 -0.5692
25541WAT     H1 3969   4.495   7.414   3.440  0.4529 -0.1889 -2.3211
25541WAT     H2 3970   4.409   7.527   3.387 -0.6185 -0.1514 -0.5882
25541WAT    EPW 3971   4.417   7.453   3.431  0.2482 -0.1967 -0.8028
25542WAT      O 3972   3.711   4.692   8.828 -0.5284 -0.7758  0.1161
25542WAT     H1 3973   3.771   4.754   8.787 -2.8214 -0.2341 -2.6825
25542WAT     H2 3974   3.743   4.606   8.799 -1.1331 -0.4827 -1.5277
25542WAT    EPW 3975   3.723   4.689   8.819 -0.9106 -0.6659 -0.4702
25543WAT      O 3976   0.539   8.426   0.209 -0.2702  0.7731  0.0158
25543WAT     H1 3977   0.572   8.425   0.120 -1.0144 -1.2413 -0.2909
25543WAT     H2 3978   0.444   8.422   0.200 -0.3275 -1.4418  0.8248
25543WAT    EPW 3979   0.531   8.425   0.196 -0.3759  0.2155  0.0821
25544WAT      O 3980   6.526   0.725   1.247  0.0665 -0.3626 -0.3768
25544WAT     H1 3981   6.613   0.693   1.225  0.9239  0.8541  1.0409
25544WAT     H2 3982   6.516   0.804   1.194 -1.5075 -2.1053 -2.8778
25544WAT    EPW 3983   6.536   0.731   1.237 -0.0281 -0.4320 -0.5196
25545WAT      O 3984   2.107   3.303   4.032  0.6128  0.1599 -0.5753
25545WAT     H1 3985   2.048   3.373   4.002 -0.0592 -0.0661  0.1752
25545WAT     H2 3986   2.195   3.340   4.022  0.4596 -0.0622 -3.1730
25545WAT    EPW 3987   2.111   3.317   4.027  0.5040  0.1009 -0.8192
25546WAT      O 3988   3.952   3.284   0.927  0.5874 -0.0523 -1.1145
25546WAT     H1 3989   3.869   3.242   0.902 -0.0508  1.7804 -2.2896
25546WAT     H2 3990   3.952   3.280   1.023  1.3271 -3.9893 -1.0958
25546WAT    EPW 3991   3.941   3.278   0.937  0.6008 -0.3299 -1.2670
25547WAT      O 3992   9.436   1.592   0.121 -0.0027 -0.0027 -0.3836
25547WAT     H1 3993   9.497   1.646   0.071 -0.2863 -0.3858 -1.1585
25547WAT     H2 3994   9.350   1.610   0.082 -0.1546 -0.7047 -0.3870
25547WAT    EPW 3995   9.433   1.602   0.109 -0.0601 -0.1459 -0.4862
25548WAT      O 3996  -0.215   7.700   0.064 -0.2385 -0.4361  0.2901
25548WAT     H1 3997  -0.238   7.655  -0.017 -1.2272 -1.5775  1.1605
25548WAT     H2 3998  -0.137   7.653   0.096  1.2140  1.1068 -0.8183
25548WAT    EPW 3999  -0.208   7.688   0.058 -0.1773 -0.3831  0.2587
25549WAT      O 4000  -2.656   8.531   2.458  0.1785  0.2649 -0.5064
25549WAT     H1 4001  -2.729   8.526   2.520  0.1715  2.3352 -0.2861
25549WAT     H2 4002  -2.588   8.578   2.505  1.3838 -0.9208 -1.0077
25549WAT    EPW 4003  -2.657   8.536   2.472  0.3366  0.3819 -0.5435
25550WAT      O 4004  -2.710   6.461   1.058 -0.0315 -0.3194 -0.1110
25550WAT     H1 4005  -2.763   6.503   0.990 -3.1018 -0.3035  2.0420
25550WAT     H2 4006  -2.666   6.533   1.102 -0.2187 -0.0471 -0.3618
25550WAT    EPW 4007  -2.712   6.476   1.055 -0.4611 -0.2813  0.1398
25551WAT      O 4008  -0.839   0.520   3.143  0.1029  0.1659 -0.3199
25551WAT     H1 4009  -0.787   0.560   3.074 -3.2291  1.1289 -2.5174
25551WAT     H2 4010  -0.805   0.559   3.224  0.5914  3.3284 -1.8971
25551WAT    EPW 4011  -0.828   0.530   3.145 -0.2722  0.7101 -0.8178
25552WAT      O 4012  -6.244   6.515   8.303  0.4685  0.5003  0.0040
25552WAT     H1 4013  -6.225   6.519   8.209 -0.4491  1.9588 -0.1442
25552WAT     H2 4014  -6.259   6.422   8.320  1.1326  0.1537 -1.1796
25552WAT    EPW 4015  -6.244   6.503   8.293  0.4354  0.6468 -0.1717
25553WAT      O 4016   7.074   5.054   2.032 -0.6115  0.1211 -0.3481
25553WAT     H1 4017   6.983   5.063   2.005  0.0542 -0.4307 -3.1470
25553WAT     H2 4018   7.077   4.970   2.077 -1.4096 -0.1201 -0.7215
25553WAT    EPW 4019   7.062   5.044   2.034 -0.6292  0.0162 -0.7665
25554WAT      O 4020   0.319   3.441   7.568 -0.2316  0.0429 -0.1043
25554WAT     H1 4021   0.242   3.427   7.514 -1.3446  0.4364  1.3299
25554WAT     H2 4022   0.299   3.519   7.620  0.8723 -0.1867  0.7213
25554WAT    EPW 4023   0.306   3.449   7.568 -0.2328  0.0645  0.1938
25555WAT      O 4024   3.078   3.260   4.321 -0.9226 -0.3433  0.4179
25555WAT     H1 4025   3.149   3.315   4.354 -0.1064 -0.1018 -1.6087
25555WAT     H2 4026   3.018   3.251   4.396 -0.8151  2.8309  1.0433
25555WAT    EPW 4027   3.079   3.266   4.336 -0.8007  0.1073  0.2329
25556WAT      O 4028  -3.367  10.298   1.143  0.1021 -0.4668 -0.3693
25556WAT     H1 4029  -3.415  10.345   1.075  1.6630  0.0304 -1.1720
25556WAT     H2 4030  -3.300  10.248   1.096  1.4031  0.0957  0.7971
25556WAT    EPW 4031  -3.365  10.297   1.128  0.4795 -0.3271 -0.3213
25557WAT      O 4032  -6.594   9.772   7.953 -0.3301 -0.9267  0.0188
25557WAT     H1 4033  -6.520   9.780   7.892 -2.2589  0.7891 -2.2914
25557WAT     H2 4034  -6.575   9.693   8.003  2.8199 -0.8163 -0.7634
25557WAT    EPW 4035  -6.581   9.763   7.951 -0.1690 -0.6857 -0.3891
25558WAT      O 4036  -3.098   8.467   4.770  0.1705  0.8532  0.2302
25558WAT     H1 4037  -3.056   8.520   4.838 -1.7812 -0.4504  2.6103
25558WAT     H2 4038  -3.121   8.385   4.815  0.6229 -0.9483 -2.5811
25558WAT    EPW 4039  -3.095   8.463   4.785 -0.0273  0.4435  0.1733
25559WAT      O 4040   1.210   1.228   4.006  0.1928  0.0652  0.1554
25559WAT     H1 4041   1.230   1.264   4.093 -0.5841 -0.0970  0.4117
25559WAT     H2 4042   1.138   1.282   3.974 -1.2901 -1.4586  0.7257
25559WAT    EPW 4043   1.203   1.240   4.013 -0.1052 -0.1572  0.2646
25560WAT      O 4044   7.165   8.753   0.754  0.5203  0.2175 -0.1133
25560WAT     H1 4045   7.143   8.672   0.801 -0.3057  0.9695  0.8344
25560WAT     H2 4046   7.251   8.735   0.717 -0.2558 -1.6372 -1.1769
25560WAT    EPW 4047   7.173   8.740   0.756  0.3090  0.0720 -0.1286
25561WAT      O 4048  -1.406   4.059   3.159 -0.0638 -0.0114 -0.1150
25561WAT     H1 4049  -1.494   4.040   3.192 -0.9139  1.1073 -1.6243
25561WAT     H2 4050  -1.396   4.153   3.171  1.3105 -0.2528  0.8582
25561WAT    EPW 4051  -1.417   4.069   3.165  0.0053  0.1042 -0.1857
25562WAT      O 4052   5.777   4.730   4.143 -0.3521 -0.3300  0.0904
25562WAT     H1 4053   5.791   4.658   4.206 -0.3274  0.6223  1.2039
25562WAT     H2 4054   5.865   4.750   4.110  0.0811  1.0779  1.9484
25562WAT    EPW 4055   5.791   4.723   4.147 -0.2918 -0.0186  0.4823
25563WAT      O 4056   1.092  10.020   8.965  0.2093  0.1856  0.2014
25563WAT     H1 4057   1.164  10.037   9.026  0.8206  1.5799 -0.8550
25563WAT     H2 4058   1.114   9.937   8.924  1.9966  1.2483 -1.1230
25563WAT    EPW 4059   1.104  10.011   8.968  0.5257  0.5097 -0.1130
25564WAT      O 4060   0.474   9.538   4.260  0.3981 -0.3014  0.0140
25564WAT     H1 4061   0.434   9.463   4.302 -0.5687  0.6098  0.7729
25564WAT     H2 4062   0.423   9.613   4.291  1.1579  0.6391 -0.9369
25564WAT    EPW 4063   0.462   9.538   4.270  0.3708 -0.0572 -0.0114
25565WAT      O 4064   1.772   6.561   6.239  0.2272 -0.3483  0.9675
25565WAT     H1 4065   1.831   6.631   6.211 -1.0810  0.3046 -0.2827
25565WAT     H2 4066   1.825   6.482   6.237  1.7793  0.5757  2.5435
25565WAT    EPW 4067   1.786   6.560   6.235  0.2593 -0.1404  1.0107
25566WAT      O 4068  -1.128   6.359   4.685  0.3948 -0.3793 -0.7507
25566WAT     H1 4069  -1.164   6.294   4.623  0.1492 -0.0751 -0.9322
25566WAT     H2 4070  -1.162   6.443   4.653 -1.3557 -0.3793  0.9090
25566WAT    EPW 4071  -1.137   6.361   4.672  0.1315 -0.3388 -0.5558
25567WAT      O 4072   2.248  10.181   2.275  0.1897  0.1443  1.4050
25567WAT     H1 4073   2.162  10.222   2.285  0.2084  0.7083 -0.4299
25567WAT     H2 4074   2.233  10.090   2.300 -1.8318 -0.6233 -1.9322
25567WAT    EPW 4075   2.234  10.174   2.279 -0.0744  0.1173  0.7228
25568WAT      O 4076   2.310   6.634   8.455  1.1250  0.1343  0.0167
25568WAT     H1 4077   2.280   6.572   8.389 -2.0366  0.5785  0.8277
25568WAT     H2 4078   2.333   6.713   8.406 -0.1084  0.0973 -0.6582
25568WAT    EPW 4079   2.309   6.637   8.440  0.5453  0.1881  0.0348
25569WAT      O 4080   0.879   8.698   6.928  0.1237 -0.2200 -0.1125
25569WAT     H1 4081   0.847   8.712   7.017 -0.3337 -0.2999 -0.2641
25569WAT     H2 4082   0.815   8.740   6.872  0.4339 -0.1309 -0.4061
25569WAT    EPW 4083   0.867   8.705   6.932  0.1043 -0.2193 -0.1712
25570WAT      O 4084  -1.640   8.673   1.616 -0.3023 -0.0351  0.1968
25570WAT     H1 4085  -1.726   8.634   1.599  0.0000 -0.6584  0.0662
25570WAT     H2 4086  -1.633   8.744   1.553  0.3518 -1.6199 -1.6108
25570WAT    EPW 4087  -1.650   8.677   1.605 -0.1762 -0.3262 -0.0588
25571WAT      O 4088  -0.844   4.010   6.585  0.2986  0.0947 -0.5107
25571WAT     H1 4089  -0.887   3.940   6.635 -0.0605  1.5175  1.2861
25571WAT     H2 4090  -0.869   4.090   6.631  0.3865  1.4651 -2.7307
25571WAT    EPW 4091  -0.853   4.011   6.598  0.2629  0.4630 -0.5665
25572WAT      O 4092   2.749   3.521   0.462  0.5289  0.3755 -0.1091
25572WAT     H1 4093   2.827   3.512   0.407 -0.3149  0.4745 -1.3669
25572WAT     H2 4094   2.772   3.590   0.524  1.9892 -0.6482  0.5605
25572WAT    EPW 4095   2.763   3.529   0.463  0.6102  0.2534 -0.1867
25573WAT      O 4096  -2.443   2.302   7.180 -0.1479  0.1097  0.0532
25573WAT     H1 4097  -2.436   2.392   7.211  0.5050  0.0773  0.0098
25573WAT     H2 4098  -2.524   2.269   7.219 -0.3463  0.6880  0.1317
25573WAT    EPW 4099  -2.452   2.309   7.189 -0.0880  0.1816  0.0579
25574WAT      O 4100   3.556   8.879   0.019  0.2119 -0.8247  0.2287
25574WAT     H1 4101   3.619   8.941   0.055  0.2038 -0.2155 -0.7600
25574WAT     H2 4102   3.521   8.833   0.095  1.2354 -0.5896  0.8592
25574WAT    EPW 4103   3.560   8.882   0.034  0.3457 -0.7133  0.1814
25575WAT      O 4104   3.851   5.805   5.574  0.2767 -0.2277  0.2295
25575WAT     H1 4105   3.884   5.850   5.651  0.0822  0.0095  0.1784
25575WAT     H2 4106   3.873   5.713   5.587 -0.8499 -0.3924  1.1553
25575WAT    EPW 4107   3.858   5.799   5.586  0.1024 -0.2182  0.3448
25576WAT      O 4108  -1.037   7.740   0.854 -0.7507  0.3074  0.2502
25576WAT     H1 4109  -1.050   7.745   0.949 -1.9711  0.0511  0.1231
25576WAT     H2 4110  -0.987   7.817   0.832 -0.6875  0.5125  1.0779
25576WAT    EPW 4111  -1.032   7.751   0.864 -0.9033  0.3004  0.3426
25577WAT      O 4112   3.218   2.564   2.352  0.0755 -0.5406  0.2300
25577WAT     H1 4113   3.303   2.570   2.397  0.2801  1.0287 -0.3105
25577WAT     H2 4114   3.235   2.507   2.278  0.6954 -0.1702  0.0795
25577WAT    EPW 4115   3.232   2.557   2.349  0.1842 -0.2848  0.1390
25578WAT      O 4116  -1.693   8.683   4.658  0.8667 -0.0462 -0.1457
25578WAT     H1 4117  -1.641   8.622   4.711  2.7874 -1.4785 -3.3658
25578WAT     H2 4118  -1.636   8.760   4.648  0.8944 -0.1323 -0.7247
25578WAT    EPW 4119  -1.678   8.685   4.664  1.1237 -0.2460 -0.6468
25579WAT      O 4120   8.273   3.061   0.279 -0.1769 -0.0414 -0.2049
25579WAT     H1 4121   8.289   3.154   0.291  0.4347 -0.2136  0.3323
25579WAT     H2 4122   8.359   3.024   0.260 -0.1866 -0.7049  0.9553
25579WAT    EPW 4123   8.287   3.068   0.278 -0.0973 -0.1516  0.0190
25580WAT      O 4124   3.114   5.492   1.513 -0.9698  0.1544  0.4266
25580WAT     H1 4125   3.129   5.397   1.506 -0.6326  0.1316  1.3077
25580WAT     H2 4126   3.166   5.529   1.441  0.3891 -0.2119  1.1753
25580WAT    EPW 4127   3.123   5.484   1.502 -0.7461  0.1032  0.6416
25581WAT      O 4128   0.453   9.455   4.985  0.5101 -0.1899 -0.2056
25581WAT     H1 4129   0.467   9.492   5.072  1.2583 -2.0564  0.5254
25581WAT     H2 4130   0.379   9.395   4.996 -0.6453  0.9665 -1.3368
25581WAT    EPW 4131   0.445   9.452   4.998  0.4564 -0.2837 -0.2584
25582WAT      O 4132  -4.506  10.004   3.945 -0.7056  0.2461 -0.0764
25582WAT     H1 4133  -4.467  10.089   3.924 -0.2795 -0.4908 -2.6631
25582WAT     H2 4134  -4.434   9.953   3.982 -0.4470  0.4101 -0.3483
25582WAT    EPW 4135  -4.492  10.008   3.947 -0.6154  0.1707 -0.4535
25583WAT      O 4136   2.695   6.722   4.738 -0.9325  0.3624 -0.8530
25583WAT     H1 4137   2.685   6.724   4.833  1.8012 -0.9043 -0.4305
25583WAT     H2 4138   2.756   6.794   4.720 -1.6863  0.7999 -1.6996
25583WAT    EPW 4139   2.702   6.732   4.748 -0.6714  0.2530 -0.9091
25584WAT      O 4140  -6.271   7.107   8.528  0.2231 -0.0059 -0.1525
25584WAT     H1 4141  -6.316   7.101   8.612 -0.4506 -0.5803 -0.5373
25584WAT     H2 4142  -6.266   7.201   8.509 -0.8726  0.0757 -0.1152
25584WAT    EPW 4143  -6.276   7.118   8.536 -0.0103 -0.0710 -0.1979
25585WAT      O 4144   4.999   4.233   0.769 -0.5012 -0.3379  0.1320
25585WAT     H1 4145   5.033   4.311   0.812  1.5549 -1.9103  1.5611
25585WAT     H2 4146   5.069   4.205   0.710 -1.6101 -0.5909 -1.1299
25585WAT    EPW 4147   5.012   4.240   0.767 -0.3765 -0.5789  0.1540
25586WAT      O 4148   2.179   4.263   8.285  0.6140  0.6547  0.0578
25586WAT     H1 4149   2.184   4.316   8.206  1.4878  0.1796 -0.2201
25586WAT     H2 4150   2.245   4.194   8.272  1.3245  1.0252  1.5209
25586WAT    EPW 4151   2.188   4.260   8.273  0.8230  0.6409  0.2141
25587WAT      O 4152  -2.720   7.466   0.962  0.0710 -0.5815  0.5946
25587WAT     H1 4153  -2.637   7.418   0.964  0.7950  0.5506 -0.3598
25587WAT     H2 4154  -2.738   7.477   0.869  0.2561  1.4493  0.7445
25587WAT    EPW 4155  -2.711   7.461   0.950  0.1909 -0.1643  0.4885
25588WAT      O 4156  -0.555   7.569   8.191  0.1919  0.0372 -0.0173
25588WAT     H1 4157  -0.483   7.530   8.142  0.1943  0.2678 -0.1974
25588WAT     H2 4158  -0.631   7.562   8.133  0.5884  2.0517 -0.8865
25588WAT    EPW 4159  -0.556   7.563   8.177  0.2445  0.3335 -0.1559
25589WAT      O 4160  -4.022   8.625   6.617 -0.2485 -0.2008 -0.4037
25589WAT     H1 4161  -3.976   8.701   6.652 -0.7605  1.6990 -3.5300
25589WAT     H2 4162  -3.953   8.568   6.583  0.0067  0.1203 -0.4200
25589WAT    EPW 4163  -4.007   8.627   6.617 -0.2823  0.0920 -0.8180
25590WAT      O 4164  -1.219   7.984  -0.005 -0.2261  0.0572 -0.2575
25590WAT     H1 4165  -1.264   7.899   0.003  2.1754 -1.1658  1.3345
25590WAT     H2 4166  -1.218   8.019   0.084  0.1962  1.0112 -0.6307
25590WAT    EPW 4167  -1.225   7.977   0.008  0.1463  0.0217 -0.0968
25591WAT      O 4168   2.244   3.283   3.193  0.6942 -0.2564 -0.0758
25591WAT     H1 4169   2.224   3.201   3.148  2.1838 -1.5017  1.4008
25591WAT     H2 4170   2.160   3.328   3.199 -0.1577 -1.6447 -0.9671
25591WAT    EPW 4171   2.231   3.278   3.188  0.7783 -0.6038  0.0014
25592WAT      O 4172   1.653   6.498   0.749 -0.4906 -0.2103 -0.2758
25592WAT     H1 4173   1.614   6.422   0.793  0.2056 -0.8921 -0.7994
25592WAT     H2 4174   1.747   6.493   0.771 -0.6748  1.5371  1.1703
25592WAT    EPW 4175   1.661   6.487   0.758 -0.4231 -0.0699 -0.1541
25593WAT      O 4176  -2.008   4.351   3.886 -0.3969  0.0396  0.1132
25593WAT     H1 4177  -2.095   4.353   3.844 -0.8828  0.9627  1.1115
25593WAT     H2 4178  -2.020   4.399   3.968  1.6060  2.3781 -0.8140
25593WAT    EPW 4179  -2.021   4.358   3.891 -0.1969  0.4697  0.1225
25594WAT      O 4180  -1.374   2.979   1.331  0.2883 -0.4645  0.6401
25594WAT     H1 4181  -1.437   2.944   1.269  0.2228 -0.5039  0.7294
25594WAT     H2 4182  -1.290   2.971   1.286  0.3984 -1.5950  1.0208
25594WAT    EPW 4183  -1.371   2.973   1.317  0.2942 -0.6187  0.7021
25595WAT      O 4184   8.568   2.849   2.057 -0.6606  0.7900  0.2076
25595WAT     H1 4185   8.576   2.773   2.000 -2.2351 -0.0461  1.0327
25595WAT     H2 4186   8.643   2.844   2.115 -1.9457 -1.5635  1.8380
25595WAT    EPW 4187   8.579   2.838   2.057 -1.0376  0.3694  0.5314
25596WAT      O 4188   3.997   7.599   0.480 -0.2123 -0.3908  0.1368
25596WAT     H1 4189   3.977   7.638   0.565 -0.6203 -0.7638  0.2170
25596WAT     H2 4190   3.923   7.541   0.462 -0.1842 -0.2322 -0.5257
25596WAT    EPW 4191   3.985   7.597   0.489 -0.2624 -0.4189  0.0600
25597WAT      O 4192  -3.777   7.063   8.459  0.0835 -0.3776 -0.3226
25597WAT     H1 4193  -3.871   7.047   8.466 -0.2795  1.3834 -0.7541
25597WAT     H2 4194  -3.762   7.079   8.366  0.7629 -0.3456 -0.2151
25597WAT    EPW 4195  -3.787   7.063   8.448  0.1252 -0.1411 -0.3653
25598WAT      O 4196  -1.739   2.462   4.512  0.4782  0.2402 -0.0516
25598WAT     H1 4197  -1.765   2.397   4.577 -1.5790 -0.1206 -1.1447
25598WAT     H2 4198  -1.793   2.538   4.532  0.7450  0.5679 -0.5728
25598WAT    EPW 4199  -1.750   2.463   4.523  0.2421  0.2358 -0.2646
25599WAT      O 4200  -4.398   2.218   7.326  0.2868 -0.5851  0.3107
25599WAT     H1 4201  -4.365   2.210   7.237  1.2320 -0.6801  0.6644
25599WAT     H2 4202  -4.430   2.131   7.348 -2.1228 -0.0451 -0.7482
25599WAT    EPW 4203  -4.398   2.206   7.317  0.0937 -0.5264  0.2177
25600WAT      O 4204   8.288   1.949   1.641  0.3801  0.5254  0.1114
25600WAT     H1 4205   8.318   1.863   1.670  0.1999  0.3882 -0.1020
25600WAT     H2 4206   8.367   2.004   1.644  0.6909  0.1376 -0.5636
25600WAT    EPW 4207   8.303   1.945   1.645  0.3972  0.4561 -0.0058
25601WAT      O 4208  -2.284   1.555   8.509 -0.1624 -0.2085  0.1538
25601WAT     H1 4209  -2.285   1.551   8.413  0.6304  1.5993  0.0307
25601WAT     H2 4210  -2.376   1.546   8.534 -0.4034 -0.4916 -0.7930
25601WAT    EPW 4211  -2.296   1.554   8.499 -0.0896 -0.0074  0.0124
25602WAT      O 4212   3.205   0.165   7.750  0.6450 -0.5120  1.0701
25602WAT     H1 4213   3.113   0.160   7.724  0.5937 -2.3751  1.4529
25602WAT     H2 4214   3.231   0.074   7.761  2.7164 -0.0413  0.4200
25602WAT    EPW 4215   3.196   0.152   7.748  0.9115 -0.6956  1.0350
25603WAT      O 4216  -2.518   7.646   4.186 -0.0488 -0.7976 -0.2380
25603WAT     H1 4217  -2.479   7.719   4.232 -1.5699 -0.5780  0.7879
25603WAT     H2 4218  -2.477   7.646   4.100  0.7619  0.5665  0.1322
25603WAT    EPW 4219  -2.507   7.655   4.181 -0.1426 -0.5887 -0.0539
25604WAT      O 4220   0.724   7.290   0.171  0.4762  0.0577 -0.4599
25604WAT     H1 4221   0.645   7.335   0.143  1.5607  1.9121 -0.7001
25604WAT     H2 4222   0.707   7.263   0.261 -0.6739 -0.2592 -0.7514
25604WAT    EPW 4223   0.712   7.292   0.179  0.4675  0.2606 -0.5300
25605WAT      O 4224  -0.195   4.070   4.835 -0.8099 -0.2469 -0.3031
25605WAT     H1 4225  -0.168   3.995   4.783 -1.9336 -0.7012 -0.2581
25605WAT     H2 4226  -0.233   4.131   4.772  0.8635  0.6887 -0.4630
25605WAT    EPW 4227  -0.197   4.068   4.820 -0.7374 -0.1836 -0.3183
25606WAT      O 4228  -2.222   5.512   3.471 -0.2338 -0.4447 -0.6286
25606WAT     H1 4229  -2.303   5.561   3.480  1.0067  1.9197 -1.4630
25606WAT     H2 4230  -2.211   5.499   3.377  0.7517  0.0296 -0.5968
25606WAT    EPW 4231  -2.231   5.517   3.460  0.0597 -0.0703 -0.7344
25607WAT      O 4232  -4.996   6.066   5.802  0.0831  1.0291 -0.3617
25607WAT     H1 4233  -4.902   6.080   5.792  0.6230 -1.6285  0.1391
25607WAT     H2 4234  -5.034   6.154   5.798  2.5428  2.1661 -0.7745
25607WAT    EPW 4235  -4.988   6.079   5.800  0.4787  0.8285 -0.3500
25608WAT      O 4236   0.382   9.004   8.344  0.5696  0.3386  0.1478
25608WAT     H1 4237   0.437   9.063   8.292  1.3470 -0.3494  0.1899
25608WAT     H2 4238   0.338   9.062   8.406  1.1186  0.9131  0.0101
25608WAT    EPW 4239   0.383   9.020   8.345  0.7445  0.3233  0.1354
25609WAT      O 4240   0.183   5.899   1.225  0.7830  0.3778  0.3633
25609WAT     H1 4241   0.152   5.898   1.315  2.0547  0.4797  0.8198
25609WAT     H2 4242   0.121   5.957   1.180  0.5958  0.9655  1.3413
25609WAT    EPW 4243   0.171   5.907   1.231  0.9261  0.4687  0.5525
25610WAT      O 4244  -1.782   8.075   0.715  0.0649 -0.0904  0.3852
25610WAT     H1 4245  -1.744   7.998   0.672  0.4665  0.9949 -1.2993
25610WAT     H2 4246  -1.726   8.090   0.791  0.0359 -1.3950  0.6809
25610WAT    EPW 4247  -1.770   8.067   0.719  0.1140 -0.1192  0.2020
25611WAT      O 4248   2.351   9.967   2.708 -0.2433 -0.6125 -0.2538
25611WAT     H1 4249   2.387   9.886   2.744  0.1751 -0.8974 -1.3028
25611WAT     H2 4250   2.427  10.016   2.677 -0.5697 -0.1882 -0.3915
25611WAT    EPW 4251   2.366   9.963   2.709 -0.2311 -0.5941 -0.4104
25612WAT      O 4252   4.952   3.860   2.874  0.3671  0.1384  0.1028
25612WAT     H1 4253   5.007   3.788   2.844  0.4124  0.0829  0.3193
25612WAT     H2 4254   4.895   3.821   2.940  0.7465  0.4139  0.5957
25612WAT    EPW 4255   4.952   3.845   2.879  0.4232  0.1675  0.1963
25613WAT      O 4256   0.795   6.146   0.364  0.6517  0.1600 -0.0632
25613WAT     H1 4257   0.737   6.072   0.350 -0.4327  0.9122  0.3860
25613WAT     H2 4258   0.740   6.223   0.354  1.0225  0.8766  2.5633
25613WAT    EPW 4259   0.780   6.147   0.361  0.5576  0.3538  0.3425
25614WAT      O 4260   2.069   6.853   4.904 -0.2392 -0.1787 -0.3965
25614WAT     H1 4261   2.048   6.931   4.852 -0.7729  0.3687  0.5976
25614WAT     H2 4262   2.137   6.883   4.965 -1.5688 -0.0107  1.0697
25614WAT    EPW 4263   2.075   6.867   4.905 -0.4849 -0.0844 -0.0722
25615WAT      O 4264  -4.495   8.455   4.433  0.0938  0.2239  0.3579
25615WAT     H1 4265  -4.556   8.492   4.370 -0.9618  1.3784  1.9653
25615WAT     H2 4266  -4.545   8.386   4.477 -0.9402  2.5379  3.1299
25615WAT    EPW 4267  -4.510   8.450   4.431 -0.1817  0.6814  0.9356
25616WAT      O 4268  -4.503   5.879   4.296  0.3660 -0.5538 -0.7669
25616WAT     H1 4269  -4.409   5.874   4.279  0.0511 -2.6189 -2.4055
25616WAT     H2 4270  -4.509   5.907   4.387  2.5692 -0.5405 -0.5544
25616WAT    EPW 4271  -4.491   5.882   4.306  0.6149 -0.8242 -0.9549
25617WAT      O 4272   3.397   8.059   4.867 -0.2830  0.5286  0.3026
25617WAT     H1 4273   3.441   8.142   4.851  1.1104 -0.3327 -0.5910
25617WAT     H2 4274   3.415   8.007   4.788  2.2669 -2.0224  2.3496
25617WAT    EPW 4275   3.405   8.063   4.854  0.2371  0.0792  0.4549
25618WAT      O 4276   1.864   8.609   7.987 -0.2928  0.7706  0.2940
25618WAT     H1 4277   1.772   8.593   7.963 -0.4321  1.5232  0.3102
25618WAT     H2 4278   1.914   8.558   7.923 -0.7128  0.9528 -0.1935
25618WAT    EPW 4279   1.858   8.600   7.975 -0.3666  0.8936  0.2317
25619WAT      O 4280  -0.084   3.425   7.833  0.5774 -0.4394  0.4306
25619WAT     H1 4281  -0.144   3.454   7.764  2.5125  2.2912 -0.2847
25619WAT     H2 4282  -0.126   3.348   7.871 -1.7824 -0.5447 -2.1052
25619WAT    EPW 4283  -0.097   3.419   7.829  0.5214 -0.0931  0.0019
25620WAT      O 4284   0.683   7.901   2.041  0.5531  0.2600 -0.0949
25620WAT     H1 4285   0.757   7.922   1.984  2.0409 -2.1159  0.7628
25620WAT     H2 4286   0.712   7.926   2.128 -0.1053  0.3164  0.1134
25620WAT    EPW 4287   0.697   7.907   2.045  0.6625 -0.0458  0.0457
25621WAT      O 4288   2.605   6.276   0.884  0.0670 -0.1711  0.5892
25621WAT     H1 4289   2.691   6.301   0.920  1.0947  0.9928 -2.3718
25621WAT     H2 4290   2.617   6.187   0.853  0.1586 -0.0871  0.3793
25621WAT    EPW 4291   2.618   6.268   0.885  0.2147 -0.0067  0.1710
25622WAT      O 4292   5.909   0.950   2.079  0.5989  0.0874 -0.0873
25622WAT     H1 4293   5.920   0.863   2.117  0.4285  0.6221  1.2116
25622WAT     H2 4294   5.971   0.952   2.006 -1.8372 -2.4019 -2.5008
25622WAT    EPW 4295   5.919   0.938   2.074  0.2549 -0.1704 -0.2344
25623WAT      O 4296   4.874   7.884   1.565  0.2862 -0.1445 -0.1843
25623WAT     H1 4297   4.812   7.813   1.579  2.3246 -1.8555  0.7780
25623WAT     H2 4298   4.869   7.937   1.645 -1.4750  1.0423 -1.0418
25623WAT    EPW 4299   4.865   7.882   1.578  0.3228 -0.2136 -0.1705
25624WAT      O 4300   7.748   1.278   4.340 -0.5393  0.6444 -0.0823
25624WAT     H1 4301   7.657   1.308   4.347 -0.9595 -0.8851  2.1183
25624WAT     H2 4302   7.743   1.201   4.282 -0.6514  0.5919 -0.0046
25624WAT    EPW 4303   7.735   1.272   4.333 -0.6094  0.4357  0.2182
25625WAT      O 4304   4.857   2.872   0.715 -0.3032  0.6974 -0.6139
25625WAT     H1 4305   4.856   2.968   0.711 -0.9567  0.6453 -2.5788
25625WAT     H2 4306   4.949   2.850   0.729  0.1204  1.5981 -1.7750
25625WAT    EPW 4307   4.869   2.882   0.717 -0.3335  0.8093 -1.0262
25626WAT      O 4308   0.200   3.844   3.069  0.1944 -0.6510 -0.1647
25626WAT     H1 4309   0.266   3.789   3.110 -0.7444 -1.6281  0.0744
25626WAT     H2 4310   0.181   3.800   2.985  1.0754  0.5574 -1.0355
25626WAT    EPW 4311   0.206   3.831   3.063  0.1867 -0.6205 -0.2481
25627WAT      O 4312   7.422   0.840   3.253  0.1938 -0.0799  0.5366
25627WAT     H1 4313   7.337   0.843   3.297 -0.0447 -0.4009  0.1088
25627WAT     H2 4314   7.409   0.781   3.178  2.1331 -4.7977  3.4463
25627WAT    EPW 4315   7.409   0.832   3.249  0.4182 -0.7445  0.8639
25628WAT      O 4316   3.666   6.089   2.361 -0.2664 -0.4056  0.2776
25628WAT     H1 4317   3.652   6.182   2.380  2.3950  0.1481 -0.0294
25628WAT     H2 4318   3.579   6.055   2.339 -1.5901  1.5773  2.0995
25628WAT    EPW 4319   3.653   6.097   2.361 -0.0900 -0.0710  0.4776
25629WAT      O 4320   0.968   0.894   1.632 -0.2430 -0.2438 -0.6623
25629WAT     H1 4321   0.972   0.845   1.550 -1.1905  1.3116 -1.6866
25629WAT     H2 4322   0.874   0.910   1.645  0.0583  1.7975 -0.7064
25629WAT    EPW 4323   0.956   0.889   1.623 -0.3282  0.2306 -0.8032
25630WAT      O 4324   3.963   1.943   6.594 -0.7120 -0.1729  0.4969
25630WAT     H1 4325   4.049   1.913   6.566  0.4260  3.0626  0.0552
25630WAT     H2 4326   3.909   1.864   6.596  2.1172 -2.2570  0.3685
25630WAT    EPW 4327   3.967   1.929   6.591 -0.1886 -0.0210  0.4218
25631WAT      O 4328   2.523   2.604   5.873  0.4314  0.2502  0.5926
25631WAT     H1 4329   2.489   2.691   5.855  0.1618  0.1235  0.4714
25631WAT     H2 4330   2.556   2.608   5.962  0.2678  0.4305  0.6448
25631WAT    EPW 4331   2.523   2.616   5.882  0.3743  0.2573  0.5836
25632WAT      O 4332   7.135  10.089   0.328 -0.5177  0.4240  0.3766
25632WAT     H1 4333   7.165  10.000   0.343 -3.0447 -0.9889 -2.0653
25632WAT     H2 4334   7.212  10.134   0.293  0.1561 -1.6060 -0.9537
25632WAT    EPW 4335   7.149  10.083   0.325 -0.7620 -0.0300 -0.1209
25633WAT      O 4336  -5.491   5.605   8.894 -0.3963  0.3733  0.2930
25633WAT     H1 4337  -5.406   5.595   8.936 -0.8029  0.5327  1.1980
25633WAT     H2 4338  -5.503   5.700   8.888 -0.5337  0.3521  0.2371
25633WAT    EPW 4339  -5.482   5.616   8.899 -0.4683  0.3917  0.4048
25634WAT      O 4340   0.844   4.959   8.720 -0.1473  0.1174  0.1177
25634WAT     H1 4341   0.787   4.945   8.795 -0.4202 -0.8288 -0.2479
25634WAT     H2 4342   0.886   5.043   8.737 -1.0355  0.4380  0.7824
25634WAT    EPW 4343   0.842   4.968   8.732 -0.3005  0.0348  0.1574
25635WAT      O 4344  -4.023   6.613   8.450  0.2086 -0.6182 -0.5864
25635WAT     H1 4345  -4.002   6.659   8.368  0.6052 -0.2905 -0.3022
25635WAT     H2 4346  -4.116   6.591   8.441 -0.9691  3.0607  0.5854
25635WAT    EPW 4347  -4.033   6.617   8.438  0.1056 -0.0899 -0.3943
25636WAT      O 4348   3.734   2.372   2.581  0.1964 -0.5521 -0.5316
25636WAT     H1 4349   3.788   2.440   2.541 -1.1455  2.8401  2.8405
25636WAT     H2 4350   3.792   2.329   2.643 -0.2976  2.0527  1.9609
25636WAT    EPW 4351   3.749   2.375   2.584 -0.0459  0.2389  0.2418
25637WAT      O 4352  -5.899   3.601   7.883 -0.1635  0.5182 -0.5136
25637WAT     H1 4353  -5.963   3.550   7.932 -0.4913  1.0421 -0.3925
25637WAT     H2 4354  -5.948   3.634   7.807  0.2740 -0.0850 -1.0684
25637WAT    EPW 4355  -5.914   3.599   7.879 -0.1490  0.5077 -0.5708
25638WAT      O 4356   4.368   0.999   6.755  0.5919  0.2944 -0.6430
25638WAT     H1 4357   4.305   0.968   6.819  0.5959  2.3817  0.4789
25638WAT     H2 4358   4.395   0.921   6.707 -0.6665 -1.0774  0.7830
25638WAT    EPW 4359   4.363   0.985   6.757  0.4263  0.3888 -0.3068
25639WAT      O 4360   3.482   2.475   2.560  0.0243 -0.1905 -0.4838
25639WAT     H1 4361   3.449   2.462   2.649 -0.1437  1.7128 -0.2234
25639WAT     H2 4362   3.575   2.453   2.565  0.6287  2.3271  0.8478
25639WAT    EPW 4363   3.490   2.470   2.572  0.0819  0.3927 -0.2738
25640WAT      O 4364  -2.625   9.983   6.952  0.1341 -0.6849 -0.2495
25640WAT     H1 4365  -2.715  10.013   6.941 -0.1111 -1.2747  0.0962
25640WAT     H2 4366  -2.609   9.987   7.046  2.4063  4.8770 -0.4767
25640WAT    EPW 4367  -2.635   9.988   6.963  0.4014 -0.0291 -0.2339
25641WAT      O 4368  -1.013   9.328   3.866  0.1541  0.4928 -0.0348
25641WAT     H1 4369  -1.039   9.319   3.774 -1.8191  0.1477  0.5089
25641WAT     H2 4370  -1.075   9.272   3.914 -0.4230  2.4963  1.7051
25641WAT    EPW 4371  -1.025   9.319   3.860 -0.1823  0.7119  0.2664
25642WAT      O 4372   5.181   5.662   1.610  0.1504 -1.1756 -0.4547
25642WAT     H1 4373   5.171   5.568   1.626  1.2293 -1.2115  0.1507
25642WAT     H2 4374   5.195   5.699   1.697  0.2381 -0.5258 -0.7413
25642WAT    EPW 4375   5.182   5.654   1.624  0.3045 -1.0946 -0.4125
25643WAT      O 4376  -0.294   9.085   3.861 -0.6815 -0.1224 -0.3115
25643WAT     H1 4377  -0.292   8.990   3.858 -0.3899 -0.1302  0.0693
25643WAT     H2 4378  -0.234   9.109   3.932 -0.1958  0.3708 -0.8752
25643WAT    EPW 4379  -0.286   9.076   3.870 -0.5790 -0.0587 -0.3357
25644WAT      O 4380   1.835   5.889   4.616 -0.5064  0.3647  0.4955
25644WAT     H1 4381   1.920   5.851   4.638 -0.5000  1.2197  2.0459
25644WAT     H2 4382   1.833   5.972   4.663 -1.0754  1.6936 -1.7005
25644WAT    EPW 4383   1.846   5.895   4.625 -0.5806  0.6528  0.4103
25645WAT      O 4384  -3.370   0.572   6.250 -0.0764  0.1145  0.3188
25645WAT     H1 4385  -3.336   0.515   6.181 -2.9299 -2.0644  0.5100
25645WAT     H2 4386  -3.425   0.636   6.203  1.0708  1.1355  0.3210
25645WAT    EPW 4387  -3.373   0.573   6.234 -0.3016 -0.0382  0.3445
25646WAT      O 4388   5.540   3.405   4.876  0.0131  0.4635  0.7656
25646WAT     H1 4389   5.454   3.368   4.858  1.6131 -2.9133 -0.8567
25646WAT     H2 4390   5.592   3.385   4.798  1.9201  3.8787  0.9568
25646WAT    EPW 4391   5.536   3.397   4.864  0.4756  0.4686  0.5767
25647WAT      O 4392  -0.970   5.017   3.402  0.3265 -0.3488  0.4414
25647WAT     H1 4393  -0.900   5.077   3.427  1.5248 -1.2728 -0.5763
25647WAT     H2 4394  -1.021   5.064   3.336 -0.1366  0.3858  1.3037
25647WAT    EPW 4395  -0.968   5.031   3.397  0.4235 -0.3736  0.4209
25648WAT      O 4396  -1.683   5.410   5.358 -0.1287  0.1239 -0.8549
25648WAT     H1 4397  -1.745   5.370   5.419  0.2373  0.9978  0.1389
25648WAT     H2 4398  -1.600   5.366   5.376 -0.3595 -0.7758 -1.9124
25648WAT    EPW 4399  -1.680   5.399   5.369 -0.1108  0.1206 -0.8633
25649WAT      O 4400  -1.053   1.105   3.899  0.1449 -0.2740 -0.3271
25649WAT     H1 4401  -1.092   1.190   3.880 -0.3025 -1.1055 -3.6855
25649WAT     H2 4402  -0.965   1.126   3.932 -0.9976  1.4664  1.9228
25649WAT    EPW 4403  -1.046   1.119   3.901 -0.0648 -0.1541 -0.4733
25650WAT      O 4404   3.560   1.369   3.117  0.1671 -0.3872 -0.2141
25650WAT     H1 4405   3.550   1.464   3.106 -0.0472 -0.5572 -1.6088
25650WAT     H2 4406   3.621   1.343   3.048  1.2216 -1.0945  0.9510
25650WAT    EPW 4407   3.567   1.378   3.106  0.2778 -0.5029 -0.2444
25651WAT      O 4408   5.087   4.015   3.455 -0.5051 -0.5184 -0.3271
25651WAT     H1 4409   5.016   3.959   3.487 -0.1908 -0.2759  0.8663
25651WAT     H2 4410   5.120   3.971   3.377  0.4043 -2.5828  1.1328
25651WAT    EPW 4411   5.082   4.002   3.449 -0.3436 -0.7586  0.0229
25652WAT      O 4412   2.645   0.458   0.612 -0.6788  0.1962  0.4911
25652WAT     H1 4413   2.653   0.551   0.634  0.2217  0.4873 -0.9185
25652WAT     H2 4414   2.722   0.417   0.651 -0.9715  0.0778  0.9436
25652WAT    EPW 4415   2.656   0.465   0.620 -0.5985  0.2190  0.3648
25653WAT      O 4416  -1.598   7.323   1.749  0.9469  0.0830 -0.1039
25653WAT     H1 4417  -1.534   7.258   1.776  0.9286  0.2419  0.3320
25653WAT     H2 4418  -1.571   7.349   1.660  0.1730 -1.4932 -0.8323
25653WAT    EPW 4419  -1.586   7.318   1.741  0.8425 -0.1040 -0.1425
25654WAT      O 4420  -1.805   4.388   8.673  0.2511 -0.0290 -0.7250
25654WAT     H1 4421  -1.779   4.324   8.740 -1.4397  1.7137  1.7746
25654WAT     H2 4422  -1.881   4.349   8.631 -1.2732  0.5259  1.3330
25654WAT    EPW 4423  -1.811   4.374   8.676 -0.1730  0.2739 -0.1235
25655WAT      O 4424  -0.444   4.843   0.282  0.1754  0.4973  0.0447
25655WAT     H1 4425  -0.352   4.848   0.257  0.3936  1.6176  0.9545
25655WAT     H2 4426  -0.457   4.918   0.341 -1.2046  0.1041  0.2887
25655WAT    EPW 4427  -0.434   4.854   0.287  0.0221  0.5932  0.1969
25656WAT      O 4428  -0.662   8.953   0.460  0.5292  0.3552 -0.1675
25656WAT     H1 4429  -0.601   8.888   0.427  2.1786 -0.1764  3.4294
25656WAT     H2 4430  -0.710   8.908   0.530 -0.1885  2.2350  0.6388
25656WAT    EPW 4431  -0.661   8.939   0.465  0.6521  0.5331  0.4133
25657WAT      O 4432  -2.930   6.780   8.119 -0.1338 -0.9479  0.6739
25657WAT     H1 4433  -2.915   6.757   8.028  0.0436 -1.7792  0.9036
25657WAT     H2 4434  -2.950   6.697   8.162 -2.1594 -0.3361  1.0250
25657WAT    EPW 4435  -2.931   6.766   8.113 -0.3775 -0.9768  0.7501
25658WAT      O 4436   4.403   6.635   3.885  0.3847  0.2358 -0.0911
25658WAT     H1 4437   4.497   6.640   3.902  0.3303 -0.2760  0.4105
25658WAT     H2 4438   4.365   6.611   3.970 -0.3529  1.8329  0.0737
25658WAT    EPW 4439   4.410   6.633   3.898  0.2804  0.3788 -0.0032
25659WAT      O 4440   0.197   3.743   2.154 -0.1248  0.0355  0.6101
25659WAT     H1 4441   0.154   3.827   2.169  2.8296  2.1130 -1.4426
25659WAT     H2 4442   0.259   3.735   2.227  0.0942  0.0087  0.4216
25659WAT    EPW 4443   0.200   3.753   2.166  0.2937  0.3060  0.3146
25660WAT      O 4444  -2.207   7.841   3.972  0.7951  0.3639  0.3852
25660WAT     H1 4445  -2.150   7.864   4.045  1.1777 -1.1585  0.5846
25660WAT     H2 4446  -2.148   7.827   3.898  0.7746 -1.7297  0.7201
25660WAT    EPW 4447  -2.192   7.842   3.972  0.8429 -0.1130  0.4556
25661WAT      O 4448   7.214   1.775   0.809  0.3548  0.1116  0.0306
25661WAT     H1 4449   7.201   1.812   0.896 -2.8083 -2.0725  0.6819
25661WAT     H2 4450   7.177   1.687   0.815  1.0418 -0.5455 -3.2615
25661WAT    EPW 4451   7.208   1.768   0.821  0.0281 -0.2632 -0.3177
25662WAT      O 4452   4.089   8.358   2.137  0.3951  0.0580 -0.1365
25662WAT     H1 4453   4.033   8.282   2.156 -0.3435 -0.1355 -2.6677
25662WAT     H2 4454   4.161   8.322   2.085  1.0976  0.8160  0.2931
25662WAT    EPW 4455   4.091   8.343   2.132  0.3905  0.1321 -0.4137
25663WAT      O 4456   1.866   4.300   3.208  0.2279 -0.0305 -0.5502
25663WAT     H1 4457   1.786   4.349   3.192  0.1493 -0.5585 -1.9007
25663WAT     H2 4458   1.919   4.313   3.130  1.0039 -0.5560 -0.1291
25663WAT    EPW 4459   1.862   4.308   3.196  0.3199 -0.1695 -0.6727
25664WAT      O 4460  -7.262   6.580   8.559  0.0949 -0.5838 -0.7261
25664WAT     H1 4461  -7.316   6.514   8.602  1.7520 -0.8709  1.0712
25664WAT     H2 4462  -7.176   6.539   8.552  1.4583  1.6280  1.3686
25664WAT    EPW 4463  -7.258   6.566   8.564  0.4933 -0.3300 -0.2131
25665WAT      O 4464  -3.314   3.846   5.376 -0.0018 -0.6628  0.5621
25665WAT     H1 4465  -3.328   3.769   5.429 -2.0234  0.8625  2.3964
25665WAT     H2 4466  -3.310   3.919   5.438  0.4006  0.9079 -1.1782
25665WAT    EPW 4467  -3.315   3.846   5.391 -0.2154 -0.2545  0.5746
25666WAT      O 4468   2.375   3.383   1.524  0.4053 -0.1199 -0.3766
25666WAT     H1 4469   2.355   3.290   1.509  0.7453 -0.5940  1.7578
25666WAT     H2 4470   2.351   3.398   1.616 -1.2723  2.3903 -1.1236
25666WAT    EPW 4471   2.369   3.372   1.534  0.2289  0.1487 -0.1936
25667WAT      O 4472   3.427   8.358   4.310  0.2903 -0.5181 -0.0629
25667WAT     H1 4473   3.349   8.394   4.353 -0.3245  2.1145 -3.0214
25667WAT     H2 4474   3.500   8.393   4.361 -0.4028  0.0227  0.5860
25667WAT    EPW 4475   3.426   8.367   4.323  0.1178 -0.0997 -0.3676
25668WAT      O 4476   0.307   4.162   4.847 -0.3709 -0.2807 -0.3725
25668WAT     H1 4477   0.396   4.130   4.862 -0.1758  1.4930  3.8701
25668WAT     H2 4478   0.318   4.255   4.829 -1.3327 -0.3823 -1.5767
25668WAT    EPW 4479   0.320   4.170   4.847 -0.4720 -0.0601  0.0284
25669WAT      O 4480  -5.617   8.968   4.717 -0.3970 -0.1986 -0.7021
25669WAT     H1 4481  -5.603   8.943   4.626 -0.7369  1.2385 -1.1693
25669WAT     H2 4482  -5.551   9.034   4.735  0.1382 -0.9904  0.3405
25669WAT    EPW 4483  -5.607   8.973   4.707 -0.3712 -0.1135 -0.6263
25670WAT      O 4484   3.089   4.536   1.845 -0.3423  0.5913 -0.1310
25670WAT     H1 4485   3.006   4.504   1.809  0.1880  0.4418 -1.2523
25670WAT     H2 4486   3.063   4.603   1.908 -1.2779  2.0775 -1.9898
25670WAT    EPW 4487   3.075   4.540   1.849 -0.3958  0.7677 -0.5241
25671WAT      O 4488  -0.124   2.460   3.086  0.2112  0.1616  0.1279
25671WAT     H1 4489  -0.207   2.478   3.042  0.0799 -0.8751 -0.0757
25671WAT     H2 4490  -0.141   2.480   3.178  0.6860  3.0384 -0.2979
25671WAT    EPW 4491  -0.137   2.465   3.092  0.2565  0.4042  0.0451
25672WAT      O 4492   2.860   5.470   1.641  0.6114 -0.0383  0.5729
25672WAT     H1 4493   2.816   5.418   1.573  0.0182 -0.1220  1.0173
25672WAT     H2 4494   2.948   5.484   1.606  0.1948  0.2760 -0.4068
25672WAT    EPW 4495   2.866   5.465   1.627  0.4783 -0.0079  0.5022
25673WAT      O 4496   5.978   5.492   0.702  0.5064  0.1716  1.0111
25673WAT     H1 4497   5.974   5.556   0.773  0.8948  1.1784  0.1484
25673WAT     H2 4498   6.072   5.479   0.687  0.4362 -0.6661  1.2126
25673WAT    EPW 4499   5.990   5.499   0.710  0.5484  0.1938  0.9239
25674WAT      O 4500  -2.626   8.714   5.339 -0.2884 -0.5601  0.1339
25674WAT     H1 4501  -2.639   8.659   5.417 -0.7141 -1.0343 -0.2618
25674WAT     H2 4502  -2.581   8.656   5.277  1.6905  0.3507  0.6502
25674WAT    EPW 4503  -2.622   8.699   5.341 -0.0836 -0.5026  0.1497
25675WAT      O 4504   2.943   2.256   3.098  0.1769  0.1396  0.3106
25675WAT     H1 4505   3.021   2.212   3.131 -0.5765 -1.2682  0.3043
25675WAT     H2 4506   2.893   2.278   3.177 -0.3358 -0.7721  0.2631
25675WAT    EPW 4507   2.947   2.253   3.113  0.0100 -0.1664  0.3035
25676WAT      O 4508  -3.036   8.891   8.791 -0.0891  0.7041 -0.0034
25676WAT     H1 4509  -2.960   8.924   8.743  1.2971  0.2725  1.7607
25676WAT     H2 4510  -3.093   8.967   8.800  0.1560  1.0634 -1.2839
25676WAT    EPW 4511  -3.034   8.905   8.786  0.1261  0.6948  0.0601
25677WAT      O 4512  -4.415   3.607   6.754  0.2208  0.8643 -0.8259
25677WAT     H1 4513  -4.480   3.562   6.700 -1.5096  2.3317 -0.0415
25677WAT     H2 4514  -4.428   3.700   6.735  2.0907  1.2282 -0.5963
25677WAT    EPW 4515  -4.425   3.613   6.744  0.2394  1.1058 -0.6921
25678WAT      O 4516   1.568   6.063   1.994  1.0579  0.2733  0.1360
25678WAT     H1 4517   1.549   6.025   1.909 -1.5269 -1.3108  1.3076
25678WAT     H2 4518   1.581   6.156   1.977  0.2434  0.0450 -1.9351
25678WAT    EPW 4519   1.567   6.071   1.981  0.6096  0.0341  0.0174
25679WAT      O 4520  -2.560   1.824   5.627 -0.1574  0.0990 -0.5606
25679WAT     H1 4521  -2.602   1.897   5.581  1.1129  0.9619 -0.4131
25679WAT     H2 4522  -2.632   1.778   5.670 -1.1174  0.6016 -1.5705
25679WAT    EPW 4523  -2.575   1.828   5.626 -0.1165  0.2790 -0.6742
25680WAT      O 4524   2.683   3.887   8.641 -0.4242  0.9295 -0.1137
25680WAT     H1 4525   2.628   3.854   8.570 -1.6439  0.8393  0.8392
25680WAT     H2 4526   2.760   3.831   8.640 -2.3440 -1.9680  1.3393
25680WAT    EPW 4527   2.686   3.876   8.631 -0.8383  0.5354  0.2031
25681WAT      O 4528   3.010   0.524   2.047  0.0400 -0.3260 -0.4025
25681WAT     H1 4529   2.995   0.455   2.111 -1.3794  1.2777  1.0796
25681WAT     H2 4530   3.061   0.481   1.978  0.8046 -2.3698  1.3016
25681WAT    EPW 4531   3.015   0.509   2.046 -0.0464 -0.3841  0.0176
25682WAT      O 4532  -4.361  10.131   6.819 -0.4287  0.2193  0.0677
25682WAT     H1 4533  -4.405  10.058   6.776  0.9757 -1.3589  1.1920
25682WAT     H2 4534  -4.272  10.129   6.785 -0.0424  0.6254  1.0296
25682WAT    EPW 4535  -4.355  10.121   6.809 -0.1926  0.0644  0.3426
25683WAT      O 4536   2.499   6.941   6.486 -0.1734 -0.4353  0.1122
25683WAT     H1 4537   2.537   6.855   6.502 -1.0042 -0.5599  1.7238
25683WAT     H2 4538   2.482   6.944   6.392  1.5756 -1.2764 -0.2649
25683WAT    EPW 4539   2.502   6.930   6.476 -0.0523 -0.5627  0.2751
25684WAT      O 4540   7.618   8.007   0.221 -0.8366  0.8127  0.5343
25684WAT     H1 4541   7.579   7.959   0.295 -1.0657  2.3809  1.4733
25684WAT     H2 4542   7.705   8.031   0.251 -0.6641  0.8703  0.0044
25684WAT    EPW 4543   7.624   8.004   0.235 -0.8438  1.0271  0.5883
25685WAT      O 4544  -3.846   4.367   8.294  0.2994 -0.4033 -0.5804
25685WAT     H1 4545  -3.928   4.324   8.317 -0.0327 -0.4993 -1.8449
25685WAT     H2 4546  -3.807   4.391   8.378 -1.2377  0.0654  0.0373
25685WAT    EPW 4547  -3.851   4.364   8.308  0.0529 -0.3543 -0.6657
25686WAT      O 4548  -3.579   9.920   6.727 -0.0217 -0.2563  0.3559
25686WAT     H1 4549  -3.509   9.973   6.766 -0.7461  0.3314  0.8727
25686WAT     H2 4550  -3.538   9.881   6.649 -0.3125  3.6951 -2.0702
25686WAT    EPW 4551  -3.564   9.922   6.722 -0.1556  0.3424  0.1042
25687WAT      O 4552   4.705   0.742   6.882 -0.5949 -0.9223  0.1457
25687WAT     H1 4553   4.717   0.831   6.915 -1.8152 -0.2840 -1.0677
25687WAT     H2 4554   4.736   0.745   6.791  0.6060 -2.0919  0.4733
25687WAT    EPW 4555   4.711   0.754   6.874 -0.5975 -0.9924  0.0288
25688WAT      O 4556  -4.729   5.662   8.411  0.7109 -0.5512 -0.4188
25688WAT     H1 4557  -4.794   5.716   8.456 -0.6792 -2.3405 -0.1583
25688WAT     H2 4558  -4.707   5.711   8.332  0.2404  0.8176  0.2702
25688WAT    EPW 4559  -4.735   5.676   8.406  0.4656 -0.6065 -0.2933
25689WAT      O 4560   4.078   7.228   5.586 -0.3717 -0.3612 -0.0937
25689WAT     H1 4561   4.088   7.184   5.502 -2.5431 -0.1565 -0.5207
25689WAT     H2 4562   4.046   7.161   5.645  0.1646 -0.2600  0.3275
25689WAT    EPW 4563   4.075   7.214   5.583 -0.5872 -0.3209 -0.0944
25690WAT      O 4564  -1.871   6.454   3.298  0.1920 -0.2962  0.1952
25690WAT     H1 4565  -1.806   6.389   3.273  0.9690  0.6919 -0.3868
25690WAT     H2 4566  -1.954   6.420   3.262  0.5967 -0.9370 -0.1421
25690WAT    EPW 4567  -1.874   6.441   3.290  0.3479 -0.2503  0.0740
25691WAT      O 4568   6.471   0.173   7.243 -0.5504 -0.3051  0.3264
25691WAT     H1 4569   6.532   0.195   7.173 -0.5595  1.2696  0.7682
25691WAT     H2 4570   6.498   0.086   7.273 -0.0886 -0.6781 -1.1187
25691WAT    EPW 4571   6.482   0.164   7.238 -0.4907 -0.1466  0.1941
25692WAT      O 4572  -2.524   7.216   3.304 -0.0797  0.5638 -0.1235
25692WAT     H1 4573  -2.448   7.273   3.305  0.7842 -0.5362  1.7080
25692WAT     H2 4574  -2.594   7.270   3.268  1.3812  1.8158 -1.2272
25692WAT    EPW 4575  -2.523   7.230   3.299  0.2269  0.5839 -0.0275
25693WAT      O 4576  -1.573   4.290   4.089 -0.0562 -0.4609  0.0983
25693WAT     H1 4577  -1.556   4.203   4.126 -1.7970 -0.3262  1.3235
25693WAT     H2 4578  -1.585   4.274   3.996 -0.3036 -1.5468  0.2978
25693WAT    EPW 4579  -1.572   4.276   4.082 -0.3184 -0.5863  0.2861
25694WAT      O 4580  -0.937   5.917   7.993 -0.0168  0.0141  0.3419
25694WAT     H1 4581  -0.921   5.978   7.920 -0.4799  0.2015  0.3935
25694WAT     H2 4582  -0.908   5.832   7.959  0.1755  0.1756  0.0927
25694WAT    EPW 4583  -0.931   5.914   7.979 -0.0525  0.0601  0.3159
25695WAT      O 4584  -3.408   5.295   8.163 -0.1189  0.5022  0.1487
25695WAT     H1 4585  -3.363   5.298   8.078 -0.1475 -0.4482  0.0884
25695WAT     H2 4586  -3.383   5.377   8.206  1.2467  0.2462 -0.0991
25695WAT    EPW 4587  -3.398   5.306   8.157  0.0576  0.3428  0.1082
25696WAT      O 4588  -1.291   7.994   4.103  0.0195 -0.0366 -0.0893
25696WAT     H1 4589  -1.384   8.016   4.111  0.2035  0.7658 -0.0438
25696WAT     H2 4590  -1.284   7.949   4.018 -0.2660  0.7323 -0.5286
25696WAT    EPW 4591  -1.302   7.991   4.093  0.0061  0.1707 -0.1411
25697WAT      O 4592  -0.941   9.874   8.124 -0.3515 -0.1527  0.2403
25697WAT     H1 4593  -0.967   9.866   8.216  0.0275 -0.3411  0.3353
25697WAT     H2 4594  -0.964   9.964   8.100 -1.2732 -0.3821  0.2551
25697WAT    EPW 4595  -0.947   9.885   8.133 -0.4230 -0.2079  0.2546
25698WAT      O 4596  -1.556   7.759   7.942  0.0781  0.3636 -0.3147
25698WAT     H1 4597  -1.647   7.739   7.918  0.1382  0.3602 -0.5452
25698WAT     H2 4598  -1.508   7.678   7.923  0.0563  0.2241  0.2144
25698WAT    EPW 4599  -1.562   7.745   7.936  0.0831  0.3450 -0.2751
25699WAT      O 4600  -6.162   8.031   8.677 -0.6537 -0.9782 -0.2747
25699WAT     H1 4601  -6.257   8.021   8.674 -0.7297 -0.2154 -0.5514
25699WAT     H2 4602  -6.135   7.972   8.748 -1.5537  0.3181  1.2305
25699WAT    EPW 4603  -6.171   8.022   8.686 -0.7825 -0.7067 -0.1125
25700WAT      O 4604   2.218   0.544   7.444  0.2681 -0.0450 -0.3972
25700WAT     H1 4605   2.296   0.488   7.435  0.6962  0.8046 -2.5521
25700WAT     H2 4606   2.221   0.574   7.534  1.2922 -1.6753  0.1617
25700WAT    EPW 4607   2.229   0.540   7.454  0.4596 -0.1480 -0.6077
25701WAT      O 4608  -1.861   7.992   8.686  0.3180 -0.4809  1.0223
25701WAT     H1 4609  -1.819   8.009   8.601 -2.4686  2.0287 -0.0590
25701WAT     H2 4610  -1.789   7.990   8.749  2.3383 -0.5173 -1.1509
25701WAT    EPW 4611  -1.846   7.994   8.683  0.2169 -0.1547  0.5927
25702WAT      O 4612  -2.286   7.715   1.910  0.5186 -0.4193  0.8092
25702WAT     H1 4613  -2.303   7.801   1.870  1.2328 -0.5298  0.2331
25702WAT     H2 4614  -2.201   7.726   1.954  1.4561 -1.2810 -0.6889
25702WAT    EPW 4615  -2.277   7.728   1.911  0.7365 -0.5474  0.5357
25703WAT      O 4616   2.677   6.832   7.595  0.4716 -0.1570  0.2001
25703WAT     H1 4617   2.739   6.904   7.604  2.1972 -1.1059 -2.6304
25703WAT     H2 4618   2.719   6.772   7.533 -1.5839 -2.8302  1.1811
25703WAT    EPW 4619   2.691   6.833   7.588  0.4281 -0.6347 -0.0439
25704WAT      O 4620   8.840   0.151   0.475  0.9724 -0.3259 -0.2444
25704WAT     H1 4621   8.776   0.216   0.445 -0.1551 -2.1939 -2.1859
25704WAT     H2 4622   8.922   0.177   0.434  0.5494 -0.0788 -0.9492
25704WAT    EPW 4623   8.842   0.163   0.465  0.7682 -0.5397 -0.5934
25705WAT      O 4624  -4.424   7.745   6.685  0.2455 -0.4354  0.2847
25705WAT     H1 4625  -4.426   7.650   6.673  1.2397 -0.5606  1.0271
25705WAT     H2 4626  -4.445   7.781   6.598 -1.5357 -1.3156  0.2981
25705WAT    EPW 4627  -4.427   7.737   6.672  0.1419 -0.5682  0.3843
25706WAT      O 4628   2.709   1.174   6.457 -0.1336 -0.4240  0.6254
25706WAT     H1 4629   2.803   1.158   6.452 -0.6065 -3.8159  0.6974
25706WAT     H2 4630   2.697   1.218   6.542  1.2905 -0.6371  0.9624
25706WAT    EPW 4631   2.720   1.178   6.468 -0.0082 -0.8994  0.6793
25707WAT      O 4632  -3.054   0.217   7.705 -0.0392 -0.8615 -0.0782
25707WAT     H1 4633  -2.962   0.205   7.730  0.6749 -2.0000 -2.8617
25707WAT     H2 4634  -3.060   0.179   7.618 -3.5057 -2.0669  0.5294
25707WAT    EPW 4635  -3.042   0.210   7.697 -0.4022 -1.1706 -0.3650
25708WAT      O 4636  -1.576   3.294   8.855  0.3445  0.1826 -0.1974
25708WAT     H1 4637  -1.646   3.261   8.798 -0.6696  2.8095 -0.6421
25708WAT     H2 4638  -1.616   3.297   8.942  0.6860 -0.4467 -0.0150
25708WAT    EPW 4639  -1.591   3.290   8.859  0.2558  0.4461 -0.2317
25709WAT      O 4640   4.265   0.236   8.535 -0.0264 -0.0115  0.5217
25709WAT     H1 4641   4.215   0.297   8.481 -1.2498 -0.4586  1.1152
25709WAT     H2 4642   4.204   0.165   8.554 -0.0525  0.6741  3.4275
25709WAT    EPW 4643   4.250   0.235   8.530 -0.1910  0.0200  0.9832
25710WAT      O 4644   6.122   1.455   5.634  0.0161 -0.0108  0.6766
25710WAT     H1 4645   6.178   1.531   5.622 -2.6124  2.0528  0.4638
25710WAT     H2 4646   6.149   1.419   5.719  1.6052  0.8861  0.5888
25710WAT    EPW 4647   6.133   1.461   5.644 -0.1209  0.3797  0.6371
25711WAT      O 4648  -3.506   1.340   7.323  0.2472 -0.4618 -0.4185
25711WAT     H1 4649  -3.549   1.381   7.397 -3.6952 -1.2154 -2.0047
25711WAT     H2 4650  -3.476   1.412   7.268  3.0627  0.0934  1.6751
25711WAT    EPW 4651  -3.508   1.355   7.325  0.0986 -0.4880 -0.3517
25712WAT      O 4652   2.987   8.543   7.776 -0.2183 -0.1171  0.8019
25712WAT     H1 4653   3.061   8.486   7.800  0.2464 -0.3168 -0.9788
25712WAT     H2 4654   3.020   8.632   7.789  0.1613 -0.2156  0.5415
25712WAT    EPW 4655   3.001   8.547   7.781 -0.1069 -0.1564  0.5326
25713WAT      O 4656   6.872   6.617   1.826 -0.0544  0.0240  0.6816
25713WAT     H1 4657   6.881   6.525   1.853 -0.7064 -0.1208  0.4261
25713WAT     H2 4658   6.917   6.666   1.895 -0.8631 -0.3967  1.5449
25713WAT    EPW 4659   6.879   6.611   1.839 -0.2470 -0.0503  0.7617
25714WAT      O 4660   4.558   2.640   8.504 -0.0560  0.6346  0.0967
25714WAT     H1 4661   4.469   2.675   8.511 -0.0584  0.4821  0.8496
25714WAT     H2 4662   4.552   2.551   8.537  0.4285  0.7093  0.3942
25714WAT    EPW 4663   4.546   2.633   8.509  0.0076  0.6242  0.2351
25715WAT      O 4664  -3.567   4.001   6.985 -0.6305 -0.1528  0.2776
25715WAT     H1 4665  -3.617   4.076   7.016 -1.1232 -0.8757  1.3143
25715WAT     H2 4666  -3.495   3.992   7.047 -1.3663 -1.3377  1.0201
25715WAT    EPW 4667  -3.564   4.009   6.997 -0.7925 -0.4044  0.5124
25716WAT      O 4668   7.936   3.409   0.972 -0.2108 -0.8750 -0.0130
25716WAT     H1 4669   7.954   3.389   1.064  2.3932  1.6155  0.1539
25716WAT     H2 4670   7.991   3.347   0.923  0.9971 -0.0189  0.2341
25716WAT    EPW 4671   7.946   3.398   0.978  0.2921 -0.4337  0.0416
25717WAT      O 4672  -5.467   6.120   7.184  0.0895 -0.0898 -0.5906
25717WAT     H1 4673  -5.419   6.037   7.176 -1.6455 -1.4722  2.0184
25717WAT     H2 4674  -5.447   6.151   7.272  0.2269  2.0270 -1.3047
25717WAT    EPW 4675  -5.458   6.113   7.194 -0.1211  0.0072 -0.3407
25718WAT      O 4676  -1.726   9.035   3.644 -0.2572  0.8285  0.3047
25718WAT     H1 4677  -1.658   8.968   3.650 -1.7659 -0.9067 -1.1281
25718WAT     H2 4678  -1.682   9.108   3.598  0.8825  0.1181  0.2191
25718WAT    EPW 4679  -1.711   9.036   3.639 -0.3060  0.5059  0.1044
25719WAT      O 4680   2.068   0.608   8.265  0.0394 -0.0549  0.8633
25719WAT     H1 4681   2.034   0.571   8.347 -1.3105  2.0656  1.3453
25719WAT     H2 4682   2.155   0.640   8.288 -0.3748  0.6403  1.5509
25719WAT    EPW 4683   2.075   0.608   8.279 -0.1931  0.3164  1.0176
25720WAT      O 4684  -7.112   8.129   7.903 -0.6596 -0.0418 -0.4632
25720WAT     H1 4685  -7.192   8.095   7.863 -2.1948  2.0655  0.6312
25720WAT     H2 4686  -7.052   8.054   7.904 -3.0621 -2.0801 -0.1117
25720WAT    EPW 4687  -7.115   8.114   7.898 -1.1790 -0.0324 -0.2725
25721WAT      O 4688   0.969   3.572   2.387 -0.3729  0.6361  0.5406
25721WAT     H1 4689   0.991   3.583   2.479 -0.5745 -0.0266  0.6702
25721WAT     H2 4690   0.992   3.482   2.367 -1.9378  0.2293  0.4097
25721WAT    EPW 4691   0.975   3.562   2.396 -0.6059  0.4950  0.5405
25722WAT      O 4692  -4.728   9.993   8.238  0.4648  0.5909 -0.4640
25722WAT     H1 4693  -4.671  10.055   8.193 -0.6218  0.4988 -2.0449
25722WAT     H2 4694  -4.696   9.907   8.211 -0.4355  0.5385 -1.4562
25722WAT    EPW 4695  -4.717   9.990   8.228  0.2029  0.5717 -0.8039
25723WAT      O 4696  -4.343   1.709   7.664  0.4191 -0.0562 -0.4236
25723WAT     H1 4697  -4.286   1.683   7.591 -1.0495 -0.1765 -1.5580
25723WAT     H2 4698  -4.373   1.797   7.642 -3.5518 -1.6413 -2.3478
25723WAT    EPW 4699  -4.339   1.717   7.651 -0.2983 -0.2812 -0.8271
25724WAT      O 4700   2.257   5.108   6.433 -0.9678  0.0125  0.3544
25724WAT     H1 4701   2.269   5.069   6.520 -1.3987  2.1733  1.4614
25724WAT     H2 4702   2.252   5.202   6.450 -3.3186  0.3615 -1.7707
25724WAT    EPW 4703   2.258   5.115   6.447 -1.3347  0.3436  0.2201
25725WAT      O 4704  -5.170   4.632   8.087  0.3027 -0.2281 -0.3760
25725WAT     H1 4705  -5.245   4.692   8.084  0.9315  0.5877 -0.1197
25725WAT     H2 4706  -5.145   4.630   8.179  0.5154 -0.6076 -0.4411
25725WAT    EPW 4707  -5.176   4.640   8.099  0.4139 -0.1705 -0.3510
25726WAT      O 4708  -1.982   7.357   4.642 -0.0691 -0.4493  0.4151
25726WAT     H1 4709  -2.008   7.443   4.609  0.3082 -0.2809  0.5478
25726WAT     H2 4710  -2.034   7.345   4.721 -1.0042 -0.8701 -0.2436
25726WAT    EPW 4711  -1.992   7.366   4.648 -0.1427 -0.4826  0.3457
25727WAT      O 4712   2.398   2.810   3.892  1.0353  0.5925  0.0989
25727WAT     H1 4713   2.333   2.777   3.954  0.3672  0.4548 -0.6598
25727WAT     H2 4714   2.434   2.888   3.934 -0.4431  1.3329  0.0459
25727WAT    EPW 4715   2.395   2.816   3.906  0.7522  0.6721 -0.0081
25728WAT      O 4716   2.307   6.372   1.754 -0.2613 -0.1958  0.2600
25728WAT     H1 4717   2.307   6.467   1.744  2.0967 -0.2115 -0.5758
25728WAT     H2 4718   2.234   6.354   1.813 -0.5890  2.1479  0.6756
25728WAT    EPW 4719   2.298   6.382   1.760  0.0064  0.1113  0.2046
25729WAT      O 4720   6.926   0.230   0.740 -0.8872 -0.8487 -0.3975
25729WAT     H1 4721   6.834   0.254   0.727 -0.3968  0.2327 -2.2662
25729WAT     H2 4722   6.954   0.198   0.654  0.6646 -0.4719 -0.0545
25729WAT    EPW 4723   6.917   0.229   0.727 -0.6180 -0.6564 -0.5987
25730WAT      O 4724  -4.342   7.450   3.391 -0.4824  0.4075 -0.0291
25730WAT     H1 4725  -4.427   7.480   3.420 -0.4241  1.6909 -1.0709
25730WAT     H2 4726  -4.342   7.467   3.296  0.9357  0.4822 -0.0364
25730WAT    EPW 4727  -4.353   7.456   3.382 -0.2875  0.5865 -0.1676
25731WAT      O 4728   3.874   7.279   2.969  0.4523  0.0070  0.4717
25731WAT     H1 4729   3.935   7.212   2.939 -0.5751 -0.5766 -0.4058
25731WAT     H2 4730   3.819   7.234   3.034  0.4059  0.2738  0.6172
25731WAT    EPW 4731   3.875   7.264   2.974  0.3107 -0.0346  0.3752
25732WAT      O 4732  -4.552   6.641   3.740 -0.1970 -0.2220  0.5084
25732WAT     H1 4733  -4.472   6.668   3.695 -0.9042 -0.7388 -1.1333
25732WAT     H2 4734  -4.522   6.615   3.827  1.7174 -2.1338 -0.6216
25732WAT    EPW 4735  -4.537   6.641   3.745 -0.0377 -0.5422  0.1428
25733WAT      O 4736   0.368   9.887   8.147  0.2672 -0.2051 -0.1968
25733WAT     H1 4737   0.277   9.881   8.177  0.6050  1.7032  1.3651
25733WAT     H2 4738   0.400   9.797   8.153 -0.7513 -0.4900  1.8632
25733WAT    EPW 4739   0.360   9.874   8.152  0.1774  0.0091  0.2813
25734WAT      O 4740   3.692   9.891   2.557  0.3502 -0.0080 -0.7285
25734WAT     H1 4741   3.757   9.959   2.546  0.0432  0.2023 -1.2513
25734WAT     H2 4742   3.737   9.810   2.534  0.4152  0.1410 -1.1255
25734WAT    EPW 4743   3.706   9.889   2.553  0.3183  0.0396 -0.8497
25735WAT      O 4744   1.106  10.100   7.893 -0.0201 -0.1678  0.1648
25735WAT     H1 4745   1.037  10.159   7.863 -0.6720 -0.9074  0.2014
25735WAT     H2 4746   1.125  10.044   7.818  0.7434  0.2036  0.0670
25735WAT    EPW 4747   1.099  10.101   7.879 -0.0054 -0.2165  0.1566
25736WAT      O 4748  -0.940   6.401   5.443 -0.0179 -0.5786  0.0020
25736WAT     H1 4749  -0.929   6.382   5.349 -0.7237  1.9361 -0.6735
25736WAT     H2 4750  -0.928   6.316   5.486  0.5968 -1.7677 -2.3307
25736WAT    EPW 4751  -0.937   6.387   5.436 -0.0299 -0.4036 -0.3946
25737WAT      O 4752  -3.086  10.027   1.782 -0.3994  0.2271 -0.5582
25737WAT     H1 4753  -3.113  10.110   1.744  1.1176  0.4774 -1.1662
25737WAT     H2 4754  -3.001  10.009   1.742 -0.1228 -0.9948  0.5080
25737WAT    EPW 4755  -3.079  10.035   1.772 -0.1628  0.0987 -0.4978
25738WAT      O 4756   6.329   0.422   1.119 -0.0748 -0.4447 -0.0494
25738WAT     H1 4757   6.338   0.509   1.081  2.2392 -0.3036  0.6401
25738WAT     H2 4758   6.327   0.437   1.214 -3.3537 -0.9507  0.0726
25738WAT    EPW 4759   6.330   0.435   1.127 -0.2019 -0.4928  0.0576
25739WAT      O 4760   0.685   4.889   2.143  0.5145 -0.7681  0.4302
25739WAT     H1 4761   0.648   4.857   2.061  2.0189 -2.2363  0.2500
25739WAT     H2 4762   0.776   4.912   2.121  0.8293 -0.8079  1.5823
25739WAT    EPW 4763   0.692   4.888   2.130  0.7544 -0.9670  0.5585
25740WAT      O 4764  -0.290   9.560   0.482  0.0714  0.9878  0.4170
25740WAT     H1 4765  -0.325   9.482   0.525  0.2393  1.2143  0.9816
25740WAT     H2 4766  -0.333   9.633   0.526 -1.1302  1.1933 -1.0465
25740WAT    EPW 4767  -0.300   9.559   0.494 -0.0649  1.0448  0.2984
25741WAT      O 4768  -6.312   9.924   7.391 -0.3064  0.3302 -0.3509
25741WAT     H1 4769  -6.286  10.009   7.354 -0.4766  0.0214 -1.2102
25741WAT     H2 4770  -6.230   9.882   7.414  0.0810 -0.7239 -3.2354
25741WAT    EPW 4771  -6.298   9.930   7.389 -0.2778  0.1507 -0.8447
25742WAT      O 4772  -3.496   6.000   4.593 -0.4294 -0.4405 -0.5619
25742WAT     H1 4773  -3.526   5.971   4.679  0.8656  1.7885  0.7184
25742WAT     H2 4774  -3.514   5.925   4.536 -3.4590 -1.1558  1.1085
25742WAT    EPW 4775  -3.502   5.986   4.597 -0.6582 -0.2408 -0.1729
25743WAT      O 4776   1.424   8.898   5.496 -0.1083 -0.5076  0.6488
25743WAT     H1 4777   1.381   8.825   5.451 -0.1582 -0.9137  1.3382
25743WAT     H2 4778   1.352   8.955   5.524  0.0074  1.0712 -1.9063
25743WAT    EPW 4779   1.409   8.896   5.494 -0.0997 -0.3533  0.4027
25744WAT      O 4780   1.586   1.301   3.425 -0.2515  0.3915  0.2247
25744WAT     H1 4781   1.505   1.306   3.374  0.6483 -0.4790 -1.3653
25744WAT     H2 4782   1.583   1.216   3.468 -0.7212  0.8727  1.1958
25744WAT    EPW 4783   1.575   1.291   3.424 -0.1948  0.3401  0.1431
25745WAT      O 4784   3.011   0.280   6.435 -0.7268 -0.3765 -0.3967
25745WAT     H1 4785   3.018   0.185   6.420  1.1274 -0.5135  0.9452
25745WAT     H2 4786   2.990   0.288   6.528  1.7116  0.5114  0.1435
25745WAT    EPW 4787   3.009   0.268   6.445 -0.1607 -0.2775 -0.1485
25746WAT      O 4788   1.357   5.363   6.911 -0.2529  0.0020 -0.4508
25746WAT     H1 4789   1.306   5.385   6.833  0.1924  2.8090 -0.0702
25746WAT     H2 4790   1.317   5.414   6.982  1.5596  0.4441  0.3383
25746WAT    EPW 4791   1.345   5.373   6.910  0.0449  0.4306 -0.2964
25747WAT      O 4792  -1.932   4.021   2.641 -0.4267  0.4509 -0.2810
25747WAT     H1 4793  -1.929   3.953   2.708  0.6455  0.2552 -0.5065
25747WAT     H2 4794  -1.964   4.099   2.686  3.5601  1.3645  1.4703
25747WAT    EPW 4795  -1.936   4.022   2.656  0.2405  0.5457 -0.0798
25748WAT      O 4796  -1.757   3.810   5.659  0.1044  0.0032  0.2186
25748WAT     H1 4797  -1.847   3.821   5.629  0.2161 -0.3289 -0.2467
25748WAT     H2 4798  -1.713   3.891   5.634  0.4500 -0.6692 -1.4532
25748WAT    EPW 4799  -1.763   3.822   5.652  0.1647 -0.1293 -0.0632
25749WAT      O 4800  -2.894   6.987   1.037 -0.1707  0.0832  0.1466
25749WAT     H1 4801  -2.956   6.955   0.971 -0.4646  0.2469  0.3410
25749WAT     H2 4802  -2.930   7.071   1.064 -0.4221 -0.2913  1.0053
25749WAT    EPW 4803  -2.907   6.994   1.032 -0.2426  0.0553  0.2855
25750WAT      O 4804   2.151   8.269   3.840  0.0324 -0.2084 -0.0382
25750WAT     H1 4805   2.167   8.194   3.783 -0.4391 -1.8276  1.8399
25750WAT     H2 4806   2.067   8.250   3.882 -0.5772  1.8651 -0.2149
25750WAT    EPW 4807   2.142   8.257   3.838 -0.1103 -0.1488  0.1861
25751WAT      O 4808   3.598  10.290   0.907 -0.1940 -0.6769 -0.1600
25751WAT     H1 4809   3.528  10.354   0.910 -1.1609 -1.7295  1.0025
25751WAT     H2 4810   3.651  10.308   0.985  1.1767  0.4189 -1.2731
25751WAT    EPW 4811   3.596  10.301   0.918 -0.1408 -0.6709 -0.1535
25752WAT      O 4812  -0.227   3.693   4.941 -0.0709  0.6694 -0.5210
25752WAT     H1 4813  -0.186   3.752   4.877 -0.2926  0.5692 -0.7598
25752WAT     H2 4814  -0.234   3.745   5.021  0.8200  0.5775 -0.3800
25752WAT    EPW 4815  -0.223   3.708   4.943  0.0173  0.6440 -0.5338
25753WAT      O 4816   3.475   7.720   2.204  0.1536 -0.2242  1.1087
25753WAT     H1 4817   3.426   7.775   2.265 -0.6126 -0.4160  0.6761
25753WAT     H2 4818   3.525   7.661   2.260 -0.3095 -0.2015  1.5530
25753WAT    EPW 4819   3.475   7.720   2.219 -0.0085 -0.2465  1.1102
25754WAT      O 4820  -7.866   9.731   7.902 -0.1262  0.1407 -0.6531
25754WAT     H1 4821  -7.913   9.813   7.915  1.0888  0.7200  0.2435
25754WAT     H2 4822  -7.885   9.679   7.980 -0.5686 -0.2949 -1.0358
25754WAT    EPW 4823  -7.874   9.735   7.914 -0.0243  0.1593 -0.5853
25755WAT      O 4824   2.394   4.967   0.430  0.2262 -0.3726 -0.3527
25755WAT     H1 4825   2.349   5.045   0.463  2.2070  2.2373 -3.1574
25755WAT     H2 4826   2.457   4.945   0.498  1.6231  2.4590 -0.5423
25755WAT    EPW 4827   2.396   4.975   0.443  0.6717  0.3452 -0.7476
25756WAT      O 4828   7.284   1.118   0.384  0.1873 -0.1916  0.4756
25756WAT     H1 4829   7.316   1.104   0.294  0.7921  0.3845  0.5976
25756WAT     H2 4830   7.253   1.208   0.384 -2.7673 -1.0979 -0.0289
25756WAT    EPW 4831   7.284   1.128   0.372 -0.1225 -0.2351  0.4251
25757WAT      O 4832  -1.179   3.933   2.010  0.3364 -0.1165 -0.3205
25757WAT     H1 4833  -1.268   3.898   2.005  0.4489 -0.3215 -0.9222
25757WAT     H2 4834  -1.136   3.900   1.932  0.8092  0.3600 -0.2627
25757WAT    EPW 4835  -1.185   3.924   1.999  0.4136 -0.0807 -0.3921
25758WAT      O 4836  -5.497   7.394   5.071  0.1294  0.2590 -0.2072
25758WAT     H1 4837  -5.566   7.453   5.103  0.0783 -0.0220  0.2044
25758WAT     H2 4838  -5.417   7.447   5.076 -0.4699  1.8410 -3.9971
25758WAT    EPW 4839  -5.496   7.409   5.076  0.0436  0.4306 -0.6528
25759WAT      O 4840   5.060   3.807   6.500  0.1834 -0.3848  0.2158
25759WAT     H1 4841   5.005   3.741   6.456 -1.0725  0.4383  0.4907
25759WAT     H2 4842   4.998   3.859   6.551  1.2033  0.7577  0.3274
25759WAT    EPW 4843   5.044   3.805   6.501  0.1526 -0.1255  0.2668
25760WAT      O 4844   1.260   6.587   2.293 -0.7942 -1.1806  0.5509
25760WAT     H1 4845   1.254   6.587   2.389 -1.4523  0.9653  0.5665
25760WAT     H2 4846   1.199   6.519   2.266 -1.1092 -1.3651  1.6587
25760WAT    EPW 4847   1.251   6.578   2.302 -0.9225 -0.9220  0.6990
25761WAT      O 4848   5.527   2.676   6.484  0.0556  0.0842 -0.2916
25761WAT     H1 4849   5.542   2.695   6.391  0.1940  2.2119  0.1113
25761WAT     H2 4850   5.502   2.583   6.486  1.8961 -0.5421 -2.2359
25761WAT    EPW 4851   5.526   2.666   6.472  0.3166  0.2823 -0.4950
25762WAT      O 4852   7.309   5.636   1.806 -0.9638  0.2986 -0.0899
25762WAT     H1 4853   7.305   5.540   1.800 -0.7662  0.3765 -2.7114
25762WAT     H2 4854   7.220   5.661   1.833 -1.5012 -0.5661 -0.9821
25762WAT    EPW 4855   7.296   5.627   1.809 -1.0087  0.1948 -0.5533
25763WAT      O 4856   4.746   3.207   3.421  0.1266 -0.8999  0.2635
25763WAT     H1 4857   4.706   3.174   3.501 -0.7358  0.3978  0.3887
25763WAT     H2 4858   4.811   3.270   3.451 -0.7069  0.1352 -0.0589
25763WAT    EPW 4859   4.750   3.211   3.436 -0.0968 -0.5922  0.2376
25764WAT      O 4860  -1.019   2.395   8.881  0.7419 -0.2453 -1.0287
25764WAT     H1 4861  -0.959   2.322   8.893 -1.0079 -1.8879 -1.7565
25764WAT     H2 4862  -1.100   2.355   8.848 -0.6978  1.8796 -0.3085
25764WAT    EPW 4863  -1.022   2.380   8.878  0.3212 -0.1817 -1.0295
25765WAT      O 4864   5.485   0.699   3.048 -0.4849  0.2670  0.1581
25765WAT     H1 4865   5.448   0.711   2.960  0.0519  2.8281  0.2052
25765WAT     H2 4866   5.493   0.788   3.082  0.5246 -0.6040  2.3217
25765WAT    EPW 4867   5.481   0.712   3.041 -0.2809  0.4899  0.4497
25766WAT      O 4868   2.502  10.373   2.614 -0.3571  0.2736  0.1317
25766WAT     H1 4869   2.436  10.434   2.581  0.6484  0.6324 -1.3499
25766WAT     H2 4870   2.466  10.286   2.597 -1.1283  0.4427  0.8380
25766WAT    EPW 4871   2.489  10.370   2.607 -0.3262  0.3433  0.0296
25767WAT      O 4872   3.029   1.803   5.914 -0.3081 -0.4770  0.4890
25767WAT     H1 4873   2.988   1.837   5.993 -0.2173 -1.5699  1.0227
25767WAT     H2 4874   2.957   1.789   5.853 -0.7385 -2.0617  1.3041
25767WAT    EPW 4875   3.014   1.806   5.916 -0.3529 -0.8302  0.6669
25768WAT      O 4876  -1.962   3.405   1.418 -0.2213  0.0652  0.5855
25768WAT     H1 4877  -1.917   3.488   1.399  0.3041  0.2924  2.5415
25768WAT     H2 4878  -1.914   3.340   1.367  1.7525  0.4669  1.7981
25768WAT    EPW 4879  -1.950   3.408   1.409  0.1084  0.1482  1.0034
25769WAT      O 4880   5.068   5.542   6.307 -0.1084  0.2322 -0.8052
25769WAT     H1 4881   5.010   5.548   6.231  1.0450 -0.9587 -1.8441
25769WAT     H2 4882   5.130   5.473   6.284  1.0129  0.6631  0.7403
25769WAT    EPW 4883   5.069   5.534   6.294  0.1915  0.1316 -0.7384
25770WAT      O 4884   5.301   5.813   2.921 -0.3499  0.3922  0.0680
25770WAT     H1 4885   5.208   5.810   2.944 -0.0211  1.4602  1.7383
25770WAT     H2 4886   5.305   5.880   2.852 -0.8623  0.0954 -0.2573
25770WAT    EPW 4887   5.289   5.822   2.915 -0.3741  0.4940  0.2453
25771WAT      O 4888   5.531   1.544   0.346  0.8338 -0.7650 -0.1035
25771WAT     H1 4889   5.536   1.476   0.413  0.9784 -0.7794 -0.1274
25771WAT     H2 4890   5.447   1.587   0.361  1.8205  0.7250  1.5313
25771WAT    EPW 4891   5.521   1.541   0.357  0.9830 -0.5704  0.1090
25772WAT      O 4892   3.967   1.005   4.293 -0.5785 -0.6043 -0.2461
25772WAT     H1 4893   3.922   1.070   4.240 -3.4090 -0.7806  1.7360
25772WAT     H2 4894   3.986   0.934   4.232  1.5360  1.4596 -2.1914
25772WAT    EPW 4895   3.964   1.004   4.278 -0.6728 -0.3554 -0.2410
25773WAT      O 4896  -2.209   0.962   4.792  0.3235 -0.1576  0.3446
25773WAT     H1 4897  -2.129   0.910   4.791 -0.9508 -2.1985 -0.1390
25773WAT     H2 4898  -2.199   1.020   4.868  1.8043 -1.1040  0.9019
25773WAT    EPW 4899  -2.197   0.963   4.802  0.3507 -0.5516  0.3543
25774WAT      O 4900  -0.551   0.564   1.405 -0.1357 -0.3716 -0.0343
25774WAT     H1 4901  -0.641   0.584   1.378 -0.8953 -2.4615  0.7394
25774WAT     H2 4902  -0.553   0.471   1.429  2.4318 -0.6724 -0.6857
25774WAT    EPW 4903  -0.563   0.554   1.405  0.1027 -0.6869 -0.0182
25775WAT      O 4904  -7.288   8.858   7.865  0.2755 -0.0020  0.5016
25775WAT     H1 4905  -7.320   8.795   7.929  0.3762 -0.0489  0.5061
25775WAT     H2 4906  -7.202   8.885   7.899  0.3302 -0.0304  0.3828
25775WAT    EPW 4907  -7.281   8.853   7.878  0.2959 -0.0119  0.4864
25776WAT      O 4908   2.482   1.718   4.455 -0.0358 -0.2454  0.2360
25776WAT     H1 4909   2.568   1.700   4.492  0.0187 -1.3845 -0.3863
25776WAT     H2 4910   2.425   1.650   4.492 -0.8048  0.8255  1.0709
25776WAT    EPW 4911   2.486   1.706   4.465 -0.1299 -0.2544  0.2642
25777WAT      O 4912   2.449   3.802   8.787  0.2866  0.3009 -0.2267
25777WAT     H1 4913   2.508   3.875   8.766  0.8325 -0.1343 -0.2457
25777WAT     H2 4914   2.377   3.810   8.725  1.9325 -1.0555 -2.4866
25777WAT    EPW 4915   2.448   3.813   8.776  0.5758  0.0647 -0.5274
25778WAT      O 4916   3.218   6.386   2.827 -0.3102 -0.1930 -0.1113
25778WAT     H1 4917   3.149   6.424   2.881 -2.4182 -1.1013 -2.0093
25778WAT     H2 4918   3.294   6.442   2.842 -1.6533  1.3109  1.4865
25778WAT    EPW 4919   3.219   6.398   2.836 -0.7653 -0.1144 -0.1509
25779WAT      O 4920   1.336   5.271   1.655  0.0615  0.0488  0.2431
25779WAT     H1 4921   1.430   5.268   1.670  0.2449 -0.1025 -0.9055
25779WAT     H2 4922   1.301   5.200   1.710  0.5984  0.1657  0.7407
25779WAT    EPW 4923   1.344   5.261   1.664  0.1565  0.0441  0.1573
25780WAT      O 4924  -2.824   4.497   2.157  0.7969 -0.0415 -0.4000
25780WAT     H1 4925  -2.735   4.462   2.146  0.1744 -1.3561 -1.5051
25780WAT     H2 4926  -2.861   4.496   2.069 -0.4426  0.1609  0.1053
25780WAT    EPW 4927  -2.817   4.492   2.144  0.5513 -0.1881 -0.4791
25781WAT      O 4928   0.273   0.552   8.762 -0.4826  0.1137 -0.2967
25781WAT     H1 4929   0.306   0.637   8.732 -0.7140  0.3612  0.1315
25781WAT     H2 4930   0.349   0.494   8.760 -0.1599  0.5133  0.0723
25781WAT    EPW 4931   0.287   0.556   8.758 -0.4706  0.1990 -0.1912
25782WAT      O 4932   4.317   6.515   2.006  0.6590  0.6854  0.1063
25782WAT     H1 4933   4.266   6.488   2.082  0.8959  3.2810  1.3165
25782WAT     H2 4934   4.258   6.574   1.958  1.4782  1.3354 -0.1223
25782WAT    EPW 4935   4.302   6.519   2.010  0.7985  1.1134  0.2357
25783WAT      O 4936   2.762   3.371   0.041 -0.2689  0.3119 -0.2961
25783WAT     H1 4937   2.772   3.278   0.062  1.2342  0.1557 -1.5770
25783WAT     H2 4938   2.677   3.376  -0.004  0.7939 -0.9312 -2.5943
25783WAT    EPW 4939   2.752   3.359   0.038  0.0695  0.1272 -0.7682
25784WAT      O 4940   6.733   0.094   2.282  0.1152  0.0680  0.6115
25784WAT     H1 4941   6.782   0.154   2.227  2.0545 -1.2373  0.7962
25784WAT     H2 4942   6.712   0.020   2.225  2.2173 -1.3372  1.5005
25784WAT    EPW 4943   6.737   0.092   2.267  0.6480 -0.2895  0.7530
25785WAT      O 4944  -2.704  10.375   6.578  0.2174  0.7538 -0.5846
25785WAT     H1 4945  -2.616  10.412   6.585  0.4667 -0.1096  2.2649
25785WAT     H2 4946  -2.702  10.297   6.635 -2.3491  0.6616 -0.4924
25785WAT    EPW 4947  -2.692  10.369   6.586 -0.0883  0.6280 -0.1967
25786WAT      O 4948   1.349   1.777   7.642  0.2776  0.8275 -0.6333
25786WAT     H1 4949   1.282   1.722   7.601 -0.6778  0.5047  1.2812
25786WAT     H2 4950   1.319   1.790   7.731  3.0399  0.2235  0.4865
25786WAT    EPW 4951   1.337   1.772   7.648  0.5159  0.7052 -0.2332
25787WAT      O 4952   6.592   6.517   2.025 -0.3210  0.2235 -0.3640
25787WAT     H1 4953   6.622   6.603   1.996  0.4647 -0.1450 -0.6571
25787WAT     H2 4954   6.667   6.479   2.072 -0.9774  0.0821  0.6016
25787WAT    EPW 4955   6.606   6.523   2.028 -0.3040  0.1564 -0.2753
25788WAT      O 4956  -4.557   8.535   8.641 -0.0734  0.5314  0.5498
25788WAT     H1 4957  -4.483   8.535   8.580 -0.0782  1.6649  0.5117
25788WAT     H2 4958  -4.517   8.524   8.727  0.1040  0.6347  0.4821
25788WAT    EPW 4959  -4.542   8.534   8.644 -0.0505  0.6948  0.5360
25789WAT      O 4960   4.292   7.410   0.785  0.4311 -0.6356 -0.2401
25789WAT     H1 4961   4.270   7.368   0.702 -2.6352 -0.4833  0.3427
25789WAT     H2 4962   4.302   7.503   0.762 -1.7945 -0.3530 -0.3714
25789WAT    EPW 4963   4.290   7.417   0.771 -0.2668 -0.5782 -0.1805
25790WAT      O 4964  -3.595   6.590   7.936 -0.3054  0.3591  0.1740
25790WAT     H1 4965  -3.508   6.621   7.962 -1.0662  0.8646  2.3386
25790WAT     H2 4966  -3.578   6.528   7.865  1.8839 -0.0181  0.9369
25790WAT    EPW 4967  -3.582   6.586   7.930 -0.1169  0.3760  0.5600
25791WAT      O 4968  -2.475   7.309   2.051  0.7997  0.0363 -0.2006
25791WAT     H1 4969  -2.519   7.240   2.000  0.6604 -2.1168  2.5818
25791WAT     H2 4970  -2.444   7.371   1.985 -0.3038 -1.9565 -2.7928
25791WAT    EPW 4971  -2.477   7.308   2.035  0.6357 -0.5105 -0.1756
25792WAT      O 4972   0.977   6.988   6.027  0.1589  0.6752  0.4222
25792WAT     H1 4973   1.032   6.911   6.036  1.3016  1.6106  1.8159
25792WAT     H2 4974   1.019   7.041   5.959 -1.1538 -0.2937 -1.2464
25792WAT    EPW 4975   0.990   6.985   6.019  0.1365  0.6709  0.3860
25793WAT      O 4976  -1.063   8.766   0.146 -0.7401  0.6507  0.3414
25793WAT     H1 4977  -1.131   8.772   0.214 -1.8628  0.4709 -0.7275
25793WAT     H2 4978  -1.075   8.679   0.108 -1.4565  1.4785 -1.4170
25793WAT    EPW 4979  -1.074   8.755   0.150 -0.9827  0.7358 -0.0315
25794WAT      O 4980   3.600   0.251   3.755  0.4443 -0.3644 -0.4926
25794WAT     H1 4981   3.578   0.205   3.836  1.3918 -0.0632 -0.0555
25794WAT     H2 4982   3.649   0.187   3.703 -1.9772 -1.3066 -1.8097
25794WAT    EPW 4983   3.603   0.237   3.759  0.2499 -0.4490 -0.6088
25795WAT      O 4984  -5.117   7.587   7.845  0.5882  0.2999  0.4583
25795WAT     H1 4985  -5.146   7.559   7.932  0.5051 -1.5509 -0.1227
25795WAT     H2 4986  -5.048   7.651   7.862  0.1641  0.4096  1.8794
25795WAT    EPW 4987  -5.112   7.592   7.858  0.5214  0.0701  0.5691
25796WAT      O 4988   5.867   4.700   3.253 -0.5219 -0.1912  0.5237
25796WAT     H1 4989   5.946   4.646   3.246  0.1859  0.9416 -0.6823
25796WAT     H2 4990   5.875   4.743   3.338 -1.6092 -2.6799  1.9952
25796WAT    EPW 4991   5.879   4.698   3.263 -0.5720 -0.3700  0.5586
25797WAT      O 4992   3.005   9.397   3.510 -0.1583 -0.4701 -0.4674
25797WAT     H1 4993   2.993   9.328   3.574 -0.4264  0.8308  0.9399
25797WAT     H2 4994   2.927   9.393   3.455 -1.3044  0.1799  1.0576
25797WAT    EPW 4995   2.993   9.387   3.511 -0.3448 -0.2127 -0.0805
25798WAT      O 4996   2.955   7.042   0.061 -0.1143 -0.2388  0.3919
25798WAT     H1 4997   2.940   6.995   0.143 -1.7567  2.0888  1.5331
25798WAT     H2 4998   3.009   6.983   0.009  2.4455 -1.1660  3.7525
25798WAT    EPW 4999   2.961   7.028   0.065  0.0067 -0.0539  0.9857
25799WAT      O 5000  -5.065   7.162   4.488  0.1048  0.6123  0.3310
25799WAT     H1 5001  -5.093   7.103   4.419  1.1207  1.5834 -0.9675
25799WAT     H2 5002  -5.144   7.175   4.542 -1.0541  0.7641 -1.3262
25799WAT    EPW 5003  -5.079   7.156   4.486  0.0861  0.7603 -0.0587
25800WAT      O 5004   0.638   9.522   1.142  0.1558  0.1622 -0.8200
25800WAT     H1 5005   0.670   9.475   1.219  1.5973  0.4019 -1.2321
25800WAT     H2 5006   0.602   9.603   1.177  0.1834 -0.0292 -0.3437
25800WAT    EPW 5007   0.638   9.527   1.157  0.3495  0.1688 -0.8115
25801WAT      O 5008  -0.554   5.602   1.027  0.1184 -0.7499  0.0900
25801WAT     H1 5009  -0.467   5.563   1.038  0.5879 -0.5178 -2.2811
25801WAT     H2 5010  -0.566   5.607   0.932 -1.3910  1.6754  0.3300
25801WAT    EPW 5011  -0.544   5.598   1.016 -0.0188 -0.3996 -0.1911
25802WAT      O 5012  -5.616  10.059   7.415  0.2193 -0.1713 -0.3656
25802WAT     H1 5013  -5.652  10.002   7.347  1.5927 -1.4319 -0.0895
25802WAT     H2 5014  -5.679  10.131   7.421 -0.8475 -0.9276 -1.7173
25802WAT    EPW 5015  -5.629  10.061   7.407  0.2599 -0.4377 -0.5074
25803WAT      O 5016  -6.265   7.212   7.471  0.1992  0.2054 -0.0720
25803WAT     H1 5017  -6.287   7.296   7.510 -0.8099 -0.8206  1.7370
25803WAT     H2 5018  -6.178   7.191   7.506  0.9315  0.9394 -1.3780
25803WAT    EPW 5019  -6.256   7.220   7.481  0.1624  0.1667 -0.0057
25804WAT      O 5020   1.593   1.069   7.054  0.3021  0.2303 -0.3565
25804WAT     H1 5021   1.654   1.143   7.060 -0.4631  1.1757 -2.8183
25804WAT     H2 5022   1.647   0.997   7.021  0.4282  0.6044 -0.9847
25804WAT    EPW 5023   1.608   1.069   7.050  0.2179  0.4043 -0.7639
25805WAT      O 5024  -2.719   9.576   6.706  0.7769  0.7571 -0.5494
25805WAT     H1 5025  -2.683   9.664   6.714  0.1803  0.8231  3.0746
25805WAT     H2 5026  -2.665   9.522   6.764  0.8491 -1.2139 -2.3344
25805WAT    EPW 5027  -2.707   9.581   6.715  0.7077  0.5054 -0.3066
25806WAT      O 5028  -6.192   5.009   8.498  0.3860  0.2239  0.1107
25806WAT     H1 5029  -6.098   5.027   8.502  0.8937 -1.2673 -2.6510
25806WAT     H2 5030  -6.233   5.095   8.485  1.5180  0.7198 -0.2661
25806WAT    EPW 5031  -6.185   5.023   8.497  0.6022  0.0925 -0.3037
25807WAT      O 5032   2.769   6.595   0.404 -0.0982  0.4569 -0.9961
25807WAT     H1 5033   2.757   6.638   0.488  3.4221  4.1971 -2.0714
25807WAT     H2 5034   2.821   6.517   0.424 -0.2080  0.7067  0.3714
25807WAT    EPW 5035   2.774   6.591   0.418  0.3515  0.9830 -0.9576
25808WAT      O 5036  -3.075   9.307   1.178  0.1112 -0.0640  0.1026
25808WAT     H1 5037  -3.161   9.317   1.219 -0.5056  0.2268 -1.1893
25808WAT     H2 5038  -3.042   9.397   1.169  0.5645 -0.1752  0.6094
25808WAT    EPW 5039  -3.082   9.320   1.182  0.0895 -0.0410 -0.0010
25809WAT      O 5040  -0.763   7.308   4.682 -0.1335  0.4518 -0.0735
25809WAT     H1 5041  -0.676   7.347   4.671 -0.4336  0.5208 -2.8493
25809WAT     H2 5042  -0.820   7.383   4.703  0.0002  0.8892 -1.2104
25809WAT    EPW 5043  -0.759   7.323   4.683 -0.1554  0.5186 -0.5894
25810WAT      O 5044  -1.012   0.790   5.750  0.5713 -0.0435 -0.5592
25810WAT     H1 5045  -1.058   0.874   5.753  0.7111  0.1675 -2.8198
25810WAT     H2 5046  -0.920   0.813   5.764  0.3691 -0.1285  1.0939
25810WAT    EPW 5047  -1.006   0.804   5.752  0.5631 -0.0269 -0.6394
25811WAT      O 5048   3.865   2.259   8.110 -0.0946  0.0451  0.0051
25811WAT     H1 5049   3.951   2.235   8.074 -0.0850  1.8254 -1.2718
25811WAT     H2 5050   3.817   2.176   8.113  1.1595 -0.7489 -0.6344
25811WAT    EPW 5051   3.870   2.245   8.106  0.0720  0.1752 -0.2475
25812WAT      O 5052   4.539   2.127   0.436  0.4532 -0.5299  0.8857
25812WAT     H1 5053   4.607   2.168   0.383  1.0223 -1.2262  1.0425
25812WAT     H2 5054   4.588   2.087   0.509 -0.2444 -0.1060  1.6020
25812WAT    EPW 5055   4.555   2.127   0.439  0.4363 -0.5659  1.0009
25813WAT      O 5056  -0.730   9.544   5.279 -0.2954  0.4269  0.5175
25813WAT     H1 5057  -0.752   9.507   5.365  0.3381  0.7375  0.8149
25813WAT     H2 5058  -0.742   9.638   5.289  1.5158  0.6633  0.8133
25813WAT    EPW 5059  -0.735   9.552   5.292  0.0270  0.4992  0.5958
25814WAT      O 5060  -2.954   8.539   5.031 -0.4013 -0.1550  0.1198
25814WAT     H1 5061  -2.864   8.504   5.034 -1.3646 -2.8534  0.7057
25814WAT     H2 5062  -2.950   8.619   5.083  1.2022 -1.4935  2.2600
25814WAT    EPW 5063  -2.941   8.545   5.038 -0.3170 -0.6876  0.4792
25815WAT      O 5064  -3.015   9.347   7.191  0.4738  0.1506  0.4951
25815WAT     H1 5065  -3.047   9.264   7.155 -0.2120  0.7412 -0.3047
25815WAT     H2 5066  -3.079   9.412   7.162  2.2319  1.3555 -0.9171
25815WAT    EPW 5067  -3.028   9.345   7.182  0.6151  0.3877  0.2034
25816WAT      O 5068   1.809   5.205   7.205 -0.6629  0.8442  0.8561
25816WAT     H1 5069   1.720   5.199   7.172 -0.5226  1.8876  0.2374
25816WAT     H2 5070   1.864   5.186   7.129 -0.3564  0.8972  1.0612
25816WAT    EPW 5071   1.805   5.202   7.191 -0.6040  0.9890  0.8016
25817WAT      O 5072   6.816   1.889   2.887  0.2282  0.5992 -0.9437
25817WAT     H1 5073   6.731   1.870   2.849 -0.6069  0.7847  0.7601
25817WAT     H2 5074   6.799   1.901   2.981  1.7007  3.1744 -0.8985
25817WAT    EPW 5075   6.803   1.888   2.895  0.3123  0.9634 -0.7129
25818WAT      O 5076   2.682   4.276   8.747 -0.2714  0.4298  0.0146
25818WAT     H1 5077   2.639   4.234   8.672 -0.2818  0.2845  0.1014
25818WAT     H2 5078   2.696   4.205   8.809 -0.9422  0.6822  0.4640
25818WAT    EPW 5079   2.678   4.261   8.745 -0.3612  0.4439  0.0854
25819WAT      O 5080  -0.564   9.319   4.249 -0.5537 -0.2230  0.0976
25819WAT     H1 5081  -0.580   9.358   4.335  0.7999 -1.4058  0.9213
25819WAT     H2 5082  -0.526   9.390   4.197 -2.0663  0.7068  0.1975
25819WAT    EPW 5083  -0.561   9.334   4.253 -0.5746 -0.2565  0.2193
25820WAT      O 5084  -5.029   1.596   7.629  0.4797 -0.5916 -1.0947
25820WAT     H1 5085  -5.084   1.670   7.654 -0.1802 -0.6221 -2.3678
25820WAT     H2 5086  -5.027   1.540   7.707 -1.6927 -0.8191 -1.1424
25820WAT    EPW 5087  -5.036   1.599   7.642  0.1061 -0.6256 -1.2689
25821WAT      O 5088   5.750   1.945   6.108 -0.7649 -0.1331 -0.4938
25821WAT     H1 5089   5.821   1.885   6.132  0.0997  1.5106  1.2693
25821WAT     H2 5090   5.792   2.031   6.104 -2.7795  1.0133  1.3577
25821WAT    EPW 5091   5.765   1.949   6.110 -0.9165  0.2349 -0.0172
25822WAT      O 5092   0.417   2.822   1.846 -0.5511  0.4198 -1.0029
25822WAT     H1 5093   0.414   2.763   1.771 -2.2404 -1.0822  0.1553
25822WAT     H2 5094   0.326   2.828   1.875  0.3641 -2.0638  3.1190
25822WAT    EPW 5095   0.404   2.815   1.840 -0.6532 -0.1059 -0.3065
25823WAT      O 5096   7.976   2.991   2.181 -0.5693  0.0700  0.1395
25823WAT     H1 5097   7.894   3.021   2.144 -1.6058 -1.5951  0.9496
25823WAT     H2 5098   7.957   2.980   2.275  0.8816  0.6436  0.5266
25823WAT    EPW 5099   7.963   2.994   2.189 -0.5147 -0.0740  0.2974
25824WAT      O 5100   4.198  10.291   1.442  0.1235  0.0343 -0.8993
25824WAT     H1 5101   4.217  10.275   1.349 -3.2793  2.7032 -2.2596
25824WAT     H2 5102   4.141  10.368   1.442 -0.6413 -0.3013  3.3936
25824WAT    EPW 5103   4.193  10.299   1.430 -0.4263  0.3419 -0.5125
25825WAT      O 5104  -0.082   0.306   8.715  0.5118  0.3219 -0.4228
25825WAT     H1 5105  -0.036   0.381   8.676 -2.4056  1.6338 -1.6495
25825WAT     H2 5106  -0.098   0.331   8.805  2.7543 -0.4964  0.2657
25825WAT    EPW 5107  -0.078   0.319   8.721  0.4228  0.3870 -0.4935
25826WAT      O 5108   2.926   7.667   6.111 -0.2133 -0.3655  0.3034
25826WAT     H1 5109   2.919   7.762   6.106  0.1482 -0.3709 -0.5738
25826WAT     H2 5110   2.849   7.639   6.159 -0.2863  0.3785  0.6246
25826WAT    EPW 5111   2.915   7.676   6.117 -0.1752 -0.2682  0.2301
25827WAT      O 5112   0.621   5.505   1.948 -0.3151 -0.0894 -0.3727
25827WAT     H1 5113   0.534   5.509   1.908 -0.0965  0.2634 -0.8255
25827WAT     H2 5114   0.656   5.594   1.937 -0.0111 -0.1556  0.0575
25827WAT    EPW 5115   0.614   5.517   1.941 -0.2462 -0.0515 -0.3757
25828WAT      O 5116  -2.067  10.381   7.973 -0.7314 -0.5807 -0.2721
25828WAT     H1 5117  -2.074  10.310   8.037 -2.4917  0.4796  0.7666
25828WAT     H2 5118  -2.125  10.353   7.902  1.9145 -2.2027 -1.9754
25828WAT    EPW 5119  -2.075  10.368   7.972 -0.6146 -0.6548 -0.3600
25829WAT      O 5120   2.764   8.638   2.446 -0.5972  0.2344 -0.0133
25829WAT     H1 5121   2.705   8.607   2.377 -1.0270 -0.7442  0.7717
25829WAT     H2 5122   2.778   8.562   2.502  0.5533  0.7451  0.4303
25829WAT    EPW 5123   2.758   8.624   2.444 -0.5022  0.1731  0.1489
25830WAT      O 5124   4.089   7.570   1.928  0.0121  0.0854 -0.0283
25830WAT     H1 5125   4.150   7.606   1.863  0.3422 -0.0424  0.2052
25830WAT     H2 5126   4.146   7.540   2.000 -0.4749  2.3078  1.3702
25830WAT    EPW 5127   4.105   7.571   1.929 -0.0086  0.3617  0.1869
25831WAT      O 5128  -2.169   6.087   2.307  0.3007 -0.1323  0.2090
25831WAT     H1 5129  -2.146   5.996   2.323  3.8218  0.5741 -0.0587
25831WAT     H2 5130  -2.155   6.130   2.392 -2.3714  0.0841  0.6277
25831WAT    EPW 5131  -2.164   6.081   2.320  0.4126 -0.0107  0.2289
25832WAT      O 5132  -0.583   1.950   8.700  1.1277 -0.1776  0.2446
25832WAT     H1 5133  -0.517   1.882   8.716  0.8789  0.0703  2.6600
25832WAT     H2 5134  -0.655   1.903   8.658  1.8832 -0.9337 -0.2497
25832WAT    EPW 5135  -0.583   1.935   8.697  1.1945 -0.2446  0.4978
25833WAT      O 5136   8.962   1.711   0.165 -0.2562 -0.2249  0.3326
25833WAT     H1 5137   8.988   1.794   0.204 -2.6630  0.6061  0.3619
25833WAT     H2 5138   9.027   1.694   0.097  0.5645  1.4221  0.6597
25833WAT    EPW 5139   8.974   1.719   0.161 -0.4654  0.1019  0.3796
25834WAT      O 5140  -4.630   8.644   6.182  0.3899 -0.3877  0.2178
25834WAT     H1 5141  -4.701   8.707   6.179 -1.1699 -2.0649  0.3560
25834WAT     H2 5142  -4.596   8.640   6.093 -1.5132 -1.5144 -0.5039
25834WAT    EPW 5143  -4.635   8.651   6.170 -0.0668 -0.7577  0.1407
25835WAT      O 5144   1.632   0.232   3.425 -0.1703  0.2029  0.1872
25835WAT     H1 5145   1.620   0.293   3.498  0.4832  1.5764 -0.7931
25835WAT     H2 5146   1.725   0.209   3.427 -0.0809  0.4822 -0.3588
25835WAT    EPW 5147   1.643   0.237   3.435 -0.0723  0.4209 -0.0142
25836WAT      O 5148  -1.620   7.698   7.333 -0.5670  0.1808 -0.1272
25836WAT     H1 5149  -1.633   7.770   7.394 -0.4374 -0.0867  0.2224
25836WAT     H2 5150  -1.657   7.622   7.378  0.2035 -0.1659 -0.0553
25836WAT    EPW 5151  -1.627   7.697   7.347 -0.4482  0.0999 -0.0718
25837WAT      O 5152  -2.698   0.185   6.947 -0.7310  0.4800  0.0864
25837WAT     H1 5153  -2.695   0.089   6.941 -0.1210  0.3967  1.4032
25837WAT     H2 5154  -2.608   0.212   6.933 -0.9789  0.9140 -0.7379
25837WAT    EPW 5155  -2.686   0.176   6.945 -0.6832  0.5262  0.1514
25838WAT      O 5156  -1.057   2.166   3.564  0.4797 -0.7010 -0.4778
25838WAT     H1 5157  -1.061   2.071   3.552 -0.3529 -0.6597 -0.6027
25838WAT     H2 5158  -1.108   2.183   3.643 -1.0415 -0.2026 -1.5002
25838WAT    EPW 5159  -1.064   2.156   3.573  0.1693 -0.6298 -0.6292
25839WAT      O 5160   4.400   0.588   3.912 -0.4558  0.3814  0.5242
25839WAT     H1 5161   4.308   0.569   3.894 -0.5487  0.1152  1.2560
25839WAT     H2 5162   4.408   0.582   4.007  0.3031  0.4709  0.4740
25839WAT    EPW 5163   4.389   0.584   3.922 -0.3679  0.3581  0.6140
25840WAT      O 5164  -3.054   7.880   4.615 -0.1989  0.4843 -0.4601
25840WAT     H1 5165  -3.109   7.841   4.547 -1.4079  2.0125 -0.4101
25840WAT     H2 5166  -3.113   7.896   4.688  0.4371  1.5963 -0.1586
25840WAT    EPW 5167  -3.069   7.877   4.616 -0.2744  0.8326 -0.4137
25841WAT      O 5168   0.352  10.061   8.373  0.1274  0.6210  0.2171
25841WAT     H1 5169   0.376  10.144   8.331 -1.9090  1.4403  0.5361
25841WAT     H2 5170   0.365   9.995   8.305  1.9045  1.1653 -0.0056
25841WAT    EPW 5171   0.357  10.063   8.358  0.0932  0.8006  0.2298
25842WAT      O 5172  -0.937   6.069   1.875  0.5725 -0.1116 -0.4397
25842WAT     H1 5173  -0.892   6.122   1.809  1.0247  0.1094  0.0422
25842WAT     H2 5174  -0.866   6.032   1.928  0.3736 -2.3577 -1.6059
25842WAT    EPW 5175  -0.922   6.071   1.873  0.6059 -0.3786 -0.5299
25843WAT      O 5176   6.539   9.015   0.961 -0.7446 -1.1071 -0.4475
25843WAT     H1 5177   6.623   9.014   0.915 -1.1827  0.5751 -1.3818
25843WAT     H2 5178   6.479   9.056   0.899 -1.2665  1.6933  1.7107
25843WAT    EPW 5179   6.542   9.021   0.947 -0.8714 -0.5155 -0.2860
25844WAT      O 5180   1.502   7.423   5.055 -0.1768  0.2147  0.0571
25844WAT     H1 5181   1.407   7.418   5.052 -0.4445  2.5594  1.4100
25844WAT     H2 5182   1.532   7.334   5.039 -2.5337 -0.3703 -1.5566
25844WAT    EPW 5183   1.493   7.411   5.053 -0.5230  0.4468  0.0229
25845WAT      O 5184  -1.216   8.185   7.609  0.6257  0.1384  0.4132
25845WAT     H1 5185  -1.128   8.161   7.581 -0.4280 -0.1553 -3.1529
25845WAT     H2 5186  -1.271   8.111   7.583 -0.9227  1.1221  0.7416
25845WAT    EPW 5187  -1.211   8.172   7.601  0.2825  0.2294 -0.0138
25846WAT      O 5188   3.335   9.450   2.491 -0.6985  0.1989 -0.2902
25846WAT     H1 5189   3.273   9.499   2.545 -0.6740 -0.6161  0.5016
25846WAT     H2 5190   3.322   9.359   2.516  0.1650 -0.0751 -0.7948
25846WAT    EPW 5191   3.326   9.445   2.501 -0.5815  0.0553 -0.2522
25847WAT      O 5192  -5.327   5.476   8.661  0.2252  0.4254  0.3873
25847WAT     H1 5193  -5.411   5.520   8.653 -0.0882  0.1079  1.5920
25847WAT     H2 5194  -5.340   5.413   8.732  1.0213 -0.7410 -0.4553
25847WAT    EPW 5195  -5.340   5.473   8.670  0.2887  0.2298  0.4349
25848WAT      O 5196   5.646   8.670   0.052  0.3353 -0.0409  0.4526
25848WAT     H1 5197   5.697   8.674  -0.030  0.3968 -1.3783  0.3946
25848WAT     H2 5198   5.666   8.751   0.097  1.6819 -0.0611 -0.0716
25848WAT    EPW 5199   5.655   8.681   0.047  0.5209 -0.2198  0.3758
25849WAT      O 5200   0.932   8.807   5.377  0.3298  0.7843 -0.4549
25849WAT     H1 5201   0.995   8.857   5.326 -1.7265  2.2858 -1.7222
25849WAT     H2 5202   0.923   8.857   5.459  0.5324  0.7593 -0.4176
25849WAT    EPW 5203   0.939   8.821   5.381  0.0853  0.9785 -0.6170
25850WAT      O 5204   6.720   4.002   0.650  0.3014 -0.5141  0.6814
25850WAT     H1 5205   6.680   3.925   0.610  2.8265 -1.4985 -0.1688
25850WAT     H2 5206   6.646   4.057   0.676 -1.5685 -1.5154 -2.0187
25850WAT    EPW 5207   6.705   3.999   0.648  0.3877 -0.7762  0.2131
25851WAT      O 5208  -2.933   5.863   7.621 -0.3287  0.0433 -0.4038
25851WAT     H1 5209  -2.918   5.858   7.527  0.4078 -0.5514 -0.2661
25851WAT     H2 5210  -2.901   5.949   7.646  2.0895 -0.8177 -0.2807
25851WAT    EPW 5211  -2.927   5.874   7.612  0.0874 -0.1485 -0.3693
25852WAT      O 5212  -1.295   1.133   2.894 -0.1423  0.0603  0.5421
25852WAT     H1 5213  -1.388   1.153   2.908 -0.0722 -0.3812  1.7240
25852WAT     H2 5214  -1.278   1.164   2.805 -1.0418  1.5323  0.8439
25852WAT    EPW 5215  -1.305   1.140   2.884 -0.2517  0.1963  0.7378
25853WAT      O 5216   1.869   1.163   4.763 -0.0471  0.0455 -0.3092
25853WAT     H1 5217   1.848   1.131   4.676  0.1858 -0.6550 -0.1221
25853WAT     H2 5218   1.964   1.180   4.760  0.0431 -0.3870 -0.0807
25853WAT    EPW 5219   1.879   1.161   4.751 -0.0045 -0.1039 -0.2544
25854WAT      O 5220   3.936   9.082   3.064 -0.1916  0.0444 -0.1464
25854WAT     H1 5221   3.872   9.040   3.007  0.2489  0.2987 -0.8374
25854WAT     H2 5222   4.002   9.118   3.005  1.1683 -1.1111  0.5796
25854WAT    EPW 5223   3.936   9.081   3.049  0.0460 -0.0744 -0.1417
25855WAT      O 5224  -2.997   7.615   6.378  0.1359  0.0702 -0.0012
25855WAT     H1 5225  -2.912   7.656   6.363 -0.5648  1.5428 -0.1487
25855WAT     H2 5226  -3.055   7.657   6.314 -1.2679  1.0153  1.8007
25855WAT    EPW 5227  -2.993   7.626   6.367 -0.1417  0.3891  0.2170
25856WAT      O 5228   6.404   2.740   5.495  0.2319 -0.5514  0.0311
25856WAT     H1 5229   6.402   2.661   5.548 -1.0051  0.0959  0.9978
25856WAT     H2 5230   6.356   2.805   5.546 -1.7055 -0.0988 -2.1563
25856WAT    EPW 5231   6.397   2.738   5.509 -0.1867 -0.4064 -0.1297
25857WAT      O 5232   4.249   2.465   2.464 -0.0669  0.2207  0.0629
25857WAT     H1 5233   4.210   2.487   2.380  0.0119 -0.1916 -0.0816
25857WAT     H2 5234   4.296   2.544   2.490 -0.4612  0.5017 -0.0660
25857WAT    EPW 5235   4.250   2.479   2.457 -0.1087  0.2033  0.0268
25858WAT      O 5236  -3.639   9.748   3.815  0.5204  0.6727  0.5420
25858WAT     H1 5237  -3.593   9.804   3.752  1.1828  0.4805  0.8452
25858WAT     H2 5238  -3.589   9.758   3.896 -0.2159  0.7740  0.9939
25858WAT    EPW 5239  -3.626   9.757   3.817  0.5106  0.6604  0.6416
25859WAT      O 5240   4.261   2.205   0.518  0.4063 -0.0964 -0.1886
25859WAT     H1 5241   4.351   2.212   0.488 -0.1952  0.2136 -2.0321
25859WAT     H2 5242   4.208   2.235   0.444 -1.1976  0.4216  1.0892
25859WAT    EPW 5243   4.266   2.210   0.505  0.1154  0.0128 -0.2632
25860WAT      O 5244   0.897   9.163   0.101 -0.0159  0.7010  0.3865
25860WAT     H1 5245   0.839   9.122   0.037  0.4132  1.5413 -0.5604
25860WAT     H2 5246   0.916   9.250   0.065  2.5178  0.1556  0.2410
25860WAT    EPW 5247   0.892   9.169   0.088  0.3749  0.7396  0.2424
25861WAT      O 5248  -7.668   7.867   8.079  0.1940 -0.5436  0.0893
25861WAT     H1 5249  -7.603   7.857   8.148  1.1410  2.3933 -0.2447
25861WAT     H2 5250  -7.641   7.805   8.011  0.8825 -1.4553  1.1668
25861WAT    EPW 5251  -7.656   7.857   8.079  0.4096 -0.2766  0.1874
25862WAT      O 5252  -0.184   2.989   2.109  0.7669 -0.1888 -0.0764
25862WAT     H1 5253  -0.241   2.912   2.101  1.2063 -0.5607  0.3027
25862WAT     H2 5254  -0.214   3.032   2.189 -0.4429  0.8589 -1.0494
25862WAT    EPW 5255  -0.196   2.984   2.118  0.6653 -0.0998 -0.1547
25863WAT      O 5256   0.884   3.184   1.390 -0.5142 -0.6505 -0.6698
25863WAT     H1 5257   0.952   3.117   1.386 -0.0770 -0.1694 -1.5967
25863WAT     H2 5258   0.831   3.160   1.466  2.8745  1.0357  2.5530
25863WAT    EPW 5259   0.886   3.172   1.399 -0.0095 -0.3645 -0.3669
25864WAT      O 5260   5.098   5.101   6.031 -0.5303  0.1914 -0.2806
25864WAT     H1 5261   5.033   5.105   6.102 -1.8020 -0.1057 -1.3759
25864WAT     H2 5262   5.114   5.193   6.009  0.0505  0.2937  0.5338
25864WAT    EPW 5263   5.091   5.114   6.037 -0.6216  0.1659 -0.3176
25865WAT      O 5264   1.837   0.478   8.470  0.8009 -0.0503  0.6940
25865WAT     H1 5265   1.785   0.474   8.550  0.0372 -1.2951  0.1738
25865WAT     H2 5266   1.927   0.464   8.498  0.1486 -6.2933  0.9750
25865WAT    EPW 5267   1.842   0.476   8.484  0.6142 -1.0379  0.6628
25866WAT      O 5268   0.820   6.213   6.426  0.2189  0.0348  0.0555
25866WAT     H1 5269   0.821   6.294   6.374 -2.1019  1.2415  1.7388
25866WAT     H2 5270   0.852   6.239   6.512  0.5569 -1.1252  0.2958
25866WAT    EPW 5271   0.824   6.228   6.430 -0.0426  0.0410  0.3092
25867WAT      O 5272   5.418   0.024   3.692  0.2724  0.0892 -0.0875
25867WAT     H1 5273   5.398  -0.008   3.780  0.5407 -2.7790 -0.9595
25867WAT     H2 5274   5.497  -0.025   3.667  0.0285  0.6255 -2.0170
25867WAT    EPW 5275   5.426   0.013   3.701  0.2756 -0.2184 -0.4569
25868WAT      O 5276  -2.200   4.351   6.080 -0.6624  0.2709  0.5151
25868WAT     H1 5277  -2.284   4.353   6.035  0.1097 -3.2342 -1.4579
25868WAT     H2 5278  -2.178   4.258   6.085  3.1180  1.0330  0.9093
25868WAT    EPW 5279  -2.208   4.339   6.075 -0.0619 -0.0911  0.3066
25869WAT      O 5280   1.071   1.707   8.345 -0.1885  0.2647 -0.1495
25869WAT     H1 5281   1.131   1.757   8.289  0.8323  1.7445  2.1218
25869WAT     H2 5282   1.061   1.623   8.300  2.7711  0.3396 -1.1634
25869WAT    EPW 5283   1.078   1.703   8.331  0.3365  0.4697  0.0167
25870WAT      O 5284   3.704   7.847   6.638  0.0869  0.4631 -0.0658
25870WAT     H1 5285   3.665   7.813   6.557 -0.3850  2.7726 -0.8876
25870WAT     H2 5286   3.787   7.886   6.610  0.7586 -0.2503  0.8888
25870WAT    EPW 5287   3.710   7.847   6.623  0.1132  0.6738 -0.0482
25871WAT      O 5288  -0.933   0.018   3.134 -0.0373  0.5975 -0.3419
25871WAT     H1 5289  -1.019  -0.021   3.151  0.9168 -1.2134  0.6179
25871WAT     H2 5290  -0.928   0.092   3.195 -0.5619  0.1504  0.2501
25871WAT    EPW 5291  -0.944   0.023   3.144  0.0194  0.2997 -0.1372
25872WAT      O 5292  -6.185   9.409   6.773 -0.1089 -0.1600  0.7587
25872WAT     H1 5293  -6.276   9.392   6.749  0.1272  0.6414 -0.8483
25872WAT     H2 5294  -6.188   9.489   6.825 -0.3375 -0.1420  0.7196
25872WAT    EPW 5295  -6.197   9.417   6.776 -0.1078 -0.0520  0.5417
25873WAT      O 5296  -3.703   0.992   6.402 -0.2646  0.0254 -0.4845
25873WAT     H1 5297  -3.688   1.067   6.460  0.3491  0.7505 -1.5464
25873WAT     H2 5298  -3.690   0.915   6.458 -0.3882  0.6995  0.4973
25873WAT    EPW 5299  -3.700   0.992   6.417 -0.2000  0.2100 -0.4950
25874WAT      O 5300  -2.665   6.888   1.475 -0.0932  0.2182  0.6123
25874WAT     H1 5301  -2.749   6.926   1.499 -0.2728  0.6583 -0.6748
25874WAT     H2 5302  -2.602   6.930   1.534 -0.5904  0.8784  0.6840
25874WAT    EPW 5303  -2.667   6.898   1.486 -0.1825  0.3633  0.4520
25875WAT      O 5304  -5.247   9.624   8.841 -0.2787  0.6579  1.0780
25875WAT     H1 5305  -5.166   9.652   8.800 -0.2269 -2.1557 -0.9769
25875WAT     H2 5306  -5.316   9.653   8.781 -0.9667  3.3505  2.9797
25875WAT    EPW 5307  -5.245   9.632   8.828 -0.3626  0.6418  1.0581
25876WAT      O 5308   4.963   2.535   7.927  0.3889 -0.2674  0.4774
25876WAT     H1 5309   5.008   2.588   7.993 -0.3771  0.1099  0.7123
25876WAT     H2 5310   4.879   2.580   7.914  0.1787 -0.8246 -0.1200
25876WAT    EPW 5311   4.958   2.548   7.934  0.2601 -0.2911  0.4294
25877WAT      O 5312   1.365   2.053   5.367  1.0003 -0.3879 -0.0468
25877WAT     H1 5313   1.286   2.044   5.420  0.4015 -1.9365 -1.1324
25877WAT     H2 5314   1.342   2.120   5.302  0.0341 -1.8032 -1.2199
25877WAT    EPW 5315   1.352   2.061   5.365  0.7939 -0.7788 -0.3448
25878WAT      O 5316   3.289   4.526   4.074  0.4330 -0.1651 -0.3620
25878WAT     H1 5317   3.228   4.580   4.024  2.8706  2.5718 -0.6197
25878WAT     H2 5318   3.350   4.493   4.009  2.6652  2.0846  0.4274
25878WAT    EPW 5319   3.289   4.529   4.059  1.0488  0.4928 -0.2918
25879WAT      O 5320  -3.771   0.727   6.497  0.7749 -0.6324  0.3535
25879WAT     H1 5321  -3.718   0.684   6.430  2.2684  3.1620 -1.1920
25879WAT     H2 5322  -3.852   0.752   6.452  2.3873  3.2874 -0.8497
25879WAT    EPW 5323  -3.775   0.725   6.483  1.1845  0.3851 -0.0091
25880WAT      O 5324   1.357   1.679   1.781  0.0515  0.3441 -0.0243
25880WAT     H1 5325   1.385   1.634   1.861 -1.2440 -0.6642 -0.1011
25880WAT     H2 5326   1.411   1.641   1.712 -1.0297 -1.1661 -0.0891
25880WAT    EPW 5327   1.368   1.668   1.782 -0.2619  0.0120 -0.0430
25881WAT      O 5328   0.897   2.149   0.850 -0.0561  0.4993 -0.2653
25881WAT     H1 5329   0.847   2.227   0.873  0.0673 -0.1588  2.7242
25881WAT     H2 5330   0.982   2.162   0.892  0.4934 -0.5893 -0.9868
25881WAT    EPW 5331   0.902   2.161   0.859  0.0326  0.2688  0.0338
25882WAT      O 5332   1.414   7.388   5.411 -0.0837  0.4033  0.8110
25882WAT     H1 5333   1.407   7.293   5.422  3.3793  0.2927  3.7617
25882WAT     H2 5334   1.459   7.399   5.327  1.2812 -0.7294  1.3586
25882WAT    EPW 5335   1.419   7.377   5.402  0.5531  0.2394  1.2724
25883WAT      O 5336  -0.072   1.528   3.749 -0.0151  0.1714  0.3391
25883WAT     H1 5337   0.014   1.522   3.707  0.8123 -0.5596  2.0392
25883WAT     H2 5338  -0.083   1.621   3.767  0.3734  0.2908 -0.0283
25883WAT    EPW 5339  -0.062   1.539   3.746  0.1453  0.0907  0.5150
25884WAT      O 5340   2.451   9.452   5.025  0.1703  0.5163 -0.1139
25884WAT     H1 5341   2.439   9.381   4.962 -0.7497  1.1033 -0.6235
25884WAT     H2 5342   2.420   9.530   4.979  1.2254  1.2705  0.4095
25884WAT    EPW 5343   2.446   9.453   5.011  0.1881  0.6933 -0.1123
25885WAT      O 5344   4.043   9.734   1.811 -0.0532 -0.2759  0.4781
25885WAT     H1 5345   4.066   9.716   1.902  3.1706  0.5040 -0.0484
25885WAT     H2 5346   4.027   9.828   1.809  0.4832 -0.1847  0.1696
25885WAT    EPW 5347   4.044   9.744   1.823  0.4427 -0.1607  0.3679
25886WAT      O 5348  -0.519   7.540   7.296  1.1779  0.1231  0.3571
25886WAT     H1 5349  -0.427   7.555   7.316  0.7692  1.4874  1.3910
25886WAT     H2 5350  -0.542   7.463   7.348  1.8575 -0.5645 -0.3403
25886WAT    EPW 5351  -0.510   7.532   7.306  1.2136  0.2124  0.4015
25887WAT      O 5352   5.439   3.127   4.252  0.3488  0.1242 -0.0341
25887WAT     H1 5353   5.514   3.070   4.239  0.5116 -0.1807  1.8887
25887WAT     H2 5354   5.374   3.097   4.188  2.1318  1.0078 -2.3714
25887WAT    EPW 5355   5.440   3.115   4.242  0.6056  0.2005 -0.0887
25888WAT      O 5356  -3.321   6.954   7.125 -0.0794  0.2061 -0.1954
25888WAT     H1 5357  -3.252   7.020   7.117  0.9423 -1.0022 -2.8506
25888WAT     H2 5358  -3.402   7.002   7.110  0.4658  1.1632 -0.1396
25888WAT    EPW 5359  -3.323   6.969   7.122  0.1273  0.1729 -0.5383
25889WAT      O 5360   3.137   2.255   7.314  0.6209  0.8182 -0.1882
25889WAT     H1 5361   3.205   2.231   7.376 -0.1709  2.0885  1.2401
25889WAT     H2 5362   3.185   2.289   7.238  1.5863 -0.0653  0.0069
25889WAT    EPW 5363   3.152   2.257   7.312  0.6438  0.8693  0.0257
25890WAT      O 5364   4.489   7.857   1.390 -0.5482  0.1099 -0.1586
25890WAT     H1 5365   4.417   7.794   1.393 -0.7160  0.3332  0.9254
25890WAT     H2 5366   4.535   7.837   1.309 -2.0183  0.1715 -1.0520
25890WAT    EPW 5367   4.485   7.846   1.379 -0.7641  0.1473 -0.1335
25891WAT      O 5368  -3.198   9.726   6.649  0.7663 -0.3976 -0.4175
25891WAT     H1 5369  -3.231   9.638   6.663  1.6592 -1.0180 -2.0672
25891WAT     H2 5370  -3.112   9.714   6.610  1.4284  1.2154  0.4347
25891WAT    EPW 5371  -3.191   9.713   6.646  0.9714 -0.2670 -0.5226
25892WAT      O 5372   7.369   3.922   0.481 -0.1927 -0.0937  0.0360
25892WAT     H1 5373   7.329   4.009   0.488 -0.3257 -0.2918  2.8318
25892WAT     H2 5374   7.294   3.863   0.465 -0.1130  0.2129 -1.7551
25892WAT    EPW 5375   7.354   3.926   0.479 -0.1998 -0.0794  0.1685
25893WAT      O 5376  -3.879   3.641   6.569 -0.3059  0.0758  0.5501
25893WAT     H1 5377  -3.885   3.640   6.473 -2.7760  0.8171  0.6240
25893WAT     H2 5378  -3.939   3.571   6.597 -1.4549  1.4053  1.5486
25893WAT    EPW 5379  -3.888   3.632   6.560 -0.7832  0.3489  0.6917
25894WAT      O 5380   4.610   3.878   0.386  0.8487  0.6172  0.6901
25894WAT     H1 5381   4.604   3.942   0.458  3.3912  0.2705  1.3069
25894WAT     H2 5382   4.576   3.797   0.424  0.6934  0.8037  0.9603
25894WAT    EPW 5383   4.604   3.876   0.401  1.1637  0.5962  0.8071
25895WAT      O 5384  -1.525   1.183   4.423 -0.0061  0.2301 -0.3654
25895WAT     H1 5385  -1.583   1.204   4.350  0.9687 -0.4258 -1.3698
25895WAT     H2 5386  -1.463   1.255   4.426 -0.8344  0.9203  0.6930
25895WAT    EPW 5387  -1.524   1.195   4.414  0.0132  0.2347 -0.3583
25896WAT      O 5388   5.226   5.815   3.966 -0.2898 -0.9630 -0.0301
25896WAT     H1 5389   5.269   5.802   4.051  0.9139  0.1463 -0.4335
25896WAT     H2 5390   5.250   5.904   3.941 -2.8248 -0.2928 -0.3369
25896WAT    EPW 5391   5.235   5.825   3.974 -0.4654 -0.7284 -0.1237
25897WAT      O 5392   3.399   7.342   0.274  0.5118  0.0813 -0.7576
25897WAT     H1 5393   3.431   7.270   0.220 -1.8045 -0.8771 -0.9575
25897WAT     H2 5394   3.323   7.376   0.227 -1.3762 -0.5423  1.6274
25897WAT    EPW 5395   3.393   7.337   0.261 -0.0427 -0.1273 -0.4694
25898WAT      O 5396   3.905   2.577   0.489 -0.5308  0.4705  0.5738
25898WAT     H1 5397   3.884   2.653   0.435  1.6675  1.7514  1.3323
25898WAT     H2 5398   3.864   2.597   0.574 -0.8083  0.3115  0.4771
25898WAT    EPW 5399   3.897   2.590   0.493 -0.2774  0.6185  0.6611
25899WAT      O 5400  -3.851   2.161   5.722 -0.1829  0.3857 -0.3518
25899WAT     H1 5401  -3.856   2.076   5.765  1.1153 -0.3354 -1.5665
25899WAT     H2 5402  -3.758   2.182   5.720 -0.5202  2.2649  0.6686
25899WAT    EPW 5403  -3.839   2.153   5.727 -0.0561  0.5383 -0.3774
25900WAT      O 5404  -1.488   3.750   4.233  0.1523  0.1161 -0.0237
25900WAT     H1 5405  -1.516   3.739   4.324 -0.3994  0.1568 -0.1846
25900WAT     H2 5406  -1.526   3.834   4.206  0.9565  0.4810 -0.0566
25900WAT    EPW 5407  -1.497   3.760   4.241  0.1856  0.1696 -0.0491
25901WAT      O 5408  -4.795   5.678   7.517 -0.1771 -0.1903 -0.2105
25901WAT     H1 5409  -4.769   5.769   7.506 -0.8870 -0.2063 -2.3746
25901WAT     H2 5410  -4.719   5.628   7.486 -0.0046 -0.3513  0.4502
25901WAT    EPW 5411  -4.781   5.683   7.512 -0.2480 -0.2136 -0.4086
25902WAT      O 5412   0.981   3.552   0.556  0.3067  0.4719 -1.0353
25902WAT     H1 5413   0.975   3.457   0.545 -1.0607  0.5121 -0.7734
25902WAT     H2 5414   0.894   3.578   0.586  0.6560  1.8167 -1.1423
25902WAT    EPW 5415   0.969   3.543   0.558  0.1724  0.6546 -1.0149
25903WAT      O 5416   1.968   1.451   2.035  0.2672  0.3244 -0.0063
25903WAT     H1 5417   1.879   1.430   2.007 -0.2828  2.0197  0.3539
25903WAT     H2 5418   2.017   1.369   2.023 -1.2787 -0.5820 -0.3966
25903WAT    EPW 5419   1.963   1.437   2.030 -0.0092  0.4285 -0.0103
25904WAT      O 5420   3.041   3.346   8.970 -0.5548  0.3250  0.5686
25904WAT     H1 5421   3.038   3.252   8.990 -1.6068  0.0166 -0.8929
25904WAT     H2 5422   2.950   3.373   8.971 -0.2928  1.2202  0.4249
25904WAT    EPW 5423   3.029   3.337   8.973 -0.6590  0.4025  0.3572
25905WAT      O 5424  -1.651   3.530   3.176 -0.4498 -0.4395 -0.2665
25905WAT     H1 5425  -1.695   3.551   3.094  1.6596 -0.1565 -1.3847
25905WAT     H2 5426  -1.572   3.482   3.150 -0.0810 -0.9434  1.6433
25905WAT    EPW 5427  -1.646   3.527   3.162 -0.1230 -0.4686 -0.1621
25906WAT      O 5428   2.670   1.784   8.148 -0.0487 -0.1307  0.4984
25906WAT     H1 5429   2.760   1.764   8.123 -0.0035 -1.1382  1.3944
25906WAT     H2 5430   2.625   1.799   8.064  0.7769 -0.3825  0.0003
25906WAT    EPW 5431   2.676   1.783   8.133  0.0660 -0.2968  0.5507
25907WAT      O 5432   0.972   2.631   2.318 -0.6872 -0.0733 -0.4785
25907WAT     H1 5433   1.058   2.671   2.308 -1.3199  1.3331 -0.6026
25907WAT     H2 5434   0.980   2.573   2.393 -0.8482  3.7847  2.8504
25907WAT    EPW 5435   0.984   2.629   2.327 -0.7918  0.6211 -0.0558
25908WAT      O 5436   5.839   6.725   3.123  0.4684 -0.1308  0.0549
25908WAT     H1 5437   5.763   6.737   3.179  0.7594  0.3487  0.3574
25908WAT     H2 5438   5.803   6.703   3.037  0.0376 -3.5554  0.9884
25908WAT    EPW 5439   5.825   6.724   3.119  0.4499 -0.5193  0.2179
25909WAT      O 5440   5.535   6.774   1.079 -0.4765  0.0140 -0.5583
25909WAT     H1 5441   5.540   6.829   1.157  0.3127 -1.2229  0.2946
25909WAT     H2 5442   5.448   6.792   1.042 -0.4554  1.3774  0.0146
25909WAT    EPW 5443   5.524   6.783   1.085 -0.3698  0.0308 -0.3703
25910WAT      O 5444  -1.891   9.537   2.151 -0.2848  0.0762 -0.0390
25910WAT     H1 5445  -1.868   9.546   2.058  0.5390 -0.7667  0.0647
25910WAT     H2 5446  -1.822   9.582   2.198 -0.9241  0.8599  0.1628
25910WAT    EPW 5447  -1.879   9.544   2.145 -0.2604  0.0687  0.0013
25911WAT      O 5448  -1.221   4.747   5.605 -0.3790 -0.0121 -0.3800
25911WAT     H1 5449  -1.235   4.717   5.695 -2.1091  0.0232 -0.5945
25911WAT     H2 5450  -1.309   4.768   5.574  0.2844  0.7133 -1.8315
25911WAT    EPW 5451  -1.235   4.746   5.613 -0.5197  0.0882 -0.5996
25912WAT      O 5452   6.783   1.664   3.195 -0.0349 -0.0626 -0.2573
25912WAT     H1 5453   6.866   1.618   3.202 -0.0690 -0.1267 -0.2763
25912WAT     H2 5454   6.734   1.617   3.128 -0.0512  0.0294 -0.3112
25912WAT    EPW 5455   6.787   1.652   3.187 -0.0417 -0.0589 -0.2670
25913WAT      O 5456   1.693   0.907   5.248  0.6940  0.5392 -0.9552
25913WAT     H1 5457   1.603   0.891   5.221 -0.0339  0.6345  1.2106
25913WAT     H2 5458   1.722   0.980   5.193  0.0069 -0.4648 -2.7229
25913WAT    EPW 5459   1.685   0.915   5.237  0.5074  0.4194 -0.9027
25914WAT      O 5460   3.154   3.065   4.894  0.0450  0.1131 -0.4685
25914WAT     H1 5461   3.199   2.995   4.941  0.1154 -1.4910 -2.7351
25914WAT     H2 5462   3.223   3.128   4.872 -0.1905  1.6244  2.5458
25914WAT    EPW 5463   3.169   3.064   4.897  0.0232  0.1009 -0.3698
25915WAT      O 5464   1.498   9.833   6.041 -0.5342 -0.1903 -0.1579
25915WAT     H1 5465   1.496   9.836   5.945  2.6238  1.0612 -0.2805
25915WAT     H2 5466   1.518   9.922   6.068 -0.6334 -0.6746  1.6449
25915WAT    EPW 5467   1.500   9.845   6.031 -0.1308 -0.0887  0.0637
25916WAT      O 5468   0.594   0.933   2.940 -0.3028 -0.4487 -0.7480
25916WAT     H1 5469   0.513   0.904   2.980 -0.0717 -0.0138  0.0613
25916WAT     H2 5470   0.598   0.886   2.856 -1.5101 -0.2724 -0.9234
25916WAT    EPW 5471   0.584   0.923   2.934 -0.4315 -0.3681 -0.6645
25917WAT      O 5472   2.209   3.628   6.583  0.2947 -0.2238 -0.1680
25917WAT     H1 5473   2.256   3.564   6.528  0.4982 -0.4846  0.2986
25917WAT     H2 5474   2.212   3.590   6.671 -4.2157 -2.3251 -0.6218
25917WAT    EPW 5475   2.216   3.614   6.587 -0.2733 -0.5354 -0.1664
25918WAT      O 5476   0.992   8.262   3.974 -0.5217  0.7157 -0.7753
25918WAT     H1 5477   0.914   8.300   3.933 -1.2709  0.3713  0.3053
25918WAT     H2 5478   1.011   8.319   4.048 -0.0548  0.4940 -0.7202
25918WAT    EPW 5479   0.984   8.274   3.978 -0.5590  0.6413 -0.6256
25919WAT      O 5480  -1.917   6.436   8.904  0.4311  0.1736 -0.1742
25919WAT     H1 5481  -1.992   6.446   8.845  0.5158 -0.4484 -0.3986
25919WAT     H2 5482  -1.911   6.520   8.949 -0.6263  0.1221  0.1085
25919WAT    EPW 5483  -1.926   6.448   8.902  0.3028  0.0846 -0.1664
25920WAT      O 5484  -3.813   4.754   6.568  0.1609  0.9739  0.4376
25920WAT     H1 5485  -3.877   4.818   6.600 -0.0681  1.0385 -0.1267
25920WAT     H2 5486  -3.773   4.718   6.647  0.0892  1.6086  0.7723
25920WAT    EPW 5487  -3.816   4.758   6.583  0.1214  1.0662  0.4072
25921WAT      O 5488   5.451  10.241   1.458 -0.4431  0.2699  0.6311
25921WAT     H1 5489   5.367  10.207   1.427  0.1819  0.3080 -1.2263
25921WAT     H2 5490   5.439  10.336   1.458 -0.6199  0.2539  1.1139
25921WAT    EPW 5491   5.438  10.249   1.454 -0.3841  0.2728  0.4498
25922WAT      O 5492   0.018   0.854   3.675 -0.2987 -0.0942  0.4606
25922WAT     H1 5493   0.051   0.928   3.725  0.7772 -0.2303 -0.0188
25922WAT     H2 5494   0.046   0.777   3.725  0.1445 -0.2130  0.0404
25922WAT    EPW 5495   0.026   0.853   3.688 -0.0984 -0.1279  0.3420
25923WAT      O 5496   4.011   4.360   5.565  0.3488 -0.2257  0.4666
25923WAT     H1 5497   4.094   4.320   5.540 -0.1275 -1.4661  0.8088
25923WAT     H2 5498   4.011   4.446   5.522  2.1388  0.1221  1.0865
25923WAT    EPW 5499   4.022   4.366   5.556  0.5221 -0.3433  0.5934
25924WAT      O 5500  -5.096   7.897   6.605 -0.2669 -0.1512 -0.3246
25924WAT     H1 5501  -5.136   7.901   6.518 -2.7420 -2.1951  0.5861
25924WAT     H2 5502  -5.145   7.962   6.656  0.0560 -0.1141 -0.0650
25924WAT    EPW 5503  -5.108   7.906   6.600 -0.5507 -0.4158 -0.1702
25925WAT      O 5504   4.726   0.371   2.255  0.2116  0.0070 -0.2039
25925WAT     H1 5505   4.788   0.314   2.300 -1.0873 -0.4523  1.0711
25925WAT     H2 5506   4.776   0.407   2.182  1.0206 -2.9713 -1.2777
25925WAT    EPW 5507   4.741   0.368   2.252  0.1471 -0.4464 -0.1774
25926WAT      O 5508   1.177   1.224   6.418  0.6941 -0.3221 -0.2613
25926WAT     H1 5509   1.194   1.237   6.512  0.3880 -0.7338 -0.1436
25926WAT     H2 5510   1.133   1.303   6.390 -0.5572 -0.7878  0.2852
25926WAT    EPW 5511   1.174   1.236   6.427  0.4887 -0.4379 -0.1738
25927WAT      O 5512  -0.861   4.933   5.196 -0.1734  0.9549  0.0175
25927WAT     H1 5513  -0.898   4.846   5.214  1.5790  0.3106  0.7460
25927WAT     H2 5514  -0.925   4.994   5.232 -1.1303 -0.0497  0.0822
25927WAT    EPW 5515  -0.875   4.930   5.203 -0.0685  0.7374  0.1221
25928WAT      O 5516  -3.288   6.677   2.898  0.2185 -0.5521  0.3048
25928WAT     H1 5517  -3.266   6.717   2.813 -2.8119 -0.5283 -0.5698
25928WAT     H2 5518  -3.263   6.744   2.962  0.5207  0.3685 -0.7263
25928WAT    EPW 5519  -3.282   6.691   2.895 -0.1414 -0.4275  0.0535
25929WAT      O 5520  -6.251  10.306   5.638 -0.2909 -0.1036  0.1718
25929WAT     H1 5521  -6.194  10.332   5.711  0.8556  2.4225 -1.4951
25929WAT     H2 5522  -6.333  10.352   5.654  0.0635  0.6983 -0.2254
25929WAT    EPW 5523  -6.254  10.315   5.650 -0.0930  0.3357 -0.1006
25930WAT      O 5524  -0.589   1.995   1.533  0.2235  0.2743 -0.0700
25930WAT     H1 5525  -0.592   2.078   1.486  0.6709 -0.5725 -1.6701
25930WAT     H2 5526  -0.547   1.934   1.472  0.3197 -1.0271  1.2287
25930WAT    EPW 5527  -0.583   1.998   1.519  0.2952 -0.0091 -0.1098
25931WAT      O 5528   2.100   1.246   5.945  0.3366  0.1467 -0.0822
25931WAT     H1 5529   2.082   1.209   6.032 -0.6413  0.0739 -0.3024
25931WAT     H2 5530   2.015   1.245   5.901  1.0643 -1.0834 -1.5324
25931WAT    EPW 5531   2.087   1.241   5.951  0.3036 -0.0252 -0.3026
25932WAT      O 5532   2.868   6.004   5.785 -0.5148  0.2931  0.3104
25932WAT     H1 5533   2.945   6.061   5.774 -0.7213  0.6315  0.6048
25932WAT     H2 5534   2.874   5.974   5.876 -1.2573  1.1055  0.6457
25932WAT    EPW 5535   2.879   6.008   5.796 -0.6399  0.4449  0.3934
25933WAT      O 5536  -3.095   7.561   6.742  0.1993  0.3538  0.7099
25933WAT     H1 5537  -3.111   7.648   6.705  0.4853  0.8579  1.7412
25933WAT     H2 5538  -3.028   7.576   6.808  0.4922 -0.7170  0.6679
25933WAT    EPW 5539  -3.088   7.574   6.746  0.2756  0.2789  0.8404
25934WAT      O 5540   3.288   8.904   6.056  0.1913  0.3435 -0.4207
25934WAT     H1 5541   3.236   8.974   6.016 -0.3115 -1.5937 -3.4035
25934WAT     H2 5542   3.233   8.871   6.127 -0.1583  1.9567  0.1179
25934WAT    EPW 5543   3.274   8.909   6.060  0.0788  0.3004 -0.7432
25935WAT      O 5544   1.107   3.458   7.417 -0.1752 -0.3899 -0.6537
25935WAT     H1 5545   1.135   3.495   7.333  1.9865 -0.3080  0.0256
25935WAT     H2 5546   1.034   3.513   7.445  0.4430  0.9141 -1.5104
25935WAT    EPW 5547   1.101   3.470   7.410  0.1914 -0.2071 -0.6771
25936WAT      O 5548   2.657   2.756   8.706  0.4255  0.6837  0.3756
25936WAT     H1 5549   2.710   2.741   8.785 -2.9507 -1.0276  2.5448
25936WAT     H2 5550   2.648   2.670   8.666 -0.7222  0.9256  0.0853
25936WAT    EPW 5551   2.663   2.743   8.711 -0.1712  0.4900  0.6232
25937WAT      O 5552  -0.780   8.129   4.574  0.1340  0.7730 -0.3201
25937WAT     H1 5553  -0.694   8.129   4.532 -0.1422  1.3845 -0.9158
25937WAT     H2 5554  -0.839   8.095   4.507 -0.3273  1.8332 -0.4889
25937WAT    EPW 5555  -0.776   8.125   4.559  0.0367  0.9933 -0.4210
25938WAT      O 5556  -0.457   3.320   5.865  0.2181  0.3587  0.1310
25938WAT     H1 5557  -0.403   3.292   5.791 -0.1985 -2.3790  0.7409
25938WAT     H2 5558  -0.486   3.238   5.905 -1.0268  1.7584  2.2740
25938WAT    EPW 5559  -0.454   3.305   5.861 -0.0010  0.1822  0.4942
25939WAT      O 5560   1.817   1.709   7.056 -0.5903 -0.4083  0.1443
25939WAT     H1 5561   1.854   1.693   7.143 -0.5309  0.1431  0.2244
25939WAT     H2 5562   1.777   1.626   7.032 -0.4970 -0.6057  0.6473
25939WAT    EPW 5563   1.816   1.696   7.065 -0.5702 -0.3616  0.2210
25940WAT      O 5564   6.295   7.287   0.850 -0.1448 -0.2334  0.2832
25940WAT     H1 5565   6.217   7.302   0.797 -1.2477  1.8407  2.3216
25940WAT     H2 5566   6.365   7.335   0.805  0.0344 -1.9795 -1.4657
25940WAT    EPW 5567   6.294   7.295   0.837 -0.2666 -0.1903  0.3214
25941WAT      O 5568  -1.646   7.400   1.219 -0.5909  0.2319  0.3700
25941WAT     H1 5569  -1.631   7.420   1.127 -2.0848  3.1349  0.6331
25941WAT     H2 5570  -1.741   7.399   1.229 -0.5477 -2.6657  1.4644
25941WAT    EPW 5571  -1.656   7.403   1.208 -0.7822  0.2327  0.5490
25942WAT      O 5572  -0.221   8.616   4.773  0.2037 -0.1258  0.6078
25942WAT     H1 5573  -0.235   8.649   4.862  0.9201 -0.0407  0.6966
25942WAT     H2 5574  -0.129   8.588   4.772  0.3556  0.3623 -0.2657
25942WAT    EPW 5575  -0.210   8.616   4.785  0.3183 -0.0501  0.5043
25943WAT      O 5576   0.304   1.183   3.544  0.1546  0.5618  0.1696
25943WAT     H1 5577   0.327   1.136   3.624 -2.3333  0.2863  0.8010
25943WAT     H2 5578   0.370   1.252   3.537  1.7002 -0.7255  1.2364
25943WAT    EPW 5579   0.316   1.186   3.554  0.0303  0.3557  0.3936
25944WAT      O 5580   2.752   2.043   5.987  0.1506 -1.0003  0.3190
25944WAT     H1 5581   2.754   2.085   5.901  0.2955 -1.6747 -0.0183
25944WAT     H2 5582   2.755   2.115   6.050 -0.8926 -0.4516 -0.2370
25944WAT    EPW 5583   2.753   2.058   5.984  0.0322 -1.0169  0.2012
25945WAT      O 5584  -0.472   5.436   0.181  0.7436  0.3081  0.4060
25945WAT     H1 5585  -0.468   5.375   0.108 -2.5467 -0.0929  0.4388
25945WAT     H2 5586  -0.531   5.395   0.244 -1.8812  3.5686  0.2931
25945WAT    EPW 5587  -0.479   5.423   0.180 -0.0366  0.6852  0.3954
25946WAT      O 5588  -3.776   9.141   7.986 -0.3380 -0.1562  0.8245
25946WAT     H1 5589  -3.724   9.104   7.915 -2.2740  0.6357 -1.1232
25946WAT     H2 5590  -3.740   9.101   8.065  2.4109 -0.5056 -0.4739
25946WAT    EPW 5591  -3.764   9.131   7.987 -0.2308 -0.0978  0.3965
25947WAT      O 5592   2.993   7.589   0.484  0.6709 -0.3722 -0.4125
25947WAT     H1 5593   3.086   7.566   0.497  0.9348 -0.7150 -2.5060
25947WAT     H2 5594   2.995   7.660   0.420 -0.5360 -0.3881 -0.4843
25947WAT    EPW 5595   3.006   7.595   0.477  0.5465 -0.4196 -0.6981
25948WAT      O 5596  -5.682   8.895   8.652  0.6038 -0.3630  0.0325
25948WAT     H1 5597  -5.744   8.822   8.660  0.0504  0.2024  1.1715
25948WAT     H2 5598  -5.612   8.873   8.714 -0.3346  0.7905  1.5655
25948WAT    EPW 5599  -5.681   8.883   8.661  0.4070 -0.1359  0.3848
25949WAT      O 5600   3.849   1.370   7.571  0.0221  0.8641 -0.2378
25949WAT     H1 5601   3.852   1.336   7.660  0.6800  0.3175 -0.4576
25949WAT     H2 5602   3.919   1.324   7.525 -1.5745 -0.3681 -1.5678
25949WAT    EPW 5603   3.858   1.360   7.577 -0.1017  0.6295 -0.4420
25950WAT      O 5604   6.910   3.235   4.605  0.3218 -0.8329  0.0920
25950WAT     H1 5605   6.887   3.166   4.543  3.1563  0.0035 -2.1045
25950WAT     H2 5606   7.002   3.254   4.587  1.2777 -0.3021  4.4339
25950WAT    EPW 5607   6.919   3.229   4.594  0.8216 -0.6526  0.3750
25951WAT      O 5608  -4.718   5.665   8.010  0.0734 -0.0409  0.3631
25951WAT     H1 5609  -4.761   5.602   7.952  0.3410  0.0806  0.0329
25951WAT     H2 5610  -4.665   5.612   8.069  0.4086 -0.1204 -0.0065
25951WAT    EPW 5611  -4.717   5.650   8.010  0.1528 -0.0355  0.2704
25952WAT      O 5612   1.565   1.081   5.570 -0.1361  0.5883 -0.0858
25952WAT     H1 5613   1.615   1.001   5.587 -0.1729  0.6361  0.2560
25952WAT     H2 5614   1.534   1.071   5.480 -0.3873  0.0882  0.0549
25952WAT    EPW 5615   1.568   1.069   5.560 -0.1740  0.5286 -0.0222
25953WAT      O 5616   3.265   5.304   0.027 -0.2585  0.1050  0.6554
25953WAT     H1 5617   3.270   5.320  -0.067  0.1689 -0.0880  0.6412
25953WAT     H2 5618   3.356   5.296   0.055 -0.3321  1.2976  1.2978
25953WAT    EPW 5619   3.278   5.305   0.018 -0.2118  0.2368  0.7386
25954WAT      O 5620   1.109   8.452   1.970 -0.3437 -0.2371  0.1245
25954WAT     H1 5621   1.063   8.370   1.951 -2.4730  0.2887  2.5369
25954WAT     H2 5622   1.197   8.424   1.994 -0.3078 -1.5658 -1.3303
25954WAT    EPW 5623   1.114   8.437   1.970 -0.6198 -0.3428  0.2508
25955WAT      O 5624  -3.002   1.330   7.291  0.3863 -0.6267  0.1581
25955WAT     H1 5625  -3.034   1.240   7.299 -1.1754 -0.0350  0.9132
25955WAT     H2 5626  -3.010   1.350   7.197 -1.0765 -0.6770  0.2406
25955WAT    EPW 5627  -3.008   1.321   7.280 -0.0126 -0.5553  0.2685
25956WAT      O 5628  -0.147   2.291   7.282 -0.2255 -0.1677 -0.7170
25956WAT     H1 5629  -0.157   2.205   7.241  1.6906 -0.4126 -0.7447
25956WAT     H2 5630  -0.221   2.298   7.342  0.7605 -2.8216  0.9793
25956WAT    EPW 5631  -0.158   2.281   7.284  0.1573 -0.5500 -0.4971
25957WAT      O 5632  -1.160  10.312   4.058 -0.3928 -0.7817  0.0737
25957WAT     H1 5633  -1.236  10.255   4.072 -0.5664 -0.7554 -0.7300
25957WAT     H2 5634  -1.190  10.399   4.085 -2.1273  0.1591 -4.0345
25957WAT    EPW 5635  -1.174  10.316   4.063 -0.6444 -0.6547 -0.5744
25958WAT      O 5636  -1.291   7.901   4.367 -0.1988 -0.2641 -0.1273
25958WAT     H1 5637  -1.283   7.806   4.358 -0.8777 -0.3544  0.1666
25958WAT     H2 5638  -1.292   7.934   4.277  0.5819 -0.4769 -0.2260
25958WAT    EPW 5639  -1.290   7.893   4.354 -0.1854 -0.3042 -0.1016
25959WAT      O 5640  -0.672   7.571   2.698  0.0274 -0.3112  0.3784
25959WAT     H1 5641  -0.615   7.498   2.674  0.0655 -0.3505  0.5851
25959WAT     H2 5642  -0.619   7.649   2.683  0.2228 -0.3590  0.8049
25959WAT    EPW 5643  -0.657   7.571   2.693  0.0582 -0.3226  0.4619
25960WAT      O 5644  -3.413   1.132   5.511  0.6468 -0.1252  0.2307
25960WAT     H1 5645  -3.424   1.048   5.467 -1.3630  0.4591 -0.5342
25960WAT     H2 5646  -3.468   1.126   5.589  0.5558  0.4301  0.2181
25960WAT    EPW 5647  -3.422   1.120   5.515  0.3697  0.0252  0.1283
25961WAT      O 5648  -6.663   9.078   7.091 -0.3173  0.2954 -0.3043
25961WAT     H1 5649  -6.749   9.118   7.073  0.0717  0.4701 -1.9399
25961WAT     H2 5650  -6.611   9.097   7.012  1.1888  0.0853  0.6067
25961WAT    EPW 5651  -6.668   9.086   7.078 -0.0672  0.2909 -0.3998
25962WAT      O 5652   3.530   3.007   6.012  0.0142  0.0441 -0.3171
25962WAT     H1 5653   3.507   2.924   6.052  1.4260 -0.4083 -0.3988
25962WAT     H2 5654   3.446   3.048   5.993 -0.7530  0.1713  2.7940
25962WAT    EPW 5655   3.516   3.002   6.015  0.0992  0.0013  0.0825
25963WAT      O 5656   0.409   7.598   0.272 -0.0674  0.1035 -0.4751
25963WAT     H1 5657   0.378   7.551   0.349  0.4672  1.6517  0.7242
25963WAT     H2 5658   0.471   7.662   0.306  3.0004 -1.5006 -2.5285
25963WAT    EPW 5659   0.413   7.600   0.286  0.4077  0.0961 -0.5877
25964WAT      O 5660  -1.193   1.826   2.116  0.5395 -0.2746 -0.1940
25964WAT     H1 5661  -1.261   1.855   2.055  1.5024  1.1943 -0.6320
25964WAT     H2 5662  -1.138   1.768   2.065  0.1204 -0.7845 -0.0794
25964WAT    EPW 5663  -1.195   1.822   2.101  0.6112 -0.1482 -0.2365
25965WAT      O 5664   4.982   7.111   1.742  0.2612 -0.0935 -0.0435
25965WAT     H1 5665   4.937   7.039   1.698  2.2511 -2.4115  1.4094
25965WAT     H2 5666   4.912   7.168   1.774 -1.3702 -0.9785 -1.8364
25965WAT    EPW 5667   4.967   7.109   1.740  0.3088 -0.5159 -0.0883
25966WAT      O 5668  -1.718   1.040   2.207  0.3914  0.1188  0.5728
25966WAT     H1 5669  -1.628   1.024   2.235  0.9319  0.1865 -1.0340
25966WAT     H2 5670  -1.722   1.134   2.191  1.1160 -0.3048 -2.7094
25966WAT    EPW 5671  -1.707   1.050   2.209  0.5583  0.0718 -0.0720
25967WAT      O 5672   1.421   6.914   4.295  1.1035 -0.3025 -0.2715
25967WAT     H1 5673   1.413   7.009   4.288  1.0296 -0.3688 -1.1662
25967WAT     H2 5674   1.345   6.879   4.249  0.9533 -0.7981  0.3326
25967WAT    EPW 5675   1.410   6.922   4.288  1.0740 -0.3767 -0.3097
25968WAT      O 5676  -1.876   8.739   4.852  0.1804  0.1629 -0.0015
25968WAT     H1 5677  -1.836   8.693   4.778  0.1702 -0.4989  0.3926
25968WAT     H2 5678  -1.865   8.832   4.832  5.3086  0.2791  1.7516
25968WAT    EPW 5679  -1.869   8.745   4.840  0.8555  0.0911  0.2816
25969WAT      O 5680   2.696   8.578   2.163  0.3553  0.3306  0.2686
25969WAT     H1 5681   2.611   8.533   2.154  0.6089  0.2470 -2.3348
25969WAT     H2 5682   2.758   8.507   2.180  0.0690  0.3101  1.3598
25969WAT    EPW 5683   2.693   8.563   2.164  0.3510  0.3166  0.0693
25970WAT      O 5684   8.607   1.409   1.399 -0.0840 -0.2513  0.4853
25970WAT     H1 5685   8.595   1.504   1.400  3.1863  0.2777  2.0391
25970WAT     H2 5686   8.588   1.381   1.488 -2.9987 -1.5041 -0.4035
25970WAT    EPW 5687   8.603   1.418   1.411 -0.0372 -0.3468  0.5730
25971WAT      O 5688   4.522   9.574   1.650  0.8707  0.8464 -0.1483
25971WAT     H1 5689   4.453   9.640   1.647  0.0166  0.2316  2.7317
25971WAT     H2 5690   4.592   9.613   1.703  1.8905  0.6976 -1.3359
25971WAT    EPW 5691   4.522   9.588   1.656  0.8926  0.7458  0.0750
25972WAT      O 5692   2.995   6.706   3.025 -0.0266 -0.8363 -0.3567
25972WAT     H1 5693   2.933   6.744   2.962  1.5372 -1.1840 -2.1972
25972WAT     H2 5694   2.954   6.623   3.050 -0.0564 -1.3961 -2.0814
25972WAT    EPW 5695   2.981   6.700   3.020  0.1757 -0.9561 -0.8270
25973WAT      O 5696  -3.751   9.418   0.866 -0.3834 -0.4893 -0.2878
25973WAT     H1 5697  -3.799   9.401   0.947  1.6805 -3.4507  0.4826
25973WAT     H2 5698  -3.818   9.424   0.799 -1.9763 -2.3188  1.0289
25973WAT    EPW 5699  -3.766   9.417   0.868 -0.3213 -1.1210 -0.0125
25974WAT      O 5700  -5.318  10.261   6.974 -0.2582 -0.3786  0.3497
25974WAT     H1 5701  -5.342  10.199   7.043  0.0928  0.2870  1.0839
25974WAT     H2 5702  -5.400  10.305   6.952 -0.3904 -0.6651  0.2630
25974WAT    EPW 5703  -5.332  10.258   6.980 -0.2294 -0.3285  0.4351
25975WAT      O 5704   1.227   4.465   2.034 -0.9911  0.0182 -0.3560
25975WAT     H1 5705   1.264   4.553   2.025 -1.3090  0.1456 -0.4272
25975WAT     H2 5706   1.246   4.439   2.124 -2.2822  0.7956  0.1597
25975WAT    EPW 5707   1.235   4.473   2.044 -1.2034  0.1376 -0.2973
25976WAT      O 5708  -4.102  10.142   3.246  0.2656 -0.0557  0.1439
25976WAT     H1 5709  -4.019  10.108   3.213  0.8472  1.0629  0.3779
25976WAT     H2 5710  -4.093  10.137   3.341  0.2997  0.5686  0.1794
25976WAT    EPW 5711  -4.090  10.137   3.254  0.3469  0.1740  0.1794
25977WAT      O 5712   1.836   1.690   2.088 -0.3788  0.1073  0.5994
25977WAT     H1 5713   1.872   1.602   2.093 -0.2368 -0.0032 -1.6166
25977WAT     H2 5714   1.906   1.747   2.120  1.3878 -0.2087 -2.4139
25977WAT    EPW 5715   1.850   1.686   2.093 -0.1271  0.0511 -0.0901
25978WAT      O 5716   1.984   1.623   0.088 -0.4017  0.0564 -0.1038
25978WAT     H1 5717   2.012   1.554   0.149  0.7037  1.3300  0.8942
25978WAT     H2 5718   2.052   1.625   0.021 -0.2292  0.4139  0.0777
25978WAT    EPW 5719   1.997   1.614   0.087 -0.2332  0.2716  0.0517
25979WAT      O 5720  -4.578   6.513   8.295  0.6833  0.2391 -0.7874
25979WAT     H1 5721  -4.668   6.495   8.266 -0.2689 -0.2283  2.1008
25979WAT     H2 5722  -4.526   6.445   8.252 -0.7205 -0.9173 -0.7580
25979WAT    EPW 5723  -4.583   6.502   8.285  0.3724  0.0250 -0.4025
25980WAT      O 5724   1.021   2.985   2.287 -0.7158 -0.3067 -0.2121
25980WAT     H1 5725   1.058   3.025   2.209  0.2077 -0.7682 -0.0235
25980WAT     H2 5726   0.926   2.992   2.275 -0.6108 -1.1688 -1.7931
25980WAT    EPW 5727   1.014   2.991   2.275 -0.5802 -0.4812 -0.3958
25981WAT      O 5728  -4.390   8.307   7.996  0.4773 -0.1232 -0.2303
25981WAT     H1 5729  -4.298   8.286   8.015  0.2392 -0.1316  0.9907
25981WAT     H2 5730  -4.427   8.331   8.081 -0.4398  0.7379 -0.8516
25981WAT    EPW 5731  -4.383   8.307   8.010  0.3247 -0.0110 -0.1512
25982WAT      O 5732  -4.023   8.648   4.540  0.3778 -0.5162 -0.3256
25982WAT     H1 5733  -4.118   8.639   4.536  0.2232  0.9594 -0.5951
25982WAT     H2 5734  -3.990   8.558   4.544 -1.1667 -1.0774  3.4362
25982WAT    EPW 5735  -4.031   8.635   4.540  0.1535 -0.3958  0.1349
25983WAT      O 5736   1.911   1.027   0.245 -0.2730  0.5154  0.7398
25983WAT     H1 5737   1.987   1.041   0.303 -0.2533 -0.0198  0.8451
25983WAT     H2 5738   1.847   0.981   0.300 -0.3877  0.3132  0.4382
25983WAT    EPW 5739   1.913   1.023   0.260 -0.2855  0.4181  0.7139
25984WAT      O 5740   5.961   3.943   0.085 -0.2191 -0.5667  0.7791
25984WAT     H1 5741   5.977   3.954  -0.009  1.2723 -1.6853  0.8725
25984WAT     H2 5742   5.956   4.032   0.118 -1.6699 -0.1328 -0.4819
25984WAT    EPW 5743   5.963   3.956   0.077 -0.2134 -0.6570  0.6251
25985WAT      O 5744   2.327   2.793   1.704 -0.7004 -0.1156 -0.7098
25985WAT     H1 5745   2.402   2.805   1.763  0.5289  1.4198 -2.4773
25985WAT     H2 5746   2.344   2.710   1.660  0.2239  0.4127 -1.3943
25985WAT    EPW 5747   2.339   2.784   1.706 -0.4164  0.1566 -1.0332
25986WAT      O 5748   5.904   4.766   1.590 -0.5247 -0.3569  0.8795
25986WAT     H1 5749   5.973   4.712   1.629 -0.9631 -1.9396 -0.4516
25986WAT     H2 5750   5.823   4.723   1.615 -0.9242  0.1011  0.3984
25986WAT    EPW 5751   5.903   4.753   1.599 -0.6351 -0.5054  0.6406
25987WAT      O 5752   3.899   1.700   3.780 -0.1220  0.2856  0.2991
25987WAT     H1 5753   3.867   1.640   3.847 -2.0068 -0.3968 -1.1475
25987WAT     H2 5754   3.953   1.645   3.722  3.4360  1.2829  2.3238
25987WAT    EPW 5755   3.902   1.685   3.781  0.0987  0.3271  0.3754
25988WAT      O 5756   8.209   0.583   0.360 -0.5129 -0.3758  0.6642
25988WAT     H1 5757   8.118   0.608   0.380  0.2741  1.1540  2.6089
25988WAT     H2 5758   8.247   0.661   0.319 -0.1291 -1.1228 -0.4513
25988WAT    EPW 5759   8.202   0.596   0.357 -0.3581 -0.2725  0.7736
25989WAT      O 5760   4.776   1.047   5.808  0.0365  0.5170  1.2807
25989WAT     H1 5761   4.682   1.038   5.825  0.3101 -0.2546  2.5614
25989WAT     H2 5762   4.785   1.133   5.768 -1.3495  0.0865 -0.0411
25989WAT    EPW 5763   4.765   1.057   5.805 -0.1101  0.3585  1.2753
25990WAT      O 5764  -2.792   8.337   4.324 -0.0976  0.3270 -0.4819
25990WAT     H1 5765  -2.884   8.347   4.347 -0.1300  0.9755 -0.8839
25990WAT     H2 5766  -2.759   8.426   4.313  0.8590  0.1497  0.6936
25990WAT    EPW 5767  -2.800   8.350   4.326  0.0242  0.3891 -0.3798
25991WAT      O 5768   4.527   4.022   5.178 -0.1180 -0.0946 -0.5325
25991WAT     H1 5769   4.505   3.930   5.193  4.0424 -1.1674  0.3155
25991WAT     H2 5770   4.541   4.058   5.266  0.4806  0.7174 -0.9434
25991WAT    EPW 5771   4.526   4.015   5.192  0.5100 -0.1292 -0.4749
25992WAT      O 5772  -3.320   8.515   7.554 -0.6296 -0.2003 -0.3812
25992WAT     H1 5773  -3.230   8.486   7.538 -1.4065 -1.0606 -4.5521
25992WAT     H2 5774  -3.326   8.600   7.511 -0.1698  3.7565  6.0842
25992WAT    EPW 5775  -3.309   8.522   7.546 -0.6715  0.2084 -0.0784
25993WAT      O 5776   2.217   4.183   1.503  0.2364  0.2026 -0.2020
25993WAT     H1 5777   2.264   4.105   1.473 -0.9005 -0.3409 -0.6175
25993WAT     H2 5778   2.284   4.251   1.508  0.7145  0.0387 -2.8932
25993WAT    EPW 5779   2.232   4.182   1.500  0.1495  0.1092 -0.6117
25994WAT      O 5780  -3.026   4.925   7.753 -0.2172 -0.5141  0.3536
25994WAT     H1 5781  -3.085   4.939   7.827 -1.8021 -1.2390 -0.7211
25994WAT     H2 5782  -3.032   4.832   7.735  1.2556 -0.6061  0.1616
25994WAT    EPW 5783  -3.034   4.915   7.761 -0.2321 -0.6218  0.1867
25995WAT      O 5784   0.187   1.383   1.765  0.6848 -0.8590  0.0354
25995WAT     H1 5785   0.243   1.445   1.717  0.7037 -0.2469  0.8224
25995WAT     H2 5786   0.098   1.417   1.751  0.5044 -1.7391 -1.0815
25995WAT    EPW 5787   0.183   1.396   1.757  0.6635 -0.8944 -0.0082
25996WAT      O 5788   0.268  10.328   1.240  0.4502 -0.2831  0.5497
25996WAT     H1 5789   0.229  10.377   1.168  0.9116 -0.1681  0.3772
25996WAT     H2 5790   0.331  10.269   1.198  1.1561  0.2019  0.8986
25996WAT    EPW 5791   0.271  10.327   1.225  0.6042 -0.2036  0.5730
25997WAT      O 5792   3.003   8.350   0.800  0.0924  0.2024 -0.2253
25997WAT     H1 5793   2.941   8.293   0.754  2.1899 -3.8436  1.4618
25997WAT     H2 5794   3.087   8.331   0.758  0.9888  1.6832  0.8363
25997WAT    EPW 5795   3.006   8.340   0.788  0.4872 -0.1354  0.1372
25998WAT      O 5796   5.388   6.286   4.229  0.6790  0.0369  0.2874
25998WAT     H1 5797   5.319   6.225   4.205 -0.1800  0.7741  0.8241
25998WAT     H2 5798   5.469   6.234   4.226  0.6033 -0.0978 -3.5482
25998WAT    EPW 5799   5.390   6.271   4.226  0.5558  0.1163 -0.1476
25999WAT      O 5800   6.450   1.923   2.941  0.7643 -0.1955 -0.9220
25999WAT     H1 5801   6.373   1.921   2.998  0.2349  1.2165 -1.5538
25999WAT     H2 5802   6.515   1.974   2.990  1.1172 -0.8890 -0.6440
25999WAT    EPW 5803   6.449   1.929   2.955  0.7410 -0.1007 -0.9687
26000WAT      O 5804  -3.874   5.253   6.186 -0.1741  0.9350 -0.0661
26000WAT     H1 5805  -3.830   5.315   6.244  4.7609 -1.4687 -0.6991
26000WAT     H2 5806  -3.877   5.172   6.236  0.0276 -0.0276 -1.5526
26000WAT    EPW 5807  -3.868   5.251   6.200  0.5034  0.4911 -0.3455
26001WAT      O 5808  -3.908   0.487   7.152 -0.3398  0.4304  0.4038
26001WAT     H1 5809  -3.914   0.582   7.137  0.3322  0.5335  0.7583
26001WAT     H2 5810  -3.999   0.458   7.155 -0.5729  0.6627 -2.1809
26001WAT    EPW 5811  -3.921   0.496   7.150 -0.2819  0.4746  0.1097
26002WAT      O 5812   3.975   8.838   0.727  0.0709  0.2290  0.0195
26002WAT     H1 5813   3.879   8.843   0.732 -0.0830  0.1307 -2.0980
26002WAT     H2 5814   3.994   8.829   0.634  2.1121 -0.8101  0.4848
26002WAT    EPW 5815   3.965   8.838   0.715  0.3197  0.0792 -0.1984
26003WAT      O 5816   2.860   5.465   4.081 -0.1670 -1.0402 -0.5483
26003WAT     H1 5817   2.783   5.429   4.126 -0.5740 -1.6594 -1.6963
26003WAT     H2 5818   2.842   5.450   3.988  1.3598 -1.2167 -0.8388
26003WAT    EPW 5819   2.847   5.458   4.074 -0.0193 -1.1451 -0.7381
26004WAT      O 5820   2.407   9.589   1.202 -0.0395  0.1252 -0.1876
26004WAT     H1 5821   2.488   9.543   1.224 -0.1610 -1.8117 -3.2557
26004WAT     H2 5822   2.432   9.654   1.136 -0.6902  1.0516  0.4354
26004WAT    EPW 5823   2.421   9.592   1.196 -0.1415 -0.0086 -0.5101
26005WAT      O 5824   4.133   3.250   0.497  0.4460  0.4858 -0.2728
26005WAT     H1 5825   4.132   3.335   0.454 -0.3277  1.3397  1.3485
26005WAT     H2 5826   4.223   3.239   0.527  0.3598  1.1233  0.2332
26005WAT    EPW 5827   4.144   3.259   0.495  0.3326  0.6826  0.0078
26006WAT      O 5828   4.157   3.211   7.575  0.0317 -0.0178 -0.3589
26006WAT     H1 5829   4.165   3.268   7.498 -1.2131  1.2172  0.3873
26006WAT     H2 5830   4.073   3.168   7.564 -0.3005  0.4095  0.4565
26006WAT    EPW 5831   4.147   3.213   7.563 -0.1762  0.2015 -0.1528
26007WAT      O 5832   5.034   9.719   1.507  0.9481  0.3401 -0.3113
26007WAT     H1 5833   4.956   9.684   1.549  0.8699 -0.8800 -1.4209
26007WAT     H2 5834   5.037   9.811   1.535  0.8061 -0.3462  2.1453
26007WAT    EPW 5835   5.024   9.727   1.516  0.9191  0.0882 -0.1336
26008WAT      O 5836   8.699   1.084   1.216  0.5044  0.4119 -0.7490
26008WAT     H1 5837   8.780   1.071   1.168  1.0803  0.9037  0.0605
26008WAT     H2 5838   8.726   1.085   1.308 -0.6720 -1.3277 -0.3448
26008WAT    EPW 5839   8.713   1.082   1.222  0.4253  0.2473 -0.5889
26009WAT      O 5840   0.126   6.256   5.788 -0.0471 -1.0765  0.2819
26009WAT     H1 5841   0.088   6.282   5.704 -0.4772  2.3846  1.3846
26009WAT     H2 5842   0.209   6.305   5.793 -0.8382  0.1919  2.5137
26009WAT    EPW 5843   0.132   6.266   5.778 -0.2082 -0.4528  0.7217
26010WAT      O 5844  -1.515   1.048   3.775  0.0028  0.1645 -0.1725
26010WAT     H1 5845  -1.582   1.116   3.781  1.0184  1.1607  0.2284
26010WAT     H2 5846  -1.542   0.983   3.839  0.1511  1.2410  1.0384
26010WAT    EPW 5847  -1.528   1.049   3.784  0.1563  0.4378  0.0403
26011WAT      O 5848   6.635   2.458   2.083 -0.5660 -0.2876  0.0084
26011WAT     H1 5849   6.576   2.532   2.069  0.0701  0.0967 -0.7391
26011WAT     H2 5850   6.710   2.495   2.129 -0.1149 -0.4014 -0.6265
26011WAT    EPW 5851   6.637   2.472   2.087 -0.4225 -0.2519 -0.1739
26012WAT      O 5852  -4.543   9.236   6.453  0.2305  0.6661 -0.1888
26012WAT     H1 5853  -4.608   9.285   6.402 -1.0512  0.1186  0.8521
26012WAT     H2 5854  -4.556   9.145   6.426  0.0943  0.4721  0.5070
26012WAT    EPW 5855  -4.553   9.230   6.443  0.0436  0.5684  0.0401
26013WAT      O 5856  -3.051   4.532   8.523  0.6254 -0.0133  0.1333
26013WAT     H1 5857  -3.057   4.521   8.618 -0.0398  1.2484  0.2530
26013WAT     H2 5858  -3.068   4.625   8.509 -1.0164 -0.4894 -1.3554
26013WAT    EPW 5859  -3.054   4.543   8.534  0.3210  0.0904 -0.0477
26014WAT      O 5860   5.704   9.988   0.590  0.1245  0.1461 -0.0026
26014WAT     H1 5861   5.624  10.004   0.641 -0.7326  0.7544 -1.4764
26014WAT     H2 5862   5.746  10.073   0.582  0.4698 -0.0180  0.0340
26014WAT    EPW 5863   5.699  10.001   0.596  0.0567  0.2041 -0.1922
26015WAT      O 5864   3.931   3.054   7.564  0.5254 -0.4179 -0.4369
26015WAT     H1 5865   3.837   3.046   7.582  0.0012  0.4893 -2.4033
26015WAT     H2 5866   3.968   2.970   7.588 -0.4991 -0.2872  1.8467
26015WAT    EPW 5867   3.924   3.042   7.569  0.3213 -0.2810 -0.3951
26016WAT      O 5868   2.276   0.038   8.595  0.5174 -0.6934 -0.5287
26016WAT     H1 5869   2.230   0.111   8.636  1.8766 -0.7458  1.2288
26016WAT     H2 5870   2.249   0.041   8.503  1.0105  2.4222 -0.6861
26016WAT    EPW 5871   2.267   0.048   8.588  0.7616 -0.2894 -0.3176
26017WAT      O 5872   2.897   7.033   4.050  0.1595 -0.2743  0.1372
26017WAT     H1 5873   2.954   6.970   4.006  1.1215 -1.1785  2.5454
26017WAT     H2 5874   2.818   7.035   3.996  1.0543 -1.7253 -1.3074
26017WAT    EPW 5875   2.894   7.025   4.037  0.4044 -0.5848  0.2644
26018WAT      O 5876   5.035   8.072   3.597 -0.5417  0.1838 -0.1647
26018WAT     H1 5877   5.097   8.024   3.652  0.8520  3.5802  1.4612
26018WAT     H2 5878   5.068   8.059   3.508 -2.2657 -4.5849 -0.3939
26018WAT    EPW 5879   5.048   8.064   3.593 -0.5853  0.0029  0.0196
26019WAT      O 5880  -0.180   3.847   4.194  0.0014  0.2736  0.3961
26019WAT     H1 5881  -0.255   3.798   4.228 -0.2349  0.8373  0.7068
26019WAT     H2 5882  -0.183   3.833   4.099  0.9697 -1.7367  0.6201
26019WAT    EPW 5883  -0.191   3.839   4.186  0.0979  0.0829  0.4666
26020WAT      O 5884   6.823   2.422   0.467 -0.5181  0.1260 -0.2811
26020WAT     H1 5885   6.737   2.438   0.429 -0.1989  0.1600 -0.9878
26020WAT     H2 5886   6.809   2.346   0.525 -1.2983  0.9061  0.5879
26020WAT    EPW 5887   6.810   2.414   0.470 -0.5789  0.2334 -0.2597
26021WAT      O 5888  -7.891   9.189   7.941  0.4358 -0.0860  0.3031
26021WAT     H1 5889  -7.918   9.195   8.033 -1.7982 -1.9780 -0.1304
26021WAT     H2 5890  -7.856   9.101   7.931 -0.5866 -0.3932 -0.9063
26021WAT    EPW 5891  -7.890   9.178   7.952  0.0064 -0.3762  0.0863
26022WAT      O 5892   3.803   7.306   5.844  0.5202  0.2130 -0.3110
26022WAT     H1 5893   3.745   7.376   5.816 -0.5176 -0.7027 -0.5430
26022WAT     H2 5894   3.785   7.235   5.782 -0.2118 -1.0855  1.3162
26022WAT    EPW 5895   3.793   7.306   5.832  0.2867 -0.0789 -0.1268
26023WAT      O 5896   0.081   1.276   2.307 -0.3411 -0.1190 -0.1521
26023WAT     H1 5897   0.026   1.349   2.280 -0.2486  0.5463  1.3099
26023WAT     H2 5898   0.145   1.266   2.236 -1.2541  0.2469 -1.0478
26023WAT    EPW 5899   0.082   1.285   2.294 -0.4493  0.0170 -0.0775
26024WAT      O 5900  -2.750   6.187   8.190 -0.2021 -0.6564  0.1012
26024WAT     H1 5901  -2.692   6.118   8.225 -0.2805 -1.5588 -1.4629
26024WAT     H2 5902  -2.727   6.193   8.098  0.7815  2.4568  0.4370
26024WAT    EPW 5903  -2.739   6.178   8.183 -0.0827 -0.3648 -0.0610
26025WAT      O 5904   2.058   6.270   4.801  0.4477  0.6394 -0.6790
26025WAT     H1 5905   2.051   6.325   4.878 -0.5622  1.4143 -1.2971
26025WAT     H2 5906   2.054   6.331   4.727 -0.8621 -0.2474 -1.3855
26025WAT    EPW 5907   2.056   6.285   4.801  0.1417  0.6247 -0.8538
26026WAT      O 5908   0.788   4.635   3.771  0.7042  0.3880 -0.9910
26026WAT     H1 5909   0.704   4.679   3.777 -0.0879 -1.2443  1.5565
26026WAT     H2 5910   0.820   4.631   3.861  3.4631  0.7870 -1.8518
26026WAT    EPW 5911   0.781   4.640   3.783  0.9636  0.2253 -0.7685
26027WAT      O 5912   6.202   4.964   2.758 -0.0744  0.5789  0.4920
26027WAT     H1 5913   6.248   4.919   2.687 -0.3975  1.7522 -0.4956
26027WAT     H2 5914   6.268   4.973   2.827  1.3079  2.3743 -0.9570
26027WAT    EPW 5915   6.217   4.959   2.758  0.0653  0.9706  0.1707
26028WAT      O 5916   2.651   0.319   5.931 -0.3309 -0.5575  0.2235
26028WAT     H1 5917   2.686   0.253   5.991  0.6121 -0.8513 -0.6123
26028WAT     H2 5918   2.636   0.271   5.850 -2.3936 -0.3537  0.4249
26028WAT    EPW 5919   2.654   0.304   5.928 -0.4786 -0.5693  0.1397
26029WAT      O 5920  -0.336   5.925   4.468  0.4578  0.0537 -0.0329
26029WAT     H1 5921  -0.317   6.019   4.474  0.8895 -0.0790  0.8801
26029WAT     H2 5922  -0.329   5.905   4.374  1.6569  0.6758 -0.1017
26029WAT    EPW 5923  -0.332   5.935   4.456  0.6729  0.1185  0.0784
26030WAT      O 5924   5.249   3.397   7.291  0.8329  0.6879  0.3984
26030WAT     H1 5925   5.188   3.403   7.364 -0.3073  1.2298 -0.5636
26030WAT     H2 5926   5.296   3.480   7.292  0.3427  0.9736  0.1255
26030WAT    EPW 5927   5.247   3.409   7.301  0.6180  0.7969  0.2356
26031WAT      O 5928  -4.523   5.372   7.833  0.0650 -0.0438  0.6838
26031WAT     H1 5929  -4.525   5.393   7.739  1.4070 -1.3873  0.3089
26031WAT     H2 5930  -4.533   5.456   7.876 -2.2894  0.4325 -0.6160
26031WAT    EPW 5931  -4.525   5.386   7.826 -0.0684 -0.1583  0.4630
26032WAT      O 5932  -3.886   8.879   4.712  0.0024 -0.3704  0.2998
26032WAT     H1 5933  -3.829   8.875   4.789  0.3866 -1.2580 -0.0254
26032WAT     H2 5934  -3.926   8.792   4.707 -1.2805  0.1952  0.4407
26032WAT    EPW 5935  -3.884   8.867   4.721 -0.1161 -0.4125  0.2754
26033WAT      O 5936   0.036   5.853   1.448  0.2569  0.0496  0.0937
26033WAT     H1 5937  -0.055   5.877   1.432  0.7845  1.4313 -1.0905
26033WAT     H2 5938   0.036   5.758   1.457 -1.2234 -0.0016 -0.3294
26033WAT    EPW 5939   0.024   5.844   1.447  0.1312  0.2248 -0.1183
26034WAT      O 5940  -2.769   2.798   6.714  0.6553 -0.6969  0.0946
26034WAT     H1 5941  -2.759   2.892   6.704 -1.2729 -0.5549 -1.0428
26034WAT     H2 5942  -2.709   2.760   6.651  0.8838 -0.2009  0.0099
26034WAT    EPW 5943  -2.760   2.805   6.705  0.4311 -0.6127 -0.0665
26035WAT      O 5944   8.735   5.004   0.616  0.5175  0.2535  0.2276
26035WAT     H1 5945   8.751   4.919   0.576  0.1517  1.0369 -1.6966
26035WAT     H2 5946   8.649   4.996   0.656  1.0356 -0.6581  1.2145
26035WAT    EPW 5947   8.726   4.992   0.616  0.5374  0.2367  0.1040
26036WAT      O 5948   0.331   1.925   7.918 -0.0747  0.0160 -0.9444
26036WAT     H1 5949   0.370   1.884   7.841  1.8889 -0.0952  0.0452
26036WAT     H2 5950   0.271   1.859   7.953 -0.8193 -0.0121 -2.2139
26036WAT    EPW 5951   0.328   1.911   7.912  0.0861 -0.0023 -0.9813
26037WAT      O 5952   0.427   6.739   3.708  0.0590  0.1111  0.2047
26037WAT     H1 5953   0.499   6.730   3.645 -0.1756 -1.0850  0.0839
26037WAT     H2 5954   0.409   6.833   3.711 -0.4360  0.1447 -2.1076
26037WAT    EPW 5955   0.434   6.750   3.700 -0.0372 -0.0422 -0.1161
26038WAT      O 5956   1.748   7.706   8.539  0.2371 -0.2561  0.3391
26038WAT     H1 5957   1.829   7.728   8.585 -0.0599 -1.3473  1.4428
26038WAT     H2 5958   1.715   7.789   8.507  1.5140  0.2766  0.3443
26038WAT    EPW 5959   1.755   7.720   8.541  0.3663 -0.3300  0.4854
26039WAT      O 5960  -1.635   2.095   8.070  0.5390  0.3538  0.9345
26039WAT     H1 5961  -1.583   2.089   8.150 -0.4898  0.2486  1.6163
26039WAT     H2 5962  -1.725   2.101   8.101  0.0862 -0.1687 -0.2350
26039WAT    EPW 5963  -1.640   2.095   8.085  0.3436  0.2708  0.8702
26040WAT      O 5964   2.961   1.623   0.130  0.3086  0.3407  0.0826
26040WAT     H1 5965   3.053   1.636   0.109  0.6828 -0.6051  1.0288
26040WAT     H2 5966   2.917   1.625   0.045  1.1438  1.1430 -0.3505
26040WAT    EPW 5967   2.967   1.625   0.116  0.4681  0.3218  0.1503
26041WAT      O 5968  -1.588   1.550   7.116 -0.5070  0.2618  0.0624
26041WAT     H1 5969  -1.508   1.538   7.169 -1.3049  0.5080  1.3677
26041WAT     H2 5970  -1.594   1.645   7.105 -1.8098  0.4595  1.9513
26041WAT    EPW 5971  -1.578   1.561   7.122 -0.7840  0.3203  0.4838
26042WAT      O 5972   4.955   0.742   2.864  0.0361 -0.0198  0.3806
26042WAT     H1 5973   4.934   0.802   2.936  2.3756  0.1269  1.0314
26042WAT     H2 5974   4.962   0.656   2.907 -1.7436 -0.5507 -0.2835
26042WAT    EPW 5975   4.953   0.738   2.879  0.1099 -0.0705  0.3790
26043WAT      O 5976   5.298   2.105   5.321 -0.0392 -0.2158  0.0844
26043WAT     H1 5977   5.231   2.134   5.259 -0.1172  0.9003  0.6566
26043WAT     H2 5978   5.268   2.139   5.406  2.0784  1.8437  0.1108
26043WAT    EPW 5979   5.285   2.113   5.324  0.2298  0.2031  0.1633
26044WAT      O 5980  -0.723  10.304   8.528  0.2941  0.0144 -0.2964
26044WAT     H1 5981  -0.800  10.286   8.473 -0.1709  0.6940  0.1157
26044WAT     H2 5982  -0.752  10.373   8.587  0.7313 -0.8027  0.9172
26044WAT    EPW 5983  -0.737  10.310   8.528  0.2905 -0.0033 -0.0815
26045WAT      O 5984   2.401   0.761   1.971  0.0759 -0.6263  0.3600
26045WAT     H1 5985   2.345   0.830   1.935 -0.2881 -0.7656  0.6503
26045WAT     H2 5986   2.487   0.777   1.932  0.0880  0.2222  0.7191
26045WAT    EPW 5987   2.405   0.772   1.961  0.0294 -0.5327  0.4456
26046WAT      O 5988   1.599   9.178   6.582  0.2877  0.1657  0.0060
26046WAT     H1 5989   1.553   9.197   6.500 -0.4435 -0.0722  0.3536
26046WAT     H2 5990   1.541   9.213   6.651 -1.4626 -3.6750  0.7519
26046WAT    EPW 5991   1.585   9.185   6.581 -0.0396 -0.3724  0.1500
26047WAT      O 5992   3.833   2.106   1.269 -0.2429 -0.8266 -0.3845
26047WAT     H1 5993   3.925   2.120   1.243 -0.5619 -0.0109 -1.1337
26047WAT     H2 5994   3.835   2.108   1.364  0.7422 -2.3548 -0.3373
26047WAT    EPW 5995   3.846   2.108   1.278 -0.1550 -0.9205 -0.4771
26048WAT      O 5996  -1.589   6.895   5.027 -0.2712 -0.4766  0.7478
26048WAT     H1 5997  -1.609   6.847   4.946  1.1716  1.5037 -0.8650
26048WAT     H2 5998  -1.668   6.947   5.044 -0.5908 -0.9254  0.6602
26048WAT    EPW 5999  -1.602   6.895   5.019 -0.1231 -0.2747  0.5236
26049WAT      O 6000   4.122   5.534   5.362  0.8597 -0.9516  0.7426
26049WAT     H1 6001   4.085   5.532   5.450  0.3615  2.2203  0.7214
26049WAT     H2 6002   4.049   5.506   5.305  1.3866 -3.7034  1.2490
26049WAT    EPW 6003   4.107   5.530   5.366  0.8636 -0.8962  0.8066
26050WAT      O 6004  -0.273   1.533   4.577 -0.4733  0.5121  0.3226
26050WAT     H1 6005  -0.238   1.459   4.627  1.0738  1.1125  0.1800
26050WAT     H2 6006  -0.363   1.543   4.609 -0.8686 -1.6677  0.0350
26050WAT    EPW 6007  -0.280   1.524   4.588 -0.3214  0.3037  0.2658
26051WAT      O 6008   4.741   8.291   4.824  0.2964 -0.2702  0.0374
26051WAT     H1 6009   4.711   8.279   4.914 -0.3071  0.1580 -0.1000
26051WAT     H2 6010   4.754   8.386   4.815  1.2191 -0.3916 -0.0646
26051WAT    EPW 6011   4.739   8.302   4.835  0.3386 -0.2298  0.0057
26052WAT      O 6012  -2.769   2.526   6.700 -0.5168 -0.6426 -0.2419
26052WAT     H1 6013  -2.740   2.505   6.788 -1.1382  0.5226  0.2618
26052WAT     H2 6014  -2.800   2.616   6.705 -0.8943 -0.6647 -1.5704
26052WAT    EPW 6015  -2.769   2.535   6.712 -0.6486 -0.4917 -0.3510
26053WAT      O 6016   2.970   7.078   2.638  0.4164  0.5261  0.1344
26053WAT     H1 6017   3.049   7.131   2.647  2.0619 -1.4262 -1.6160
26053WAT     H2 6018   2.899   7.141   2.630  1.8411  2.3608  1.3119
26053WAT    EPW 6019   2.971   7.093   2.638  0.8215  0.5105  0.0588
26054WAT      O 6020   7.374   2.444   0.793 -0.0332  0.6973  1.0091
26054WAT     H1 6021   7.448   2.503   0.779 -0.9642  1.5055 -0.7694
26054WAT     H2 6022   7.389   2.370   0.734 -0.7201  0.9577  0.4908
26054WAT    EPW 6023   7.386   2.442   0.784 -0.2468  0.8382  0.7062
26055WAT      O 6024  -0.571   4.693   3.672 -0.4856 -0.1749  0.3368
26055WAT     H1 6025  -0.606   4.781   3.690 -0.2720 -0.2110  0.9459
26055WAT     H2 6026  -0.643   4.648   3.628 -0.6335  0.2742  0.1066
26055WAT    EPW 6027  -0.585   4.699   3.669 -0.4770 -0.1206  0.3867
26056WAT      O 6028   4.453   4.652   2.600 -0.3823  0.1617  0.4719
26056WAT     H1 6029   4.461   4.570   2.552  0.4450 -0.2660  1.3149
26056WAT     H2 6030   4.415   4.628   2.684  0.7571  0.4744  1.1056
26056WAT    EPW 6031   4.449   4.638   2.604 -0.1233  0.1469  0.6665
26057WAT      O 6032  -1.706   1.462   5.984  0.0558  0.0081 -0.3134
26057WAT     H1 6033  -1.751   1.516   6.048 -1.4982 -1.8144  0.2587
26057WAT     H2 6034  -1.710   1.512   5.902  0.0637  1.3906  0.5183
26057WAT    EPW 6035  -1.712   1.475   5.981 -0.1481 -0.0498 -0.1280
26058WAT      O 6036  -0.022   6.983   6.932 -0.7607  0.5781  0.5031
26058WAT     H1 6037   0.023   6.918   6.877 -0.1748  0.7478  0.7747
26058WAT     H2 6038  -0.098   7.008   6.881  0.4167  1.6432 -0.8115
26058WAT    EPW 6039  -0.026   6.978   6.918 -0.5281  0.7410  0.3655
26059WAT      O 6040   0.162   3.888   5.726  0.0008 -0.6227  0.0833
26059WAT     H1 6041   0.081   3.846   5.757  0.5510 -3.0445 -1.4982
26059WAT     H2 6042   0.159   3.976   5.764 -3.1637 -0.7541  0.4093
26059WAT    EPW 6043   0.151   3.894   5.735 -0.3440 -0.9594 -0.0823
26060WAT      O 6044   3.235   8.695   2.759  0.1229  0.4995 -0.0038
26060WAT     H1 6045   3.323   8.668   2.785  0.4080 -0.1363 -1.5278
26060WAT     H2 6046   3.193   8.614   2.729 -0.8480  0.8712  0.2933
26060WAT    EPW 6047   3.241   8.680   2.758  0.0324  0.4644 -0.1656
26061WAT      O 6048   2.610   3.377   3.914  0.2878 -0.6363  0.0803
26061WAT     H1 6049   2.665   3.414   3.845 -1.1630  1.8758  0.1283
26061WAT     H2 6050   2.595   3.286   3.888  1.1371 -0.2263 -2.0300
26061WAT    EPW 6051   2.615   3.370   3.902  0.2085 -0.2509 -0.1917
26062WAT      O 6052   3.523   8.259   3.551  0.3795 -0.2474  0.1574
26062WAT     H1 6053   3.437   8.285   3.586 -0.3898 -1.9665 -0.3585
26062WAT     H2 6054   3.585   8.283   3.620 -0.6033  0.3191  0.8685
26062WAT    EPW 6055   3.520   8.266   3.565  0.1485 -0.3996  0.1832
26063WAT      O 6056   3.146   5.146   7.374 -0.3005  0.3202  0.0902
26063WAT     H1 6057   3.190   5.067   7.343  0.2057  0.0573  1.3994
26063WAT     H2 6058   3.140   5.203   7.298  1.0744 -0.1983 -0.4195
26063WAT    EPW 6059   3.151   5.143   7.360 -0.0523  0.2172  0.1955
26064WAT      O 6060   5.780   9.672   2.144 -0.3083 -0.6103  0.6851
26064WAT     H1 6061   5.770   9.687   2.238  0.6515 -1.4231  0.9350
26064WAT     H2 6062   5.764   9.579   2.132 -1.3134 -0.3559 -0.1078
26064WAT    EPW 6063   5.777   9.662   2.154 -0.3142 -0.6838  0.6136
26065WAT      O 6064   1.308   6.638   6.947 -0.2417 -0.2008  0.2157
26065WAT     H1 6065   1.338   6.589   7.023  1.8087  0.0072 -0.4130
26065WAT     H2 6066   1.352   6.597   6.872 -0.1947  1.2141 -0.5718
26065WAT    EPW 6067   1.317   6.626   6.947  0.0349  0.0131  0.0291
26066WAT      O 6068   6.635   3.001   0.628 -0.4669  1.1600  0.0509
26066WAT     H1 6069   6.600   2.914   0.647 -0.3160  1.2303  0.6915
26066WAT     H2 6070   6.706   2.985   0.566 -1.0281  0.9226 -0.5302
26066WAT    EPW 6071   6.640   2.987   0.623 -0.5212  1.1381  0.0588
26067WAT      O 6072   6.083  10.176   0.684  0.1857  0.4729  0.7593
26067WAT     H1 6073   6.014  10.150   0.622 -0.5551  1.2472  1.2285
26067WAT     H2 6074   6.075  10.271   0.689  0.9738  0.5219  1.2080
26067WAT    EPW 6075   6.072  10.185   0.676  0.1919  0.5808  0.8804
26068WAT      O 6076  -5.203   8.640   7.152  0.0674  0.6578  0.9509
26068WAT     H1 6077  -5.289   8.671   7.181  0.1360  1.3323  0.4635
26068WAT     H2 6078  -5.223   8.584   7.076 -0.2388 -2.2896  3.0440
26068WAT    EPW 6079  -5.217   8.637   7.146  0.0360  0.3581  1.1628
26069WAT      O 6080   2.023   3.441   3.207 -0.1727 -0.2672  0.1727
26069WAT     H1 6081   2.001   3.462   3.298 -0.7783  2.3942 -0.4978
26069WAT     H2 6082   1.955   3.379   3.181 -1.0589  0.2887  1.0456
26069WAT    EPW 6083   2.011   3.436   3.216 -0.3695  0.1572  0.1993
26070WAT      O 6084   3.173   5.169   5.518  0.2374 -0.4378  0.1182
26070WAT     H1 6085   3.180   5.263   5.503 -0.0215 -0.4280  0.0528
26070WAT     H2 6086   3.236   5.130   5.457 -0.2319 -0.3515 -0.4318
26070WAT    EPW 6087   3.182   5.176   5.508  0.1414 -0.4251  0.0372
26071WAT      O 6088   3.036   4.656   0.338 -1.0041  0.0673  0.5318
26071WAT     H1 6089   3.102   4.714   0.300 -0.6641  0.1073  1.1752
26071WAT     H2 6090   2.953   4.700   0.320 -0.8601  0.0394 -0.2422
26071WAT    EPW 6091   3.034   4.669   0.330 -0.9402  0.0689  0.5146
26072WAT      O 6092   6.606   7.285   1.053  0.9903  0.7892  0.4342
26072WAT     H1 6093   6.584   7.322   1.139  1.2219 -2.2121  1.9151
26072WAT     H2 6094   6.545   7.212   1.043  2.7810 -0.6348 -0.6489
26072WAT    EPW 6095   6.595   7.280   1.063  1.2572  0.2055  0.4866
26073WAT      O 6096   6.161  10.131   1.240  0.0560 -0.1045 -0.4192
26073WAT     H1 6097   6.151  10.201   1.175  1.4495  0.5641  0.0541
26073WAT     H2 6098   6.089  10.145   1.302 -1.3022 -0.7565 -1.7852
26073WAT    EPW 6099   6.150  10.142   1.239  0.0608 -0.1025 -0.5370
26074WAT      O 6100  -4.266   9.360   2.997 -0.1637  0.5049 -0.2971
26074WAT     H1 6101  -4.206   9.433   3.010 -1.0979  0.9201  2.1830
26074WAT     H2 6102  -4.211   9.282   3.011  0.3772  0.7666 -0.8905
26074WAT    EPW 6103  -4.251   9.359   3.001 -0.2155  0.5941 -0.0482
26075WAT      O 6104   4.829   7.344   1.820 -0.6590  0.5372  0.7918
26075WAT     H1 6105   4.759   7.403   1.792  0.6184  0.3458 -3.6277
26075WAT     H2 6106   4.887   7.399   1.871 -0.6492  2.6516 -1.3195
26075WAT    EPW 6107   4.827   7.359   1.823 -0.4890  0.7908 -0.0695
26076WAT      O 6108  -4.224   3.708   5.976  0.0619  0.1948 -0.3981
26076WAT     H1 6109  -4.256   3.796   5.993  0.9992  0.6230 -0.8265
26076WAT     H2 6110  -4.143   3.701   6.027  0.1994 -0.2881 -0.6749
26076WAT    EPW 6111  -4.218   3.718   5.985  0.2038  0.1876 -0.4911
26077WAT      O 6112  -1.645   7.222   4.463  0.1349  0.4523 -0.4275
26077WAT     H1 6113  -1.558   7.186   4.451 -0.5110 -0.9467 -1.0962
26077WAT     H2 6114  -1.635   7.315   4.444  1.0376 -0.0734 -2.7700
26077WAT    EPW 6115  -1.632   7.230   4.459  0.1688  0.1984 -0.8245
26078WAT      O 6116   6.418   5.948   3.718  0.4508 -0.8519  0.0203
26078WAT     H1 6117   6.455   5.861   3.701  1.1497 -0.4123 -0.8369
26078WAT     H2 6118   6.362   5.966   3.642  1.9851  0.2894 -0.9376
26078WAT    EPW 6119   6.416   5.939   3.705  0.7453 -0.6435 -0.2191
26079WAT      O 6120  -1.116   9.669   3.673  0.0064 -0.4329 -0.0139
26079WAT     H1 6121  -1.136   9.758   3.644 -2.6139 -1.0048 -0.2783
26079WAT     H2 6122  -1.101   9.677   3.767 -0.0482  0.3143 -0.0618
26079WAT    EPW 6123  -1.117   9.682   3.681 -0.3464 -0.4096 -0.0551
26080WAT      O 6124   4.390   2.733   7.705  0.3652  0.0051 -0.4173
26080WAT     H1 6125   4.444   2.707   7.631  0.9060  0.6951 -0.2737
26080WAT     H2 6126   4.357   2.819   7.682  1.0794  0.5198  0.4220
26080WAT    EPW 6127   4.393   2.741   7.692  0.5310  0.1640 -0.2875
26081WAT      O 6128   3.755   3.959   1.665 -0.1451  0.6723  0.3985
26081WAT     H1 6129   3.704   3.996   1.737 -1.7960  2.7883 -1.6973
26081WAT     H2 6130   3.719   3.872   1.652 -2.7818  1.7980 -0.4635
26081WAT    EPW 6131   3.744   3.953   1.672 -0.7105  1.0998  0.0083
26082WAT      O 6132   4.370   2.643   0.640 -0.5946 -1.2731 -0.0041
26082WAT     H1 6133   4.293   2.605   0.682 -2.0776  1.5209  0.0302
26082WAT     H2 6134   4.338   2.674   0.555  0.4574 -0.0958 -0.0024
26082WAT    EPW 6135   4.355   2.642   0.634 -0.6514 -0.7493  0.0007
26083WAT      O 6136   6.518   3.038   4.018  0.6253  0.8259  0.1918
26083WAT     H1 6137   6.549   3.079   3.937 -1.4472  0.9228 -0.6043
26083WAT     H2 6138   6.461   3.103   4.058  1.6084  0.7697  1.7631
26083WAT    EPW 6139   6.515   3.052   4.013  0.4816  0.8312  0.2942
26084WAT      O 6140  -5.827   7.506   7.060 -0.3169  0.6354 -0.3357
26084WAT     H1 6141  -5.887   7.454   7.114  0.5376  1.3220  1.3743
26084WAT     H2 6142  -5.838   7.595   7.093 -0.4769  1.2705 -2.0193
26084WAT    EPW 6143  -5.837   7.511   7.072 -0.2251  0.8097 -0.3326
26085WAT      O 6144   4.982   4.593   5.599 -0.6352  0.6183  0.2345
26085WAT     H1 6145   5.024   4.677   5.619 -0.2801  0.0439  2.1258
26085WAT     H2 6146   5.053   4.529   5.603 -0.5880  0.3624 -2.8233
26085WAT    EPW 6147   4.997   4.596   5.602 -0.5822  0.5088  0.0808
26086WAT      O 6148  -2.030   2.744   8.647  0.3913 -0.4647  0.4027
26086WAT     H1 6149  -1.995   2.757   8.736 -1.9413 -2.4366  1.7227
26086WAT     H2 6150  -2.053   2.833   8.618  1.6096  0.2762  1.5667
26086WAT    EPW 6151  -2.028   2.758   8.655  0.2444 -0.6270  0.7305
26087WAT      O 6152   1.138   6.560   0.528 -0.5496  0.0358 -0.7669
26087WAT     H1 6153   1.226   6.590   0.548  0.0028 -2.8426  1.8360
26087WAT     H2 6154   1.081   6.607   0.589 -0.8032  1.4598 -2.0510
26087WAT    EPW 6155   1.142   6.570   0.539 -0.5102 -0.1562 -0.5930
26088WAT      O 6156   1.314   0.847   6.041 -0.3257 -0.4541  0.4041
26088WAT     H1 6157   1.318   0.895   5.959 -0.3837  0.0884  0.7130
26088WAT     H2 6158   1.404   0.849   6.075 -0.4253 -0.1212  0.6604
26088WAT    EPW 6159   1.327   0.854   6.035 -0.3465 -0.3386  0.4787
26089WAT      O 6160  -1.506   7.749   8.685  0.5449 -0.1657  0.5859
26089WAT     H1 6161  -1.484   7.817   8.622  0.8066 -2.0661 -1.4748
26089WAT     H2 6162  -1.573   7.789   8.741 -0.5108  1.2492 -1.5905
26089WAT    EPW 6163  -1.512   7.763   8.684  0.4402 -0.2298  0.0272
26090WAT      O 6164   0.357   2.333   3.989  0.1737 -0.6513  0.5328
26090WAT     H1 6165   0.279   2.316   4.043  0.7338  0.0487  1.5959
26090WAT     H2 6166   0.420   2.266   4.017  0.9123  0.4846  1.7154
26090WAT    EPW 6167   0.355   2.322   4.000  0.3450 -0.4091  0.8290
26091WAT      O 6168   4.152   7.182   0.612 -0.3575 -0.2797  0.1882
26091WAT     H1 6169   4.098   7.159   0.536 -0.3595 -0.5937  0.2830
26091WAT     H2 6170   4.241   7.162   0.586 -0.3910 -0.6997  0.3810
26091WAT    EPW 6171   4.157   7.177   0.599 -0.3624 -0.3765  0.2261
26092WAT      O 6172   0.656   7.167   0.415 -0.4637 -0.4906  1.3489
26092WAT     H1 6173   0.619   7.223   0.483  0.0517 -0.8056  1.8966
26092WAT     H2 6174   0.692   7.092   0.462 -0.6585 -1.0212  0.6735
26092WAT    EPW 6175   0.656   7.165   0.430 -0.4214 -0.6022  1.3321
26093WAT      O 6176  -2.320  10.319   8.543 -0.4897 -0.0325 -0.5673
26093WAT     H1 6177  -2.292  10.227   8.543 -0.4226 -0.1298 -3.4794
26093WAT     H2 6178  -2.263  10.360   8.477 -2.4346  1.3919 -1.4282
26093WAT    EPW 6179  -2.309  10.312   8.534 -0.7373  0.1426 -1.0648
26094WAT      O 6180  -4.152   2.171   7.423 -0.2059 -0.2194 -0.3446
26094WAT     H1 6181  -4.236   2.188   7.381 -0.2834 -0.6484 -0.3702
26094WAT     H2 6182  -4.092   2.236   7.387  0.2519 -1.8187 -2.6600
26094WAT    EPW 6183  -4.155   2.182   7.413 -0.1559 -0.4869 -0.6535
26095WAT      O 6184   0.838   9.207   4.666 -0.2100 -0.5975 -0.1075
26095WAT     H1 6185   0.928   9.185   4.642  0.4732  1.3440  0.4524
26095WAT     H2 6186   0.804   9.255   4.590 -0.7725 -1.2745 -0.2942
26095WAT    EPW 6187   0.845   9.211   4.653 -0.1941 -0.4306 -0.0584
26096WAT      O 6188   0.543   5.734   3.572  0.3480  0.2398  0.0440
26096WAT     H1 6189   0.577   5.665   3.515  1.1019  1.4745 -1.0443
26096WAT     H2 6190   0.449   5.739   3.550 -0.2552 -1.9675  1.7970
26096WAT    EPW 6191   0.535   5.726   3.562  0.3679  0.1116  0.1316
26097WAT      O 6192  -1.419   4.683   0.477 -0.0187 -0.3798  0.4541
26097WAT     H1 6193  -1.476   4.718   0.408 -1.1409 -1.6801  0.6660
26097WAT     H2 6194  -1.366   4.616   0.434  0.3134 -0.1820  0.5535
26097WAT    EPW 6195  -1.420   4.679   0.463 -0.1230 -0.5252  0.4951
26098WAT      O 6196   4.450   3.601   2.552 -0.0997 -0.2055 -0.2195
26098WAT     H1 6197   4.494   3.669   2.603 -0.2854 -0.2013 -0.0601
26098WAT     H2 6198   4.382   3.567   2.611 -1.7310  1.2505 -1.1672
26098WAT    EPW 6199   4.447   3.605   2.567 -0.3393 -0.0130 -0.3235
26099WAT      O 6200   2.618   8.738   6.793 -0.7008  0.2266 -0.2466
26099WAT     H1 6201   2.649   8.652   6.764 -0.9366  0.5271 -1.4293
26099WAT     H2 6202   2.675   8.760   6.866  1.3071  0.3374 -1.7475
26099WAT    EPW 6203   2.629   8.730   6.799 -0.4669  0.2804 -0.6008
26100WAT      O 6204   3.557   7.981   5.482  0.8572 -0.0563 -0.1639
26100WAT     H1 6205   3.618   8.054   5.486 -0.8882  1.4730 -0.3909
26100WAT     H2 6206   3.547   7.953   5.573 -0.5295  1.8483  0.3401
26100WAT    EPW 6207   3.563   7.987   5.495  0.4441  0.3965 -0.1273
26101WAT      O 6208  -3.954   7.261   8.627  0.2794  0.3858  0.6158
26101WAT     H1 6209  -3.920   7.347   8.600  0.5672 -0.6618 -2.8868
26101WAT     H2 6210  -4.024   7.243   8.565  0.1730 -1.8719  1.3263
26101WAT    EPW 6211  -3.959   7.270   8.615  0.3033 -0.0503  0.2475
26102WAT      O 6212  -2.137   6.149   6.833  0.7973 -0.2340 -0.6534
26102WAT     H1 6213  -2.137   6.228   6.779 -0.9174  0.2715  0.0338
26102WAT     H2 6214  -2.193   6.087   6.786  1.8760 -0.9569 -1.0258
26102WAT    EPW 6215  -2.144   6.151   6.820  0.7133 -0.2627 -0.6120
26103WAT      O 6216   2.634   4.387   5.556  0.5433 -0.0904  0.5516
26103WAT     H1 6217   2.540   4.391   5.541  0.6753 -1.2220 -0.7725
26103WAT     H2 6218   2.664   4.477   5.542 -0.2853  0.2119  0.6574
26103WAT    EPW 6219   2.626   4.400   5.552  0.4514 -0.1998  0.3908
26104WAT      O 6220  -3.864   8.742   8.246  0.3767 -0.6689 -0.6795
26104WAT     H1 6221  -3.791   8.799   8.270 -0.0543 -0.3581 -0.0717
26104WAT     H2 6222  -3.864   8.743   8.150 -0.3964  1.3962 -0.7041
26104WAT    EPW 6223  -3.854   8.750   8.236  0.2179 -0.3552 -0.6027
26105WAT      O 6224   3.089   2.593   2.728 -0.1983 -0.7888 -0.9206
26105WAT     H1 6225   3.034   2.593   2.806 -0.5540 -1.1629 -1.1665
26105WAT     H2 6226   3.179   2.586   2.762 -0.3683 -1.2659 -0.5573
26105WAT    EPW 6227   3.094   2.592   2.743 -0.2676 -0.9011 -0.9052
26106WAT      O 6228   3.430   0.574   7.835  0.3813  0.4388 -0.3982
26106WAT     H1 6229   3.340   0.566   7.867  0.9642  0.4928  1.3831
26106WAT     H2 6230   3.421   0.581   7.740 -1.4712  0.2030 -0.2852
26106WAT    EPW 6231   3.417   0.574   7.827  0.2139  0.4149 -0.1485
26107WAT      O 6232   0.568   1.004   3.308 -0.2465  0.1046  1.3340
26107WAT     H1 6233   0.503   1.052   3.256  0.2728 -2.8569 -2.5318
26107WAT     H2 6234   0.516   0.940   3.358 -0.6042  1.6755  3.0705
26107WAT    EPW 6235   0.552   1.002   3.308 -0.2252 -0.0788  1.0532
26108WAT      O 6236   1.370   1.672   2.755 -0.4269  0.1775  0.0260
26108WAT     H1 6237   1.275   1.662   2.741 -0.5116  2.6707 -1.6739
26108WAT     H2 6238   1.409   1.655   2.669  0.6047  0.1793  0.4801
26108WAT    EPW 6239   1.362   1.668   2.742 -0.3020  0.5065 -0.1384
26109WAT      O 6240   5.403   4.888   0.436 -0.8288 -0.0882 -0.3313
26109WAT     H1 6241   5.376   4.807   0.393  1.7245 -1.2205  0.0426
26109WAT     H2 6242   5.465   4.929   0.375 -0.6009  0.5776  0.3311
26109WAT    EPW 6243   5.408   4.883   0.422 -0.4618 -0.1497 -0.1946
26110WAT      O 6244  -4.941   9.297   3.759  0.2755  0.2149  0.0468
26110WAT     H1 6245  -5.034   9.312   3.740  0.3115 -0.6253 -0.8467
26110WAT     H2 6246  -4.895   9.360   3.704  0.3308 -1.4234 -1.8842
26110WAT    EPW 6247  -4.947   9.307   3.749  0.2875 -0.1121 -0.3258
26111WAT      O 6248  -1.305   2.708   4.162 -0.5187 -0.5026  0.2329
26111WAT     H1 6249  -1.300   2.733   4.069 -2.8844  1.1679  0.4622
26111WAT     H2 6250  -1.301   2.612   4.161  0.3759 -0.4914 -1.4932
26111WAT    EPW 6251  -1.304   2.699   4.149 -0.7128 -0.2807  0.0355
26112WAT      O 6252   3.392   6.361   3.982  0.1385  0.3245 -0.4752
26112WAT     H1 6253   3.360   6.440   4.026 -1.1302  0.2156 -1.1678
26112WAT     H2 6254   3.479   6.384   3.951 -0.2469  1.4820 -0.7230
26112WAT    EPW 6255   3.399   6.374   3.984 -0.0796  0.4628 -0.5993
26113WAT      O 6256  -1.122   3.847   3.496  0.3921  1.0421  0.0458
26113WAT     H1 6257  -1.211   3.881   3.487  0.9027  1.9219 -2.3966
26113WAT     H2 6258  -1.080   3.907   3.558 -0.9236  0.0347  2.0203
26113WAT    EPW 6259  -1.128   3.860   3.503  0.2859  1.0252 -0.0160
26114WAT      O 6260   0.019   6.026   2.747 -0.1426  0.4107 -0.5327
26114WAT     H1 6261   0.047   6.115   2.727 -1.7576  1.7320  2.4206
26114WAT     H2 6262   0.031   5.978   2.665  2.5808  2.8127 -1.7047
26114WAT    EPW 6263   0.024   6.032   2.733  0.0036  0.9017 -0.2978
26115WAT      O 6264   2.327   9.295   3.712  0.1494 -0.7093 -0.1942
26115WAT     H1 6265   2.291   9.335   3.633  2.4575 -1.1247 -1.5524
26115WAT     H2 6266   2.252   9.255   3.755 -1.2996  0.1618 -1.7811
26115WAT    EPW 6267   2.312   9.295   3.707  0.2626 -0.6495 -0.5827
26116WAT      O 6268   5.682   2.541   1.203 -0.0755 -0.0497 -0.4468
26116WAT     H1 6269   5.651   2.482   1.271  1.7270  0.6632  1.0837
26116WAT     H2 6270   5.611   2.604   1.192 -0.0674  0.3333  1.4286
26116WAT    EPW 6271   5.669   2.541   1.210  0.1633  0.0949  0.0024
26117WAT      O 6272   1.345   2.259   3.903  0.5018  0.1903  0.2795
26117WAT     H1 6273   1.382   2.297   3.823  2.5588  0.3908  1.2512
26117WAT     H2 6274   1.361   2.165   3.893 -2.5896 -0.3167 -1.1249
26117WAT    EPW 6275   1.352   2.251   3.891  0.3654  0.1498  0.2224
26118WAT      O 6276   4.592   7.909   3.914  0.1704  0.1283 -0.3610
26118WAT     H1 6277   4.608   7.881   4.004  1.7847 -1.0530 -0.9756
26118WAT     H2 6278   4.675   7.949   3.886 -0.7533  1.7811 -0.8944
26118WAT    EPW 6279   4.605   7.911   3.922  0.2615  0.1905 -0.5124
26119WAT      O 6280   3.145   1.317   1.787 -0.3828 -0.2555 -0.7080
26119WAT     H1 6281   3.217   1.362   1.831 -1.1905  0.9084 -0.5244
26119WAT     H2 6282   3.129   1.239   1.839  0.6132 -0.4261 -0.6468
26119WAT    EPW 6283   3.152   1.312   1.799 -0.3580 -0.1245 -0.6757
26120WAT      O 6284  -1.837   5.290   4.361  0.0593  0.2197 -0.3796
26120WAT     H1 6285  -1.770   5.225   4.336  0.5402  0.6842 -0.3094
26120WAT     H2 6286  -1.920   5.248   4.339  0.4355  0.3027 -2.0745
26120WAT    EPW 6287  -1.839   5.276   4.355  0.1724  0.2921 -0.5939
26121WAT      O 6288   0.118  10.303   4.007  0.3093  0.4921 -0.4798
26121WAT     H1 6289   0.060  10.229   4.018  0.3418  0.6698  1.0848
26121WAT     H2 6290   0.060  10.380   4.007  0.1740  0.4731 -3.0344
26121WAT    EPW 6291   0.103  10.304   4.009  0.2957  0.5131 -0.6104
26122WAT      O 6292   1.675   7.242   6.587  0.3737 -0.2570  1.0894
26122WAT     H1 6293   1.587   7.253   6.551  0.1561 -0.3188  1.5963
26122WAT     H2 6294   1.664   7.181   6.660  1.1875 -2.0653 -0.2207
26122WAT    EPW 6295   1.662   7.236   6.592  0.4523 -0.5038  0.9835
26123WAT      O 6296   6.358   3.674   2.619 -0.0067 -0.5184  0.2618
26123WAT     H1 6297   6.387   3.730   2.691 -3.4776  0.2634  1.2667
26123WAT     H2 6298   6.410   3.702   2.544  0.2688  2.2062  1.3486
26123WAT    EPW 6299   6.368   3.685   2.619 -0.4282 -0.0559  0.5378
26124WAT      O 6300   0.494   3.043   6.330 -0.5720  0.5591 -0.1407
26124WAT     H1 6301   0.465   3.128   6.365  1.3333  2.5272 -2.9111
26124WAT     H2 6302   0.424   2.983   6.353 -2.7326  3.1798  0.6936
26124WAT    EPW 6303   0.481   3.046   6.338 -0.6057  1.1644 -0.3960
26125WAT      O 6304   2.656   4.190   0.608 -0.2455  0.1289  0.0098
26125WAT     H1 6305   2.645   4.197   0.513  1.8407  1.1923 -0.1913
26125WAT     H2 6306   2.736   4.139   0.619 -0.3905  0.1365  1.2199
26125WAT    EPW 6307   2.665   4.184   0.597  0.0105  0.2701  0.1429
26126WAT      O 6308   4.506   2.194   1.554 -0.1568  0.5511  1.1503
26126WAT     H1 6309   4.421   2.150   1.561 -0.0920  0.3257  0.5643
26126WAT     H2 6310   4.510   2.224   1.463  0.5067  0.3312  1.1060
26126WAT    EPW 6311   4.495   2.192   1.543 -0.0606  0.4923  1.0672
26127WAT      O 6312  -1.324   1.924   8.421  0.6056  0.3673  0.1207
26127WAT     H1 6313  -1.326   1.854   8.487  1.2147  0.6528  0.4460
26127WAT     H2 6314  -1.256   1.984   8.452 -0.9810  1.9495  0.7217
26127WAT    EPW 6315  -1.316   1.922   8.434  0.4767  0.6137  0.2427
26128WAT      O 6316   3.117   1.363   5.561  0.2720 -0.4730  0.0223
26128WAT     H1 6317   3.106   1.270   5.538 -1.1812 -0.3494  0.0961
26128WAT     H2 6318   3.071   1.371   5.645  1.0931  0.1558  0.4178
26128WAT    EPW 6319   3.109   1.352   5.569  0.1886 -0.3738  0.0839
26129WAT      O 6320   4.302   0.208   1.523  0.0068  0.0268 -0.2767
26129WAT     H1 6321   4.393   0.178   1.535  0.1906 -0.3051 -2.1414
26129WAT     H2 6322   4.309   0.283   1.464 -0.6961  2.2058  2.2256
26129WAT    EPW 6323   4.315   0.214   1.517 -0.0618  0.2705 -0.1926
26130WAT      O 6324  -1.450   2.572   7.358 -0.2755 -0.0122  0.7341
26130WAT     H1 6325  -1.519   2.638   7.368 -0.0464 -0.0213  3.0337
26130WAT     H2 6326  -1.399   2.578   7.439  0.3591 -2.3138  0.5863
26130WAT    EPW 6327  -1.453   2.581   7.370 -0.1615 -0.3169  1.0178
26131WAT      O 6328  -3.118   8.293   4.211 -0.4161 -0.9014 -0.1065
26131WAT     H1 6329  -3.206   8.313   4.178  0.3895 -2.1568 -3.3546
26131WAT     H2 6330  -3.059   8.320   4.141  1.8183 -0.5444  1.7891
26131WAT    EPW 6331  -3.122   8.300   4.197 -0.0151 -1.0195 -0.2849
26132WAT      O 6332   3.581   9.548   2.984 -0.0728 -0.3582  0.2688
26132WAT     H1 6333   3.652   9.610   3.002 -1.4600  0.8865  1.8076
26132WAT     H2 6334   3.539   9.534   3.069 -1.9288 -0.7308 -0.6544
26132WAT    EPW 6335   3.585   9.554   2.998 -0.5006 -0.2427  0.3500
26133WAT      O 6336   6.270   1.688   3.296 -0.6392  0.2703  0.9279
26133WAT     H1 6337   6.364   1.687   3.313 -0.3869 -2.2751 -0.1300
26133WAT     H2 6338   6.262   1.706   3.203 -1.0724 -0.9124  0.7154
26133WAT    EPW 6339   6.281   1.690   3.286 -0.6633 -0.2213  0.7602
26134WAT      O 6340   2.190   3.203   5.655  0.1981  0.0491 -0.5412
26134WAT     H1 6341   2.249   3.278   5.641 -0.8990  1.2845  0.9975
26134WAT     H2 6342   2.102   3.241   5.652 -0.3446 -0.8664  1.7462
26134WAT    EPW 6343   2.186   3.218   5.653 -0.0181  0.0913 -0.0365
26135WAT      O 6344  -2.741   9.126   2.297 -0.0196  0.3895 -0.3192
26135WAT     H1 6345  -2.773   9.043   2.261 -1.3667  0.9551 -0.5022
26135WAT     H2 6346  -2.801   9.146   2.368  0.5822  0.9832  0.0351
26135WAT    EPW 6347  -2.753   9.118   2.301 -0.1179  0.5422 -0.2966
26136WAT      O 6348   0.848   7.402   8.214 -0.1957  0.4544 -0.0773
26136WAT     H1 6349   0.925   7.347   8.225  0.4562  1.2142 -0.6732
26136WAT     H2 6350   0.828   7.433   8.302 -0.6802 -0.8536  0.2860
26136WAT    EPW 6351   0.856   7.399   8.227 -0.1736  0.3819 -0.1078
26137WAT      O 6352   2.720   5.406   4.947  0.9633 -0.3370 -0.3998
26137WAT     H1 6353   2.627   5.397   4.964  0.1172  3.3957 -2.0396
26137WAT     H2 6354   2.737   5.345   4.875 -0.7512  0.3003 -1.4162
26137WAT    EPW 6355   2.710   5.397   4.939  0.6255  0.2394 -0.7503
26138WAT      O 6356   1.551   6.536   1.128  0.6011 -0.0687  0.3390
26138WAT     H1 6357   1.611   6.505   1.196  4.4572  0.5752 -2.4491
26138WAT     H2 6358   1.509   6.456   1.095  1.3425 -0.8129  1.1515
26138WAT    EPW 6359   1.553   6.521   1.133  1.2075 -0.0820  0.0784
26139WAT      O 6360  -2.713   2.490   7.701  0.5304  0.1207  0.7158
26139WAT     H1 6361  -2.691   2.486   7.608 -0.5046  1.6925  0.3609
26139WAT     H2 6362  -2.794   2.542   7.704  0.5472  0.0993  2.4920
26139WAT    EPW 6363  -2.721   2.497   7.689  0.3961  0.3252  0.9031
26140WAT      O 6364   0.847   8.413   8.675  0.9573  1.1616 -0.2105
26140WAT     H1 6365   0.860   8.411   8.580  1.1598 -0.0198 -0.1743
26140WAT     H2 6366   0.791   8.489   8.690  0.8038  1.2770 -1.2928
26140WAT    EPW 6367   0.841   8.423   8.665  0.9637  1.0209 -0.3486
26141WAT      O 6368   1.077   7.009   2.926  0.2897 -0.1586  0.2014
26141WAT     H1 6369   1.024   7.086   2.946 -3.1617 -2.5857  1.2666
26141WAT     H2 6370   1.156   7.044   2.885 -0.8200  3.9190  1.1422
26141WAT    EPW 6371   1.081   7.024   2.924 -0.3119  0.0591  0.4661
26142WAT      O 6372   8.127   1.887   0.838  0.2849  0.2023 -0.5080
26142WAT     H1 6373   8.187   1.961   0.850  0.2113  0.1191  0.4194
26142WAT     H2 6374   8.182   1.818   0.799  0.6893  0.2630 -0.0521
26142WAT    EPW 6375   8.143   1.888   0.834  0.3290  0.1993 -0.3255
26143WAT      O 6376   3.353   9.538   3.981 -0.6081  0.7072 -0.1490
26143WAT     H1 6377   3.320   9.449   3.973 -1.0252  0.8624 -0.1758
26143WAT     H2 6378   3.275   9.592   3.989 -0.4850  1.3518 -2.6184
26143WAT    EPW 6379   3.339   9.533   3.981 -0.6468  0.8130 -0.4783
26144WAT      O 6380  -0.885   3.390   6.143 -0.1001 -0.3924  0.1164
26144WAT     H1 6381  -0.857   3.299   6.139  0.1334 -0.2794 -2.8265
26144WAT     H2 6382  -0.807   3.439   6.168  1.0556 -0.6392 -2.6469
26144WAT    EPW 6383  -0.871   3.385   6.146  0.0831 -0.4100 -0.6363
26145WAT      O 6384  -0.467   4.943   7.859 -0.4897  0.2258 -0.4023
26145WAT     H1 6385  -0.557   4.911   7.859 -0.9494  1.4785 -0.5744
26145WAT     H2 6386  -0.437   4.932   7.949 -1.3476  1.2405  0.0196
26145WAT    EPW 6387  -0.475   4.937   7.871 -0.6635  0.5250 -0.3693
26146WAT      O 6388   1.329   9.235   7.203  0.2149 -0.5440  0.4967
26146WAT     H1 6389   1.321   9.251   7.297  0.7513  1.1744  0.2925
26146WAT     H2 6390   1.278   9.306   7.162  0.0434 -1.2273 -0.5111
26146WAT    EPW 6391   1.321   9.247   7.210  0.2631 -0.4077  0.3366
26147WAT      O 6392  -5.958   3.023   8.859 -1.4036 -0.1425  0.1785
26147WAT     H1 6393  -5.932   3.053   8.946 -1.0996 -2.4562  0.9370
26147WAT     H2 6394  -5.875   3.005   8.814 -1.5537 -2.0777  0.6033
26147WAT    EPW 6395  -5.944   3.025   8.865 -1.3833 -0.7029  0.3343
26148WAT      O 6396  -6.469   7.052   7.617  0.0377  0.5721  0.0971
26148WAT     H1 6397  -6.387   7.100   7.626  0.3321  0.0704  0.1149
26148WAT     H2 6398  -6.444   6.968   7.579 -0.4473  0.3410  0.2771
26148WAT    EPW 6399  -6.455   7.047   7.613  0.0124  0.4756  0.1233
26149WAT      O 6400  -3.044   9.770   0.199  0.3577  0.0786 -0.3061
26149WAT     H1 6401  -3.016   9.802   0.114  1.2755  0.3249  0.0709
26149WAT     H2 6402  -3.053   9.849   0.252  3.5299 -0.1982  0.9018
26149WAT    EPW 6403  -3.041   9.785   0.195  0.8972  0.0749 -0.0971
26150WAT      O 6404  -2.893   7.480   2.889 -0.0754 -0.4147  0.7731
26150WAT     H1 6405  -2.913   7.387   2.884 -0.8998 -0.2446  0.6563
26150WAT     H2 6406  -2.829   7.488   2.960 -0.9929 -0.9287  1.6908
26150WAT    EPW 6407  -2.887   7.469   2.898 -0.3052 -0.4599  0.8787
26151WAT      O 6408  -0.523   2.121   4.381  0.5742 -0.2305  0.0944
26151WAT     H1 6409  -0.505   2.205   4.337  0.0081 -0.4371 -0.5525
26151WAT     H2 6410  -0.517   2.056   4.311  0.1062 -0.6254  0.4132
26151WAT    EPW 6411  -0.520   2.124   4.366  0.4378 -0.3098  0.0510
26152WAT      O 6412  -0.798   0.476   8.333 -0.2591 -0.4770  0.5358
26152WAT     H1 6413  -0.886   0.440   8.347  0.1508 -3.8060 -3.3131
26152WAT     H2 6414  -0.741   0.419   8.385 -0.2174  0.8643  2.0095
26152WAT    EPW 6415  -0.802   0.464   8.342 -0.1996 -0.7392  0.2227
26153WAT      O 6416   4.063   7.228   5.967  0.2093 -0.2200 -0.5481
26153WAT     H1 6417   3.995   7.270   5.914 -0.3983  0.7484  0.9256
26153WAT     H2 6418   4.143   7.276   5.945 -0.2103  0.8029  0.0400
26153WAT    EPW 6419   4.064   7.240   5.958  0.0739  0.0427 -0.2761
26154WAT      O 6420   5.564   2.597   7.008 -0.0503 -0.2800 -0.1202
26154WAT     H1 6421   5.621   2.581   7.083 -0.5068 -0.5931  0.1653
26154WAT     H2 6422   5.483   2.549   7.029 -0.4666  0.2694 -0.4577
26154WAT    EPW 6423   5.561   2.588   7.021 -0.1655 -0.2488 -0.1271
26155WAT      O 6424   2.296   4.502   8.752 -0.3304  0.3846  0.4736
26155WAT     H1 6425   2.387   4.509   8.783 -0.1557  1.3636 -0.2005
26155WAT     H2 6426   2.303   4.461   8.666 -0.6981 -1.1085  1.1313
26155WAT    EPW 6427   2.309   4.498   8.745 -0.3560  0.3169  0.4716
26156WAT      O 6428  -0.677   1.338   5.973 -0.2609 -0.0070 -0.0472
26156WAT     H1 6429  -0.625   1.309   5.898 -0.2699  1.5033 -0.6841
26156WAT     H2 6430  -0.767   1.317   5.950 -0.0043 -2.5205  1.0056
26156WAT    EPW 6431  -0.682   1.332   5.960 -0.2282 -0.1393  0.0076
26157WAT      O 6432   0.990   2.625   4.461  0.8374  0.4037 -0.4313
26157WAT     H1 6433   1.075   2.632   4.416  0.4052 -0.4979 -1.4297
26157WAT     H2 6434   1.002   2.555   4.524  0.6892 -0.1088 -0.9592
26157WAT    EPW 6435   1.003   2.617   4.463  0.7608  0.2171 -0.6325
26158WAT      O 6436   0.214   1.714   5.057  0.4064 -0.3889  0.5089
26158WAT     H1 6437   0.180   1.803   5.054 -0.2114 -0.6262 -0.0053
26158WAT     H2 6438   0.228   1.696   5.150 -0.3595 -0.0790  0.6885
26158WAT    EPW 6439   0.211   1.723   5.069  0.2239 -0.3793  0.4647
26159WAT      O 6440   3.726   0.990   2.412 -0.3650  0.6527  0.7647
26159WAT     H1 6441   3.751   0.899   2.429  1.3115  1.4246  2.8856
26159WAT     H2 6442   3.655   1.007   2.474 -1.3246  0.5298 -0.2888
26159WAT    EPW 6443   3.720   0.980   2.423 -0.2705  0.7384  0.9055
26160WAT      O 6444  -0.888   2.898   5.408  0.1315  0.5800 -0.6519
26160WAT     H1 6445  -0.976   2.917   5.441  0.5997  2.7131 -0.4427
26160WAT     H2 6446  -0.831   2.904   5.485  0.6196  0.5500 -0.9991
26160WAT    EPW 6447  -0.892   2.902   5.422  0.2576  0.8575 -0.6702
26161WAT      O 6448   1.246   9.933   3.913 -0.6888  0.3098 -0.5570
26161WAT     H1 6449   1.205   9.898   3.833 -1.9962  1.8793 -0.6321
26161WAT     H2 6450   1.191  10.007   3.937 -0.7654 -0.5354  2.2279
26161WAT    EPW 6451   1.233   9.938   3.906 -0.8714  0.4053 -0.1996
26162WAT      O 6452   0.935   8.811   5.031  1.1587  0.8988 -0.1300
26162WAT     H1 6453   0.983   8.838   4.953  0.6045 -1.8668 -1.5822
26162WAT     H2 6454   1.002   8.774   5.088  1.2628  0.5548 -0.4683
26162WAT    EPW 6455   0.950   8.809   5.028  1.0994  0.4888 -0.3660
26163WAT      O 6456  -8.220  10.154   8.941  0.3953  0.9492 -0.4150
26163WAT     H1 6457  -8.137  10.200   8.933  1.2296 -0.4281 -0.0042
26163WAT     H2 6458  -8.264  10.197   9.015  1.2204  0.9913  0.0561
26163WAT    EPW 6459  -8.215  10.165   8.950  0.6142  0.7734 -0.2990
26164WAT      O 6460  -1.978   9.220   0.542  0.6837  0.3695 -0.3676
26164WAT     H1 6461  -1.917   9.192   0.474  0.6370 -1.2406  0.2005
26164WAT     H2 6462  -2.028   9.291   0.503 -2.6726 -3.4321 -3.8844
26164WAT    EPW 6463  -1.976   9.226   0.528  0.2348 -0.3443 -0.7565
26165WAT      O 6464   2.079   3.466   3.761 -0.9019  0.1787  0.1323
26165WAT     H1 6465   2.160   3.451   3.810 -0.8643  3.0038  1.0804
26165WAT     H2 6466   2.020   3.397   3.792  0.6763 -1.1336  0.3876
26165WAT    EPW 6467   2.082   3.455   3.772 -0.6888  0.3783  0.2910
26166WAT      O 6468  -5.358   7.449   8.244 -0.1275  0.5131 -0.5426
26166WAT     H1 6469  -5.277   7.499   8.257 -0.5029  0.8639  0.5083
26166WAT     H2 6470  -5.375   7.407   8.328 -0.4389 -0.4748 -1.0860
26166WAT    EPW 6471  -5.350   7.450   8.257 -0.2182  0.4289 -0.4754
26167WAT      O 6472   4.700   0.384   8.141  0.5427  0.4757  1.4769
26167WAT     H1 6473   4.689   0.313   8.077  2.5015  2.2333 -1.0063
26167WAT     H2 6474   4.787   0.370   8.177  1.7520  2.4944 -0.4086
26167WAT    EPW 6475   4.710   0.373   8.137  0.9606  0.9738  0.9007
26168WAT      O 6476  -5.216   9.894   8.017  0.2459 -0.0863  0.0726
26168WAT     H1 6477  -5.257   9.863   7.936  0.9969 -0.4239 -0.1915
26168WAT     H2 6478  -5.130   9.851   8.018  0.3588  0.1443  0.9039
26168WAT    EPW 6479  -5.210   9.884   8.007  0.3600 -0.1001  0.1473
26169WAT      O 6480   7.019   1.761   2.464  0.8471 -0.3959 -0.7087
26169WAT     H1 6481   6.969   1.687   2.498 -0.4621  1.0734  0.7516
26169WAT     H2 6482   7.045   1.734   2.375  1.0872 -2.8592  0.0415
26169WAT    EPW 6483   7.016   1.747   2.456  0.7062 -0.5270 -0.4171
26170WAT      O 6484   5.657   2.486   5.856  0.5001  0.7910 -0.3490
26170WAT     H1 6485   5.738   2.463   5.903  0.0458  0.5157  0.3224
26170WAT     H2 6486   5.668   2.449   5.769 -0.2119 -2.1338  0.6833
26170WAT    EPW 6487   5.669   2.478   5.851  0.3464  0.3688 -0.1242
26171WAT      O 6488   3.875   4.321   1.370 -0.1176 -0.2072  0.6685
26171WAT     H1 6489   3.962   4.359   1.361 -0.2910 -0.2044 -1.3819
26171WAT     H2 6490   3.885   4.230   1.343 -1.3010  0.6010 -3.1920
26171WAT    EPW 6491   3.887   4.314   1.365 -0.2965 -0.1001 -0.1112
26172WAT      O 6492  -0.117   4.332   3.119  0.7329  0.2185 -0.2644
26172WAT     H1 6493  -0.073   4.348   3.203 -0.7311  1.5117  0.3085
26172WAT     H2 6494  -0.198   4.288   3.143 -0.5413  2.1783 -0.7641
26172WAT    EPW 6495  -0.122   4.328   3.134  0.3717  0.6478 -0.2548
26173WAT      O 6496   6.459   5.098   0.853  0.0554 -0.4395  0.3138
26173WAT     H1 6497   6.440   5.030   0.919 -2.0098  0.4689  0.7394
26173WAT     H2 6498   6.548   5.127   0.874  0.7372 -2.4937  0.5443
26173WAT    EPW 6499   6.468   5.093   0.865 -0.1271 -0.5906  0.4003
26174WAT      O 6500  -1.924   9.884   2.634  0.0401 -0.5566 -0.2973
26174WAT     H1 6501  -1.842   9.836   2.626  0.0077 -0.2808 -2.9572
26174WAT     H2 6502  -1.992   9.816   2.634  0.1579 -0.6750 -0.5388
26174WAT    EPW 6503  -1.922   9.868   2.633  0.0514 -0.5355 -0.6800
26175WAT      O 6504  -2.981   8.734   5.219 -0.0703 -0.8712 -0.2497
26175WAT     H1 6505  -3.075   8.716   5.216 -0.3000  0.0517  0.9062
26175WAT     H2 6506  -2.954   8.708   5.307  0.9655 -1.9874 -0.8541
26175WAT    EPW 6507  -2.990   8.728   5.230  0.0359 -0.8969 -0.1769
26176WAT      O 6508  -2.028   9.390   8.824 -0.2793 -0.0791 -0.2151
26176WAT     H1 6509  -2.100   9.336   8.855 -0.4021 -0.1840 -0.6733
26176WAT     H2 6510  -2.043   9.475   8.865 -0.5952 -0.1376 -0.2079
26176WAT    EPW 6511  -2.039   9.394   8.833 -0.3372 -0.1001 -0.2742
26177WAT      O 6512  -3.926   7.458   8.395  0.6025  0.9453  0.3875
26177WAT     H1 6513  -4.003   7.404   8.379 -0.2330  1.8333  1.3169
26177WAT     H2 6514  -3.945   7.540   8.349  0.8871  1.2590  0.8269
26177WAT    EPW 6515  -3.939   7.462   8.387  0.5299  1.1039  0.5684
26178WAT      O 6516   2.454   3.128   1.963  0.0316  0.5528 -0.2233
26178WAT     H1 6517   2.546   3.148   1.943 -0.1298  1.4786 -0.1171
26178WAT     H2 6518   2.444   3.153   2.055  0.0231 -0.8985  0.1912
26178WAT    EPW 6519   2.465   3.134   1.973  0.0093  0.4835 -0.1547
26179WAT      O 6520  -2.042   3.503   7.598  0.3361 -0.1390 -0.2455
26179WAT     H1 6521  -2.018   3.595   7.612 -1.2267  0.0469  1.6538
26179WAT     H2 6522  -1.966   3.454   7.630  0.8034  0.4704 -0.4020
26179WAT    EPW 6523  -2.029   3.509   7.604  0.1917 -0.0341 -0.0157
26180WAT      O 6524   1.544   1.996   7.224  0.5989 -0.1238  0.0098
26180WAT     H1 6525   1.537   2.076   7.278  1.6945  0.9022 -1.3046
26180WAT     H2 6526   1.638   1.981   7.215  0.4363 -0.5199 -1.2339
26180WAT    EPW 6527   1.555   2.005   7.230  0.7219 -0.0408 -0.3276
26181WAT      O 6528   2.468   6.062   2.980 -0.4974 -0.3053  0.1389
26181WAT     H1 6529   2.516   5.985   3.010 -0.1486 -0.5836 -1.0670
26181WAT     H2 6530   2.379   6.029   2.964 -0.5475 -0.2754  0.3492
26181WAT    EPW 6531   2.462   6.047   2.982 -0.4581 -0.3378  0.0075
26182WAT      O 6532  -3.204   7.199   8.403 -0.4043  0.6611  0.4262
26182WAT     H1 6533  -3.238   7.111   8.419  0.9063  0.0559  0.0127
26182WAT     H2 6534  -3.209   7.243   8.488  3.9003 -1.5929  2.1730
26182WAT    EPW 6535  -3.209   7.193   8.416  0.3362  0.2840  0.6018
26183WAT      O 6536  -2.351   3.954   4.826  0.4128  0.6518  0.1194
26183WAT     H1 6537  -2.317   3.941   4.738  0.2849 -1.4711  0.3382
26183WAT     H2 6538  -2.396   4.039   4.822  2.0896  1.5349 -1.2773
26183WAT    EPW 6539  -2.353   3.964   4.814  0.6171  0.4883 -0.0360
26184WAT      O 6540   1.028   8.256   2.612  0.1340 -0.0841  0.4936
26184WAT     H1 6541   0.938   8.223   2.618  0.4613 -1.2987 -0.8886
26184WAT     H2 6542   1.031   8.302   2.528  0.0900  2.3608  1.7386
26184WAT    EPW 6543   1.016   8.258   2.602  0.1713  0.0782  0.4755
26185WAT      O 6544   2.068   8.342   6.048 -0.1007  0.9180  0.1707
26185WAT     H1 6545   2.056   8.387   6.132  1.0875  1.3567  0.1261
26185WAT     H2 6546   2.013   8.264   6.054 -1.1273  1.6694  0.7966
26185WAT    EPW 6547   2.059   8.338   6.060 -0.0794  1.0748  0.2472
26186WAT      O 6548   0.859   9.889   1.249  0.7622  0.0235 -0.0162
26186WAT     H1 6549   0.864   9.984   1.238 -0.4352 -0.2209 -4.4865
26186WAT     H2 6550   0.945   9.857   1.221  0.5417 -0.2704 -0.3762
26186WAT    EPW 6551   0.871   9.897   1.244  0.5752 -0.0477 -0.6533
26187WAT      O 6552   3.989   8.941   4.281  0.2623  0.2713  0.4544
26187WAT     H1 6553   4.062   8.929   4.222  1.8892  0.2447  2.3561
26187WAT     H2 6554   4.002   8.876   4.350 -0.3208  1.6718  1.9572
26187WAT    EPW 6555   4.000   8.931   4.283  0.4001  0.4525  0.9034
26188WAT      O 6556   3.714   2.332   1.674 -0.4051  0.3482  0.4012
26188WAT     H1 6557   3.760   2.260   1.630 -2.3745 -0.7196 -0.0233
26188WAT     H2 6558   3.784   2.387   1.710  1.1886 -0.5805 -1.1583
26188WAT    EPW 6559   3.729   2.329   1.673 -0.4547  0.0849  0.1395
26189WAT      O 6560  -1.110   6.569   5.583  0.3369 -0.3259 -0.3353
26189WAT     H1 6561  -1.046   6.535   5.521  0.0203 -0.1546 -0.7663
26189WAT     H2 6562  -1.146   6.492   5.625  1.7988 -0.3596  0.9146
26189WAT    EPW 6563  -1.107   6.555   5.580  0.4879 -0.3078 -0.2272
26190WAT      O 6564   8.311   3.619   1.903  0.3135 -0.7318  0.2286
26190WAT     H1 6565   8.228   3.578   1.879 -0.6427  1.8974 -1.3584
26190WAT     H2 6566   8.366   3.610   1.824  0.3091  0.4452  0.0852
26190WAT    EPW 6567   8.307   3.612   1.889  0.1869 -0.2298  0.0003
26191WAT      O 6568   1.767   1.638   2.357 -0.4897 -0.4532 -0.1312
26191WAT     H1 6569   1.745   1.731   2.356 -0.2769 -0.3490  1.6632
26191WAT     H2 6570   1.713   1.600   2.287 -0.6310  0.9892 -0.8467
26191WAT    EPW 6571   1.757   1.645   2.348 -0.4803 -0.2492  0.0111
26192WAT      O 6572   4.243   3.740   0.482  0.1568 -0.1717  0.0835
26192WAT     H1 6573   4.168   3.792   0.454  0.0223 -0.6945 -0.5501
26192WAT     H2 6574   4.243   3.747   0.577 -3.3243 -3.6430  0.5887
26192WAT    EPW 6575   4.233   3.748   0.491 -0.3202 -0.6983  0.0666
26193WAT      O 6576  -0.112   0.201   4.932 -0.2096 -0.3601 -0.0110
26193WAT     H1 6577  -0.203   0.175   4.947  0.7254 -2.5490  2.8076
26193WAT     H2 6578  -0.073   0.202   5.020  2.5430  0.2630 -1.1440
26193WAT    EPW 6579  -0.119   0.198   4.946  0.2768 -0.5666  0.2115
26194WAT      O 6580  -1.264   2.842   5.760 -0.4426  0.3236  0.5377
26194WAT     H1 6581  -1.331   2.831   5.828  0.5038 -1.4131  1.2512
26194WAT     H2 6582  -1.281   2.772   5.697  0.4765  0.0596  0.5613
26194WAT    EPW 6583  -1.275   2.831   5.761 -0.1966  0.0596  0.6349
26195WAT      O 6584  -1.868   3.199   3.732  0.4374 -0.4540 -0.5786
26195WAT     H1 6585  -1.875   3.287   3.771  1.2240 -0.7392  0.2450
26195WAT     H2 6586  -1.900   3.210   3.643  0.2216  0.6012 -0.3908
26195WAT    EPW 6587  -1.873   3.212   3.726  0.5127 -0.3525 -0.4452
26196WAT      O 6588  -1.875   0.866   6.902  0.3528  1.0844  0.0667
26196WAT     H1 6589  -1.822   0.944   6.884  1.5074  0.0388 -1.3293
26196WAT     H2 6590  -1.843   0.835   6.986  1.4361  0.9298 -0.3802
26196WAT    EPW 6591  -1.863   0.872   6.910  0.6480  0.9261 -0.1762
26197WAT      O 6592   5.241   4.023   4.025 -0.5351  0.3446  0.3294
26197WAT     H1 6593   5.148   4.030   4.005 -0.7640  3.0002  1.7875
26197WAT     H2 6594   5.284   4.019   3.940 -1.8399  3.0072 -0.5726
26197WAT    EPW 6595   5.235   4.024   4.011 -0.7372  1.0462  0.4027
26198WAT      O 6596   5.772   6.950   1.810  0.2647 -0.5938  0.4245
26198WAT     H1 6597   5.807   6.874   1.764 -0.9753 -0.4818 -0.7726
26198WAT     H2 6598   5.680   6.929   1.823  0.4870 -0.4485  2.5763
26198WAT    EPW 6599   5.765   6.937   1.806  0.1304 -0.5598  0.5504
26199WAT      O 6600   4.874   4.737   5.912 -0.6878  0.1262 -0.6424
26199WAT     H1 6601   4.801   4.713   5.855 -1.4723  0.1014  0.3556
26199WAT     H2 6602   4.844   4.816   5.957  0.9851  1.7976 -2.2406
26199WAT    EPW 6603   4.861   4.744   5.910 -0.5705  0.3433 -0.7215
26200WAT      O 6604   5.038   0.142   2.565  0.1135 -0.6020  0.5223
26200WAT     H1 6605   5.014   0.136   2.472  0.0413 -0.1255  0.5073
26200WAT     H2 6606   5.050   0.235   2.580 -0.8423 -0.5853  1.2350
26200WAT    EPW 6607   5.036   0.153   2.554 -0.0222 -0.5370  0.6144
26201WAT      O 6608   4.404   4.977   3.639  0.4077  0.1882  0.5300
26201WAT     H1 6609   4.357   4.902   3.602  1.7545 -0.9285  0.9843
26201WAT     H2 6610   4.428   4.949   3.727  1.6190  0.8307  0.4343
26201WAT    EPW 6611   4.401   4.963   3.646  0.7453  0.1256  0.5772
26202WAT      O 6612   2.222   3.679   3.199  0.0053 -0.0581  0.7955
26202WAT     H1 6613   2.259   3.614   3.140  1.5398  0.7431  0.8347
26202WAT     H2 6614   2.248   3.651   3.286  1.4503  1.0527  0.7497
26202WAT    EPW 6615   2.230   3.667   3.202  0.3982  0.1941  0.7946
26203WAT      O 6616   3.488   3.139   2.631 -0.4502 -0.3206 -0.3385
26203WAT     H1 6617   3.584   3.135   2.631 -0.4626 -0.8856 -1.0136
26203WAT     H2 6618   3.466   3.186   2.711  0.4401  1.0212 -0.8362
26203WAT    EPW 6619   3.498   3.145   2.641 -0.3344 -0.2182 -0.4932
26204WAT      O 6620  -1.636   7.188   0.384 -0.6517 -0.2371 -0.6142
26204WAT     H1 6621  -1.692   7.112   0.365  0.1385 -0.3318 -2.8152
26204WAT     H2 6622  -1.566   7.183   0.319  0.7825  1.0414  0.7669
26204WAT    EPW 6623  -1.634   7.177   0.373 -0.3583 -0.0811 -0.7223
26205WAT      O 6624  -4.073   8.167   6.949  0.2108 -0.3734  0.0681
26205WAT     H1 6625  -4.025   8.101   6.999  0.4498 -0.4117 -0.2113
26205WAT     H2 6626  -4.109   8.226   7.015  1.9140  0.5437  0.2153
26205WAT    EPW 6627  -4.071   8.166   6.964  0.4668 -0.2575  0.0508
26206WAT      O 6628   3.571   3.280   7.418 -0.1062 -0.9851  0.0778
26206WAT     H1 6629   3.578   3.356   7.476 -1.1079 -0.5059 -0.3866
26206WAT     H2 6630   3.623   3.303   7.341 -0.3910 -0.7744 -0.0531
26206WAT    EPW 6631   3.578   3.293   7.416 -0.2759 -0.8942 -0.0007
26207WAT      O 6632  -0.275   4.264   5.508 -0.4821 -0.1978  0.6670
26207WAT     H1 6633  -0.228   4.314   5.575  0.9490  1.9583 -1.7406
26207WAT     H2 6634  -0.215   4.193   5.484  1.3070  1.8560 -1.5572
26207WAT    EPW 6635  -0.261   4.262   5.514 -0.0574  0.3576  0.0560
26208WAT      O 6636  -2.747   8.958   7.759  0.0911  0.6526  0.4713
26208WAT     H1 6637  -2.682   8.895   7.728 -1.1617 -1.6376  2.1637
26208WAT     H2 6638  -2.712   8.990   7.842 -0.1157  0.8042  0.5007
26208WAT    EPW 6639  -2.734   8.954   7.766 -0.1014  0.3710  0.6983
26209WAT      O 6640   1.929   6.940   5.216  0.4590 -0.1890  0.5821
26209WAT     H1 6641   1.873   6.869   5.246 -2.5453  2.0613  0.7397
26209WAT     H2 6642   1.918   6.941   5.121  0.6972 -0.0584  0.5543
26209WAT    EPW 6643   1.920   6.931   5.207  0.0942  0.1252  0.5994
26210WAT      O 6644   2.088   3.808   1.567 -0.0947 -0.0903  0.1185
26210WAT     H1 6645   2.163   3.780   1.515 -1.1757  2.2442 -2.9851
26210WAT     H2 6646   2.117   3.890   1.607 -0.8651  0.7087 -0.9168
26210WAT    EPW 6647   2.102   3.815   1.566 -0.3390  0.3231 -0.4274
26211WAT      O 6648  -1.606   9.062   5.471  0.1023 -0.3313 -0.0459
26211WAT     H1 6649  -1.527   9.079   5.421 -1.4304 -0.3118 -2.6240
26211WAT     H2 6650  -1.634   8.974   5.443 -1.9852  0.5688 -1.0035
26211WAT    EPW 6651  -1.599   9.052   5.461 -0.3753 -0.2103 -0.5121
26212WAT      O 6652   8.440   1.279   1.231  0.1304 -0.1150 -0.0401
26212WAT     H1 6653   8.487   1.195   1.234  0.1305 -0.1123  0.0243
26212WAT     H2 6654   8.483   1.333   1.298 -2.6110 -1.4643  3.0995
26212WAT    EPW 6655   8.452   1.275   1.240 -0.2313 -0.2925  0.3825
26213WAT      O 6656   2.771   4.043   7.478 -0.1772  0.4115 -0.0429
26213WAT     H1 6657   2.861   4.024   7.507  0.3807 -0.3622 -2.0972
26213WAT     H2 6658   2.760   4.137   7.491  1.3038  0.6930 -0.6873
26213WAT    EPW 6659   2.781   4.053   7.484  0.0918  0.3467 -0.3989
26214WAT      O 6660   1.390   7.940   2.284  0.0950  0.2425 -0.5425
26214WAT     H1 6661   1.465   7.934   2.342 -0.4186 -0.7720  0.0482
26214WAT     H2 6662   1.382   7.852   2.246 -1.3772  0.0376  0.1777
26214WAT    EPW 6663   1.399   7.928   2.286 -0.1668  0.0815 -0.3695
26215WAT      O 6664   1.770   4.893   3.490  0.2618  0.2198  0.7064
26215WAT     H1 6665   1.858   4.886   3.527  0.6346  2.0093  0.2805
26215WAT     H2 6666   1.725   4.813   3.518  1.9488 -0.6345  1.1020
26215WAT    EPW 6667   1.775   4.882   3.499  0.5335  0.3431  0.7024
26216WAT      O 6668  -2.201   3.754   4.258 -0.5258  0.1777  0.4555
26216WAT     H1 6669  -2.183   3.836   4.211  0.8230 -0.3422  0.0377
26216WAT     H2 6670  -2.265   3.709   4.204 -0.3628  0.4177  0.0604
26216WAT    EPW 6671  -2.207   3.759   4.245 -0.3263  0.1407  0.3481
26217WAT      O 6672   3.129   0.223   3.035  0.3097 -0.2228  0.1542
26217WAT     H1 6673   3.049   0.190   2.994 -0.1902 -0.9968  1.6995
26217WAT     H2 6674   3.199   0.173   2.993 -0.1224 -0.5145 -0.2283
26217WAT    EPW 6675   3.128   0.212   3.024  0.1868 -0.3634  0.3076
26218WAT      O 6676  -1.906   8.845   4.515  0.3353  0.0072  0.0017
26218WAT     H1 6677  -1.902   8.906   4.589 -1.2682 -0.3750  0.4476
26218WAT     H2 6678  -1.845   8.775   4.539 -0.7062 -0.4921  1.3677
26218WAT    EPW 6679  -1.898   8.844   4.528 -0.0135 -0.1092  0.2408
26219WAT      O 6680   2.056  10.111   1.667  0.0029 -0.6235 -0.0914
26219WAT     H1 6681   2.050  10.049   1.739  1.7619  0.2311  0.8674
26219WAT     H2 6682   1.993  10.180   1.691 -0.6874 -1.1806 -0.2765
26219WAT    EPW 6683   2.047  10.112   1.680  0.1439 -0.5846  0.0107
26220WAT      O 6684  -2.761   3.611   2.463  0.7481 -0.2526 -0.5487
26220WAT     H1 6685  -2.672   3.610   2.428  1.1408 -0.4208  0.4321
26220WAT     H2 6686  -2.760   3.681   2.529  0.5075 -1.0691  0.3496
26220WAT    EPW 6687  -2.749   3.620   2.467  0.7682 -0.3823 -0.3008
26221WAT      O 6688   1.164   6.766   5.131 -0.4846  0.3812  0.1429
26221WAT     H1 6689   1.161   6.862   5.131 -0.1028  0.3988 -0.4087
26221WAT     H2 6690   1.162   6.742   5.038 -4.7830 -0.3185  0.2025
26221WAT    EPW 6691   1.163   6.775   5.118 -1.0012  0.2913  0.0780
26222WAT      O 6692  -1.289   5.556   2.389 -0.3573 -0.1650 -0.7788
26222WAT     H1 6693  -1.359   5.621   2.389 -0.1536  0.0905  1.0179
26222WAT     H2 6694  -1.325   5.481   2.435  0.2713 -0.3420 -0.5573
26222WAT    EPW 6695  -1.303   5.555   2.395 -0.2475 -0.1545 -0.5126
26223WAT      O 6696  -2.998   8.607   3.670  0.7233 -0.3839 -0.3753
26223WAT     H1 6697  -3.081   8.575   3.704  0.1767  0.3214 -1.0100
26223WAT     H2 6698  -2.951   8.529   3.641  0.5528 -0.8479  0.5604
26223WAT    EPW 6699  -3.002   8.593   3.671  0.6286 -0.3519 -0.3356
26224WAT      O 6700  -1.091   9.043   0.130  0.5529  0.5370 -0.1505
26224WAT     H1 6701  -1.181   9.056   0.099  0.9078  0.4251 -1.2928
26224WAT     H2 6702  -1.079   8.948   0.133  1.3150  0.4916 -2.2592
26224WAT    EPW 6703  -1.101   9.032   0.126  0.7002  0.5164 -0.5793
26225WAT      O 6704  -3.960   9.463   1.112 -0.1293 -0.4055  0.2893
26225WAT     H1 6705  -3.977   9.555   1.094  0.0230 -0.4696 -0.2002
26225WAT     H2 6706  -3.953   9.458   1.208 -1.7552 -0.1879  0.4594
26225WAT    EPW 6707  -3.961   9.474   1.123 -0.3238 -0.3848  0.2471
26226WAT      O 6708   4.765   6.321   4.548  0.1910  0.3670  0.5303
26226WAT     H1 6709   4.763   6.226   4.544 -0.2275  0.3495  0.9728
26226WAT     H2 6710   4.840   6.346   4.495  0.5701 -0.2290  0.7783
26226WAT    EPW 6711   4.775   6.312   4.541  0.1857  0.2863  0.6216
26227WAT      O 6712  -7.322   6.300   8.805 -0.2045 -0.3161  0.2110
26227WAT     H1 6713  -7.367   6.217   8.823 -0.2565 -0.3079  0.1179
26227WAT     H2 6714  -7.330   6.350   8.886  0.6328 -0.7742  0.5972
26227WAT    EPW 6715  -7.329   6.295   8.818 -0.1011 -0.3755  0.2499
26228WAT      O 6716  -4.951   9.074   6.480  0.2016 -0.5012  0.1718
26228WAT     H1 6717  -4.877   9.083   6.541 -0.0204 -3.0863  0.9366
26228WAT     H2 6718  -5.022   9.123   6.522  0.6738 -0.3870  0.8662
26228WAT    EPW 6719  -4.951   9.082   6.494  0.2346 -0.8273  0.3641
26229WAT      O 6720   6.171   0.736   6.439  0.4282  0.4371  0.6038
26229WAT     H1 6721   6.164   0.812   6.381 -0.3589 -0.3644 -0.4067
26229WAT     H2 6722   6.258   0.744   6.479  1.6067  0.3360 -1.7355
26229WAT    EPW 6723   6.182   0.747   6.436  0.4797  0.3180  0.1621
26230WAT      O 6724   0.361   2.588   1.651  0.1194  0.1724  0.0235
26230WAT     H1 6725   0.371   2.553   1.740 -0.5202 -1.5167 -0.5347
26230WAT     H2 6726   0.438   2.556   1.604 -1.5042 -2.4854 -1.0621
26230WAT    EPW 6727   0.373   2.579   1.657 -0.1791 -0.4010 -0.1934
26231WAT      O 6728   1.051   3.984   0.717 -0.0801  0.3724  0.4927
26231WAT     H1 6729   1.084   4.060   0.669 -0.4541  0.0792 -0.2510
26231WAT     H2 6730   1.107   3.912   0.688  1.4428  0.6503  2.5344
26231WAT    EPW 6731   1.063   3.985   0.707  0.0715  0.3703  0.6639
26232WAT      O 6732   4.623   7.833   0.210  0.0650 -0.8060  0.4785
26232WAT     H1 6733   4.552   7.893   0.188  0.3648 -0.1587  1.2250
26232WAT     H2 6734   4.599   7.751   0.168 -0.0067  0.0117 -1.1517
26232WAT    EPW 6735   4.610   7.830   0.202  0.0954 -0.6125  0.3620
26233WAT      O 6736   1.046   3.142   6.123 -0.1278  0.6122  0.2473
26233WAT     H1 6737   0.955   3.151   6.095 -0.5497 -2.4786  0.2243
26233WAT     H2 6738   1.097   3.186   6.055 -1.5396  0.8483 -0.7021
26233WAT    EPW 6739   1.041   3.149   6.110 -0.3697  0.2357  0.1192
26234WAT      O 6740   3.158   6.927   8.399 -0.5349  0.5061 -0.3933
26234WAT     H1 6741   3.232   6.987   8.393 -0.9531  1.0000 -0.6907
26234WAT     H2 6742   3.108   6.958   8.474 -2.0026  1.9951 -1.9036
26234WAT    EPW 6743   3.162   6.939   8.408 -0.7837  0.7677 -0.6318
26235WAT      O 6744   5.351   8.598   1.799 -0.1516 -0.1969 -0.0825
26235WAT     H1 6745   5.328   8.652   1.724  2.1150 -2.2010 -2.4144
26235WAT     H2 6746   5.268   8.558   1.825 -0.8593 -0.3548 -2.3396
26235WAT    EPW 6747   5.337   8.600   1.792  0.0539 -0.4821 -0.6878
26236WAT      O 6748  -2.394   8.977   3.995  0.0497 -0.1655  0.5833
26236WAT     H1 6749  -2.448   9.054   3.977 -1.3811 -1.2022  0.2894
26236WAT     H2 6750  -2.413   8.955   4.086  0.7640  0.0513  0.7920
26236WAT    EPW 6751  -2.403   8.984   4.005 -0.0448 -0.2737  0.5720
26237WAT      O 6752   7.190   4.075   1.807 -0.0349  0.3332  0.2134
26237WAT     H1 6753   7.202   4.053   1.715  2.9059 -1.3238  0.8707
26237WAT     H2 6754   7.119   4.139   1.807  0.4728  1.1017 -3.2762
26237WAT    EPW 6755   7.183   4.081   1.795  0.4199  0.2158 -0.1602
26238WAT      O 6756   1.308   2.600   4.602 -0.3649 -0.1741  0.0385
26238WAT     H1 6757   1.404   2.596   4.607 -0.4145 -1.2119  0.3934
26238WAT     H2 6758   1.283   2.660   4.672  0.0339  0.1865 -0.1280
26238WAT    EPW 6759   1.318   2.607   4.612 -0.3188 -0.2635  0.0632
26239WAT      O 6760   1.126   7.701   2.419 -0.0815  0.1276 -0.8683
26239WAT     H1 6761   1.179   7.677   2.495  1.3945  0.7637 -1.6522
26239WAT     H2 6762   1.133   7.797   2.415 -2.5038  0.4092 -0.1703
26239WAT    EPW 6763   1.134   7.711   2.429 -0.2063  0.2484 -0.8796
26240WAT      O 6764   3.990   6.699   5.619 -0.3321 -0.0758  0.0413
26240WAT     H1 6765   4.062   6.750   5.581  0.7983 -2.2007 -0.8369
26240WAT     H2 6766   3.957   6.646   5.547 -0.4251 -1.6984  1.2292
26240WAT    EPW 6767   3.995   6.699   5.605 -0.1953 -0.5701  0.0820
26241WAT      O 6768  -1.453   3.870   8.960  0.0213 -0.2219 -0.1965
26241WAT     H1 6769  -1.438   3.951   9.008  1.6222  0.5571 -1.9051
26241WAT     H2 6770  -1.548   3.858   8.963 -0.0613  0.3883  2.0990
26241WAT    EPW 6771  -1.464   3.879   8.967  0.2216 -0.0387 -0.1197
26242WAT      O 6772  -3.631   8.709   8.410  0.1627  0.5848 -0.3332
26242WAT     H1 6773  -3.632   8.768   8.486 -1.0891  1.8939 -1.3235
26242WAT     H2 6774  -3.549   8.728   8.365 -0.0614  1.3032 -0.4386
26242WAT    EPW 6775  -3.620   8.719   8.414 -0.0319  0.8516 -0.4778
26243WAT      O 6776  -0.152   2.923   3.278 -0.5616  0.1575 -0.3129
26243WAT     H1 6777  -0.196   2.838   3.274  0.1412 -0.1733 -2.4486
26243WAT     H2 6778  -0.061   2.902   3.300 -0.6129  0.4674  0.2074
26243WAT    EPW 6779  -0.146   2.909   3.280 -0.4757  0.1547 -0.5260
26244WAT      O 6780  -0.445   9.996   6.779 -0.1663  0.2487  0.1509
26244WAT     H1 6781  -0.455  10.041   6.863  0.6793 -3.4266  2.4412
26244WAT     H2 6782  -0.354   9.969   6.776 -0.2514 -0.0073 -1.8450
26244WAT    EPW 6783  -0.435   9.998   6.789 -0.0660 -0.2699  0.1895
26245WAT      O 6784   2.183   3.863   8.657 -0.1206  0.1545 -0.3003
26245WAT     H1 6785   2.098   3.820   8.645 -0.2145  1.1153 -4.4459
26245WAT     H2 6786   2.164   3.937   8.715 -1.4709 -1.1035  0.9766
26245WAT    EPW 6787   2.169   3.867   8.663 -0.3110  0.1154 -0.6790
26246WAT      O 6788   3.904   4.006   1.383  0.0254 -0.2140 -0.1823
26246WAT     H1 6789   3.994   3.984   1.406  0.0608  0.3224  0.2187
26246WAT     H2 6790   3.855   3.992   1.463  0.1182  1.5001  0.2142
26246WAT    EPW 6791   3.910   4.002   1.396  0.0423  0.0827 -0.0771
26247WAT      O 6792   5.314   0.375   4.891 -0.5858  0.6852 -0.0454
26247WAT     H1 6793   5.280   0.463   4.875 -0.9929  0.9219  1.9351
26247WAT     H2 6794   5.245   0.330   4.939  0.4309 -0.0084  0.8240
26247WAT    EPW 6795   5.301   0.381   4.895 -0.5052  0.6249  0.3304
26248WAT      O 6796   5.982   7.658   1.454 -0.3713 -0.6440  1.3151
26248WAT     H1 6797   6.009   7.706   1.532  0.5415  0.0506  0.5969
26248WAT     H2 6798   5.896   7.693   1.433 -1.7553 -2.5146  3.3325
26248WAT    EPW 6799   5.974   7.669   1.462 -0.4337 -0.7989  1.4864
26249WAT      O 6800  -0.443   3.749   4.255  0.5424  0.4770  0.4558
26249WAT     H1 6801  -0.478   3.705   4.333  2.0944 -0.9232  0.4194
26249WAT     H2 6802  -0.483   3.836   4.257 -1.5014 -0.4103  1.3547
26249WAT    EPW 6803  -0.453   3.755   4.266  0.4775  0.1754  0.5693
26250WAT      O 6804   0.241  10.329   2.993 -0.2857  0.3427  0.1846
26250WAT     H1 6805   0.261  10.394   3.060 -0.5555  0.2495  0.3565
26250WAT     H2 6806   0.201  10.257   3.041  1.1335 -0.4848  0.1823
26250WAT    EPW 6807   0.239  10.328   3.008 -0.1341  0.2213  0.2068
26251WAT      O 6808  -6.860   9.265   7.461  0.2131 -0.3602  0.0472
26251WAT     H1 6809  -6.956   9.259   7.460  0.0581  0.1624 -3.8708
26251WAT     H2 6810  -6.842   9.357   7.439  1.5684 -0.8251 -0.8908
26251WAT    EPW 6811  -6.870   9.277   7.458  0.3712 -0.3524 -0.5934
26252WAT      O 6812   0.704  10.103   8.376 -0.1094 -0.0337  0.1357
26252WAT     H1 6813   0.798  10.103   8.358 -0.1972  1.9320 -0.5539
26252WAT     H2 6814   0.664  10.116   8.291 -0.8053  3.0273  0.8144
26252WAT    EPW 6815   0.711  10.105   8.363 -0.2128  0.6294  0.1340
26253WAT      O 6816   2.631   2.359   0.353 -0.0449  0.7388 -0.0869
26253WAT     H1 6817   2.556   2.343   0.294  0.0025 -0.8236  0.2366
26253WAT     H2 6818   2.673   2.274   0.362  3.3207  1.9777 -2.2401
26253WAT    EPW 6819   2.626   2.346   0.346  0.4053  0.6962 -0.3282
26254WAT      O 6820  -5.432   4.466   7.754  0.2452 -0.0148  0.1512
26254WAT     H1 6821  -5.417   4.372   7.757 -1.0357 -0.2902 -1.1409
26254WAT     H2 6822  -5.474   4.481   7.670  0.6384  1.7530  0.2377
26254WAT    EPW 6823  -5.435   4.456   7.743  0.1280  0.1819 -0.0079
26255WAT      O 6824   3.680   6.802   0.335  0.2222  0.5161 -0.2374
26255WAT     H1 6825   3.670   6.759   0.250  3.0631  0.3425 -0.5969
26255WAT     H2 6826   3.661   6.894   0.317  0.6287  0.4539 -1.0539
26255WAT    EPW 6827   3.676   6.809   0.322  0.6504  0.4849 -0.3925
26256WAT      O 6828  -1.128   9.742   7.492 -0.1041  0.2722  0.4194
26256WAT     H1 6829  -1.071   9.793   7.550  0.9579  0.4972 -0.7675
26256WAT     H2 6830  -1.200   9.713   7.548  0.5985  0.9334  1.7097
26256WAT    EPW 6831  -1.130   9.745   7.507  0.1286  0.3891  0.4332
26257WAT      O 6832   6.418   3.928   0.584 -0.3396  0.1915  0.5549
26257WAT     H1 6833   6.326   3.925   0.610 -0.3800  2.0920  0.7868
26257WAT     H2 6834   6.447   3.837   0.589 -1.9972 -0.3510  1.1930
26257WAT    EPW 6835   6.409   3.915   0.588 -0.5636  0.3706  0.6697
26258WAT      O 6836   2.607   4.070   7.778 -0.2367 -0.1268  0.5298
26258WAT     H1 6837   2.611   4.138   7.711 -0.7929 -0.4876  0.1223
26258WAT     H2 6838   2.697   4.040   7.788 -0.1311  0.0386  0.0614
26258WAT    EPW 6839   2.619   4.075   7.771 -0.2961 -0.1526  0.4144
26259WAT      O 6840   0.180   9.647   1.986  0.3064 -0.5052 -0.4787
26259WAT     H1 6841   0.268   9.670   2.013 -0.5816  0.9455  1.4377
26259WAT     H2 6842   0.167   9.559   2.021  0.9814 -0.7380 -0.7948
26259WAT    EPW 6843   0.190   9.638   1.994  0.2783 -0.3448 -0.2676
26260WAT      O 6844  -3.693   2.610   4.544 -0.0244 -0.1233 -0.6032
26260WAT     H1 6845  -3.605   2.580   4.522  0.0925 -0.6010  0.4351
26260WAT     H2 6846  -3.738   2.620   4.460  1.1129  0.4379 -1.1592
26260WAT    EPW 6847  -3.688   2.608   4.530  0.1410 -0.1123 -0.5395
26261WAT      O 6848   3.430   3.239   4.141 -0.7420  0.7234  0.1706
26261WAT     H1 6849   3.416   3.168   4.204 -2.9680  1.8541  1.0268
26261WAT     H2 6850   3.514   3.277   4.167  0.2204 -1.1798  0.0479
26261WAT    EPW 6851   3.439   3.234   4.153 -0.9089  0.6216  0.2673
26262WAT      O 6852   0.952  10.156   1.113 -0.5735  0.0800 -0.2109
26262WAT     H1 6853   0.966  10.218   1.042 -0.4447 -0.8887 -1.0605
26262WAT     H2 6854   1.028  10.165   1.169  0.0389 -0.1741 -0.9892
26262WAT    EPW 6855   0.964  10.165   1.111 -0.4757 -0.0811 -0.4256
26263WAT      O 6856   2.728   6.196   2.579  0.1758  0.0013 -0.1856
26263WAT     H1 6857   2.821   6.222   2.579  0.1211  0.5156 -3.0166
26263WAT     H2 6858   2.682   6.273   2.545 -1.2063 -0.5506  0.3886
26263WAT    EPW 6859   2.735   6.210   2.575 -0.0137 -0.0038 -0.4833
26264WAT      O 6860   3.926   9.853   4.447 -0.5533  0.1424 -0.4840
26264WAT     H1 6861   3.977   9.867   4.367  1.3885  2.0006  0.9652
26264WAT     H2 6862   3.886   9.767   4.434  2.9828 -1.5273 -1.8001
26264WAT    EPW 6863   3.928   9.843   4.434  0.1692  0.1669 -0.4663
26265WAT      O 6864  -3.884  10.307   8.283 -0.9199  0.4494  1.5566
26265WAT     H1 6865  -3.906  10.327   8.191  0.9892 -3.2874  0.0793
26265WAT     H2 6866  -3.799  10.349   8.296 -0.2285 -0.6775  0.8556
26265WAT    EPW 6867  -3.876  10.315   8.272 -0.5770 -0.1922  1.2693
26266WAT      O 6868   3.447   8.836   2.539  0.2901  0.2563 -0.0595
26266WAT     H1 6869   3.502   8.759   2.556 -0.5113  0.0533  1.9457
26266WAT     H2 6870   3.372   8.802   2.491  1.7649  0.5169 -2.7196
26266WAT    EPW 6871   3.445   8.821   2.535  0.3790  0.2637 -0.1459
26267WAT      O 6872   3.094   8.670   4.279  0.6087 -0.4225  0.0159
26267WAT     H1 6873   3.137   8.726   4.215 -0.3557  0.9378  0.5026
26267WAT     H2 6874   3.032   8.618   4.228  0.5710 -0.0862 -0.2834
26267WAT    EPW 6875   3.092   8.670   4.264  0.4766 -0.1984  0.0408
26268WAT      O 6876   5.213   9.951   2.723  0.3159 -0.2554 -0.4506
26268WAT     H1 6877   5.205   9.910   2.809 -2.4040 -1.2447 -1.0924
26268WAT     H2 6878   5.159   9.898   2.665  1.9280  0.4869 -2.7837
26268WAT    EPW 6879   5.205   9.939   2.727  0.1698 -0.2885 -0.8429
26269WAT      O 6880   2.028   9.355   7.999  0.1432 -0.3496 -0.0649
26269WAT     H1 6881   1.939   9.374   7.971  0.3624 -0.1903 -0.6666
26269WAT     H2 6882   2.062   9.294   7.934  1.5485  2.0207 -1.7475
26269WAT    EPW 6883   2.021   9.350   7.987  0.3575 -0.0162 -0.3662
26270WAT      O 6884  -5.155   7.890   8.179 -0.0191 -0.2038 -0.6274
26270WAT     H1 6885  -5.162   7.975   8.135  0.5462  0.4145  0.4254
26270WAT     H2 6886  -5.076   7.897   8.233 -1.3762 -0.3949  1.5100
26270WAT    EPW 6887  -5.146   7.902   8.180 -0.1235 -0.1471 -0.2065
26271WAT      O 6888   1.010   3.754   4.119  0.5031  0.7145  0.1935
26271WAT     H1 6889   0.968   3.668   4.125  1.1030  0.4188  0.2432
26271WAT     H2 6890   1.014   3.785   4.209 -1.0134  1.4460  0.0406
26271WAT    EPW 6891   1.005   3.747   4.131  0.3822  0.7720  0.1800
26272WAT      O 6892  -4.467   4.973   6.220  0.6023  0.7120 -0.5516
26272WAT     H1 6893  -4.450   4.957   6.127  1.6626  0.8667 -0.4008
26272WAT     H2 6894  -4.441   5.064   6.234  0.7814  0.5851 -0.0282
26272WAT    EPW 6895  -4.461   4.983   6.210  0.7658  0.7155 -0.4628
26273WAT      O 6896   1.229   3.338   2.110  0.0229 -0.2734  0.6021
26273WAT     H1 6897   1.237   3.432   2.125  2.6816 -0.6166  1.8700
26273WAT     H2 6898   1.264   3.298   2.189 -1.0341 -2.3622  0.0880
26273WAT    EPW 6899   1.235   3.345   2.122  0.2341 -0.5941  0.7015
26274WAT      O 6900  -1.814   0.160   5.752 -0.5647  0.2611 -0.7232
26274WAT     H1 6901  -1.863   0.101   5.696 -0.1729 -0.1485 -0.6375
26274WAT     H2 6902  -1.819   0.245   5.708 -0.4122 -0.0187 -1.2790
26274WAT    EPW 6903  -1.821   0.164   5.739 -0.4929  0.1702 -0.7851
26275WAT      O 6904   2.537   7.517   7.058  0.1245 -0.1103  0.0096
26275WAT     H1 6905   2.496   7.563   6.985 -0.1034 -0.7103 -0.2464
26275WAT     H2 6906   2.463   7.484   7.111  0.2385 -1.5460 -0.6738
26275WAT    EPW 6907   2.522   7.518   7.056  0.1094 -0.3786 -0.1142
26276WAT      O 6908   7.715   3.649   2.446 -0.6459  0.0775  0.4214
26276WAT     H1 6909   7.657   3.577   2.421 -0.2473  0.1386 -0.7731
26276WAT     H2 6910   7.662   3.728   2.434 -0.5217  0.0921 -0.0762
26276WAT    EPW 6911   7.701   3.650   2.441 -0.5772  0.0875  0.1981
26277WAT      O 6912   5.711   7.597   4.234 -0.5904 -0.2501 -0.6800
26277WAT     H1 6913   5.731   7.689   4.217  0.1649 -0.2117  0.3154
26277WAT     H2 6914   5.637   7.600   4.295 -0.9293 -0.3163 -1.0860
26277WAT    EPW 6915   5.704   7.610   4.240 -0.5355 -0.2537 -0.6022
26278WAT      O 6916   1.159  10.166   1.340 -0.5203 -0.9178  0.8819
26278WAT     H1 6917   1.196  10.254   1.331 -0.8116 -0.9194 -0.4410
26278WAT     H2 6918   1.231  10.114   1.375  0.6461 -0.8153 -1.2022
26278WAT    EPW 6919   1.174  10.171   1.343 -0.4049 -0.9050  0.4326
26279WAT      O 6920   0.373   4.317   1.782  0.3688  0.1704  0.1140
26279WAT     H1 6921   0.287   4.320   1.740  0.3451  2.4064  0.2363
26279WAT     H2 6922   0.354   4.330   1.875  0.8010  0.1121  0.2087
26279WAT    EPW 6923   0.359   4.319   1.788  0.4227  0.4575  0.1426
26280WAT      O 6924  -1.692   3.898   1.330  0.2416 -0.7724 -1.1560
26280WAT     H1 6925  -1.610   3.945   1.341  1.1807 -2.6094  0.1948
26280WAT     H2 6926  -1.668   3.816   1.286 -0.8816 -1.2535 -0.9286
26280WAT    EPW 6927  -1.678   3.893   1.326  0.2173 -1.0782 -0.9478
26281WAT      O 6928  -0.792   4.380   6.280  0.5540  0.5419 -0.7234
26281WAT     H1 6929  -0.865   4.319   6.294  1.0515 -0.1356 -1.0274
26281WAT     H2 6930  -0.823   4.463   6.316  1.0079 -0.5737  2.6312
26281WAT    EPW 6931  -0.806   4.383   6.287  0.6795  0.3054 -0.3209
26282WAT      O 6932  -4.990   3.428   6.431  0.2106 -0.1681  0.2114
26282WAT     H1 6933  -5.062   3.413   6.370 -0.7956  0.3469  1.2367
26282WAT     H2 6934  -4.947   3.507   6.398  1.3430 -1.3621 -1.3233
26282WAT    EPW 6935  -4.994   3.436   6.419  0.2272 -0.2576  0.1442
26283WAT      O 6936   1.169   9.923   7.310 -0.8843  0.0400  0.1292
26283WAT     H1 6937   1.233   9.871   7.263  0.5183  1.3819  0.4538
26283WAT     H2 6938   1.174   9.892   7.401 -0.9175 -0.0734  0.0914
26283WAT    EPW 6939   1.178   9.912   7.316 -0.7037  0.2022  0.1669
26284WAT      O 6940   2.002   6.376   6.344  0.2505  0.1250 -0.3952
26284WAT     H1 6941   1.978   6.283   6.334  1.1487 -0.2084  0.3926
26284WAT     H2 6942   2.093   6.381   6.316  0.1014  0.8451 -0.7630
26284WAT    EPW 6943   2.011   6.364   6.339  0.3493  0.1760 -0.3397
26285WAT      O 6944  -1.958   7.747   1.421  0.6710  0.1735 -0.2887
26285WAT     H1 6945  -1.931   7.662   1.456  2.3498  0.2530 -1.2962
26285WAT     H2 6946  -1.920   7.810   1.481 -0.0692  0.2438  0.1187
26285WAT    EPW 6947  -1.949   7.744   1.434  0.7948  0.1934 -0.3678
26286WAT      O 6948   3.226   5.523   7.563 -0.2260 -0.3546 -0.0336
26286WAT     H1 6949   3.233   5.582   7.488 -1.2169  0.4732  0.5106
26286WAT     H2 6950   3.305   5.469   7.557  0.2899  0.4630 -1.0116
26286WAT    EPW 6951   3.238   5.523   7.552 -0.2886 -0.1378 -0.0908
26287WAT      O 6952   5.913   4.481   2.286 -0.0824 -0.5441 -0.4157
26287WAT     H1 6953   5.834   4.427   2.285 -2.2168  2.2914 -2.6445
26287WAT     H2 6954   5.897   4.545   2.355  0.0455  0.2750 -1.1252
26287WAT    EPW 6955   5.900   4.482   2.295 -0.3469 -0.0620 -0.8032
26288WAT      O 6956   2.261   2.657   4.885  0.0513 -0.3056  0.5326
26288WAT     H1 6957   2.235   2.565   4.891 -1.5297 -0.1134 -1.9702
26288WAT     H2 6958   2.274   2.684   4.976  1.8051 -3.2675  1.3209
26288WAT    EPW 6959   2.260   2.648   4.898  0.0741 -0.6710  0.3061
26289WAT      O 6960   0.025   0.314   6.026  0.6922  0.1623 -0.7692
26289WAT     H1 6961  -0.041   0.383   6.031  0.7161  0.4600 -3.2216
26289WAT     H2 6962   0.060   0.307   6.115 -1.2464  1.3649  0.1378
26289WAT    EPW 6963   0.021   0.322   6.039  0.4397  0.3602 -0.9730
26290WAT      O 6964  -4.199   7.670   8.514  0.1012  0.6821  0.0749
26290WAT     H1 6965  -4.165   7.658   8.425 -3.3307  0.1787 -1.3358
26290WAT     H2 6966  -4.227   7.583   8.541  1.8066  0.6894  2.0515
26290WAT    EPW 6967  -4.198   7.657   8.506 -0.1264  0.6168  0.1497
26291WAT      O 6968  -2.588   3.701   8.457 -0.2801  0.0795  0.4754
26291WAT     H1 6969  -2.604   3.783   8.410  0.1764  1.5961  2.7707
26291WAT     H2 6970  -2.520   3.657   8.407  0.8014  2.0225  0.1233
26291WAT    EPW 6971  -2.581   3.706   8.444 -0.0772  0.5357  0.7319
26292WAT      O 6972  -1.108  10.023   5.410 -0.3656  0.6296  0.4036
26292WAT     H1 6973  -1.058  10.041   5.490  1.6732  1.1159 -0.9049
26292WAT     H2 6974  -1.071   9.941   5.378 -2.3672 -0.4815  0.8257
26292WAT    EPW 6975  -1.096  10.015   5.417 -0.3607  0.5474  0.2868
26293WAT      O 6976   4.935   6.593   1.427 -0.0186  0.0322 -0.2541
26293WAT     H1 6977   4.977   6.558   1.506 -0.4269  0.1980  0.0382
26293WAT     H2 6978   4.989   6.560   1.355  0.6464  0.2783  0.1206
26293WAT    EPW 6979   4.948   6.584   1.428  0.0155  0.0865 -0.1662
26294WAT      O 6980  -1.708   8.704   2.792 -0.2961 -0.2550 -0.3584
26294WAT     H1 6981  -1.631   8.648   2.786 -1.1003 -1.3506 -0.8980
26294WAT     H2 6982  -1.673   8.791   2.809  1.1807 -0.3439 -2.5093
26294WAT    EPW 6983  -1.693   8.708   2.794 -0.2074 -0.4115 -0.7131
26295WAT      O 6984   4.391   2.846   5.908 -0.0366 -0.6356  0.4832
26295WAT     H1 6985   4.477   2.806   5.897  0.4690 -0.2997  2.7598
26295WAT     H2 6986   4.410   2.940   5.918 -0.8076 -0.3886 -0.2379
26295WAT    EPW 6987   4.405   2.853   5.908 -0.0718 -0.5587  0.6883
26296WAT      O 6988  -2.549   0.616   7.938 -0.4344  0.1334  0.0032
26296WAT     H1 6989  -2.569   0.540   7.883 -1.1729  0.1215  0.2832
26296WAT     H2 6990  -2.480   0.662   7.890 -0.6982 -0.1620 -0.6747
26296WAT    EPW 6991  -2.542   0.612   7.925 -0.5665  0.0929 -0.0494
26297WAT      O 6992  -0.085   9.161   3.340 -0.4951 -0.3498  0.1218
26297WAT     H1 6993  -0.152   9.149   3.408 -1.2711  1.9427 -0.1437
26297WAT     H2 6994  -0.116   9.235   3.288  2.6499  1.4557  0.5366
26297WAT    EPW 6995  -0.098   9.169   3.342 -0.1827  0.1907  0.1415
26298WAT      O 6996  -0.917   0.992   6.974 -0.1479  0.8028 -0.3144
26298WAT     H1 6997  -0.855   1.002   6.902  0.1558  2.1077  0.1070
26298WAT     H2 6998  -0.866   1.009   7.053 -1.2504  3.1687 -0.0274
26298WAT    EPW 6999  -0.902   0.996   6.975 -0.2532  1.2870 -0.2210
26299WAT      O 7000  -1.867  10.270   1.801  0.2102 -0.7836  0.0350
26299WAT     H1 7001  -1.943  10.266   1.743 -0.2632 -0.2038  0.6058
26299WAT     H2 7002  -1.900  10.245   1.887  0.1320  1.5997  0.7789
26299WAT    EPW 7003  -1.881  10.266   1.804  0.1374 -0.3924  0.2084
26300WAT      O 7004  -1.139   2.089   3.081 -0.0813 -0.4217 -0.5703
26300WAT     H1 7005  -1.165   2.138   3.159 -0.4281  1.5689 -1.8605
26300WAT     H2 7006  -1.174   2.001   3.095  0.4468 -0.3152  1.7791
26300WAT    EPW 7007  -1.147   2.084   3.093 -0.0573 -0.1451 -0.4305
26301WAT      O 7008  -1.563   8.576   2.490  0.2799 -0.0257  0.2621
26301WAT     H1 7009  -1.535   8.599   2.401  0.7177 -1.2598  0.0614
26301WAT     H2 7010  -1.495   8.611   2.547  1.3098 -1.3624 -0.0898
26301WAT    EPW 7011  -1.550   8.583   2.486  0.4734 -0.3648  0.1892
26302WAT      O 7012  -2.608   3.183   7.737  0.8727 -0.6399  0.2662
26302WAT     H1 7013  -2.682   3.239   7.760  2.4571  1.6453  0.2401
26302WAT     H2 7014  -2.641   3.094   7.747 -2.0980  0.2428 -0.5972
26302WAT    EPW 7015  -2.622   3.179   7.741  0.6899 -0.2220  0.1488
26303WAT      O 7016   2.160   6.293   1.997 -0.3750 -0.7289 -0.0778
26303WAT     H1 7017   2.233   6.319   2.053 -0.0895  0.2035 -0.8432
26303WAT     H2 7018   2.082   6.320   2.045 -0.0946  3.7700 -1.6935
26303WAT    EPW 7019   2.160   6.300   2.011 -0.3003 -0.0124 -0.3918
26304WAT      O 7020  -2.129   4.842   8.704 -0.4483  0.7654 -0.1526
26304WAT     H1 7021  -2.082   4.918   8.738  0.8809 -0.3064  0.4942
26304WAT     H2 7022  -2.110   4.842   8.610 -0.4146  1.2003 -0.1453
26304WAT    EPW 7023  -2.120   4.852   8.696 -0.2686  0.6814 -0.0663
26305WAT      O 7024  -6.041  10.007   7.921  0.3477 -0.0658 -0.3214
26305WAT     H1 7025  -6.095  10.022   7.999  1.0472 -1.0773  0.3794
26305WAT     H2 7026  -6.082   9.932   7.878  1.5702 -1.3171  0.6110
26305WAT    EPW 7027  -6.054   9.999   7.926  0.6011 -0.3648 -0.1061
26306WAT      O 7028   9.310   1.287   0.877 -0.1199  0.1301 -0.8707
26306WAT     H1 7029   9.365   1.272   0.800  2.7663  2.1762  0.6261
26306WAT     H2 7030   9.226   1.316   0.841  1.6267  2.6830 -3.3382
26306WAT    EPW 7031   9.306   1.289   0.862  0.4916  0.7367 -0.9987
26307WAT      O 7032  -1.592   3.281   5.562 -0.4188 -0.0938  0.2077
26307WAT     H1 7033  -1.610   3.375   5.572 -0.1485  0.3455 -2.6543
26307WAT     H2 7034  -1.496   3.276   5.555 -0.5128 -0.3223 -1.2873
26307WAT    EPW 7035  -1.581   3.293   5.562 -0.3955 -0.0660 -0.3669
26308WAT      O 7036   3.211   3.540   1.835  0.1618 -0.1349  0.2592
26308WAT     H1 7037   3.252   3.619   1.871  0.5606 -1.2339  2.4069
26308WAT     H2 7038   3.119   3.564   1.823 -0.1085  0.2050  2.5601
26308WAT    EPW 7039   3.204   3.554   1.838  0.1788 -0.2350  0.8460
26309WAT      O 7040  -3.082   5.135   5.175  0.3710 -0.0432  0.0996
26309WAT     H1 7041  -3.118   5.046   5.177  1.9454 -0.7175  2.4851
26309WAT     H2 7042  -3.051   5.145   5.085 -1.8215 -1.0074 -0.8480
26309WAT    EPW 7043  -3.082   5.124   5.163  0.2894 -0.2592  0.2894
26310WAT      O 7044   6.264   2.504   3.894 -0.4444  0.0982 -0.3258
26310WAT     H1 7045   6.178   2.541   3.911 -0.2966 -0.0225  0.7486
26310WAT     H2 7046   6.249   2.437   3.827 -1.5455 -1.3122  1.2561
26310WAT    EPW 7047   6.251   2.500   3.887 -0.5701 -0.1037  0.0244
26311WAT      O 7048  -4.320   1.372   6.328  0.0204  0.0184  0.3291
26311WAT     H1 7049  -4.249   1.396   6.268  0.7472  0.0679  1.1905
26311WAT     H2 7050  -4.348   1.455   6.367 -1.0935  0.1119 -0.6064
26311WAT    EPW 7051  -4.315   1.386   6.325 -0.0305  0.0373  0.3192
26312WAT      O 7052   2.665   5.449   7.839  0.0034  0.1403  0.5784
26312WAT     H1 7053   2.675   5.443   7.744  0.1014  1.3976  0.4908
26312WAT     H2 7054   2.580   5.410   7.857  1.7689 -4.3232  0.5263
26312WAT    EPW 7055   2.655   5.444   7.829  0.2491 -0.2825  0.5598
26313WAT      O 7056  -0.220   3.458   1.486 -0.4227 -0.0161  0.3132
26313WAT     H1 7057  -0.205   3.468   1.580 -1.2148  0.5176  0.3996
26313WAT     H2 7058  -0.291   3.520   1.467  0.1495  0.3439 -0.7530
26313WAT    EPW 7059  -0.227   3.468   1.496 -0.4517  0.1018  0.1840
26314WAT      O 7060   7.503   1.549   1.172 -0.8117 -0.6010  0.2410
26314WAT     H1 7061   7.419   1.544   1.218 -0.4219 -4.1054  0.8833
26314WAT     H2 7062   7.562   1.591   1.234 -1.5293 -0.3463  0.7651
26314WAT    EPW 7063   7.500   1.554   1.186 -0.8547 -1.0296  0.3949
26315WAT      O 7064  -3.899   8.654   7.132 -0.1402 -0.2488  1.0393
26315WAT     H1 7065  -3.963   8.696   7.190 -2.4735  0.8251 -2.0332
26315WAT     H2 7066  -3.948   8.636   7.052  2.5007 -3.0018 -0.1403
26315WAT    EPW 7067  -3.914   8.657   7.129 -0.0998 -0.4702  0.4785
26316WAT      O 7068  -0.243   8.251   7.329 -0.2111  0.2430 -0.5278
26316WAT     H1 7069  -0.148   8.265   7.324  0.4846 -3.3748  0.0487
26316WAT     H2 7070  -0.268   8.224   7.241 -0.8718  1.6507 -0.8028
26316WAT    EPW 7071  -0.234   8.250   7.317 -0.2065 -0.0482 -0.4878
26317WAT      O 7072   5.704   7.132   2.195  0.2352  0.2005  0.2032
26317WAT     H1 7073   5.639   7.199   2.215 -0.0116  0.1036 -0.2626
26317WAT     H2 7074   5.788   7.173   2.214  0.0639  0.4827  0.3617
26317WAT    EPW 7075   5.707   7.146   2.200  0.1798  0.2248  0.1626
26318WAT      O 7076  -4.802   2.682   7.818  0.0434  0.0186 -1.0151
26318WAT     H1 7077  -4.742   2.619   7.777  1.2649  3.2105 -4.8469
26318WAT     H2 7078  -4.886   2.667   7.775 -0.1893 -0.2502 -0.4705
26318WAT    EPW 7079  -4.805   2.672   7.807  0.1738  0.4041 -1.4486
26319WAT      O 7080   4.024   9.735   0.084 -0.2627  0.1021 -0.4026
26319WAT     H1 7081   4.049   9.716  -0.007 -1.3746  1.8082 -1.1297
26319WAT     H2 7082   3.932   9.761   0.078 -0.6345 -0.6433  1.3710
26319WAT    EPW 7083   4.015   9.736   0.071 -0.4585  0.2294 -0.2646
26320WAT      O 7084   4.741   3.255   3.914 -0.4148 -0.0611 -0.3136
26320WAT     H1 7085   4.828   3.223   3.891 -0.1451  0.0833  0.4799
26320WAT     H2 7086   4.757   3.336   3.962 -1.0942  1.4377 -2.4859
26320WAT    EPW 7087   4.755   3.261   3.918 -0.4687  0.1557 -0.4954
26321WAT      O 7088   7.935   0.286   0.315  0.0288  0.0325 -0.2332
26321WAT     H1 7089   7.890   0.228   0.376  0.6963 -2.0435 -1.6176
26321WAT     H2 7090   7.906   0.258   0.228  1.9852  0.3440 -1.0380
26321WAT    EPW 7091   7.925   0.275   0.312  0.3750 -0.2002 -0.5220
26322WAT      O 7092   5.425   3.021   0.509  0.2359 -0.1248  0.1865
26322WAT     H1 7093   5.442   2.937   0.466 -0.7686 -0.2946  0.1007
26322WAT     H2 7094   5.378   3.072   0.443  1.5496  0.8217 -0.0586
26322WAT    EPW 7095   5.421   3.017   0.495  0.2766 -0.0223  0.1429
26323WAT      O 7096   5.288   2.114   6.430 -0.8348  0.5392  0.5633
26323WAT     H1 7097   5.276   2.027   6.391  1.2715  0.0543  0.8834
26323WAT     H2 7098   5.299   2.096   6.524 -0.4093  1.1531  0.6309
26323WAT    EPW 7099   5.288   2.100   6.437 -0.5007  0.5562  0.6144
26324WAT      O 7100   4.815   1.065   5.198 -0.2665  0.0537 -0.8386
26324WAT     H1 7101   4.892   1.110   5.232 -1.7906  1.2284  1.2950
26324WAT     H2 7102   4.822   0.976   5.232  0.0392  0.2297 -0.4283
26324WAT    EPW 7103   4.826   1.059   5.207 -0.4272  0.2319 -0.5033
26325WAT      O 7104   6.226   3.460   2.714  0.7596 -0.4100 -0.0318
26325WAT     H1 7105   6.262   3.412   2.789 -0.5891  2.4996  2.7439
26325WAT     H2 7106   6.287   3.533   2.702  1.2711 -1.1388 -2.2825
26325WAT    EPW 7107   6.239   3.464   2.722  0.6492 -0.1224  0.0374
26326WAT      O 7108  -1.449   5.552   4.764 -0.3497 -0.2896  0.2540
26326WAT     H1 7109  -1.432   5.594   4.680  1.3618 -0.5957  0.4133
26326WAT     H2 7110  -1.543   5.562   4.777 -0.8591 -1.2331 -2.2143
26326WAT    EPW 7111  -1.459   5.559   4.755 -0.1911 -0.4544 -0.0505
26327WAT      O 7112  -0.827   5.634   8.541  0.0952  0.0525 -0.0207
26327WAT     H1 7113  -0.871   5.549   8.540  0.5909 -0.2702  1.5759
26327WAT     H2 7114  -0.867   5.680   8.615  0.7987  0.6656 -0.0135
26327WAT    EPW 7115  -0.838   5.629   8.551  0.2533  0.0908  0.1907
26328WAT      O 7116  -7.001   8.725   7.927  0.0655  1.1077  0.0248
26328WAT     H1 7117  -7.085   8.681   7.920 -0.1455  1.4609  0.2972
26328WAT     H2 7118  -6.944   8.678   7.866  0.7352 -1.5655  2.5028
26328WAT    EPW 7119  -7.005   8.713   7.918  0.1259  0.8016  0.3874
26329WAT      O 7120   4.901  10.173   0.750 -0.6426 -0.2740  0.0079
26329WAT     H1 7121   4.837  10.154   0.681 -2.4309 -0.1292  1.5381
26329WAT     H2 7122   4.965  10.231   0.709 -1.5493 -0.3445 -1.5713
26329WAT    EPW 7123   4.901  10.178   0.736 -0.9980 -0.2642  0.0015
26330WAT      O 7124   3.630   0.562   5.155  0.4855 -0.6332  0.1710
26330WAT     H1 7125   3.626   0.599   5.243  1.1069 -0.5528  0.1644
26330WAT     H2 7126   3.680   0.626   5.104  2.6952 -2.0336  0.4519
26330WAT    EPW 7127   3.636   0.575   5.160  0.8589 -0.8073  0.2074
26331WAT      O 7128   2.928   2.993   0.698 -0.6119  0.0506 -0.3196
26331WAT     H1 7129   3.004   3.048   0.679  1.6170 -2.4348  0.6322
26331WAT     H2 7130   2.872   3.047   0.753  0.4200  2.0146 -1.1207
26331WAT    EPW 7131   2.931   3.007   0.703 -0.1818 -0.0182 -0.2998
26332WAT      O 7132  -6.030   8.361   8.897  0.7934  0.3943 -0.2914
26332WAT     H1 7133  -5.990   8.289   8.947 -1.6250 -0.8586  0.0055
26332WAT     H2 7134  -6.007   8.440   8.946 -1.2284 -0.7364  2.8405
26332WAT    EPW 7135  -6.022   8.362   8.910  0.2077  0.0796  0.1612
26333WAT      O 7136  -1.745   6.573   6.129 -1.1875  0.4412 -0.6834
26333WAT     H1 7137  -1.698   6.498   6.165 -1.2698  0.5629 -0.3244
26333WAT     H2 7138  -1.769   6.545   6.040 -0.4983  0.3545 -0.8529
26333WAT    EPW 7139  -1.742   6.559   6.122 -1.1075  0.4458 -0.6583
26334WAT      O 7140  -2.073   5.876   1.488  0.2659  0.7056  0.5187
26334WAT     H1 7141  -2.131   5.803   1.507  0.3361  0.7044  0.7196
26334WAT     H2 7142  -1.985   5.839   1.487  0.7236  1.3443  3.9781
26334WAT    EPW 7143  -2.069   5.862   1.490  0.3356  0.7896  1.0015
26335WAT      O 7144   2.610   2.072   0.888  0.3584 -0.3618  0.3789
26335WAT     H1 7145   2.702   2.084   0.863  0.3439 -1.8122 -0.4962
26335WAT     H2 7146   2.613   2.005   0.957 -0.0104 -0.1932  0.5577
26335WAT    EPW 7147   2.622   2.064   0.893  0.3078 -0.5307  0.2871
26336WAT      O 7148   3.790   6.054   4.913  0.0826 -0.5029 -0.2934
26336WAT     H1 7149   3.850   6.002   4.965 -1.2616  1.1334  3.2283
26336WAT     H2 7150   3.710   6.001   4.908  0.7796 -1.4510 -2.4774
26336WAT    EPW 7151   3.787   6.040   4.919 -0.0027 -0.4120 -0.1171
26337WAT      O 7152  -2.758   7.047   7.295 -0.1048 -0.8765 -0.1320
26337WAT     H1 7153  -2.724   7.091   7.216 -2.5536  2.3165  0.3741
26337WAT     H2 7154  -2.692   7.066   7.362  0.2373 -0.3987 -0.5817
26337WAT    EPW 7155  -2.745   7.056   7.293 -0.3827 -0.3924 -0.1245
26338WAT      O 7156  -1.768   5.325   8.302  0.1291 -0.0675 -0.3642
26338WAT     H1 7157  -1.823   5.306   8.378 -0.4220  3.4138  0.2523
26338WAT     H2 7158  -1.829   5.321   8.228 -0.2332  0.4323 -0.1011
26338WAT    EPW 7159  -1.783   5.322   8.302  0.0086  0.4578 -0.2484
26339WAT      O 7160  -2.977   5.675   5.535 -0.3337 -0.0226 -0.2796
26339WAT     H1 7161  -2.950   5.628   5.456 -1.7563 -0.0214 -0.7935
26339WAT     H2 7162  -3.057   5.722   5.509  1.6773  3.8410 -0.2535
26339WAT    EPW 7163  -2.984   5.675   5.521 -0.2561  0.4871 -0.3440
26340WAT      O 7164  -0.243   4.078   6.767 -0.1171  0.2032  0.2629
26340WAT     H1 7165  -0.256   4.172   6.778  0.1917  0.5141 -1.7450
26340WAT     H2 7166  -0.149   4.066   6.775 -0.1984 -0.0192  0.9622
26340WAT    EPW 7167  -0.232   4.088   6.770 -0.0871  0.2148  0.0901
26341WAT      O 7168   1.052   5.230   1.327 -0.7107  0.5381  0.0317
26341WAT     H1 7169   0.980   5.287   1.303 -1.1068  0.0853  0.1192
26341WAT     H2 7170   1.100   5.277   1.396 -0.2454  1.3351 -0.8267
26341WAT    EPW 7171   1.049   5.244   1.333 -0.7015  0.5834 -0.0700
26342WAT      O 7172   1.739   7.693   3.450 -0.6794  0.5085 -0.2252
26342WAT     H1 7173   1.649   7.663   3.439 -1.0754  1.9091 -0.9581
26342WAT     H2 7174   1.739   7.783   3.417  0.9217  0.6337  0.0396
26342WAT    EPW 7175   1.727   7.701   3.445 -0.5204  0.7095 -0.2869
26343WAT      O 7176   2.218   5.195   8.448  0.9739  0.3237  0.3440
26343WAT     H1 7177   2.171   5.241   8.518 -0.5694 -1.6845  0.7388
26343WAT     H2 7178   2.285   5.144   8.494  1.6061  0.9310  0.0912
26343WAT    EPW 7179   2.220   5.194   8.464  0.8537  0.1388  0.3629
26344WAT      O 7180  -2.350   1.669   7.974 -0.4850 -0.5939 -0.5406
26344WAT     H1 7181  -2.347   1.763   7.955  0.0881 -0.3417  0.7539
26344WAT     H2 7182  -2.420   1.637   7.916  0.5414  0.2782 -2.3761
26344WAT    EPW 7183  -2.359   1.678   7.964 -0.2741 -0.4456 -0.6118
26345WAT      O 7184   3.719   3.662   0.948 -0.3652 -0.6193 -1.1005
26345WAT     H1 7185   3.704   3.756   0.957  0.6739 -0.6250  1.9084
26345WAT     H2 7186   3.810   3.655   0.918 -1.1388 -0.7413 -3.6937
26345WAT    EPW 7187   3.729   3.674   0.945 -0.3302 -0.6361 -1.0456
26346WAT      O 7188   0.823   4.853   1.622  0.5002  0.4165 -0.5924
26346WAT     H1 7189   0.756   4.919   1.641 -0.7326 -0.6873 -0.9687
26346WAT     H2 7190   0.892   4.902   1.577  0.1744  1.6669  0.2007
26346WAT    EPW 7191   0.823   4.868   1.618  0.2946  0.4356 -0.5375
26347WAT      O 7192  -5.170   4.114   8.212 -0.3280  0.1616  0.0482
26347WAT     H1 7193  -5.232   4.129   8.284 -1.4356 -0.0812 -0.8436
26347WAT     H2 7194  -5.172   4.196   8.162  1.5708  0.9108  1.0912
26347WAT    EPW 7195  -5.178   4.127   8.215 -0.2236  0.2284  0.0682
26348WAT      O 7196   2.092   0.678   2.945 -0.2604 -0.2165  0.1939
26348WAT     H1 7197   2.037   0.611   2.986  0.5898 -1.0455  0.0154
26348WAT     H2 7198   2.031   0.748   2.922 -1.2786 -1.1643 -0.1170
26348WAT    EPW 7199   2.077   0.678   2.947 -0.2825 -0.4508  0.1292
26349WAT      O 7200   0.086   5.430   5.109 -0.7212 -0.2184 -0.2887
26349WAT     H1 7201   0.098   5.395   5.021  0.8575 -1.7908  0.4889
26349WAT     H2 7202   0.021   5.500   5.099  1.9668  2.1205 -3.2792
26349WAT    EPW 7203   0.079   5.435   5.096 -0.1584 -0.1173 -0.5805
26350WAT      O 7204   3.575   4.641   7.844 -0.4360 -0.2878  0.1324
26350WAT     H1 7205   3.530   4.694   7.777 -0.6757  0.1015  0.5993
26350WAT     H2 7206   3.651   4.604   7.798 -1.3202 -1.1030 -0.7225
26350WAT    EPW 7207   3.579   4.643   7.829 -0.5844 -0.3438  0.0813
26351WAT      O 7208   2.528   2.834   8.374  0.9847  0.1387 -0.3737
26351WAT     H1 7209   2.573   2.863   8.295 -0.1866  2.4348 -0.2822
26351WAT     H2 7210   2.512   2.914   8.423  0.5784 -1.0987  1.6270
26351WAT    EPW 7211   2.532   2.848   8.370  0.7768  0.2784 -0.0982
26352WAT      O 7212  -7.045   8.373   7.371 -0.4726  0.7683 -0.5042
26352WAT     H1 7213  -7.066   8.466   7.357 -1.6795  0.6061  0.1175
26352WAT     H2 7214  -7.114   8.341   7.429  0.2948 -0.3711 -0.1834
26352WAT    EPW 7215  -7.057   8.381   7.377 -0.5305  0.5970 -0.3798
26353WAT      O 7216  -1.241   4.018   0.042 -0.0430 -0.2004  0.1824
26353WAT     H1 7217  -1.292   3.979  -0.029  0.4620  3.3402 -2.4256
26353WAT     H2 7218  -1.163   3.964   0.049  0.3311 -0.1953 -2.7446
26353WAT    EPW 7219  -1.237   4.006   0.033  0.0730  0.2673 -0.5476
26354WAT      O 7220   3.848   5.841   3.504  0.0171 -0.5941 -0.1203
26354WAT     H1 7221   3.854   5.934   3.526 -2.3841 -0.3662 -0.1969
26354WAT     H2 7222   3.932   5.805   3.532  0.2989  1.2385  1.6612
26354WAT    EPW 7223   3.860   5.849   3.510 -0.2624 -0.3221  0.1047
26355WAT      O 7224   8.341   2.844   1.787  0.4536 -0.7874 -0.6290
26355WAT     H1 7225   8.310   2.928   1.753  0.7610 -0.9838 -1.4197
26355WAT     H2 7226   8.271   2.815   1.845  0.9008  0.6154  0.6821
26355WAT    EPW 7227   8.327   2.851   1.790  0.5531 -0.6282 -0.5603
26356WAT      O 7228   5.496   6.709   3.734 -0.0421 -0.1490  0.3637
26356WAT     H1 7229   5.469   6.769   3.804  2.4527  2.2467 -0.5528
26356WAT     H2 7230   5.417   6.695   3.682 -1.2813  0.2702  2.0356
26356WAT    EPW 7231   5.482   6.715   3.737  0.1233  0.2224  0.4634
26357WAT      O 7232   2.901   0.694   7.696 -0.7616  0.8626  0.2200
26357WAT     H1 7233   2.808   0.706   7.679 -0.4150  0.3636 -2.5077
26357WAT     H2 7234   2.943   0.766   7.649  0.3681 -0.8652 -1.5363
26357WAT    EPW 7235   2.894   0.705   7.688 -0.5668  0.5689 -0.3715
26358WAT      O 7236   3.994   0.861   2.916  0.1112  0.2875 -0.2460
26358WAT     H1 7237   3.960   0.883   3.003 -1.0308 -0.0056 -0.5977
26358WAT     H2 7238   3.943   0.915   2.856  0.8547  0.4510 -0.7492
26358WAT    EPW 7239   3.983   0.871   2.919  0.0587  0.2704 -0.3587
26359WAT      O 7240   0.687   7.394   7.606  0.5549  0.3079 -0.2133
26359WAT     H1 7241   0.641   7.370   7.526  1.1564  0.8611 -0.7338
26359WAT     H2 7242   0.776   7.362   7.593  0.8016  0.8928 -0.0090
26359WAT    EPW 7243   0.692   7.387   7.594  0.6668  0.4580 -0.2549
26360WAT      O 7244   3.069   2.886   8.015  0.2349  0.2873  0.0807
26360WAT     H1 7245   3.017   2.935   8.079  2.3621  0.2148  2.0047
26360WAT     H2 7246   3.146   2.941   8.000  1.5921 -1.3793  0.5536
26360WAT    EPW 7247   3.072   2.900   8.021  0.6945  0.0579  0.3972
26361WAT      O 7248   2.106   5.457   3.488  0.5365 -0.2243 -0.1366
26361WAT     H1 7249   2.126   5.471   3.396  2.2231  3.4669  0.5774
26361WAT     H2 7250   2.174   5.397   3.518 -0.2018 -1.6919 -1.2848
26361WAT    EPW 7251   2.118   5.451   3.480  0.6616  0.0689 -0.1940
26362WAT      O 7252   4.013  10.116   4.829 -0.1494  0.3230 -0.2159
26362WAT     H1 7253   4.043  10.058   4.759 -1.0179  2.3491 -2.3817
26362WAT     H2 7254   4.015  10.061   4.907  0.7232 -2.0989 -1.8145
26362WAT    EPW 7255   4.017  10.101   4.830 -0.1488  0.2713 -0.7126
26363WAT      O 7256   3.672   7.491   1.744  0.1637 -0.1383  0.4465
26363WAT     H1 7257   3.743   7.429   1.727  0.1993 -0.6892  2.4242
26363WAT     H2 7258   3.693   7.529   1.829 -0.3909  1.8976 -0.2689
26363WAT    EPW 7259   3.684   7.488   1.753  0.0952  0.0575  0.6129
26364WAT      O 7260  -1.344   3.997   4.423  0.2723 -0.3272  0.2429
26364WAT     H1 7261  -1.251   3.986   4.407  0.3831  0.2846  0.4230
26364WAT     H2 7262  -1.363   3.941   4.499  0.5458 -0.2558  0.3630
26364WAT    EPW 7263  -1.335   3.988   4.431  0.3230 -0.2372  0.2825
26365WAT      O 7264   0.404   9.243   7.403 -0.3864  0.6516 -0.6631
26365WAT     H1 7265   0.488   9.203   7.380  0.7219  1.3629  1.8180
26365WAT     H2 7266   0.340   9.174   7.383  0.7136  0.0849 -2.5997
26365WAT    EPW 7267   0.407   9.228   7.397 -0.0952  0.6709 -0.5913
26366WAT      O 7268   6.741   2.768   5.257 -0.3805 -0.1760  0.4185
26366WAT     H1 7269   6.646   2.758   5.264 -0.2163 -0.7927  2.3005
26366WAT     H2 7270   6.764   2.831   5.325  0.6693 -0.8635  0.7392
26366WAT    EPW 7271   6.732   2.775   5.267 -0.2205 -0.3480  0.7091
26367WAT      O 7272  -4.658   9.553   5.614  0.1731 -0.4201  0.2030
26367WAT     H1 7273  -4.676   9.476   5.559 -0.6315  0.1702 -0.3773
26367WAT     H2 7274  -4.566   9.544   5.638  0.4168 -0.9398 -0.8650
26367WAT    EPW 7275  -4.648   9.541   5.610  0.0992 -0.4106 -0.0143
26368WAT      O 7276   4.366   1.352   7.712 -0.2395 -0.3231  0.1529
26368WAT     H1 7277   4.409   1.275   7.675  0.4897  0.6212 -1.0285
26368WAT     H2 7278   4.412   1.426   7.674 -1.6904  0.7208  0.3478
26368WAT    EPW 7279   4.377   1.351   7.702 -0.3345 -0.0609  0.0229
26369WAT      O 7280  -3.534   9.357   7.329 -0.0250  0.2963 -0.5113
26369WAT     H1 7281  -3.621   9.392   7.351 -0.7731 -1.3482 -0.6930
26369WAT     H2 7282  -3.486   9.360   7.411 -1.0947 -1.0279  0.2041
26369WAT    EPW 7283  -3.539   9.362   7.343 -0.2648 -0.0954 -0.4411
26370WAT      O 7284  -4.065   9.268   6.030  0.1303  0.0835 -0.1476
26370WAT     H1 7285  -4.085   9.210   6.104  0.4995 -0.0419 -0.1441
26370WAT     H2 7286  -4.046   9.353   6.070 -0.1540  0.1403 -0.1336
26370WAT    EPW 7287  -4.065   9.272   6.045  0.1414  0.0744 -0.1454
26371WAT      O 7288   3.823   6.839   7.549 -0.1198 -0.3379  0.2469
26371WAT     H1 7289   3.880   6.782   7.498 -0.0917  1.0849 -1.3897
26371WAT     H2 7290   3.854   6.928   7.530 -1.8576  0.3777  0.5680
26371WAT    EPW 7291   3.835   6.844   7.540 -0.3453 -0.0560  0.0734
26372WAT      O 7292  -0.651   6.158   5.727  0.5050  0.0485  0.0283
26372WAT     H1 7293  -0.585   6.131   5.663 -0.3240  0.6171 -1.1078
26372WAT     H2 7294  -0.617   6.240   5.764  0.3953  0.4053 -0.6432
26372WAT    EPW 7295  -0.638   6.165   5.724  0.3812  0.1707 -0.2100
26373WAT      O 7296  -1.313   8.491   0.585 -0.3879  0.7289  0.1399
26373WAT     H1 7297  -1.396   8.455   0.554 -0.1239 -3.8377  3.7307
26373WAT     H2 7298  -1.246   8.438   0.542  0.4624  1.3793  0.6236
26373WAT    EPW 7299  -1.315   8.479   0.575 -0.2409  0.2122  0.6773
26374WAT      O 7300   4.431  10.044   4.616 -0.2341 -0.0137  0.5630
26374WAT     H1 7301   4.420  10.121   4.671  0.3424  1.2824 -1.0624
26374WAT     H2 7302   4.343  10.021   4.587 -0.1959  1.9476 -1.3685
26374WAT    EPW 7303   4.418  10.051   4.619 -0.1528  0.4163  0.0939
26375WAT      O 7304  10.022   0.748   0.383  0.6331 -0.1378 -0.4364
26375WAT     H1 7305   9.950   0.811   0.393  0.2731 -0.5656 -0.3290
26375WAT     H2 7306  10.038   0.746   0.288  1.3687  0.9152 -0.3527
26375WAT    EPW 7307  10.014   0.756   0.372  0.6824 -0.0553 -0.4112
26376WAT      O 7308   8.246   0.327   2.865  0.5872  0.0918  0.3314
26376WAT     H1 7309   8.240   0.397   2.801 -1.1836 -0.7875 -0.5408
26376WAT     H2 7310   8.274   0.370   2.946 -0.5247  1.8313 -0.1584
26376WAT    EPW 7311   8.249   0.342   2.868  0.2069  0.2053  0.1518
26377WAT      O 7312   2.204   1.521   0.639 -0.3128 -0.0249  0.3320
26377WAT     H1 7313   2.280   1.534   0.582 -1.3472  0.6633 -0.9455
26377WAT     H2 7314   2.151   1.600   0.626 -0.9729 -0.2384  1.6319
26377WAT    EPW 7315   2.207   1.533   0.630 -0.5363  0.0377  0.3349
26378WAT      O 7316  -1.577   4.516   7.592 -0.8656  0.5923  0.3649
26378WAT     H1 7317  -1.633   4.519   7.669  0.7050 -0.8001  1.6383
26378WAT     H2 7318  -1.576   4.424   7.567  1.6976  0.3218  1.1232
26378WAT    EPW 7319  -1.584   4.504   7.599 -0.3204  0.3729  0.6328
26379WAT      O 7320  -0.187   5.053   8.176  0.0947  0.2446 -0.7173
26379WAT     H1 7321  -0.166   5.078   8.266  1.5996  0.0987 -1.0119
26379WAT     H2 7322  -0.255   5.115   8.150 -3.2773 -2.0642  1.7495
26379WAT    EPW 7323  -0.193   5.065   8.184 -0.1516 -0.0792 -0.4311
26380WAT      O 7324   7.945   2.290   2.911 -0.5947  0.2634  0.1928
26380WAT     H1 7325   7.952   2.221   2.977  3.4352  1.3623  1.1586
26380WAT     H2 7326   7.958   2.245   2.827 -0.0620 -0.4139  0.6298
26380WAT    EPW 7327   7.947   2.275   2.909  0.0067  0.3190  0.3777
26381WAT      O 7328   1.481   6.574   6.267 -0.4438 -0.1324  0.1114
26381WAT     H1 7329   1.576   6.578   6.265 -0.3437 -1.7797 -0.8560
26381WAT     H2 7330   1.453   6.659   6.299  1.3472  0.4726  0.1331
26381WAT    EPW 7331   1.490   6.585   6.271 -0.1944 -0.2701 -0.0131
26382WAT      O 7332   7.647   7.831   0.831  0.0162 -0.4007 -0.1039
26382WAT     H1 7333   7.723   7.827   0.890  0.0035  0.6199 -0.0007
26382WAT     H2 7334   7.577   7.866   0.886 -0.0673  0.2992 -0.6424
26382WAT    EPW 7335   7.648   7.835   0.846  0.0036 -0.1738 -0.1613
26383WAT      O 7336  -0.809   8.475   0.168  0.6025 -0.4535  0.3171
26383WAT     H1 7337  -0.753   8.546   0.136  0.6770 -1.2539 -1.4746
26383WAT     H2 7338  -0.849   8.510   0.247  2.4933  0.6820  0.8365
26383WAT    EPW 7339  -0.807   8.489   0.174  0.8617 -0.4091  0.1493
26384WAT      O 7340   1.204   7.247   4.737 -0.1021 -0.0138  0.7865
26384WAT     H1 7341   1.217   7.172   4.679 -0.5327 -1.0069  1.9378
26384WAT     H2 7342   1.268   7.312   4.706 -0.2978 -0.5104 -0.7532
26384WAT    EPW 7343   1.214   7.246   4.725 -0.1848 -0.2103  0.7353
26385WAT      O 7344   1.166   1.974   4.316  0.4703  0.2008 -0.0526
26385WAT     H1 7345   1.176   1.878   4.319 -0.1580  0.1512  1.7833
26385WAT     H2 7346   1.250   2.008   4.346  0.5415  0.2162 -0.2680
26385WAT    EPW 7347   1.178   1.966   4.321  0.3968  0.1963  0.1612
26386WAT      O 7348  -5.055   8.549   6.665 -0.6479 -0.0210 -0.1694
26386WAT     H1 7349  -5.052   8.640   6.692  1.5303 -0.2962  0.7049
26386WAT     H2 7350  -4.968   8.514   6.685 -0.2008 -1.3866 -3.6446
26386WAT    EPW 7351  -5.043   8.556   6.671 -0.3018 -0.2375 -0.5126
26387WAT      O 7352   0.179   3.839   3.941  0.2288  0.2682  0.7275
26387WAT     H1 7353   0.225   3.797   3.868 -0.4799 -1.6668  1.3263
26387WAT     H2 7354   0.220   3.924   3.949  1.1333  0.0671 -1.1641
26387WAT    EPW 7355   0.190   3.844   3.933  0.2546 -0.0134  0.5571
26388WAT      O 7356   0.951   0.141   1.131 -0.1723  0.3547  0.3946
26388WAT     H1 7357   0.943   0.157   1.225 -1.7907 -2.2027  0.8074
26388WAT     H2 7358   0.864   0.110   1.105  0.2772  0.8726 -1.9315
26388WAT    EPW 7359   0.938   0.139   1.140 -0.3265  0.0857  0.1423
26389WAT      O 7360  -1.587   5.430   0.186  0.5541  0.0372  0.2272
26389WAT     H1 7361  -1.636   5.443   0.105 -0.2258 -1.2571  0.4658
26389WAT     H2 7362  -1.655   5.412   0.252  1.3424 -3.3185  0.2955
26389WAT    EPW 7363  -1.603   5.430   0.184  0.5552 -0.5758  0.2677
26390WAT      O 7364  -2.048   9.824   0.813  0.4739 -0.2250  0.5185
26390WAT     H1 7365  -1.999   9.801   0.892 -1.8140 -1.4571  1.6905
26390WAT     H2 7366  -2.095   9.745   0.790 -2.5535  1.3531  0.7501
26390WAT    EPW 7367  -2.048   9.811   0.821 -0.2272 -0.1793  0.7036
26391WAT      O 7368  -5.166   5.482   7.587 -0.4796  0.2541  0.4315
26391WAT     H1 7369  -5.142   5.463   7.678  1.2046  1.8000  0.3744
26391WAT     H2 7370  -5.250   5.438   7.575  0.3880 -2.0200  1.9757
26391WAT    EPW 7371  -5.174   5.474   7.598 -0.1433  0.1581  0.6275
26392WAT      O 7372  -2.456   2.453   4.973 -0.4905 -0.2311  0.3873
26392WAT     H1 7373  -2.501   2.493   4.898 -1.5715 -1.7323  0.1902
26392WAT     H2 7374  -2.490   2.501   5.049  0.3219  1.0432 -0.0153
26392WAT    EPW 7375  -2.467   2.465   4.973 -0.5260 -0.2611  0.3080
26393WAT      O 7376   2.700   4.643   0.530 -0.1451 -0.2778  0.6332
26393WAT     H1 7377   2.696   4.587   0.452 -0.1751  1.0465 -0.3584
26393WAT     H2 7378   2.699   4.582   0.603  0.6010 -1.6087 -0.4117
26393WAT    EPW 7379   2.699   4.628   0.529 -0.0505 -0.2785  0.3646
26394WAT      O 7380   3.358   8.340   0.215 -0.2517  0.1292 -0.1119
26394WAT     H1 7381   3.350   8.299   0.301 -1.7797 -2.6943 -1.4614
26394WAT     H2 7382   3.450   8.367   0.210 -0.2813  1.1154  2.6183
26394WAT    EPW 7383   3.369   8.338   0.226 -0.4572 -0.1130  0.0702
26395WAT      O 7384   2.753  10.069   3.851  0.4620  0.4162 -0.2974
26395WAT     H1 7385   2.665  10.038   3.872  0.7939  0.1928  0.8734
26395WAT     H2 7386   2.773  10.133   3.919  0.0122  2.8732 -2.3419
26395WAT    EPW 7387   2.744  10.073   3.863  0.4464  0.7110 -0.4126
26396WAT      O 7388   5.824   7.458   2.074 -1.0493 -0.1845 -0.2499
26396WAT     H1 7389   5.807   7.471   2.167 -1.5129 -1.1070 -0.1954
26396WAT     H2 7390   5.899   7.515   2.055 -2.5099  2.0018  0.0962
26396WAT    EPW 7391   5.832   7.467   2.083 -1.3030 -0.0179 -0.1972
26397WAT      O 7392   2.665   6.658   1.391  0.3565  0.0126  0.0157
26397WAT     H1 7393   2.755   6.647   1.363  0.5762  0.8211  0.3688
26397WAT     H2 7394   2.629   6.569   1.393  0.2166 -0.1031 -3.0985
26397WAT    EPW 7395   2.672   6.645   1.387  0.3669  0.1040 -0.3484
26398WAT      O 7396  -1.176   5.098   5.471 -0.7160  0.1524 -0.2779
26398WAT     H1 7397  -1.241   5.033   5.443 -0.5377 -0.6441  1.0239
26398WAT     H2 7398  -1.133   5.057   5.547  2.7200 -0.2495 -2.2338
26398WAT    EPW 7399  -1.179   5.084   5.477 -0.2393 -0.0057 -0.3641
26399WAT      O 7400   4.655   7.234   6.228  0.0038 -0.2397  0.0075
26399WAT     H1 7401   4.644   7.158   6.171 -0.8173 -0.2675  0.1935
26399WAT     H2 7402   4.592   7.298   6.196 -0.0769 -0.0472  0.5293
26399WAT    EPW 7403   4.645   7.232   6.217 -0.1152 -0.2182  0.1009
26400WAT      O 7404  -0.908   5.623   7.373 -0.5191 -0.0925 -0.6913
26400WAT     H1 7405  -0.946   5.547   7.416  0.9522 -1.1413 -1.1799
26400WAT     H2 7406  -0.974   5.650   7.309 -0.5585 -1.7386 -1.3929
26400WAT    EPW 7407  -0.922   5.617   7.370 -0.3303 -0.4478 -0.8483
26401WAT      O 7408   5.160   0.108   1.524  0.3292 -0.8925 -0.2313
26401WAT     H1 7409   5.103   0.087   1.599  0.6111 -0.1229  0.2042
26401WAT     H2 7410   5.236   0.051   1.535  1.5441  0.9208  1.4842
26401WAT    EPW 7411   5.162   0.098   1.535  0.5267 -0.5519  0.0524
26402WAT      O 7412  -1.816   6.123   7.661 -0.2474 -0.1109  0.8155
26402WAT     H1 7413  -1.895   6.177   7.668 -2.2930 -2.8327  0.3544
26402WAT     H2 7414  -1.805   6.108   7.567  0.2433 -0.5548  0.9339
26402WAT    EPW 7415  -1.825   6.128   7.649 -0.4525 -0.5286  0.7703
26403WAT      O 7416  -1.433   5.087   0.383 -0.1696 -0.0771  0.4061
26403WAT     H1 7417  -1.494   5.157   0.404  2.1463  2.2936 -0.2223
26403WAT     H2 7418  -1.359   5.101   0.442  1.1909 -0.7584 -1.0626
26403WAT    EPW 7419  -1.431   5.098   0.393  0.3154  0.1457  0.1295
26404WAT      O 7420   6.910   2.126   0.919  0.0099  0.1778 -1.5580
26404WAT     H1 7421   6.866   2.210   0.931  0.6620  0.5093 -1.4387
26404WAT     H2 7422   6.878   2.094   0.834  0.1103  0.7738 -1.8287
26404WAT    EPW 7423   6.900   2.132   0.909  0.1094  0.3002 -1.5780
26405WAT      O 7424  -0.481   7.277   8.521  0.0830  0.1561 -0.3145
26405WAT     H1 7425  -0.401   7.232   8.495  0.9957  1.3234  0.3699
26405WAT     H2 7426  -0.552   7.219   8.493  1.0547  0.0696 -2.8756
26405WAT    EPW 7427  -0.480   7.264   8.514  0.3316  0.2985 -0.5622
26406WAT      O 7428   5.860   1.822   2.310  0.2884  0.8120 -0.1632
26406WAT     H1 7429   5.860   1.874   2.390  1.9502  3.4478 -1.7132
26406WAT     H2 7430   5.772   1.834   2.273  0.3187  1.6651  0.0376
26406WAT    EPW 7431   5.848   1.830   2.316  0.5116  1.2722 -0.3412
26407WAT      O 7432   5.094   6.855   3.912  0.2450 -0.4200 -0.5959
26407WAT     H1 7433   5.003   6.831   3.897  0.3444 -0.4428 -1.1854
26407WAT     H2 7434   5.100   6.869   4.007 -0.3399 -0.5312 -0.5397
26407WAT    EPW 7435   5.083   6.854   3.923  0.1810 -0.4375 -0.6663
26408WAT      O 7436   5.581   0.929   6.671  0.2338  0.0075  0.2398
26408WAT     H1 7437   5.540   0.964   6.750  1.9260  2.1564  0.2753
26408WAT     H2 7438   5.509   0.892   6.621 -1.1364  0.1135  2.0077
26408WAT    EPW 7439   5.566   0.929   6.675  0.2763  0.3049  0.4776
26409WAT      O 7440   4.941   6.275   5.095 -1.0308 -0.4685 -0.0998
26409WAT     H1 7441   4.927   6.272   5.190  0.1721 -3.0805  0.0722
26409WAT     H2 7442   5.023   6.323   5.085 -1.9580  1.2272 -0.0013
26409WAT    EPW 7443   4.950   6.281   5.106 -0.9944 -0.5896 -0.0639
26410WAT      O 7444   5.165   1.755   5.114  0.2718  0.1148  0.2548
26410WAT     H1 7445   5.118   1.724   5.037  1.5174 -1.9851  0.2634
26410WAT     H2 7446   5.107   1.733   5.187 -1.0417  2.3660 -0.0043
26410WAT    EPW 7447   5.151   1.748   5.113  0.2627  0.1348  0.2217
26411WAT      O 7448   7.553   7.879   0.510 -0.6031  0.3000 -0.6116
26411WAT     H1 7449   7.517   7.870   0.598 -1.7502  1.9790 -0.8790
26411WAT     H2 7450   7.533   7.795   0.467  0.4132 -0.7287  0.8443
26411WAT    EPW 7451   7.546   7.866   0.516 -0.6204  0.3860 -0.4548
26412WAT      O 7452   1.806   7.327   5.123 -0.1279 -0.1617 -0.2611
26412WAT     H1 7453   1.782   7.248   5.073 -2.7873 -0.2896  1.0871
26412WAT     H2 7454   1.766   7.399   5.075 -0.4948 -0.0003  0.2847
26412WAT    EPW 7455   1.798   7.326   5.110 -0.5270 -0.1574 -0.0114
26413WAT      O 7456  -1.617   8.953   2.917  0.1425 -0.2127 -0.6892
26413WAT     H1 7457  -1.563   8.915   2.987  3.2525  2.0304 -1.6821
26413WAT     H2 7458  -1.648   9.036   2.953 -2.0215 -1.0230 -0.5004
26413WAT    EPW 7459  -1.614   8.959   2.931  0.2673 -0.0238 -0.7951
26414WAT      O 7460   6.512   3.453   0.398 -0.6509  0.8508  0.0056
26414WAT     H1 7461   6.542   3.528   0.449  3.3001 -0.2524 -0.3339
26414WAT     H2 7462   6.478   3.392   0.464  0.7709  0.9873  0.9081
26414WAT    EPW 7463   6.512   3.455   0.413  0.0579  0.7232  0.0799
26415WAT      O 7464   2.747   5.981   3.374  0.6336  0.1167 -0.1384
26415WAT     H1 7465   2.823   6.038   3.381  0.1793  0.5628  1.5470
26415WAT     H2 7466   2.775   5.898   3.411  1.0131 -0.5151 -1.7562
26415WAT    EPW 7467   2.760   5.978   3.380  0.6237  0.0923 -0.1295
26416WAT      O 7468  -4.135   2.008   6.069 -0.2234  0.8029 -0.2379
26416WAT     H1 7469  -4.096   2.096   6.069  1.4685  0.1158 -1.5703
26416WAT     H2 7470  -4.193   2.007   5.993 -0.2987  0.7901 -0.1804
26416WAT    EPW 7471  -4.137   2.019   6.059 -0.0103  0.7106 -0.4063
26417WAT      O 7472   3.257   7.163   4.839  0.2970 -1.2251 -0.2473
26417WAT     H1 7473   3.196   7.175   4.912  0.0498 -0.3429 -0.5931
26417WAT     H2 7474   3.327   7.225   4.856  0.8977 -1.9239 -0.0904
26417WAT    EPW 7475   3.258   7.172   4.851  0.3436 -1.2009 -0.2725
26418WAT      O 7476  -0.975   2.923   2.448  0.3316  0.3269 -0.3316
26418WAT     H1 7477  -1.000   2.861   2.379  2.9442 -2.8595  1.3215
26418WAT     H2 7478  -1.047   2.986   2.450 -1.3409 -1.1859 -3.8341
26418WAT    EPW 7479  -0.988   2.923   2.439  0.4556 -0.2930 -0.5754
26419WAT      O 7480  -2.610   4.982   5.555 -0.2815  0.1215  0.3945
26419WAT     H1 7481  -2.554   5.029   5.617 -0.7561  1.3150 -0.0636
26419WAT     H2 7482  -2.548   4.933   5.500  0.2204  0.2656  0.8247
26419WAT    EPW 7483  -2.594   4.981   5.556 -0.2779  0.2980  0.3910
26420WAT      O 7484   0.316   6.938   2.837 -0.0628  0.0132 -0.2215
26420WAT     H1 7485   0.269   7.017   2.808 -0.3411 -0.8220 -2.2002
26420WAT     H2 7486   0.393   6.934   2.781  2.0435  0.8803  2.4042
26420WAT    EPW 7487   0.320   6.948   2.826  0.1783  0.0174 -0.1363
26421WAT      O 7488   2.251   5.443   7.357 -0.5291 -0.2463  0.0687
26421WAT     H1 7489   2.208   5.517   7.314 -0.1763  0.6403  1.1885
26421WAT     H2 7490   2.214   5.442   7.446 -0.3272 -1.2417  0.1536
26421WAT    EPW 7491   2.241   5.452   7.363 -0.4560 -0.2608  0.2277
26422WAT      O 7492  -0.864   8.193   8.101  0.9677 -0.3010  0.1644
26422WAT     H1 7493  -0.907   8.236   8.027 -0.4701 -1.4398  0.3034
26422WAT     H2 7494  -0.907   8.108   8.108  3.3051 -1.5527  0.2855
26422WAT    EPW 7495  -0.875   8.188   8.092  1.0864 -0.6161  0.1988
26423WAT      O 7496   0.176  10.156   7.095 -0.0871  0.3537  0.1110
26423WAT     H1 7497   0.248  10.212   7.067 -0.1122 -0.5426 -1.9523
26423WAT     H2 7498   0.104  10.180   7.037 -0.0875 -1.7790 -0.8461
26423WAT    EPW 7499   0.176  10.167   7.084 -0.0905 -0.0463 -0.2875
26424WAT      O 7500   0.908   2.328   1.153  0.6855 -0.3453  0.1601
26424WAT     H1 7501   0.997   2.325   1.117  2.7615 -2.2818  4.6414
26424WAT     H2 7502   0.907   2.406   1.208 -1.0177  0.5052 -1.0098
26424WAT    EPW 7503   0.919   2.338   1.156  0.7347 -0.4886  0.5969
26425WAT      O 7504  -3.149   2.376   4.548 -0.4419  0.0480 -0.1955
26425WAT     H1 7505  -3.234   2.342   4.574  0.0670 -0.4254  0.9197
26425WAT     H2 7506  -3.117   2.315   4.482 -1.6352  1.1168 -1.8422
26425WAT    EPW 7507  -3.156   2.364   4.543 -0.5320  0.1265 -0.2656
26426WAT      O 7508   3.726   0.399   8.840  0.0186 -0.5068  0.4198
26426WAT     H1 7509   3.786   0.387   8.913  0.8801 -0.0985 -0.2083
26426WAT     H2 7510   3.706   0.310   8.811  0.9645 -0.6351  0.1275
26426WAT    EPW 7511   3.731   0.385   8.846  0.2570 -0.4698  0.2985
26427WAT      O 7512   4.880   9.262   4.432 -0.0144  0.2930  0.2740
26427WAT     H1 7513   4.839   9.179   4.409 -0.3460  0.3979  0.4760
26427WAT     H2 7514   4.862   9.319   4.357 -0.1122  0.2916  0.2956
26427WAT    EPW 7515   4.872   9.259   4.419 -0.0708  0.3066  0.3035
26428WAT      O 7516   6.921   1.604   0.336 -0.6620  0.5093 -0.3497
26428WAT     H1 7517   6.895   1.523   0.379 -0.6866 -0.0663 -1.4257
26428WAT     H2 7518   6.963   1.655   0.406 -0.6752 -0.4015  0.3487
26428WAT    EPW 7519   6.923   1.600   0.351 -0.6669  0.3132 -0.3995
26429WAT      O 7520   7.372   1.240   1.870 -0.1667 -0.1571 -0.1430
26429WAT     H1 7521   7.352   1.334   1.863  0.8343 -0.0469 -1.9286
26429WAT     H2 7522   7.391   1.227   1.963  0.9048  1.6786 -0.0603
26429WAT    EPW 7523   7.372   1.251   1.881  0.1066  0.0995 -0.3676
26430WAT      O 7524  -0.959  10.288   1.900 -1.0898 -0.4761  0.3504
26430WAT     H1 7525  -0.966  10.381   1.924 -1.3809 -0.6639  1.0051
26430WAT     H2 7526  -1.044  10.266   1.862 -0.5708 -0.1342 -1.0713
26430WAT    EPW 7527  -0.971  10.298   1.898 -1.0597 -0.4559  0.2492
26431WAT      O 7528  -3.255   8.732   5.228  1.0981  0.5581  0.4071
26431WAT     H1 7529  -3.303   8.815   5.228  1.7322  0.9495  1.4444
26431WAT     H2 7530  -3.277   8.692   5.312  0.8091 -0.3301 -0.0818
26431WAT    EPW 7531  -3.264   8.738   5.239  1.1436  0.4926  0.4795
26432WAT      O 7532   1.746   3.612   3.985  0.0462 -0.1064 -0.2966
26432WAT     H1 7533   1.672   3.658   3.944  0.2809  0.5491  0.0080
26432WAT     H2 7534   1.814   3.611   3.918 -0.4857 -1.4074 -0.8663
26432WAT    EPW 7535   1.745   3.618   3.971  0.0070 -0.1916 -0.3315
26433WAT      O 7536   3.135   1.421   0.725  0.2849  0.4806 -0.1151
26433WAT     H1 7537   3.219   1.381   0.702  0.3559 -0.0769  0.9952
26433WAT     H2 7538   3.081   1.410   0.648  1.3432  1.2019 -0.9983
26433WAT    EPW 7539   3.139   1.414   0.712  0.4339  0.5022 -0.0852
26434WAT      O 7540   0.102   1.885   2.171  1.1464  0.9143  0.3127
26434WAT     H1 7541   0.070   1.954   2.228  0.3735  1.3703 -0.6371
26434WAT     H2 7542   0.191   1.912   2.148  1.1920  1.1008  0.7048
26434WAT    EPW 7543   0.110   1.898   2.175  1.0505  0.9990  0.2391
26435WAT      O 7544  -1.805  10.303   0.213 -0.2359 -0.1764  0.1114
26435WAT     H1 7545  -1.734  10.238   0.208  0.8275  0.8131  1.4333
26435WAT     H2 7546  -1.821  10.313   0.307 -0.9901  0.8365 -0.1120
26435WAT    EPW 7547  -1.798  10.295   0.225 -0.1951  0.0873  0.2563
26436WAT      O 7548  -6.017  10.001   8.622  1.0229 -0.2783 -0.2749
26436WAT     H1 7549  -5.955  10.068   8.651  1.6914 -0.3299 -1.5007
26436WAT     H2 7550  -6.031  10.020   8.529 -1.4284  0.1885  0.1206
26436WAT    EPW 7551  -6.010  10.012   8.613  0.7877 -0.2236 -0.3843
26437WAT      O 7552   3.808   5.300   0.396  0.0814 -0.4999  1.2471
26437WAT     H1 7553   3.761   5.358   0.455  1.0806  0.5416  1.0570
26437WAT     H2 7554   3.900   5.308   0.422  0.8661  1.5833 -1.6524
26437WAT    EPW 7555   3.814   5.308   0.407  0.3167 -0.0877  0.8396
26438WAT      O 7556  -4.782   1.370   7.663 -0.8973 -0.3267 -0.2752
26438WAT     H1 7557  -4.838   1.419   7.724 -0.8671  0.9797 -1.2610
26438WAT     H2 7558  -4.695   1.373   7.704 -1.3741 -1.8061  0.9369
26438WAT    EPW 7559  -4.778   1.377   7.677 -0.9561 -0.3495 -0.2453
26439WAT      O 7560   0.354   1.259   3.052 -0.4897 -0.3073  0.3783
26439WAT     H1 7561   0.407   1.234   2.977 -1.5375  0.3427 -0.6128
26439WAT     H2 7562   0.265   1.269   3.016 -1.0514 -0.1725  1.7390
26439WAT    EPW 7563   0.349   1.257   3.037 -0.7020 -0.2038  0.4271
26440WAT      O 7564  -1.958   6.356   3.904 -0.3539 -0.0955  0.5631
26440WAT     H1 7565  -1.968   6.333   3.997  1.3070 -0.1062  0.7623
26440WAT     H2 7566  -2.033   6.412   3.886  0.2339  1.4240  2.4218
26440WAT    EPW 7567  -1.969   6.360   3.914 -0.0573  0.1037  0.8346
26441WAT      O 7568  -0.063   5.270   3.773  0.2276  0.6923  0.3812
26441WAT     H1 7569   0.029   5.277   3.798  0.9167 -0.3819 -1.6374
26441WAT     H2 7570  -0.083   5.177   3.781 -1.0071  1.0361  1.7085
26441WAT    EPW 7571  -0.053   5.259   3.777  0.1557  0.5960  0.2900
26442WAT      O 7572   3.944   5.121   5.874  0.0346  0.4432 -1.0504
26442WAT     H1 7573   3.883   5.141   5.945  1.5839 -1.5163  0.9630
26442WAT     H2 7574   3.999   5.199   5.868  1.7076 -0.3242  2.0118
26442WAT    EPW 7575   3.943   5.134   5.883  0.4596  0.0837 -0.3810
26443WAT      O 7576   5.007   4.174   3.150 -0.1739 -0.4214  0.3726
26443WAT     H1 7577   4.983   4.233   3.079  0.6769  0.2463  0.6188
26443WAT     H2 7578   4.996   4.227   3.229 -1.6640 -1.3300  0.8072
26443WAT    EPW 7579   5.002   4.189   3.151 -0.2582 -0.4532  0.4624
26444WAT      O 7580   0.337   4.543   6.272 -0.0784  0.3458 -0.3607
26444WAT     H1 7581   0.400   4.585   6.212 -0.1186  1.8732  0.6421
26444WAT     H2 7582   0.391   4.480   6.321  0.5892  1.3011  0.1579
26444WAT    EPW 7583   0.353   4.540   6.270  0.0043  0.6733 -0.1600
26445WAT      O 7584   0.946   7.976   1.099 -0.9355  0.6569  0.4133
26445WAT     H1 7585   0.973   8.057   1.056  1.1250 -1.6736 -3.1459
26445WAT     H2 7586   0.857   7.960   1.066 -0.9422  0.9222  0.3015
26445WAT    EPW 7587   0.938   7.985   1.089 -0.6647  0.3843 -0.0708
26446WAT      O 7588  -0.595   6.124   0.518  0.2594  0.2584 -0.0983
26446WAT     H1 7589  -0.660   6.089   0.457 -1.3829 -1.0075  2.2239
26446WAT     H2 7590  -0.634   6.205   0.551  1.6107  1.5049 -1.3924
26446WAT    EPW 7591  -0.609   6.130   0.514  0.2210  0.2558  0.0373
26447WAT      O 7592   1.752   7.789   0.460  0.0431  0.0953  0.7555
26447WAT     H1 7593   1.686   7.842   0.416 -2.0059 -2.3114  0.6486
26447WAT     H2 7594   1.824   7.783   0.397 -1.1579 -0.0559 -0.6644
26447WAT    EPW 7595   1.753   7.795   0.446 -0.3856 -0.2420  0.5542
26448WAT      O 7596  -0.283   6.043   7.290 -0.3369  0.0832  0.5401
26448WAT     H1 7597  -0.347   6.053   7.361 -2.6429  1.8046 -1.5840
26448WAT     H2 7598  -0.204   6.085   7.324 -1.2184  0.4639  2.2508
26448WAT    EPW 7599  -0.281   6.050   7.304 -0.7573  0.3605  0.4859
26449WAT      O 7600   1.594   4.817   2.291  0.8309 -0.3766 -0.1146
26449WAT     H1 7601   1.605   4.898   2.340 -1.0652 -0.7709  1.0754
26449WAT     H2 7602   1.596   4.844   2.199 -2.3449  1.5255  0.2112
26449WAT    EPW 7603   1.595   4.831   2.286  0.1620 -0.1776  0.0852
26450WAT      O 7604  -7.461   9.761   6.747  0.2771  1.0415 -0.7878
26450WAT     H1 7605  -7.501   9.786   6.664  0.7818 -0.3045 -1.4727
26450WAT     H2 7606  -7.432   9.670   6.733  0.3598  0.7870  0.8626
26450WAT    EPW 7607  -7.462   9.752   6.734  0.3545  0.8307 -0.6604
26451WAT      O 7608   3.288   3.790   6.064  0.0935  0.3490 -0.0911
26451WAT     H1 7609   3.276   3.855   5.996 -0.1950  0.8225  0.4043
26451WAT     H2 7610   3.203   3.786   6.109 -0.7250 -2.1768 -1.6667
26451WAT    EPW 7611   3.275   3.798   6.061 -0.0525  0.0783 -0.2337
26452WAT      O 7612   5.746   1.489   4.986  0.0714 -0.0239  0.4376
26452WAT     H1 7613   5.720   1.418   5.045  0.2233 -1.5180 -1.1900
26452WAT     H2 7614   5.749   1.448   4.899  2.6566  1.3450 -0.2314
26452WAT    EPW 7615   5.743   1.474   4.982  0.4325 -0.0405  0.1349
26453WAT      O 7616  -0.263   0.895   6.218 -0.2955  0.5339  0.0243
26453WAT     H1 7617  -0.289   0.841   6.292 -0.7962  0.9727  0.1724
26453WAT     H2 7618  -0.168   0.898   6.223 -0.2416 -0.4640 -0.0814
26453WAT    EPW 7619  -0.254   0.888   6.228 -0.3545  0.4601  0.0300
26454WAT      O 7620  -3.284   7.535   3.537  0.5388 -0.3787  0.1613
26454WAT     H1 7621  -3.320   7.559   3.622 -0.2982 -0.0574 -0.2746
26454WAT     H2 7622  -3.361   7.518   3.482  1.0660 -2.4815 -0.0109
26454WAT    EPW 7623  -3.299   7.535   3.541  0.4979 -0.6137  0.0812
26455WAT      O 7624   6.923   2.809   4.261 -0.0104 -0.7913  0.4292
26455WAT     H1 7625   7.003   2.844   4.222  1.0257 -0.2881  2.8121
26455WAT     H2 7626   6.859   2.809   4.190  2.0137 -0.9291 -1.4764
26455WAT    EPW 7627   6.925   2.814   4.247  0.3932 -0.7432  0.4921
26456WAT      O 7628   2.271   2.948   8.160  0.0440  0.0356  0.5007
26456WAT     H1 7629   2.302   2.862   8.131  0.4914  0.3987 -0.1114
26456WAT     H2 7630   2.308   3.010   8.097  2.7334  1.1010  2.9316
26456WAT    EPW 7631   2.280   2.945   8.148  0.4578  0.2239  0.7405
26457WAT      O 7632  -6.351   5.071   8.164  0.1314 -1.0343 -0.1914
26457WAT     H1 7633  -6.432   5.042   8.123 -2.1953  1.5539  2.1243
26457WAT     H2 7634  -6.328   5.000   8.225 -2.7280 -0.3356  1.9314
26457WAT    EPW 7635  -6.358   5.057   8.167 -0.5527 -0.6008  0.3943
26458WAT      O 7636  -0.556   1.289   1.730 -0.1031  0.1878  0.6631
26458WAT     H1 7637  -0.580   1.350   1.799 -1.0389 -0.0009  0.5193
26458WAT     H2 7638  -0.608   1.316   1.655  0.6354  0.1672  0.1272
26458WAT    EPW 7639  -0.566   1.301   1.729 -0.1291  0.1602  0.5735
26459WAT      O 7640  -1.046   8.955   4.020  0.4660 -0.7524 -0.7028
26459WAT     H1 7641  -1.098   8.902   4.080  0.0475 -0.5411 -0.8755
26459WAT     H2 7642  -0.987   9.005   4.077  0.7085 -1.2308 -0.5266
26459WAT    EPW 7643  -1.045   8.955   4.036  0.4428 -0.7873 -0.7024
26460WAT      O 7644   0.520   8.811   1.589  0.3140  0.2530  0.3404
26460WAT     H1 7645   0.482   8.897   1.569 -0.0629 -0.0742 -0.3743
26460WAT     H2 7646   0.473   8.750   1.532 -0.7167 -0.7248  2.1504
26460WAT    EPW 7647   0.509   8.815   1.579  0.1284  0.0806  0.4849
26461WAT      O 7648  -2.272   6.780   0.717 -0.6590  0.1989  0.4462
26461WAT     H1 7649  -2.288   6.843   0.788 -0.7334 -1.4232  1.9484
26461WAT     H2 7650  -2.240   6.701   0.762 -2.3024 -1.4818 -1.1499
26461WAT    EPW 7651  -2.270   6.778   0.732 -0.8856 -0.2367  0.4338
26462WAT      O 7652  -4.043   6.262   4.934  0.2944 -0.1490  0.9780
26462WAT     H1 7653  -4.108   6.211   4.983 -0.8247 -0.1245 -0.4024
26462WAT     H2 7654  -4.094   6.333   4.894  1.2635  0.1872  0.3011
26462WAT    EPW 7655  -4.059   6.265   4.935  0.2749 -0.1013  0.7067
26463WAT      O 7656  -4.097   0.137   7.204 -0.5448 -0.6464  0.1717
26463WAT     H1 7657  -4.035   0.075   7.166 -1.0824 -1.7334  1.0009
26463WAT     H2 7658  -4.112   0.104   7.293 -2.0217 -0.2015  0.1151
26463WAT    EPW 7659  -4.091   0.124   7.211 -0.8104 -0.7311  0.2737
26464WAT      O 7660   2.931   7.417   5.642 -0.3320  0.2515 -0.2400
26464WAT     H1 7661   2.959   7.443   5.554 -1.2840  1.6247 -0.1552
26464WAT     H2 7662   2.965   7.485   5.700 -0.1300 -0.3847  0.4092
26464WAT    EPW 7663   2.939   7.429   5.638 -0.4308  0.3488 -0.1431
26465WAT      O 7664   5.454   0.920   7.132  0.2597 -0.3839  0.6381
26465WAT     H1 7665   5.472   0.826   7.138  0.4027 -0.3239  1.2668
26465WAT     H2 7666   5.407   0.930   7.049  3.5578 -0.4607 -1.4285
26465WAT    EPW 7667   5.450   0.909   7.122  0.7138 -0.3861  0.4485
26466WAT      O 7668   0.813   2.295   4.414  0.4506 -0.0992 -0.3051
26466WAT     H1 7669   0.779   2.236   4.347  0.7037 -0.0560 -0.4751
26466WAT     H2 7670   0.907   2.297   4.399  0.6919 -1.1746  0.9452
26466WAT    EPW 7671   0.821   2.288   4.403  0.5158 -0.2352 -0.1626
26467WAT      O 7672   3.674   5.127   4.747 -0.4342 -0.4731  0.4260
26467WAT     H1 7673   3.645   5.163   4.831  2.8287 -1.2338  2.0487
26467WAT     H2 7674   3.665   5.032   4.757 -0.3444 -0.5547 -0.2159
26467WAT    EPW 7675   3.669   5.119   4.760  0.0081 -0.5844  0.5555
26468WAT      O 7676   3.502   2.678   3.693  0.2973 -0.1713 -0.3656
26468WAT     H1 7677   3.508   2.695   3.787  0.0184 -0.5772 -0.2707
26468WAT     H2 7678   3.454   2.595   3.687  0.8020 -0.4333 -0.8440
26468WAT    EPW 7679   3.497   2.669   3.705  0.3270 -0.2594 -0.4162
26469WAT      O 7680   2.513   3.562   6.746 -0.0409 -0.9902 -1.0163
26469WAT     H1 7681   2.512   3.624   6.673  1.1035  3.0915  2.0580
26469WAT     H2 7682   2.430   3.575   6.790  0.7186 -0.6928  0.3719
26469WAT    EPW 7683   2.502   3.572   6.742  0.2103 -0.4126 -0.4277
26470WAT      O 7684  -5.245   6.983   8.265 -0.0462  0.0539 -0.0057
26470WAT     H1 7685  -5.253   7.062   8.212 -2.1490  0.4641  0.8260
26470WAT     H2 7686  -5.297   6.918   8.217  1.3386 -0.7541 -0.4759
26470WAT    EPW 7687  -5.253   6.985   8.251 -0.1407  0.0014  0.0420
26471WAT      O 7688  -1.001   7.599   5.303 -0.4334 -0.1492 -0.0818
26471WAT     H1 7689  -0.970   7.664   5.240 -3.4289 -0.1490 -1.7142
26471WAT     H2 7690  -0.972   7.515   5.268 -1.8805 -0.1303 -1.4015
26471WAT    EPW 7691  -0.993   7.597   5.290 -1.0193 -0.1466 -0.4711
26472WAT      O 7692  -2.999   9.503   6.766  0.1935  0.9701  0.8083
26472WAT     H1 7693  -2.911   9.529   6.737 -0.5032  1.3189 -1.0940
26472WAT     H2 7694  -3.024   9.433   6.706 -0.4641  0.1740  1.9710
26472WAT    EPW 7695  -2.990   9.497   6.754  0.0148  0.9108  0.7107
26473WAT      O 7696  -4.255   7.159   7.617  0.5847 -0.2940  0.4384
26473WAT     H1 7697  -4.285   7.236   7.664 -0.6013 -0.5059  0.0584
26473WAT     H2 7698  -4.227   7.098   7.686  0.4829  0.0440  0.7805
26473WAT    EPW 7699  -4.255   7.161   7.633  0.4151 -0.2775  0.4334
26474WAT      O 7700  -0.155   0.658   2.900 -0.1421 -0.4395 -0.5220
26474WAT     H1 7701  -0.214   0.625   2.832 -1.1306  1.7986 -0.8196
26474WAT     H2 7702  -0.212   0.681   2.973  0.5102  0.5427 -0.3058
26474WAT    EPW 7703  -0.170   0.656   2.901 -0.1865 -0.0147 -0.5327
26475WAT      O 7704   3.428   4.383   5.445 -0.2910  0.3291  0.2445
26475WAT     H1 7705   3.426   4.359   5.538  0.3760  0.8424  0.4067
26475WAT     H2 7706   3.482   4.316   5.404 -0.9241 -0.1292  0.1475
26475WAT    EPW 7707   3.435   4.371   5.452 -0.2866  0.3364  0.2530
26476WAT      O 7708   5.207   6.100   4.921  0.2673 -0.3725  0.7503
26476WAT     H1 7709   5.248   6.096   4.834  0.1923 -0.5505  0.7231
26476WAT     H2 7710   5.275   6.136   4.977  0.3978 -0.4809  0.6650
26476WAT    EPW 7711   5.222   6.104   4.917  0.2747 -0.4103  0.7353
26477WAT      O 7712  -1.979   0.879   5.738 -0.2936  0.5940  0.9975
26477WAT     H1 7713  -1.977   0.847   5.828 -2.3062 -0.1882  0.8095
26477WAT     H2 7714  -1.951   0.805   5.685  0.0007  0.7701  0.9008
26477WAT    EPW 7715  -1.975   0.865   5.743 -0.5203  0.5141  0.9601
26478WAT      O 7716   4.674  10.064   1.554  0.5913 -0.0967 -0.2964
26478WAT     H1 7717   4.668  10.154   1.521  3.0424 -0.0535 -0.7973
26478WAT     H2 7718   4.675  10.074   1.649 -0.2670  0.2911 -0.3161
26478WAT    EPW 7719   4.673  10.077   1.562  0.8013 -0.0401 -0.3650
26479WAT      O 7720  -1.293   7.190   7.843  0.1574  0.0914  0.1933
26479WAT     H1 7721  -1.376   7.236   7.854 -0.1665 -0.6828  1.2158
26479WAT     H2 7722  -1.240   7.218   7.919  0.0658 -0.9521  0.6632
26479WAT    EPW 7723  -1.297   7.199   7.855  0.1026 -0.1483  0.3901
26480WAT      O 7724  -3.112   4.043   8.109 -0.7804 -0.3255 -0.1431
26480WAT     H1 7725  -3.075   3.956   8.092  0.4147 -0.2328  1.7009
26480WAT     H2 7726  -3.147   4.036   8.198 -0.1367  1.2442  0.2509
26480WAT    EPW 7727  -3.112   4.030   8.119 -0.5380 -0.1063  0.1521
26481WAT      O 7728  -2.716   4.475   8.685  0.0026  0.2080 -0.0021
26481WAT     H1 7729  -2.738   4.390   8.723  1.7443 -0.0098  0.5944
26481WAT     H2 7730  -2.788   4.494   8.624 -0.1708 -1.9253 -0.5176
26481WAT    EPW 7731  -2.728   4.467   8.682  0.2095 -0.1020  0.0086
26482WAT      O 7732   3.317   8.051   0.894  0.2121 -0.2148  0.3055
26482WAT     H1 7733   3.348   8.039   0.804 -0.0567  0.3463  0.1340
26482WAT     H2 7734   3.395   8.073   0.944 -0.0146  2.3918 -0.3410
26482WAT    EPW 7735   3.331   8.052   0.888  0.1467  0.2031  0.1976
26483WAT      O 7736  -3.450   6.984   4.927 -0.2426  0.1852  0.2928
26483WAT     H1 7737  -3.435   6.890   4.937 -0.3214  0.1368 -0.0153
26483WAT     H2 7738  -3.374   7.026   4.968 -0.5161  0.0058  0.9986
26483WAT    EPW 7739  -3.438   6.977   4.934 -0.2890  0.1550  0.3455
26484WAT      O 7740  -0.864   6.764   7.240 -0.6898  0.5321 -0.2848
26484WAT     H1 7741  -0.938   6.765   7.180  0.0033 -0.7838 -1.2236
26484WAT     H2 7742  -0.825   6.677   7.229  1.8837  1.6677 -0.9663
26484WAT    EPW 7743  -0.869   6.753   7.231 -0.2590  0.5083 -0.4988
26485WAT      O 7744  -2.048   2.986   5.181  0.3021 -0.0483 -0.6173
26485WAT     H1 7745  -2.088   2.899   5.192 -1.0578  0.5617 -0.5663
26485WAT     H2 7746  -2.001   2.981   5.098  1.3820 -1.2469  0.0314
26485WAT    EPW 7747  -2.047   2.974   5.172  0.2651 -0.1259 -0.5248
26486WAT      O 7748   2.604   7.637   3.835  0.0243 -0.9000  0.1354
26486WAT     H1 7749   2.576   7.682   3.914  1.5261  1.2518 -0.4595
26486WAT     H2 7750   2.666   7.571   3.866  2.8609  1.8000  0.7110
26486WAT    EPW 7751   2.609   7.634   3.849  0.5965 -0.2601  0.1329
26487WAT      O 7752  -3.791   4.813   3.790  0.3697 -0.1724  0.1231
26487WAT     H1 7753  -3.823   4.903   3.798 -2.0350 -1.0971  2.6247
26487WAT     H2 7754  -3.752   4.794   3.875  0.0740 -1.7309 -0.0650
26487WAT    EPW 7755  -3.790   4.823   3.803  0.0135 -0.5000  0.4282
26488WAT      O 7756   0.447   1.552   4.188 -0.0674  0.5727 -0.3937
26488WAT     H1 7757   0.510   1.600   4.136  1.0370  1.1718  1.3911
26488WAT     H2 7758   0.420   1.613   4.256 -0.0423 -0.7185  0.8409
26488WAT    EPW 7759   0.452   1.566   4.190  0.0816  0.4814  0.0045
26489WAT      O 7760   4.128   1.007   3.830  0.4840 -0.1734  0.6446
26489WAT     H1 7761   4.211   0.970   3.801 -0.7461 -2.5313 -0.0385
26489WAT     H2 7762   4.118   0.975   3.920 -0.0986 -0.6525  0.4131
26489WAT    EPW 7763   4.138   0.998   3.838  0.2449 -0.5476  0.5239
26490WAT      O 7764   2.102   7.911   2.868  0.7315 -0.3867  0.2175
26490WAT     H1 7765   2.130   7.825   2.837  1.1686 -0.1117 -0.1752
26490WAT     H2 7766   2.116   7.969   2.792 -0.4626 -0.1470  0.1614
26490WAT    EPW 7767   2.108   7.907   2.854  0.6318 -0.3190  0.1584
26491WAT      O 7768   5.349   8.629   3.310 -0.5889  0.8264  1.0780
26491WAT     H1 7769   5.342   8.536   3.287 -1.2600  0.8051  1.3493
26491WAT     H2 7770   5.314   8.634   3.399 -0.2121  1.2837  1.2021
26491WAT    EPW 7771   5.344   8.617   3.318 -0.6278  0.8841  1.1302
26492WAT      O 7772   3.619   9.313   3.414  0.0064  0.1295 -0.1280
26492WAT     H1 7773   3.705   9.278   3.391  1.1203  1.4864  1.6841
26492WAT     H2 7774   3.569   9.236   3.442  0.6861 -0.6555 -0.9999
26492WAT    EPW 7775   3.624   9.298   3.415  0.2431  0.2046 -0.0041
26493WAT      O 7776   0.203  10.192   3.257  0.0465  0.2904  0.3619
26493WAT     H1 7777   0.259  10.115   3.270  0.2438  0.4552  0.5052
26493WAT     H2 7778   0.262  10.266   3.272 -0.1908  0.4658  0.4214
26493WAT    EPW 7779   0.219  10.192   3.261  0.0412  0.3352  0.3887
26494WAT      O 7780  -1.157   1.116   4.696  0.2402  0.1258 -0.2160
26494WAT     H1 7781  -1.107   1.045   4.656  2.9557  1.6400  0.2427
26494WAT     H2 7782  -1.248   1.093   4.679  1.0645 -2.2817 -2.0432
26494WAT    EPW 7783  -1.162   1.103   4.689  0.7071  0.0080 -0.3965
26495WAT      O 7784  -3.075   2.837   6.471  0.3061 -0.7221  1.2360
26495WAT     H1 7785  -3.169   2.823   6.486 -0.5713  1.0692 -1.7840
26495WAT     H2 7786  -3.054   2.915   6.522 -0.5394  0.3627 -0.0068
26495WAT    EPW 7787  -3.085   2.845   6.480  0.0788 -0.3426  0.6740
26496WAT      O 7788  -4.797   8.474   4.392 -0.9390  0.1345 -0.7474
26496WAT     H1 7789  -4.877   8.524   4.376 -0.4281  0.3821 -2.8416
26496WAT     H2 7790  -4.773   8.439   4.306  2.3985  1.9374 -0.7438
26496WAT    EPW 7791  -4.804   8.476   4.378 -0.4318  0.4048 -1.0231
26497WAT      O 7792  -2.420   5.574   0.745 -0.8551  0.2237  0.0914
26497WAT     H1 7793  -2.360   5.520   0.693 -0.6680  1.5860 -1.2013
26497WAT     H2 7794  -2.371   5.655   0.760 -1.2615  0.2046  1.6453
26497WAT    EPW 7795  -2.406   5.578   0.740 -0.8841  0.4008  0.1259
26498WAT      O 7796   2.999   3.218   1.712 -0.1840  0.2923  1.0390
26498WAT     H1 7797   3.094   3.228   1.708  0.1654 -2.2791  0.9849
26498WAT     H2 7798   2.970   3.282   1.777  1.6832  0.6357  1.5761
26498WAT    EPW 7799   3.008   3.228   1.720  0.1082 -0.0015  1.1027
26499WAT      O 7800   5.857   7.394   1.458 -0.4052  0.3660 -0.1935
26499WAT     H1 7801   5.909   7.465   1.422 -2.2972  1.1626 -1.4993
26499WAT     H2 7802   5.816   7.432   1.536  0.7057 -0.1851  0.6922
26499WAT    EPW 7803   5.859   7.408   1.464 -0.5083  0.3984 -0.2489
26500WAT      O 7804   1.418   1.106   3.086 -0.2097 -0.3512  0.0385
26500WAT     H1 7805   1.419   1.139   2.996 -1.3226  1.6949  0.7335
26500WAT     H2 7806   1.328   1.077   3.099 -0.0916 -0.4862  0.5547
26500WAT    EPW 7807   1.406   1.106   3.076 -0.3409 -0.0992  0.1982
26501WAT      O 7808  -0.517   7.438   2.203  0.2161 -0.0798 -0.4146
26501WAT     H1 7809  -0.504   7.532   2.216 -2.3785  0.7160 -2.6607
26501WAT     H2 7810  -0.595   7.417   2.255  0.3549 -0.8264 -0.5037
26501WAT    EPW 7811  -0.526   7.448   2.212 -0.1078 -0.0732 -0.7226
26502WAT      O 7812  -2.329   2.071   6.229  0.7563  0.0714 -0.0705
26502WAT     H1 7813  -2.342   2.011   6.303  0.0047  0.5927  0.2306
26502WAT     H2 7814  -2.299   2.015   6.158  0.1438 -0.6489  0.2294
26502WAT    EPW 7815  -2.327   2.056   6.230  0.5764  0.0451  0.0091
26503WAT      O 7816   6.373   7.501   3.074 -0.7616 -0.0896 -0.0744
26503WAT     H1 7817   6.421   7.534   2.999 -0.2403 -1.8763 -0.5781
26503WAT     H2 7818   6.285   7.538   3.065 -0.9148 -0.8373 -1.9621
26503WAT    EPW 7819   6.368   7.510   3.063 -0.7131 -0.4239 -0.3898
26504WAT      O 7820   5.992   1.836   5.534  0.4571 -0.3772  0.1352
26504WAT     H1 7821   6.027   1.846   5.446  1.9971 -0.5443  0.6946
26504WAT     H2 7822   6.068   1.844   5.591 -0.7338  1.4254  1.5895
26504WAT    EPW 7823   6.007   1.838   5.530  0.5033 -0.1615  0.4008
26505WAT      O 7824  -1.318   7.425   8.622 -0.6734 -0.1750  0.2730
26505WAT     H1 7825  -1.327   7.360   8.553 -3.1668  0.2451  0.1111
26505WAT     H2 7826  -1.406   7.459   8.635  0.6105  4.0280 -0.4418
26505WAT    EPW 7827  -1.331   7.421   8.615 -0.8329  0.4349  0.1574
26506WAT      O 7828   2.265   0.932   1.798  0.1969 -0.4095 -0.0171
26506WAT     H1 7829   2.177   0.932   1.837 -0.0007 -0.4433 -0.4570
26506WAT     H2 7830   2.291   1.024   1.800  0.7760 -0.5837  1.4878
26506WAT    EPW 7831   2.257   0.944   1.803  0.2472 -0.4370  0.1234
26507WAT      O 7832  -5.591   9.195   5.350 -0.2179  0.1359 -0.0405
26507WAT     H1 7833  -5.636   9.144   5.417 -0.2590  2.0587  1.4714
26507WAT     H2 7834  -5.649   9.269   5.332 -0.5278 -0.6607 -2.7511
26507WAT    EPW 7835  -5.604   9.198   5.356 -0.2642  0.2847 -0.1986
26508WAT      O 7836  -1.399   0.083   4.288  0.5796  0.4232 -0.2285
26508WAT     H1 7837  -1.421   0.101   4.380 -0.9292  1.1564 -0.7079
26508WAT     H2 7838  -1.315   0.036   4.293  2.3797  3.4636  1.3873
26508WAT    EPW 7839  -1.391   0.079   4.301  0.6180  0.9209 -0.0784
26509WAT      O 7840  -6.622   4.226   8.538 -0.0600  0.0031 -1.1309
26509WAT     H1 7841  -6.614   4.216   8.633  1.5106  1.1137 -1.0989
26509WAT     H2 7842  -6.533   4.210   8.505 -0.8449 -1.6572 -2.5703
26509WAT    EPW 7843  -6.609   4.223   8.546  0.0434 -0.0694 -1.3161
26510WAT      O 7844   1.194   5.661   8.717 -0.3451  0.5687 -0.3682
26510WAT     H1 7845   1.277   5.617   8.738  0.0052  0.1482 -2.4190
26510WAT     H2 7846   1.212   5.753   8.734 -0.4465  0.1998  2.0493
26510WAT    EPW 7847   1.207   5.667   8.722 -0.3123  0.4647 -0.3200
26511WAT      O 7848  -0.017   1.083   3.064  0.4013 -0.0372  0.2252
26511WAT     H1 7849  -0.058   1.029   2.996  2.0283 -0.5242 -0.3953
26511WAT     H2 7850   0.040   1.023   3.111  1.7424  0.9878 -0.0461
26511WAT    EPW 7851  -0.015   1.068   3.061  0.7928  0.0338  0.1075
26512WAT      O 7852   0.457   4.669   4.375 -0.0395  0.5944  0.6070
26512WAT     H1 7853   0.509   4.625   4.442 -0.1197  0.2027  0.4167
26512WAT     H2 7854   0.395   4.723   4.424 -0.7707 -0.4506  0.8805
26512WAT    EPW 7855   0.456   4.670   4.390 -0.1465  0.4051  0.6180
26513WAT      O 7856   3.223   6.727   3.216 -0.3254 -0.3007 -0.4731
26513WAT     H1 7857   3.165   6.755   3.145 -0.0755  0.5461 -0.3423
26513WAT     H2 7858   3.166   6.722   3.293  0.0968  2.4360  0.1139
26513WAT    EPW 7859   3.208   6.730   3.217 -0.2367  0.1719 -0.3784
26514WAT      O 7860  -5.847  10.237   8.685  0.1260 -0.3656  0.2582
26514WAT     H1 7861  -5.793  10.287   8.624  0.0508 -2.2594 -1.4790
26514WAT     H2 7862  -5.897  10.303   8.733  0.5471  1.2341 -1.3987
26514WAT    EPW 7863  -5.847  10.252   8.683  0.1719 -0.4044 -0.1893
26515WAT      O 7864  -2.002   8.227   7.519 -0.1554  0.0536 -0.0629
26515WAT     H1 7865  -1.911   8.212   7.495  0.0615 -1.1299  1.3733
26515WAT     H2 7866  -2.053   8.180   7.453  0.1725  1.7739 -1.6352
26515WAT    EPW 7867  -1.997   8.219   7.507 -0.0836  0.1245 -0.0808
26516WAT      O 7868  -0.384   9.260   3.056 -0.1091 -0.3738 -0.4265
26516WAT     H1 7869  -0.302   9.291   3.095  0.1512 -0.5054 -0.8723
26516WAT     H2 7870  -0.410   9.186   3.111  0.8709 -1.3071 -1.1860
26516WAT    EPW 7871  -0.377   9.255   3.069  0.0544 -0.5140 -0.5856
26517WAT      O 7872   3.871   0.101   7.823 -0.4401 -0.9189  0.2399
26517WAT     H1 7873   3.819   0.182   7.819  0.1453 -0.5254  0.5111
26517WAT     H2 7874   3.836   0.047   7.752 -1.9551 -1.1061  1.0733
26517WAT    EPW 7875   3.859   0.105   7.814 -0.5628 -0.8917  0.3858
26518WAT      O 7876   3.383  10.226   5.952 -0.9796 -0.3663 -0.8340
26518WAT     H1 7877   3.413  10.149   5.903  2.8160  0.8835 -0.7748
26518WAT     H2 7878   3.338  10.280   5.887 -1.8374 -1.6609 -1.3482
26518WAT    EPW 7879   3.381  10.223   5.937 -0.5921 -0.3724 -0.8938
26519WAT      O 7880   1.220   9.065   1.939  0.2962 -0.5351  0.2302
26519WAT     H1 7881   1.213   9.063   2.034 -0.4088  1.1243  0.2566
26519WAT     H2 7882   1.185   9.151   1.914  1.5482 -0.4422 -1.4345
26519WAT    EPW 7883   1.215   9.076   1.948  0.3683 -0.3042  0.0141
26520WAT      O 7884  -2.733   7.629   3.401  0.1275 -1.1514 -1.0768
26520WAT     H1 7885  -2.657   7.649   3.347  0.7057 -2.1139 -0.6487
26520WAT     H2 7886  -2.700   7.631   3.491 -1.3556  3.1353 -0.3672
26520WAT    EPW 7887  -2.719   7.632   3.406  0.0080 -0.7131 -0.9269
26521WAT      O 7888   6.720   5.947   1.960 -0.1412 -0.1073  0.4695
26521WAT     H1 7889   6.771   6.009   2.012 -0.5129 -0.4662  1.2997
26521WAT     H2 7890   6.713   5.987   1.874  0.5758  0.4715  0.6695
26521WAT    EPW 7891   6.726   5.960   1.956 -0.0956 -0.0782  0.6053
26522WAT      O 7892  -0.582   1.665   1.749  0.4418 -0.0553 -0.2269
26522WAT     H1 7893  -0.575   1.609   1.826 -1.1195  0.8008  0.6003
26522WAT     H2 7894  -0.578   1.754   1.784 -0.6736  0.3465 -1.0678
26522WAT    EPW 7895  -0.581   1.669   1.764  0.0888  0.1106 -0.2287
26523WAT      O 7896  -6.843   7.427   6.947 -1.5722  1.2664  0.1198
26523WAT     H1 7897  -6.887   7.409   6.864 -2.0633  2.1126  0.1872
26523WAT     H2 7898  -6.861   7.350   7.001  1.1319 -0.6442 -1.4593
26523WAT    EPW 7899  -6.851   7.414   6.943 -1.2803  1.1261 -0.0796
26524WAT      O 7900   0.195   7.146   5.424  0.1479 -0.5206  0.7575
26524WAT     H1 7901   0.144   7.161   5.344  0.5174  1.4512  0.8256
26524WAT     H2 7902   0.211   7.052   5.426  1.6575 -0.4782 -2.4687
26524WAT    EPW 7903   0.191   7.136   5.414  0.3958 -0.2549  0.3409
26525WAT      O 7904  -1.308   8.900   5.854  0.1917  0.2078  0.0367
26525WAT     H1 7905  -1.319   8.813   5.816  0.7012  0.2779 -0.2803
26525WAT     H2 7906  -1.362   8.957   5.799  0.3687  0.1926 -0.1564
26525WAT    EPW 7907  -1.317   8.896   5.841  0.2822  0.2151 -0.0305
26526WAT      O 7908  -1.389   6.690   4.956 -0.1739  0.0136  0.0514
26526WAT     H1 7909  -1.354   6.723   4.873 -1.1683 -2.3589 -1.4245
26526WAT     H2 7910  -1.420   6.769   5.002  2.6394  1.6539 -0.6583
26526WAT    EPW 7911  -1.389   6.705   4.951  0.0660 -0.0830 -0.2367
26527WAT      O 7912   5.423   2.604   4.932 -0.4515  0.4897  0.3001
26527WAT     H1 7913   5.483   2.608   4.858 -0.9821 -0.2311 -0.1788
26527WAT     H2 7914   5.339   2.634   4.898 -0.5087  0.9414  0.8217
26527WAT    EPW 7915   5.420   2.608   4.918 -0.5291  0.4542  0.3059
26528WAT      O 7916   4.285   9.982   2.725 -0.1452  0.1095 -0.8379
26528WAT     H1 7917   4.217   9.917   2.707 -0.2878  0.5633 -2.0441
26528WAT     H2 7918   4.282  10.041   2.650  1.8867 -0.1158 -1.1705
26528WAT    EPW 7919   4.276   9.981   2.712  0.1040  0.1397 -1.0408
26529WAT      O 7920   3.530   5.824   0.171 -0.0388  0.4011 -0.5080
26529WAT     H1 7921   3.582   5.776   0.237 -0.2696  0.0771 -0.5595
26529WAT     H2 7922   3.460   5.763   0.147 -0.5409  0.8921 -0.3217
26529WAT    EPW 7923   3.528   5.810   0.177 -0.1354  0.4232 -0.4903
26530WAT      O 7924   4.791   0.774   8.809  0.5387  0.8928 -0.4696
26530WAT     H1 7925   4.849   0.717   8.759 -0.8584 -0.7047 -0.3652
26530WAT     H2 7926   4.790   0.736   8.897 -1.4072  0.2754 -0.7197
26530WAT    EPW 7927   4.799   0.762   8.814  0.0978  0.6007 -0.4892
26531WAT      O 7928   2.485   7.591   4.304  0.8738 -0.8131  0.3855
26531WAT     H1 7929   2.479   7.660   4.370  0.9722 -0.2643 -0.1746
26531WAT     H2 7930   2.578   7.568   4.302  1.1600  0.3175 -0.7048
26531WAT    EPW 7931   2.496   7.597   4.312  0.9246 -0.5915  0.1681
26532WAT      O 7932   1.195   6.939   7.144  0.6337 -0.4859 -0.3605
26532WAT     H1 7933   1.215   7.017   7.196  0.1523 -0.8195  0.3381
26532WAT     H2 7934   1.218   6.866   7.201  3.3211 -0.9149 -1.8504
26532WAT    EPW 7935   1.201   6.940   7.158  0.9246 -0.5865 -0.4649
26533WAT      O 7936   2.154  10.162   0.335  0.2938  0.0561  0.1212
26533WAT     H1 7937   2.226  10.177   0.273 -0.8334 -0.1388 -1.2847
26533WAT     H2 7938   2.117  10.249   0.349  0.4429  0.0759  0.3908
26533WAT    EPW 7939   2.159  10.175   0.328  0.1647  0.0334 -0.0287
26534WAT      O 7940  -2.377   8.315   4.208 -0.4458  0.2682 -0.0291
26534WAT     H1 7941  -2.428   8.344   4.284  1.7492  0.9613  1.2654
26534WAT     H2 7942  -2.442   8.306   4.138 -2.4992 -0.0271  1.7959
26534WAT    EPW 7943  -2.393   8.318   4.209 -0.4271  0.3204  0.3822
26535WAT      O 7944   0.526   9.066   5.523  0.2978  0.0106 -0.1404
26535WAT     H1 7945   0.577   8.998   5.479  3.7527  1.0968  1.8212
26535WAT     H2 7946   0.588   9.138   5.536 -2.1126  1.9725  1.3960
26535WAT    EPW 7947   0.541   9.066   5.519  0.4356  0.4125  0.3209
26536WAT      O 7948   5.895   3.070   2.934  0.0548  0.1546 -0.5356
26536WAT     H1 7949   5.955   3.142   2.912 -1.8691  1.5640 -1.4828
26536WAT     H2 7950   5.877   3.028   2.850  0.7862 -1.1807 -0.0508
26536WAT    EPW 7951   5.901   3.074   2.920 -0.1025  0.1643 -0.5966
26537WAT      O 7952   5.929   8.077   2.614  0.1919 -0.0101 -0.5690
26537WAT     H1 7953   5.867   8.020   2.567 -1.3453  1.7241 -0.7549
26537WAT     H2 7954   5.904   8.070   2.706  1.7227 -1.6123 -0.2123
26537WAT    EPW 7955   5.918   8.069   2.620  0.1912  0.0072 -0.5466
26538WAT      O 7956   4.002   6.854   1.023 -0.0514  0.4961  0.2128
26538WAT     H1 7957   4.011   6.819   1.111 -1.9854  0.1748  0.3414
26538WAT     H2 7958   4.052   6.794   0.968 -1.3741 -1.1484  0.7257
26538WAT    EPW 7959   4.010   6.841   1.027 -0.4807  0.2367  0.2974
26539WAT      O 7960  -7.598  10.309   8.107 -0.2241 -0.0538 -1.0514
26539WAT     H1 7961  -7.680  10.323   8.154  0.5016  2.8245 -0.4749
26539WAT     H2 7962  -7.560  10.231   8.148 -2.0842 -0.7710 -0.5748
26539WAT    EPW 7963  -7.604  10.300   8.118 -0.3738  0.2313 -0.9127
26540WAT      O 7964   4.124   0.187   7.724 -0.5823 -0.5803 -0.4482
26540WAT     H1 7965   4.123   0.281   7.740 -0.2729 -0.5304 -0.7241
26540WAT     H2 7966   4.039   0.157   7.756 -0.7079 -0.1997 -0.4173
26540WAT    EPW 7967   4.113   0.195   7.730 -0.5581 -0.5235 -0.4804
26541WAT      O 7968  -0.100   8.439   5.011  0.1467  0.3845 -1.3157
26541WAT     H1 7969  -0.168   8.469   5.072  1.1456  1.9127 -0.8965
26541WAT     H2 7970  -0.119   8.346   4.999 -0.8223  0.3093  0.3726
26541WAT    EPW 7971  -0.111   8.431   5.018  0.1507  0.5760 -1.0378
26542WAT      O 7972  -2.810   1.374   6.790 -0.0012  0.5865 -0.3072
26542WAT     H1 7973  -2.842   1.291   6.757  0.5827 -1.8471  4.4005
26542WAT     H2 7974  -2.724   1.354   6.826 -1.0356  2.3354  3.6383
26542WAT    EPW 7975  -2.803   1.361   6.790 -0.0607  0.4962  0.8342
26543WAT      O 7976   2.622   2.453   7.577  0.7034 -0.0240  0.1562
26543WAT     H1 7977   2.625   2.407   7.494  1.8190  0.6868 -0.2112
26543WAT     H2 7978   2.635   2.545   7.554 -1.5944  0.5522  0.8516
26543WAT    EPW 7979   2.624   2.459   7.563  0.5474  0.1457  0.1993
26544WAT      O 7980  -4.735   9.127   4.159  0.0957 -0.1638 -0.1617
26544WAT     H1 7981  -4.807   9.138   4.097 -0.5357 -1.7818  0.2452
26544WAT     H2 7982  -4.710   9.035   4.150 -0.4172 -0.6126  2.4255
26544WAT    EPW 7983  -4.741   9.117   4.149 -0.0553 -0.4363  0.2332
26545WAT      O 7984  -1.668   6.908   1.517  0.8388  0.2027 -0.0198
26545WAT     H1 7985  -1.642   6.834   1.462  2.2767 -0.0707  0.9597
26545WAT     H2 7986  -1.754   6.884   1.551  1.1519 -0.8777  0.0371
26545WAT    EPW 7987  -1.676   6.895   1.514  1.0697  0.0243  0.1169
26546WAT      O 7988  -2.113   8.390   5.804  0.8331  0.5052 -0.0759
26546WAT     H1 7989  -2.150   8.324   5.745  0.3776  0.2863  0.4439
26546WAT     H2 7990  -2.030   8.415   5.763  0.0937  1.0418 -1.2917
26546WAT    EPW 7991  -2.107   8.384   5.791  0.6756  0.5469 -0.1676
26547WAT      O 7992  -2.901   8.433   3.458  0.1691 -0.3898 -0.0834
26547WAT     H1 7993  -2.959   8.378   3.405 -0.9424 -0.4732  1.1581
26547WAT     H2 7994  -2.879   8.378   3.533  1.6151 -0.2284 -0.3729
26547WAT    EPW 7995  -2.906   8.418   3.461  0.2133 -0.3800  0.0422
26548WAT      O 7996  -4.715  -0.015   8.719 -0.3797 -0.0323  0.3290
26548WAT     H1 7997  -4.633  -0.008   8.767 -1.0477  4.6019  1.2078
26548WAT     H2 7998  -4.709   0.052   8.651 -3.1532 -0.0732 -0.0732
26548WAT    EPW 7999  -4.703  -0.005   8.716 -0.8340  0.5732  0.3920
26549WAT      O 8000  -1.561   4.866   6.812 -0.4608 -0.4977 -0.7600
26549WAT     H1 8001  -1.612   4.798   6.767  0.1400 -1.3296 -0.2022
26549WAT     H2 8002  -1.477   4.868   6.766 -0.4507 -0.1651 -0.7339
26549WAT    EPW 8003  -1.557   4.858   6.800 -0.3802 -0.5636 -0.6831
26550WAT      O 8004   6.208   3.086   4.497  0.1072  0.2978 -0.3979
26550WAT     H1 8005   6.141   3.094   4.564 -0.3774  0.4908 -0.9005
26550WAT     H2 8006   6.215   3.174   4.459  1.6322  0.6351  0.5826
26550WAT    EPW 8007   6.200   3.099   4.501  0.2446  0.3678 -0.3347
26551WAT      O 8008   0.696   1.574   8.852  0.2338  0.3686  0.0861
26551WAT     H1 8009   0.771   1.630   8.831 -0.4397  0.6573 -1.7786
26551WAT     H2 8010   0.637   1.632   8.900  0.0556  0.9326 -0.7918
26551WAT    EPW 8011   0.698   1.589   8.855  0.1215  0.4811 -0.2756
26552WAT      O 8012  -3.945   9.045   5.924  0.5464  0.8259 -0.3726
26552WAT     H1 8013  -3.961   9.126   5.973 -0.6121  0.9227 -0.8625
26552WAT     H2 8014  -3.850   9.034   5.925  0.6284  1.4447  0.8868
26552WAT    EPW 8015  -3.935   9.054   5.931  0.4044  0.9203 -0.2711
26553WAT      O 8016  -3.777   5.033   7.109 -0.1204 -0.0534  0.1634
26553WAT     H1 8017  -3.864   4.999   7.128  0.2562 -0.3089  1.5167
26553WAT     H2 8018  -3.790   5.127   7.093 -0.6295 -0.0905  0.3579
26553WAT    EPW 8019  -3.790   5.041   7.109 -0.1380 -0.0920  0.3676
26554WAT      O 8020   1.899   6.177   5.996 -0.1528  0.3127 -0.6163
26554WAT     H1 8021   1.877   6.107   5.934  0.3276 -0.6708  0.2829
26554WAT     H2 8022   1.900   6.256   5.943 -0.6688 -0.3655 -1.6801
26554WAT    EPW 8023   1.896   6.178   5.981 -0.1575  0.0935 -0.6382
26555WAT      O 8024  -0.690   0.732   7.563  0.6830  0.9485 -0.3441
26555WAT     H1 8025  -0.737   0.673   7.503 -0.8937  3.0611 -1.3133
26555WAT     H2 8026  -0.745   0.735   7.641  1.4915  0.1116  0.2911
26555WAT    EPW 8027  -0.704   0.725   7.566  0.5817  1.1168 -0.3881
26556WAT      O 8028   0.548   3.312   3.448  0.2091  0.3127 -0.6878
26556WAT     H1 8029   0.514   3.360   3.372 -0.9201  0.7967  0.1018
26556WAT     H2 8030   0.483   3.244   3.464  1.4175 -1.0565 -1.3241
26556WAT    EPW 8031   0.535   3.309   3.440  0.2196  0.1960 -0.6676
26557WAT      O 8032  -5.943   9.887   5.286 -0.1433  0.5397  0.1921
26557WAT     H1 8033  -5.958   9.931   5.370  0.8878 -0.1086  0.7396
26557WAT     H2 8034  -6.031   9.864   5.256 -0.5017 -0.1089  1.6049
26557WAT    EPW 8035  -5.957   9.890   5.293 -0.0546  0.3686  0.4508
26558WAT      O 8036  -3.482   9.175   2.061 -0.5491 -0.9386  0.5021
26558WAT     H1 8037  -3.495   9.160   2.154 -1.8234  0.6980  0.6287
26558WAT     H2 8038  -3.547   9.241   2.038  1.6223  0.8405 -0.9456
26558WAT    EPW 8039  -3.492   9.181   2.070 -0.4308 -0.4883  0.3277
26559WAT      O 8040  -3.190   4.357   8.046 -0.5494  0.5888  0.3711
26559WAT     H1 8041  -3.230   4.349   7.959 -1.8267  2.0519  0.7756
26559WAT     H2 8042  -3.187   4.268   8.079 -2.0860  0.2409 -0.3166
26559WAT    EPW 8043  -3.195   4.344   8.039 -0.9205  0.7358  0.3343
26560WAT      O 8044  -4.706   4.187   6.262  0.0159  0.9152 -0.4313
26560WAT     H1 8045  -4.783   4.187   6.205  1.5733 -0.2592 -2.7037
26560WAT     H2 8046  -4.740   4.208   6.349 -2.3046  4.5405 -1.9805
26560WAT    EPW 8047  -4.720   4.189   6.266 -0.0849  1.2383 -0.9353
26561WAT      O 8048   4.116   1.012   7.156  0.4459  0.2595 -0.2238
26561WAT     H1 8049   4.192   1.070   7.167 -0.7973  1.5297  3.2610
26561WAT     H2 8050   4.059   1.059   7.096  0.1003  2.1000  1.4168
26561WAT    EPW 8051   4.119   1.026   7.150  0.2363  0.6698  0.4520
26562WAT      O 8052   4.156   0.404   7.076  1.1096  0.6002 -0.4295
26562WAT     H1 8053   4.088   0.461   7.112 -0.0058 -1.1599  0.3684
26562WAT     H2 8054   4.115   0.318   7.071  2.5197 -0.0348 -2.2324
26562WAT    EPW 8055   4.142   0.400   7.080  1.1485  0.2843 -0.5622
26563WAT      O 8056   4.415   4.155   4.714 -0.0111  0.4162 -0.5111
26563WAT     H1 8057   4.474   4.143   4.788 -2.1096  1.2186  1.4173
26563WAT     H2 8058   4.402   4.067   4.679  1.7321  0.1415 -0.5554
26563WAT    EPW 8059   4.421   4.142   4.719 -0.0579  0.4859 -0.2625
26564WAT      O 8060  -0.538   0.247   4.662  0.0578 -0.8174  0.6508
26564WAT     H1 8061  -0.489   0.174   4.700 -1.1917 -1.3992  1.1938
26564WAT     H2 8062  -0.629   0.220   4.667 -0.2676 -0.3211 -1.5457
26564WAT    EPW 8063  -0.543   0.234   4.667 -0.1500 -0.8286  0.4330
26565WAT      O 8064  -1.734   3.564   7.822 -0.2708  0.1413  0.8851
26565WAT     H1 8065  -1.640   3.582   7.821 -0.1908 -0.0677  2.2264
26565WAT     H2 8066  -1.740   3.468   7.826 -0.5347  0.1554  0.8596
26565WAT    EPW 8067  -1.723   3.553   7.822 -0.2950  0.1155  1.0588
26566WAT      O 8068  -1.727   6.916   7.952  0.2681  0.1354 -1.0432
26566WAT     H1 8069  -1.647   6.933   7.902  1.3513 -1.8072 -0.1119
26566WAT     H2 8070  -1.767   6.841   7.908  0.7269 -0.9830  0.3888
26566WAT    EPW 8071  -1.722   6.908   7.940  0.4714 -0.2685 -0.7315
26567WAT      O 8072   4.084   9.722   3.186  0.0422  0.2405 -0.0415
26567WAT     H1 8073   4.085   9.769   3.102 -0.5507  0.4405  0.0608
26567WAT     H2 8074   4.091   9.792   3.252 -0.1819  0.1362  0.0924
26567WAT    EPW 8075   4.085   9.738   3.184 -0.0656  0.2532 -0.0103
26568WAT      O 8076   5.534   1.453   0.066  0.1657  0.3790 -0.0763
26568WAT     H1 8077   5.536   1.466   0.161 -0.2938 -0.0816 -0.0017
26568WAT     H2 8078   5.625   1.469   0.038  0.9553 -2.0822  0.8002
26568WAT    EPW 8079   5.546   1.457   0.075  0.2093 -0.0063  0.0492
26569WAT      O 8080   0.156   2.989   8.294 -0.6834  0.2507 -0.1581
26569WAT     H1 8081   0.166   2.914   8.235  2.4673  0.1736  0.2924
26569WAT     H2 8082   0.204   2.964   8.373 -1.5925  1.8403  0.9535
26569WAT    EPW 8083   0.164   2.976   8.296 -0.3878  0.4503  0.0477
26570WAT      O 8084   2.894   3.851   0.901  0.3468  0.6211 -0.3439
26570WAT     H1 8085   2.843   3.931   0.890 -0.4914 -0.0020 -1.1076
26570WAT     H2 8086   2.834   3.789   0.942  0.8355  0.2234 -0.2205
26570WAT    EPW 8087   2.880   3.853   0.905  0.3006  0.4864 -0.4284
26571WAT      O 8088   2.552   9.442   6.781  0.0225 -0.2200 -0.2911
26571WAT     H1 8089   2.542   9.449   6.686  0.7161  0.6309 -0.3149
26571WAT     H2 8090   2.463   9.441   6.814 -0.3290  2.8796 -0.7614
26571WAT    EPW 8091   2.539   9.443   6.772  0.0675  0.3014 -0.3564
26572WAT      O 8092  -2.107   4.835   6.626 -0.1631  0.4244  0.0499
26572WAT     H1 8093  -2.075   4.837   6.716  0.8124  2.3525 -0.3024
26572WAT     H2 8094  -2.040   4.785   6.578  0.7579  1.7670 -0.0982
26572WAT    EPW 8095  -2.094   4.828   6.631  0.0870  0.8557 -0.0162
26573WAT      O 8096  -4.179   2.950   5.460 -0.6788 -0.4851 -0.1877
26573WAT     H1 8097  -4.247   2.949   5.527 -0.3816  0.5319  0.1347
26573WAT     H2 8098  -4.102   2.984   5.504 -0.3646 -0.2048 -0.9350
26573WAT    EPW 8099  -4.178   2.954   5.475 -0.5982 -0.3139 -0.2439
26574WAT      O 8100   4.370   2.162   6.163 -0.8010 -0.6437  0.1637
26574WAT     H1 8101   4.280   2.162   6.197 -0.5102  0.3581  0.9516
26574WAT     H2 8102   4.382   2.248   6.124 -0.7402 -1.3688 -1.5582
26574WAT    EPW 8103   4.360   2.173   6.162 -0.7548 -0.6073  0.0405
26575WAT      O 8104  -1.176   9.960   6.384 -0.1503  0.4763  0.1246
26575WAT     H1 8105  -1.085   9.965   6.353 -0.8948 -0.8375 -2.6568
26575WAT     H2 8106  -1.219  10.037   6.345 -0.6713 -0.0745 -0.4100
26575WAT    EPW 8107  -1.169   9.971   6.375 -0.3173  0.2303 -0.3128
26576WAT      O 8108   2.266   8.215   7.160  0.5600  0.0540  0.1995
26576WAT     H1 8109   2.195   8.186   7.103  2.9614 -0.4831 -2.7665
26576WAT     H2 8110   2.306   8.134   7.192  0.2017  0.3468  1.4791
26576WAT    EPW 8111   2.262   8.200   7.157  0.8296  0.0219 -0.0229
26577WAT      O 8112  -0.440   4.594   3.422  0.0025  0.2426  0.6265
26577WAT     H1 8113  -0.520   4.540   3.422  0.6508 -0.7453  0.3856
26577WAT     H2 8114  -0.435   4.629   3.510 -1.0530  0.8553  0.4608
26577WAT    EPW 8115  -0.450   4.591   3.433 -0.0512  0.1934  0.5728
26578WAT      O 8116  -1.648   7.871   0.541  0.2844 -0.3355 -0.3032
26578WAT     H1 8117  -1.676   7.821   0.465 -1.9829  0.9813 -0.4162
26578WAT     H2 8118  -1.588   7.937   0.506  3.3686 -2.8220 -0.1416
26578WAT    EPW 8119  -1.644   7.873   0.527  0.3922 -0.4900 -0.2968
26579WAT      O 8120  -0.455   9.891   3.758 -0.7191  0.2233 -0.5263
26579WAT     H1 8121  -0.510   9.957   3.717 -0.1473  0.8579 -0.2883
26579WAT     H2 8122  -0.437   9.828   3.688 -1.0616  0.4510 -0.8218
26579WAT    EPW 8123  -0.460   9.891   3.743 -0.6889  0.3371 -0.5339
26580WAT      O 8124   6.129   1.863   0.932  0.0410  0.3239  0.5168
26580WAT     H1 8125   6.097   1.922   1.000 -1.3013  0.4565 -0.1987
26580WAT     H2 8126   6.123   1.775   0.971 -2.3530  0.2113  0.0352
26580WAT    EPW 8127   6.124   1.859   0.946 -0.4520  0.3265  0.3589
26581WAT      O 8128  -0.859   9.993   1.364  0.7288  0.5381 -0.0871
26581WAT     H1 8129  -0.951  10.012   1.348 -0.3253 -3.1820  0.5423
26581WAT     H2 8130  -0.829   9.949   1.284  0.7987 -1.5790  1.0401
26581WAT    EPW 8131  -0.867   9.989   1.351  0.5990 -0.2317  0.1446
26582WAT      O 8132   6.640   6.784   2.001 -0.9563  0.9387  0.5907
26582WAT     H1 8133   6.545   6.778   2.010 -1.0788 -0.0594 -1.0587
26582WAT     H2 8134   6.655   6.805   1.909  0.4382  0.4296  0.6670
26582WAT    EPW 8135   6.630   6.786   1.990 -0.7885  0.7401  0.3833
26583WAT      O 8136  -3.846   9.811   2.062 -0.2563 -0.7011 -0.3534
26583WAT     H1 8137  -3.931   9.818   2.106 -0.0402  0.1995 -0.0756
26583WAT     H2 8138  -3.784   9.853   2.121  0.5278 -1.9907 -0.2201
26583WAT    EPW 8139  -3.849   9.817   2.075 -0.1245 -0.7520 -0.2992
26584WAT      O 8140   6.630   1.576   2.987  0.1765 -0.5845 -0.4201
26584WAT     H1 8141   6.642   1.481   2.990 -0.1670 -0.7264 -2.2060
26584WAT     H2 8142   6.535   1.589   2.982  0.1499 -0.0667  0.9733
26584WAT    EPW 8143   6.619   1.565   2.986  0.1276 -0.5350 -0.4719
26585WAT      O 8144   6.983   3.811   4.189  0.5346  0.1948 -0.3737
26585WAT     H1 8145   7.028   3.893   4.211  0.2468 -0.0066  1.0729
26585WAT     H2 8146   6.919   3.835   4.122  2.2948  0.6136 -2.0217
26585WAT    EPW 8147   6.981   3.825   4.183  0.7288  0.2234 -0.4001
26586WAT      O 8148   1.319   3.754   3.721 -0.9156 -0.0335 -0.1797
26586WAT     H1 8149   1.400   3.771   3.768  0.3773 -1.3997 -1.7727
26586WAT     H2 8150   1.312   3.826   3.658 -2.4646  1.6040  1.7363
26586WAT    EPW 8151   1.329   3.766   3.719 -0.9494  0.0021 -0.1372
26587WAT      O 8152  -0.413   7.848   1.725 -0.0319 -0.2611  0.2603
26587WAT     H1 8153  -0.446   7.807   1.645  0.1144 -0.5083  0.3258
26587WAT     H2 8154  -0.460   7.804   1.796  0.5238 -0.6992  0.3600
26587WAT    EPW 8155  -0.424   7.837   1.724  0.0607 -0.3517  0.2820
26588WAT      O 8156  -2.088   3.817   6.080  0.4017  0.0711  0.2873
26588WAT     H1 8157  -2.073   3.783   6.168  0.8041  0.9032  0.5524
26588WAT     H2 8158  -2.013   3.786   6.029  0.9474  0.8333  0.6120
26588WAT    EPW 8159  -2.076   3.808   6.085  0.5268  0.2815  0.3653
26589WAT      O 8160   0.332   9.173   7.745  0.5890 -0.1240 -0.3270
26589WAT     H1 8161   0.264   9.198   7.807  0.0021 -1.2738 -0.4777
26589WAT     H2 8162   0.365   9.256   7.711 -0.1538  0.4756  0.3726
26589WAT    EPW 8163   0.327   9.187   7.748  0.4136 -0.1965 -0.2544
26590WAT      O 8164   7.198   6.971   1.800  0.3577 -0.2088  0.1291
26590WAT     H1 8165   7.235   6.927   1.723  0.9871  1.8127 -0.8057
26590WAT     H2 8166   7.117   7.011   1.769  1.2049  1.6081  0.1587
26590WAT    EPW 8167   7.192   6.970   1.786  0.5524  0.2975  0.0097
26591WAT      O 8168   7.320   1.544   1.910 -0.1896  0.0389 -0.2751
26591WAT     H1 8169   7.303   1.638   1.900  0.0400  0.0497 -0.5998
26591WAT     H2 8170   7.408   1.539   1.946  0.7107 -0.0820 -2.3674
26591WAT    EPW 8171   7.329   1.556   1.913 -0.0405  0.0244 -0.5939
26592WAT      O 8172   5.793   6.054   2.745  0.2577 -0.4952  0.1162
26592WAT     H1 8173   5.885   6.032   2.758 -0.0607 -0.6471  2.4900
26592WAT     H2 8174   5.787   6.147   2.768 -0.3935 -0.8224  1.3383
26592WAT    EPW 8175   5.804   6.063   2.750  0.1297 -0.5584  0.5904
26593WAT      O 8176   2.611   2.771   3.039  0.0365  0.2149 -0.6350
26593WAT     H1 8177   2.612   2.699   3.102 -0.8784  1.0139  0.3371
26593WAT     H2 8178   2.627   2.729   2.955 -3.6368 -1.7234 -0.6080
26593WAT    EPW 8179   2.613   2.756   3.036 -0.5686  0.0647 -0.5032
26594WAT      O 8180  -3.064   8.061   7.514  0.0308  0.3256 -0.1339
26594WAT     H1 8181  -3.006   8.114   7.569 -0.3212  0.8315 -0.2431
26594WAT     H2 8182  -3.006   8.023   7.449  0.2431  0.8584 -0.2657
26594WAT    EPW 8183  -3.048   8.063   7.513  0.0125  0.4625 -0.1657
26595WAT      O 8184   3.330   4.066   4.800 -0.1467  0.4522 -0.4966
26595WAT     H1 8185   3.269   3.997   4.775 -0.7063  0.9778 -0.6101
26595WAT     H2 8186   3.395   4.068   4.730 -0.2140  0.1370 -0.5663
26595WAT    EPW 8187   3.331   4.057   4.788 -0.2295  0.4799 -0.5207
26596WAT      O 8188   3.924   8.336   3.882 -0.5078  0.5516  0.1683
26596WAT     H1 8189   3.883   8.330   3.968 -1.7813  0.2040 -0.4297
26596WAT     H2 8190   3.939   8.429   3.868 -2.9812  0.9286 -0.4016
26596WAT    EPW 8191   3.920   8.347   3.891 -1.0018  0.5555  0.0143
26597WAT      O 8192   5.575   4.979   1.413 -0.3073  0.5635 -0.0251
26597WAT     H1 8193   5.641   4.968   1.346  1.0517 -0.1732  1.3798
26597WAT     H2 8194   5.560   5.074   1.417 -0.8785  0.5763 -1.7408
26597WAT    EPW 8195   5.582   4.990   1.405 -0.2034  0.4680 -0.0660
26598WAT      O 8196   1.310   6.127   6.367 -0.0626  0.9205 -0.0946
26598WAT     H1 8197   1.393   6.172   6.352  0.9586 -1.0962 -0.7954
26598WAT     H2 8198   1.313   6.101   6.459  0.7867 -0.4025 -0.4624
26598WAT    EPW 8199   1.321   6.130   6.377  0.1841  0.4799 -0.2356
26599WAT      O 8200   6.999   2.167   2.625 -0.1207  0.1985 -0.0146
26599WAT     H1 8201   6.918   2.116   2.623 -1.1694  1.8583 -1.2760
26599WAT     H2 8202   6.973   2.256   2.604  1.6778  1.3258  2.0345
26599WAT    EPW 8203   6.985   2.172   2.622 -0.0217  0.5660  0.0893
26600WAT      O 8204   6.540   8.908   0.021 -0.0475  0.1629 -0.2185
26600WAT     H1 8205   6.607   8.977   0.021 -1.5027  1.6197  0.1806
26600WAT     H2 8206   6.474   8.939   0.082 -0.8081 -1.5588 -0.1174
26600WAT    EPW 8207   6.540   8.921   0.029 -0.3397  0.1283 -0.1525
26601WAT      O 8208   1.535   1.223   4.533  0.6386  0.0644  0.1466
26601WAT     H1 8209   1.520   1.278   4.609  2.1613  0.3282  0.2934
26601WAT     H2 8210   1.566   1.284   4.466 -2.4953  0.1780 -1.3934
26601WAT    EPW 8211   1.537   1.238   4.534  0.4261  0.1142 -0.0374
26602WAT      O 8212   0.312   6.597   5.554  0.6069 -0.0901 -0.4808
26602WAT     H1 8213   0.381   6.652   5.590  0.3773 -1.7419  2.9987
26602WAT     H2 8214   0.352   6.552   5.480  2.4289  0.9064 -0.1421
26602WAT    EPW 8215   0.326   6.598   5.549  0.8169 -0.1764  0.0226
26603WAT      O 8216   3.597   5.491   5.475  0.1985  0.5036  0.0465
26603WAT     H1 8217   3.507   5.464   5.456  0.3895 -1.6373  1.7051
26603WAT     H2 8218   3.609   5.572   5.426 -2.8682  1.2773  0.3470
26603WAT    EPW 8219   3.586   5.498   5.466 -0.1807  0.3233  0.3047
26604WAT      O 8220   2.592   4.378   4.417  1.2069 -0.0444 -0.1951
26604WAT     H1 8221   2.558   4.390   4.506 -0.9635 -1.2966 -0.7932
26604WAT     H2 8222   2.664   4.316   4.427  0.1365 -1.2087  0.5647
26604WAT    EPW 8223   2.597   4.372   4.430  0.7794 -0.3631 -0.1738
26605WAT      O 8224  -1.603   6.947   1.855 -0.2148  0.5249 -0.4214
26605WAT     H1 8225  -1.690   6.978   1.828  0.5215  3.3696  0.1716
26605WAT     H2 8226  -1.607   6.945   1.950 -0.6143 -2.7047 -0.4018
26605WAT    EPW 8227  -1.615   6.951   1.864 -0.1704  0.4740 -0.3406
26606WAT      O 8228   1.334   0.475   4.331  0.0374  0.5132 -0.0008
26606WAT     H1 8229   1.313   0.563   4.362 -1.2734  1.0122 -2.1297
26606WAT     H2 8230   1.332   0.482   4.236 -1.5249 -2.1256 -0.2624
26606WAT    EPW 8231   1.331   0.488   4.323 -0.3416  0.2310 -0.3161
26607WAT      O 8232   1.163   3.783   3.255  0.3296  0.0672  0.0156
26607WAT     H1 8233   1.114   3.701   3.263  1.8003 -0.7972  0.3787
26607WAT     H2 8234   1.148   3.829   3.338 -0.9475  0.4545 -0.4025
26607WAT    EPW 8235   1.154   3.779   3.267  0.3552  0.0043  0.0083
26608WAT      O 8236   1.792   7.073   3.385  0.4301  0.1438 -0.6312
26608WAT     H1 8237   1.772   7.082   3.292  0.1942 -3.2572 -1.0426
26608WAT     H2 8238   1.887   7.070   3.389  0.4664  0.9948 -0.6341
26608WAT    EPW 8239   1.802   7.074   3.373  0.4038 -0.1924 -0.6857
26609WAT      O 8240  -0.972   2.292   0.757  0.2278 -0.1476  0.7386
26609WAT     H1 8241  -0.976   2.386   0.737 -0.7608 -0.0945  1.1038
26609WAT     H2 8242  -0.891   2.282   0.807  0.1204  0.5972  1.0867
26609WAT    EPW 8243  -0.962   2.303   0.761  0.0832 -0.0423  0.8327
26610WAT      O 8244   3.990   2.947   0.534 -0.6338  0.0197  0.4134
26610WAT     H1 8245   4.045   3.023   0.545 -1.0272  0.2515  0.8110
26610WAT     H2 8246   4.019   2.886   0.602 -1.3800  0.4548  1.1463
26610WAT    EPW 8247   4.001   2.949   0.544 -0.7842  0.1076  0.5625
26611WAT      O 8248   1.989   2.782   2.747 -0.0956  0.6317 -0.5958
26611WAT     H1 8249   1.903   2.776   2.704 -0.9902  0.2914  1.1519
26611WAT     H2 8250   2.021   2.692   2.750  0.7061  0.8432 -1.9108
26611WAT    EPW 8251   1.982   2.769   2.742 -0.1079  0.6148 -0.5387
26612WAT      O 8252   6.852   3.008   4.457 -0.8680 -0.4459 -0.0117
26612WAT     H1 8253   6.851   2.931   4.400  1.5720 -1.9836  1.8155
26612WAT     H2 8254   6.804   2.979   4.535 -1.4049  0.5230  0.0343
26612WAT    EPW 8255   6.845   2.994   4.460 -0.6173 -0.5209  0.2353
26613WAT      O 8256  -1.746   0.152   2.957  0.3516  0.4562  0.2512
26613WAT     H1 8257  -1.781   0.164   2.869  2.6303  0.6647 -0.6889
26613WAT     H2 8258  -1.686   0.226   2.969  2.4761 -1.2507  0.6955
26613WAT    EPW 8259  -1.742   0.164   2.947  0.9325  0.2586  0.1857
26614WAT      O 8260  -2.062   5.578   7.071  0.6056 -0.2181 -0.3705
26614WAT     H1 8261  -2.142   5.619   7.104 -0.3465 -1.9492 -0.3838
26614WAT     H2 8262  -2.082   5.484   7.072  3.0724 -0.7915  0.7075
26614WAT    EPW 8263  -2.075   5.571   7.075  0.8054 -0.5221 -0.2301
26615WAT      O 8264   1.215   4.571   5.492  0.2821 -0.1948  0.0622
26615WAT     H1 8265   1.231   4.614   5.576 -3.2829  0.9493  0.3215
26615WAT     H2 8266   1.220   4.478   5.511  0.2279  0.0541  1.3778
26615WAT    EPW 8267   1.218   4.565   5.505 -0.1952 -0.0110  0.2699
26616WAT      O 8268   0.437   2.719   2.102 -0.1306  0.5725 -0.0314
26616WAT     H1 8269   0.441   2.729   2.007  0.5313 -3.1730 -0.5796
26616WAT     H2 8270   0.357   2.669   2.118  0.2073  0.3969  1.2682
26616WAT    EPW 8271   0.427   2.713   2.092  0.0013  0.0553  0.0678
26617WAT      O 8272  -1.413   8.174   5.687 -0.0295 -0.6639  0.3986
26617WAT     H1 8273  -1.403   8.159   5.781  0.9750 -1.1446  0.2281
26617WAT     H2 8274  -1.481   8.242   5.681  1.4336  1.0203  1.6023
26617WAT    EPW 8275  -1.420   8.181   5.699  0.2960 -0.5054  0.5348
26618WAT      O 8276   2.447   1.456   7.828  0.0915  0.1098  0.0924
26618WAT     H1 8277   2.539   1.430   7.836 -0.8534 -3.4601  1.2944
26618WAT     H2 8278   2.419   1.469   7.918 -1.1153 -1.2449 -0.0545
26618WAT    EPW 8279   2.456   1.454   7.841 -0.1923 -0.5397  0.2315
26619WAT      O 8280   5.965   2.183   0.102  0.1639  0.8409  0.5154
26619WAT     H1 8281   6.007   2.266   0.081 -0.3331  0.5559 -1.9223
26619WAT     H2 8282   5.921   2.199   0.186  1.8768  2.3085  1.2103
26619WAT    EPW 8283   5.964   2.196   0.111  0.3245  0.9969  0.2856
26620WAT      O 8284   6.557   2.532   2.655 -0.3146 -0.3968  0.4634
26620WAT     H1 8285   6.469   2.549   2.619  0.1420  3.2681  0.7294
26620WAT     H2 8286   6.566   2.595   2.727  1.7057 -2.3073  2.0021
26620WAT    EPW 8287   6.546   2.543   2.660  0.0122 -0.1655  0.7014
26621WAT      O 8288  -6.162   7.132   7.758 -0.3087 -0.0677  0.1155
26621WAT     H1 8289  -6.225   7.154   7.827 -1.1338 -3.1258  0.4871
26621WAT     H2 8290  -6.086   7.099   7.805  0.2915  0.5316 -0.4154
26621WAT    EPW 8291  -6.161   7.131   7.774 -0.3383 -0.3920  0.0944
26622WAT      O 8292   0.968   6.504   4.800 -0.6136 -0.2713 -0.5741
26622WAT     H1 8293   0.876   6.530   4.797 -1.1048 -2.0221 -2.2607
26622WAT     H2 8294   1.012   6.567   4.743 -1.0404 -0.3472 -0.9967
26622WAT    EPW 8295   0.961   6.516   4.792 -0.7346 -0.5121 -0.8523
26623WAT      O 8296   3.713   0.654   6.723  0.0655 -0.1741  0.2683
26623WAT     H1 8297   3.727   0.570   6.679  0.3556 -0.6100  1.1851
26623WAT     H2 8298   3.696   0.631   6.814  1.7505  0.8349  0.8752
26623WAT    EPW 8299   3.713   0.640   6.729  0.3260 -0.0985  0.4692
26624WAT      O 8300  -3.692   9.263   5.895  0.3280 -0.3244 -0.1787
26624WAT     H1 8301  -3.616   9.273   5.838  0.7367  1.4261  0.5913
26624WAT     H2 8302  -3.766   9.289   5.840  0.2988 -1.7061 -0.8282
26624WAT    EPW 8303  -3.692   9.268   5.880  0.3781 -0.2761 -0.1628
26625WAT      O 8304   1.035   9.805   2.026  0.0582 -0.6263 -0.1002
26625WAT     H1 8305   1.098   9.844   2.087 -1.2395 -2.1507  2.3546
26625WAT     H2 8306   1.088   9.782   1.950  2.2465 -0.7440  1.3396
26625WAT    EPW 8307   1.051   9.807   2.024  0.1757 -0.8426  0.4135
26626WAT      O 8308   0.653   0.230   4.170 -0.3467  0.0558 -0.3574
26626WAT     H1 8309   0.715   0.253   4.239 -1.3508 -1.1523  0.9819
26626WAT     H2 8310   0.643   0.310   4.119  0.3954  0.9754  0.9036
26626WAT    EPW 8311   0.660   0.243   4.172 -0.3812  0.0178 -0.0145
26627WAT      O 8312   1.114   3.884   4.696 -0.4828 -0.1923  0.3364
26627WAT     H1 8313   1.196   3.935   4.696 -0.2216 -0.5633  1.9571
26627WAT     H2 8314   1.045   3.950   4.688 -0.0535  0.1046 -1.3822
26627WAT    EPW 8315   1.116   3.899   4.695 -0.3918 -0.2021  0.3235
26628WAT      O 8316  -0.902   1.701   3.275  0.3078  0.0246  0.3582
26628WAT     H1 8317  -0.896   1.631   3.209 -0.4863 -0.5879  0.9044
26628WAT     H2 8318  -0.829   1.684   3.334  1.3059  0.8576 -0.6074
26628WAT    EPW 8319  -0.892   1.689   3.274  0.3347  0.0537  0.3029
26629WAT      O 8320   5.714   1.241   5.129 -0.0324 -0.0226  0.9493
26629WAT     H1 8321   5.795   1.266   5.175  1.3245 -1.9994 -0.2347
26629WAT     H2 8322   5.685   1.161   5.173 -0.1205 -0.5272 -0.0101
26629WAT    EPW 8323   5.721   1.234   5.141  0.1349 -0.3499  0.6666
26630WAT      O 8324  -4.959   9.624   5.849  0.7826 -0.4360 -0.5249
26630WAT     H1 8325  -4.901   9.558   5.812 -0.0443 -1.6784  0.3466
26630WAT     H2 8326  -4.991   9.586   5.930  0.4283  1.1238  0.1077
26630WAT    EPW 8327  -4.955   9.610   5.855  0.6268 -0.3943 -0.3266
26631WAT      O 8328  -0.545   5.805   0.463 -0.6143 -0.0560 -0.5864
26631WAT     H1 8329  -0.527   5.891   0.503 -1.7362 -0.7638  1.6126
26631WAT     H2 8330  -0.467   5.753   0.482 -0.6189 -0.0082 -0.4349
26631WAT    EPW 8331  -0.532   5.810   0.471 -0.7629 -0.1431 -0.2764
26632WAT      O 8332  -3.901   9.765   3.690 -0.5070 -0.0995 -0.6255
26632WAT     H1 8333  -3.870   9.703   3.624 -0.9067 -3.0871  1.7381
26632WAT     H2 8334  -3.835   9.760   3.760 -1.9719 -0.0508  0.8222
26632WAT    EPW 8335  -3.888   9.756   3.691 -0.7529 -0.4869 -0.1228
26633WAT      O 8336  -0.983   3.390   7.256  0.5323  0.6782 -0.4111
26633WAT     H1 8337  -0.961   3.386   7.163 -2.3476 -0.1763 -1.1718
26633WAT     H2 8338  -1.057   3.451   7.260 -0.3023 -0.3826  1.0705
26633WAT    EPW 8339  -0.990   3.398   7.244  0.0424  0.4255 -0.3159
26634WAT      O 8340  -1.990   2.491   7.617 -0.3192 -0.0573  0.2865
26634WAT     H1 8341  -1.944   2.408   7.601  0.6921  0.3242  1.1072
26634WAT     H2 8342  -2.066   2.467   7.669  1.2518 -0.2305  2.6325
26634WAT    EPW 8343  -1.994   2.477   7.621  0.0214 -0.0298  0.7041
26635WAT      O 8344   6.271   4.606   2.810 -0.3240 -0.3422  0.9885
26635WAT     H1 8345   6.346   4.665   2.818  1.1716 -1.6907 -1.6837
26635WAT     H2 8346   6.264   4.565   2.896  1.7320  0.1879  1.4712
26635WAT    EPW 8347   6.280   4.608   2.822  0.1445 -0.4499  0.6998
26636WAT      O 8348  -0.659   6.977   3.195 -0.2255  0.3962  0.5344
26636WAT     H1 8349  -0.732   6.923   3.167  0.6336 -1.2208  1.3086
26636WAT     H2 8350  -0.596   6.972   3.122  0.2206 -0.3764  0.9633
26636WAT    EPW 8351  -0.660   6.970   3.181 -0.0534  0.0811  0.6931
26637WAT      O 8352  -5.228   9.011   6.912  0.3086  0.6486  0.5761
26637WAT     H1 8353  -5.146   8.998   6.960 -0.4608  0.2022  1.8248
26637WAT     H2 8354  -5.202   9.058   6.832  1.5032  2.4694  1.9495
26637WAT    EPW 8355  -5.214   9.016   6.908  0.3645  0.8297  0.9217
26638WAT      O 8356  -5.282   7.143   8.889  0.3031  0.3839 -0.3930
26638WAT     H1 8357  -5.287   7.220   8.832  0.2445  1.2830  0.7621
26638WAT     H2 8358  -5.335   7.077   8.845  0.1512  1.0852 -1.3073
26638WAT    EPW 8359  -5.290   7.145   8.876  0.2754  0.5949 -0.3614
26639WAT      O 8360  -1.119   6.059   6.042 -0.2370 -0.6729 -0.6315
26639WAT     H1 8361  -1.143   6.139   6.088 -0.3567 -1.6112  1.0074
26639WAT     H2 8362  -1.192   6.043   5.982  0.8270  1.6298 -2.7016
26639WAT    EPW 8363  -1.132   6.067   6.040 -0.1124 -0.4933 -0.6886
26640WAT      O 8364   6.143   7.467   0.360 -0.5112  0.2660  0.4199
26640WAT     H1 8365   6.087   7.405   0.407 -2.3352  0.0951 -1.7861
26640WAT     H2 8366   6.127   7.551   0.403 -0.6213 -0.2035  1.3103
26640WAT    EPW 8367   6.133   7.470   0.372 -0.7663  0.1817  0.2464
26641WAT      O 8368   6.362   9.583   1.925  0.1521  0.7021 -0.4876
26641WAT     H1 8369   6.309   9.514   1.886 -0.6619 -0.1539  1.9637
26641WAT     H2 8370   6.434   9.536   1.967  1.4021  1.6521 -1.4974
26641WAT    EPW 8371   6.364   9.568   1.925  0.2096  0.7143 -0.2974
26642WAT      O 8372  -0.107   4.750   7.893  0.7640 -1.1006 -0.2348
26642WAT     H1 8373  -0.053   4.829   7.901 -0.8890 -0.0622  1.7774
26642WAT     H2 8374  -0.134   4.749   7.801  2.1467 -0.2493 -0.6826
26642WAT    EPW 8375  -0.103   4.760   7.882  0.7284 -0.8514 -0.0284
26643WAT      O 8376   5.958   0.436   6.492  0.1660  0.3751 -0.1564
26643WAT     H1 8377   6.032   0.376   6.498 -0.3507 -0.2187  0.3680
26643WAT     H2 8378   5.888   0.384   6.453  0.1418  1.0494 -1.0315
26643WAT    EPW 8379   5.958   0.421   6.488  0.0944  0.3857 -0.2024
26644WAT      O 8380   1.029   0.554   3.672  0.3362  0.5673 -0.2931
26644WAT     H1 8381   1.088   0.592   3.737  1.4734 -0.5067 -0.6570
26644WAT     H2 8382   0.969   0.625   3.649  1.1268  1.5213  0.5146
26644WAT    EPW 8383   1.029   0.568   3.677  0.5905  0.5515 -0.2345
26645WAT      O 8384   4.331   0.136   1.833  0.0639 -0.0217  0.1652
26645WAT     H1 8385   4.264   0.195   1.869  1.7361  0.8149  2.0758
26645WAT     H2 8386   4.414   0.175   1.861  1.2813 -2.4688  0.1751
26645WAT    EPW 8387   4.333   0.149   1.842  0.4451 -0.2341  0.4185
26646WAT      O 8388  -5.258   6.630   5.856  0.6109  0.8784  0.1012
26646WAT     H1 8389  -5.308   6.629   5.938  0.6817  0.1441  0.1417
26646WAT     H2 8390  -5.263   6.540   5.824 -0.6789  1.4747 -1.4843
26646WAT    EPW 8391  -5.265   6.618   5.863  0.4499  0.8602 -0.1025
26647WAT      O 8392  -1.817   3.652   4.897  0.4809 -0.7274  0.0489
26647WAT     H1 8393  -1.901   3.642   4.853 -0.2148 -1.6151  1.4997
26647WAT     H2 8394  -1.752   3.627   4.831 -0.2292  1.5155 -1.6153
26647WAT    EPW 8395  -1.819   3.648   4.883  0.2955 -0.5486  0.0207
26648WAT      O 8396   0.203   3.072   4.098  1.3375  0.1867  0.4638
26648WAT     H1 8397   0.118   3.090   4.140  0.9528 -0.5479  0.0134
26648WAT     H2 8398   0.263   3.059   4.171  0.3255 -2.8163  0.9014
26648WAT    EPW 8399   0.199   3.073   4.113  1.1533 -0.3062  0.4621
26649WAT      O 8400  -2.697   3.931   8.347 -0.6675 -0.3118  0.0811
26649WAT     H1 8401  -2.620   3.969   8.390 -0.9171 -0.4658  0.6762
26649WAT     H2 8402  -2.716   3.991   8.275 -0.1837 -0.0980  0.1296
26649WAT    EPW 8403  -2.689   3.944   8.344 -0.6367 -0.3039  0.1664
26650WAT      O 8404   1.928   8.821   1.935  0.2699 -0.6249 -0.0012
26650WAT     H1 8405   2.021   8.847   1.931  0.5819 -1.1585  2.3833
26650WAT     H2 8406   1.927   8.743   1.991 -1.6819 -0.3207  0.4553
26650WAT    EPW 8407   1.940   8.814   1.942  0.0537 -0.6552  0.3735
26651WAT      O 8408   6.471   4.457   2.165  0.4855 -0.2927 -0.9946
26651WAT     H1 8409   6.540   4.484   2.226  0.2739 -0.0860 -0.8436
26651WAT     H2 8410   6.416   4.398   2.216  0.7481 -0.7302 -1.2202
26651WAT    EPW 8411   6.473   4.453   2.180  0.4923 -0.3233 -1.0046
26652WAT      O 8412  -3.937   8.217   2.464  0.1528  0.8843 -0.3405
26652WAT     H1 8413  -3.936   8.193   2.557 -1.7218 -0.0845 -0.5132
26652WAT     H2 8414  -3.882   8.295   2.459 -0.9025  1.8691  1.8658
26652WAT    EPW 8415  -3.930   8.224   2.475 -0.2335  0.8860 -0.0722
26653WAT      O 8416   3.638   2.573   4.941  0.2214 -0.8532  0.4696
26653WAT     H1 8417   3.616   2.567   5.034  0.5030 -3.2980  0.4329
26653WAT     H2 8418   3.733   2.589   4.939  0.0028  0.6283  0.5632
26653WAT    EPW 8419   3.648   2.575   4.953  0.2297 -0.9803  0.4771
26654WAT      O 8420   5.134   8.083   4.075  0.3158  0.2427 -0.3394
26654WAT     H1 8421   5.168   8.170   4.055  1.3542 -0.4293 -1.6630
26654WAT     H2 8422   5.100   8.051   3.992 -3.1922  0.6131  0.7457
26654WAT    EPW 8423   5.134   8.090   4.062 -0.0100  0.2027 -0.3707
26655WAT      O 8424   2.690   5.457   4.553  0.5051  0.3785 -0.8485
26655WAT     H1 8425   2.634   5.446   4.476  0.8974 -0.6356 -1.0093
26655WAT     H2 8426   2.723   5.369   4.571  1.3270  0.8044 -0.2171
26655WAT    EPW 8427   2.687   5.444   4.545  0.6652  0.3009 -0.7865
26656WAT      O 8428  -4.379   7.352   5.897  0.0710  0.1913  0.3682
26656WAT     H1 8429  -4.314   7.283   5.880  0.7931  0.1388  2.9564
26656WAT     H2 8430  -4.462   7.305   5.905 -0.0479  0.0644 -1.2200
26656WAT    EPW 8431  -4.381   7.336   5.896  0.1504  0.1676  0.5002
26657WAT      O 8432   1.706   1.829   8.073  0.0602  0.8033  0.5964
26657WAT     H1 8433   1.655   1.784   8.005 -0.7850  1.8713  0.5042
26657WAT     H2 8434   1.739   1.758   8.128  0.1538 -0.0415 -0.5007
26657WAT    EPW 8435   1.704   1.813   8.071 -0.0390  0.8327  0.4392
26658WAT      O 8436  -1.183   3.199   1.817  0.9286  0.4349  0.3137
26658WAT     H1 8437  -1.220   3.284   1.790 -0.2913  0.7108  2.6180
26658WAT     H2 8438  -1.162   3.211   1.910 -0.5950 -2.1746  1.0918
26658WAT    EPW 8439  -1.185   3.212   1.826  0.5667  0.1272  0.7203
26659WAT      O 8440   3.948   2.502   6.740  1.2501 -0.2509  0.1057
26659WAT     H1 8441   3.907   2.458   6.665  1.1175 -0.8451  0.5158
26659WAT     H2 8442   4.008   2.565   6.701  0.1420  0.4549 -0.5056
26659WAT    EPW 8443   3.950   2.504   6.725  1.0865 -0.2362  0.0792
26660WAT      O 8444   4.165   0.613   8.623 -0.0762 -0.0225 -0.1578
26660WAT     H1 8445   4.113   0.533   8.632 -1.7864  0.8206 -1.8856
26660WAT     H2 8446   4.154   0.658   8.706 -2.7315  0.4244 -0.6582
26660WAT    EPW 8447   4.157   0.608   8.635 -0.6521  0.1477 -0.4520
26661WAT      O 8448  -1.985   3.483   6.408  0.3158  0.5947  0.1318
26661WAT     H1 8449  -2.054   3.502   6.473  0.4640  1.4937  0.0391
26661WAT     H2 8450  -2.009   3.536   6.332 -1.1665 -2.2094 -1.4959
26661WAT    EPW 8451  -1.997   3.493   6.407  0.1398  0.3433 -0.0951
26662WAT      O 8452   5.519   3.802   0.223 -0.3579 -1.1710  0.5526
26662WAT     H1 8453   5.447   3.823   0.283 -1.3238 -1.5915 -0.4246
26662WAT     H2 8454   5.544   3.712   0.246  0.3579 -0.7703  1.3741
26662WAT    EPW 8455   5.512   3.793   0.234 -0.3908 -1.1736  0.5321
26663WAT      O 8456  -4.382   2.639   6.945 -0.2128 -0.2094  0.2336
26663WAT     H1 8457  -4.474   2.638   6.972  0.0652  2.0798  1.5157
26663WAT     H2 8458  -4.345   2.716   6.988  2.1158 -0.5682 -0.9516
26663WAT    EPW 8459  -4.389   2.649   6.954  0.1309  0.0452  0.2463
26664WAT      O 8460  -1.120   9.314   8.372  1.0225  0.2379 -1.1749
26664WAT     H1 8461  -1.051   9.249   8.383  0.8754  0.1061 -1.0080
26664WAT     H2 8462  -1.091   9.390   8.421  1.7035  0.7033 -2.2704
26664WAT    EPW 8463  -1.107   9.315   8.380  1.0929  0.2818 -1.2975
26665WAT      O 8464   0.139   8.451   0.687 -0.0172  0.1845  0.2129
26665WAT     H1 8465   0.108   8.379   0.742  1.7976 -0.1144  0.8864
26665WAT     H2 8466   0.206   8.412   0.631  0.2110  1.1266 -0.1910
26665WAT    EPW 8467   0.144   8.437   0.687  0.2523  0.2694  0.2485
26666WAT      O 8468  -3.079   6.231   6.563  0.7632 -0.4967 -0.6443
26666WAT     H1 8469  -3.058   6.253   6.654 -2.5393  1.5112 -0.1718
26666WAT     H2 8470  -3.092   6.137   6.564  0.5703 -0.4986  1.0635
26666WAT    EPW 8471  -3.078   6.222   6.575  0.3023 -0.2325 -0.3567
26667WAT      O 8472  -2.949   8.512   2.414  0.1564 -0.0897 -0.1274
26667WAT     H1 8473  -3.016   8.471   2.468  0.9388 -0.0180  0.9203
26667WAT     H2 8474  -2.900   8.439   2.375 -0.2572 -0.1388 -0.5697
26667WAT    EPW 8475  -2.951   8.497   2.416  0.2050 -0.0873 -0.0474
26668WAT      O 8476   4.545   4.544   3.806  0.1333 -0.3899 -0.0951
26668WAT     H1 8477   4.490   4.613   3.769  0.0048  0.5395  1.7596
26668WAT     H2 8478   4.600   4.588   3.870  2.3130 -1.4973 -1.0836
26668WAT    EPW 8479   4.545   4.559   3.809  0.4036 -0.4134  0.0191
26669WAT      O 8480   1.003   8.467   7.677  0.2119  0.6844 -0.1892
26669WAT     H1 8481   0.934   8.473   7.610  1.3364  1.2533 -1.3523
26669WAT     H2 8482   0.998   8.376   7.707 -1.4276  0.8629  0.2072
26669WAT    EPW 8483   0.993   8.456   7.672  0.1439  0.7830 -0.2902
26670WAT      O 8484  -1.872   7.493   3.054  0.1423 -0.5481  0.3659
26670WAT     H1 8485  -1.881   7.413   3.107 -0.6468 -1.2828 -0.8510
26670WAT     H2 8486  -1.960   7.529   3.050  0.7615  1.5251  2.5234
26670WAT    EPW 8487  -1.885   7.487   3.061  0.1199 -0.3715  0.4898
26671WAT      O 8488   4.232   2.150   2.612  0.1109 -0.1540  0.1187
26671WAT     H1 8489   4.167   2.198   2.562 -0.2029 -0.0406  0.6296
26671WAT     H2 8490   4.245   2.068   2.563  0.6305  0.4279 -0.7379
26671WAT    EPW 8491   4.225   2.145   2.599  0.1380 -0.0622  0.0731
26672WAT      O 8492  -1.600   3.084   2.603  0.0994 -0.6086  0.1742
26672WAT     H1 8493  -1.670   3.148   2.621 -1.5804 -2.2919 -0.0757
26672WAT     H2 8494  -1.539   3.094   2.676 -0.2947  1.0255  0.3124
26672WAT    EPW 8495  -1.601   3.094   2.615 -0.1741 -0.6151  0.1594
26673WAT      O 8496  -2.604   2.688   4.065  0.4752 -0.3768  0.5908
26673WAT     H1 8497  -2.538   2.719   4.127  1.1788  1.3665 -0.9080
26673WAT     H2 8498  -2.553   2.639   3.999 -0.0805 -1.1123  0.6995
26673WAT    EPW 8499  -2.588   2.686   4.065  0.4947 -0.2438  0.4075
26674WAT      O 8500  -5.432   6.241   8.665  0.6305 -0.2987 -0.1890
26674WAT     H1 8501  -5.364   6.300   8.698  0.6997  0.2319 -1.2453
26674WAT     H2 8502  -5.384   6.163   8.636  0.3284 -2.2195  3.8063
26674WAT    EPW 8503  -5.417   6.239   8.666  0.5999 -0.4823  0.1988
26675WAT      O 8504   0.542   5.006   3.312  0.5919  0.3629  0.0522
26675WAT     H1 8505   0.586   4.953   3.379 -2.8046  0.3236  2.4895
26675WAT     H2 8506   0.511   4.942   3.248 -0.8177 -0.3159  1.3588
26675WAT    EPW 8507   0.544   4.991   3.312 -0.0420  0.2682  0.5461
26676WAT      O 8508  -1.617   7.038   8.341  0.5006  0.5957 -0.0086
26676WAT     H1 8509  -1.640   6.945   8.340 -3.0630  1.3389  0.1917
26676WAT     H2 8510  -1.602   7.058   8.433 -2.7078  0.9312  0.5443
26676WAT    EPW 8511  -1.618   7.028   8.353 -0.3926  0.7379  0.0906
26677WAT      O 8512   1.038   9.627   0.977 -0.2842 -0.5039 -0.2281
26677WAT     H1 8513   1.042   9.706   0.923 -0.8311  0.0000  0.4535
26677WAT     H2 8514   0.958   9.583   0.950  1.0478 -1.9383 -2.0805
26677WAT    EPW 8515   1.028   9.632   0.966 -0.1806 -0.6270 -0.3825
26678WAT      O 8516   2.768   5.315   2.349 -0.4186  0.2526  0.8455
26678WAT     H1 8517   2.863   5.327   2.351 -0.3306 -0.4138  3.2060
26678WAT     H2 8518   2.752   5.276   2.263  1.3885  0.7459  0.2320
26678WAT    EPW 8519   2.779   5.311   2.338 -0.1687  0.2301  1.0757
26679WAT      O 8520   6.672   3.920   1.743 -0.1328 -0.2995  0.3792
26679WAT     H1 8521   6.676   4.012   1.719  1.5032 -0.5213 -0.3327
26679WAT     H2 8522   6.716   3.915   1.827  1.1933 -0.6182 -0.3042
26679WAT    EPW 8523   6.678   3.931   1.751  0.2580 -0.3709  0.1951
26680WAT      O 8524   5.831   4.922   2.656  0.5630  0.5772 -0.0715
26680WAT     H1 8525   5.742   4.955   2.642  0.7930  1.9047  1.3628
26680WAT     H2 8526   5.826   4.876   2.740  1.2952  0.9420  0.1826
26680WAT    EPW 8527   5.818   4.920   2.666  0.6900  0.8004  0.1512
26681WAT      O 8528  -2.640   1.309   6.500  0.5000 -0.4293 -0.1779
26681WAT     H1 8529  -2.546   1.322   6.512  0.5145 -0.6060 -0.0898
26681WAT     H2 8530  -2.679   1.339   6.582  0.4522 -0.0902 -0.3205
26681WAT    EPW 8531  -2.633   1.315   6.512  0.4956 -0.4079 -0.1853
26682WAT      O 8532   3.774   4.602   1.762  0.2747 -0.1855 -0.3289
26682WAT     H1 8533   3.726   4.668   1.813  0.6740 -0.5202  0.5077
26682WAT     H2 8534   3.813   4.652   1.690  1.3113  0.7000  0.7832
26682WAT    EPW 8535   3.773   4.618   1.759  0.4641 -0.1128 -0.0719
26683WAT      O 8536  -3.217   0.913   6.739  0.2645 -0.7152 -0.1671
26683WAT     H1 8537  -3.161   0.970   6.687 -1.7374  3.1157  1.5001
26683WAT     H2 8538  -3.177   0.913   6.826 -2.1706  2.3408  1.1364
26683WAT    EPW 8539  -3.204   0.921   6.743 -0.3208  0.1932  0.2246
26684WAT      O 8540   1.020   8.818   1.577  0.1180  0.0356 -0.1600
26684WAT     H1 8541   0.994   8.729   1.603  2.6000 -1.1295 -1.2911
26684WAT     H2 8542   0.944   8.851   1.529 -0.6078 -1.7847 -0.3723
26684WAT    EPW 8543   1.006   8.810   1.574  0.3496 -0.3581 -0.3372
26685WAT      O 8544   0.686   5.569   1.583 -0.1809 -0.2951  0.6318
26685WAT     H1 8545   0.677   5.572   1.488  1.7505 -0.5219  0.4104
26685WAT     H2 8546   0.690   5.476   1.604 -1.9717 -0.3025  1.1265
26685WAT    EPW 8547   0.685   5.557   1.574 -0.1624 -0.3262  0.6678
26686WAT      O 8548   1.821   3.193   6.028  0.1835 -0.1666  0.5830
26686WAT     H1 8549   1.745   3.238   5.991  1.5149  0.3028 -1.7982
26686WAT     H2 8550   1.794   3.101   6.035 -0.6196  0.0075 -0.1185
26686WAT    EPW 8551   1.808   3.187   6.024  0.2532 -0.0817  0.1764
26687WAT      O 8552  -3.992   9.575   5.096  0.0641 -0.0217  0.1088
26687WAT     H1 8553  -4.005   9.482   5.115 -3.4597  0.3042  0.0309
26687WAT     H2 8554  -3.941   9.576   5.015  1.0297 -1.8134  0.6354
26687WAT    EPW 8555  -3.987   9.563   5.088 -0.2732 -0.2151  0.1678
26688WAT      O 8556   2.894   0.811   8.439 -0.2498  0.3632 -1.1284
26688WAT     H1 8557   2.987   0.794   8.423 -0.5614 -1.0364 -1.6729
26688WAT     H2 8558   2.850   0.776   8.361 -1.2247  1.1984 -0.9751
26688WAT    EPW 8559   2.900   0.804   8.427 -0.4195  0.2888 -1.1797
26689WAT      O 8560  -0.028   8.504   6.869 -0.0518  0.0378  0.5975
26689WAT     H1 8561  -0.122   8.485   6.861  0.2495 -1.2570 -0.1366
26689WAT     H2 8562  -0.008   8.555   6.791 -0.2050  0.6152  0.9296
26689WAT    EPW 8563  -0.038   8.508   6.858 -0.0323 -0.0563  0.5443
26690WAT      O 8564   1.183   8.338   7.407 -0.2970  0.2500  0.1467
26690WAT     H1 8565   1.270   8.298   7.403  0.1921  0.7138  3.3454
26690WAT     H2 8566   1.198   8.431   7.390  0.4265  0.8377  3.3038
26690WAT    EPW 8567   1.197   8.345   7.404 -0.1370  0.3886  0.9849
26691WAT      O 8568   5.647   9.386   0.622 -1.0284 -0.2427 -0.1204
26691WAT     H1 8569   5.674   9.394   0.714 -0.4221  1.7479 -0.4191
26691WAT     H2 8570   5.730   9.386   0.573 -1.3798 -0.4170 -0.7243
26691WAT    EPW 8571   5.662   9.387   0.628 -0.9947 -0.0033 -0.2394
26692WAT      O 8572   0.469   1.760   6.272 -0.4530  0.1761 -0.5258
26692WAT     H1 8573   0.522   1.803   6.338  2.8924 -0.2302 -2.7287
26692WAT     H2 8574   0.462   1.824   6.201 -1.8485 -0.2908 -0.8588
26692WAT    EPW 8575   0.475   1.774   6.271 -0.1958  0.0609 -0.8602
26693WAT      O 8576   5.804   6.892   2.090  0.0097  0.7888 -0.4441
26693WAT     H1 8577   5.781   6.973   2.136  1.7880  0.6596  0.7486
26693WAT     H2 8578   5.796   6.915   1.997 -1.8919  1.5814 -0.1399
26693WAT    EPW 8579   5.800   6.906   2.084 -0.0067  0.8762 -0.2468
26694WAT      O 8580   2.763   0.447   8.215  0.3608  0.4009 -0.0824
26694WAT     H1 8581   2.796   0.361   8.188  0.1770  0.0129  0.8830
26694WAT     H2 8582   2.697   0.469   8.149 -4.2345 -3.0877  2.7359
26694WAT    EPW 8583   2.758   0.439   8.203 -0.2695 -0.1104  0.4163
26695WAT      O 8584   1.500   3.179   3.894  0.0133 -0.1283  0.1702
26695WAT     H1 8585   1.435   3.159   3.962  0.7180 -0.8526  0.6495
26695WAT     H2 8586   1.554   3.248   3.933 -2.0929  2.5345 -1.2775
26695WAT    EPW 8587   1.498   3.186   3.908 -0.1716  0.1274  0.0426
26696WAT      O 8588  -1.371   5.807   3.968 -0.0861 -0.1906 -0.1862
26696WAT     H1 8589  -1.420   5.755   3.904 -0.3964  1.0822 -1.0149
26696WAT     H2 8590  -1.281   5.776   3.960 -0.3354 -0.8878 -0.3652
26696WAT    EPW 8591  -1.366   5.796   3.958 -0.1599 -0.1147 -0.3191
26697WAT      O 8592  -0.598   3.747   7.748  0.4363 -0.1638  0.1552
26697WAT     H1 8593  -0.579   3.727   7.839  3.2511  0.5851 -0.1578
26697WAT     H2 8594  -0.645   3.831   7.750  0.6253 -0.0731  0.8985
26697WAT    EPW 8595  -0.602   3.755   7.760  0.8325 -0.0530  0.2120
26698WAT      O 8596   1.527   1.495   0.073 -0.7936  0.9208 -0.3104
26698WAT     H1 8597   1.582   1.558   0.119 -1.0408 -0.4091  1.9658
26698WAT     H2 8598   1.466   1.548   0.022 -2.0109  2.6190  2.7261
26698WAT    EPW 8599   1.527   1.510   0.072 -0.9868  0.9694  0.3903
26699WAT      O 8600   2.550   5.022   4.484 -0.0690  0.0390 -0.2644
26699WAT     H1 8601   2.464   4.987   4.459 -0.7552 -1.4454  3.4955
26699WAT     H2 8602   2.531   5.111   4.515 -0.2350 -0.1935  0.3155
26699WAT    EPW 8603   2.536   5.029   4.485 -0.1814 -0.1874  0.3080
26700WAT      O 8604   4.752   8.565   1.918  1.2185 -0.1398  0.2866
26700WAT     H1 8605   4.820   8.611   1.968  0.5448  0.2881  0.8464
26700WAT     H2 8606   4.670   8.607   1.946  0.7716 -0.2349 -0.8136
26700WAT    EPW 8607   4.750   8.577   1.929  1.0705 -0.0958  0.2153
26701WAT      O 8608  -1.895   8.557   5.960 -0.0304  0.1364 -0.1976
26701WAT     H1 8609  -1.923   8.499   6.030  0.0163 -0.4556 -0.6602
26701WAT     H2 8610  -1.970   8.615   5.944 -0.7537 -0.9759 -0.9536
26701WAT    EPW 8611  -1.908   8.557   5.967 -0.1197 -0.0887 -0.3583
26702WAT      O 8612  -4.356   4.057   6.047  0.7723  0.1005 -0.1700
26702WAT     H1 8613  -4.429   4.015   6.093  0.8459 -1.7519 -1.6161
26702WAT     H2 8614  -4.391   4.142   6.019 -0.2650 -0.0521  0.5891
26702WAT    EPW 8615  -4.370   4.063   6.050  0.6449 -0.1640 -0.2606
26703WAT      O 8616   1.952   6.540   1.894  0.8594  0.2131  0.2393
26703WAT     H1 8617   1.900   6.549   1.814  1.8069 -2.4517 -0.7934
26703WAT     H2 8618   2.043   6.543   1.865  1.2320 -2.2159  0.9169
26703WAT    EPW 8619   1.957   6.541   1.880  1.0335 -0.4587  0.1925
26704WAT      O 8620   0.270   1.766   4.009  0.2562 -0.8589 -0.3623
26704WAT     H1 8621   0.247   1.768   4.102  1.0939 -1.3812 -0.1369
26704WAT     H2 8622   0.325   1.844   3.997  0.4259 -0.9769 -0.3467
26704WAT    EPW 8623   0.274   1.777   4.020  0.3891 -0.9434 -0.3304
26705WAT      O 8624   6.707   1.135   3.949  0.6222 -0.0554  0.5097
26705WAT     H1 8625   6.741   1.138   4.038 -0.1122 -1.0724  0.8403
26705WAT     H2 8626   6.782   1.113   3.894  0.9218 -0.1554  0.9606
26705WAT    EPW 8627   6.721   1.133   3.953  0.5648 -0.2027  0.6127
26706WAT      O 8628   0.036   1.775   7.826 -0.0221  0.3516  0.6508
26706WAT     H1 8629  -0.033   1.729   7.874 -1.3132 -1.3377 -2.5563
26706WAT     H2 8630  -0.010   1.847   7.782  1.1357  1.8488  1.7443
26706WAT    EPW 8631   0.021   1.779   7.827 -0.0397  0.3263  0.3719
26707WAT      O 8632   5.190   9.875   1.827 -0.3617 -0.3893 -0.7164
26707WAT     H1 8633   5.193   9.956   1.777 -2.4557  1.0019  1.2533
26707WAT     H2 8634   5.147   9.898   1.909  0.6566 -3.1062  0.7292
26707WAT    EPW 8635   5.185   9.889   1.831 -0.5035 -0.5646 -0.2658
26708WAT      O 8636   0.441   9.945   3.321  0.8740  0.2245 -0.4041
26708WAT     H1 8637   0.420   9.851   3.325 -0.0125  0.4525  1.4472
26708WAT     H2 8638   0.451   9.963   3.228  2.1667 -1.9304 -0.7672
26708WAT    EPW 8639   0.440   9.935   3.309  0.9276 -0.0296 -0.2079
26709WAT      O 8640   1.604   2.788   2.269  0.6766 -0.0295  0.0206
26709WAT     H1 8641   1.678   2.841   2.237  0.2723  0.2945 -0.4089
26709WAT     H2 8642   1.536   2.802   2.203  0.9258 -1.9864 -0.7135
26709WAT    EPW 8643   1.605   2.797   2.256  0.6561 -0.2449 -0.1329
26710WAT      O 8644  -0.936   5.466   3.936  0.5416  0.0837  0.0457
26710WAT     H1 8645  -1.031   5.461   3.947  0.4148  1.7281 -0.1267
26710WAT     H2 8646  -0.901   5.402   3.999 -0.5922  1.2221  1.9225
26710WAT    EPW 8647  -0.944   5.457   3.946  0.3753  0.4508  0.2706
26711WAT      O 8648   4.654   6.461   4.813  0.2158  0.4888  0.2258
26711WAT     H1 8649   4.712   6.438   4.741 -0.2945 -1.3768  0.3503
26711WAT     H2 8650   4.713   6.483   4.886  0.7297  1.1212 -0.3724
26711WAT    EPW 8651   4.669   6.461   4.813  0.2162  0.3262  0.1633
26712WAT      O 8652   3.097   8.081   7.259 -0.3723  0.1412 -0.5688
26712WAT     H1 8653   3.135   8.003   7.297  0.4007 -0.0900 -1.7534
26712WAT     H2 8654   3.018   8.098   7.311  0.7042 -0.0437  1.1923
26712WAT    EPW 8655   3.091   8.073   7.271 -0.1284  0.0863 -0.4928
26713WAT      O 8656   1.046   0.987   8.644  0.0129  0.2751  0.4410
26713WAT     H1 8657   1.056   0.919   8.710 -0.8630  0.7881  1.1377
26713WAT     H2 8658   1.110   0.966   8.576  0.4163 -0.6801  1.1077
26713WAT    EPW 8659   1.056   0.975   8.644 -0.0495  0.2168  0.6208
26714WAT      O 8660  -0.629   6.386   1.113  0.1789  0.6076  0.4818
26714WAT     H1 8661  -0.662   6.326   1.046 -1.4104  1.7161  0.2195
26714WAT     H2 8662  -0.700   6.391   1.178  0.1504  2.3567  0.3690
26714WAT    EPW 8663  -0.643   6.379   1.113 -0.0345  0.9847  0.4323
26715WAT      O 8664  -0.010  10.037   7.297  0.7610 -0.1739 -0.5639
26715WAT     H1 8665  -0.060  10.118   7.283 -0.6085 -1.2888 -2.6986
26715WAT     H2 8666   0.069  10.049   7.244 -0.2089 -0.8268 -2.2203
26715WAT    EPW 8667  -0.006  10.049   7.288  0.4525 -0.4072 -1.0641
26716WAT      O 8668  -3.680   8.509   5.823  0.2572  0.1611  0.2147
26716WAT     H1 8669  -3.615   8.473   5.885  2.6741  0.1182 -2.1509
26716WAT     H2 8670  -3.638   8.587   5.787 -2.0858  1.5485  0.2789
26716WAT    EPW 8671  -3.666   8.514   5.827  0.2670  0.3381 -0.0887
26717WAT      O 8672  -4.510   1.313   8.063 -0.6922  0.4989 -0.9552
26717WAT     H1 8673  -4.557   1.378   8.010 -1.6840 -1.1991 -2.2334
26717WAT     H2 8674  -4.506   1.235   8.007  0.1710 -0.6632  0.6661
26717WAT    EPW 8675  -4.516   1.312   8.048 -0.7091  0.1217 -0.9098
26718WAT      O 8676  -0.842   6.097   3.195  0.0537  0.1633 -0.5600
26718WAT     H1 8677  -0.842   6.141   3.280 -2.4271  0.3367 -0.5677
26718WAT     H2 8678  -0.750   6.081   3.176  0.6925  0.1145  2.1527
26718WAT    EPW 8679  -0.830   6.101   3.204 -0.1892  0.1798 -0.2031
26719WAT      O 8680   5.201  10.082   1.016 -0.0054 -0.3294  0.2141
26719WAT     H1 8681   5.201  10.035   1.099  0.0692 -0.6255  0.0459
26719WAT     H2 8682   5.116  10.060   0.977  0.1687 -0.5946 -0.0171
26719WAT    EPW 8683   5.190  10.073   1.022  0.0274 -0.4034  0.1614
26720WAT      O 8684  -1.866   8.312   0.644 -0.3373  0.2998  0.4154
26720WAT     H1 8685  -1.845   8.220   0.659  1.2109  0.6778  0.7042
26720WAT     H2 8686  -1.902   8.343   0.728 -3.0247 -0.5504 -0.3129
26720WAT    EPW 8687  -1.868   8.304   0.657 -0.4875  0.2375  0.3574
26721WAT      O 8688   0.052   5.382   3.418 -0.2248  0.4815  0.6452
26721WAT     H1 8689   0.107   5.431   3.479 -1.3452  0.2134  1.9192
26721WAT     H2 8690   0.100   5.300   3.402  0.0133  0.4961  1.2808
26721WAT    EPW 8691   0.066   5.377   3.424 -0.3411  0.4482  0.8969
26722WAT      O 8692  -0.646   7.898   2.797  0.1433  0.3281  0.4053
26722WAT     H1 8693  -0.610   7.888   2.885  0.8026  3.3803  0.5958
26722WAT     H2 8694  -0.579   7.948   2.750 -1.3968  1.1641 -0.9820
26722WAT    EPW 8695  -0.632   7.903   2.802  0.0271  0.8409  0.2475
26723WAT      O 8696   1.496   3.608   8.738  0.5045  0.6377  0.2069
26723WAT     H1 8697   1.451   3.587   8.819  1.5874  3.7178  1.7955
26723WAT     H2 8698   1.428   3.646   8.682  0.5202  3.0642  1.6770
26723WAT    EPW 8699   1.481   3.610   8.741  0.6493  1.3640  0.6104
26724WAT      O 8700  -3.897   0.295   8.030 -0.6738 -0.0776  0.1248
26724WAT     H1 8701  -3.885   0.333   7.943  1.3199 -0.0952  0.3482
26724WAT     H2 8702  -3.918   0.203   8.013 -2.6928  0.4171 -0.3448
26724WAT    EPW 8703  -3.898   0.288   8.016 -0.6771 -0.0146  0.0925
26725WAT      O 8704   7.201   1.024   0.718  0.8859  0.3156 -0.5177
26725WAT     H1 8705   7.278   0.974   0.745 -0.5882 -0.9412  1.6924
26725WAT     H2 8706   7.168   1.063   0.799 -1.0897  0.3817 -1.3020
26725WAT    EPW 8707   7.207   1.022   0.732  0.4311  0.1585 -0.3296
26726WAT      O 8708   6.575   6.634   3.077  0.2429  0.4455  0.6321
26726WAT     H1 8709   6.492   6.610   3.035  1.4772 -1.9017 -0.6564
26726WAT     H2 8710   6.568   6.599   3.166  0.2273 -0.7134  0.1914
26726WAT    EPW 8711   6.563   6.626   3.083  0.4036 -0.0169  0.4041
26727WAT      O 8712  -3.853  10.103   7.048 -0.4458  0.2048 -0.2543
26727WAT     H1 8713  -3.785  10.117   6.981  0.6753  1.8923  1.1488
26727WAT     H2 8714  -3.860  10.008   7.055  2.9455 -0.0977  0.6073
26727WAT    EPW 8715  -3.845  10.092   7.040  0.1493  0.3872  0.0443
26728WAT      O 8716   0.452   9.909   0.807  0.3978  0.4657  0.1403
26728WAT     H1 8717   0.511   9.884   0.877  1.3279  0.9434 -0.4420
26728WAT     H2 8718   0.381   9.956   0.850 -0.4231 -1.4855  1.0286
26728WAT    EPW 8719   0.450   9.912   0.822  0.4122  0.2713  0.1807
26729WAT      O 8720  -5.546   8.844   5.597  0.3677 -0.3283 -0.6327
26729WAT     H1 8721  -5.589   8.763   5.571 -1.5368  0.6177 -0.6175
26729WAT     H2 8722  -5.585   8.866   5.681 -1.2077  1.9435 -1.8417
26729WAT    EPW 8723  -5.557   8.836   5.604 -0.0913  0.0958 -0.7904
26730WAT      O 8724   6.044   4.044   1.714  0.7630  0.1928  0.1158
26730WAT     H1 8725   6.068   4.132   1.744  1.3345 -0.6650  2.3243
26730WAT     H2 8726   6.126   4.006   1.682  0.1493  1.1374 -2.9598
26730WAT    EPW 8727   6.058   4.051   1.714  0.7577  0.2041  0.0014
26731WAT      O 8728   4.655   4.114   6.824 -0.0705 -0.7706 -0.2032
26731WAT     H1 8729   4.637   4.206   6.845  0.1779  0.2651 -3.8281
26731WAT     H2 8730   4.724   4.088   6.885  0.5903  1.8275  0.2654
26731WAT    EPW 8731   4.662   4.123   6.835  0.0494 -0.2913 -0.6194
26732WAT      O 8732   5.341   0.113   5.654  0.5436 -0.2371 -0.7688
26732WAT     H1 8733   5.298   0.028   5.666 -0.4703  0.3040 -0.4333
26732WAT     H2 8734   5.299   0.170   5.718  1.6174  0.3771 -0.6011
26732WAT    EPW 8735   5.330   0.110   5.664  0.5517 -0.0848 -0.7024
26733WAT      O 8736  -3.003   7.007   3.820  0.4137 -0.2677 -0.1159
26733WAT     H1 8737  -2.987   7.084   3.766 -2.4714 -0.5544 -1.6135
26733WAT     H2 8738  -3.031   6.940   3.758  0.7199 -1.8445  1.3788
26733WAT    EPW 8739  -3.005   7.009   3.805  0.0736 -0.5136 -0.1163
26734WAT      O 8740  -4.496   3.817   5.755  0.5443 -0.1434  0.5148
26734WAT     H1 8741  -4.520   3.843   5.665 -1.9377  1.9123  1.6373
26734WAT     H2 8742  -4.506   3.722   5.756  2.1148 -0.4263 -1.7213
26734WAT    EPW 8743  -4.501   3.808   5.743  0.4241  0.0904  0.3681
26735WAT      O 8744   6.662   4.219   4.024  0.6999 -0.2310  0.2958
26735WAT     H1 8745   6.590   4.280   4.040  0.7205 -0.0352 -0.3292
26735WAT     H2 8746   6.740   4.274   4.030  0.5998  0.7055 -3.9210
26735WAT    EPW 8747   6.663   4.234   4.027  0.6893 -0.0815 -0.3428
26736WAT      O 8748   2.694   2.052   7.261  0.0588 -0.2590 -0.0421
26736WAT     H1 8749   2.644   2.134   7.259  1.3749  0.6046  1.2607
26736WAT     H2 8750   2.742   2.054   7.344  0.7424 -1.9841 -0.3483
26736WAT    EPW 8751   2.694   2.063   7.271  0.3225 -0.3726  0.0896
26737WAT      O 8752   9.166   1.283   1.692  0.6642  0.1327 -0.2560
26737WAT     H1 8753   9.137   1.233   1.768  0.7752  3.0646  1.8806
26737WAT     H2 8754   9.224   1.350   1.728 -0.5949  2.7358 -2.6559
26737WAT    EPW 8755   9.170   1.286   1.707  0.5131  0.8627 -0.2907
26738WAT      O 8756   5.479   2.047   0.846 -0.1427  0.6048 -1.0119
26738WAT     H1 8757   5.386   2.055   0.824 -0.7658 -0.8693  0.7774
26738WAT     H2 8758   5.517   1.996   0.774 -1.2840 -0.8532 -0.6399
26738WAT    EPW 8759   5.472   2.041   0.833 -0.3755  0.2180 -0.7268
26739WAT      O 8760   3.396   1.934   2.701  0.0161  0.0642  0.2285
26739WAT     H1 8761   3.367   1.844   2.686  0.3614  0.1020 -0.7103
26739WAT     H2 8762   3.326   1.974   2.752 -1.8950  0.3143 -2.4420
26739WAT    EPW 8763   3.383   1.927   2.706 -0.1905  0.1022 -0.2476
26740WAT      O 8764   5.399   3.733   5.603  0.5786  0.1954  0.0370
26740WAT     H1 8765   5.364   3.664   5.546  1.4596 -0.9314  0.8085
26740WAT     H2 8766   5.431   3.800   5.543 -0.6681  0.1316 -0.7271
26740WAT    EPW 8767   5.399   3.733   5.587  0.5305  0.0383  0.0381
26741WAT      O 8768   1.109   6.677   4.267  0.3638 -0.0092  0.0789
26741WAT     H1 8769   1.143   6.702   4.181 -0.4727 -0.1371 -0.3067
26741WAT     H2 8770   1.024   6.722   4.272 -1.2671 -2.7418 -0.6979
26741WAT    EPW 8771   1.102   6.686   4.256  0.0383 -0.3865 -0.0746
26742WAT      O 8772   4.345   2.014   3.217 -0.2438 -0.8399 -0.3138
26742WAT     H1 8773   4.424   1.986   3.263 -1.2415 -0.4324  1.7713
26742WAT     H2 8774   4.291   2.056   3.284 -0.9629  1.6571 -2.2664
26742WAT    EPW 8775   4.348   2.016   3.232 -0.4702 -0.4568 -0.2964
26743WAT      O 8776   6.237   2.600   6.070  0.3930  0.3812  0.7371
26743WAT     H1 8777   6.189   2.579   6.151  1.0688 -0.1360  1.0148
26743WAT     H2 8778   6.301   2.667   6.097  1.1441 -0.3525  0.8154
26743WAT    EPW 8779   6.239   2.606   6.085  0.5810  0.2162  0.7839
26744WAT      O 8780  -1.498   3.247   1.963 -0.3093  0.3625 -0.2888
26744WAT     H1 8781  -1.507   3.293   2.046 -3.0500  2.1781 -1.4403
26744WAT     H2 8782  -1.580   3.198   1.953  1.2373 -2.3421 -0.5839
26744WAT    EPW 8783  -1.510   3.247   1.973 -0.4668  0.2452 -0.4796
26745WAT      O 8784  -0.965   3.772   6.676  0.4398 -0.2847  0.1222
26745WAT     H1 8785  -0.921   3.763   6.760  1.2659  0.1899 -0.2497
26745WAT     H2 8786  -1.058   3.769   6.698  0.6435 -0.4248  1.0192
26745WAT    EPW 8787  -0.972   3.770   6.690  0.5756 -0.2406  0.1912
26746WAT      O 8788   0.045   6.992   7.237 -0.2096 -0.4567 -0.6160
26746WAT     H1 8789   0.131   6.966   7.270 -0.7962 -0.5379  0.9180
26746WAT     H2 8790   0.050   6.977   7.142  1.1005 -1.4749 -0.4116
26746WAT    EPW 8791   0.057   6.986   7.229 -0.1142 -0.6015 -0.3867
26747WAT      O 8792  -6.133   9.981   5.528 -0.0300 -0.3218  0.2816
26747WAT     H1 8793  -6.154  10.071   5.504 -1.1998 -0.9494 -1.1528
26747WAT     H2 8794  -6.211   9.931   5.505  0.7633 -1.7827  0.6429
26747WAT    EPW 8795  -6.146   9.986   5.522 -0.0796 -0.5975  0.1400
26748WAT      O 8796   6.306   5.813   1.000  0.2881 -0.2697  0.2226
26748WAT     H1 8797   6.309   5.763   0.919  0.6065 -1.6728  1.0691
26748WAT     H2 8798   6.216   5.846   1.005  0.2776 -0.1275 -0.7048
26748WAT    EPW 8799   6.294   5.811   0.990  0.3288 -0.4358  0.2120
26749WAT      O 8800   7.516   1.838   3.137 -0.1275  0.3949 -0.3706
26749WAT     H1 8801   7.463   1.845   3.217  1.6314 -2.8896  1.2892
26749WAT     H2 8802   7.476   1.765   3.089  2.0935 -1.4897  0.4394
26749WAT    EPW 8803   7.503   1.829   3.141  0.3977 -0.2869 -0.0448
26750WAT      O 8804   4.231   3.975   3.803  0.6451  0.8505  0.3127
26750WAT     H1 8805   4.256   4.009   3.889 -0.6295 -1.0584  1.5106
26750WAT     H2 8806   4.140   4.002   3.792  0.2626 -0.3622  0.3699
26750WAT    EPW 8807   4.222   3.983   3.813  0.4265  0.4387  0.4781
26751WAT      O 8808   3.056   5.296   2.346  0.3655 -0.1825  0.5521
26751WAT     H1 8809   3.064   5.229   2.414  0.2638 -0.2675  0.4810
26751WAT     H2 8810   3.080   5.378   2.389 -1.2513  0.0236  1.1301
26751WAT    EPW 8811   3.060   5.298   2.360  0.1389 -0.1667  0.6189
26752WAT      O 8812   1.513   8.073   2.856 -0.0697 -0.1365 -0.3005
26752WAT     H1 8813   1.535   7.986   2.891  0.4448 -0.5771 -1.6447
26752WAT     H2 8814   1.589   8.127   2.878 -0.4791  0.0580  0.7225
26752WAT    EPW 8815   1.526   8.068   2.864 -0.0558 -0.1688 -0.3427
26753WAT      O 8816  -1.253   3.981   0.343  0.8155  0.1521 -0.1649
26753WAT     H1 8817  -1.240   4.011   0.253  1.0787 -1.8724 -0.8379
26753WAT     H2 8818  -1.181   3.920   0.359 -1.4480 -2.6811 -0.0496
26753WAT    EPW 8819  -1.242   3.977   0.333  0.5517 -0.4888 -0.2384
26754WAT      O 8820  -1.417   9.255   4.300 -0.0593 -0.1388 -0.8532
26754WAT     H1 8821  -1.398   9.314   4.228  0.6008 -0.3372 -0.8580
26754WAT     H2 8822  -1.384   9.170   4.270  0.9336 -0.0740 -0.0398
26754WAT    EPW 8823  -1.410   9.251   4.287  0.1587 -0.1564 -0.7467
26755WAT      O 8824   0.449   9.945   5.583 -0.0839  0.0229 -0.4709
26755WAT     H1 8825   0.462   9.921   5.491  0.3241  0.1318 -0.4466
26755WAT     H2 8826   0.537   9.964   5.615 -0.4028  1.8749 -0.5731
26755WAT    EPW 8827   0.462   9.944   5.575 -0.0722  0.2818 -0.4811
26756WAT      O 8828   4.416   6.124   4.569  0.0574  0.3605 -0.2917
26756WAT     H1 8829   4.412   6.100   4.476 -0.5790  0.8676 -0.4025
26756WAT     H2 8830   4.509   6.124   4.590  0.1770 -0.3045 -0.7835
26756WAT    EPW 8831   4.428   6.121   4.559 -0.0107  0.3395 -0.3710
26757WAT      O 8832  -0.438   4.283   5.286 -0.0349 -0.7136  0.0688
26757WAT     H1 8833  -0.379   4.238   5.225  0.4458  0.5308 -0.4170
26757WAT     H2 8834  -0.384   4.299   5.364 -0.5084 -1.8686  0.6606
26757WAT    EPW 8835  -0.423   4.279   5.288 -0.0339 -0.7017  0.0827
26758WAT      O 8836   2.058   8.628   0.143 -0.1559 -0.4866  0.5812
26758WAT     H1 8837   2.094   8.585   0.220  2.6712 -2.0452 -1.4431
26758WAT     H2 8838   1.989   8.569   0.113  0.2058 -0.9863  0.7188
26758WAT    EPW 8839   2.053   8.614   0.149  0.2646 -0.7582  0.3323
26759WAT      O 8840  -7.557   8.211   8.579 -0.5294  0.9932 -0.0336
26759WAT     H1 8841  -7.599   8.242   8.659  1.0018 -1.8716  2.0645
26759WAT     H2 8842  -7.552   8.116   8.590  4.6524  0.8702 -0.8799
26759WAT    EPW 8843  -7.562   8.203   8.591  0.3560  0.5989  0.1316
26760WAT      O 8844  -1.289   8.157   7.940  0.8949 -0.2134 -0.0425
26760WAT     H1 8845  -1.355   8.224   7.923  0.1182 -1.2555 -1.3762
26760WAT     H2 8846  -1.223   8.170   7.872 -0.1375 -1.8213 -1.4428
26760WAT    EPW 8847  -1.289   8.167   7.929  0.6563 -0.5627 -0.4034
26761WAT      O 8848   6.671   0.777   4.652 -0.9974  0.6750 -0.5830
26761WAT     H1 8849   6.748   0.829   4.673  0.6427 -0.8271 -2.4712
26761WAT     H2 8850   6.673   0.703   4.713 -1.3962  1.0187 -0.1435
26761WAT    EPW 8851   6.681   0.774   4.663 -0.8335  0.5223 -0.7739
26762WAT      O 8852  -4.094   8.270   5.155 -0.4545  0.9544 -0.0604
26762WAT     H1 8853  -4.148   8.205   5.109 -2.5802  1.6363  1.2998
26762WAT     H2 8854  -4.158   8.328   5.196  1.3470  1.7206  1.8176
26762WAT    EPW 8855  -4.110   8.269   5.155 -0.4973  1.1454  0.3669
26763WAT      O 8856  -2.163   1.010   8.245  0.1731 -0.4335  0.2809
26763WAT     H1 8857  -2.168   1.090   8.296  3.3986 -0.3976  0.7562
26763WAT     H2 8858  -2.136   1.039   8.158 -0.9857 -0.8410 -0.2260
26763WAT    EPW 8859  -2.160   1.024   8.240  0.4457 -0.4826  0.2766
26764WAT      O 8860   1.799   0.832   0.704  0.0995  0.1240 -0.2788
26764WAT     H1 8861   1.727   0.769   0.699  0.5212 -0.3909  0.0236
26764WAT     H2 8862   1.771   0.894   0.772 -1.5568  1.9054 -2.4532
26764WAT    EPW 8863   1.786   0.832   0.712 -0.0633  0.2910 -0.5257
26765WAT      O 8864   2.383   9.019   6.835 -0.1858 -0.2940 -0.3875
26765WAT     H1 8865   2.415   8.958   6.768 -0.7317 -0.5497 -0.4241
26765WAT     H2 8866   2.364   8.964   6.911 -0.2306 -0.1014 -0.2577
26765WAT    EPW 8867   2.384   9.004   6.836 -0.2637 -0.3023 -0.3753
26766WAT      O 8868   3.366   0.749   8.109 -0.2580  0.1312 -0.5700
26766WAT     H1 8869   3.306   0.706   8.048  1.3884 -0.0223 -2.1816
26766WAT     H2 8870   3.448   0.758   8.059  0.3422  2.4944  0.7084
26766WAT    EPW 8871   3.369   0.744   8.094  0.0383  0.4227 -0.6137
26767WAT      O 8872   0.446  10.165   4.333 -0.3628 -0.5049  0.4259
26767WAT     H1 8873   0.510  10.167   4.262  0.8810 -0.7972  1.5000
26767WAT     H2 8874   0.361  10.168   4.289  0.3799  0.2164 -1.0251
26767WAT    EPW 8875   0.443  10.166   4.318 -0.1008 -0.4482  0.3762
26768WAT      O 8876  -3.734   5.450   7.543 -0.6470  0.8888 -0.1482
26768WAT     H1 8877  -3.722   5.420   7.633  0.8557  0.5169 -0.4392
26768WAT     H2 8878  -3.820   5.417   7.518 -0.3676 -0.4660  0.5971
26768WAT    EPW 8879  -3.744   5.442   7.552 -0.4119  0.6609 -0.0885
26769WAT      O 8880  -2.056   8.449   5.193  0.4426 -0.8270  0.1893
26769WAT     H1 8881  -2.024   8.404   5.271 -0.3376  0.1899  1.1350
26769WAT     H2 8882  -2.127   8.394   5.161 -0.2356 -0.5009  1.0970
26769WAT    EPW 8883  -2.061   8.436   5.199  0.2502 -0.6499  0.4339
26770WAT      O 8884   6.771   2.120   3.436 -0.3309  0.4847 -0.1578
26770WAT     H1 8885   6.823   2.191   3.398  0.2204  0.4610  0.5188
26770WAT     H2 8886   6.761   2.057   3.365  0.8392  0.3520 -0.2193
26770WAT    EPW 8887   6.777   2.121   3.421 -0.1037  0.4640 -0.0767
26771WAT      O 8888  -1.183   3.541   1.916 -0.1249 -0.5848 -0.2760
26771WAT     H1 8889  -1.271   3.578   1.919  1.3484  3.3818  0.2904
26771WAT     H2 8890  -1.147   3.570   1.833  0.9409 -1.3946 -0.1234
26771WAT    EPW 8891  -1.190   3.550   1.906  0.2100 -0.1684 -0.1811
26772WAT      O 8892  -4.221   2.641   8.573  0.3227 -0.0522  0.1100
26772WAT     H1 8893  -4.304   2.612   8.534  0.8112 -0.8385 -0.3754
26772WAT     H2 8894  -4.154   2.611   8.512  1.1465 -1.5338  1.6434
26772WAT    EPW 8895  -4.223   2.633   8.560  0.4957 -0.3513  0.2484
26773WAT      O 8896   1.818   2.865   8.781  0.2651 -0.7199  0.0605
26773WAT     H1 8897   1.840   2.776   8.810  0.2418 -0.9730 -0.6963
26773WAT     H2 8898   1.802   2.857   8.687  0.6213  0.1534 -0.0819
26773WAT    EPW 8899   1.819   2.852   8.773  0.3090 -0.6381 -0.0582
26774WAT      O 8900  -0.531   7.740   7.474 -0.1540  0.5805  0.3065
26774WAT     H1 8901  -0.600   7.802   7.449  0.4121  1.1142  0.0377
26774WAT     H2 8902  -0.535   7.672   7.407 -1.1082  0.0565  0.8815
26774WAT    EPW 8903  -0.541   7.739   7.462 -0.2052  0.5817  0.3469
26775WAT      O 8904   4.470   2.963   4.457  0.7714  0.3455 -0.2094
26775WAT     H1 8905   4.532   2.977   4.385  0.6484  0.9787 -0.2035
26775WAT     H2 8906   4.472   2.869   4.473  1.4912  0.3185 -0.4238
26775WAT    EPW 8907   4.478   2.953   4.449  0.8502  0.4255 -0.2370
26776WAT      O 8908   3.725   3.772   5.260 -0.1361  0.7329 -0.1556
26776WAT     H1 8909   3.686   3.766   5.173 -3.3323 -1.9917  1.2024
26776WAT     H2 8910   3.759   3.684   5.277  0.8253  1.3298  1.1993
26776WAT    EPW 8911   3.724   3.760   5.251 -0.4308  0.4523  0.2024
26777WAT      O 8912   3.154   4.313   4.798  0.0256 -0.2257 -0.2688
26777WAT     H1 8913   3.108   4.301   4.715  0.2075 -2.3437 -0.1078
26777WAT     H2 8914   3.200   4.231   4.813  2.7741  1.2877  0.2789
26777WAT    EPW 8915   3.154   4.301   4.789  0.4121 -0.3057 -0.1752
26778WAT      O 8916   1.187   7.974   4.134 -0.4370  0.0987  0.5423
26778WAT     H1 8917   1.137   7.941   4.209 -1.1640 -0.3842 -0.1385
26778WAT     H2 8918   1.125   7.974   4.062 -0.1248  1.8706  0.2376
26778WAT    EPW 8919   1.172   7.970   4.134 -0.4917  0.2689  0.4125
26779WAT      O 8920   2.024   5.354   2.667 -0.2238  0.1444 -0.0581
26779WAT     H1 8921   1.945   5.310   2.636  0.2238 -1.3395  0.8097
26779WAT     H2 8922   1.994   5.408   2.740 -0.2631 -1.5410  1.2300
26779WAT    EPW 8923   2.010   5.356   2.673 -0.1700 -0.2737  0.2264
26780WAT      O 8924  -6.028   9.658   4.318 -0.3096 -0.1493  0.1183
26780WAT     H1 8925  -5.991   9.571   4.302  0.2213 -0.0094  0.5592
26780WAT     H2 8926  -6.095   9.644   4.384  0.3659 -0.0979  0.8219
26780WAT    EPW 8927  -6.032   9.644   4.324 -0.1504 -0.1240  0.2692
26781WAT      O 8928   1.496   7.321   4.033 -0.7811  0.8671  0.0695
26781WAT     H1 8929   1.455   7.407   4.033 -0.4855  1.0115  0.5548
26781WAT     H2 8930   1.578   7.333   3.984  0.1263  1.2952  1.6393
26781WAT    EPW 8931   1.501   7.334   4.026 -0.6225  0.9425  0.3405
26782WAT      O 8932  -5.212   8.078   3.915 -0.1108  0.4778 -0.4255
26782WAT     H1 8933  -5.138   8.047   3.967  0.4792  0.7178 -1.1039
26782WAT     H2 8934  -5.206   8.174   3.920 -1.0965  0.5204  0.5016
26782WAT    EPW 8935  -5.202   8.087   3.923 -0.1631  0.5150 -0.3928
26783WAT      O 8936   0.018   9.782   8.849  0.3473 -0.3662 -0.0096
26783WAT     H1 8937   0.078   9.713   8.821 -0.2269 -0.9885  0.2425
26783WAT     H2 8938   0.071   9.842   8.901  0.6898 -1.0481  0.4306
26783WAT    EPW 8939   0.033   9.781   8.852  0.3167 -0.5383  0.0820
26784WAT      O 8940   7.575   0.208   0.352  0.0131  0.2194 -0.0086
26784WAT     H1 8941   7.613   0.249   0.274 -0.2938 -1.0607 -0.8548
26784WAT     H2 8942   7.526   0.279   0.395 -0.9245  0.6466 -1.6878
26784WAT    EPW 8943   7.574   0.223   0.348 -0.1509  0.1069 -0.3417
26785WAT      O 8944   5.393   8.989   3.777 -0.4723 -0.0715 -0.6579
26785WAT     H1 8945   5.323   8.960   3.719 -1.7823  0.9358  0.3542
26785WAT     H2 8946   5.426   9.070   3.736  0.1050 -0.5366 -1.1254
26785WAT    EPW 8947   5.388   8.996   3.764 -0.5691  0.0000 -0.5862
26786WAT      O 8948   6.200   4.712   0.865  0.6686 -0.7377 -0.7285
26786WAT     H1 8949   6.177   4.656   0.939  1.0303 -0.6325 -0.5323
26786WAT     H2 8950   6.122   4.765   0.850 -0.4249 -2.6321 -2.1928
26786WAT    EPW 8951   6.187   4.712   0.873  0.5720 -0.9737 -0.8958
26787WAT      O 8952  -1.325   2.410   1.665 -0.2713  0.1035 -0.4840
26787WAT     H1 8953  -1.332   2.359   1.584 -1.2543  0.2293 -0.4801
26787WAT     H2 8954  -1.289   2.494   1.637  1.1511 -0.4810 -0.5198
26787WAT    EPW 8955  -1.321   2.414   1.651 -0.2133  0.0430 -0.4882
26788WAT      O 8956   1.067   0.590   0.129  0.3702 -0.4219 -0.6088
26788WAT     H1 8957   1.038   0.593   0.038  0.8195  2.8971 -0.7851
26788WAT     H2 8958   1.011   0.524   0.170 -2.9251  1.0065 -2.3705
26788WAT    EPW 8959   1.056   0.582   0.123 -0.0051  0.2042 -0.8644
26789WAT      O 8960   2.734   2.966   6.033 -0.2866 -0.0031  0.2195
26789WAT     H1 8961   2.683   2.896   6.073 -3.1950 -0.0801 -3.1076
26789WAT     H2 8962   2.687   3.046   6.057  0.0004  0.2824 -0.1701
26789WAT    EPW 8963   2.721   2.967   6.041 -0.6322  0.0243 -0.2706
26790WAT      O 8964   0.868   5.984   0.788 -0.3186  1.1135 -0.1844
26790WAT     H1 8965   0.920   5.911   0.822 -0.6711  0.3557 -1.2463
26790WAT     H2 8966   0.781   5.971   0.827  0.6725  3.6468  3.4740
26790WAT    EPW 8967   0.864   5.972   0.798 -0.2344  1.3475  0.1581
26791WAT      O 8968   2.042   4.682   0.935 -0.7476  0.1098 -0.2115
26791WAT     H1 8969   2.075   4.625   0.865 -0.5766  0.3150 -0.3015
26791WAT     H2 8970   2.031   4.625   1.010  1.5916  0.3522  0.3956
26791WAT    EPW 8971   2.045   4.667   0.935 -0.4165  0.1690 -0.1433
26792WAT      O 8972  -6.491   9.520   6.124 -0.0560  0.4576 -0.0817
26792WAT     H1 8973  -6.490   9.488   6.214 -0.4598 -0.1941 -0.3013
26792WAT     H2 8974  -6.483   9.441   6.071 -0.4661  0.7829 -0.6293
26792WAT    EPW 8975  -6.490   9.505   6.129 -0.1633  0.4144 -0.1831
26793WAT      O 8976  -5.760   9.317   6.229 -0.3509 -0.9069 -0.1005
26793WAT     H1 8977  -5.815   9.279   6.299  0.1027 -0.8021  0.3208
26793WAT     H2 8978  -5.745   9.244   6.169 -0.3213 -1.1349  0.1801
26793WAT    EPW 8979  -5.765   9.302   6.231 -0.2871 -0.9232 -0.0079
26794WAT      O 8980   3.470   9.466   5.450 -0.5717  0.1708  0.8652
26794WAT     H1 8981   3.436   9.556   5.448 -0.8248  0.0610 -0.5109
26794WAT     H2 8982   3.518   9.461   5.532 -1.4041  1.2541  1.4511
26794WAT    EPW 8983   3.472   9.478   5.461 -0.7149  0.2990  0.7608
26795WAT      O 8984   5.471   7.702   1.462  0.1523  0.0239  0.1102
26795WAT     H1 8985   5.483   7.607   1.464  1.7168  0.2127  0.8901
26795WAT     H2 8986   5.467   7.728   1.554  0.8674  0.8380 -0.0836
26795WAT    EPW 8987   5.472   7.693   1.474  0.4530  0.1562  0.1875
26796WAT      O 8988   3.772   5.234   0.123  0.5426  0.1094 -0.0014
26796WAT     H1 8989   3.751   5.259   0.213 -1.1479 -1.0883 -0.0168
26796WAT     H2 8990   3.862   5.199   0.128  0.7958  0.8640  1.0385
26796WAT    EPW 8991   3.781   5.232   0.136  0.3530  0.0510  0.1337
26797WAT      O 8992  -3.248   8.819   1.501  0.9543 -0.0076  0.3953
26797WAT     H1 8993  -3.343   8.821   1.485  0.9967 -0.7060  0.0105
26797WAT     H2 8994  -3.209   8.839   1.416  1.1743  2.6713  1.0229
26797WAT    EPW 8995  -3.256   8.822   1.487  0.9888  0.2537  0.4273
26798WAT      O 8996   5.392   5.125   2.995 -0.3874  0.4655  0.8640
26798WAT     H1 8997   5.310   5.085   2.965  0.4790  0.6171 -2.0240
26798WAT     H2 8998   5.415   5.077   3.075 -2.5524 -0.5079  0.9728
26798WAT    EPW 8999   5.384   5.114   3.002 -0.5586  0.3569  0.4976
26799WAT      O 9000   0.561   5.612   0.180 -0.0748 -0.3383 -0.2889
26799WAT     H1 9001   0.586   5.617   0.088  2.2851  0.7714  0.3306
26799WAT     H2 9002   0.586   5.524   0.208  0.0758 -0.3580 -0.4876
26799WAT    EPW 9003   0.567   5.601   0.172  0.2563 -0.1945 -0.2334
26800WAT      O 9004   1.421   3.797   5.745  0.3089  0.3365 -0.7832
26800WAT     H1 9005   1.509   3.771   5.720  0.3303  0.5177 -0.8968
26800WAT     H2 9006   1.382   3.832   5.665  0.7781  2.0018 -0.3185
26800WAT    EPW 9007   1.428   3.798   5.731  0.3736  0.5800 -0.7370
26801WAT      O 9008   0.969   5.526   4.515  0.0186 -0.5662  0.1126
26801WAT     H1 9009   1.025   5.518   4.593 -0.9038  0.7716  0.9548
26801WAT     H2 9010   0.933   5.438   4.503 -1.0493 -0.4847  2.1868
26801WAT    EPW 9011   0.972   5.513   4.524 -0.2439 -0.3791  0.4973
26802WAT      O 9012   1.430   6.504   1.499  0.5246  0.3041 -0.2426
26802WAT     H1 9013   1.398   6.540   1.416  0.8584  0.0080 -0.5065
26802WAT     H2 9014   1.457   6.580   1.550  4.5165  0.4435 -2.1055
26802WAT    EPW 9015   1.430   6.519   1.495  1.0951  0.2835 -0.5231
26803WAT      O 9016   1.751   7.306   3.539 -0.4859 -0.2988  0.4555
26803WAT     H1 9017   1.659   7.330   3.551 -0.0043  2.8475 -1.0833
26803WAT     H2 9018   1.752   7.252   3.461 -0.9630  0.6279 -0.2153
26803WAT    EPW 9019   1.739   7.302   3.530 -0.4853  0.2384  0.1640
26804WAT      O 9020   2.670   2.817   4.528 -0.1612 -0.1670 -0.0415
26804WAT     H1 9021   2.666   2.862   4.612 -1.2298 -1.3847  0.5896
26804WAT     H2 9022   2.756   2.839   4.493  0.6966 -0.4179  1.8181
26804WAT    EPW 9023   2.681   2.826   4.535 -0.1889 -0.3607  0.2871
26805WAT      O 9024  -2.415   6.770   7.405  0.2364  0.2715  0.0543
26805WAT     H1 9025  -2.363   6.701   7.445 -0.8740 -1.7595 -1.8101
26805WAT     H2 9026  -2.495   6.727   7.375 -0.6869  2.4286 -0.8778
26805WAT    EPW 9027  -2.419   6.755   7.406 -0.0319  0.2882 -0.3145
26806WAT      O 9028  -2.949   7.050   7.658 -0.0220 -0.3804 -0.0265
26806WAT     H1 9029  -3.002   7.035   7.579  0.7433 -0.2392 -0.5831
26806WAT     H2 9030  -2.858   7.048   7.626  0.2831  3.0829  0.2021
26806WAT    EPW 9031  -2.944   7.048   7.643  0.1192  0.0949 -0.0699
26807WAT      O 9032  -2.357   5.759   6.198  0.3102 -0.1232 -0.4056
26807WAT     H1 9033  -2.296   5.815   6.246  0.1191 -1.1405  1.0972
26807WAT     H2 9034  -2.312   5.675   6.191  0.2762 -0.0477 -1.9404
26807WAT    EPW 9035  -2.343   5.755   6.203  0.2805 -0.2472 -0.4098
26808WAT      O 9036   1.892   4.939   2.109 -0.2969  0.1519 -0.4960
26808WAT     H1 9037   1.806   4.951   2.069  0.7566  0.4348 -2.8069
26808WAT     H2 9038   1.921   5.028   2.131  0.8923  0.4824 -3.1173
26808WAT    EPW 9039   1.884   4.952   2.107 -0.0011  0.2327 -1.1466
26809WAT      O 9040  -5.462   5.521   7.751 -0.4040 -0.5632  0.6104
26809WAT     H1 9041  -5.466   5.571   7.670 -0.9081 -2.0331 -0.3090
26809WAT     H2 9042  -5.421   5.438   7.726 -0.7251 -1.1043  1.8187
26809WAT    EPW 9043  -5.457   5.517   7.737 -0.5128 -0.8283  0.6485
26810WAT      O 9044   5.219   9.227   1.709  0.3197 -0.1980  0.3259
26810WAT     H1 9045   5.147   9.164   1.700  0.0027  0.3105 -0.9833
26810WAT     H2 9046   5.269   9.217   1.628  0.7575  0.6441  0.4840
26810WAT    EPW 9047   5.216   9.217   1.697  0.3357 -0.0196  0.1741
26811WAT      O 9048  -0.632   0.957   8.688  0.2660  0.4225  0.0643
26811WAT     H1 9049  -0.702   0.902   8.652 -1.1438  1.6239  0.8494
26811WAT     H2 9050  -0.551   0.909   8.669 -0.6050 -0.2219 -2.3365
26811WAT    EPW 9051  -0.631   0.943   8.681 -0.0348  0.4960 -0.1488
26812WAT      O 9052   6.973   6.199   1.633 -0.1994  0.0413 -0.1495
26812WAT     H1 9053   7.020   6.120   1.657  0.2710  0.0745 -0.9244
26812WAT     H2 9054   6.956   6.243   1.716  0.3743 -0.4009  0.2108
26812WAT    EPW 9055   6.977   6.194   1.647 -0.0615 -0.0126 -0.2041
26813WAT      O 9056   0.172   9.170   8.432  0.3546 -0.8570 -0.6106
26813WAT     H1 9057   0.085   9.133   8.443  0.8453 -2.2476 -1.1707
26813WAT     H2 9058   0.175   9.244   8.492 -0.9052 -1.3210  0.0488
26813WAT    EPW 9059   0.161   9.175   8.441  0.2531 -1.1020 -0.5975
26814WAT      O 9060   3.718   2.573   3.326 -0.5488 -0.0740  0.0431
26814WAT     H1 9061   3.676   2.651   3.291  0.1829  1.7117  2.8324
26814WAT     H2 9062   3.714   2.584   3.421 -1.7884 -4.2084  0.6544
26814WAT    EPW 9063   3.712   2.585   3.334 -0.6158 -0.3837  0.4916
26815WAT      O 9064   3.853   6.629   5.390  0.4169  0.9659  0.3326
26815WAT     H1 9065   3.857   6.604   5.298  2.5027  0.8295  0.4157
26815WAT     H2 9066   3.760   6.627   5.412  0.0957 -2.0531 -0.9285
26815WAT    EPW 9067   3.841   6.626   5.381  0.6496  0.5500  0.1771
26816WAT      O 9068   4.380   2.865   0.400 -0.3835  0.4640 -0.4621
26816WAT     H1 9069   4.407   2.881   0.491 -2.0439 -0.3782  0.2422
26816WAT     H2 9070   4.317   2.935   0.381  0.4060  0.9886 -1.1935
26816WAT    EPW 9071   4.375   2.876   0.410 -0.4983  0.4222 -0.4657
26817WAT      O 9072   5.362   0.408   1.984 -0.3236  0.3388  0.2407
26817WAT     H1 9073   5.395   0.333   1.934  0.8132 -0.0751  1.5527
26817WAT     H2 9074   5.300   0.369   2.046 -1.5533  0.8213 -0.6449
26817WAT    EPW 9075   5.358   0.393   1.985 -0.3357  0.3479  0.2970
26818WAT      O 9076  -2.577   3.744   5.098  0.3109 -0.0446 -0.0749
26818WAT     H1 9077  -2.625   3.707   5.172  1.4682 -0.6277  0.3943
26818WAT     H2 9078  -2.596   3.685   5.025  1.7995 -1.3569  0.5639
26818WAT    EPW 9079  -2.586   3.732   5.098  0.6599 -0.2946  0.0713
26819WAT      O 9080   2.554   1.656   7.644 -0.3498 -0.3397  0.3027
26819WAT     H1 9081   2.501   1.683   7.569  0.5779 -1.1825 -0.6830
26819WAT     H2 9082   2.526   1.566   7.662  0.5128 -0.6837 -0.0306
26819WAT    EPW 9083   2.543   1.647   7.637 -0.1136 -0.4963  0.1285
26820WAT      O 9084   2.983   1.287   2.648  0.7608  0.1008 -0.4302
26820WAT     H1 9085   2.952   1.374   2.625 -0.2380  0.1273  0.9448
26820WAT     H2 9086   2.911   1.248   2.697  1.7562 -0.9668  0.2164
26820WAT    EPW 9087   2.969   1.293   2.651  0.7603 -0.0365 -0.1637
26821WAT      O 9088  -0.604   2.175   2.975  0.1024  0.9368  0.7689
26821WAT     H1 9089  -0.516   2.173   2.937 -0.9132  1.1690 -1.7829
26821WAT     H2 9090  -0.596   2.124   3.056  2.2219 -0.3903 -0.1813
26821WAT    EPW 9091  -0.591   2.168   2.981  0.2480  0.7924  0.3071
26822WAT      O 9092   3.980   8.019   3.929  0.1098 -0.5909 -0.6008
26822WAT     H1 9093   3.889   8.008   3.959  0.1725 -0.4450 -0.3493
26822WAT     H2 9094   4.031   7.961   3.986  0.4788  1.1499  0.9239
26822WAT    EPW 9095   3.975   8.010   3.941  0.1668 -0.3419 -0.3664
26823WAT      O 9096  -3.473   0.911   6.667  0.2010 -0.1850 -0.5057
26823WAT     H1 9097  -3.483   0.962   6.586 -1.2425 -1.8431 -1.4454
26823WAT     H2 9098  -3.378   0.904   6.679  0.4335  1.2492 -1.2823
26823WAT    EPW 9099  -3.462   0.917   6.658  0.0412 -0.2145 -0.7319
26824WAT      O 9100   0.698   3.135   8.472 -0.7236 -0.0507  0.1813
26824WAT     H1 9101   0.755   3.069   8.511 -0.3705 -0.7343 -1.4388
26824WAT     H2 9102   0.621   3.136   8.529  0.2353 -0.1953  1.5257
26824WAT    EPW 9103   0.695   3.126   8.485 -0.5505 -0.1599  0.1450
26825WAT      O 9104   2.877   7.660   3.450  0.1122  0.0977 -0.0362
26825WAT     H1 9105   2.912   7.588   3.502  1.8129 -1.6242 -3.2733
26825WAT     H2 9106   2.815   7.620   3.390  0.5101  1.4240 -1.4017
26825WAT    EPW 9107   2.874   7.645   3.449  0.3891  0.0455 -0.6434
26826WAT      O 9108   0.128   4.802   8.675 -0.6586  0.5041 -0.5705
26826WAT     H1 9109   0.200   4.817   8.614  0.3166  2.3571  0.9186
26826WAT     H2 9110   0.167   4.747   8.743 -0.6618  1.3697  0.1511
26826WAT    EPW 9111   0.143   4.797   8.676 -0.5304  0.8626 -0.2785
26827WAT      O 9112   0.599   3.264   5.835  0.4805 -0.1619 -0.0963
26827WAT     H1 9113   0.522   3.280   5.889 -0.9578  2.4357 -2.6579
26827WAT     H2 9114   0.566   3.213   5.761  0.0309  4.2419 -3.2932
26827WAT    EPW 9115   0.585   3.259   5.832  0.2314  0.7616 -0.8557
26828WAT      O 9116   0.249   8.664   0.252  0.3774  0.9610  0.4234
26828WAT     H1 9117   0.331   8.701   0.219  0.0549  1.4543  0.1491
26828WAT     H2 9118   0.223   8.723   0.323 -0.0696  1.1967  0.0745
26828WAT    EPW 9119   0.256   8.677   0.257  0.2759  1.0571  0.3412
26829WAT      O 9120   1.377   3.779   4.849  0.0586  0.1805  0.3464
26829WAT     H1 9121   1.383   3.728   4.768  0.9009  2.1648 -0.9068
26829WAT     H2 9122   1.288   3.813   4.849 -1.1128 -2.5568  2.0821
26829WAT    EPW 9123   1.366   3.776   4.838  0.0151  0.0813  0.4101
26830WAT      O 9124   4.543  10.127   4.000 -0.7150  0.5554  0.6655
26830WAT     H1 9125   4.603  10.147   3.928  0.8988  0.5111  1.9446
26830WAT     H2 9126   4.460  10.106   3.956 -0.3205  2.3013 -1.0906
26830WAT    EPW 9127   4.540  10.126   3.985 -0.4501  0.7796  0.6026
26831WAT      O 9128   5.497   9.412   2.639 -0.2275  0.4538 -0.0668
26831WAT     H1 9129   5.418   9.465   2.625  0.0613  1.3437  1.4583
26831WAT     H2 9130   5.532   9.444   2.722  3.0301  1.7169 -1.7568
26831WAT    EPW 9131   5.491   9.424   2.648  0.2403  0.7377 -0.0886
26832WAT      O 9132   0.341   1.636   1.933 -0.2515  0.5359 -0.2227
26832WAT     H1 9133   0.395   1.614   1.857 -0.6925  1.2545 -0.7535
26832WAT     H2 9134   0.307   1.723   1.914 -2.1490 -0.1630 -0.2221
26832WAT    EPW 9135   0.344   1.645   1.920 -0.5599  0.5385 -0.2927
26833WAT      O 9136  -0.813   8.471   7.390  0.1737  0.3063 -0.2192
26833WAT     H1 9137  -0.734   8.505   7.432  0.7266 -0.5029 -0.5665
26833WAT     H2 9138  -0.788   8.460   7.298 -0.2826 -0.1254 -0.2966
26833WAT    EPW 9139  -0.799   8.474   7.383  0.1864  0.1426 -0.2751
26834WAT      O 9140   1.486   0.787   3.245  0.3549  0.4060 -0.2147
26834WAT     H1 9141   1.471   0.879   3.268  1.2273  0.2056  1.2851
26834WAT     H2 9142   1.567   0.764   3.290  0.6063 -0.8725 -1.2584
26834WAT    EPW 9143   1.495   0.796   3.254  0.5031  0.2109 -0.1546
26835WAT      O 9144   0.652   8.707   4.809  0.2511  0.1303  1.0096
26835WAT     H1 9145   0.673   8.615   4.828 -0.2004 -0.3178 -0.5315
26835WAT     H2 9146   0.660   8.751   4.894 -0.1195 -1.4341  1.9015
26835WAT    EPW 9147   0.656   8.700   4.823  0.1427 -0.1354  0.9241
26836WAT      O 9148   5.625   2.954   1.368  0.4693  0.2261 -0.3089
26836WAT     H1 9149   5.677   2.965   1.449  1.3219  2.7786 -1.1016
26836WAT     H2 9150   5.687   2.973   1.298 -0.5578 -0.8274 -1.5443
26836WAT    EPW 9151   5.640   2.958   1.370  0.4461  0.4238 -0.5764
26837WAT      O 9152  -0.298   6.957   7.246 -0.1224  0.0053 -0.1154
26837WAT     H1 9153  -0.321   6.868   7.220  0.1185  0.4302 -1.9476
26837WAT     H2 9154  -0.202   6.957   7.248 -0.1208 -0.3440  2.1639
26837WAT    EPW 9155  -0.288   6.946   7.243 -0.0904  0.0150 -0.0563
26838WAT      O 9156   0.600   3.971   6.473 -0.5262  0.5385 -0.1811
26838WAT     H1 9157   0.517   3.947   6.513  0.0957  0.4586  1.1073
26838WAT     H2 9158   0.629   4.048   6.522 -0.0232  0.7985 -0.8663
26838WAT    EPW 9159   0.593   3.978   6.485 -0.3778  0.5623 -0.1016
26839WAT      O 9160   0.453  10.018   0.507 -0.6288 -0.9421  0.1274
26839WAT     H1 9161   0.401  10.089   0.471  0.0763 -0.7220 -0.4723
26839WAT     H2 9162   0.420  10.008   0.597 -0.4145  0.4596  0.3838
26839WAT    EPW 9163   0.442  10.026   0.514 -0.5075 -0.7281  0.0821
26840WAT      O 9164  -0.746   6.527   7.119 -0.0986 -0.5589 -0.3323
26840WAT     H1 9165  -0.817   6.464   7.136  0.4513 -0.6745  1.8488
26840WAT     H2 9166  -0.672   6.472   7.093 -0.4212 -0.5426 -1.3280
26840WAT    EPW 9167  -0.746   6.511   7.118 -0.0687 -0.5720 -0.1760
26841WAT      O 9168   3.116   7.281   2.305 -0.0303 -0.0726 -0.3193
26841WAT     H1 9169   3.175   7.356   2.301  0.3474 -0.3503 -0.0388
26841WAT     H2 9170   3.063   7.288   2.225 -1.5366  1.7260  0.7586
26841WAT    EPW 9171   3.117   7.292   2.294 -0.1792  0.1283 -0.1402
26842WAT      O 9172  -1.980   3.369   8.800 -0.2861  0.6448 -0.2005
26842WAT     H1 9173  -1.924   3.324   8.864 -1.5771  0.0402  0.5407
26842WAT     H2 9174  -2.056   3.396   8.851 -2.5122 -1.9762 -1.9069
26842WAT    EPW 9175  -1.982   3.367   8.815 -0.7499  0.2195 -0.3281
26843WAT      O 9176   5.835   4.141   5.785  0.4876  0.9812 -0.4087
26843WAT     H1 9177   5.782   4.188   5.721  0.6229 -1.1783 -2.2247
26843WAT     H2 9178   5.821   4.048   5.765  2.9514  0.2840  0.6848
26843WAT    EPW 9179   5.826   4.135   5.774  0.8307  0.6046 -0.5038
26844WAT      O 9180  -0.409   1.830   2.162 -0.2511  0.6546 -0.1717
26844WAT     H1 9181  -0.415   1.909   2.214  0.7914  0.9115 -0.4257
26844WAT     H2 9182  -0.356   1.854   2.086  0.6691 -0.4551  0.0878
26844WAT    EPW 9183  -0.403   1.843   2.159  0.0078  0.5422 -0.1709
26845WAT      O 9184   6.775   4.231   3.775  0.2390  0.3027  0.0780
26845WAT     H1 9185   6.734   4.205   3.858  3.7625  0.1539  2.0082
26845WAT     H2 9186   6.744   4.320   3.759 -1.5040 -0.1357  0.8383
26845WAT    EPW 9187   6.766   4.239   3.784  0.4740  0.2253  0.4328
26846WAT      O 9188   1.915   5.076   7.574 -0.2898  0.0556  0.1087
26846WAT     H1 9189   1.855   5.136   7.528  0.4067  2.2280  1.8714
26846WAT     H2 9190   1.990   5.130   7.597  1.3514 -2.0440  0.0181
26846WAT    EPW 9191   1.917   5.091   7.571  0.0185  0.0651  0.3293
26847WAT      O 9192   5.768   1.055   6.147 -0.2076 -0.1405 -0.1903
26847WAT     H1 9193   5.682   1.044   6.187  0.3162 -0.2826  0.9302
26847WAT     H2 9194   5.804   1.133   6.190 -0.4030  0.9001 -1.8110
26847WAT    EPW 9195   5.761   1.064   6.158 -0.1643 -0.0220 -0.2563
26848WAT      O 9196   6.266   0.463   7.281  0.6487  0.5994  0.2433
26848WAT     H1 9197   6.314   0.386   7.248  0.6001  1.4299 -1.9782
26848WAT     H2 9198   6.183   0.460   7.233 -0.0194  1.1599  1.3535
26848WAT    EPW 9199   6.261   0.452   7.270  0.5541  0.7829  0.0966
26849WAT      O 9200  -1.074   1.431   2.974 -0.1149  0.2799  0.4903
26849WAT     H1 9201  -1.157   1.418   3.022 -0.1058 -2.1369 -0.0280
26849WAT     H2 9202  -1.101   1.453   2.885 -0.1657  0.7349  0.6138
26849WAT    EPW 9203  -1.089   1.432   2.969 -0.1204  0.0211  0.4382
26850WAT      O 9204  -0.538   6.635   1.051 -0.7314 -0.9876 -0.5267
26850WAT     H1 9205  -0.555   6.684   1.132 -0.0233  0.4667 -1.2341
26850WAT     H2 9206  -0.545   6.543   1.078  0.0264 -0.5550  1.3285
26850WAT    EPW 9207  -0.541   6.629   1.066 -0.5381 -0.7389 -0.3753
26851WAT      O 9208   1.249   4.243   6.567 -0.4292  0.0022  0.1967
26851WAT     H1 9209   1.339   4.274   6.567 -0.6375  0.6224  0.7481
26851WAT     H2 9210   1.256   4.150   6.590 -0.0388  0.4032  1.8119
26851WAT    EPW 9211   1.262   4.235   6.570 -0.4052  0.1369  0.4826
26852WAT      O 9212  -2.891   2.020   7.300  0.3533  0.2713 -0.5934
26852WAT     H1 9213  -2.818   2.020   7.237  0.1731  0.0699 -0.8045
26852WAT     H2 9214  -2.886   1.934   7.342  1.6112  1.0583  1.0133
26852WAT    EPW 9215  -2.881   2.009   7.297  0.4954  0.3486 -0.4094
26853WAT      O 9216   4.044   7.211   1.419  0.1346 -0.6034  0.4364
26853WAT     H1 9217   4.012   7.213   1.328 -0.8512  0.4054  0.7820
26853WAT     H2 9218   3.985   7.150   1.464 -1.4255  1.2777  1.0805
26853WAT    EPW 9219   4.032   7.203   1.413 -0.2012 -0.2222  0.5670
26854WAT      O 9220   1.650   0.402   2.089 -0.1761 -0.2828  0.1295
26854WAT     H1 9221   1.594   0.389   2.013  0.8630  0.7189 -0.8554
26854WAT     H2 9222   1.686   0.490   2.077  2.6865 -1.3600 -0.0568
26854WAT    EPW 9223   1.647   0.412   2.077  0.3384 -0.2928 -0.0249
26855WAT      O 9224   0.032   6.334   7.945 -0.0989  0.0089 -0.1176
26855WAT     H1 9225  -0.024   6.408   7.921 -0.7326 -0.3285  0.2849
26855WAT     H2 9226   0.085   6.318   7.867 -0.3910  0.4959 -0.4252
26855WAT    EPW 9227   0.031   6.342   7.931 -0.2210  0.0288 -0.1054
26856WAT      O 9228   4.497   3.136   6.477 -0.5213 -0.5644 -0.3470
26856WAT     H1 9229   4.463   3.202   6.538  1.4858 -0.6891  1.0004
26856WAT     H2 9230   4.486   3.053   6.524  0.3480 -0.7511 -0.4662
26856WAT    EPW 9231   4.491   3.133   6.491 -0.1421 -0.6055 -0.1850
26857WAT      O 9232   0.299   7.868   1.544  0.0304 -0.5641 -0.8841
26857WAT     H1 9233   0.321   7.784   1.584 -0.5757 -0.6639 -0.7555
26857WAT     H2 9234   0.215   7.892   1.583  0.8218  0.7495  0.0819
26857WAT    EPW 9235   0.291   7.860   1.554  0.0548 -0.4039 -0.7397
26858WAT      O 9236  -2.395   5.507   5.173 -0.4014  0.6637  0.8465
26858WAT     H1 9237  -2.436   5.421   5.176 -3.3511  1.9427  0.3934
26858WAT     H2 9238  -2.353   5.511   5.087 -0.2852 -0.2861  0.8523
26858WAT    EPW 9239  -2.395   5.496   5.162 -0.7751  0.7071  0.7875
26859WAT      O 9240   3.270   4.755   7.910  0.1250 -0.4806 -0.7974
26859WAT     H1 9241   3.259   4.715   7.823 -0.3123 -1.9198 -0.1093
26859WAT     H2 9242   3.343   4.815   7.899 -0.4225 -0.0418 -2.3607
26859WAT    EPW 9243   3.278   4.758   7.897 -0.0049 -0.6125 -0.9129
26860WAT      O 9244   2.090   3.008   6.867  0.3749 -0.8519  0.1431
26860WAT     H1 9245   2.179   3.038   6.850  0.4803 -1.1971  0.0733
26860WAT     H2 9246   2.092   2.915   6.845 -0.1054 -0.7738 -0.2467
26860WAT    EPW 9247   2.102   3.000   6.862  0.3254 -0.8872  0.0825
26861WAT      O 9248  -1.684  10.184   0.658  0.6492  0.0849 -0.3321
26861WAT     H1 9249  -1.609  10.131   0.630 -1.1861 -2.0092 -1.5781
26861WAT     H2 9250  -1.654  10.274   0.647  2.4549 -0.6737 -2.4786
26861WAT    EPW 9251  -1.670  10.189   0.653  0.6453 -0.2913 -0.7795
26862WAT      O 9252   0.228   6.258   5.188 -0.3363  0.6063 -0.3637
26862WAT     H1 9253   0.170   6.183   5.185 -0.2325  0.4031  1.6819
26862WAT     H2 9254   0.170   6.334   5.194 -0.5370  0.3410  3.0567
26862WAT    EPW 9255   0.213   6.258   5.188 -0.3491  0.5445  0.3574
26863WAT      O 9256  -3.266   8.619   2.014  0.1536 -0.3527 -0.3273
26863WAT     H1 9257  -3.247   8.579   2.098 -1.8418  0.1480  0.4340
26863WAT     H2 9258  -3.350   8.663   2.027  0.1862  0.4357 -2.3498
26863WAT    EPW 9259  -3.275   8.620   2.027 -0.1053 -0.1826 -0.4936
26864WAT      O 9260   1.255   7.478   1.478  0.5158 -0.1209 -0.2935
26864WAT     H1 9261   1.220   7.412   1.538 -2.8835  0.6600 -1.1863
26864WAT     H2 9262   1.251   7.560   1.527 -1.0955  0.3201 -1.0998
26864WAT    EPW 9263   1.250   7.480   1.492 -0.1451  0.0403 -0.5175
26865WAT      O 9264   0.084   4.151   5.845 -0.5180  0.3649  1.1391
26865WAT     H1 9265  -0.005   4.119   5.828 -0.6405  1.3388 -0.2024
26865WAT     H2 9266   0.095   4.224   5.784  0.8564  0.8985  1.9772
26865WAT    EPW 9267   0.074   4.157   5.835 -0.3529  0.5639  1.0729
26866WAT      O 9268  -2.743   8.747   8.975  0.4643  0.0345 -0.4042
26866WAT     H1 9269  -2.807   8.805   9.017 -0.4959 -0.4383 -1.1677
26866WAT     H2 9270  -2.694   8.805   8.917  0.4320  0.3300 -0.1401
26866WAT    EPW 9271  -2.745   8.762   8.973  0.3333  0.0112 -0.4700
26867WAT      O 9272   7.344   8.139   0.800  0.0598 -0.2481  0.4909
26867WAT     H1 9273   7.367   8.163   0.711 -2.4719 -1.0128 -0.4478
26867WAT     H2 9274   7.338   8.044   0.800 -1.5806 -0.1955  0.9700
26867WAT    EPW 9275   7.346   8.130   0.789 -0.4904 -0.3424  0.4303
26868WAT      O 9276   5.159   4.096   6.570  0.3285  0.0668  0.4009
26868WAT     H1 9277   5.174   4.143   6.488  0.0352 -0.6482 -0.0748
26868WAT     H2 9278   5.091   4.147   6.614 -0.5233 -0.3018 -0.4498
26868WAT    EPW 9279   5.152   4.109   6.565  0.1774 -0.0761  0.2260
26869WAT      O 9280  -0.697   0.225   1.928  1.1937  0.6814 -0.7454
26869WAT     H1 9281  -0.718   0.281   2.002  2.0209  0.6112 -0.4490
26869WAT     H2 9282  -0.666   0.285   1.860  1.0039  0.6911 -0.8227
26869WAT    EPW 9283  -0.696   0.240   1.929  1.2778  0.6734 -0.7166
26870WAT      O 9284  -2.344   8.904   5.701 -0.2134  0.4589 -0.1420
26870WAT     H1 9285  -2.364   8.891   5.608 -0.0911  0.2489 -0.1396
26870WAT     H2 9286  -2.298   8.988   5.703 -0.8163  0.7959 -0.1834
26870WAT    EPW 9287  -2.340   8.914   5.689 -0.2768  0.4754 -0.1469
26871WAT      O 9288   1.057   1.076   2.188  0.3294 -0.3214 -0.5719
26871WAT     H1 9289   1.038   1.138   2.259 -1.8955  0.6946 -1.9664
26871WAT     H2 9290   1.098   1.001   2.233  0.3656  0.8873  1.5686
26871WAT    EPW 9291   1.060   1.074   2.204  0.0407 -0.0280 -0.4736
26872WAT      O 9292  -4.466   9.542   8.895 -0.4979 -0.4848  0.0378
26872WAT     H1 9293  -4.444   9.625   8.937 -2.6516  0.2951 -0.2451
26872WAT     H2 9294  -4.386   9.490   8.902 -0.0699  0.3867  3.1827
26872WAT    EPW 9295  -4.453   9.546   8.901 -0.7255 -0.2666  0.4153
26873WAT      O 9296   5.010   8.646   3.473 -0.2823 -0.4284  0.1032
26873WAT     H1 9297   4.989   8.561   3.437  0.8745  0.1837 -2.1847
26873WAT     H2 9298   4.925   8.690   3.483 -0.8309 -1.5995  0.7609
26873WAT    EPW 9299   4.996   8.641   3.470 -0.2022 -0.5021 -0.1118
26874WAT      O 9300   3.503   4.799   7.618  0.2712  0.5695  0.1128
26874WAT     H1 9301   3.504   4.888   7.654 -0.6570  1.1602 -1.2499
26874WAT     H2 9302   3.414   4.768   7.635  0.0559  0.5739 -0.9778
26874WAT    EPW 9303   3.491   4.807   7.625  0.1204  0.6480 -0.2108
26875WAT      O 9304  -3.327   8.890   4.083 -0.0854  0.1018 -0.1490
26875WAT     H1 9305  -3.327   8.883   3.988  0.9846  0.7130 -0.2166
26875WAT     H2 9306  -3.327   8.800   4.114 -0.9521 -0.0970 -0.7119
26875WAT    EPW 9307  -3.327   8.877   4.075 -0.0587  0.1564 -0.2322
26876WAT      O 9308   0.239   2.929   4.721  0.1990 -0.6173  0.5004
26876WAT     H1 9309   0.197   2.849   4.691  1.1102 -1.1488  0.6035
26876WAT     H2 9310   0.292   2.901   4.796  2.3721 -0.3974 -0.8762
26876WAT    EPW 9311   0.241   2.915   4.727  0.6058 -0.6583  0.3326
26877WAT      O 9312   8.695   3.861   1.113 -0.5909 -0.1835  0.0454
26877WAT     H1 9313   8.785   3.878   1.083 -0.5512 -0.8436 -0.2248
26877WAT     H2 9314   8.640   3.901   1.047 -0.5472  2.9614  1.7351
26877WAT    EPW 9315   8.700   3.869   1.101 -0.5798  0.1442  0.2326
26878WAT      O 9316  -3.326   9.395   3.243 -0.0747  0.0286 -0.5547
26878WAT     H1 9317  -3.324   9.305   3.276  3.0948  0.2078 -0.0152
26878WAT     H2 9318  -3.363   9.446   3.314  0.0413 -0.5767 -0.0525
26878WAT    EPW 9319  -3.331   9.390   3.256  0.3587 -0.0277 -0.4174
26879WAT      O 9320  -3.737   8.102   8.355  0.5014  0.3308  0.6887
26879WAT     H1 9321  -3.766   8.048   8.428  0.6853 -1.5144 -0.5414
26879WAT     H2 9322  -3.814   8.154   8.332 -0.1634 -0.5272  0.9214
26879WAT    EPW 9323  -3.751   8.102   8.362  0.4380 -0.0257  0.5569
26880WAT      O 9324   3.165   0.460   7.254  0.3203  0.1660 -0.0165
26880WAT     H1 9325   3.098   0.399   7.285  0.2557 -0.4740 -1.3323
26880WAT     H2 9326   3.156   0.458   7.159  1.1694  1.2785 -0.1342
26880WAT    EPW 9327   3.155   0.452   7.246  0.4238  0.2283 -0.2055
26881WAT      O 9328   1.202   7.988   0.185 -0.9290 -0.3845 -0.0789
26881WAT     H1 9329   1.227   7.897   0.170 -0.8237 -0.4589  0.4935
26881WAT     H2 9330   1.231   8.005   0.275 -2.1161 -0.1965  0.2966
26881WAT    EPW 9331   1.209   7.978   0.195 -1.0718 -0.3695  0.0461
26882WAT      O 9332   0.901   6.629   3.725  0.2384  0.4403 -0.1218
26882WAT     H1 9333   0.862   6.657   3.642  1.0460 -1.3543 -1.1590
26882WAT     H2 9334   0.995   6.633   3.710  0.3893 -0.7754  0.3590
26882WAT    EPW 9335   0.908   6.633   3.712  0.3648  0.0434 -0.1953
26883WAT      O 9336   4.152   5.504   7.530  0.8968  0.2139 -0.1056
26883WAT     H1 9337   4.206   5.502   7.609  2.0288 -1.1947 -0.8698
26883WAT     H2 9338   4.180   5.582   7.483  0.6422  0.7282  0.5660
26883WAT    EPW 9339   4.163   5.514   7.535  1.0126  0.0961 -0.1178
26884WAT      O 9340   3.125   0.055   1.618  0.2583 -0.2770 -0.7027
26884WAT     H1 9341   3.193   0.088   1.677 -2.2111  0.2341  2.1196
26884WAT     H2 9342   3.143  -0.039   1.610  2.6089  0.2215 -2.0554
26884WAT    EPW 9343   3.136   0.047   1.625  0.2427 -0.1438 -0.5088
26885WAT      O 9344   5.544   2.197   2.953 -1.3596 -0.0479  0.3691
26885WAT     H1 9345   5.629   2.241   2.959 -1.5757  0.3062  1.0986
26885WAT     H2 9346   5.507   2.206   3.041 -0.2089 -4.1989  1.4984
26885WAT    EPW 9347   5.550   2.204   2.966 -1.2362 -0.5487  0.6143
26886WAT      O 9348   7.902   5.019   0.927 -0.2326  0.6277 -0.4456
26886WAT     H1 9349   7.889   4.940   0.980  1.3896  1.3743  1.1552
26886WAT     H2 9350   7.843   5.007   0.852 -1.7258 -1.0294  0.9031
26886WAT    EPW 9351   7.892   5.007   0.924 -0.2158  0.5078 -0.0566
26887WAT      O 9352   2.068   2.876   4.020  0.0190  0.2782  0.0058
26887WAT     H1 9353   2.149   2.920   4.044  1.6125 -1.7102 -1.4085
26887WAT     H2 9354   2.081   2.785   4.045 -1.6645 -0.1437 -0.5047
26887WAT    EPW 9355   2.080   2.870   4.026  0.0072 -0.0397 -0.2482
26888WAT      O 9356  -6.507   9.460   5.434  0.0492 -0.1971  0.1884
26888WAT     H1 9357  -6.568   9.387   5.450 -0.2460  0.1168  0.5306
26888WAT     H2 9358  -6.536   9.528   5.495 -1.5631  1.3506 -2.1271
26888WAT    EPW 9359  -6.519   9.459   5.444 -0.2024  0.0482 -0.0718
26889WAT      O 9360   1.520   1.501   0.475  0.1097  0.6897 -0.5460
26889WAT     H1 9361   1.466   1.544   0.409 -0.0639  0.7525 -0.3667
26889WAT     H2 9362   1.494   1.409   0.472  1.5626  0.2753 -1.9953
26889WAT    EPW 9363   1.509   1.495   0.466  0.2784  0.6433 -0.7135
26890WAT      O 9364   1.195   5.303   6.168  0.3839 -0.0519 -0.1778
26890WAT     H1 9365   1.288   5.323   6.160  0.5023 -1.0305 -1.9057
26890WAT     H2 9366   1.192   5.222   6.219  0.7222 -1.3299 -2.0589
26890WAT    EPW 9367   1.207   5.295   6.173  0.4442 -0.3498 -0.6540
26891WAT      O 9368  -3.922   7.573   3.118  0.0625 -0.4904 -0.1458
26891WAT     H1 9369  -3.834   7.537   3.116  0.2749  0.0130 -2.1817
26891WAT     H2 9370  -3.943   7.580   3.211  1.2452 -2.7829  0.3665
26891WAT    EPW 9371  -3.913   7.569   3.130  0.2465 -0.7262 -0.3468
26892WAT      O 9372   3.154   6.540   6.532  0.3675 -0.4830 -0.2300
26892WAT     H1 9373   3.226   6.571   6.477  0.5645 -2.1621 -0.9863
26892WAT     H2 9374   3.198   6.502   6.608  0.3151 -1.6048 -0.7421
26892WAT    EPW 9375   3.169   6.539   6.535  0.3866 -0.8523 -0.3974
26893WAT      O 9376  -3.364   8.188   8.972  0.1705  0.1456 -0.0906
26893WAT     H1 9377  -3.294   8.150   9.025  0.1542  1.0872  0.6307
26893WAT     H2 9378  -3.353   8.147   8.886  0.8401 -0.6312  0.3428
26893WAT    EPW 9379  -3.353   8.177   8.968  0.2568  0.1674  0.0615
26894WAT      O 9380  -5.568   4.615   8.338 -0.7065 -0.0249 -0.0162
26894WAT     H1 9381  -5.608   4.641   8.421  1.1195  0.9505  0.6141
26894WAT     H2 9382  -5.496   4.678   8.326  1.3211 -2.3141 -0.5288
26894WAT    EPW 9383  -5.564   4.627   8.347 -0.1984 -0.1981 -0.0005
26895WAT      O 9384   4.705   0.174   0.087 -0.5679  0.3162 -0.6563
26895WAT     H1 9385   4.727   0.191   0.178  1.7769 -0.0298 -1.0956
26895WAT     H2 9386   4.694   0.079   0.082  4.5456 -0.5529 -1.5411
26895WAT    EPW 9387   4.707   0.164   0.098  0.4158  0.1560 -0.8309
26896WAT      O 9388   5.936   8.347   0.821  0.0501 -0.2400 -0.2545
26896WAT     H1 9389   5.985   8.369   0.742 -2.3689  0.9900 -1.5214
26896WAT     H2 9390   5.936   8.251   0.824 -1.2179 -0.4027 -2.7678
26896WAT    EPW 9391   5.942   8.337   0.811 -0.4363 -0.0992 -0.7531
26897WAT      O 9392   0.640   8.964   1.199 -0.4739 -0.5590 -0.0970
26897WAT     H1 9393   0.691   9.030   1.154 -2.8594  2.9915  1.8868
26897WAT     H2 9394   0.690   8.945   1.279 -0.5478  0.1900  0.1347
26897WAT    EPW 9395   0.653   8.970   1.204 -0.7983  0.0081  0.1952
26898WAT      O 9396  -3.284   6.956   8.175 -0.3928  0.1331  0.4659
26898WAT     H1 9397  -3.308   6.883   8.231 -1.5746 -1.8027 -2.3494
26898WAT     H2 9398  -3.366   6.983   8.134  0.7509 -0.8424 -2.8170
26898WAT    EPW 9399  -3.298   6.950   8.177 -0.3978 -0.2511 -0.3386
26899WAT      O 9400  -5.895   9.922   5.677 -0.1493  0.1583 -0.0307
26899WAT     H1 9401  -5.990   9.926   5.683 -0.3391 -1.6444 -0.9456
26899WAT     H2 9402  -5.878   9.863   5.603  1.6733 -0.0091  0.4581
26899WAT    EPW 9403  -5.905   9.915   5.668  0.0663 -0.1016 -0.0868
26900WAT      O 9404  -3.931   2.822   7.693  0.3831  0.2914 -0.4717
26900WAT     H1 9405  -3.877   2.873   7.632 -2.0271  1.5611 -1.6914
26900WAT     H2 9406  -3.956   2.885   7.761  0.5690 -0.3442  0.2073
26900WAT    EPW 9407  -3.927   2.837   7.694  0.0896  0.3750 -0.5431
26901WAT      O 9408   4.849   2.273   3.110  0.0471  0.7593 -0.6508
26901WAT     H1 9409   4.755   2.292   3.109 -0.0948  0.0599 -1.1343
26901WAT     H2 9410   4.885   2.328   3.040  0.0354  1.1921 -0.3198
26901WAT    EPW 9411   4.841   2.283   3.100  0.0269  0.7241 -0.6710
26902WAT      O 9412   2.985   3.460   3.901  0.0843 -1.0021 -0.1651
26902WAT     H1 9413   3.038   3.452   3.980  1.1819 -0.7147 -0.8458
26902WAT     H2 9414   3.049   3.479   3.831 -0.8944 -0.8575 -1.0471
26902WAT    EPW 9415   3.000   3.462   3.902  0.1000 -0.9451 -0.3712
26903WAT      O 9416  -4.671   9.738   7.464  0.0511 -0.3185 -0.1332
26903WAT     H1 9417  -4.579   9.743   7.436  0.0675 -1.6832 -0.3753
26903WAT     H2 9418  -4.693   9.828   7.488  1.0311  0.3041 -1.4063
26903WAT    EPW 9419  -4.662   9.750   7.463  0.1824 -0.4163 -0.3331
26904WAT      O 9420  -2.843   3.329   6.180  0.2166  0.1361  0.2341
26904WAT     H1 9421  -2.854   3.266   6.108 -0.9086 -0.0736  0.5631
26904WAT     H2 9422  -2.769   3.296   6.230  0.3312 -0.3181 -0.2208
26904WAT    EPW 9423  -2.835   3.316   6.177  0.0833  0.0484  0.2177
26905WAT      O 9424  -2.382   3.065   7.249 -0.4744  0.1857 -0.3528
26905WAT     H1 9425  -2.346   3.048   7.162 -0.7447  1.8056 -0.8213
26905WAT     H2 9426  -2.369   2.984   7.297 -1.9166 -1.3577 -2.4282
26905WAT    EPW 9427  -2.375   3.052   7.244 -0.7002  0.1959 -0.6883
26906WAT      O 9428  -1.482   6.276   4.866 -0.4382  0.2937 -0.7491
26906WAT     H1 9429  -1.423   6.312   4.932  0.6428 -1.3639 -0.7569
26906WAT     H2 9430  -1.551   6.342   4.857 -1.6674 -0.2003  3.3537
26906WAT    EPW 9431  -1.483   6.290   4.873 -0.4578  0.0098 -0.2091
26907WAT      O 9432   0.769   2.922   7.671  0.2364 -0.1453  0.0217
26907WAT     H1 9433   0.832   2.898   7.604  0.2616 -0.0387  0.0071
26907WAT     H2 9434   0.801   2.880   7.751  0.7466  0.5385  0.1823
26907WAT    EPW 9435   0.781   2.913   7.673  0.3070 -0.0411  0.0410
26908WAT      O 9436   6.689   2.393   3.745  0.5538  0.8716 -0.1292
26908WAT     H1 9437   6.782   2.413   3.737  1.3529 -2.3354 -0.3347
26908WAT     H2 9438   6.686   2.318   3.806 -1.6999 -0.1935 -1.4176
26908WAT    EPW 9439   6.701   2.385   3.752  0.3617  0.3082 -0.3262
26909WAT      O 9440  -2.461   9.822   7.437  0.1903  0.1553 -0.3953
26909WAT     H1 9441  -2.380   9.867   7.460  0.1954  0.7005 -1.4088
26909WAT     H2 9442  -2.454   9.808   7.342 -0.1373 -1.3387 -0.2348
26909WAT    EPW 9443  -2.449   9.826   7.427  0.1477  0.0305 -0.5078
26910WAT      O 9444  -1.444   1.125   4.689 -0.2455  0.4907  0.0891
26910WAT     H1 9445  -1.491   1.152   4.610 -4.0171  0.5968  2.1497
26910WAT     H2 9446  -1.471   1.034   4.702  0.9850  0.2104  0.8666
26910WAT    EPW 9447  -1.454   1.116   4.680 -0.5806  0.4677  0.4632
26911WAT      O 9448   2.196   0.942   1.250 -0.4570  0.0866 -0.5423
26911WAT     H1 9449   2.201   1.032   1.282  1.1285 -0.0196 -0.4308
26911WAT     H2 9450   2.170   0.891   1.327  1.1951  0.1222  0.0720
26911WAT    EPW 9451   2.193   0.947   1.265 -0.0299  0.0773 -0.4466
26912WAT      O 9452   1.332   8.020   6.496 -0.6409  0.0209 -0.3757
26912WAT     H1 9453   1.408   8.058   6.540 -1.1086  0.9446 -0.3543
26912WAT     H2 9454   1.343   7.926   6.509  0.9878  0.0606 -1.1654
26912WAT    EPW 9455   1.344   8.012   6.503 -0.4877  0.1478 -0.4768
26913WAT      O 9456  -0.366   0.670   0.662  0.7567  0.2098  0.6214
26913WAT     H1 9457  -0.339   0.693   0.572  1.7808  1.5260  1.2183
26913WAT     H2 9458  -0.379   0.755   0.705  0.4225 -0.4027  1.7598
26913WAT    EPW 9459  -0.364   0.684   0.656  0.8477  0.3026  0.8503
26914WAT      O 9460  10.374   0.334   0.667  0.0039  0.4861  0.2420
26914WAT     H1 9461  10.297   0.358   0.616 -0.6005 -2.0578 -0.1830
26914WAT     H2 9462  10.448   0.351   0.608 -0.2659  2.2344  0.3810
26914WAT    EPW 9463  10.374   0.339   0.652 -0.1116  0.3812  0.2043
26915WAT      O 9464  -0.994   5.046   0.787 -0.0998 -0.0964  0.1886
26915WAT     H1 9465  -1.037   5.115   0.837  0.2526 -0.2873  0.7592
26915WAT     H2 9466  -0.988   5.081   0.698 -0.5194  0.3361  0.3263
26915WAT    EPW 9467  -0.999   5.059   0.781 -0.1087 -0.0644  0.2820
26916WAT      O 9468   1.543   7.610   6.169 -0.7318 -0.4319 -0.3923
26916WAT     H1 9469   1.523   7.697   6.133  1.3308  0.2703 -0.0244
26916WAT     H2 9470   1.496   7.607   6.252  0.5131  1.0977  0.4340
26916WAT    EPW 9471   1.534   7.621   6.175 -0.2956 -0.1376 -0.2346
26917WAT      O 9472   1.898   3.452   2.872  0.3029 -0.7452  0.7336
26917WAT     H1 9473   1.981   3.487   2.904  0.7230 -1.1889  0.1414
26917WAT     H2 9474   1.864   3.401   2.945 -2.0670  3.5322  3.0716
26917WAT    EPW 9475   1.904   3.450   2.886  0.0458 -0.2395  0.9638
26918WAT      O 9476  -5.355   6.625   8.384  0.0934  0.2288 -0.3520
26918WAT     H1 9477  -5.406   6.562   8.434  2.6614  0.1668  2.5041
26918WAT     H2 9478  -5.273   6.580   8.365  1.1266  1.9330 -0.1847
26918WAT    EPW 9479  -5.351   6.611   8.388  0.5684  0.4456  0.0467
26919WAT      O 9480  -1.276   1.424   8.249  0.9061 -0.7900  0.2537
26919WAT     H1 9481  -1.205   1.483   8.223 -1.1796  1.7434 -0.1339
26919WAT     H2 9482  -1.259   1.404   8.341  0.4325  2.5886  1.2105
26919WAT    EPW 9483  -1.265   1.429   8.257  0.5686 -0.0103  0.3285
26920WAT      O 9484   0.673   6.125   2.581  0.2281 -0.0384 -0.7374
26920WAT     H1 9485   0.602   6.179   2.545  1.2141 -0.8655 -4.3650
26920WAT     H2 9486   0.752   6.178   2.568  0.6321 -0.2266  0.7534
26920WAT    EPW 9487   0.674   6.139   2.575  0.4115 -0.1724 -1.0191
26921WAT      O 9488   7.316   4.101   1.325 -0.3565 -0.0284 -0.4088
26921WAT     H1 9489   7.301   4.180   1.273 -1.2614 -0.0628 -0.2084
26921WAT     H2 9490   7.401   4.116   1.366 -1.1247  1.4796  0.7444
26921WAT    EPW 9491   7.325   4.114   1.323 -0.5772  0.1659 -0.2303
26922WAT      O 9492   2.185   2.014   6.024  0.5051 -0.0704  0.8764
26922WAT     H1 9493   2.140   1.953   5.966 -0.8671  1.5170  0.1976
26922WAT     H2 9494   2.157   2.101   5.995  2.6783  0.9356  1.5727
26922WAT    EPW 9495   2.176   2.017   6.013  0.6108  0.2716  0.8786
26923WAT      O 9496   1.675   5.506   5.256 -0.1648 -0.4366 -0.1608
26923WAT     H1 9497   1.601   5.485   5.312 -0.0620  1.8470  0.9263
26923WAT     H2 9498   1.731   5.561   5.310 -0.6617  2.9478 -2.7983
26923WAT    EPW 9499   1.673   5.510   5.270 -0.2168  0.3111 -0.3653
26924WAT      O 9500   2.804   6.090   0.228  0.7463 -0.1901 -0.3122
26924WAT     H1 9501   2.823   6.180   0.203 -0.5981  0.2611  0.1772
26924WAT     H2 9502   2.816   6.040   0.148  1.0568  0.4932 -0.7032
26924WAT    EPW 9503   2.808   6.095   0.214  0.6100 -0.0405 -0.2992
26925WAT      O 9504   5.810   3.032   1.194  0.1633  0.4831  0.4331
26925WAT     H1 9505   5.845   3.097   1.132 -0.7121  0.0177 -0.5845
26925WAT     H2 9506   5.791   2.956   1.139 -2.9598  0.8847  0.7656
26925WAT    EPW 9507   5.812   3.031   1.178 -0.3643  0.4746  0.3427
26926WAT      O 9508   6.356   7.238   3.189  0.1609 -0.1297 -0.5971
26926WAT     H1 9509   6.334   7.239   3.282 -0.6902  0.5256 -0.7874
26926WAT     H2 9510   6.359   7.330   3.164  1.5822 -0.2639 -0.9634
26926WAT    EPW 9511   6.353   7.250   3.198  0.2360 -0.0608 -0.6704
26927WAT      O 9512  -1.410   0.081   6.035  0.2558 -0.6403  0.1513
26927WAT     H1 9513  -1.456   0.034   5.966 -0.2367  0.7897 -0.5277
26927WAT     H2 9514  -1.472   0.086   6.107  0.0337 -0.3594 -0.0604
26927WAT    EPW 9515  -1.424   0.076   6.035  0.1615 -0.4146  0.0336
26928WAT      O 9516   3.805   1.620   5.558 -0.5683 -0.0859 -0.1685
26928WAT     H1 9517   3.892   1.636   5.521 -1.3129  2.2059 -1.1088
26928WAT     H2 9518   3.805   1.527   5.578  2.7509  0.1444  1.6251
26928WAT    EPW 9519   3.816   1.610   5.556 -0.2286  0.2467 -0.0560
26929WAT      O 9520  -2.920   3.872   3.476 -0.4020 -0.1563 -0.0130
26929WAT     H1 9521  -2.852   3.890   3.412  0.2491  1.3540  1.0634
26929WAT     H2 9522  -2.918   3.947   3.536 -2.3009 -0.5755  0.6505
26929WAT    EPW 9523  -2.911   3.884   3.476 -0.5665 -0.0124  0.2166
26930WAT      O 9524   0.422   9.856   6.256  0.5252 -0.1428 -0.0364
26930WAT     H1 9525   0.415   9.760   6.249 -0.9299 -0.2293  1.7847
26930WAT     H2 9526   0.415   9.887   6.166 -3.5319 -1.6052 -0.4500
26930WAT    EPW 9527   0.420   9.847   6.243 -0.2019 -0.3471  0.1490
26931WAT      O 9528  -1.144   1.369   8.498 -1.2012 -0.2724 -0.2936
26931WAT     H1 9529  -1.056   1.347   8.531 -0.9389 -0.1837 -0.9321
26931WAT     H2 9530  -1.145   1.464   8.498 -0.7602 -0.2537 -1.6843
26931WAT    EPW 9531  -1.132   1.378   8.503 -1.1085 -0.2583 -0.5612
26932WAT      O 9532   1.760   2.915   1.891 -0.5172  0.2983  0.8928
26932WAT     H1 9533   1.689   2.851   1.900 -0.7117  0.2578 -0.6980
26932WAT     H2 9534   1.765   2.956   1.977 -1.8846 -0.3098  1.3037
26932WAT    EPW 9535   1.751   2.912   1.903 -0.7232  0.2127  0.7372
26933WAT      O 9536   6.013   4.908   0.896  0.4815  0.0446 -0.2591
26933WAT     H1 9537   5.962   4.954   0.829 -1.3561  0.4315  1.2875
26933WAT     H2 9538   6.006   4.964   0.973  1.8145 -0.7885  0.5036
26933WAT    EPW 9539   6.005   4.921   0.897  0.4148 -0.0143  0.0455
26934WAT      O 9540   3.020   2.393   6.088 -1.0022 -1.0302 -0.3528
26934WAT     H1 9541   3.101   2.346   6.066 -1.1337 -1.9231  0.9389
26934WAT     H2 9542   3.018   2.468   6.029  1.4190 -0.2880  0.4008
26934WAT    EPW 9543   3.030   2.397   6.077 -0.7002 -1.0501 -0.0832
26935WAT      O 9544   2.719   3.468   2.455 -0.6118 -0.4458 -0.4434
26935WAT     H1 9545   2.734   3.492   2.364 -1.0019  4.1435  0.4474
26935WAT     H2 9546   2.789   3.512   2.503 -2.1151 -0.2083  1.6660
26935WAT    EPW 9547   2.730   3.477   2.449 -0.8615  0.1909 -0.0477
26936WAT      O 9548   6.411   3.170   2.392 -0.3531  0.3639 -0.3028
26936WAT     H1 9549   6.383   3.191   2.303  1.1840  1.3960 -0.5906
26936WAT     H2 9550   6.412   3.254   2.438  0.7627  0.1552  0.0997
26936WAT    EPW 9551   6.408   3.184   2.387 -0.0031  0.4724 -0.2877
26937WAT      O 9552   2.597   0.233   5.286  0.3385  1.5381  1.1483
26937WAT     H1 9553   2.504   0.244   5.307 -0.4437  1.2271 -1.7657
26937WAT     H2 9554   2.620   0.149   5.324  0.2324  2.7515  4.1812
26937WAT    EPW 9555   2.587   0.223   5.294  0.2214  1.6571  1.1640
26938WAT      O 9556   3.093   9.609   4.088 -0.7954 -0.1332  0.6675
26938WAT     H1 9557   3.001   9.580   4.093 -0.6623 -0.5168  0.9267
26938WAT     H2 9558   3.090   9.701   4.115 -0.9578 -0.4535  1.8024
26938WAT    EPW 9559   3.080   9.617   4.092 -0.7993 -0.2260  0.8516
26939WAT      O 9560   4.400   4.715   0.722 -0.0392  0.2753 -0.2938
26939WAT     H1 9561   4.439   4.792   0.764 -1.3285  0.6236  0.3019
26939WAT     H2 9562   4.475   4.659   0.702  0.8127  1.1245  0.3940
26939WAT    EPW 9563   4.415   4.718   0.725 -0.0968  0.4332 -0.1245
26940WAT      O 9564   1.538  10.194   5.655  0.0012  0.8494  0.4506
26940WAT     H1 9565   1.626  10.169   5.628 -0.5599 -0.7325  0.0093
26940WAT     H2 9566   1.481  10.167   5.583 -1.0600  0.0281  1.5403
26940WAT    EPW 9567   1.542  10.187   5.642 -0.2128  0.5322  0.5360
26941WAT      O 9568  -3.475   1.022   8.680 -0.4852 -0.7678  0.2429
26941WAT     H1 9569  -3.436   1.098   8.637 -2.2238 -1.3380 -2.6281
26941WAT     H2 9570  -3.422   0.948   8.651 -0.3082 -0.9274  0.9650
26941WAT    EPW 9571  -3.463   1.023   8.671 -0.6912 -0.8641 -0.0405
26942WAT      O 9572  -1.229   7.320   3.042 -0.0628  0.1192 -1.0724
26942WAT     H1 9573  -1.241   7.292   2.951  2.7907 -2.3292 -0.8618
26942WAT     H2 9574  -1.280   7.256   3.093  0.1411  0.1264 -0.8623
26942WAT    EPW 9575  -1.238   7.308   3.036  0.3405 -0.2029 -1.0171
26943WAT      O 9576   6.457   1.600   1.903  0.1766 -0.4257  0.4792
26943WAT     H1 9577   6.428   1.651   1.827 -0.4328 -0.9243  0.3640
26943WAT     H2 9578   6.538   1.558   1.874  0.6780  0.4619  0.5745
26943WAT    EPW 9579   6.464   1.601   1.889  0.1624 -0.3744  0.4766
26944WAT      O 9580   1.897   4.698   0.604 -0.8779  0.7294  0.3938
26944WAT     H1 9581   1.851   4.777   0.575  0.1425  1.1869 -0.0481
26944WAT     H2 9582   1.989   4.715   0.581 -0.8568 -1.3145 -1.3777
26944WAT    EPW 9583   1.903   4.711   0.597 -0.7406  0.5202  0.1018
26945WAT      O 9584   5.057   6.179   3.099  1.0339  0.3668  0.0166
26945WAT     H1 9585   5.005   6.253   3.067  0.7360 -0.7470 -2.2280
26945WAT     H2 9586   4.997   6.105   3.096  1.5203 -0.1378  1.6233
26945WAT    EPW 9587   5.042   6.179   3.094  1.0588  0.1531 -0.0676
26946WAT      O 9588  -0.504   0.859   4.889  0.1217  0.3482  0.4961
26946WAT     H1 9589  -0.477   0.931   4.946  2.8251 -0.5113  0.4718
26946WAT     H2 9590  -0.569   0.810   4.941 -1.5040  2.5384  0.6350
26946WAT    EPW 9591  -0.509   0.862   4.904  0.2638  0.5237  0.5109
26947WAT      O 9592   4.961   0.126   7.880 -0.0438  0.0257  0.0366
26947WAT     H1 9593   4.942   0.132   7.787  0.5232 -1.8049 -0.2411
26947WAT     H2 9594   5.033   0.063   7.885 -1.7711 -1.9648  1.8745
26947WAT    EPW 9595   4.968   0.118   7.868 -0.1967 -0.4783  0.2425
26948WAT      O 9596   1.812  10.197   8.966  0.6023  0.1767 -0.3403
26948WAT     H1 9597   1.824  10.108   8.996 -0.8159  0.6089  1.7601
26948WAT     H2 9598   1.900  10.232   8.957  1.1634 -0.6617  1.4048
26948WAT    EPW 9599   1.825  10.190   8.969  0.4892  0.1230  0.1669
26949WAT      O 9600  -2.087   3.491   6.002  0.9960 -0.0752  0.1192
26949WAT     H1 9601  -2.113   3.412   6.048  0.0638  1.4777  2.4380
26949WAT     H2 9602  -2.099   3.470   5.909 -1.2549 -1.9263  0.7458
26949WAT    EPW 9603  -2.092   3.478   5.996  0.5761 -0.1146  0.5076
26950WAT      O 9604   2.375   2.163   4.267  0.4300 -0.0610  0.3651
26950WAT     H1 9605   2.369   2.068   4.257 -0.0732  0.0609 -0.5853
26950WAT     H2 9606   2.287   2.195   4.246  0.3780  0.5591  1.4589
26950WAT    EPW 9607   2.362   2.155   4.263  0.3569  0.0370  0.3841
26951WAT      O 9608  -2.575   7.187   3.900 -0.0413 -0.1192 -0.0065
26951WAT     H1 9609  -2.523   7.180   3.981 -3.2122  1.4953  2.3990
26951WAT     H2 9610  -2.550   7.273   3.865  0.3002 -0.1868  0.0598
26951WAT    EPW 9611  -2.565   7.197   3.906 -0.4145  0.0849  0.3196
26952WAT      O 9612   4.739   2.315   5.395  0.7061 -0.1445  0.5926
26952WAT     H1 9613   4.777   2.384   5.450  2.0786 -0.1108 -0.3659
26952WAT     H2 9614   4.766   2.337   5.306  1.2883 -1.9771  0.2803
26952WAT    EPW 9615   4.748   2.327   5.391  0.9639 -0.3818  0.4249
26953WAT      O 9616   2.113   3.149   6.565 -0.8319 -0.7720  0.1488
26953WAT     H1 9617   2.061   3.162   6.644  0.3453  2.1165  0.5687
26953WAT     H2 9618   2.153   3.063   6.577 -2.1389 -1.2209  1.7718
26953WAT    EPW 9619   2.111   3.139   6.577 -0.8490 -0.4503  0.4184
26954WAT      O 9620   2.337   4.723   5.060  0.6742  0.2199  0.0854
26954WAT     H1 9621   2.345   4.721   4.964 -0.7786 -0.1060 -0.0498
26954WAT     H2 9622   2.351   4.632   5.086  0.9753  0.2924  0.1849
26954WAT    EPW 9623   2.340   4.710   5.051  0.5224  0.1862  0.0806
26955WAT      O 9624  -2.576   4.400   4.826  0.1237 -0.1765  0.3446
26955WAT     H1 9625  -2.653   4.429   4.778  0.8902 -0.3220 -1.0351
26955WAT     H2 9626  -2.611   4.346   4.897 -1.1125  1.0963  0.7401
26955WAT    EPW 9627  -2.591   4.396   4.829  0.0618 -0.0277  0.2148
26956WAT      O 9628   1.410   5.058   5.296  0.7724  0.5019 -0.0076
26956WAT     H1 9629   1.327   5.086   5.334  0.5547  0.7319 -0.6378
26956WAT     H2 9630   1.404   4.962   5.293  0.0927  0.5553 -0.9873
26956WAT    EPW 9631   1.398   5.049   5.300  0.6540  0.5393 -0.2198
26957WAT      O 9632   4.386   6.329   5.923 -0.5481 -0.0298 -0.4173
26957WAT     H1 9633   4.324   6.389   5.965  1.3953  1.4574  0.4765
26957WAT     H2 9634   4.450   6.308   5.991 -0.3508 -2.0019 -1.1425
26957WAT    EPW 9635   4.386   6.334   5.937 -0.2656 -0.0939 -0.3951
26958WAT      O 9636   1.281   6.672   4.041  0.5254  0.5014  0.1521
26958WAT     H1 9637   1.368   6.633   4.037 -0.4973 -1.8499 -0.4675
26958WAT     H2 9638   1.295   6.763   4.012  2.6992  0.1305 -0.1817
26958WAT    EPW 9639   1.295   6.679   4.037  0.6772  0.1426  0.0265
26959WAT      O 9640  -5.517   9.276   7.724  0.3877 -0.1653 -0.3674
26959WAT     H1 9641  -5.430   9.315   7.716  0.9795 -1.0872  1.0506
26959WAT     H2 9642  -5.573   9.347   7.753  0.9897  0.1259  0.1021
26959WAT    EPW 9643  -5.513   9.290   7.727  0.5453 -0.2480 -0.1185
26960WAT      O 9644   0.996   8.478   5.648  0.3039 -0.0333 -0.3079
26960WAT     H1 9645   0.950   8.396   5.664 -1.7469  1.5463  3.0651
26960WAT     H2 9646   0.957   8.512   5.567 -2.4182 -0.2025  0.8225
26960WAT    EPW 9647   0.984   8.472   5.639 -0.3256  0.1526  0.2861
26961WAT      O 9648   4.901   1.301   4.637  0.2149 -0.0454  0.5941
26961WAT     H1 9649   4.931   1.340   4.719  3.2878  0.4526 -0.6283
26961WAT     H2 9650   4.901   1.207   4.655  0.7517  0.0620  1.2055
26961WAT    EPW 9651   4.905   1.294   4.650  0.6909  0.0345  0.5136
26962WAT      O 9652   6.743   1.388   3.307 -0.2493 -0.2465 -0.3994
26962WAT     H1 9653   6.667   1.397   3.364  0.3681 -2.0716  0.8104
26962WAT     H2 9654   6.744   1.296   3.283  0.4029  0.1753 -2.1592
26962WAT    EPW 9655   6.733   1.377   3.311 -0.0818 -0.4317 -0.4719
26963WAT      O 9656   8.720   2.294   1.778  0.2505 -0.6042  0.8651
26963WAT     H1 9657   8.647   2.239   1.807 -0.0212 -0.8939 -0.2977
26963WAT     H2 9658   8.766   2.317   1.858 -1.4939  0.1301  1.7182
26963WAT    EPW 9659   8.716   2.289   1.792 -0.0157 -0.5455  0.8243
26964WAT      O 9660   3.858  10.196   2.638 -0.0526 -0.1310  0.1584
26964WAT     H1 9661   3.890  10.251   2.708  0.3549  0.2235 -0.3015
26964WAT     H2 9662   3.889  10.238   2.558 -1.1843 -0.0841 -0.2758
26964WAT    EPW 9663   3.866  10.209   2.636 -0.1482 -0.0777  0.0405
26965WAT      O 9664  -4.730   9.841   4.022  0.0756 -0.2896 -0.2997
26965WAT     H1 9665  -4.719   9.844   4.117  0.2325 -2.9448 -0.1820
26965WAT     H2 9666  -4.651   9.882   3.987  0.2329  0.2715  0.6903
26965WAT    EPW 9667  -4.718   9.847   4.030  0.1171 -0.5655 -0.1538
26966WAT      O 9668  -2.821   1.704   4.080 -0.2874 -0.0013 -0.7523
26966WAT     H1 9669  -2.768   1.679   4.156 -0.4776  2.1825  0.1810
26966WAT     H2 9670  -2.781   1.657   4.007 -0.7271 -3.0136  0.7769
26966WAT    EPW 9671  -2.809   1.694   4.080 -0.3705 -0.1106 -0.4275
26967WAT      O 9672   0.670   9.265   7.732  0.7070 -0.0440  0.0035
26967WAT     H1 9673   0.627   9.196   7.782 -2.8860  0.3667 -2.1472
26967WAT     H2 9674   0.720   9.219   7.665  1.9326 -0.5333  1.2254
26967WAT    EPW 9675   0.671   9.250   7.730  0.3947 -0.0544 -0.1192
26968WAT      O 9676  -3.218   1.905   8.313  0.5017 -0.7666 -0.0243
26968WAT     H1 9677  -3.285   1.952   8.264  1.6880 -0.3199 -1.2960
26968WAT     H2 9678  -3.142   1.964   8.312  0.9950 -1.3433  1.1970
26968WAT    EPW 9679  -3.217   1.919   8.306  0.7232 -0.7837 -0.0310
26969WAT      O 9680   3.518   0.020   7.873  0.1173  0.1084 -0.2028
26969WAT     H1 9681   3.472   0.098   7.842  0.9691  0.5186 -0.4593
26969WAT     H2 9682   3.490   0.011   7.964 -1.4580 -0.4024 -0.6958
26969WAT    EPW 9683   3.508   0.029   7.881  0.0219  0.0951 -0.3014
26970WAT      O 9684   0.600   2.674   6.244  0.7814  0.5800  0.5143
26970WAT     H1 9685   0.641   2.723   6.172  0.9364  0.0579  0.2407
26970WAT     H2 9686   0.602   2.735   6.318  2.2183  0.5141  0.5538
26970WAT    EPW 9687   0.606   2.689   6.244  0.9914  0.5025  0.4833
26971WAT      O 9688  -4.071   7.679   8.281  0.5912 -0.2801 -0.3902
26971WAT     H1 9689  -4.114   7.672   8.196  0.0589 -1.1000 -0.0759
26971WAT     H2 9690  -4.033   7.766   8.282 -0.1975  0.0895 -1.1056
26971WAT    EPW 9691  -4.072   7.689   8.270  0.4168 -0.3395 -0.4435
26972WAT      O 9692  -4.092   6.819   5.318  0.2854 -0.3604  0.1543
26972WAT     H1 9693  -4.057   6.739   5.279  0.9136 -0.8437  1.6460
26972WAT     H2 9694  -4.015   6.874   5.332  0.0807 -0.2296  0.7708
26972WAT    EPW 9695  -4.077   6.816   5.315  0.3412 -0.4070  0.4323
26973WAT      O 9696  -4.124   9.946   5.213  0.4239 -0.3128  0.1941
26973WAT     H1 9697  -4.204   9.906   5.248 -0.0262  2.0874  2.2632
26973WAT     H2 9698  -4.083   9.987   5.289  3.8676 -1.6993 -0.7400
26973WAT    EPW 9699  -4.129   9.946   5.228  0.8187 -0.1793  0.3438
26974WAT      O 9700  -1.880   3.773   7.437 -0.5124 -0.3983  0.1035
26974WAT     H1 9701  -1.839   3.827   7.505 -0.4551 -0.7854  0.3750
26974WAT     H2 9702  -1.850   3.813   7.355 -0.1778 -0.2345  0.3005
26974WAT    EPW 9703  -1.871   3.786   7.435 -0.4607 -0.4277  0.1652
26975WAT      O 9704  -5.761   7.958   7.720 -0.1502  0.7141 -0.0886
26975WAT     H1 9705  -5.743   7.926   7.632 -1.6917  2.9973 -1.3374
26975WAT     H2 9706  -5.674   7.965   7.761  0.7232  0.7219 -1.8377
26975WAT    EPW 9707  -5.747   7.954   7.714 -0.2384  1.0164 -0.4842
26976WAT      O 9708   6.442   9.346   0.016  0.0749 -0.0849  0.2154
26976WAT     H1 9709   6.380   9.284   0.054 -0.5579 -0.5779 -1.5257
26976WAT     H2 9710   6.528   9.306   0.030 -0.1869 -0.5378  0.5474
26976WAT    EPW 9711   6.445   9.333   0.023 -0.0429 -0.2093  0.0296
26977WAT      O 9712   5.687   3.835  -0.017 -0.3916  0.2539 -0.6987
26977WAT     H1 9713   5.714   3.834   0.075 -1.9784 -3.8376 -0.0553
26977WAT     H2 9714   5.597   3.867  -0.015 -1.2920 -2.1020 -0.3559
26977WAT    EPW 9715   5.679   3.839  -0.004 -0.7198 -0.5964 -0.5686
26978WAT      O 9716   6.067   8.685   1.524 -0.0008  0.7256  0.6268
26978WAT     H1 9717   6.163   8.679   1.522 -0.0173 -4.1850 -1.1267
26978WAT     H2 9718   6.042   8.647   1.608 -0.4227  0.7157  0.4989
26978WAT    EPW 9719   6.077   8.679   1.534 -0.0587  0.0768  0.3786
26979WAT      O 9720   4.716   2.171   7.714 -0.6161  0.1708  0.0136
26979WAT     H1 9721   4.686   2.147   7.801 -1.0281 -0.2488 -0.2398
26979WAT     H2 9722   4.803   2.209   7.728 -0.0094 -1.3077  0.4527
26979WAT    EPW 9723   4.724   2.173   7.727 -0.5903 -0.0795  0.0381
26980WAT      O 9724   3.853   5.456   1.582 -0.3093 -0.3372 -0.0932
26980WAT     H1 9725   3.761   5.443   1.605 -0.9896  1.8555 -1.3288
26980WAT     H2 9726   3.897   5.376   1.612 -2.6065 -1.4570  0.4635
26980WAT    EPW 9727   3.847   5.444   1.589 -0.7019 -0.1957 -0.1827
26981WAT      O 9728   3.741   5.096   0.990 -0.0093  0.5779 -0.3141
26981WAT     H1 9729   3.763   5.080   0.899  3.9835  2.5671  0.0642
26981WAT     H2 9730   3.652   5.132   0.988 -2.4865 -4.7378 -2.6191
26981WAT    EPW 9731   3.732   5.099   0.978  0.1906  0.1392 -0.5682
26982WAT      O 9732  -2.654   6.361   7.728  0.2613 -0.9143  0.2479
26982WAT     H1 9733  -2.665   6.406   7.644 -0.1254 -0.2279  0.6640
26982WAT     H2 9734  -2.561   6.374   7.750  0.5462 -1.7237 -0.4205
26982WAT    EPW 9735  -2.643   6.369   7.720  0.2478 -0.9305  0.2148
26983WAT      O 9736   6.968   1.679   1.590 -0.4464 -0.8325 -0.1097
26983WAT     H1 9737   6.934   1.626   1.518 -3.3568  0.8902 -0.1557
26983WAT     H2 9738   6.897   1.683   1.653  0.9359  0.2147  1.4659
26983WAT    EPW 9739   6.954   1.673   1.589 -0.6480 -0.4672  0.0921
26984WAT      O 9740   4.298   5.035   5.279  0.4173 -0.3779 -0.4437
26984WAT     H1 9741   4.303   5.011   5.372 -1.0234  2.3237  0.4497
26984WAT     H2 9742   4.337   5.123   5.276 -2.5457  1.0403 -1.6686
26984WAT    EPW 9743   4.304   5.044   5.291 -0.1636  0.1652 -0.4873
26985WAT      O 9744  -2.559   6.257   1.767  0.7801 -0.3160 -0.5967
26985WAT     H1 9745  -2.487   6.278   1.827  1.5690 -1.9547 -0.9222
26985WAT     H2 9746  -2.516   6.218   1.691 -0.5115 -3.0280 -0.0658
26985WAT    EPW 9747  -2.544   6.255   1.765  0.7137 -0.8900 -0.5696
26986WAT      O 9748   0.851   0.662   5.437 -0.2205 -0.0738  0.0615
26986WAT     H1 9749   0.938   0.677   5.475  0.1172 -2.5105  0.4268
26986WAT     H2 9750   0.821   0.581   5.479 -0.5427 -2.0560 -3.5919
26986WAT    EPW 9751   0.858   0.653   5.448 -0.2185 -0.6566 -0.3722
26987WAT      O 9752  -5.134  10.112   4.889 -0.0587 -0.1641  0.5671
26987WAT     H1 9753  -5.060  10.052   4.892 -0.2338 -0.3961  0.1755
26987WAT     H2 9754  -5.211  10.056   4.892 -0.2922  0.1388  3.7304
26987WAT    EPW 9755  -5.134  10.097   4.890 -0.1128 -0.1550  0.9327
26988WAT      O 9756   3.170   5.302   5.070 -0.1488  0.6899 -0.1365
26988WAT     H1 9757   3.167   5.255   4.986  0.5824 -3.3405  1.8283
26988WAT     H2 9758   3.250   5.271   5.111 -1.0958  1.5619  2.5655
26988WAT    EPW 9759   3.180   5.292   5.064 -0.1773  0.2732  0.4790
26989WAT      O 9760  -1.248   6.919   7.983 -0.5022 -0.8627  0.3728
26989WAT     H1 9761  -1.208   6.849   7.933  0.2550 -0.1647 -0.0166
26989WAT     H2 9762  -1.229   6.999   7.933 -0.2484 -0.2279  1.4465
26989WAT    EPW 9763  -1.240   6.920   7.970 -0.3688 -0.6869  0.4630
26990WAT      O 9764  -0.547   9.983   2.651 -0.2472  0.0771 -0.7763
26990WAT     H1 9765  -0.632  10.027   2.658 -1.1526 -0.9085 -3.9631
26990WAT     H2 9766  -0.566   9.892   2.672  0.1416 -0.0349 -0.9068
26990WAT    EPW 9767  -0.561   9.977   2.655 -0.3153 -0.0672 -1.2139
26991WAT      O 9768  -3.947   1.595   6.341 -0.8677  0.3546 -0.3423
26991WAT     H1 9769  -3.978   1.538   6.270 -0.7931 -0.2726  0.1264
26991WAT     H2 9770  -3.852   1.579   6.345 -0.4028  2.3380 -1.8383
26991WAT    EPW 9771  -3.938   1.585   6.332 -0.7966  0.5335 -0.4778
26992WAT      O 9772   4.186   1.576   3.692 -0.2345 -0.3749  0.1926
26992WAT     H1 9773   4.235   1.656   3.675 -1.2937  0.8543  2.4632
26992WAT     H2 9774   4.227   1.538   3.769 -1.0698 -0.8360  0.4254
26992WAT    EPW 9775   4.198   1.582   3.700 -0.4842 -0.2736  0.5229
26993WAT      O 9776   2.876   3.326   7.406 -0.0667  0.8774 -0.0583
26993WAT     H1 9777   2.838   3.239   7.403  1.2331  0.2667  0.4406
26993WAT     H2 9778   2.804   3.385   7.384 -1.1644 -0.2533  0.4066
26993WAT    EPW 9779   2.862   3.323   7.403 -0.0399  0.6478  0.0689
26994WAT      O 9780   2.877  10.282   0.482  0.3406 -0.5943 -0.1797
26994WAT     H1 9781   2.782  10.286   0.489  0.4718  0.2932  1.5629
26994WAT     H2 9782   2.902  10.205   0.533  0.5291 -1.2804 -1.2751
26994WAT    EPW 9783   2.868  10.273   0.490  0.3828 -0.5674 -0.0943
26995WAT      O 9784  -1.757   9.219   2.915 -0.5632  0.0084 -0.5369
26995WAT     H1 9785  -1.817   9.202   2.987  0.9605  0.9220  1.0195
26995WAT     H2 9786  -1.814   9.241   2.841 -2.1707 -1.0448  0.3244
26995WAT    EPW 9787  -1.772   9.220   2.915 -0.5742 -0.0100 -0.2179
26996WAT      O 9788   4.874   9.636   0.132 -1.0194  0.2189  0.1950
26996WAT     H1 9789   4.890   9.706   0.196 -0.6931 -0.9428  1.4288
26996WAT     H2 9790   4.835   9.681   0.057  1.7562  2.1903 -0.2201
26996WAT    EPW 9791   4.871   9.651   0.131 -0.6104  0.3257  0.3030
26997WAT      O 9792   0.677  10.382   0.028  0.1241 -0.4623  0.1500
26997WAT     H1 9793   0.722  10.306  -0.010  0.5537 -0.5993  0.9145
26997WAT     H2 9794   0.599  10.345   0.069 -0.1269 -0.3678 -0.2358
26997WAT    EPW 9795   0.673  10.367   0.028  0.1476 -0.4679  0.1999
26998WAT      O 9796   2.512   9.751   1.516  0.4448  0.8820  0.0591
26998WAT     H1 9797   2.418   9.763   1.524  0.1385 -1.8689  1.6250
26998WAT     H2 9798   2.533   9.679   1.574  3.7113  1.9738  0.4702
26998WAT    EPW 9799   2.503   9.743   1.525  0.8353  0.6633  0.3198
26999WAT      O 9800  -3.405   8.361   5.298  0.2501  0.0613 -0.0739
26999WAT     H1 9801  -3.375   8.423   5.231  0.4311 -0.1727 -0.2116
26999WAT     H2 9802  -3.330   8.350   5.356 -0.3189  1.2845  0.9498
26999WAT    EPW 9803  -3.391   8.368   5.297  0.1988  0.1912  0.0429
27000WAT      O 9804  -0.605   1.054   6.134  0.4580 -0.4181  0.2530
27000WAT     H1 9805  -0.546   1.014   6.070  1.6824  0.1593  0.9778
27000WAT     H2 9806  -0.623   1.141   6.099  0.3370 -0.4635  0.2046
27000WAT    EPW 9807  -0.600   1.060   6.121  0.6035 -0.3480  0.3421
27001WAT      O 9808   1.169   9.704   2.485  0.6274  0.6167  0.2414
27001WAT     H1 9809   1.132   9.709   2.397 -1.2808  0.5812  0.9920
27001WAT     H2 9810   1.184   9.795   2.510 -0.5353  0.7436  0.5337
27001WAT    EPW 9811   1.166   9.717   2.476  0.2223  0.6289  0.3790
27002WAT      O 9812  -4.240   9.155   6.580  0.2988 -0.2148 -0.4898
27002WAT     H1 9813  -4.199   9.208   6.648  0.5258  0.4159 -1.1149
27002WAT     H2 9814  -4.306   9.103   6.627  1.8462 -1.3457  0.5689
27002WAT    EPW 9815  -4.243   9.155   6.596  0.5329 -0.2809 -0.4327
27003WAT      O 9816  -4.201   5.087   7.669  0.2468 -0.2779 -0.1686
27003WAT     H1 9817  -4.225   5.102   7.578  1.8727 -0.7617 -0.7160
27003WAT     H2 9818  -4.284   5.082   7.716 -0.5826  2.1855 -1.2233
27003WAT    EPW 9819  -4.215   5.088   7.663  0.3519 -0.0169 -0.3798
27004WAT      O 9820   4.279  10.096  -0.014  0.3164  0.0167  0.4210
27004WAT     H1 9821   4.205  10.146   0.020 -0.2786  0.7366 -1.7648
27004WAT     H2 9822   4.277  10.014   0.035 -1.2916  0.4313  1.1185
27004WAT    EPW 9823   4.269  10.092  -0.003  0.0257  0.1664  0.2247
27005WAT      O 9824   0.507   0.436   5.399  0.4591  0.4978  0.1558
27005WAT     H1 9825   0.430   0.411   5.449  1.3086  0.4769  1.4975
27005WAT     H2 9826   0.516   0.367   5.332  1.1613 -1.3399  2.0400
27005WAT    EPW 9827   0.498   0.423   5.397  0.6638  0.2526  0.5813
27006WAT      O 9828  -0.433   3.676   2.916  0.3936 -0.2094 -0.0248
27006WAT     H1 9829  -0.394   3.667   2.830 -0.7346 -2.1911 -0.3888
27006WAT     H2 9830  -0.501   3.608   2.919  0.0312  0.1702  2.2092
27006WAT    EPW 9831  -0.437   3.666   2.905  0.1970 -0.4208  0.2218
27007WAT      O 9832  -3.185   6.306   5.985 -0.1594 -0.3582  0.8851
27007WAT     H1 9833  -3.191   6.225   6.035  0.9217 -0.9672  0.0864
27007WAT     H2 9834  -3.147   6.369   6.046 -1.9280 -0.1392  1.8220
27007WAT    EPW 9835  -3.181   6.303   5.999 -0.2500 -0.4094  0.9031
27008WAT      O 9836   0.733   9.595   1.628 -0.0190 -0.1240  0.8035
27008WAT     H1 9837   0.650   9.603   1.674 -0.9942 -2.5305 -0.4053
27008WAT     H2 9838   0.747   9.681   1.588 -1.2658  0.6842  2.0333
27008WAT    EPW 9839   0.724   9.607   1.629 -0.3120 -0.3347  0.8062
27009WAT      O 9840  -3.672   8.387   3.100  0.5031  0.8412  0.0404
27009WAT     H1 9841  -3.609   8.381   3.027 -0.7441  1.4664 -1.1352
27009WAT     H2 9842  -3.753   8.415   3.059  0.1548  2.8459  1.9067
27009WAT    EPW 9843  -3.674   8.390   3.085  0.2925  1.1878  0.1315
27010WAT      O 9844   5.596   6.512   1.294  0.3610  0.2364  1.1419
27010WAT     H1 9845   5.507   6.545   1.287  0.8118  1.4413  0.8954
27010WAT     H2 9846   5.610   6.499   1.388 -0.3954 -0.9073  1.1094
27010WAT    EPW 9847   5.586   6.514   1.306  0.3207  0.2444  1.1051
27011WAT      O 9848  -0.697   3.850   5.094  0.0686 -0.4455 -0.5966
27011WAT     H1 9849  -0.667   3.773   5.046  0.0641 -0.3862 -0.6933
27011WAT     H2 9850  -0.793   3.844   5.091  0.0078 -1.7906  1.5149
27011WAT    EPW 9851  -0.706   3.839   5.087  0.0599 -0.6151 -0.3309
27012WAT      O 9852   5.536   5.865   2.414  0.5384  0.1801  0.0311
27012WAT     H1 9853   5.455   5.831   2.450  0.0742 -0.5202 -1.5786
27012WAT     H2 9854   5.511   5.904   2.331  1.8964 -0.5388 -0.7623
27012WAT    EPW 9855   5.522   5.865   2.408  0.6564 -0.0072 -0.2860
27013WAT      O 9856  -4.745   4.647   5.620 -0.0824 -0.4319  0.7253
27013WAT     H1 9857  -4.742   4.569   5.675  0.3832  0.6686  2.3335
27013WAT     H2 9858  -4.836   4.676   5.625 -0.4392 -1.2520 -0.4924
27013WAT    EPW 9859  -4.757   4.640   5.628 -0.0682 -0.3951  0.7768
27014WAT      O 9860  -2.074   1.438   3.702 -0.2380  0.0855 -0.1199
27014WAT     H1 9861  -2.041   1.418   3.789  3.1205  1.7614 -0.8307
27014WAT     H2 9862  -2.059   1.533   3.692 -5.5877  1.2128 -0.6448
27014WAT    EPW 9863  -2.068   1.448   3.712 -0.5007  0.4552 -0.2828
27015WAT      O 9864   1.400   9.282   8.635  0.3137 -0.0754 -0.2113
27015WAT     H1 9865   1.433   9.339   8.565 -1.6584 -2.1186 -2.9965
27015WAT     H2 9866   1.390   9.341   8.711  2.2867  2.3063 -1.6370
27015WAT    EPW 9867   1.403   9.297   8.636  0.3139 -0.0305 -0.7668
27016WAT      O 9868   3.532   4.123   8.328 -0.3382  0.3008 -0.2610
27016WAT     H1 9869   3.473   4.096   8.258  0.7757 -1.8048 -0.4542
27016WAT     H2 9870   3.478   4.120   8.408 -0.5635 -1.4348 -0.4525
27016WAT    EPW 9871   3.517   4.119   8.330 -0.2210 -0.2058 -0.3119
27017WAT      O 9872   5.825   6.445   4.190  0.0916 -0.1201  0.5049
27017WAT     H1 9873   5.905   6.445   4.138  1.4810  0.0903  2.5344
27017WAT     H2 9874   5.820   6.357   4.226  1.9881  0.9999  3.9767
27017WAT    EPW 9875   5.835   6.434   4.188  0.5250  0.0556  1.2305
27018WAT      O 9876  -1.002   8.781   1.812 -0.3374 -0.6984 -0.0402
27018WAT     H1 9877  -0.971   8.855   1.760  0.7523 -1.3129 -0.2862
27018WAT     H2 9878  -1.025   8.820   1.897 -0.2020 -0.0177 -0.3115
27018WAT    EPW 9879  -1.001   8.796   1.817 -0.1758 -0.6895 -0.1085
27019WAT      O 9880   3.147   9.181   1.549  0.9819  0.6424  0.1182
27019WAT     H1 9881   3.224   9.207   1.499  1.1211  1.2651  0.6328
27019WAT     H2 9882   3.083   9.251   1.532  0.2310 -0.2547 -0.9237
27019WAT    EPW 9883   3.149   9.194   1.540  0.9012  0.6061  0.0486
27020WAT      O 9884   0.019   1.700   0.442  0.0720  0.4925  0.3522
27020WAT     H1 9885   0.064   1.677   0.523  0.4865 -1.2600 -0.3272
27020WAT     H2 9886   0.052   1.787   0.420  1.8230 -0.0237  0.7811
27020WAT    EPW 9887   0.029   1.708   0.450  0.3576  0.1933  0.3192
27021WAT      O 9888   6.023   4.103   5.394 -0.4933 -0.3841 -0.6492
27021WAT     H1 9889   6.073   4.078   5.471 -1.0216 -1.8912 -0.7634
27021WAT     H2 9890   6.050   4.041   5.326  0.8469  1.6129 -2.0874
27021WAT    EPW 9891   6.033   4.092   5.395 -0.3860 -0.3195 -0.8538
27022WAT      O 9892   3.390   5.272   7.374 -0.1932  0.2948  0.4422
27022WAT     H1 9893   3.388   5.177   7.383 -0.8186  0.2313 -0.2099
27022WAT     H2 9894   3.318   5.291   7.314  0.3362  1.1222  0.0560
27022WAT    EPW 9895   3.380   5.262   7.367 -0.2059  0.3955  0.3052
27023WAT      O 9896   0.273   9.226   5.054 -0.4223 -0.3357  0.0942
27023WAT     H1 9897   0.309   9.181   5.131 -0.2336 -1.2003 -0.4862
27023WAT     H2 9898   0.320   9.188   4.980  2.4820  3.3364 -0.2595
27023WAT    EPW 9899   0.284   9.215   5.054 -0.0143  0.0348 -0.0291
27024WAT      O 9900   6.211   8.840   2.387 -0.2064  0.1644  0.0586
27024WAT     H1 9901   6.191   8.763   2.334 -3.4025  0.4665  0.6389
27024WAT     H2 9902   6.266   8.807   2.458 -3.6742 -2.3009  1.8498
27024WAT    EPW 9903   6.216   8.825   2.390 -1.0853 -0.1211  0.3713
27025WAT      O 9904  -5.340   6.334   5.947  0.4345 -0.2417  0.2220
27025WAT     H1 9905  -5.244   6.336   5.958  0.6509  1.9259 -1.4018
27025WAT     H2 9906  -5.357   6.249   5.908  1.9527 -0.0021 -1.0812
27025WAT    EPW 9907  -5.329   6.323   5.943  0.6633  0.0758 -0.1640
27026WAT      O 9908   0.129   0.334   5.359  0.3979 -0.1728 -0.2477
27026WAT     H1 9909   0.188   0.367   5.292  2.3196 -1.2453  0.8032
27026WAT     H2 9910   0.187   0.314   5.433 -1.6433  1.2200  1.8600
27026WAT    EPW 9911   0.144   0.335   5.360  0.3821 -0.1305  0.1688
27027WAT      O 9912  -0.160   1.480   1.170  0.4024 -0.3011 -0.1731
27027WAT     H1 9913  -0.108   1.413   1.213  1.8687  0.0593 -1.3103
27027WAT     H2 9914  -0.199   1.529   1.243 -0.2416 -1.9877  0.6807
27027WAT    EPW 9915  -0.158   1.478   1.186  0.5109 -0.4759 -0.2104
27028WAT      O 9916  -0.694   7.090   8.559 -0.5564  0.7191 -0.6952
27028WAT     H1 9917  -0.746   7.056   8.487 -1.8735  0.8399  0.1758
27028WAT     H2 9918  -0.757   7.131   8.618  0.3095 -0.4655  1.1628
27028WAT    EPW 9919  -0.709   7.091   8.557 -0.6159  0.5789 -0.3352
27029WAT      O 9920   7.666   2.430   1.548  0.0531 -0.3380 -0.3223
27029WAT     H1 9921   7.631   2.519   1.545  0.0259 -0.3452 -0.2348
27029WAT     H2 9922   7.629   2.387   1.471 -1.3937 -0.8057  0.6023
27029WAT    EPW 9923   7.657   2.436   1.537 -0.1414 -0.4005 -0.1889
27030WAT      O 9924   3.490   6.699   5.954 -0.3320 -0.4253 -0.5101
27030WAT     H1 9925   3.417   6.716   6.013 -0.3860 -1.7624 -0.1527
27030WAT     H2 9926   3.480   6.764   5.884  0.4473  2.0349  1.5187
27030WAT    EPW 9927   3.479   6.710   5.952 -0.2364 -0.2773 -0.1953
27031WAT      O 9928   1.872   2.573   3.446 -0.3156  0.3904  0.5774
27031WAT     H1 9929   1.883   2.497   3.389  0.2210 -0.7212  2.0729
27031WAT     H2 9930   1.947   2.629   3.426  0.4814 -0.5182  0.9399
27031WAT    EPW 9931   1.884   2.570   3.436 -0.1397  0.1239  0.8225
27032WAT      O 9932   1.058   4.017   4.031  0.1462  0.6846 -0.1146
27032WAT     H1 9933   1.142   4.059   4.052 -0.3878  1.6135  0.2648
27032WAT     H2 9934   1.061   3.933   4.076  1.2282  0.3178 -0.8386
27032WAT    EPW 9935   1.069   4.012   4.040  0.2185  0.7586 -0.1600
27033WAT      O 9936  -3.218   2.624   3.867 -0.4333 -0.0383 -0.3202
27033WAT     H1 9937  -3.195   2.566   3.939 -0.6636  0.1856 -0.0617
27033WAT     H2 9938  -3.303   2.662   3.892 -0.5863 -0.0690 -0.7756
27033WAT    EPW 9939  -3.226   2.622   3.880 -0.4839 -0.0128 -0.3462
27034WAT      O 9940  -1.261  10.334   5.988  0.2611 -0.2089  0.5813
27034WAT     H1 9941  -1.219  10.306   6.069 -0.4777 -0.6448  0.8207
27034WAT     H2 9942  -1.252  10.429   5.987  0.0757 -0.1828  1.2837
27034WAT    EPW 9943  -1.254  10.342   5.999  0.1391 -0.2629  0.7055
27035WAT      O 9944   4.940   2.349   8.141  1.0343  0.4422 -0.5943
27035WAT     H1 9945   4.896   2.275   8.100  1.0419 -0.4884  1.0224
27035WAT     H2 9946   4.937   2.418   8.074  0.4219 -0.7732 -1.8740
27035WAT    EPW 9947   4.934   2.349   8.127  0.9546  0.1591 -0.5498
27036WAT      O 9948  -0.382   6.182   2.496 -0.5148  0.6346  0.5518
27036WAT     H1 9949  -0.434   6.102   2.490  0.4269 -0.0617  1.3592
27036WAT     H2 9950  -0.343   6.178   2.583  1.9343  0.4673 -0.4947
27036WAT    EPW 9951  -0.384   6.171   2.506 -0.0676  0.5207  0.5202
27037WAT      O 9952   1.222   1.884   6.514 -0.3305 -0.2409 -0.0421
27037WAT     H1 9953   1.199   1.971   6.481 -1.8393  0.1861  1.9806
27037WAT     H2 9954   1.301   1.899   6.567  0.6441 -0.5127 -1.3580
27037WAT    EPW 9955   1.229   1.898   6.517 -0.4010 -0.2205  0.0510
27038WAT      O 9956   2.563   1.027   5.507  0.6147  0.2831  0.6527
27038WAT     H1 9957   2.532   1.116   5.490 -0.2697 -0.1876 -0.3535
27038WAT     H2 9958   2.497   0.971   5.466  1.4154 -0.8299  0.8389
27038WAT    EPW 9959   2.550   1.031   5.499  0.6036  0.0742  0.5445
27039WAT      O 9960   7.429   1.043   0.930  0.7960 -0.2010  0.6238
27039WAT     H1 9961   7.499   1.100   0.960 -0.6748  2.0462  0.0353
27039WAT     H2 9962   7.371   1.034   1.005  1.3089 -1.4316  0.8869
27039WAT    EPW 9963   7.430   1.049   0.944  0.6695 -0.0669  0.5809
27040WAT      O 9964   0.407   6.250   2.525 -0.6140 -0.0503 -0.8379
27040WAT     H1 9965   0.327   6.226   2.571  0.4359  0.5754  1.4448
27040WAT     H2 9966   0.426   6.340   2.554  1.0637 -0.2839 -1.0902
27040WAT    EPW 9967   0.399   6.259   2.535 -0.2542  0.0014 -0.5701
27041WAT      O 9968   3.794   1.916   4.293  0.6785  0.0183 -0.2386
27041WAT     H1 9969   3.735   1.846   4.267  1.0871  0.4135 -2.5198
27041WAT     H2 9970   3.854   1.925   4.218 -0.0828  3.5283 -0.5978
27041WAT    EPW 9971   3.794   1.908   4.280  0.6319  0.5333 -0.5867
27042WAT      O 9972   1.929   0.575   5.733 -0.3291 -0.9181  0.1722
27042WAT     H1 9973   1.864   0.624   5.784 -2.0753 -1.1081 -1.7431
27042WAT     H2 9974   1.970   0.517   5.797 -0.5034  0.7080  1.8623
27042WAT    EPW 9975   1.926   0.574   5.748 -0.5824 -0.7287  0.1426
27043WAT      O 9976   5.231   8.684   1.407 -0.9116  0.0070  0.0273
27043WAT     H1 9977   5.244   8.733   1.488 -0.2003 -0.6719  0.3394
27043WAT     H2 9978   5.311   8.700   1.357 -1.1912  0.1262 -0.3887
27043WAT    EPW 9979   5.243   8.693   1.411 -0.8547 -0.0668  0.0136
27044WAT      O 9980   4.951   4.781   0.512  0.4057 -0.5837  0.4494
27044WAT     H1 9981   5.045   4.776   0.528  0.5831 -0.8801 -0.6450
27044WAT     H2 9982   4.926   4.869   0.542  1.3684  0.1919 -0.9435
27044WAT    EPW 9983   4.960   4.792   0.518  0.5562 -0.5205  0.1213
27045WAT      O 9984  -3.115   4.430   6.528  0.0350 -0.7956  0.2496
27045WAT     H1 9985  -3.106   4.387   6.443  0.2588 -0.4891  0.1155
27045WAT     H2 9986  -3.186   4.383   6.572 -0.4479 -0.6071 -0.3166
27045WAT    EPW 9987  -3.123   4.418   6.523  0.0007 -0.7303  0.1569
27046WAT      O 9988   1.988   2.210   0.858  0.7164  0.2046 -0.0416
27046WAT     H1 9989   2.074   2.171   0.874  0.3979 -0.4926 -0.0066
27046WAT     H2 9990   1.943   2.146   0.803  0.9017  1.4244 -1.7138
27046WAT    EPW 9991   1.994   2.196   0.853  0.6988  0.2736 -0.2575
27047WAT      O 9992   3.031   6.037   6.165  0.3055 -0.2186  0.1244
27047WAT     H1 9993   2.965   5.971   6.142 -1.1587  0.7978  1.1884
27047WAT     H2 9994   2.990   6.088   6.235  2.1122  0.6960  0.5738
27047WAT    EPW 9995   3.017   6.035   6.171  0.3507  0.0360  0.3240
27048WAT      O 9996  -3.360   6.274   5.002  0.4733 -0.1437  0.7200
27048WAT     H1 9997  -3.434   6.299   4.946  0.5655  0.1058  0.7092
27048WAT     H2 9998  -3.283   6.308   4.956  0.5531  0.0129  0.9675
27048WAT    EPW 9999  -3.360   6.282   4.988  0.4959 -0.0901  0.7510
27049WAT      O10000   6.370   8.674   1.545  0.2295 -0.2505  0.6760
27049WAT     H110001   6.397   8.760   1.514 -1.4060  0.6680  1.6712
27049WAT     H210002   6.364   8.683   1.640  0.0348 -1.4746  0.8007
27049WAT    EPW10003   6.373   8.687   1.553 -0.0117 -0.2909  0.8237
27050WAT      O10004   7.391   8.795   0.454  0.3859 -0.1336 -0.1336
27050WAT     H110005   7.378   8.726   0.520  0.4376 -0.7265 -0.7298
27050WAT     H210006   7.327   8.775   0.386  0.6988  0.1569 -0.5195
27050WAT    EPW10007   7.380   8.783   0.454  0.4339 -0.1736 -0.2631
27051WAT      O10008   5.033   0.951   0.172 -0.2573 -0.0497 -0.2559
27051WAT     H110009   5.098   1.013   0.139 -1.9535  0.6689 -2.4062
27051WAT     H210010   4.954   1.004   0.187 -1.3352 -1.4325 -0.8268
27051WAT    EPW10011   5.031   0.966   0.170 -0.6232 -0.1373 -0.6148
27052WAT      O10012   2.968   8.888   5.925  0.8854 -0.3590  0.0300
27052WAT     H110013   2.968   8.803   5.968 -0.6092 -0.9821 -1.1174
27052WAT     H210014   3.000   8.870   5.836 -2.9885 -0.5526 -1.5248
27052WAT    EPW10015   2.972   8.874   5.919  0.1774 -0.4668 -0.3264
27053WAT      O10016  -3.415   6.177   2.924 -1.1606  0.2500  0.4089
27053WAT     H110017  -3.491   6.223   2.889 -0.0480  1.2087 -0.8552
27053WAT     H210018  -3.340   6.229   2.895  0.0675 -1.4891  0.3142
27053WAT    EPW10019  -3.415   6.190   2.915 -0.8519  0.1471  0.2297
27054WAT      O10020   6.146   1.909   3.118  0.1499 -0.6540 -0.0025
27054WAT     H110021   6.064   1.861   3.132 -0.7398  0.6090 -0.7268
27054WAT     H210022   6.143   1.980   3.183 -0.3850  0.6854 -1.4396
27054WAT    EPW10023   6.135   1.912   3.129 -0.0379 -0.3108 -0.2877
27055WAT      O10024   8.034   1.922   1.314 -0.0766  0.4846 -0.0119
27055WAT     H110025   7.987   1.850   1.356  0.5098 -0.4589 -0.9316
27055WAT     H210026   8.067   1.975   1.387  0.2749 -0.6931  0.7129
27055WAT    EPW10027   8.032   1.920   1.329  0.0472  0.2048 -0.0376
27056WAT      O10028   1.871   9.825   3.639 -0.1428  0.4367  0.0147
27056WAT     H110029   1.811   9.898   3.654 -1.1946 -0.5793  0.8763
27056WAT     H210030   1.946   9.865   3.596 -0.3753  2.1477  1.1276
27056WAT    EPW10031   1.873   9.840   3.635 -0.3122  0.5283  0.2751
27057WAT      O10032  -3.782   2.674   5.612 -0.2300 -0.2185 -0.2027
27057WAT     H110033  -3.833   2.605   5.569  1.9164 -1.8490 -0.2974
27057WAT     H210034  -3.813   2.675   5.702 -1.9547  0.4130 -0.7675
27057WAT    EPW10035  -3.793   2.665   5.618 -0.1744 -0.3504 -0.2897
27058WAT      O10036   0.304   0.164   5.993 -0.0515 -0.0308  0.4263
27058WAT     H110037   0.299   0.112   5.913  0.6756  1.1625 -0.4366
27058WAT     H210038   0.216   0.200   6.003 -0.3287 -0.7429  0.5471
27058WAT    EPW10039   0.292   0.162   5.983  0.0078  0.0327  0.3283
27059WAT      O10040   6.863   3.975   3.108 -0.0315 -1.0630  0.0252
27059WAT     H110041   6.775   3.938   3.112 -0.0100 -1.6395 -2.9196
27059WAT     H210042   6.876   3.998   3.016  3.6522 -2.9782 -0.1114
27059WAT    EPW10043   6.853   3.973   3.097  0.4573 -1.3916 -0.3811
27060WAT      O10044  -5.732   9.755   7.474 -0.5452 -0.1005 -0.0785
27060WAT     H110045  -5.797   9.706   7.524  0.3058 -1.0910  0.0708
27060WAT     H210046  -5.734   9.716   7.387 -1.3075  0.9611 -0.5613
27060WAT    EPW10047  -5.741   9.744   7.469 -0.5333 -0.0906 -0.1225
27061WAT      O10048   1.779   3.358   5.136  0.3109 -0.3329  0.2156
27061WAT     H110049   1.721   3.286   5.110 -0.2996  0.2719 -0.1248
27061WAT     H210050   1.807   3.397   5.054  1.8424 -1.0888  0.3428
27061WAT    EPW10051   1.775   3.353   5.122  0.4324 -0.3529  0.1874
27062WAT      O10052  -4.026   7.588   6.977 -0.1552 -0.4120  0.6496
27062WAT     H110053  -4.016   7.603   7.070  0.5441 -3.5958  1.2186
27062WAT     H210054  -3.937   7.591   6.942 -0.2721 -0.5081  0.3342
27062WAT    EPW10055  -4.013   7.590   6.984 -0.0784 -0.8447  0.6831
27063WAT      O10056  -2.079   7.606   4.561 -0.0042  0.1533  0.6642
27063WAT     H110057  -2.057   7.678   4.620  1.1186 -0.4164  0.9681
27063WAT     H210058  -2.013   7.611   4.492 -0.6317  0.1252  0.0511
27063WAT    EPW10059  -2.067   7.616   4.560  0.0612  0.0744  0.6235
27064WAT      O10060  -2.497   9.248   4.282 -0.8928 -0.2201  0.1631
27064WAT     H110061  -2.583   9.281   4.309 -0.4324  1.7527 -0.5493
27064WAT     H210062  -2.499   9.255   4.186  1.1138  3.0142  0.2168
27064WAT    EPW10063  -2.509   9.254   4.273 -0.5674  0.4668  0.0761
27065WAT      O10064   5.848   1.579   1.509  0.0334 -0.5199 -0.3482
27065WAT     H110065   5.911   1.637   1.468  1.0548  0.1876  2.0659
27065WAT     H210066   5.776   1.636   1.536  0.5728 -0.5117  1.1253
27065WAT    EPW10067   5.847   1.594   1.507  0.2391 -0.4256  0.1645
27066WAT      O10068   5.729   4.324   4.946 -0.4150  0.0157  0.2192
27066WAT     H110069   5.743   4.232   4.966  1.7650  0.0308 -0.9253
27066WAT     H210070   5.710   4.365   5.031 -0.5129 -1.3245  0.8645
27066WAT    EPW10071   5.728   4.317   4.960 -0.1404 -0.1590  0.1533
27067WAT      O10072   6.189   2.308   0.830  0.1180 -0.0360  0.2789
27067WAT     H110073   6.254   2.257   0.782  1.2147  0.4228  1.2209
27067WAT     H210074   6.105   2.274   0.801  0.8030 -2.4548  0.9409
27067WAT    EPW10075   6.186   2.297   0.820  0.3531 -0.2946  0.4905
27068WAT      O10076   0.575   3.541   7.530 -0.3732 -0.1721 -0.1526
27068WAT     H110077   0.505   3.498   7.580  0.1771 -1.6116 -0.5632
27068WAT     H210078   0.600   3.476   7.464 -0.8031  1.5157 -2.0765
27068WAT    EPW10079   0.569   3.527   7.528 -0.3574 -0.1394 -0.4604
27069WAT      O10080   2.167   8.311   4.899  0.0188 -0.1482  0.8119
27069WAT     H110081   2.167   8.225   4.942 -1.1834 -0.4024  0.3437
27069WAT     H210082   2.120   8.368   4.960 -0.1360 -0.0874  0.6370
27069WAT    EPW10083   2.161   8.307   4.913 -0.1602 -0.1736  0.7272
27070WAT      O10084  -3.672   2.511   8.327  0.2772 -0.0270  0.4037
27070WAT     H110085  -3.736   2.582   8.331  0.4275  0.0717  1.4414
27070WAT     H210086  -3.626   2.524   8.244 -0.6871  0.2108 -0.0985
27070WAT    EPW10087  -3.674   2.522   8.316  0.1699  0.0174  0.4745
27071WAT      O10088   2.824   3.221   7.971  0.1108  0.1419  0.6462
27071WAT     H110089   2.847   3.206   7.879  1.6209  0.6065  0.9152
27071WAT     H210090   2.898   3.271   8.006  1.1208 -2.6477  2.9158
27071WAT    EPW10091   2.837   3.225   7.963  0.4432 -0.1649  0.9809
27072WAT      O10092   4.045   4.290   1.592  0.4588  0.1729  0.2998
27072WAT     H110093   4.003   4.295   1.677 -1.0042  0.1238 -0.3904
27072WAT     H210094   3.973   4.286   1.529  1.4302 -2.1368 -0.8235
27072WAT    EPW10095   4.030   4.290   1.595  0.3941 -0.1383  0.0606
27073WAT      O10096   6.093   8.013   1.344  0.3946  0.4335  0.3054
27073WAT     H110097   6.186   8.022   1.364  0.2039  0.8390  1.0929
27073WAT     H210098   6.080   7.920   1.328  1.5016  0.7191 -2.9543
27073WAT    EPW10099   6.103   8.002   1.345  0.5155  0.5245 -0.0207
27074WAT      O10100  -1.022   1.645   1.403  0.3560  0.4874  0.2184
27074WAT     H110101  -1.076   1.570   1.377  1.2264 -0.4068  0.9098
27074WAT     H210102  -1.076   1.691   1.468  0.6187 -0.7254  1.3434
27074WAT    EPW10103  -1.036   1.641   1.408  0.5054  0.2095  0.4579
27075WAT      O10104   3.866   3.408   1.630 -0.2875  0.5060 -0.5784
27075WAT     H110105   3.773   3.420   1.647 -0.1110  2.5425 -0.7822
27075WAT     H210106   3.886   3.469   1.560  1.1290 -0.2098 -0.8468
27075WAT    EPW10107   3.856   3.418   1.623 -0.0774  0.6801 -0.6407
27076WAT      O10108   3.752  10.361   4.289 -0.8380  0.9795  0.1925
27076WAT     H110109   3.720  10.272   4.271  0.8659  0.7255 -2.0432
27076WAT     H210110   3.681  10.402   4.337 -2.1480 -1.2506  0.3121
27076WAT    EPW10111   3.738  10.355   4.293 -0.7859  0.6514 -0.0865
27077WAT      O10112   0.931   7.647   5.807  0.2138  0.3869  0.6002
27077WAT     H110113   0.858   7.661   5.867  0.5637  0.1408  1.0935
27077WAT     H210114   0.954   7.555   5.820 -0.1454  0.1454 -0.4136
27077WAT    EPW10115   0.925   7.637   5.817  0.2126  0.3226  0.5314
27078WAT      O10116   6.335   4.786   4.583 -0.3838  0.2940 -0.2080
27078WAT     H110117   6.401   4.718   4.574 -0.2012  0.3850  0.4071
27078WAT     H210118   6.338   4.810   4.676 -1.1486  0.4277 -0.2115
27078WAT    EPW10119   6.344   4.780   4.594 -0.4606  0.3235 -0.1273
27079WAT      O10120  -5.916   5.083   7.838  0.2604  0.6757  0.4686
27079WAT     H110121  -5.897   5.000   7.793  2.1999  0.5246  1.4956
27079WAT     H210122  -5.948   5.056   7.924  0.7782  0.9811  0.7598
27079WAT    EPW10123  -5.918   5.068   7.843  0.5846  0.6959  0.6423
27080WAT      O10124   4.854   9.514   3.944  0.7337 -0.2559  1.3329
27080WAT     H110125   4.876   9.598   3.984  1.7797  0.7532 -1.1746
27080WAT     H210126   4.758   9.513   3.941  0.6871  1.7517 -0.2387
27080WAT    EPW10127   4.844   9.525   3.949  0.8652  0.1421  0.7949
27081WAT      O10128   1.594   7.939   6.616  0.1656  0.1710  0.0109
27081WAT     H110129   1.606   7.924   6.709  0.5777  2.0712  0.3122
27081WAT     H210130   1.675   7.908   6.576  0.3892  0.2396  0.4079
27081WAT    EPW10131   1.606   7.933   6.623  0.2494  0.4308  0.1030
27082WAT      O10132   2.895   2.844   6.391  0.2272 -0.0865 -0.5230
27082WAT     H110133   2.885   2.917   6.331  0.2140  0.9084  0.6420
27082WAT     H210134   2.944   2.881   6.465 -0.9809 -0.8803  0.7184
27082WAT    EPW10135   2.900   2.858   6.393  0.0660 -0.0598 -0.2055
27083WAT      O10136  -5.475   5.705   6.385  0.7198 -0.0311 -0.0938
27083WAT     H110137  -5.484   5.616   6.420  1.9299  0.4532  1.5441
27083WAT     H210138  -5.450   5.692   6.293 -0.8454 -1.3511 -0.3634
27083WAT    EPW10139  -5.473   5.692   6.378  0.6728 -0.1414  0.0865
27084WAT      O10140   2.746   7.744   1.471  0.0240 -0.1083 -0.1324
27084WAT     H110141   2.752   7.804   1.545 -0.4797  0.0747 -0.2323
27084WAT     H210142   2.832   7.704   1.465  1.7806  3.5207 -2.6035
27084WAT    EPW10143   2.758   7.746   1.480  0.1892  0.3946 -0.4715
27085WAT      O10144   7.661   5.577   2.056 -0.5660 -0.1267 -0.5094
27085WAT     H110145   7.747   5.613   2.036  0.3264 -0.9901  1.5351
27085WAT     H210146   7.614   5.649   2.098  0.3476 -0.5317  1.3129
27085WAT    EPW10147   7.666   5.591   2.059 -0.3278 -0.2940  0.0007
27086WAT      O10148   3.874   4.016   1.020 -0.5017  0.5277  0.3508
27086WAT     H110149   3.908   3.969   1.096 -0.3767 -1.2391 -0.7199
27086WAT     H210150   3.951   4.049   0.974  0.0256 -3.2054 -1.9070
27086WAT    EPW10151   3.888   4.014   1.024 -0.4157 -0.1976 -0.0882
27087WAT      O10152  -0.657   1.291   6.609 -0.3187  0.5940 -0.6487
27087WAT     H110153  -0.594   1.343   6.660  1.0201 -0.5925 -1.0394
27087WAT     H210154  -0.613   1.276   6.525 -1.6327  0.7301 -1.4004
27087WAT    EPW10155  -0.643   1.296   6.604 -0.3154  0.4554 -0.7994
27088WAT      O10156   0.119   4.104   8.539 -0.0552 -0.1068 -0.7326
27088WAT     H110157   0.038   4.093   8.589 -1.4023  1.3322 -2.4625
27088WAT     H210158   0.094   4.157   8.464  2.3303 -0.3822 -1.8224
27088WAT    EPW10159   0.105   4.109   8.536  0.0818  0.0467 -1.1044
27089WAT      O10160   2.886   8.788   2.868 -0.4891 -0.0628  1.1932
27089WAT     H110161   2.946   8.795   2.942  1.0808  2.3778 -0.1915
27089WAT     H210162   2.819   8.854   2.885 -0.3052  0.2808  0.5940
27089WAT    EPW10163   2.885   8.798   2.880 -0.2578  0.3042  0.9315
27090WAT      O10164   3.075   9.462   2.322  0.0749 -0.6299  0.3630
27090WAT     H110165   3.158   9.447   2.368  0.6296 -1.4925 -0.8505
27090WAT     H210166   3.101   9.486   2.233 -0.9694 -1.1706 -0.1055
27090WAT    EPW10167   3.089   9.463   2.316  0.0104 -0.8149  0.1411
27091WAT      O10168   2.250   8.005   2.447  0.1090 -0.0781  0.4717
27091WAT     H110169   2.285   8.059   2.376 -1.0031 -0.5335 -0.4402
27091WAT     H210170   2.282   7.917   2.429 -1.4510 -0.5086 -0.3901
27091WAT    EPW10171   2.259   8.001   2.436 -0.2434 -0.1950  0.2378
27092WAT      O10172   3.689   9.547   4.942  0.2673 -0.3734  0.5349
27092WAT     H110173   3.652   9.585   4.862 -0.4872 -2.3005 -0.0688
27092WAT     H210174   3.681   9.617   5.007  0.8670  1.2210 -1.0294
27092WAT    EPW10175   3.683   9.562   4.940  0.2469 -0.4172  0.2489
27093WAT      O10176  -5.794   7.181   6.462  0.3792  0.8395  0.0061
27093WAT     H110177  -5.776   7.217   6.375 -0.2979  1.1604 -0.0137
27093WAT     H210178  -5.884   7.149   6.456  0.3876  0.7028  0.5394
27093WAT    EPW10179  -5.804   7.182   6.450  0.2909  0.8638  0.0739
27094WAT      O10180  -3.547   9.446   6.786 -0.0154  0.4054  1.0821
27094WAT     H110181  -3.582   9.360   6.808  0.3685  0.7355  3.1675
27094WAT     H210182  -3.511   9.479   6.868  0.3641  2.3251  0.1973
27094WAT    EPW10183  -3.547   9.439   6.799  0.0854  0.7019  1.2407
27095WAT      O10184  -0.109   8.522   2.063  0.3102  0.5843  0.7228
27095WAT     H110185  -0.137   8.609   2.090 -1.6350  0.2378 -0.0185
27095WAT     H210186  -0.182   8.488   2.011  1.3743 -1.1588  0.2693
27095WAT    EPW10187  -0.122   8.529   2.060  0.1940  0.3085  0.5652
27096WAT      O10188   1.192  10.313   4.526  0.1760  0.1575 -0.4598
27096WAT     H110189   1.209  10.407   4.532 -1.2900  0.4724 -0.8983
27096WAT     H210190   1.099  10.305   4.544  0.4952 -1.3499  0.7010
27096WAT    EPW10191   1.182  10.325   4.530  0.0247  0.0000 -0.3645
27097WAT      O10192   6.518  10.142   0.122 -0.2830 -0.3455 -0.9831
27097WAT     H110193   6.444  10.083   0.111  0.3339 -1.0321 -1.4755
27097WAT     H210194   6.489  10.225   0.083 -0.6460 -0.7293 -1.5329
27097WAT    EPW10195   6.505  10.145   0.115 -0.2496 -0.4869 -1.1205
27098WAT      O10196   1.526   0.583   8.677  0.2547 -0.2447  0.3452
27098WAT     H110197   1.603   0.553   8.725  0.6471  2.5333  1.6565
27098WAT     H210198   1.467   0.616   8.745  1.0228  4.2767 -0.8235
27098WAT    EPW10199   1.528   0.583   8.692  0.4077  0.7180  0.3638
27099WAT      O10200   1.057   7.904   5.728  0.8983  0.5734 -0.4536
27099WAT     H110201   0.995   7.831   5.733  2.6567 -1.1358 -2.1049
27099WAT     H210202   1.048   7.948   5.813 -1.0434 -0.8403  0.1557
27099WAT    EPW10203   1.047   7.900   5.740  0.8741  0.1616 -0.5910
27100WAT      O10204   3.138   1.641   5.437  0.2580  0.6750 -0.4990
27100WAT     H110205   3.088   1.690   5.502 -1.0939 -1.3907  0.1215
27100WAT     H210206   3.134   1.550   5.467  1.3972 -0.0529 -2.3693
27100WAT    EPW10207   3.131   1.636   5.450  0.2300  0.3065 -0.6638
27101WAT      O10208   3.033   6.942   0.848 -0.4118 -0.1659 -0.3368
27101WAT     H110209   3.007   6.983   0.765  1.1758 -0.3156 -0.9299
27101WAT     H210210   2.952   6.902   0.880 -1.4995  1.5232 -0.8334
27101WAT    EPW10211   3.019   6.942   0.841 -0.3458  0.0374 -0.4805
27102WAT      O10212   7.213   1.422   3.590  0.4496  0.0802 -0.2839
27102WAT     H110213   7.129   1.385   3.614  0.9640 -0.5657  0.5603
27102WAT     H210214   7.264   1.348   3.558  0.5563  0.5419 -1.2323
27102WAT    EPW10215   7.209   1.408   3.589  0.5314  0.0560 -0.2975
27103WAT      O10216  -0.537   1.705   1.072 -0.2034 -0.3278 -0.6075
27103WAT     H110217  -0.588   1.770   1.120 -1.2456 -1.7708  0.3205
27103WAT     H210218  -0.467   1.755   1.030  0.2019  1.1284  1.6671
27103WAT    EPW10219  -0.534   1.720   1.072 -0.2874 -0.3261 -0.1851
27104WAT      O10220   0.822   0.800   5.192  0.4122 -0.0088  0.4416
27104WAT     H110221   0.836   0.741   5.267  0.0727  1.1001  1.4066
27104WAT     H210222   0.903   0.851   5.186  0.3707  0.0258  0.1552
27104WAT    EPW10223   0.835   0.799   5.201  0.3620  0.1420  0.5310
27105WAT      O10224  -3.365  10.022   0.141 -0.3151 -0.2426 -0.2659
27105WAT     H110225  -3.386   9.932   0.115 -0.4671 -0.1086 -0.6248
27105WAT     H210226  -3.352  10.017   0.236 -1.0903 -0.5048 -0.1627
27105WAT    EPW10227  -3.366  10.009   0.150 -0.4374 -0.2599 -0.2996
27106WAT      O10228   9.469   1.894   1.142  0.5507 -0.4814  0.6953
27106WAT     H110229   9.390   1.845   1.165 -0.7432  1.3832  0.4955
27106WAT     H210230   9.441   1.954   1.073  2.6974 -1.1914 -0.9078
27106WAT    EPW10231   9.455   1.896   1.136  0.6633 -0.3291  0.4576
27107WAT      O10232  -2.666   2.303   5.093 -0.1005  0.5627  0.4748
27107WAT     H110233  -2.615   2.381   5.072  0.5553 -0.1357 -0.6279
27107WAT     H210234  -2.707   2.279   5.010 -0.7643  0.0697  0.9400
27107WAT    EPW10235  -2.665   2.310   5.080 -0.1014  0.4057  0.3908
27108WAT      O10236   2.808   0.256   7.359  0.0356 -0.4511 -0.8522
27108WAT     H110237   2.870   0.209   7.415 -2.4668  1.7970  4.5090
27108WAT     H210238   2.829   0.349   7.372 -1.3626  0.2355 -2.9742
27108WAT    EPW10239   2.819   0.262   7.368 -0.4789 -0.0641 -0.4249
27109WAT      O10240   4.866   0.165   3.823  0.5332 -0.2918  0.5155
27109WAT     H110241   4.899   0.228   3.759 -1.2829  0.1794 -0.0032
27109WAT     H210242   4.878   0.208   3.907 -0.8331  0.8868  0.1609
27109WAT    EPW10243   4.872   0.179   3.825  0.1137 -0.0742  0.4003
27110WAT      O10244  -1.050   0.176   3.517  0.0968 -0.0778 -0.2367
27110WAT     H110245  -0.988   0.249   3.512  1.3767 -1.1807 -3.8856
27110WAT     H210246  -0.994   0.098   3.512 -1.3926 -1.2683  0.7766
27110WAT    EPW10247  -1.034   0.175   3.516  0.0692 -0.3803 -0.5842
27111WAT      O10248   6.190   0.317   0.185  0.0169  0.5896  0.4532
27111WAT     H110249   6.246   0.254   0.231  0.3532  1.8606  1.8622
27111WAT     H210250   6.122   0.340   0.248 -1.9025 -0.5943 -1.0955
27111WAT    EPW10251   6.189   0.312   0.200 -0.1919  0.6011  0.4347
27112WAT      O10252  -2.527   6.857   4.815 -0.4364  0.0938  0.0626
27112WAT     H110253  -2.469   6.791   4.776  1.3253  2.0236 -0.7656
27112WAT     H210254  -2.558   6.908   4.740 -0.2932  1.3211  0.8177
27112WAT    EPW10255  -2.523   6.855   4.800 -0.1850  0.5105  0.0532
27113WAT      O10256  -1.464   8.243   4.142  0.3471  0.1601  0.4921
27113WAT     H110257  -1.370   8.261   4.140  1.1306 -3.2662  0.7118
27113WAT     H210258  -1.504   8.321   4.102  3.5164  0.4362 -2.6420
27113WAT    EPW10259  -1.457   8.256   4.136  0.8684 -0.2556  0.1078
27114WAT      O10260   1.126   6.580   7.944  0.3929  0.3841 -0.7810
27114WAT     H110261   1.122   6.657   7.886 -1.2408  0.4607 -0.6069
27114WAT     H210262   1.126   6.616   8.032  2.2811  0.2432 -0.6849
27114WAT    EPW10263   1.126   6.595   7.948  0.4265  0.3755 -0.7453
27115WAT      O10264   3.487  10.163   4.119  0.3189  0.7595  0.2821
27115WAT     H110265   3.418  10.113   4.074  1.9651 -0.9813 -0.4378
27115WAT     H210266   3.485  10.130   4.209  0.2740  0.6391  0.2375
27115WAT    EPW10267   3.477  10.152   4.125  0.5301  0.5140  0.1812
27116WAT      O10268  -5.726   9.110   7.377 -0.6286 -0.0340  0.3108
27116WAT     H110269  -5.652   9.078   7.326 -0.6085  0.6319 -0.0894
27116WAT     H210270  -5.705   9.086   7.467  0.6868  1.2467  0.3817
27116WAT    EPW10271  -5.714   9.102   7.382 -0.4525  0.2227  0.2675
27117WAT      O10272   2.982   1.581   3.189 -0.4036  0.5147  0.1781
27117WAT     H110273   2.887   1.590   3.191 -0.5880 -0.9521 -0.5272
27117WAT     H210274   2.998   1.508   3.130  1.1778  0.7990  0.2039
27117WAT    EPW10275   2.971   1.573   3.182 -0.2193  0.3588  0.0886
27118WAT      O10276  -2.182   4.668   7.315  0.6454  0.1593 -0.6046
27118WAT     H110277  -2.197   4.719   7.235 -2.3727 -0.8836 -0.8254
27118WAT     H210278  -2.233   4.588   7.302  2.1905 -1.2448  1.3152
27118WAT    EPW10279  -2.190   4.664   7.303  0.4511 -0.1633 -0.3805
27119WAT      O10280   2.114   2.518   8.303 -0.3542  0.3185  0.8148
27119WAT     H110281   2.170   2.559   8.368  0.8965  1.4499 -0.9212
27119WAT     H210282   2.111   2.579   8.230 -1.3391 -1.1036 -0.4164
27119WAT    EPW10283   2.121   2.531   8.302 -0.3191  0.2801  0.4239
27120WAT      O10284   2.351   1.290   5.463 -0.1870 -0.4681 -0.0497
27120WAT     H110285   2.357   1.385   5.452 -3.3475 -0.2067 -0.3935
27120WAT     H210286   2.326   1.278   5.554 -0.2310 -0.9538 -0.1242
27120WAT    EPW10287   2.349   1.301   5.473 -0.6096 -0.4977 -0.1049
27121WAT      O10288   7.915   3.986   2.413  0.2492 -0.8649 -0.2072
27121WAT     H110289   7.908   3.914   2.351  0.9219 -2.6972  1.7033
27121WAT     H210290   7.841   3.974   2.473  0.3772  0.0259  0.1538
27121WAT    EPW10291   7.905   3.975   2.413  0.3548 -0.9891  0.0925
27122WAT      O10292  -0.904   6.160   5.593 -0.1787 -0.2580  0.1930
27122WAT     H110293  -0.955   6.091   5.636 -0.0756  0.2143  1.0881
27122WAT     H210294  -0.816   6.151   5.628 -0.1578  0.3028  0.3036
27122WAT    EPW10295  -0.899   6.150   5.603 -0.1623 -0.1216  0.3257
27123WAT      O10296   3.308   1.046   1.132 -0.3455  0.3284  0.0010
27123WAT     H110297   3.382   1.087   1.175  0.7164 -0.1298 -1.3314
27123WAT     H210298   3.249   1.118   1.110 -0.5341  0.6527  1.4223
27123WAT    EPW10299   3.310   1.061   1.135 -0.2303  0.3107  0.0128
27124WAT      O10300  -2.545   1.314   6.886  0.7136  0.1429 -0.1510
27124WAT     H110301  -2.546   1.223   6.856  1.8800 -0.0358  0.2963
27124WAT     H210302  -2.486   1.358   6.825  0.5526  0.4796 -0.0604
27124WAT    EPW10303  -2.537   1.308   6.874  0.8463  0.1637 -0.0799
27125WAT      O10304   3.913   2.790   8.665 -0.7577  0.0611  0.2566
27125WAT     H110305   3.889   2.789   8.758 -1.2713 -1.5364  0.1416
27125WAT     H210306   3.846   2.843   8.623  0.0405  1.6403  0.9140
27125WAT    EPW10307   3.901   2.797   8.672 -0.7201  0.0587  0.3281
27126WAT      O10308  -1.930   3.444   5.737 -0.1285 -0.3790  0.2755
27126WAT     H110309  -1.846   3.469   5.699  0.6840  1.1932  2.8563
27126WAT     H210310  -1.988   3.435   5.661  1.3515  2.4680 -1.3946
27126WAT    EPW10311  -1.926   3.446   5.722  0.1739  0.2038  0.3955
27127WAT      O10312   1.668   5.524   4.953 -0.4815 -0.9349 -0.2866
27127WAT     H110313   1.652   5.519   5.047 -0.4528 -1.8934 -0.3255
27127WAT     H210314   1.664   5.618   4.933 -4.0508 -0.8616  0.0595
27127WAT    EPW10315   1.665   5.536   4.963 -0.9485 -1.0514 -0.2460
27128WAT      O10316   0.940   1.875   7.567 -0.6982  0.2999  0.3519
27128WAT     H110317   1.027   1.916   7.567 -0.8844  0.7372  1.6663
27128WAT     H210318   0.946   1.806   7.633 -1.5449  0.7609  0.9217
27128WAT    EPW10319   0.953   1.871   7.576 -0.8344  0.4184  0.6003
27129WAT      O10320   3.484   5.799   2.932  0.1987 -0.4622  0.6981
27129WAT     H110321   3.395   5.833   2.938  0.6605  0.9097  0.1303
27129WAT     H210322   3.473   5.705   2.917 -1.1218 -0.5013  1.7876
27129WAT    EPW10323   3.471   5.791   2.931  0.0855 -0.2863  0.7670
27130WAT      O10324  -2.089   1.358   6.081 -0.0635  0.0965  0.6331
27130WAT     H110325  -2.002   1.346   6.042 -0.7667 -1.2164 -0.6059
27130WAT     H210326  -2.118   1.443   6.049  1.4150  1.3978  2.4634
27130WAT    EPW10327  -2.081   1.368   6.072  0.0389  0.0949  0.7112
27131WAT      O10328  -1.726   2.480   3.899 -0.4133 -0.2846 -0.2248
27131WAT     H110329  -1.731   2.575   3.891  0.1479 -0.1986  0.3806
27131WAT     H210330  -1.774   2.461   3.979  0.4351 -0.3946  0.2691
27131WAT    EPW10331  -1.733   2.490   3.909 -0.2274 -0.2879 -0.0799
27132WAT      O10332  -4.373   2.915   7.178  0.1884  0.6873 -0.2151
27132WAT     H110333  -4.368   2.868   7.261  1.8906  0.3823 -0.4625
27132WAT     H210334  -4.307   2.872   7.122 -1.8065 -0.0029 -2.1958
27132WAT    EPW10335  -4.364   2.903   7.182  0.1497  0.5560 -0.5088
27133WAT      O10336   3.128   8.404   0.021 -0.7914  0.1251  0.2492
27133WAT     H110337   3.092   8.332   0.073  1.5705 -3.6815 -2.7636
27133WAT     H210338   3.213   8.423   0.061 -1.2333  1.0007  0.7962
27133WAT    EPW10339   3.135   8.397   0.033 -0.5380 -0.2608 -0.0760
27134WAT      O10340  -4.058   4.264   6.001 -0.0977 -0.2658 -0.7021
27134WAT     H110341  -3.972   4.267   6.043 -0.2729  1.0247 -0.4123
27134WAT     H210342  -4.038   4.256   5.908  0.4149  1.9998 -0.8427
27134WAT    EPW10343  -4.044   4.263   5.995 -0.0534  0.2031 -0.6824
27135WAT      O10344   8.034   5.819   0.765  0.5275 -0.4949  0.0792
27135WAT     H110345   8.120   5.819   0.807 -0.5973  0.7746  2.6236
27135WAT     H210346   8.051   5.847   0.675  2.4805  3.5408  1.4546
27135WAT    EPW10347   8.047   5.823   0.759  0.6366  0.2048  0.5962
27136WAT      O10348   2.324   1.292   3.858 -0.3176 -0.0832 -0.2019
27136WAT     H110349   2.277   1.237   3.797 -3.2945  0.3235  1.5333
27136WAT     H210350   2.352   1.233   3.928  0.2962 -0.0521 -0.4150
27136WAT    EPW10351   2.322   1.277   3.860 -0.6293 -0.0255 -0.0012
27137WAT      O10352   1.160   3.376   4.902 -0.2932  0.5967  0.2205
27137WAT     H110353   1.173   3.405   4.811 -0.1153 -2.0870 -0.6993
27137WAT     H210354   1.104   3.299   4.894  1.2608 -0.8241  2.2018
27137WAT    EPW10355   1.154   3.370   4.889 -0.0648  0.0553  0.3605
27138WAT      O10356   6.471   5.470   3.964 -0.2190  0.2940 -0.3793
27138WAT     H110357   6.381   5.460   3.931  0.4452 -1.3596 -1.8409
27138WAT     H210358   6.512   5.530   3.901  0.2805 -0.6755 -1.0004
27138WAT    EPW10359   6.464   5.477   3.951 -0.0656 -0.0520 -0.6539
27139WAT      O10360  -3.769   7.900   8.587  0.0368  0.0496  0.1533
27139WAT     H110361  -3.863   7.914   8.595  0.0176 -0.6915  1.6947
27139WAT     H210362  -3.760   7.804   8.585  0.8056  0.0820  1.1980
27139WAT    EPW10363  -3.780   7.889   8.588  0.1357 -0.0439  0.4940
27140WAT      O10364   2.409   8.452   2.264  0.3892 -0.5133 -0.0445
27140WAT     H110365   2.339   8.514   2.243  1.6324  0.5402 -1.2761
27140WAT     H210366   2.385   8.417   2.349 -0.5587  1.3938  0.5281
27140WAT    EPW10367   2.396   8.455   2.272  0.4282 -0.1230 -0.1315
27141WAT      O10368   2.312   4.630   0.076  0.6307 -0.0354 -0.3088
27141WAT     H110369   2.352   4.715   0.055 -1.2394  1.2094  0.8533
27141WAT     H210370   2.303   4.587  -0.009  0.2618  1.5961 -1.1414
27141WAT    EPW10371   2.316   4.636   0.062  0.3353  0.3440 -0.2653
27142WAT      O10372   1.030   1.208   2.549 -0.5952  0.5038  0.6617
27142WAT     H110373   1.123   1.205   2.526 -0.5958 -2.0400  0.7116
27142WAT     H210374   1.028   1.192   2.643 -1.0626  1.7359  0.8802
27142WAT    EPW10375   1.042   1.205   2.558 -0.6569  0.3307  0.6973
27143WAT      O10376  -2.755   5.818   5.700 -0.4540  0.3150 -0.0801
27143WAT     H110377  -2.705   5.899   5.712 -0.7056  0.4812 -0.1622
27143WAT     H210378  -2.759   5.780   5.788  0.1575  0.0989 -0.1384
27143WAT    EPW10379  -2.749   5.824   5.713 -0.4065  0.3085 -0.0987
27144WAT      O10380  -1.547   5.426   5.861 -0.4727 -0.5504 -0.4679
27144WAT     H110381  -1.597   5.385   5.932 -1.5942 -0.6210 -1.2687
27144WAT     H210382  -1.613   5.447   5.795  0.4465  0.2178 -1.1633
27144WAT    EPW10383  -1.562   5.424   5.861 -0.4994 -0.4582 -0.6654
27145WAT      O10384   1.788   8.981   3.345 -0.0219  0.3071 -0.1270
27145WAT     H110385   1.876   8.996   3.381  0.7468 -0.6572 -1.5107
27145WAT     H210386   1.779   9.047   3.277  0.4491 -0.7895 -1.2997
27145WAT    EPW10387   1.799   8.992   3.341  0.1416  0.0353 -0.4642
27146WAT      O10388   0.617   2.009   0.130  0.2694  0.1918  0.0944
27146WAT     H110389   0.604   2.062   0.052  0.0967 -0.0832 -0.0679
27146WAT     H210390   0.605   1.919   0.100  0.4024  0.0703  0.3966
27146WAT    EPW10391   0.614   2.004   0.116  0.2642  0.1395  0.1129
27147WAT      O10392  -0.526   0.590   6.038 -0.1334 -0.3343 -0.2985
27147WAT     H110393  -0.552   0.517   6.095  1.8751  0.2583  1.4813
27147WAT     H210394  -0.609   0.635   6.018 -0.9909 -0.9108  1.7074
27147WAT    EPW10395  -0.541   0.586   6.043  0.0184 -0.3322  0.2005
27148WAT      O10396   6.286   9.214   2.034 -0.2261 -0.1820 -0.5979
27148WAT     H110397   6.274   9.234   1.941 -1.4283  0.7463 -0.2647
27148WAT     H210398   6.204   9.241   2.075  0.0668 -1.1252  0.6611
27148WAT    EPW10399   6.274   9.220   2.027 -0.3459 -0.1841 -0.3879
27149WAT      O10400  -4.520   9.875   1.803 -0.0763 -0.2134  0.6505
27149WAT     H110401  -4.610   9.859   1.830  0.3853 -0.4360  2.1436
27149WAT     H210402  -4.485   9.788   1.783 -0.4214 -0.0523 -0.8256
27149WAT    EPW10403  -4.527   9.861   1.804 -0.0610 -0.2213  0.6527
27150WAT      O10404   1.355  10.175   2.824 -0.0785 -0.3019  0.0135
27150WAT     H110405   1.410  10.097   2.826 -0.2237 -0.4149  2.3651
27150WAT     H210406   1.375  10.221   2.905 -0.8276  1.5472 -0.7839
27150WAT    EPW10407   1.365  10.171   2.835 -0.1965 -0.0730  0.2185
27151WAT      O10408  -5.787   3.762   7.609  0.0203 -0.2509  0.2424
27151WAT     H110409  -5.773   3.856   7.600 -0.0087 -0.0569  1.8527
27151WAT     H210410  -5.821   3.734   7.524 -0.1875  1.2341 -0.1851
27151WAT    EPW10411  -5.790   3.770   7.597 -0.0110 -0.0294  0.3984
27152WAT      O10412   3.922   2.153   6.824 -0.0672  0.5185  0.1632
27152WAT     H110413   3.855   2.116   6.882  1.1258 -0.7956  0.7651
27152WAT     H210414   3.950   2.079   6.770  2.9831  0.1706  1.9527
27152WAT    EPW10415   3.917   2.138   6.825  0.4923  0.2993  0.4785
27153WAT      O10416   0.835   2.901   8.525 -0.0143  0.4489 -0.4537
27153WAT     H110417   0.865   2.826   8.578  1.2472  1.8206  0.8745
27153WAT     H210418   0.786   2.861   8.453 -2.2482 -1.5434  1.9531
27153WAT    EPW10419   0.833   2.886   8.523 -0.1426  0.3670  0.0391
27154WAT      O10420   1.145   1.085   1.509  0.0702 -0.0432  0.1459
27154WAT     H110421   1.096   1.049   1.582  0.3346  0.5106  0.6005
27154WAT     H210422   1.101   1.050   1.431 -1.8351  1.4288  0.5016
27154WAT    EPW10423   1.133   1.076   1.508 -0.1463  0.2239  0.2528
27155WAT      O10424   5.648   3.800   2.969  0.0990  0.5249  0.1835
27155WAT     H110425   5.614   3.807   3.058 -0.5275 -0.5918  0.0504
27155WAT     H210426   5.742   3.812   2.979 -0.0445  1.1590  0.8955
27155WAT    EPW10427   5.656   3.803   2.982 -0.0026  0.4612  0.2599
27156WAT      O10428   1.247   1.269   1.341 -1.0899 -0.4545 -0.5903
27156WAT     H110429   1.305   1.226   1.277 -2.8701 -0.6073 -2.1867
27156WAT     H210430   1.239   1.205   1.412  1.3085 -0.0940  0.1115
27156WAT    EPW10431   1.254   1.255   1.342 -1.0083 -0.4271 -0.7083
27157WAT      O10432   5.957   1.367   5.293  0.2015  0.5691  0.1120
27157WAT     H110433   5.943   1.350   5.386 -0.5410 -0.7769 -0.2259
27157WAT     H210434   5.929   1.458   5.282 -1.4021  0.2031  0.8816
27157WAT    EPW10435   5.951   1.377   5.304 -0.1080  0.3433  0.1688
27158WAT      O10436   5.878   4.605   4.424  0.1228 -0.4605  0.1928
27158WAT     H110437   5.905   4.642   4.508 -0.5047 -1.7529  0.9856
27158WAT     H210438   5.795   4.561   4.442  0.3735 -1.4465 -0.9246
27158WAT    EPW10439   5.871   4.604   4.438  0.0732 -0.7610  0.1500
27159WAT      O10440   0.864   9.637   3.710 -0.2208 -0.2306  0.0441
27159WAT     H110441   0.913   9.714   3.681 -0.7880 -0.4736 -1.6834
27159WAT     H210442   0.913   9.563   3.674 -1.3386 -0.5111 -0.9865
27159WAT    EPW10443   0.877   9.637   3.701 -0.4430 -0.2995 -0.3197
27160WAT      O10444   1.716   9.827   0.523 -0.4612  0.4378 -0.3282
27160WAT     H110445   1.634   9.869   0.550 -0.1652  0.3659  0.7270
27160WAT     H210446   1.764   9.815   0.604 -0.0552 -0.9153 -0.7461
27160WAT    EPW10447   1.711   9.831   0.537 -0.3686  0.2499 -0.2442
27161WAT      O10448   0.853   8.867   4.620 -0.5296  0.0879  0.5334
27161WAT     H110449   0.773   8.830   4.656 -1.2921  1.8312  0.7522
27161WAT     H210450   0.871   8.816   4.541 -3.6094  1.4930 -1.2670
27161WAT    EPW10451   0.845   8.856   4.614 -1.0364  0.5035  0.3247
27162WAT      O10452   6.920   1.061   0.062 -0.2282  0.5273 -0.1714
27162WAT     H110453   6.909   1.092   0.151 -1.9811 -1.4122  0.3796
27162WAT     H210454   6.984   0.991   0.069  0.5223  1.1570 -0.6564
27162WAT    EPW10455   6.927   1.056   0.074 -0.3605  0.3546 -0.1627
27163WAT      O10456   3.322   3.370   8.339  0.0206  0.4423  0.7903
27163WAT     H110457   3.325   3.345   8.431  0.7168  0.8538  0.8826
27163WAT     H210458   3.412   3.395   8.317 -0.1309  0.3250 -0.0066
27163WAT    EPW10459   3.334   3.370   8.348  0.0925  0.4811  0.6976
27164WAT      O10460  -1.188   7.168   6.368 -0.4157  0.3621 -0.4954
27164WAT     H110461  -1.099   7.167   6.403 -0.1193  0.2100 -1.2271
27164WAT     H210462  -1.177   7.147   6.275 -1.4763 -2.9454 -0.0094
27164WAT    EPW10463  -1.175   7.165   6.360 -0.5165 -0.0942 -0.5279
27165WAT      O10464   9.524   2.070   0.383 -0.3206  0.1288 -0.6984
27165WAT     H110465   9.607   2.104   0.347 -1.8122  2.3463 -2.2941
27165WAT     H210466   9.514   1.984   0.342  1.1866 -0.1894 -0.4666
27165WAT    EPW10467   9.534   2.063   0.372 -0.3190  0.3793 -0.8782
27166WAT      O10468  -6.581   9.188   8.807 -0.7602  0.5446  0.2505
27166WAT     H110469  -6.541   9.248   8.744 -0.6020 -0.3730 -0.5404
27166WAT     H210470  -6.510   9.165   8.867  0.0948 -1.4203 -1.4036
27166WAT    EPW10471  -6.567   9.193   8.807 -0.6266  0.1645 -0.0720
27167WAT      O10472  -3.355   5.727   3.288  0.1990  0.2048 -0.6034
27167WAT     H110473  -3.262   5.745   3.306  0.0171  1.0577 -0.4753
27167WAT     H210474  -3.388   5.691   3.370  0.4767 -0.3465 -0.7310
27167WAT    EPW10475  -3.347   5.725   3.301  0.2116  0.2446 -0.6033
27168WAT      O10476  -1.936   3.014   7.973  0.7110  0.3170 -0.2090
27168WAT     H110477  -1.965   3.098   7.938 -1.6529 -0.8704 -1.3044
27168WAT     H210478  -1.865   2.987   7.914  0.7496  1.0398 -0.5000
27168WAT    EPW10479  -1.930   3.022   7.961  0.4042  0.2557 -0.3920
27169WAT      O10480   1.892   8.196   7.997  0.5275  0.2732 -0.0442
27169WAT     H110481   1.964   8.170   8.055  1.5877  0.3599 -1.2611
27169WAT     H210482   1.825   8.230   8.056  1.8717  1.1028  1.0790
27169WAT    EPW10483   1.893   8.197   8.013  0.8447  0.3939 -0.0563
27170WAT      O10484  -0.721   5.437   5.859  0.3918  0.1460  0.2138
27170WAT     H110485  -0.701   5.502   5.926 -0.7079  0.6477  0.0815
27170WAT     H210486  -0.761   5.364   5.907 -0.8089  0.6906  0.0861
27170WAT    EPW10487  -0.724   5.436   5.874  0.0885  0.2840  0.1793
27171WAT      O10488   7.317   6.514   0.609  0.0515  0.2446 -0.0700
27171WAT     H110489   7.372   6.562   0.671 -0.6008 -0.4450  1.0883
27171WAT     H210490   7.290   6.579   0.545 -0.8704  1.4805  1.5014
27171WAT    EPW10491   7.321   6.529   0.609 -0.1562  0.3166  0.2900
27172WAT      O10492  -0.122   9.839   0.324 -0.3262  0.1573  0.6174
27172WAT     H110493  -0.113   9.782   0.401  0.2583  1.1586  1.3122
27172WAT     H210494  -0.106   9.781   0.249 -1.0256 -0.8620  1.2257
27172WAT    EPW10495  -0.119   9.824   0.324 -0.3414  0.1550  0.7893
27173WAT      O10496  -4.156   9.768   2.448 -0.4922 -0.1591 -0.7306
27173WAT     H110497  -4.211   9.830   2.496 -1.7794 -1.2266 -0.7653
27173WAT     H210498  -4.128   9.816   2.370  1.7123  1.6513  1.0241
27173WAT    EPW10499  -4.159   9.782   2.444 -0.3710 -0.0615 -0.5038
27174WAT      O10500  -1.261   8.709   3.225 -0.0339 -0.3536 -0.4992
27174WAT     H110501  -1.274   8.655   3.303 -0.1365  2.3738  1.5394
27174WAT     H210502  -1.167   8.727   3.224 -0.1381  0.2051 -0.5705
27174WAT    EPW10503  -1.251   8.705   3.235 -0.0612  0.0796 -0.2396
27175WAT      O10504   4.054   2.601   7.383 -0.1173  0.2727 -0.1529
27175WAT     H110505   4.044   2.678   7.439  1.4820  1.3769 -1.2480
27175WAT     H210506   4.050   2.637   7.294 -3.6992 -1.5491 -0.8986
27175WAT    EPW10507   4.052   2.616   7.378 -0.3788  0.1781 -0.3955
27176WAT      O10508   5.509   4.178   2.961 -0.2103 -0.0855 -0.1422
27176WAT     H110509   5.519   4.138   2.875  0.3171  0.2218 -0.2240
27176WAT     H210510   5.415   4.191   2.970 -0.1685  1.1257 -1.2353
27176WAT    EPW10511   5.498   4.174   2.951 -0.1352  0.1147 -0.2972
27177WAT      O10512   0.536   0.148   3.360  0.0692  0.3142  0.0689
27177WAT     H110513   0.497   0.072   3.403 -1.0654  0.5133 -0.5729
27177WAT     H210514   0.629   0.127   3.354  0.4197  0.5431  3.1397
27177WAT    EPW10515   0.543   0.135   3.365 -0.0342  0.3707  0.3892
27178WAT      O10516   0.494   7.851   0.049 -0.6581  0.1765  0.0277
27178WAT     H110517   0.577   7.899   0.038  0.8503 -2.0040  1.0530
27178WAT     H210518   0.462   7.879   0.135 -0.3279  0.1503  0.1629
27178WAT    EPW10519   0.501   7.861   0.059 -0.4156 -0.1147  0.1808
27179WAT      O10520  -3.950   9.314   2.796  0.6229  0.3147 -0.0435
27179WAT     H110521  -3.997   9.384   2.750 -0.8448 -1.8236 -1.9908
27179WAT     H210522  -3.991   9.311   2.882 -1.0043  0.2829 -0.7842
27179WAT    EPW10523  -3.961   9.323   2.801  0.2146  0.0286 -0.3980
27180WAT      O10524  -1.717   7.080   4.047  0.3178 -0.1838  0.5878
27180WAT     H110525  -1.788   7.135   4.082  0.6008  0.8163 -0.3507
27180WAT     H210526  -1.653   7.143   4.013  2.1240 -1.0139  2.2156
27180WAT    EPW10527  -1.718   7.096   4.047  0.5934 -0.1612  0.6785
27181WAT      O10528   0.599   1.467   7.897  0.3043 -0.9793  0.4325
27181WAT     H110529   0.685   1.453   7.857 -0.1968 -1.6368 -0.4600
27181WAT     H210530   0.579   1.384   7.941  0.7316 -0.3528  1.8608
27181WAT    EPW10531   0.608   1.454   7.898  0.2946 -0.9834  0.5031
27182WAT      O10532  -2.339   9.912   4.003  0.0934 -0.6784  0.6857
27182WAT     H110533  -2.430   9.899   4.031 -0.0265 -2.4910 -0.3721
27182WAT     H210534  -2.345   9.965   3.924  0.1463  1.0430  1.7952
27182WAT    EPW10535  -2.352   9.917   3.997  0.0846 -0.6900  0.6925
27183WAT      O10536   0.425   6.132   1.507 -0.2875  0.4834 -0.2800
27183WAT     H110537   0.334   6.135   1.538 -0.7713  0.5357 -1.6307
27183WAT     H210538   0.473   6.186   1.569 -1.1179  0.1826  0.6515
27183WAT    EPW10539   0.419   6.139   1.519 -0.4608  0.4508 -0.3353
27184WAT      O10540  -0.393   8.037   0.597 -0.4289 -0.1633  0.1995
27184WAT     H110541  -0.439   8.116   0.627  1.3673  1.0133  0.0009
27184WAT     H210542  -0.428   7.967   0.652  0.0415  1.2758  2.5049
27184WAT    EPW10543  -0.404   8.038   0.608 -0.1299  0.1822  0.4774
27185WAT      O10544  -1.450   8.911   3.646  0.2476  0.1619 -0.1632
27185WAT     H110545  -1.387   8.855   3.690 -0.4532 -0.2318  0.3590
27185WAT     H210546  -1.417   8.920   3.557  0.5660 -0.7563 -0.1392
27185WAT    EPW10547  -1.437   8.905   3.640  0.1972 -0.0110 -0.0912
27186WAT      O10548  -3.228   0.569   7.239 -0.2715  0.1928  0.4884
27186WAT     H110549  -3.294   0.637   7.228 -0.9751 -0.7844 -2.1561
27186WAT     H210550  -3.193   0.556   7.151  2.5123 -0.2856  1.5809
27186WAT    EPW10551  -3.232   0.576   7.226  0.0027  0.0008  0.2837
27187WAT      O10552   0.082   6.996   2.405 -0.2935  0.8749  0.0636
27187WAT     H110553   0.123   6.983   2.320 -0.2838  1.6420 -0.0564
27187WAT     H210554   0.155   7.008   2.465 -0.3136  0.8956  0.0840
27187WAT    EPW10555   0.097   6.996   2.402 -0.2949  0.9789  0.0505
27188WAT      O10556  -1.636   7.906   8.869  0.0493 -0.2974  0.0754
27188WAT     H110557  -1.698   7.923   8.939 -0.4575  0.3757 -0.5113
27188WAT     H210558  -1.590   7.989   8.857  1.3808 -0.9050  0.7879
27188WAT    EPW10559  -1.638   7.919   8.876  0.1581 -0.2887  0.0920
27189WAT      O10560   6.128   0.321   3.097  0.4408  0.2498  0.1385
27189WAT     H110561   6.035   0.297   3.090  1.0382 -1.7499 -1.7428
27189WAT     H210562   6.143   0.328   3.191 -0.5989 -3.9233  0.8148
27189WAT    EPW10563   6.118   0.319   3.109  0.3824 -0.5643 -0.0205
27190WAT      O10564   3.045   4.722   5.768  0.4356 -0.4081  0.9889
27190WAT     H110565   2.990   4.781   5.818  0.8317 -0.2917  1.2975
27190WAT     H210566   3.093   4.672   5.834 -0.3467 -1.5117  0.7403
27190WAT    EPW10567   3.044   4.723   5.783  0.3847 -0.5386  0.9968
27191WAT      O10568   7.795   3.942   0.583 -0.7142  0.2095  0.6710
27191WAT     H110569   7.776   3.944   0.677  2.1850  0.2233  1.3247
27191WAT     H210570   7.858   3.871   0.572 -0.6094  0.5273 -1.2018
27191WAT    EPW10571   7.800   3.933   0.594 -0.3181  0.2532  0.5102
27192WAT      O10572  -2.422   7.850   3.479  1.1730 -0.3730  0.0348
27192WAT     H110573  -2.479   7.850   3.402 -0.5492 -1.7926  1.2036
27192WAT     H210574  -2.335   7.868   3.445  0.0899  1.7992 -1.8847
27192WAT    EPW10575  -2.418   7.852   3.465  0.8030 -0.2737 -0.0643
27193WAT      O10576   4.078   6.629   7.317 -0.3923  0.3680 -1.0647
27193WAT     H110577   4.114   6.702   7.268  0.0901  0.1567 -1.0394
27193WAT     H210578   4.110   6.551   7.271  1.7502  0.1152  0.6599
27193WAT    EPW10579   4.087   6.628   7.305 -0.0460  0.3066 -0.8337
27194WAT      O10580  -2.182   0.908   8.646  0.2488  0.3583  0.1609
27194WAT     H110581  -2.164   0.993   8.687  2.8381  0.4142 -0.8669
27194WAT     H210582  -2.269   0.918   8.607 -0.2522  1.9024  1.5538
27194WAT    EPW10583  -2.191   0.921   8.646  0.5243  0.5693  0.2093
27195WAT      O10584   7.134   5.524   0.060 -0.1358  0.2903  0.0150
27195WAT     H110585   7.198   5.580   0.106  1.7356 -0.5517 -1.4381
27195WAT     H210586   7.082   5.486   0.131 -1.5689  3.8251  1.0836
27195WAT    EPW10587   7.136   5.527   0.076 -0.0782  0.6454 -0.0357
27196WAT      O10588   4.173   3.709   2.707 -0.4696  0.0276 -0.2284
27196WAT     H110589   4.133   3.709   2.794  0.8940 -1.9722  0.4654
27196WAT     H210590   4.106   3.746   2.650 -1.2001  1.9474  1.7250
27196WAT    EPW10591   4.159   3.714   2.711 -0.3862  0.0172  0.1208
27197WAT      O10592   4.230   9.901   1.170 -0.1400 -0.4959 -0.1328
27197WAT     H110593   4.282   9.891   1.090  0.0496 -1.4234  0.0925
27197WAT     H210594   4.152   9.950   1.142  0.7001  0.6502 -0.5327
27197WAT    EPW10595   4.227   9.906   1.155 -0.0041 -0.4673 -0.1557
27198WAT      O10596  -2.306   5.591   4.922  0.2931  0.5785  0.0935
27198WAT     H110597  -2.391   5.629   4.943  0.0495 -0.3867  0.9185
27198WAT     H210598  -2.276   5.641   4.846 -0.7594  1.2897  0.1219
27198WAT    EPW10599  -2.313   5.603   4.914  0.1222  0.5450  0.2060
27199WAT      O10600  -0.428   1.366   5.711  0.0579 -0.0160  0.4039
27199WAT     H110601  -0.478   1.397   5.636  0.7915 -1.8199 -0.9091
27199WAT     H210602  -0.384   1.445   5.745 -0.8554  0.9546 -0.5945
27199WAT    EPW10603  -0.429   1.381   5.706  0.0342 -0.1259  0.0989
27200WAT      O10604  -2.582   8.648   1.114 -0.7243 -0.0614 -0.3436
27200WAT     H110605  -2.508   8.623   1.169 -0.9362 -0.9389 -0.4453
27200WAT     H210606  -2.651   8.585   1.135 -1.3184  0.5077 -0.5291
27200WAT    EPW10607  -2.582   8.636   1.124 -0.8307 -0.1020 -0.3815
27201WAT      O10608   6.738   6.930   1.089  0.3939 -0.0651 -0.2418
27201WAT     H110609   6.794   6.951   1.015 -0.8797  0.4687 -1.0905
27201WAT     H210610   6.725   6.835   1.084  1.5935 -0.2691  0.2589
27201WAT    EPW10611   6.743   6.920   1.079  0.3843 -0.0215 -0.2877
27202WAT      O10612   9.039   3.274   0.238  0.3846  0.4065  0.1215
27202WAT     H110613   9.103   3.329   0.284  0.9976 -0.6735  0.5896
27202WAT     H210614   8.957   3.289   0.285  0.9209 -0.3908  1.3519
27202WAT    EPW10615   9.036   3.283   0.250  0.5360  0.1589  0.3456
27203WAT      O10616  -1.680   1.799   4.737 -0.4350 -0.3548 -0.0456
27203WAT     H110617  -1.706   1.767   4.824 -0.7805  1.0780  0.4165
27203WAT     H210618  -1.606   1.857   4.754  0.2827 -1.0222 -0.8658
27203WAT    EPW10619  -1.674   1.803   4.751 -0.3859 -0.2539 -0.0930
27204WAT      O10620  -6.608   8.492   7.814 -0.9171 -0.4122  0.2985
27204WAT     H110621  -6.573   8.412   7.775 -1.1085  0.1140 -0.9827
27204WAT     H210622  -6.530   8.537   7.848 -0.5756 -0.2481 -0.6721
27204WAT    EPW10623  -6.593   8.487   7.813 -0.8974 -0.3209  0.0014
27205WAT      O10624   2.495   5.248   7.962 -0.0926 -0.1921  0.1401
27205WAT     H110625   2.562   5.186   7.990  0.5045  0.4995  0.2757
27205WAT     H210626   2.460   5.284   8.043  0.4761  0.5925  0.0490
27205WAT    EPW10627   2.499   5.245   7.976  0.0612  0.0026  0.1462
27206WAT      O10628   4.130   3.199   7.041 -0.1753 -0.2952  0.0875
27206WAT     H110629   4.163   3.122   7.088 -1.7306 -1.0363  0.0407
27206WAT     H210630   4.036   3.183   7.033 -0.2092  0.5828 -1.8542
27206WAT    EPW10631   4.122   3.187   7.046 -0.3850 -0.2772 -0.1748
27207WAT      O10632  -0.394   6.008   1.150  0.7008 -0.1846 -0.0475
27207WAT     H110633  -0.488   5.995   1.164  0.4608  2.4791  1.2750
27207WAT     H210634  -0.374   5.951   1.075 -2.0732 -0.3409 -0.7995
27207WAT    EPW10635  -0.404   5.999   1.142  0.3033  0.1462  0.0278
27208WAT      O10636   3.740  10.304   2.138  0.3138 -0.3030 -0.2276
27208WAT     H110637   3.740  10.382   2.082 -0.8121 -0.7498 -0.8810
27208WAT     H210638   3.661  10.312   2.191  0.2280 -0.9554 -0.2434
27208WAT    EPW10639   3.730  10.315   2.137  0.1540 -0.4482 -0.3159
27209WAT      O10640   2.548   6.609   6.830 -0.3524  0.1236 -0.0385
27209WAT     H110641   2.592   6.660   6.762 -0.3549  0.1522 -0.0186
27209WAT     H210642   2.459   6.645   6.833 -0.4876 -0.1761 -0.3350
27209WAT    EPW10643   2.542   6.621   6.821 -0.3706  0.0877 -0.0751
27210WAT      O10644   1.687   4.480   3.412 -0.2673 -0.2470  0.0778
27210WAT     H110645   1.629   4.511   3.482 -1.5181 -1.4624 -0.3943
27210WAT     H210646   1.674   4.386   3.410  1.8286 -0.5795  0.0078
27210WAT    EPW10647   1.678   4.472   3.421 -0.1559 -0.4511  0.0063
27211WAT      O10648   2.130   7.090   2.619  0.6820  0.0557 -0.5950
27211WAT     H110649   2.150   7.019   2.680 -0.0238  0.8306  0.5573
27211WAT     H210650   2.184   7.071   2.542  1.4187 -1.0523  0.1741
27211WAT    EPW10651   2.140   7.078   2.617  0.6860  0.0119 -0.3415
27212WAT      O10652   4.050   3.065   1.312 -0.4149  0.5359  0.0506
27212WAT     H110653   4.090   2.984   1.280  2.0136  1.1524  1.3111
27212WAT     H210654   3.964   3.038   1.343  0.4706 -1.6627  0.7983
27212WAT    EPW10655   4.044   3.050   1.312  0.0222  0.3273  0.3155
27213WAT      O10656   2.612   3.303   0.637 -0.5010  0.6827 -0.0954
27213WAT     H110657   2.635   3.391   0.607  1.8289  0.5955  1.1732
27213WAT     H210658   2.522   3.311   0.667 -1.0264  2.1007 -1.9028
27213WAT    EPW10659   2.604   3.315   0.637 -0.2630  0.8581 -0.1664
27214WAT      O10660  -2.521   7.411   1.282  0.3935 -0.5425  0.2012
27214WAT     H110661  -2.543   7.327   1.242 -0.0340  1.2370 -3.7093
27214WAT     H210662  -2.588   7.471   1.251  2.9683  2.1123 -0.7052
27214WAT    EPW10663  -2.533   7.408   1.273  0.6766  0.0424 -0.4341
27215WAT      O10664   6.097   4.943   4.257  0.5128  0.4389 -0.9294
27215WAT     H110665   6.133   5.027   4.231 -2.1038  1.9571 -0.0404
27215WAT     H210666   6.100   4.943   4.353  2.1395 -1.3285 -0.9193
27215WAT    EPW10667   6.102   4.954   4.266  0.3824  0.4060 -0.8109
27216WAT      O10668  -0.617   0.716   2.692  0.0281  0.2156 -0.0803
27216WAT     H110669  -0.675   0.683   2.624  2.1450 -0.9388 -1.4221
27216WAT     H210670  -0.656   0.800   2.718 -2.2291 -0.5363 -0.8417
27216WAT    EPW10671  -0.630   0.723   2.686  0.0096 -0.0358 -0.3577
27217WAT      O10672   4.882   3.984   6.976  0.7781  0.1041 -0.0216
27217WAT     H110673   4.839   4.019   7.055  0.4061  2.6756 -1.2685
27217WAT     H210674   4.871   3.889   6.984  1.3507  0.1785  3.3378
27217WAT    EPW10675   4.875   3.976   6.988  0.8047  0.4530  0.2570
27218WAT      O10676   4.691   9.798   1.598  0.0645 -0.8382 -0.3891
27218WAT     H110677   4.635   9.742   1.544 -2.4432 -0.5975  1.7985
27218WAT     H210678   4.680   9.885   1.562  2.3955 -1.3222 -2.5339
27218WAT    EPW10679   4.682   9.802   1.586  0.0412 -0.8707 -0.3835
27219WAT      O10680   0.843   6.725   2.361  0.8065 -0.6668 -0.4093
27219WAT     H110681   0.795   6.665   2.305 -0.8332  1.2376 -1.1695
27219WAT     H210682   0.861   6.674   2.440  0.9980 -2.6466 -1.6568
27219WAT    EPW10683   0.839   6.710   2.364  0.6155 -0.6769 -0.6741
27220WAT      O10684   2.572   6.259   7.822 -0.6482  0.5446  0.5585
27220WAT     H110685   2.568   6.329   7.757 -0.2790  1.1051  1.1265
27220WAT     H210686   2.603   6.183   7.774 -1.3982  0.6681 -0.1446
27220WAT    EPW10687   2.575   6.259   7.807 -0.6983  0.6347  0.5407
27221WAT      O10688   2.415   1.684   7.395  0.2169  0.2136  0.1963
27221WAT     H110689   2.327   1.706   7.364  0.0845 -0.6125 -0.0436
27221WAT     H210690   2.457   1.642   7.320  0.4041 -0.4639  0.6716
27221WAT    EPW10691   2.409   1.682   7.381  0.2241  0.0153  0.2272
27222WAT      O10692   3.137  10.141   1.841  0.2858  0.0344 -0.5209
27222WAT     H110693   3.178  10.082   1.778  2.2429  0.7467  0.0107
27222WAT     H210694   3.207  10.164   1.902 -0.3514  2.8631 -0.6787
27222WAT    EPW10695   3.152  10.136   1.841  0.4599  0.5012 -0.4716
27223WAT      O10696   8.068   0.682   3.719  0.1695 -0.1113  0.3434
27223WAT     H110697   8.009   0.637   3.780  0.1321 -1.3582 -0.5722
27223WAT     H210698   8.128   0.731   3.775 -1.5669  1.0016  1.3140
27223WAT    EPW10699   8.068   0.682   3.734 -0.0648 -0.1290  0.3506
27224WAT      O10700   3.651   5.749   0.636  0.5626 -0.7962 -0.6943
27224WAT     H110701   3.619   5.764   0.724 -0.7803  0.4539 -1.3554
27224WAT     H210702   3.689   5.661   0.639  0.9507 -0.6053  1.2181
27224WAT    EPW10703   3.652   5.739   0.648  0.4367 -0.6061 -0.5293
27225WAT      O10704   3.272   3.431   2.107 -0.4884 -0.3279  0.4629
27225WAT     H110705   3.349   3.380   2.082 -0.8573 -0.8864  0.4499
27225WAT     H210706   3.240   3.470   2.025  0.6558  1.1572  0.6867
27225WAT    EPW10707   3.278   3.430   2.093 -0.3861 -0.2056  0.4907
27226WAT      O10708  -3.986   6.949   6.284 -0.0422  0.5892  0.3363
27226WAT     H110709  -4.044   7.006   6.232  0.7026 -0.0842 -1.2804
27226WAT     H210710  -4.036   6.869   6.296  0.9378 -0.4881 -2.1571
27226WAT    EPW10711  -4.000   6.946   6.279  0.1853  0.3581 -0.2058
27227WAT      O10712   2.019   9.262   4.591 -0.6753  0.0591 -0.0395
27227WAT     H110713   2.025   9.253   4.686 -3.5265  1.7208  0.3980
27227WAT     H210714   1.972   9.344   4.577 -2.6924 -1.3732 -2.8073
27227WAT    EPW10715   2.014   9.272   4.601 -1.3174  0.0892 -0.3469
27228WAT      O10716   4.502   4.795   4.811 -0.4417  0.7469 -0.2358
27228WAT     H110717   4.530   4.880   4.775 -0.7843  0.1442 -2.0021
27228WAT     H210718   4.434   4.764   4.751 -0.5634 -0.6341  0.5705
27228WAT    EPW10719   4.497   4.802   4.798 -0.5028  0.4852 -0.3624
27229WAT      O10720   1.713   3.837   5.558  0.1724  0.5903  0.2928
27229WAT     H110721   1.660   3.769   5.517  0.9824  2.0592 -3.6174
27229WAT     H210722   1.801   3.799   5.561  0.0800  0.4182  0.8888
27229WAT    EPW10723   1.718   3.823   5.553  0.2670  0.7614 -0.1442
27230WAT      O10724  -5.007   3.263   7.071  0.0561 -0.4545 -0.0308
27230WAT     H110725  -4.962   3.344   7.049  1.9302 -1.1398  1.0849
27230WAT     H210726  -5.005   3.259   7.167  1.5563 -2.5963 -0.0883
27230WAT    EPW10727  -5.001   3.273   7.081  0.5009 -0.8274  0.1090
27231WAT      O10728   7.208   0.570   2.803 -0.8305 -0.7827 -0.5391
27231WAT     H110729   7.114   0.586   2.810 -0.6659 -0.0889  0.2779
27231WAT     H210730   7.249   0.653   2.828  0.0100 -1.3312 -0.0196
27231WAT    EPW10731   7.201   0.583   2.808 -0.6981 -0.7636 -0.3629
27232WAT      O10732  -2.209   0.135   5.847  0.1178  0.3362 -0.2013
27232WAT     H110733  -2.162   0.053   5.830 -0.0354  0.4418 -1.2162
27232WAT     H210734  -2.171   0.197   5.784 -0.7043  0.6828 -0.3632
27232WAT    EPW10735  -2.198   0.132   5.836 -0.0108  0.3958 -0.3567
27233WAT      O10736   0.197   8.116   8.325  0.2593 -0.2973  0.0509
27233WAT     H110737   0.260   8.051   8.357  2.3403  1.0743 -0.9907
27233WAT     H210738   0.161   8.076   8.245  1.4158 -0.2719 -0.5074
27233WAT    EPW10739   0.201   8.102   8.319  0.6863 -0.1130 -0.1602
27234WAT      O10740  -4.863  10.136   4.624  0.5046  0.5542  0.3244
27234WAT     H110741  -4.875  10.052   4.579  1.0428  2.4920 -3.8971
27234WAT     H210742  -4.951  10.163   4.648 -0.0119  0.0173 -0.8789
27234WAT    EPW10743  -4.876  10.128   4.621  0.5076  0.7391 -0.3910
27235WAT      O10744  -6.138  10.199   6.391  0.5117  0.3321  0.0624
27235WAT     H110745  -6.088  10.193   6.473  2.1377  1.1434 -0.8171
27235WAT     H210746  -6.155  10.108   6.366 -0.1718  0.0751  1.3741
27235WAT    EPW10747  -6.134  10.186   6.399  0.6359  0.4053  0.1194
27236WAT      O10748  -5.143   6.344   4.874 -0.0187 -0.2246  0.1824
27236WAT     H110749  -5.056   6.354   4.912  0.2409  2.5743 -0.8609
27236WAT     H210750  -5.201   6.328   4.949  1.0882  0.4267  1.2031
27236WAT    EPW10751  -5.139   6.343   4.889  0.1614  0.2306  0.1793
27237WAT      O10752  -0.299   0.700   4.702 -0.4087  0.3983  0.3565
27237WAT     H110753  -0.317   0.630   4.765  0.7148  0.3945  0.6982
27237WAT     H210754  -0.340   0.777   4.740 -1.7718 -0.0836 -0.0848
27237WAT    EPW10755  -0.307   0.701   4.716 -0.4403  0.3342  0.3436
27238WAT      O10756   2.533   0.089   7.548 -0.6123 -0.7782  0.2613
27238WAT     H110757   2.611   0.116   7.596 -1.0666  1.8403 -0.3249
27238WAT     H210758   2.567   0.053   7.466  0.0087 -1.1447  0.6693
27238WAT    EPW10759   2.548   0.088   7.544 -0.5904 -0.4812  0.2379
27239WAT      O10760   0.360   3.553   4.260  0.4039 -0.4615 -0.1616
27239WAT     H110761   0.441   3.600   4.277  1.2841 -1.6872 -0.8592
27239WAT     H210762   0.308   3.614   4.208  0.6158  0.5507  0.7755
27239WAT    EPW10763   0.363   3.567   4.255  0.5479 -0.4896 -0.1302
27240WAT      O10764  -2.590   2.428   3.236  0.4621 -0.2183 -0.3521
27240WAT     H110765  -2.614   2.496   3.172  0.4357  0.5745  0.4777
27240WAT     H210766  -2.636   2.350   3.206 -2.2930  0.9592  0.5246
27240WAT    EPW10767  -2.599   2.427   3.224  0.0952  0.0416 -0.1270
27241WAT      O10768   1.848   7.400   0.235  0.1032  0.0379  0.1495
27241WAT     H110769   1.771   7.344   0.226 -0.6880  1.0357  0.5396
27241WAT     H210770   1.906   7.351   0.294  0.0666 -1.0028 -0.6445
27241WAT    EPW10771   1.846   7.386   0.242 -0.0060  0.0324  0.0962
27242WAT      O10772   3.758  10.346   4.968 -0.3957  0.3417 -0.5906
27242WAT     H110773   3.790  10.319   5.054 -0.1672 -1.8057 -1.2963
27242WAT     H210774   3.668  10.375   4.983  0.6412  3.2145  0.8596
27242WAT    EPW10775   3.751  10.346   4.981 -0.2288  0.4373 -0.4926
27243WAT      O10776  -2.347   2.019   7.288 -0.6331 -0.2485 -0.6876
27243WAT     H110777  -2.325   2.112   7.279  3.8947 -0.4987  3.8553
27243WAT     H210778  -2.398   2.014   7.369 -1.8268 -1.7026 -1.4754
27243WAT    EPW10779  -2.351   2.031   7.297 -0.1934 -0.4734 -0.1924
27244WAT      O10780   4.314  10.149   2.511  0.3415 -0.6442  0.3757
27244WAT     H110781   4.247  10.181   2.450  0.4576 -1.5951 -0.2722
27244WAT     H210782   4.351  10.228   2.549 -1.1568 -0.0951  0.7632
27244WAT    EPW10783   4.310  10.164   2.508  0.1590 -0.6971  0.3413
27245WAT      O10784   6.233   0.871   4.022  0.0504  0.1525 -0.1147
27245WAT     H110785   6.198   0.817   3.951  0.7820 -0.9168  0.3125
27245WAT     H210786   6.163   0.874   4.087 -0.2908  0.3980 -0.4900
27245WAT    EPW10787   6.219   0.865   4.021  0.1020  0.0438 -0.1078
27246WAT      O10788  -3.137   6.072   4.436 -0.5341  0.2609 -0.2537
27246WAT     H110789  -3.092   6.140   4.386 -0.4381  2.0267  2.0804
27246WAT     H210790  -3.095   5.990   4.409 -0.4957  1.0806 -2.9835
27246WAT    EPW10791  -3.126   6.070   4.426 -0.5163  0.6020 -0.3059
27247WAT      O10792   6.236   3.905   2.255 -0.4258  0.4055 -0.0650
27247WAT     H110793   6.150   3.881   2.289 -1.2901  1.9998 -0.9893
27247WAT     H210794   6.220   3.982   2.200  2.0605  3.1761  2.6527
27247WAT    EPW10795   6.223   3.912   2.252 -0.2120  0.9811  0.1715
27248WAT      O10796   3.556   2.850   2.042  0.1006  0.0434  0.0843
27248WAT     H110797   3.472   2.819   2.077 -0.1966  1.9472  1.2190
27248WAT     H210798   3.621   2.791   2.081 -0.5122  0.2124  1.4407
27248WAT    EPW10799   3.554   2.838   2.052 -0.0194  0.3167  0.4128
27249WAT      O10800   8.559   3.764   0.860  0.1450  0.7608 -0.4823
27249WAT     H110801   8.652   3.742   0.864 -0.2638 -0.9761  0.1852
27249WAT     H210802   8.556   3.847   0.811  1.9406  0.3719 -1.3245
27249WAT    EPW10803   8.571   3.772   0.854  0.3276  0.4803 -0.5053
27250WAT      O10804  -0.006   5.510   2.555  0.1540 -0.1886 -0.0263
27250WAT     H110805   0.053   5.514   2.479  0.7604 -0.4802  0.4133
27250WAT     H210806  -0.003   5.418   2.582  1.3293  0.2156  1.3902
27250WAT    EPW10807   0.002   5.498   2.548  0.3890 -0.1738  0.2185
27251WAT      O10808   2.206   1.179   1.454  0.1142  0.1947  0.3673
27251WAT     H110809   2.132   1.239   1.447  1.4085  1.7668 -0.4979
27251WAT     H210810   2.256   1.193   1.373  1.1835 -1.0587  0.7707
27251WAT    EPW10811   2.203   1.189   1.442  0.4259  0.2367  0.3064
27252WAT      O10812  -2.306   8.003   1.641 -0.0724 -0.4406 -0.0549
27252WAT     H110813  -2.392   7.962   1.630 -0.7674 -0.1110  3.2674
27252WAT     H210814  -2.319   8.093   1.611 -0.0747 -1.0233 -2.0023
27252WAT    EPW10815  -2.319   8.009   1.635 -0.1644 -0.4740  0.1264
27253WAT      O10816  -0.318  10.291   4.900  0.9448  0.5417  1.0711
27253WAT     H110817  -0.324  10.350   4.976 -1.8255  0.1670  1.2556
27253WAT     H210818  -0.374  10.217   4.923 -1.6533  1.3281 -2.0298
27253WAT    EPW10819  -0.326  10.289   4.913  0.2367  0.5960  0.6864
27254WAT      O10820   3.374   6.545   8.644  0.5023  0.5341 -0.5415
27254WAT     H110821   3.279   6.529   8.653  0.3967  0.1088 -2.1261
27254WAT     H210822   3.396   6.599   8.720 -0.6764 -0.7768  0.8055
27254WAT    EPW10823   3.364   6.550   8.655  0.3331  0.3052 -0.5727
27255WAT      O10824  -1.939   7.485   1.989 -0.5444 -0.2208 -0.1805
27255WAT     H110825  -1.984   7.424   1.930  1.7799  0.3307 -2.7411
27255WAT     H210826  -1.890   7.428   2.049  0.3538 -0.9123 -1.5247
27255WAT    EPW10827  -1.938   7.469   1.989 -0.1194 -0.2391 -0.6955
27256WAT      O10828  -2.660   7.127   0.381  0.1187 -1.0663 -0.1163
27256WAT     H110829  -2.624   7.169   0.460  0.4429 -0.3218 -0.6384
27256WAT     H210830  -2.610   7.046   0.372  0.9820 -0.5351 -0.2552
27256WAT    EPW10831  -2.648   7.122   0.390  0.2753 -0.8981 -0.2035
27257WAT      O10832   2.955   9.268   3.932  0.1269  0.1356 -0.5130
27257WAT     H110833   3.050   9.260   3.944  0.3314  1.5515 -1.0247
27257WAT     H210834   2.941   9.361   3.916 -1.5633  0.2754  1.3342
27257WAT    EPW10835   2.966   9.279   3.932 -0.0690  0.3405 -0.3369
27258WAT      O10836   5.966   7.245   3.405 -0.4881 -0.4814 -0.0072
27258WAT     H110837   6.053   7.242   3.446  1.5527 -3.0380 -3.8687
27258WAT     H210838   5.955   7.337   3.381  0.8342  0.0258  1.1683
27258WAT    EPW10839   5.976   7.257   3.408 -0.0446 -0.7517 -0.3616
27259WAT      O10840  -3.079   3.216   4.602  0.4202  0.4057 -0.3080
27259WAT     H110841  -3.020   3.240   4.530  1.7155  1.6729  1.0806
27259WAT     H210842  -3.128   3.297   4.620 -0.8878 -0.2914 -0.6361
27259WAT    EPW10843  -3.077   3.230   4.595  0.4185  0.4809 -0.1681
27260WAT      O10844  -1.168   1.799   1.586 -0.1352 -0.0043 -0.6150
27260WAT     H110845  -1.241   1.845   1.545 -1.3360  2.2681  3.4826
27260WAT     H210846  -1.113   1.869   1.622  1.2859 -1.7185  0.7373
27260WAT    EPW10847  -1.171   1.815   1.585 -0.1062  0.0693  0.1038
27261WAT      O10848   3.464   0.423   5.941 -0.4495  0.3684 -1.0963
27261WAT     H110849   3.502   0.502   5.901 -2.6570  0.7757 -2.5430
27261WAT     H210850   3.534   0.358   5.934  0.3608  1.3321 -2.7983
27261WAT    EPW10851   3.478   0.425   5.935 -0.6338  0.5492 -1.5118
27262WAT      O10852   7.291   2.247   0.026  0.5897 -0.0045 -0.0899
27262WAT     H110853   7.342   2.254  -0.055  1.9572 -0.3321  0.7270
27262WAT     H210854   7.252   2.160   0.022 -0.1327  0.3351 -0.8262
27262WAT    EPW10855   7.292   2.237   0.015  0.6747 -0.0026 -0.0796
27263WAT      O10856  -0.225   8.671   4.144 -0.1781 -0.1353  0.5023
27263WAT     H110857  -0.146   8.680   4.092 -0.1302  0.5343  0.6722
27263WAT     H210858  -0.294   8.708   4.090  0.1515  2.1775  1.5343
27263WAT    EPW10859  -0.224   8.677   4.130 -0.1283  0.2584  0.6607
27264WAT      O10860  -4.221   7.359   6.794  0.4990  0.4691  0.5872
27264WAT     H110861  -4.221   7.263   6.792  1.4061  0.4631  0.2469
27264WAT     H210862  -4.128   7.383   6.801  0.6259  1.3601 -2.5781
27264WAT    EPW10863  -4.209   7.350   6.795  0.6354  0.5858  0.1249
27265WAT      O10864   4.928   5.412   0.273  0.1820  0.5957  0.2109
27265WAT     H110865   5.012   5.369   0.291  0.7243 -0.2535 -3.5389
27265WAT     H210866   4.953   5.500   0.245 -0.0474  0.1362 -1.5429
27265WAT    EPW10867   4.943   5.418   0.272  0.2234  0.4232 -0.5150
27266WAT      O10868  -3.960   0.277   8.460  0.3014 -0.1909  0.0522
27266WAT     H110869  -4.016   0.353   8.477 -0.0768 -0.1148 -1.3601
27266WAT     H210870  -3.920   0.296   8.375  1.1696 -1.0180  0.2627
27266WAT    EPW10871  -3.962   0.289   8.451  0.3661 -0.2900 -0.1063
27267WAT      O10872  -0.008   9.588   3.103 -0.3127 -0.6988 -0.6437
27267WAT     H110873   0.047   9.609   3.179  0.1559  0.8222 -1.3658
27267WAT     H210874   0.047   9.531   3.049 -0.9845 -2.5705  0.5466
27267WAT    EPW10875   0.007   9.583   3.106 -0.3395 -0.7448 -0.5819
27268WAT      O10876   3.703   4.017   7.672 -0.2078  0.2691 -0.7249
27268WAT     H110877   3.705   3.986   7.762  0.8458 -0.9442 -1.1484
27268WAT     H210878   3.611   4.040   7.656  0.1435  5.1161  2.1321
27268WAT    EPW10879   3.691   4.016   7.682 -0.0225  0.7484 -0.4041
27269WAT      O10880  -0.962   4.648   7.885  0.1389 -0.2867  0.4231
27269WAT     H110881  -1.032   4.613   7.830  0.1376 -1.0286  0.8844
27269WAT     H210882  -0.964   4.594   7.964  0.8085  0.1049  0.7175
27269WAT    EPW10883  -0.971   4.637   7.888  0.2270 -0.3328  0.5229
27270WAT      O10884  -4.854   9.576   5.298 -0.4333 -0.5610 -0.0757
27270WAT     H110885  -4.862   9.529   5.381  0.1298  1.4312  1.1509
27270WAT     H210886  -4.923   9.538   5.243 -0.2565 -2.5154  0.9583
27270WAT    EPW10887  -4.864   9.565   5.302 -0.3357 -0.5560  0.2222
27271WAT      O10888  -0.462   6.452   4.021  0.8108 -0.0936  0.6673
27271WAT     H110889  -0.482   6.518   3.955  0.9308 -0.0713  0.6522
27271WAT     H210890  -0.468   6.499   4.104 -0.8469 -0.4662  0.7966
27271WAT    EPW10891  -0.465   6.467   4.023  0.6080 -0.1397  0.6824
27272WAT      O10892  -0.298   7.184   8.172 -0.2930 -0.2232 -0.2320
27272WAT     H110893  -0.331   7.176   8.261  0.0798 -0.5284 -0.1161
27272WAT     H210894  -0.351   7.123   8.121 -0.9197  0.4026 -0.3420
27272WAT    EPW10895  -0.309   7.175   8.177 -0.3265 -0.1810 -0.2313
27273WAT      O10896   3.323   8.075   0.115  0.6804  1.0836  0.2066
27273WAT     H110897   3.277   8.063   0.032 -0.2231  0.6105  0.7552
27273WAT     H210898   3.319   8.169   0.130 -1.5340  0.9193  0.9917
27273WAT    EPW10899   3.316   8.086   0.106  0.2692  0.9995  0.3825
27274WAT      O10900  -2.303   8.980   1.461  0.1813  0.0334 -0.9820
27274WAT     H110901  -2.251   9.027   1.526  0.3032 -1.4505  0.0632
27274WAT     H210902  -2.319   8.894   1.501 -0.8509 -0.4726 -2.3836
27274WAT    EPW10903  -2.298   8.975   1.475  0.0613 -0.2294 -1.0290
27275WAT      O10904   3.601   4.825   2.196 -0.2380 -0.2974 -0.3886
27275WAT     H110905   3.516   4.869   2.203 -0.7613 -1.5429  2.1674
27275WAT     H210906   3.640   4.835   2.283  0.2384 -3.5859 -0.1138
27275WAT    EPW10907   3.595   4.832   2.209 -0.2443 -0.8953 -0.0151
27276WAT      O10908   6.937   7.612   1.733 -0.1305  0.2210 -0.2654
27276WAT     H110909   6.992   7.549   1.685 -0.6343 -0.0419 -0.5109
27276WAT     H210910   6.912   7.676   1.667 -0.2062  0.2805 -0.1783
27276WAT    EPW10911   6.941   7.612   1.718 -0.2069  0.1941 -0.2863
27277WAT      O10912  -2.285   6.961   6.193 -0.0270  0.1041  0.3460
27277WAT     H110913  -2.226   6.991   6.263 -1.2325  1.0992  0.9842
27277WAT     H210914  -2.350   6.907   6.238 -1.1955  1.2886  0.1489
27277WAT    EPW10915  -2.286   6.958   6.208 -0.3401  0.3915  0.4041
27278WAT      O10916  -2.783   0.618   5.365  0.8691 -0.1342  0.2503
27278WAT     H110917  -2.857   0.557   5.364 -0.0233  0.9174  0.4936
27278WAT     H210918  -2.749   0.615   5.276 -1.9324  2.2183 -1.0772
27278WAT    EPW10919  -2.788   0.610   5.353  0.3819  0.3148  0.1070
27279WAT      O10920  -2.621   8.971   3.624 -0.0734  0.9663 -0.2375
27279WAT     H110921  -2.529   8.960   3.600  0.8329  0.3604  2.9968
27279WAT     H210922  -2.656   8.882   3.625 -1.2430  1.2989 -2.9645
27279WAT    EPW10923  -2.614   8.958   3.621 -0.1081  0.9303 -0.1707
27280WAT      O10924   0.545   2.796   5.513 -0.2234 -0.1469 -0.2691
27280WAT     H110925   0.526   2.889   5.525 -1.5991 -0.4470  0.0376
27280WAT     H210926   0.489   2.769   5.440  0.6723 -0.5998 -0.8138
27280WAT    EPW10927   0.535   2.804   5.505 -0.2867 -0.2463 -0.3004
27281WAT      O10928  -6.796   9.266   6.928 -0.4352 -0.1220 -0.4056
27281WAT     H110929  -6.702   9.276   6.942 -0.3761 -1.7155  0.5553
27281WAT     H210930  -6.836   9.293   7.010 -0.9645  1.7950 -1.2257
27281WAT    EPW10931  -6.788   9.271   6.940 -0.4971 -0.0792 -0.3870
27282WAT      O10932  -3.875   2.993   6.557 -0.0215 -0.3254 -0.1130
27282WAT     H110933  -3.896   2.905   6.589  0.8257 -0.7176 -0.5862
27282WAT     H210934  -3.801   3.021   6.611 -0.8736  0.4956  0.6614
27282WAT    EPW10935  -3.868   2.985   6.568 -0.0222 -0.2688 -0.0732
27283WAT      O10936   0.634   7.782   4.207 -0.0745  0.4406 -0.9473
27283WAT     H110937   0.602   7.800   4.119  2.8274 -1.7185 -2.5991
27283WAT     H210938   0.621   7.688   4.218 -1.6534  0.8426  1.6029
27283WAT    EPW10939   0.628   7.772   4.197  0.1000  0.2089 -0.8287
27284WAT      O10940   3.667   0.861   1.474  0.2337  0.2560  0.0276
27284WAT     H110941   3.758   0.891   1.470  0.0976  0.7197  0.4038
27284WAT     H210942   3.616   0.939   1.494 -0.0639 -0.3084  1.6406
27284WAT    EPW10943   3.672   0.875   1.476  0.1764  0.2427  0.2900
27285WAT      O10944   1.738   4.555   5.980 -0.5617 -0.2346 -0.1649
27285WAT     H110945   1.680   4.585   5.910 -0.8408 -1.6881 -0.5968
27285WAT     H210946   1.704   4.597   6.059 -1.8321 -0.5453 -0.5199
27285WAT    EPW10947   1.726   4.564   5.981 -0.7660 -0.4673 -0.2687
27286WAT      O10948   2.636   0.610   0.232  0.3515  0.7056 -0.1364
27286WAT     H110949   2.655   0.516   0.232  1.0006  0.8201 -1.0656
27286WAT     H210950   2.596   0.626   0.147  2.3227  1.6374 -0.9653
27286WAT    EPW10951   2.633   0.600   0.221  0.6971  0.8436 -0.3683
27287WAT      O10952   2.683   7.822   3.219 -0.2770 -0.5839  0.3537
27287WAT     H110953   2.723   7.907   3.201 -1.4773 -0.1732 -0.5631
27287WAT     H210954   2.638   7.834   3.302 -1.5370  0.1326 -0.3894
27287WAT    EPW10955   2.682   7.835   3.227 -0.6014 -0.4351  0.1347
27288WAT      O10956   3.956   7.255   2.312  0.4851  0.7107  0.8898
27288WAT     H110957   3.940   7.296   2.227 -2.0643  0.4079  1.1386
27288WAT     H210958   3.974   7.164   2.291 -0.2347  0.6154  0.6467
27288WAT    EPW10959   3.956   7.248   2.298  0.0540  0.6580  0.8906
27289WAT      O10960  -1.512   5.039   5.730 -0.2765  0.0677  0.1484
27289WAT     H110961  -1.588   5.033   5.788  1.6007 -0.9994  2.6776
27289WAT     H210962  -1.509   4.954   5.685 -0.8813  0.3431 -0.4389
27289WAT    EPW10963  -1.522   5.027   5.732 -0.1087 -0.0367  0.4044
27290WAT      O10964   4.737   1.720   0.417 -0.4645 -0.2698  0.0775
27290WAT     H110965   4.681   1.656   0.460  1.1034 -1.1960  0.8195
27290WAT     H210966   4.811   1.731   0.476  0.5548  0.2680 -1.2424
27290WAT    EPW10967   4.740   1.713   0.430 -0.1233 -0.3210  0.0013
27291WAT      O10968   1.453   6.561   4.355 -0.1583  0.5370  0.2243
27291WAT     H110969   1.445   6.656   4.344 -2.7487  0.2785 -0.8210
27291WAT     H210970   1.529   6.537   4.303  1.5742  2.1805  1.8425
27291WAT    EPW10971   1.462   6.570   4.347 -0.2714  0.7195  0.2999
27292WAT      O10972  -2.100   4.163   1.459 -0.4777  0.0139  0.2230
27292WAT     H110973  -2.121   4.093   1.521 -3.3977 -0.0342 -0.6694
27292WAT     H210974  -2.093   4.242   1.512  1.0307 -0.6394  1.0281
27292WAT    EPW10975  -2.102   4.164   1.474 -0.6638 -0.0787  0.2115
27293WAT      O10976  -2.201   9.313   0.141 -0.3992 -0.1364  0.4126
27293WAT     H110977  -2.235   9.396   0.173  1.6854  1.1376 -0.4972
27293WAT     H210978  -2.258   9.247   0.181 -0.1667  1.5208  3.8289
27293WAT    EPW10979  -2.213   9.315   0.151 -0.0936  0.2503  0.7432
27294WAT      O10980   7.321   3.436   1.640 -0.0317 -0.2110 -0.2856
27294WAT     H110981   7.309   3.341   1.640 -2.4340  0.0050  0.5965
27294WAT     H210982   7.260   3.467   1.707 -0.2275  2.0492 -1.4133
27294WAT    EPW10983   7.311   3.428   1.649 -0.3743  0.1156 -0.3179
27295WAT      O10984   3.207   3.170   6.491  0.4845  0.5961  0.3448
27295WAT     H110985   3.155   3.250   6.480  1.8276  1.6640  1.3261
27295WAT     H210986   3.298   3.200   6.487  1.0269 -0.7431  1.5653
27295WAT    EPW10987   3.212   3.185   6.489  0.7331  0.5604  0.6351
27296WAT      O10988   1.168   4.039   1.883  0.8081 -0.6628 -0.3089
27296WAT     H110989   1.233   4.046   1.813  1.2031  0.4897  0.1437
27296WAT     H210990   1.084   4.058   1.840  1.3234  2.9417 -0.0540
27296WAT    EPW10991   1.166   4.042   1.868  0.9282 -0.0353 -0.2156
27297WAT      O10992  -2.923   6.064   6.182  0.1175  0.4728  0.4224
27297WAT     H110993  -3.005   6.075   6.135 -0.1342  0.3568  0.8241
27297WAT     H210994  -2.947   6.073   6.274  0.6465  0.9577  0.5177
27297WAT    EPW10995  -2.937   6.066   6.188  0.1540  0.5214  0.4880
27298WAT      O10996   2.686  10.094   5.529  0.1376  0.3299 -0.0979
27298WAT     H110997   2.770  10.049   5.515 -0.6254 -0.7656 -1.5088
27298WAT     H210998   2.705  10.186   5.514  1.2408  0.1901  0.3508
27298WAT    EPW10999   2.700  10.100   5.525  0.1825  0.1669 -0.2248
27299WAT      O11000  -0.513   4.456   4.544 -0.1590  0.6581 -0.2175
27299WAT     H111001  -0.577   4.487   4.608  1.4899  1.1488  1.2810
27299WAT     H211002  -0.448   4.409   4.597  2.0663  2.3626 -1.2748
27299WAT    EPW11003  -0.512   4.454   4.560  0.3520  0.9475 -0.1593
27300WAT      O11004   4.049   7.875   0.317  0.8025 -0.2099 -0.2282
27300WAT     H111005   4.119   7.926   0.357  0.6438 -1.0783  1.2438
27300WAT     H211006   4.093   7.798   0.280  0.5898 -1.1115  1.3181
27300WAT    EPW11007   4.064   7.872   0.317  0.7534 -0.4432  0.1699
27301WAT      O11008  -2.093   5.818   5.420  0.3047 -0.0886  0.5268
27301WAT     H111009  -2.106   5.857   5.333  0.0513 -3.3232 -1.0474
27301WAT     H211010  -2.182   5.810   5.456  0.2788 -0.0565  0.4704
27301WAT    EPW11011  -2.106   5.822   5.413  0.2677 -0.5109  0.3119
27302WAT      O11012   1.369   3.635   0.501 -0.4415 -0.2778  0.2560
27302WAT     H111013   1.410   3.556   0.538  1.5642 -0.0363 -1.2743
27302WAT     H211014   1.425   3.659   0.427 -2.3720  1.2155 -0.8212
27302WAT    EPW11015   1.382   3.628   0.496 -0.4315 -0.0490 -0.0879
27303WAT      O11016   3.073   0.997   7.846  0.3267 -0.5399 -0.4615
27303WAT     H111017   2.980   0.977   7.855  0.3513  0.1024  1.8559
27303WAT     H211018   3.087   1.072   7.905  2.2034 -0.2812 -1.1802
27303WAT    EPW11019   3.063   1.004   7.855  0.5774 -0.4211 -0.2508
27304WAT      O11020   8.380   0.294   2.604 -0.7555  0.0611  0.4087
27304WAT     H111021   8.324   0.246   2.664 -0.5022  0.5579  1.0575
27304WAT     H211022   8.336   0.378   2.593  0.2448  0.7747  1.5702
27304WAT    EPW11023   8.367   0.299   2.610 -0.5903  0.2207  0.6475
27305WAT      O11024   4.616   5.918   4.753  0.3173  0.1661 -0.3505
27305WAT     H111025   4.600   5.825   4.771 -1.4428  0.1476 -1.7059
27305WAT     H211026   4.710   5.928   4.761  0.3752 -1.3581  1.4505
27305WAT    EPW11027   4.626   5.907   4.756  0.0930 -0.0372 -0.2916
27306WAT      O11028   3.644   0.290   4.589 -0.6828 -0.2269 -0.5219
27306WAT     H111029   3.596   0.373   4.595 -2.0819 -1.0752  0.6890
27306WAT     H211030   3.658   0.265   4.680  1.1463 -0.5589 -0.8688
27306WAT    EPW11031   3.640   0.298   4.602 -0.6260 -0.3826 -0.4079
27307WAT      O11032  -1.672   8.715   3.451  0.8063  0.1276 -0.1655
27307WAT     H111033  -1.668   8.625   3.418  0.6778  1.1376 -3.2289
27307WAT     H211034  -1.755   8.750   3.417 -0.3528  0.7843  2.9629
27307WAT    EPW11035  -1.682   8.708   3.442  0.6365  0.3471 -0.1569
27308WAT      O11036  -4.816   8.101   3.763  0.1088 -0.6664  0.1629
27308WAT     H111037  -4.758   8.025   3.765 -1.7146 -2.1198  0.6637
27308WAT     H211038  -4.877   8.082   3.692 -1.1573 -0.2879  1.1295
27308WAT    EPW11039  -4.816   8.089   3.754 -0.2987 -0.8082  0.3563
27309WAT      O11040   0.100   4.262   2.960  0.0389  0.0016 -0.0431
27309WAT     H111041   0.047   4.274   3.038 -1.1204 -2.8895 -0.2762
27309WAT     H211042   0.080   4.339   2.906 -1.0192  0.8254  1.4325
27309WAT    EPW11043   0.090   4.274   2.963 -0.2536 -0.2711  0.1208
27310WAT      O11044   3.672   6.501   0.961  0.6220  0.1611 -0.2514
27310WAT     H111045   3.674   6.566   1.031  0.7840  0.1732 -0.2682
27310WAT     H211046   3.578   6.489   0.943  0.5832  2.4940 -2.2113
27310WAT    EPW11047   3.660   6.508   0.968  0.6382  0.4704 -0.5121
27311WAT      O11048   7.527   3.316   1.899  0.6899 -0.4154 -0.0151
27311WAT     H111049   7.621   3.297   1.896  0.4408 -1.7050 -0.1039
27311WAT     H211050   7.491   3.274   1.821 -0.0701 -0.6087  0.4279
27311WAT    EPW11051   7.535   3.308   1.889  0.5567 -0.6109  0.0316
27312WAT      O11052   2.092   9.070   7.521 -0.3580  0.1635  0.3555
27312WAT     H111053   2.160   9.074   7.453  0.6520  0.5529  1.3541
27312WAT     H211054   2.041   8.992   7.500 -0.8401  0.9305 -1.5486
27312WAT    EPW11055   2.094   9.060   7.509 -0.2884  0.3157  0.2363
27313WAT      O11056   4.599   4.847   1.733  0.1973 -0.1588  1.2041
27313WAT     H111057   4.564   4.817   1.817 -0.3828  0.7882  1.3101
27313WAT     H211058   4.523   4.883   1.687  0.4018 -1.1047  0.0520
27313WAT    EPW11059   4.584   4.848   1.738  0.1478 -0.1588  1.0661
27314WAT      O11060   5.128   1.839   7.012  0.3350  0.5315 -0.7093
27314WAT     H111061   5.200   1.859   6.952 -0.5811 -1.0423 -2.4622
27314WAT     H211062   5.087   1.761   6.974 -2.7989  1.8251 -0.2668
27314WAT    EPW11063   5.132   1.831   6.999 -0.1991  0.4946 -0.8821
27315WAT      O11064   0.332   3.132   3.412 -0.4273  0.3088  0.2850
27315WAT     H111065   0.395   3.079   3.364 -0.6979  1.7643 -1.8037
27315WAT     H211066   0.254   3.131   3.357 -1.2815  0.8409  1.4486
27315WAT    EPW11067   0.330   3.125   3.399 -0.5756  0.5710  0.1631
27316WAT      O11068   6.764   1.751   4.120 -0.2639  0.4368 -0.3995
27316WAT     H111069   6.835   1.809   4.147 -2.5173  3.4862 -0.3978
27316WAT     H211070   6.725   1.721   4.202  0.5541 -0.6779 -0.4008
27316WAT    EPW11071   6.768   1.755   4.135 -0.4532  0.6919 -0.3994
27317WAT      O11072  -1.296   3.482   6.628 -0.2691 -0.5908 -0.3978
27317WAT     H111073  -1.205   3.474   6.602 -0.2332 -0.0605 -0.4470
27317WAT     H211074  -1.304   3.571   6.663 -0.4109 -1.1528  1.0626
27317WAT    EPW11075  -1.285   3.493   6.629 -0.2831 -0.5951 -0.2117
27318WAT      O11076  -3.288   8.015   3.867  0.3343  0.0182 -0.4681
27318WAT     H111077  -3.345   8.016   3.944 -1.4744 -1.1117 -1.7117
27318WAT     H211078  -3.314   7.936   3.819  3.1653 -0.6944 -0.9950
27318WAT    EPW11079  -3.299   8.005   3.871  0.4691 -0.2246 -0.7017
27319WAT      O11080  -1.398   3.389   5.106 -0.6265  0.5277 -0.2443
27319WAT     H111081  -1.388   3.461   5.044  0.3551 -0.4503 -1.2550
27319WAT     H211082  -1.364   3.423   5.188 -0.3152  1.2757 -0.6765
27319WAT    EPW11083  -1.392   3.403   5.109 -0.4560  0.4973 -0.4346
27320WAT      O11084   8.486   0.969   1.711 -0.3025  0.2992  0.0980
27320WAT     H111085   8.440   1.005   1.635 -1.0659  0.0051  0.4077
27320WAT     H211086   8.448   1.016   1.785  0.2539  0.3969  0.3259
27320WAT    EPW11087   8.475   0.980   1.711 -0.3295  0.2733  0.1689
27321WAT      O11088  -2.530   5.308   1.046  0.3543 -0.0489 -0.3199
27321WAT     H111089  -2.485   5.307   1.130 -0.0462 -0.0661 -0.1054
27321WAT     H211090  -2.546   5.400   1.028  2.3840  0.1482 -1.4307
27321WAT    EPW11091  -2.526   5.320   1.054  0.5689 -0.0250 -0.4381
27322WAT      O11092   0.064   9.006   5.309  0.5425  0.9299  0.2017
27322WAT     H111093   0.156   9.024   5.293  1.5231 -1.2452  2.7272
27322WAT     H211094   0.052   9.021   5.403 -1.1256 -0.7994  0.3361
27322WAT    EPW11095   0.074   9.010   5.319  0.4518  0.4158  0.5527
27323WAT      O11096   1.930   4.956   2.848  0.2545  1.0571  0.1073
27323WAT     H111097   1.990   5.002   2.788 -0.6962  1.2128 -0.7650
27323WAT     H211098   1.863   5.022   2.869 -1.5899 -0.0634 -1.8089
27323WAT    EPW11099   1.929   4.971   2.843 -0.1141  0.9298 -0.2606
27324WAT      O11100   9.758   1.322   0.834 -0.6477 -0.0628 -0.3602
27324WAT     H111101   9.761   1.227   0.828 -0.2700  0.0069 -1.6915
27324WAT     H211102   9.702   1.349   0.761  1.7741  0.8595 -1.9995
27324WAT    EPW11103   9.751   1.313   0.823 -0.2785  0.0681 -0.7521
27325WAT      O11104   4.171   8.238   3.772 -0.0030 -0.2326 -0.2829
27325WAT     H111105   4.099   8.267   3.828  1.2374  0.0017  1.2733
27325WAT     H211106   4.185   8.146   3.797  1.5055  0.2779  0.9342
27325WAT    EPW11107   4.163   8.229   3.783  0.3595 -0.1345  0.0829
27326WAT      O11108  -4.133   3.915   7.112 -0.0052  0.1966 -0.6812
27326WAT     H111109  -4.075   3.840   7.095 -0.4622 -0.2053 -0.5008
27326WAT     H211110  -4.078   3.978   7.158  0.3587 -0.0777 -0.7381
27326WAT    EPW11111  -4.118   3.913   7.116 -0.0174  0.1074 -0.6647
27327WAT      O11112   1.084   5.851   5.999 -0.0837  0.1189 -0.2127
27327WAT     H111113   1.070   5.892   5.914  0.6409  2.5407  0.7513
27327WAT     H211114   1.086   5.924   6.061 -1.9555 -1.6214  2.1177
27327WAT    EPW11115   1.083   5.866   5.996 -0.2350  0.2089  0.2217
27328WAT      O11116  -1.774   1.881   6.577  0.1468  0.6656  0.5032
27328WAT     H111117  -1.812   1.954   6.528 -1.3206 -0.1229  0.3993
27328WAT     H211118  -1.744   1.821   6.509 -1.2932 -0.1300  0.5404
27328WAT    EPW11119  -1.775   1.883   6.561 -0.2366  0.4566  0.4945
27329WAT      O11120  -6.046   9.577   8.411 -0.4022  0.2996 -0.0337
27329WAT     H111121  -5.989   9.538   8.344 -1.0238  1.0247 -1.0238
27329WAT     H211122  -5.987   9.623   8.470  0.2168 -0.8901  0.3036
27329WAT    EPW11123  -6.031   9.578   8.410 -0.4027  0.2379 -0.1197
27330WAT      O11124   5.103   9.849   0.016  0.6259 -0.2812  0.1681
27330WAT     H111125   5.077   9.940   0.030  1.0331 -0.0346 -0.5962
27330WAT     H211126   5.039   9.815  -0.046  0.8965 -0.2873 -0.1138
27330WAT    EPW11127   5.091   9.857   0.010  0.7153 -0.2496  0.0300
27331WAT      O11128  -2.012   5.251   1.023 -0.5992  0.0069  0.0151
27331WAT     H111129  -2.065   5.240   1.101  2.1230 -2.9381  1.7009
27331WAT     H211130  -2.038   5.180   0.965  0.4624 -0.6232  0.2738
27331WAT    EPW11131  -2.022   5.240   1.025 -0.1003 -0.4647  0.2716
27332WAT      O11132   2.133   5.694   0.760 -0.3735 -0.1679 -0.0087
27332WAT     H111133   2.131   5.635   0.835  0.3547 -0.3620 -0.1314
27332WAT     H211134   2.105   5.779   0.795 -0.6391 -0.3981  0.3426
27332WAT    EPW11135   2.129   5.697   0.775 -0.3124 -0.2239  0.0214
27333WAT      O11136  -3.120   1.808   4.397  0.2254  0.0426 -0.0325
27333WAT     H111137  -3.078   1.775   4.317  0.7574 -0.7456  0.5575
27333WAT     H211138  -3.116   1.735   4.458 -0.6903  0.4543  0.5398
27333WAT    EPW11139  -3.114   1.794   4.394  0.1748 -0.0071  0.1209
27334WAT      O11140   1.481   0.684   6.332 -0.2955 -0.0609 -0.0784
27334WAT     H111141   1.573   0.662   6.344 -0.5929 -0.7549  1.0209
27334WAT     H211142   1.476   0.716   6.241  0.9512 -0.3491 -0.2653
27334WAT    EPW11143   1.492   0.686   6.321 -0.1704 -0.1905  0.0422
27335WAT      O11144   1.490   7.518   3.029  0.4523 -0.0165  0.4323
27335WAT     H111145   1.460   7.606   3.053  4.2348  1.7524 -0.5468
27335WAT     H211146   1.473   7.465   3.107 -2.4442  1.3409  0.8668
27335WAT    EPW11147   1.484   7.522   3.042  0.5692  0.3958  0.3605
27336WAT      O11148   0.554   6.827   3.341  0.1187 -0.4099 -0.4443
27336WAT     H111149   0.614   6.836   3.267  2.5898  0.6901  1.5630
27336WAT     H211150   0.493   6.758   3.314  0.9558 -0.1066 -3.4227
27336WAT    EPW11151   0.554   6.819   3.328  0.5550 -0.2248 -0.5726
27337WAT      O11152   3.923   4.065   3.236  0.5137  0.7225  0.7097
27337WAT     H111153   4.015   4.089   3.237  0.7566 -0.1772  1.4589
27337WAT     H211154   3.919   3.981   3.282 -0.6088  0.4970  0.2472
27337WAT    EPW11155   3.934   4.057   3.242  0.3977  0.5741  0.7474
27338WAT      O11156  -3.746  10.062   8.209 -0.0852  0.0393 -0.7105
27338WAT     H111157  -3.767  10.149   8.242  0.0516 -0.5105  0.9250
27338WAT     H211158  -3.831  10.020   8.197 -0.1132 -0.1365  0.0603
27338WAT    EPW11159  -3.760  10.068   8.211 -0.0709 -0.0567 -0.3929
27339WAT      O11160   4.722   8.547   0.588 -0.5529 -0.6509  0.1470
27339WAT     H111161   4.653   8.556   0.653  2.0782  0.7938  2.9966
27339WAT     H211162   4.730   8.452   0.574 -1.7072 -0.9391  1.3118
27339WAT    EPW11163   4.714   8.535   0.594 -0.3581 -0.4988  0.6764
27340WAT      O11164   2.706   2.973   0.913  0.2852  0.3982  0.7498
27340WAT     H111165   2.612   2.984   0.899  0.3766 -0.8238 -1.1135
27340WAT     H211166   2.744   3.058   0.890  0.0101 -0.3501 -3.0769
27340WAT    EPW11167   2.699   2.985   0.908  0.2609  0.1383 -0.0007
27341WAT      O11168   0.201   6.716   5.056 -0.4118 -0.0069 -0.1267
27341WAT     H111169   0.276   6.773   5.045  0.9706 -1.3393  1.6862
27341WAT     H211170   0.159   6.713   4.970  1.4629  0.9752 -1.1169
27341WAT    EPW11171   0.205   6.723   5.044  0.0178 -0.0532 -0.0181
27342WAT      O11172  -4.935   6.119   6.197  0.1105 -0.6660 -0.0686
27342WAT     H111173  -4.958   6.163   6.279 -2.1068  1.0892 -1.4893
27342WAT     H211174  -4.843   6.141   6.182  1.0806 -2.4362  2.6916
27342WAT    EPW11175  -4.926   6.128   6.206 -0.0539 -0.6680  0.1080
27343WAT      O11176   1.283   3.029   7.568 -0.5219  0.6681 -0.0549
27343WAT     H111177   1.246   3.089   7.633 -0.3267  0.6032  0.1182
27343WAT     H211178   1.378   3.037   7.580 -0.4764 -1.1408  1.3450
27343WAT    EPW11179   1.291   3.038   7.578 -0.4901  0.4210  0.1528
27344WAT      O11180   2.446   5.732   8.823 -0.1289 -0.3035 -0.4735
27344WAT     H111181   2.385   5.755   8.893  1.2109 -0.4130  0.7823
27344WAT     H211182   2.483   5.815   8.794 -1.6161 -0.1108 -2.0266
27344WAT    EPW11183   2.443   5.746   8.828 -0.1484 -0.2925 -0.5126
27345WAT      O11184   5.954   1.062   5.680 -1.0250 -0.4596 -0.4723
27345WAT     H111185   5.888   1.045   5.747 -2.2685  0.8784 -1.2944
27345WAT     H211186   6.033   1.082   5.729 -1.0451 -2.5950  0.5380
27345WAT    EPW11187   5.956   1.063   5.695 -1.1916 -0.5648 -0.4475
27346WAT      O11188  -1.698   2.220   2.523 -0.4732 -0.9677  0.5231
27346WAT     H111189  -1.715   2.313   2.507  0.5643 -0.6171  1.2794
27346WAT     H211190  -1.783   2.184   2.548 -1.0269 -0.3810 -0.4615
27346WAT    EPW11191  -1.711   2.228   2.524 -0.4094 -0.8440  0.4930
27347WAT      O11192  -5.104   6.973   4.953 -0.7312  0.0634  0.1695
27347WAT     H111193  -5.027   7.030   4.947  0.4754 -1.6165 -1.6706
27347WAT     H211194  -5.068   6.888   4.979 -2.2329 -0.3378  1.0255
27347WAT    EPW11195  -5.089   6.969   4.956 -0.7701 -0.2110  0.0396
27348WAT      O11196   0.314   0.371   8.108 -0.7302  0.6221 -0.5719
27348WAT     H111197   0.391   0.330   8.146 -0.0318  2.0514 -0.3728
27348WAT     H211198   0.259   0.394   8.183 -0.9592  0.3459 -0.6558
27348WAT    EPW11199   0.317   0.369   8.123 -0.6683  0.7742 -0.5565
27349WAT      O11200   8.082   6.239   0.903  0.1255 -0.8879 -0.0029
27349WAT     H111201   7.987   6.247   0.897 -0.3572 -4.7066  0.0613
27349WAT     H211202   8.107   6.188   0.827  2.5102  1.5720 -1.0439
27349WAT    EPW11203   8.073   6.233   0.893  0.3762 -1.0669 -0.1317
27350WAT      O11204   8.272   2.458   0.504 -0.4337 -0.0455  0.1531
27350WAT     H111205   8.248   2.402   0.430 -0.1287 -1.2157  0.9026
27350WAT     H211206   8.366   2.471   0.494 -0.4473  0.0622  0.1637
27350WAT    EPW11207   8.281   2.452   0.493 -0.3953 -0.1857  0.2534
27351WAT      O11208   6.147   0.954   1.568 -0.3357  0.2747  0.2178
27351WAT     H111209   6.106   0.868   1.573 -0.2426  0.2564  0.8217
27351WAT     H211210   6.108   0.995   1.491 -1.6715  0.3433  0.8915
27351WAT    EPW11211   6.136   0.948   1.559 -0.4995  0.2813  0.3863
27352WAT      O11212   2.370   2.945   7.289 -0.4552 -0.3143 -0.2459
27352WAT     H111213   2.400   2.856   7.271 -0.4654 -1.3846  3.9284
27352WAT     H211214   2.275   2.940   7.287 -0.4624  0.0817 -1.6905
27352WAT    EPW11215   2.362   2.933   7.287 -0.4575 -0.4032  0.1142
27353WAT      O11216   0.239   6.226   1.014 -0.1821  0.2946  0.0928
27353WAT     H111217   0.244   6.214   1.109 -0.3745  1.2140  0.2327
27353WAT     H211218   0.329   6.249   0.989 -0.2756  0.7736  0.1735
27353WAT    EPW11219   0.252   6.228   1.023 -0.2198  0.4790  0.1219
27354WAT      O11220  -3.914   8.547   3.807  0.4558 -0.6892  0.2967
27354WAT     H111221  -4.000   8.506   3.793  0.9004 -1.5162 -0.0617
27354WAT     H211222  -3.931   8.616   3.872 -0.6978 -0.0681 -0.6118
27354WAT    EPW11223  -3.928   8.551   3.814  0.3623 -0.7162  0.1296
27355WAT      O11224   7.496   9.500   0.064  0.3132  0.4747 -0.3047
27355WAT     H111225   7.534   9.585   0.087 -0.0853  0.4722  0.3920
27355WAT     H211226   7.457   9.469   0.145  0.8311 -0.5781 -0.4405
27355WAT    EPW11227   7.496   9.507   0.078  0.3290  0.3357 -0.2307
27356WAT      O11228   2.197   6.391   7.756 -0.7338  0.4128  0.4163
27356WAT     H111229   2.125   6.429   7.805 -0.5447  0.8473  0.3566
27356WAT     H211230   2.156   6.351   7.679 -1.1825 -1.3078  1.4832
27356WAT    EPW11231   2.182   6.391   7.752 -0.7682  0.2432  0.5491
27357WAT      O11232  -2.312   7.395   8.573 -1.0721 -0.4902  0.1782
27357WAT     H111233  -2.363   7.446   8.511 -1.1354 -0.0109  0.6184
27357WAT     H211234  -2.370   7.383   8.649 -0.4057  0.4369  0.8646
27357WAT    EPW11235  -2.326   7.400   8.575 -0.9925 -0.3047  0.3271
27358WAT      O11236   7.249   5.208   1.338 -0.0646  0.1737 -0.4577
27358WAT     H111237   7.320   5.149   1.315 -0.4118 -0.0814 -0.8842
27358WAT     H211238   7.174   5.151   1.354 -0.4874  0.5078 -1.1790
27358WAT    EPW11239   7.248   5.193   1.337 -0.1662  0.1841 -0.6091
27359WAT      O11240   4.063   1.690   0.782 -0.6582  0.2568  0.5255
27359WAT     H111241   3.973   1.666   0.760 -0.1179 -0.4659 -1.0771
27359WAT     H211242   4.092   1.744   0.709  1.8746 -3.8816 -1.9112
27359WAT    EPW11243   4.055   1.694   0.769 -0.2530 -0.3843 -0.0073
27360WAT      O11244   1.794   2.214   7.085  0.3437 -0.1992 -0.6898
27360WAT     H111245   1.764   2.301   7.057  1.4524  0.1257 -0.9343
27360WAT     H211246   1.853   2.232   7.159  1.3664 -0.6503 -1.3778
27360WAT    EPW11247   1.798   2.228   7.091  0.6249 -0.2159 -0.8128
27361WAT      O11248   6.772   6.764   0.149  0.8367  0.0732  0.5617
27361WAT     H111249   6.716   6.729   0.079 -0.5656 -0.7174  1.9946
27361WAT     H211250   6.858   6.728   0.132  0.1439 -1.4679  0.1274
27361WAT    EPW11251   6.776   6.755   0.138  0.5603 -0.2344  0.6934
27362WAT      O11252   0.314  10.108   7.433  0.1448 -0.3170  0.3378
27362WAT     H111253   0.392  10.096   7.379  1.3498 -3.1261  2.4655
27362WAT     H211254   0.247  10.053   7.392  0.1595 -0.1222  0.0577
27362WAT    EPW11255   0.316  10.099   7.421  0.3057 -0.6618  0.5815
27363WAT      O11256  -0.335   8.489   1.843 -0.4957  0.2917  0.0611
27363WAT     H111257  -0.301   8.492   1.754 -0.0598  0.3719  0.2260
27363WAT     H211258  -0.397   8.416   1.842 -0.0154 -0.1203 -0.1466
27363WAT    EPW11259  -0.339   8.480   1.831 -0.3749  0.2480  0.0554
27364WAT      O11260   2.742   9.939   3.438 -0.2860 -0.1187  0.4920
27364WAT     H111261   2.837   9.950   3.438 -0.4837  3.0741  2.5730
27364WAT     H211262   2.723   9.896   3.522 -0.6655 -1.3418 -0.2052
27364WAT    EPW11263   2.752   9.935   3.449 -0.3622  0.1411  0.6745
27365WAT      O11264   3.122   4.745   2.921 -0.7510 -0.2090 -0.3986
27365WAT     H111265   3.075   4.812   2.871 -1.0698 -0.1478 -0.0191
27365WAT     H211266   3.170   4.794   2.987 -0.9943 -0.3553 -0.1123
27365WAT    EPW11267   3.122   4.761   2.923 -0.8252 -0.2203 -0.3107
27366WAT      O11268  -1.686   2.759   7.279  0.1659 -0.0998  0.6247
27366WAT     H111269  -1.691   2.802   7.365  1.9691 -0.0568  0.7424
27366WAT     H211270  -1.770   2.779   7.238 -0.2301  0.9668  1.8708
27366WAT    EPW11271  -1.698   2.767   7.285  0.3514  0.0465  0.8047
27367WAT      O11272   1.144   4.686   3.646  0.0035  0.1154 -0.1626
27367WAT     H111273   1.175   4.709   3.733  0.8844  0.2542 -0.5023
27367WAT     H211274   1.076   4.751   3.626  0.2082  0.4363  0.1836
27367WAT    EPW11275   1.139   4.698   3.654  0.1466  0.1762 -0.1618
27368WAT      O11276  -2.177   1.156   5.004 -0.9182  0.4048 -0.5243
27368WAT     H111277  -2.187   1.240   4.959 -2.7269  0.8761  0.6392
27368WAT     H211278  -2.143   1.180   5.091 -0.1018 -0.2286 -0.6555
27368WAT    EPW11279  -2.174   1.170   5.010 -1.0492  0.3834 -0.3881
27369WAT      O11280   1.240   9.109   1.352 -0.1543 -0.1463 -0.3116
27369WAT     H111281   1.282   9.044   1.296 -0.5221 -0.1136 -0.6367
27369WAT     H211282   1.256   9.193   1.308  0.0495 -0.0512 -0.0607
27369WAT    EPW11283   1.248   9.112   1.339 -0.1759 -0.1292 -0.3214
27370WAT      O11284   1.108   6.314   0.420 -0.2280 -0.0138 -0.2052
27370WAT     H111285   1.046   6.294   0.490  1.5120  0.9853  1.7107
27370WAT     H211286   1.118   6.410   0.424 -0.6445  0.1728 -2.3540
27370WAT    EPW11287   1.101   6.324   0.429 -0.0534  0.1426 -0.2359
27371WAT      O11288  -3.802   9.672   4.181 -0.9911  0.9508  0.1410
27371WAT     H111289  -3.712   9.690   4.155 -1.4189  2.8939 -0.1724
27371WAT     H211290  -3.845   9.642   4.101 -1.0885  2.0366 -0.2378
27371WAT    EPW11291  -3.796   9.670   4.167 -1.0604  1.3499  0.0496
27372WAT      O11292   7.150   3.498   1.857 -0.4347  0.3234 -0.1986
27372WAT     H111293   7.134   3.509   1.951 -0.8614 -1.6258 -0.0115
27372WAT     H211294   7.139   3.586   1.821 -0.0304  1.1630  1.5917
27372WAT    EPW11295   7.147   3.511   1.864 -0.4375  0.1770  0.0622
27373WAT      O11296  -3.835   0.230   6.921  0.3825 -0.4533  0.3712
27373WAT     H111297  -3.758   0.287   6.917  0.8336 -1.1097 -1.7993
27373WAT     H211298  -3.819   0.174   6.997  1.5014  0.1614  0.6161
27373WAT    EPW11299  -3.823   0.230   6.931  0.5896 -0.4588  0.1171
27374WAT      O11300   3.904   1.965   5.486 -0.0287 -0.3048 -0.6478
27374WAT     H111301   3.911   1.922   5.572  1.7118 -2.7896 -1.9332
27374WAT     H211302   3.981   2.021   5.481 -1.3597  1.7413  0.2802
27374WAT    EPW11303   3.915   1.966   5.497  0.0253 -0.3627 -0.6948
27375WAT      O11304   6.648   3.468   3.900 -0.4299 -0.0186 -0.2614
27375WAT     H111305   6.667   3.483   3.993 -1.1891  0.4817 -0.1728
27375WAT     H211306   6.553   3.453   3.897 -0.0609 -2.9611 -0.6056
27375WAT    EPW11307   6.638   3.468   3.912 -0.4811 -0.3407 -0.2952
27376WAT      O11308   1.360   0.629   5.398  0.0620  0.0241  0.1889
27376WAT     H111309   1.395   0.542   5.379 -1.6565 -1.0002  1.5286
27376WAT     H211310   1.355   0.671   5.312  2.4828 -0.5157 -0.3099
27376WAT    EPW11311   1.364   0.623   5.384  0.1546 -0.1822  0.2997
27377WAT      O11312  -2.254   3.827   2.844  0.5208 -0.4657 -0.3967
27377WAT     H111313  -2.248   3.921   2.829  0.3871 -0.6749 -1.8947
27377WAT     H211314  -2.171   3.792   2.813  0.3709 -0.8992 -0.3274
27377WAT    EPW11315  -2.242   3.835   2.838  0.4834 -0.5504 -0.5852
27378WAT      O11316  -2.003   1.499   3.037  0.0723 -0.0862  0.3447
27378WAT     H111317  -1.951   1.459   3.107  1.6900  0.5357 -0.4446
27378WAT     H211318  -2.000   1.434   2.966  0.0584  0.0959  0.1769
27378WAT    EPW11319  -1.995   1.485   3.037  0.2838  0.0198  0.2184
27379WAT      O11320   0.775   4.788   5.515 -0.3788 -0.0539  0.3569
27379WAT     H111321   0.808   4.876   5.537 -0.9580  0.0707  0.7695
27379WAT     H211322   0.701   4.805   5.456  1.2308 -0.3924 -1.8771
27379WAT    EPW11323   0.769   4.802   5.510 -0.2429 -0.0823  0.1166
27380WAT      O11324  -3.723   8.988   8.198  0.7086 -0.3954  0.3261
27380WAT     H111325  -3.662   9.022   8.264  0.0259  0.1087  0.7087
27380WAT     H211326  -3.809   8.999   8.238  0.2487  0.2719 -0.8115
27380WAT    EPW11327  -3.726   8.994   8.212  0.5580 -0.2408  0.2260
27381WAT      O11328   8.184   0.663   2.972  0.3012  0.5735  0.2242
27381WAT     H111329   8.109   0.711   2.938 -0.2157 -0.8773 -0.8063
27381WAT     H211330   8.216   0.611   2.898 -0.8618 -2.6899  1.8047
27381WAT    EPW11331   8.178   0.662   2.958  0.0796 -0.0483  0.2967
27382WAT      O11332   1.716   8.751   1.290  0.0857  0.4778  0.0575
27382WAT     H111333   1.722   8.655   1.287 -1.2303  0.2420  2.4637
27382WAT     H211334   1.792   8.778   1.342  0.1178  0.7037 -0.1049
27382WAT    EPW11335   1.727   8.742   1.296 -0.0836  0.4764  0.3535
27383WAT      O11336   2.474   0.552   3.077 -0.2550  1.0811  0.0764
27383WAT     H111337   2.416   0.618   3.115 -0.2220  0.6542  0.8757
27383WAT     H211338   2.556   0.562   3.125 -0.2453  0.4725  0.1947
27383WAT    EPW11339   2.477   0.562   3.088 -0.2494  0.9445  0.1974
27384WAT      O11340   7.930   4.739   1.022  0.2466  0.6174 -0.4976
27384WAT     H111341   7.958   4.659   1.065  1.3794  1.4091  0.3009
27384WAT     H211342   7.860   4.711   0.963  0.4628 -0.9095 -0.0815
27384WAT    EPW11343   7.925   4.725   1.020  0.4244  0.5205 -0.3374
27385WAT      O11344   6.787   6.649   2.841 -0.0437  0.0736 -0.4548
27385WAT     H111345   6.854   6.714   2.818 -0.7083 -0.2544 -3.8766
27385WAT     H211346   6.792   6.642   2.936  3.1369  1.7795 -0.3647
27385WAT    EPW11347   6.797   6.657   2.850  0.2882  0.2553 -0.8942
27386WAT      O11348   6.548   1.919   0.888 -0.0642  0.1442 -0.9892
27386WAT     H111349   6.492   1.985   0.930 -0.6688 -1.8296  1.5880
27386WAT     H211350   6.604   1.970   0.828 -3.8326  2.3451 -3.0097
27386WAT    EPW11351   6.548   1.935   0.886 -0.6411  0.1741 -0.9158
27387WAT      O11352   9.896   1.715   0.089 -0.0576 -0.3422  0.7005
27387WAT     H111353   9.908   1.646   0.024  4.2390  1.7059 -1.0680
27387WAT     H211354   9.937   1.680   0.168  3.6813  0.5388 -0.6637
27387WAT    EPW11355   9.903   1.701   0.091  1.0018  0.0441  0.2873
27388WAT      O11356   5.366   6.253   2.425 -0.3736  0.3781 -0.3141
27388WAT     H111357   5.454   6.223   2.401  0.1084  2.0275 -0.7432
27388WAT     H211358   5.377   6.286   2.515 -0.7090  0.0094 -0.1357
27388WAT    EPW11359   5.379   6.254   2.434 -0.3541  0.5472 -0.3471
27389WAT      O11360   7.254   0.127   4.708 -1.2970  0.4133 -0.0266
27389WAT     H111361   7.217   0.061   4.766 -0.1930  0.3710  0.6510
27389WAT     H211362   7.237   0.094   4.620 -1.3431 -0.4525  0.3011
27389WAT    EPW11363   7.247   0.114   4.704 -1.1575  0.2935  0.1061
27390WAT      O11364  -2.262   5.604   5.926 -1.1681  0.3418 -0.5210
27390WAT     H111365  -2.224   5.586   6.012  1.3223  1.1346 -1.3514
27390WAT     H211366  -2.230   5.533   5.871 -2.4168  0.0607 -0.9156
27390WAT    EPW11367  -2.253   5.593   5.930 -1.0043  0.4094 -0.6824
27391WAT      O11368   5.587   0.158   2.153 -0.3002  0.2046  0.0017
27391WAT     H111369   5.646   0.128   2.222 -0.9741  0.5712  0.7599
27391WAT     H211370   5.578   0.252   2.169 -0.0959  0.3852 -0.8816
27391WAT    EPW11371   5.593   0.166   2.164 -0.3622  0.2768 -0.0148
27392WAT      O11372  -1.028   8.407   0.601 -0.4317  0.0905 -0.5499
27392WAT     H111373  -0.971   8.469   0.556 -1.4001 -0.0299 -1.9999
27392WAT     H211374  -1.022   8.431   0.694  1.1914  0.6877 -0.7769
27392WAT    EPW11375  -1.020   8.418   0.608 -0.3453  0.1535 -0.7711
27393WAT      O11376   3.086   7.433   3.927  0.3549 -0.0914  0.5467
27393WAT     H111377   3.130   7.357   3.967  0.4920  0.3726  1.3084
27393WAT     H211378   3.156   7.496   3.913  0.1990 -0.0055  0.1610
27393WAT    EPW11379   3.101   7.431   3.931  0.3524 -0.0188  0.5963
27394WAT      O11380  -2.545   3.959   7.484  0.0852 -0.4879  0.2150
27394WAT     H111381  -2.571   3.873   7.453  0.0192 -0.0947 -0.8786
27394WAT     H211382  -2.577   4.019   7.416  0.6790  0.3352  0.6489
27394WAT    EPW11383  -2.553   3.956   7.471  0.1549 -0.3273  0.1278
27395WAT      O11384   5.183   2.594   5.428 -0.3870 -0.1501 -0.1112
27395WAT     H111385   5.218   2.619   5.513  0.2745  0.9043 -0.6733
27395WAT     H211386   5.158   2.677   5.387 -4.6781 -0.8178  0.6554
27395WAT    EPW11387   5.184   2.608   5.434 -0.8655 -0.0991 -0.0844
27396WAT      O11388   3.847   2.716   0.246  0.0316  0.0247  0.6865
27396WAT     H111389   3.780   2.650   0.231 -1.1706  1.5941 -1.3975
27396WAT     H211390   3.811   2.797   0.210  2.5609  1.2285  0.5660
27396WAT    EPW11391   3.834   2.718   0.239  0.2066  0.3905  0.3957
27397WAT      O11392   1.196   4.190   7.463 -0.7059 -0.6403 -0.5743
27397WAT     H111393   1.186   4.277   7.425  1.1327 -0.8642 -1.7104
27397WAT     H211394   1.167   4.200   7.554  0.4062  1.4334 -0.3815
27397WAT    EPW11395   1.191   4.203   7.470 -0.3167 -0.3960 -0.6988
27398WAT      O11396   1.557   0.205   2.560 -0.7762  0.2250  0.0637
27398WAT     H111397   1.626   0.139   2.569  0.0566  1.0247 -0.3648
27398WAT     H211398   1.603   0.289   2.566 -1.3388  0.8047 -2.5993
27398WAT    EPW11399   1.572   0.207   2.562 -0.7405  0.4070 -0.3440
27399WAT      O11400  -6.199  10.124   4.662  0.4597 -0.4728  0.5201
27399WAT     H111401  -6.201  10.202   4.716 -0.9671 -0.2513  0.1633
27399WAT     H211402  -6.174  10.155   4.575  0.1935 -0.4667  0.4472
27399WAT    EPW11403  -6.196  10.138   4.658  0.2365 -0.4430  0.4632
27400WAT      O11404  -3.208   7.948   2.181  0.2727  0.1955 -0.2366
27400WAT     H111405  -3.258   7.879   2.137 -1.2852  0.5767  0.8575
27400WAT     H211406  -3.146   7.900   2.237 -0.6602 -0.3366  0.3661
27400WAT    EPW11407  -3.207   7.932   2.183 -0.0559  0.1757 -0.0129
27401WAT      O11408   5.785   6.650   2.311  0.4072  0.4191 -0.5238
27401WAT     H111409   5.723   6.701   2.259  0.0902 -0.1450 -0.7009
27401WAT     H211410   5.870   6.672   2.273  0.1606 -0.1254 -1.4067
27401WAT    EPW11411   5.788   6.660   2.299  0.3328  0.2728 -0.6636
27402WAT      O11412   5.512   5.963   2.110 -0.4026 -0.0541  0.2119
27402WAT     H111413   5.513   5.899   2.039 -1.6813  0.0348  0.1030
27402WAT     H211414   5.604   5.972   2.134 -0.2006 -1.9741  0.2798
27402WAT    EPW11415   5.524   5.956   2.104 -0.5448 -0.2956  0.2065
27403WAT      O11416  -5.675   7.822   6.439  0.0578 -0.1039  1.2624
27403WAT     H111417  -5.736   7.896   6.448 -0.4419 -0.7490  4.8149
27403WAT     H211418  -5.717   7.751   6.486  2.5820 -1.2301  1.9652
27403WAT    EPW11419  -5.688   7.823   6.447  0.3247 -0.3374  1.8237
27404WAT      O11420  -4.559  10.229   8.893 -0.3786 -0.0152  0.4538
27404WAT     H111421  -4.481  10.196   8.938  2.6910 -0.8008 -4.6259
27404WAT     H211422  -4.584  10.159   8.834 -0.5138  2.6027 -2.9038
27404WAT    EPW11423  -4.552  10.216   8.891  0.0086  0.2270 -0.6590
27405WAT      O11424  -1.318   7.882   7.117 -0.1597  0.2476 -0.5154
27405WAT     H111425  -1.300   7.808   7.174  1.2033  2.0052  1.4590
27405WAT     H211426  -1.360   7.946   7.173  1.3990  2.1218 -1.3804
27405WAT    EPW11427  -1.321   7.881   7.132  0.2257  0.7267 -0.3691
27406WAT      O11428  -2.180   6.712   6.970 -0.4837  0.0268  0.5598
27406WAT     H111429  -2.173   6.647   7.040 -0.7694  0.1102  0.6698
27406WAT     H211430  -2.092   6.749   6.963 -0.4522  0.0202  0.8765
27406WAT    EPW11431  -2.168   6.708   6.979 -0.5171  0.0370  0.6161
27407WAT      O11432   6.271   0.816   6.987  0.5955 -0.6071  0.5469
27407WAT     H111433   6.364   0.837   6.995  0.2581  0.0694  4.2534
27407WAT     H211434   6.270   0.729   6.947  2.6523  0.1874 -1.4786
27407WAT    EPW11435   6.283   0.807   6.982  0.8223 -0.4131  0.7687
27408WAT      O11436   5.655   4.195   1.743 -0.2086 -0.2045  0.0842
27408WAT     H111437   5.691   4.236   1.664 -2.3078  1.3487 -0.1571
27408WAT     H211438   5.563   4.176   1.721 -0.4471 -1.1070  1.6727
27408WAT    EPW11439   5.647   4.198   1.730 -0.5169 -0.1187  0.2619
27409WAT      O11440  -0.725   3.898   0.387 -0.3893 -0.4124  0.0248
27409WAT     H111441  -0.795   3.899   0.452  0.1481 -1.2675  0.6402
27409WAT     H211442  -0.680   3.815   0.402 -0.5618 -0.8794 -1.7884
27409WAT    EPW11443  -0.728   3.887   0.398 -0.3412 -0.5867 -0.1332
27410WAT      O11444  -1.432   4.947   2.403  0.3114  0.2963 -0.1929
27410WAT     H111445  -1.413   4.854   2.411  1.6398  0.6201  0.7505
27410WAT     H211446  -1.400   4.971   2.316  0.9404  0.0892 -0.0202
27410WAT    EPW11447  -1.426   4.938   2.393  0.5696  0.3116 -0.0458
27411WAT      O11448   0.827   7.689   2.780 -0.2152  0.2721 -0.3450
27411WAT     H111449   0.858   7.663   2.694  0.8715  0.7922 -0.1377
27411WAT     H211450   0.811   7.783   2.772  1.5425  0.6864  0.4394
27411WAT    EPW11451   0.829   7.698   2.768  0.1600  0.3955 -0.2142
27412WAT      O11452  -4.211   3.275   5.613 -0.2296  0.3680 -0.2569
27412WAT     H111453  -4.303   3.256   5.590  0.1259 -1.0228 -0.6290
27412WAT     H211454  -4.216   3.348   5.674 -1.3348  3.7144 -3.9622
27412WAT    EPW11455  -4.224   3.282   5.618 -0.3285  0.6258 -0.7946
27413WAT      O11456  -0.503   9.475   0.285 -0.0249  0.0193  0.4719
27413WAT     H111457  -0.432   9.522   0.329  0.6851  1.7378 -2.2244
27413WAT     H211458  -0.490   9.495   0.192 -2.6977 -1.5421 -0.3389
27413WAT    EPW11459  -0.492   9.484   0.278 -0.2837  0.0401  0.0093
27414WAT      O11460   2.925   8.342   5.663  0.6219  0.4279  0.0067
27414WAT     H111461   2.934   8.323   5.757  1.3790 -0.0031 -0.1399
27414WAT     H211462   2.849   8.398   5.657  0.0230 -0.2755  0.7853
27414WAT    EPW11463   2.916   8.347   5.675  0.6428  0.2780  0.0899
27415WAT      O11464  -1.310   9.401   8.008 -0.8778  0.6842 -0.2158
27415WAT     H111465  -1.258   9.464   8.057 -0.8402 -0.1037  0.7781
27415WAT     H211466  -1.314   9.437   7.919 -2.1501  2.8848  0.6508
27415WAT    EPW11467  -1.304   9.414   8.002 -1.0406  0.8707  0.0296
27416WAT      O11468   1.583   5.942   4.514 -0.2024 -0.8856  0.1438
27416WAT     H111469   1.508   5.883   4.506 -1.3961  0.3616  1.6572
27416WAT     H211470   1.658   5.883   4.526 -0.4253 -2.2813 -3.8156
27416WAT    EPW11471   1.583   5.926   4.514 -0.3893 -0.9050 -0.1791
27417WAT      O11472   6.511   2.531   5.637  0.3483  0.7873  0.3559
27417WAT     H111473   6.506   2.470   5.710  0.4745 -0.3703 -0.5590
27417WAT     H211474   6.601   2.523   5.605  0.4326  1.6319  0.3667
27417WAT    EPW11475   6.522   2.522   5.642  0.3762  0.7461  0.2367
27418WAT      O11476   5.707   4.830   2.281  0.1860 -0.3952 -0.1725
27418WAT     H111477   5.742   4.896   2.341 -0.7662  1.6580 -1.7652
27418WAT     H211478   5.619   4.861   2.258 -0.8233 -2.9009 -0.0273
27418WAT    EPW11479   5.700   4.843   2.286 -0.0727 -0.4547 -0.3632
27419WAT      O11480  -2.702   5.286   4.697  0.0961 -0.1081 -0.3490
27419WAT     H111481  -2.721   5.203   4.741 -1.4036  0.6392  0.5135
27419WAT     H211482  -2.619   5.315   4.735  1.4727 -1.9230 -1.8055
27419WAT    EPW11483  -2.694   5.279   4.708  0.0798 -0.2489 -0.4275
27420WAT      O11484   3.880   6.023   3.988 -0.1941 -0.0205  0.1393
27420WAT     H111485   3.892   6.099   4.044  2.6183 -1.6767  2.0649
27420WAT     H211486   3.894   6.056   3.899 -0.1385  1.8856  0.8082
27420WAT    EPW11487   3.884   6.037   3.984  0.1842  0.0126  0.4815
27421WAT      O11488   0.667   5.659   6.971  0.1956  0.1971  0.4433
27421WAT     H111489   0.722   5.651   7.049  0.7093 -0.9256 -0.0093
27421WAT     H211490   0.592   5.711   7.000  1.5102  1.8278  1.0478
27421WAT    EPW11491   0.664   5.665   6.985  0.4368  0.2642  0.4635
27422WAT      O11492  -2.645   6.014   5.208 -0.0519  0.0039  0.0845
27422WAT     H111493  -2.676   6.022   5.117  1.1352  0.9553 -0.2558
27422WAT     H211494  -2.658   5.921   5.229  2.5730 -1.0300 -2.1969
27422WAT    EPW11495  -2.651   6.003   5.199  0.4508 -0.0069 -0.2613
27423WAT      O11496   4.930   9.505   2.521 -0.0095  0.8988  0.7482
27423WAT     H111497   4.981   9.432   2.556  0.4976  1.1715  0.5857
27423WAT     H211498   4.857   9.514   2.581 -0.4681 -0.2004  0.3821
27423WAT    EPW11499   4.927   9.497   2.533 -0.0031  0.7901  0.6784
27424WAT      O11500   2.728   6.482   5.337  0.3409  0.3437 -0.1395
27424WAT     H111501   2.822   6.488   5.356  0.4681 -0.1033 -0.6031
27424WAT     H211502   2.713   6.389   5.320 -0.0936  0.4837 -0.5279
27424WAT    EPW11503   2.739   6.471   5.337  0.3003  0.3033 -0.2518
27425WAT      O11504   2.894   8.684   6.142 -0.2023  0.1607  0.1191
27425WAT     H111505   2.845   8.712   6.219  0.8466  2.7419 -0.0574
27425WAT     H211506   2.848   8.606   6.112 -2.2999  0.6715  1.7472
27425WAT    EPW11507   2.882   8.677   6.148 -0.3406  0.5689  0.3107
27426WAT      O11508  -2.721   7.734   1.070 -0.2548 -0.9732  0.0210
27426WAT     H111509  -2.759   7.651   1.043 -0.7511 -1.6363  2.5443
27426WAT     H211510  -2.628   7.715   1.082 -0.7242 -1.9458  2.9768
27426WAT    EPW11511  -2.714   7.721   1.068 -0.3822 -1.1890  0.7437
27427WAT      O11512  -1.907   6.801   5.024 -0.4271  0.0344 -0.6597
27427WAT     H111513  -1.929   6.894   5.017 -0.8411 -0.1463 -2.3888
27427WAT     H211514  -1.832   6.790   4.965  0.0974 -0.6033  0.1028
27427WAT    EPW11515  -1.900   6.812   5.015 -0.4125 -0.0737 -0.7870
27428WAT      O11516   5.999   5.808   4.679  0.2884 -0.3732  0.1681
27428WAT     H111517   6.046   5.725   4.686  2.3437  0.6591 -0.5302
27428WAT     H211518   5.968   5.825   4.768  0.3199 -1.6093  0.4356
27428WAT    EPW11519   6.001   5.799   4.692  0.5639 -0.4001  0.1113
27429WAT      O11520  -5.608   5.098   7.218 -0.4846 -0.4308 -0.1876
27429WAT     H111521  -5.647   5.072   7.135 -3.1443 -2.9585  1.6415
27429WAT     H211522  -5.648   5.039   7.283  1.5302  1.2921  2.8819
27429WAT    EPW11523  -5.619   5.087   7.216 -0.5698 -0.5369  0.4585
27430WAT      O11524   6.602   0.056   6.739 -0.7549  0.1937  0.1724
27430WAT     H111525   6.639   0.111   6.670 -1.7137 -0.2910 -0.7526
27430WAT     H211526   6.678   0.017   6.782 -0.0183 -3.0366 -3.4637
27430WAT    EPW11527   6.617   0.058   6.735 -0.7844 -0.2963 -0.4294
27431WAT      O11528   6.501   3.659   4.872  0.1618  0.2199  0.3412
27431WAT     H111529   6.566   3.694   4.811 -0.9308 -2.5918 -2.7710
27431WAT     H211530   6.417   3.676   4.829 -0.7883 -0.7442  1.7455
27431WAT    EPW11531   6.499   3.666   4.858 -0.1075 -0.2781  0.1159
27432WAT      O11532  -2.947   7.597   8.648 -0.7923  0.6785  0.2278
27432WAT     H111533  -2.946   7.598   8.744 -1.5992 -0.0707  0.2635
27432WAT     H211534  -2.879   7.659   8.622 -0.6716  1.0051  1.2858
27432WAT    EPW11535  -2.938   7.605   8.657 -0.8827  0.6227  0.3724
27433WAT      O11536  -5.136   4.756   6.480  0.9395 -0.1837  0.2700
27433WAT     H111537  -5.099   4.689   6.423 -1.8500  0.7843 -3.0897
27433WAT     H211538  -5.229   4.733   6.487  0.2427  2.3120  0.4147
27433WAT    EPW11539  -5.144   4.744   6.473  0.4795  0.2732 -0.1543
27434WAT      O11540   2.789   9.064   4.197  0.4649 -0.0109 -0.5926
27434WAT     H111541   2.805   8.975   4.164  0.1488 -0.9782  1.6373
27434WAT     H211542   2.874   9.093   4.228  0.2353 -0.3298  0.3847
27434WAT    EPW11543   2.802   9.056   4.197  0.3930 -0.1807 -0.1698
27435WAT      O11544  -1.782   9.307   5.308  0.5195  0.2354 -0.8625
27435WAT     H111545  -1.849   9.354   5.358  0.3439 -0.3225 -0.5661
27435WAT     H211546  -1.750   9.240   5.367  2.4631  1.4625 -0.4682
27435WAT    EPW11547  -1.787   9.305   5.322  0.7527  0.3238 -0.7713
27436WAT      O11548  -0.906   9.759   7.104  0.0891 -0.2999 -0.6990
27436WAT     H111549  -0.873   9.806   7.181  0.6340  0.1618 -1.1940
27436WAT     H211550  -0.841   9.778   7.036 -1.0247  0.3479 -1.6204
27436WAT    EPW11551  -0.893   9.768   7.105  0.0141 -0.1535 -0.8857
27437WAT      O11552  -0.497   9.030   8.541 -0.3793  0.4595  0.0904
27437WAT     H111553  -0.446   8.983   8.608  0.8663  0.1933 -1.0047
27437WAT     H211554  -0.588   9.021   8.570 -0.0221 -1.1614  0.8173
27437WAT    EPW11555  -0.502   9.023   8.554 -0.1679  0.2103  0.0420
27438WAT      O11556  -5.468   8.920   8.909 -0.1347  0.1805  0.0839
27438WAT     H111557  -5.537   8.979   8.939  0.2782  0.8978 -0.3425
27438WAT     H211558  -5.387   8.965   8.930  0.1836 -0.0521 -0.6060
27438WAT    EPW11559  -5.466   8.933   8.916 -0.0384  0.2446 -0.0634
27439WAT      O11560   0.336   5.721   8.190  0.4946 -0.0153 -0.8522
27439WAT     H111561   0.363   5.689   8.276  0.8732 -0.9904 -1.3286
27439WAT     H211562   0.417   5.725   8.139  0.2114  0.1479 -1.3006
27439WAT    EPW11563   0.350   5.718   8.195  0.5072 -0.1225 -0.9742
27440WAT      O11564   7.232   3.219   2.047  0.4184  0.2116  0.1573
27440WAT     H111565   7.313   3.243   2.001  0.0421 -2.3195 -2.0232
27440WAT     H211566   7.260   3.202   2.137  1.7038  2.4227  0.2618
27440WAT    EPW11567   7.246   3.220   2.053  0.5383  0.1694 -0.1165
27441WAT      O11568   5.526   2.609   4.668  0.4954  0.1722  0.1319
27441WAT     H111569   5.582   2.686   4.675  0.0473  0.4738  0.4386
27441WAT     H211570   5.455   2.636   4.609  1.0296 -0.4252 -0.8096
27441WAT    EPW11571   5.524   2.623   4.661  0.5069  0.1333  0.0482
27442WAT      O11572   7.829   0.475   4.037  0.1106 -0.4023 -0.3432
27442WAT     H111573   7.911   0.523   4.027  0.2765 -0.9826 -2.2816
27442WAT     H211574   7.856   0.386   4.060 -0.0782 -0.2060  0.6878
27442WAT    EPW11575   7.844   0.470   4.039  0.1075 -0.4530 -0.4630
27443WAT      O11576   7.110   0.327   3.425 -0.3739 -0.4116 -1.0094
27443WAT     H111577   7.066   0.273   3.491  0.1784 -0.0822 -0.3648
27443WAT     H211578   7.145   0.264   3.362 -0.0135 -0.7855 -0.4390
27443WAT    EPW11579   7.109   0.312   3.425 -0.2537 -0.4175 -0.8491
27444WAT      O11580  -1.074   2.930   4.034 -0.1267 -0.2439 -0.6933
27444WAT     H111581  -0.994   2.947   4.084 -1.7230  0.1512  1.9552
27444WAT     H211582  -1.068   2.837   4.012  1.6593  0.0908 -1.7862
27444WAT    EPW11583  -1.063   2.920   4.038 -0.1016 -0.1476 -0.4880
27445WAT      O11584   2.275   3.824   5.754 -0.4523  0.4888  0.0540
27445WAT     H111585   2.299   3.854   5.666  0.1023 -0.4615 -0.1353
27445WAT     H211586   2.354   3.838   5.806 -0.7448  0.9443  0.3790
27445WAT    EPW11587   2.289   3.830   5.749 -0.4177  0.4236  0.0720
27446WAT      O11588   1.797   9.713   4.220  0.1389 -0.5987 -0.4405
27446WAT     H111589   1.805   9.786   4.282 -1.1494 -0.6369 -0.2089
27446WAT     H211590   1.707   9.684   4.229 -0.2588 -0.2529 -2.7349
27446WAT    EPW11591   1.786   9.719   4.230 -0.0834 -0.5579 -0.7126
27447WAT      O11592  -1.983   5.962   3.675 -0.6388 -0.2727 -0.4177
27447WAT     H111593  -1.917   5.908   3.718  0.4875  0.8268 -0.6963
27447WAT     H211594  -2.066   5.938   3.717  0.2446 -0.0729  1.5463
27447WAT    EPW11595  -1.985   5.952   3.686 -0.3738 -0.1011 -0.1955
27448WAT      O11596  -1.796   5.140   2.802 -0.4552  0.3155 -0.1630
27448WAT     H111597  -1.740   5.132   2.724  0.6031 -0.1300  0.6150
27448WAT     H211598  -1.795   5.053   2.842  1.6334  1.2217  2.0471
27448WAT    EPW11599  -1.788   5.128   2.797 -0.0402  0.3762  0.2311
27449WAT      O11600   5.969   1.373   6.841  0.1747  0.1355 -0.1452
27449WAT     H111601   6.064   1.365   6.838  0.2255  0.6995 -0.3235
27449WAT     H211602   5.942   1.322   6.917  0.5525 -0.6127 -0.5099
27449WAT    EPW11603   5.978   1.365   6.850  0.2313  0.1112 -0.2167
27450WAT      O11604   4.353   5.457   5.048 -0.6520  0.0056  0.1165
27450WAT     H111605   4.374   5.375   5.003  0.8282 -0.6865  1.9093
27450WAT     H211606   4.354   5.433   5.141 -0.2566  2.0287  0.6778
27450WAT    EPW11607   4.356   5.443   5.055 -0.4048  0.1812  0.4270
27451WAT      O11608  -4.601   7.685   3.309  0.5567 -0.9308 -0.6308
27451WAT     H111609  -4.637   7.759   3.260 -3.4453 -0.5818  2.3477
27451WAT     H211610  -4.570   7.625   3.242 -1.4974  0.8791 -3.4320
27451WAT    EPW11611  -4.602   7.687   3.293 -0.2420 -0.6461 -0.6074
27452WAT      O11612   8.611   4.843   0.207  0.5223 -0.1662  0.0059
27452WAT     H111613   8.557   4.893   0.268  1.1513  0.9307 -0.3164
27452WAT     H211614   8.625   4.759   0.250  1.7572  0.9128  1.8405
27452WAT    EPW11615   8.606   4.838   0.220  0.7677  0.1209  0.2053
27453WAT      O11616   0.139   0.716   2.336 -0.1923  0.3686  0.4393
27453WAT     H111617   0.148   0.629   2.297  2.5683 -0.6683  2.9802
27453WAT     H211618   0.137   0.776   2.262  1.8855 -1.6029 -1.3744
27453WAT    EPW11619   0.140   0.712   2.321  0.4459 -0.0282  0.5351
27454WAT      O11620  -4.878   8.935   7.643 -0.1301 -0.0827  0.3723
27454WAT     H111621  -4.828   9.015   7.657  0.2521 -0.3612  0.6601
27454WAT     H211622  -4.926   8.950   7.562  0.3521  0.2333  0.1360
27454WAT    EPW11623  -4.878   8.947   7.634 -0.0160 -0.0777  0.3793
27455WAT      O11624  -1.803   0.295   6.779 -0.4710  0.0189  0.1399
27455WAT     H111625  -1.849   0.245   6.711 -0.6350  0.1523  0.1512
27455WAT     H211626  -1.711   0.293   6.753 -0.2873 -1.3337  0.7758
27455WAT    EPW11627  -1.797   0.288   6.766 -0.4684 -0.1419  0.2253
27456WAT      O11628   1.310   8.889   3.078 -0.5350  0.2129  0.3148
27456WAT     H111629   1.398   8.869   3.046 -0.9018  2.2796 -2.3365
27456WAT     H211630   1.286   8.969   3.032 -3.1524  0.6674  2.2859
27456WAT    EPW11631   1.318   8.897   3.067 -0.9286  0.5455  0.2252
27457WAT      O11632   2.019   3.972   7.198  0.4915 -0.0187  0.1503
27457WAT     H111633   2.067   4.012   7.125 -0.6661 -0.1595 -0.7067
27457WAT     H211634   2.017   3.878   7.177  0.7859 -0.1676  0.7511
27457WAT    EPW11635   2.025   3.965   7.186  0.3777 -0.0569  0.1163
27458WAT      O11636   5.275   5.796   4.604 -0.3219  0.2513 -0.4204
27458WAT     H111637   5.358   5.768   4.640  0.1343  0.6511 -1.1255
27458WAT     H211638   5.223   5.716   4.597  0.6258 -0.3015 -1.5583
27458WAT    EPW11639   5.279   5.782   4.608 -0.1371  0.2313 -0.6633
27459WAT      O11640   6.598   3.601   5.113 -0.1324  0.1253  0.1698
27459WAT     H111641   6.589   3.615   5.019  3.8051  0.8417 -0.2928
27459WAT     H211642   6.601   3.506   5.123  1.0361  0.0446 -0.7066
27459WAT    EPW11643   6.597   3.591   5.102  0.5410  0.2091 -0.0069
27460WAT      O11644   1.648   4.907   8.122  0.1408 -0.3768 -0.1264
27460WAT     H111645   1.573   4.862   8.161  1.0743 -1.0816  0.9203
27460WAT     H211646   1.725   4.862   8.157  1.1694  2.2856  1.3884
27460WAT    EPW11647   1.649   4.895   8.132  0.3996 -0.1187  0.2117
27461WAT      O11648  -2.158   9.581   3.868  0.3875  0.5832 -0.5699
27461WAT     H111649  -2.140   9.560   3.777 -2.1477 -0.1912 -0.9703
27461WAT     H211650  -2.096   9.651   3.889  2.9469 -1.1319 -1.9634
27461WAT    EPW11651  -2.147   9.588   3.859  0.3908  0.2546 -0.8065
27462WAT      O11652  -4.027   8.215   4.614  0.0837  0.2531  0.5813
27462WAT     H111653  -4.027   8.248   4.704  1.7571  1.5553  0.1591
27462WAT     H211654  -3.972   8.277   4.566 -1.1433 -0.1591 -1.4563
27462WAT    EPW11655  -4.019   8.227   4.620  0.1426  0.3705  0.2568
27463WAT      O11656  -0.265   1.543   1.997 -0.1898  0.5062 -0.0434
27463WAT     H111657  -0.202   1.611   2.022  0.3777  0.6833 -1.8128
27463WAT     H211658  -0.330   1.544   2.068  0.1827  2.3911  0.3374
27463WAT    EPW11659  -0.265   1.552   2.010 -0.0658  0.7782 -0.2265
27464WAT      O11660  -5.426   6.712   5.565 -0.2283 -0.0603 -0.1814
27464WAT     H111661  -5.479   6.723   5.486  0.2258 -1.5840 -0.7347
27464WAT     H211662  -5.487   6.731   5.637 -0.8035  0.7827 -0.8650
27464WAT    EPW11663  -5.441   6.716   5.564 -0.2444 -0.1502 -0.3445
27465WAT      O11664  -1.410   9.145   8.185 -0.2551 -0.3295  0.3460
27465WAT     H111665  -1.324   9.179   8.162 -0.6249  0.2943 -0.1343
27465WAT     H211666  -1.392   9.060   8.225  0.8436  1.0550  3.0583
27465WAT    EPW11667  -1.396   9.138   8.188 -0.1590 -0.0648  0.6399
27466WAT      O11668   3.312   4.759   4.585 -0.2456  0.2998  0.2806
27466WAT     H111669   3.349   4.773   4.498 -0.7580 -2.3889 -0.4615
27466WAT     H211670   3.236   4.817   4.589  0.4095  1.2402 -0.6334
27466WAT    EPW11671   3.307   4.768   4.574 -0.2267  0.0691  0.0622
27467WAT      O11672  -1.069   9.817   1.189  0.7487 -0.4665 -0.0701
27467WAT     H111673  -1.140   9.755   1.172  0.0351  0.1662  0.4807
27467WAT     H211674  -1.105   9.901   1.159  2.4235 -0.5595 -2.7250
27467WAT    EPW11675  -1.083   9.820   1.183  0.8755 -0.3953 -0.3476
27468WAT      O11676  -3.746   4.504   6.297  0.7263 -0.2241 -0.0944
27468WAT     H111677  -3.720   4.515   6.206 -0.1124  0.1936 -0.2876
27468WAT     H211678  -3.827   4.453   6.294 -0.9397  2.2346  0.2036
27468WAT    EPW11679  -3.753   4.499   6.285  0.3960  0.1552 -0.0806
27469WAT      O11680   1.370   1.678   6.998 -0.2977  0.3410  0.2451
27469WAT     H111681   1.339   1.646   6.913  0.1648  1.5809 -0.4111
27469WAT     H211682   1.443   1.621   7.019 -1.7687 -1.3918  0.8964
27469WAT    EPW11683   1.375   1.666   6.989 -0.4307  0.2760  0.2446
27470WAT      O11684   8.258   1.182   0.674  0.1166  0.5213  0.5778
27470WAT     H111685   8.228   1.258   0.625 -1.2263  0.2725  0.9648
27470WAT     H211686   8.301   1.219   0.751 -2.5958  0.9799  2.0040
27470WAT    EPW11687   8.260   1.197   0.678 -0.4187  0.5490  0.8169
27471WAT      O11688  -1.742   5.094   4.849 -0.1299  0.0287 -0.0163
27471WAT     H111689  -1.825   5.085   4.895  0.2261  1.1199  0.8818
27471WAT     H211690  -1.766   5.115   4.759 -0.8361  0.3992  0.2502
27471WAT    EPW11691  -1.756   5.096   4.843 -0.1760  0.2217  0.1373
27472WAT      O11692  -0.797   2.439   7.858 -0.6900  0.1934  0.6177
27472WAT     H111693  -0.848   2.488   7.922  0.3459 -0.6173  2.1425
27472WAT     H211694  -0.717   2.415   7.905  1.1810  1.4764 -1.6543
27472WAT    EPW11695  -0.793   2.442   7.873 -0.3066  0.2557  0.5193
27473WAT      O11696   2.632   0.564   4.121 -0.3160 -0.1044 -0.2451
27473WAT     H111697   2.691   0.512   4.177  0.2479  1.2035  0.4152
27473WAT     H211698   2.605   0.503   4.052 -0.1807 -1.4554  0.8427
27473WAT    EPW11699   2.636   0.549   4.120 -0.2238 -0.1101 -0.0145
27474WAT      O11700   3.401   5.319   2.473  0.0510 -0.5248 -0.2937
27474WAT     H111701   3.345   5.331   2.550  0.5295  1.8875 -0.2379
27474WAT     H211702   3.475   5.378   2.488  1.6042 -2.1041 -1.3345
27474WAT    EPW11703   3.403   5.329   2.485  0.3189 -0.4148 -0.4236
27475WAT      O11704  -3.464   1.969   5.601  0.1098  0.3176 -0.1546
27475WAT     H111705  -3.473   1.896   5.663  0.7082 -0.7510 -1.2910
27475WAT     H211706  -3.500   2.045   5.648 -1.1050 -0.8208  0.8224
27475WAT    EPW11707  -3.470   1.970   5.616  0.0285  0.0265 -0.1755
27476WAT      O11708   1.944   6.157   2.715 -0.5515  1.1936 -0.4437
27476WAT     H111709   1.887   6.082   2.697 -2.0160  1.4837  2.3985
27476WAT     H211710   1.885   6.233   2.712 -0.2613  1.5852  1.8430
27476WAT    EPW11711   1.929   6.157   2.712 -0.7064  1.2834  0.2328
27477WAT      O11712   2.365   5.512   2.222  0.1928 -0.4514 -0.1242
27477WAT     H111713   2.269   5.519   2.228  0.3160  0.2469  2.0391
27477WAT     H211714   2.384   5.422   2.251  0.1306 -1.5059 -2.9762
27477WAT    EPW11715   2.355   5.501   2.227  0.2009 -0.4983 -0.2151
27478WAT      O11716  -6.049   9.240   7.015  0.2655 -1.2198  0.5115
27478WAT     H111717  -6.005   9.160   6.986  1.3617 -0.5779  0.3198
27478WAT     H211718  -6.070   9.287   6.934 -0.8542 -1.5478  0.6021
27478WAT    EPW11719  -6.046   9.236   7.001  0.2625 -1.1783  0.4983
27479WAT      O11720  -3.851   7.820   7.852 -0.0678  0.1739  0.1591
27479WAT     H111721  -3.852   7.843   7.945 -1.3232 -1.4718  0.6085
27479WAT     H211722  -3.787   7.749   7.846 -0.3194 -0.0337 -0.1265
27479WAT    EPW11723  -3.843   7.814   7.864 -0.2667 -0.0706  0.1810
27480WAT      O11724   1.397   6.974   1.606 -0.7138 -0.2140  0.3967
27480WAT     H111725   1.325   6.946   1.663 -2.0906  1.4598 -0.4633
27480WAT     H211726   1.363   6.963   1.517 -0.3846  1.7355 -0.0049
27480WAT    EPW11727   1.383   6.969   1.602 -0.8520  0.2639  0.2303
27481WAT      O11728   0.730   3.746   2.155 -0.0747 -0.8505  0.1506
27481WAT     H111729   0.750   3.716   2.244 -1.2729 -1.1104  0.3453
27481WAT     H211730   0.689   3.831   2.168  2.0361  0.3080 -0.3241
27481WAT    EPW11731   0.727   3.753   2.169  0.0457 -0.7319  0.1136
27482WAT      O11732   4.255   1.479   6.844  0.1077  0.0730 -0.3666
27482WAT     H111733   4.192   1.410   6.827  0.6293 -0.1851 -1.3373
27482WAT     H211734   4.291   1.459   6.930 -2.2406  1.1140  0.9590
27482WAT    EPW11735   4.251   1.467   6.853 -0.1333  0.1763 -0.3200
27483WAT      O11736   6.673   0.677   0.079 -0.0743 -0.2833  0.5062
27483WAT     H111737   6.614   0.609   0.113 -1.4811  0.6794  0.0720
27483WAT     H211738   6.615   0.749   0.055  1.3572  0.9608  0.6480
27483WAT    EPW11739   6.658   0.677   0.080 -0.0710  0.0077  0.4676
27484WAT      O11740   5.139   3.695   1.662  0.9572  0.1308 -0.6093
27484WAT     H111741   5.226   3.674   1.696  1.0647  1.2308 -0.1489
27484WAT     H211742   5.082   3.626   1.695  1.0040  1.2575  2.0582
27484WAT    EPW11743   5.143   3.683   1.671  0.9775  0.4245 -0.1967
27485WAT      O11744   4.019   5.932   4.371  0.2759  0.1942  0.5567
27485WAT     H111745   4.105   5.897   4.393 -0.0013  0.2529  1.8263
27485WAT     H211746   3.995   5.987   4.446  0.1067  2.0267 -0.7777
27485WAT    EPW11747   4.027   5.934   4.384  0.2170  0.4435  0.5481
27486WAT      O11748   3.508   0.866   2.920  0.1551 -0.3551  0.1420
27486WAT     H111749   3.472   0.788   2.879 -2.4043  0.7352  0.1545
27486WAT     H211750   3.466   0.869   3.006  0.9336  0.5605  0.5086
27486WAT    EPW11751   3.498   0.856   2.926 -0.0798 -0.0905  0.1920
27487WAT      O11752  -0.171   4.697   3.036  0.4814 -0.9118  0.2138
27487WAT     H111753  -0.252   4.669   3.077  0.1330  1.1617  1.1065
27487WAT     H211754  -0.165   4.646   2.955 -2.0489 -0.6867 -0.2026
27487WAT    EPW11755  -0.181   4.687   3.030  0.1017 -0.6087  0.2766
27488WAT      O11756  -6.738   5.550   8.227 -0.8895  0.1549  0.3750
27488WAT     H111757  -6.765   5.574   8.139  0.2372 -2.2341 -0.7126
27488WAT     H211758  -6.651   5.512   8.216  0.9059  2.9960  3.0478
27488WAT    EPW11759  -6.730   5.548   8.214 -0.5040  0.2143  0.5841
27489WAT      O11760   7.020   0.206   5.217  0.4845  0.0541  0.4706
27489WAT     H111761   7.020   0.297   5.190  0.7173 -0.4558 -1.3716
27489WAT     H211762   7.088   0.201   5.284  1.7600  0.9028 -0.7063
27489WAT    EPW11763   7.029   0.217   5.223  0.6833  0.0988  0.0725
27490WAT      O11764   6.376   9.954   1.178  0.3883 -0.1076  0.0700
27490WAT     H111765   6.316  10.018   1.215  2.9955  1.7155  1.5110
27490WAT     H211766   6.361   9.874   1.228 -2.0984 -0.3352 -0.9360
27490WAT    EPW11767   6.366   9.952   1.189  0.4044  0.1030  0.1274
27491WAT      O11768   4.933   3.498   1.756  0.2556  0.2159  0.2655
27491WAT     H111769   4.962   3.438   1.825 -0.0099  0.0723  0.2549
27491WAT     H211770   4.844   3.468   1.734  0.6401 -0.2650 -0.7158
27491WAT    EPW11771   4.925   3.486   1.762  0.2713  0.1335  0.1347
27492WAT      O11772   5.484   4.681   1.911  0.1510  0.3606 -0.3347
27492WAT     H111773   5.578   4.693   1.924  0.2279  0.7995 -1.2500
27492WAT     H211774   5.450   4.769   1.895 -0.5889  0.3352  0.9776
27492WAT    EPW11775   5.492   4.694   1.911  0.0637  0.4151 -0.2823
27493WAT      O11776   3.792   3.842   2.226 -0.1797 -0.3436 -0.3496
27493WAT     H111777   3.862   3.896   2.189  1.6214 -2.1248  0.2132
27493WAT     H211778   3.793   3.862   2.319  0.6489 -1.4240 -0.1016
27493WAT    EPW11779   3.802   3.851   2.233  0.1671 -0.7210 -0.2427
27494WAT      O11780  -2.043   0.507   3.231  0.7221  0.3009  0.5941
27494WAT     H111781  -1.951   0.480   3.234  1.2838  2.1176  1.6302
27494WAT     H211782  -2.041   0.590   3.183  0.2730  2.3758  3.8361
27494WAT    EPW11783  -2.031   0.515   3.225  0.7368  0.8142  1.1584
27495WAT      O11784  -0.840   2.421   6.152 -0.2252  0.2436 -0.0505
27495WAT     H111785  -0.899   2.372   6.210 -3.2216  1.5543 -1.7564
27495WAT     H211786  -0.898   2.478   6.101  2.5875  1.7858 -1.8052
27495WAT    EPW11787  -0.856   2.422   6.153 -0.2494  0.6199 -0.5071
27496WAT      O11788  -0.463   3.223   0.152 -0.3140  0.0338  0.1270
27496WAT     H111789  -0.474   3.140   0.106  0.9675  0.9569 -2.0030
27496WAT     H211790  -0.368   3.236   0.156 -0.4907  1.7361 -0.2976
27496WAT    EPW11791  -0.452   3.214   0.146 -0.1683  0.3802 -0.2099
27497WAT      O11792   1.510   3.934   0.924  0.4137  0.4424 -0.1747
27497WAT     H111793   1.429   3.887   0.943 -0.5319  1.7978 -0.7271
27497WAT     H211794   1.539   3.897   0.840  0.2857  0.0652 -0.0575
27497WAT    EPW11795   1.503   3.923   0.915  0.2722  0.5715 -0.2322
27498WAT      O11796  -5.163   9.219   7.301  0.1532 -0.2502  0.4509
27498WAT     H111797  -5.113   9.250   7.225 -0.6434  0.8461  0.3426
27498WAT     H211798  -5.141   9.281   7.371 -2.0522  1.0958  0.0251
27498WAT    EPW11799  -5.153   9.231   7.300 -0.2427  0.0715  0.3805
27499WAT      O11800   1.746   5.751   8.004  0.5523 -0.1572  0.1028
27499WAT     H111801   1.681   5.683   8.022  0.4936 -0.5179 -1.3227
27499WAT     H211802   1.822   5.727   8.057 -0.5557  0.4843  2.1089
27499WAT    EPW11803   1.747   5.739   8.013  0.3984 -0.1202  0.1793
27500WAT      O11804   3.978   1.062   8.873  0.3771  0.0504 -0.2787
27500WAT     H111805   4.038   0.990   8.854  1.0617  0.4839  0.1754
27500WAT     H211806   3.966   1.106   8.789  3.1143  1.7557  0.1212
27500WAT    EPW11807   3.984   1.058   8.860  0.8284  0.3325 -0.1659
27501WAT      O11808   0.346   5.923   5.118 -0.0597  0.0354 -0.0080
27501WAT     H111809   0.257   5.958   5.129 -0.3320 -0.6875  0.1787
27501WAT     H211810   0.342   5.836   5.159  0.9373  0.2842  0.6371
27501WAT    EPW11811   0.334   5.916   5.125  0.0359 -0.0272  0.1018
27502WAT      O11812   3.882   5.099   2.943 -0.5902 -0.1235 -0.1991
27502WAT     H111813   3.900   5.184   2.982  0.0123  0.4844 -1.7159
27502WAT     H211814   3.793   5.078   2.971 -0.4107  0.5604  0.9435
27502WAT    EPW11815   3.872   5.107   2.952 -0.4871  0.0470 -0.2484
27503WAT      O11816   3.691   5.078   1.426 -0.6083 -0.0923  0.6609
27503WAT     H111817   3.759   5.141   1.404  1.7842 -2.2354  1.3997
27503WAT     H211818   3.660   5.105   1.513 -0.5757  0.7704  0.4152
27503WAT    EPW11819   3.696   5.090   1.435 -0.2885 -0.2611  0.7259
27504WAT      O11820   4.119   7.717   1.582  0.0016 -0.4585 -0.1170
27504WAT     H111821   4.143   7.624   1.586  0.6640 -0.2532  2.3814
27504WAT     H211822   4.166   7.750   1.506 -0.3087 -2.1495 -1.1164
27504WAT    EPW11823   4.128   7.709   1.572  0.0479 -0.6542  0.0807
27505WAT      O11824  -1.734   3.321   8.408 -0.1580 -0.8394  0.1342
27505WAT     H111825  -1.705   3.262   8.337  0.8001 -0.8719  0.5337
27505WAT     H211826  -1.829   3.326   8.397  0.1483  1.3532 -2.8936
27505WAT    EPW11827  -1.742   3.314   8.397  0.0088 -0.5546 -0.2127
27506WAT      O11828  -4.166   8.403   3.814 -0.3045 -0.9349  0.5777
27506WAT     H111829  -4.151   8.357   3.897 -0.2369 -1.9261  0.0256
27506WAT     H211830  -4.236   8.466   3.834  1.6837  0.9547  2.1589
27506WAT    EPW11831  -4.173   8.406   3.828 -0.0334 -0.8168  0.7135
27507WAT      O11832  -2.227   1.602   6.460  0.4588  0.6502  0.6862
27507WAT     H111833  -2.157   1.549   6.496  1.4574  1.8042  0.5042
27507WAT     H211834  -2.308   1.558   6.488  1.1782 -2.2890 -1.3892
27507WAT    EPW11835  -2.229   1.589   6.468  0.6853  0.4148  0.3886
27508WAT      O11836   4.240   1.870   3.630  0.4090  0.4011 -0.2690
27508WAT     H111837   4.212   1.939   3.569 -0.0967  0.0807 -0.4008
27508WAT     H211838   4.302   1.914   3.688 -0.4472  1.1523  0.0998
27508WAT    EPW11839   4.245   1.885   3.630  0.2294  0.4579 -0.2377
27509WAT      O11840  -0.792   0.234   7.379 -0.4078  1.0973 -0.4529
27509WAT     H111841  -0.853   0.259   7.448 -0.0671  0.2470  0.1841
27509WAT     H211842  -0.846   0.194   7.311 -0.4459 -1.2285  0.8523
27509WAT    EPW11843  -0.807   0.232   7.379 -0.3679  0.6784 -0.1967
27510WAT      O11844   4.532   3.108   7.802  0.4388  0.1086  0.4578
27510WAT     H111845   4.447   3.097   7.845 -0.7392  0.5588 -1.6219
27510WAT     H211846   4.569   3.019   7.799 -0.6506 -0.3405  0.0344
27510WAT    EPW11847   4.526   3.095   7.807  0.1397  0.1087  0.1276
27511WAT      O11848  -5.254   3.380   7.013 -0.1911 -0.4251 -0.3121
27511WAT     H111849  -5.257   3.460   7.067 -3.6685 -1.3499  1.1382
27511WAT     H211850  -5.177   3.333   7.045  0.7327  1.3613  0.2666
27511WAT    EPW11851  -5.244   3.385   7.025 -0.5279 -0.3115 -0.0446
27512WAT      O11852   4.152   4.310   4.549  0.0064 -0.1667  0.3576
27512WAT     H111853   4.170   4.301   4.642 -0.1620  1.5235  0.5725
27512WAT     H211854   4.239   4.322   4.509  0.0095 -0.0119  0.4101
27512WAT    EPW11855   4.166   4.310   4.556 -0.0153  0.0768  0.3929
27513WAT      O11856   3.942   1.154   4.959  0.2796 -0.3210 -0.8182
27513WAT     H111857   3.945   1.079   4.900  1.0855  0.1129 -1.3609
27513WAT     H211858   3.993   1.126   5.036  1.2688 -0.0779 -1.3582
27513WAT    EPW11859   3.949   1.140   4.961  0.5164 -0.2317 -0.9611
27514WAT      O11860  -0.030   4.665   0.503  0.1220  0.2088 -0.0016
27514WAT     H111861  -0.058   4.577   0.530  0.4498 -0.3288 -1.3627
27514WAT     H211862  -0.006   4.656   0.411  1.5997  1.3926  0.2269
27514WAT    EPW11863  -0.031   4.652   0.495  0.3601  0.2942 -0.1510
27515WAT      O11864   4.552   5.293   5.498  0.7648  1.0929 -0.4169
27515WAT     H111865   4.574   5.201   5.486 -0.2100  0.3793  2.4022
27515WAT     H211866   4.628   5.330   5.544  0.3361  1.1757  0.2361
27515WAT    EPW11867   4.565   5.286   5.502  0.5796  1.0097  0.0410
27516WAT      O11868  -0.269   7.953   6.976  1.0487  0.1721 -0.1507
27516WAT     H111869  -0.224   7.879   6.936 -0.2357  0.0271 -1.4586
27516WAT     H211870  -0.287   7.926   7.066 -1.0333 -1.9544 -1.0885
27516WAT    EPW11871  -0.266   7.940   6.982  0.6047 -0.1278 -0.4468
27517WAT      O11872  -1.165   5.594   4.771 -0.4824 -0.0813 -0.4747
27517WAT     H111873  -1.167   5.644   4.689 -3.3152  0.7717  0.0091
27517WAT     H211874  -1.255   5.596   4.802  0.2636 -1.4936  2.0372
27517WAT    EPW11875  -1.177   5.601   4.764 -0.7577 -0.1550 -0.0796
27518WAT      O11876  -6.251   6.768   8.658  0.1912 -0.4093  0.7126
27518WAT     H111877  -6.227   6.763   8.565 -0.8319 -2.1527  0.4868
27518WAT     H211878  -6.339   6.807   8.657 -0.2789 -1.4313  0.8284
27518WAT    EPW11879  -6.260   6.773   8.645 -0.0057 -0.7741  0.6976
27519WAT      O11880   0.112   6.319   0.335 -0.4383 -0.4483  0.2308
27519WAT     H111881   0.064   6.248   0.292  0.3282 -1.2137  0.6050
27519WAT     H211882   0.120   6.291   0.426  1.8520 -1.0197 -0.0721
27519WAT    EPW11883   0.107   6.306   0.341 -0.0352 -0.6249  0.2402
27520WAT      O11884  -0.960   6.290   7.450  0.1086  0.4363 -0.0998
27520WAT     H111885  -0.866   6.280   7.466  0.1274  0.2348 -0.3355
27520WAT     H211886  -0.992   6.201   7.437 -0.5970  0.2166  2.5624
27520WAT    EPW11887  -0.951   6.277   7.450  0.0180  0.3808  0.2203
27521WAT      O11888  -6.973   8.196   8.443 -0.2215  0.9408 -1.0829
27521WAT     H111889  -7.005   8.240   8.364 -1.2346  0.6706 -0.8436
27521WAT     H211890  -7.041   8.213   8.508  0.7974  1.5316 -0.1294
27521WAT    EPW11891  -6.986   8.204   8.441 -0.2208  0.9832 -0.9255
27522WAT      O11892   1.081   5.826   2.746 -0.3328  0.7064  0.3728
27522WAT     H111893   1.001   5.775   2.729 -1.0657  2.0754 -0.5022
27522WAT     H211894   1.072   5.853   2.837  0.5857 -1.5438  1.1945
27522WAT    EPW11895   1.069   5.823   2.756 -0.3083  0.5903  0.3659
27523WAT      O11896  -4.601   4.628   6.884 -0.3576  0.0327  0.0332
27523WAT     H111897  -4.695   4.614   6.881 -0.2745 -0.7894 -3.9057
27523WAT     H211898  -4.582   4.683   6.808  2.5549 -1.7850 -0.7213
27523WAT    EPW11899  -4.611   4.633   6.874  0.0374 -0.3154 -0.5858
27524WAT      O11900  -0.946   7.735   7.994  0.3637  0.0064 -0.8089
27524WAT     H111901  -0.913   7.651   8.027  3.3121  0.6442 -1.8128
27524WAT     H211902  -0.955   7.789   8.072  4.7861  0.6857 -0.4847
27524WAT    EPW11903  -0.943   7.731   8.009  1.3359  0.1802 -0.8984
27525WAT      O11904  -0.153   4.241   1.988 -0.0620 -0.6187  0.1913
27525WAT     H111905  -0.097   4.318   1.990  2.6927 -2.3958  3.6189
27525WAT     H211906  -0.213   4.252   2.061 -2.8096  0.1353 -1.9966
27525WAT    EPW11907  -0.154   4.252   1.998 -0.0611 -0.7536  0.3548
27526WAT      O11908   5.544   6.565   4.829 -0.7336  0.4396  0.0110
27526WAT     H111909   5.523   6.625   4.900  0.0837  0.3340  0.3495
27526WAT     H211910   5.463   6.515   4.815 -0.1204 -1.6498  2.9279
27526WAT    EPW11911   5.530   6.566   4.837 -0.5450  0.1502  0.4404
27527WAT      O11912   1.349   4.865   1.428  0.0016 -0.6025 -0.0950
27527WAT     H111913   1.377   4.885   1.517 -0.1156  0.7176 -0.3311
27527WAT     H211914   1.358   4.948   1.381  1.1597 -1.5488 -1.6135
27527WAT    EPW11915   1.354   4.879   1.434  0.1389 -0.5534 -0.3265
27528WAT      O11916   8.764   0.332   3.418 -0.4584  0.4895  0.3773
27528WAT     H111917   8.823   0.397   3.381 -1.0079  0.1993 -1.0801
27528WAT     H211918   8.696   0.321   3.352 -1.2865 -0.3368  1.3322
27528WAT    EPW11919   8.763   0.339   3.404 -0.6404  0.3423  0.3110
27529WAT      O11920  -3.082   1.992   6.093 -0.0642  0.3996  0.1870
27529WAT     H111921  -3.043   2.079   6.080 -0.2488  0.4222 -0.2231
27529WAT     H211922  -3.110   1.992   6.184  1.8896 -0.0071  0.8521
27529WAT    EPW11923  -3.080   2.003   6.103  0.1692  0.3488  0.2208
27530WAT      O11924   1.687   3.845   1.414 -0.3965  0.0876  0.1809
27530WAT     H111925   1.612   3.803   1.372  1.4321 -1.9080 -1.2848
27530WAT     H211926   1.756   3.779   1.412  2.0445  2.4711 -0.3726
27530WAT    EPW11927   1.687   3.831   1.408  0.1666  0.1389 -0.0854
27531WAT      O11928   4.533   0.745   8.901  0.4662  0.3251 -0.3599
27531WAT     H111929   4.504   0.666   8.854  0.2373  1.0618 -1.4841
27531WAT     H211930   4.610   0.774   8.852  0.1074  1.2163 -0.4012
27531WAT    EPW11931   4.539   0.738   8.888  0.3886  0.5398 -0.5136
27532WAT      O11932  -4.126   6.845   7.403  0.5939  0.0443  0.3389
27532WAT     H111933  -4.034   6.859   7.426  0.7296  0.3053 -0.3265
27532WAT     H211934  -4.175   6.876   7.479  1.0792 -0.9009  1.0533
27532WAT    EPW11935  -4.121   6.851   7.416  0.6759 -0.0458  0.3455
27533WAT      O11936  -0.148   4.774   6.781  0.0654 -0.0972 -0.1064
27533WAT     H111937  -0.139   4.713   6.853  0.2734 -0.3398 -0.3374
27533WAT     H211938  -0.068   4.826   6.782 -0.7762  1.2668  1.0839
27533WAT    EPW11939  -0.136   4.773   6.791 -0.0182  0.0505  0.0203
27534WAT      O11940  -4.495   6.634   8.666 -0.1273  0.1944  0.3066
27534WAT     H111941  -4.539   6.694   8.727 -0.5030 -0.2420  0.4754
27534WAT     H211942  -4.521   6.547   8.696 -0.9241 -0.0102 -0.9289
27534WAT    EPW11943  -4.504   6.630   8.678 -0.2818  0.1097  0.1655
27535WAT      O11944  -1.563   9.548   8.710 -0.1113  0.3036 -0.2771
27535WAT     H111945  -1.601   9.474   8.664 -0.7183  1.9336 -2.5712
27535WAT     H211946  -1.468   9.538   8.697 -0.1741 -0.1511 -0.3994
27535WAT    EPW11947  -1.555   9.537   8.702 -0.1997  0.4587 -0.5960
27536WAT      O11948   5.519   5.493   1.502 -0.3239  0.2693 -0.7832
27536WAT     H111949   5.557   5.566   1.552 -2.1556 -0.0860  1.2847
27536WAT     H211950   5.468   5.444   1.566 -0.3958 -1.9872 -2.4513
27536WAT    EPW11951   5.517   5.496   1.517 -0.5751 -0.0753 -0.7305
27537WAT      O11952   4.106   4.449   1.329 -0.4674  0.0112  0.4047
27537WAT     H111953   4.145   4.463   1.243 -0.5365 -0.8979  0.2157
27537WAT     H211954   4.161   4.499   1.389  0.8554 -1.0535  0.1072
27537WAT    EPW11955   4.118   4.458   1.326 -0.3021 -0.2489  0.3405
27538WAT      O11956  -5.323   4.882   8.198  0.2660 -0.3675  0.3671
27538WAT     H111957  -5.410   4.898   8.161  0.4170 -0.2044  0.0787
27538WAT     H211958  -5.277   4.966   8.190 -0.0154 -0.0484  1.8150
27538WAT    EPW11959  -5.328   4.895   8.192  0.2489 -0.3037  0.5202
27539WAT      O11960   4.152   4.322   8.410 -0.2805  0.0914 -0.5445
27539WAT     H111961   4.225   4.280   8.456 -2.9655 -2.1472  2.0978
27539WAT     H211962   4.171   4.307   8.317  2.6076 -0.2799  0.0051
27539WAT    EPW11963   4.164   4.314   8.404 -0.2537 -0.2530 -0.1235
27540WAT      O11964   0.051   3.350   6.717  0.4130 -0.1895  0.0134
27540WAT     H111965  -0.034   3.321   6.685  1.5875 -1.1365 -2.5013
27540WAT     H211966   0.104   3.270   6.717  1.6720  0.6304  0.2149
27540WAT    EPW11967   0.047   3.335   6.713  0.7340 -0.2062 -0.2918
27541WAT      O11968  -2.223   2.870   2.272  0.7886 -0.0907 -0.3258
27541WAT     H111969  -2.279   2.858   2.348  1.4556 -0.2754  0.1502
27541WAT     H211970  -2.137   2.840   2.301  1.6838  2.3198 -0.2953
27541WAT    EPW11971  -2.219   2.864   2.286  0.9947  0.2029 -0.2589
27542WAT      O11972  -1.217   6.187   1.181 -0.0224 -0.7386  0.4232
27542WAT     H111973  -1.270   6.108   1.195  0.8645 -1.8502 -2.0024
27542WAT     H211974  -1.127   6.158   1.196  0.3851 -0.4502 -1.3164
27542WAT    EPW11975  -1.212   6.173   1.185  0.1484 -0.8473 -0.1261
27543WAT      O11976  -3.019   3.218   8.936  0.1405  0.3754 -0.4340
27543WAT     H111977  -3.069   3.138   8.921  0.6860 -0.2366  0.8573
27543WAT     H211978  -2.930   3.195   8.907  0.0821  0.8640 -1.0206
27543WAT    EPW11979  -3.014   3.204   8.930  0.2047  0.3593 -0.3409
27544WAT      O11980  -3.841   5.020   6.329  0.2563  0.6824 -0.1292
27544WAT     H111981  -3.778   4.967   6.281 -3.6417 -3.7514 -1.1341
27544WAT     H211982  -3.809   5.019   6.419  0.8679 -3.0620 -0.2096
27544WAT    EPW11983  -3.828   5.013   6.335 -0.1771 -0.3963 -0.2720
27545WAT      O11984   3.429   6.201   0.364  0.0863 -0.2005  0.4612
27545WAT     H111985   3.390   6.194   0.451 -1.5338  0.9181 -0.1328
27545WAT     H211986   3.524   6.201   0.380 -0.1632 -1.0580  2.1094
27545WAT    EPW11987   3.437   6.200   0.377 -0.1603 -0.1659  0.6002
27546WAT      O11988   0.106   0.421   0.220 -0.0166 -0.0177  0.3079
27546WAT     H111989   0.033   0.373   0.180  0.9741 -1.1646 -0.1704
27546WAT     H211990   0.109   0.390   0.310  0.9033 -1.2380 -0.1196
27546WAT    EPW11991   0.097   0.411   0.227  0.2354 -0.3299  0.1884
27547WAT      O11992   2.000   4.523   1.686  0.7998  0.3349  0.6322
27547WAT     H111993   2.056   4.445   1.689  2.1430  1.2151 -0.3892
27547WAT     H211994   1.937   4.509   1.756  1.8155 -1.0758  1.3255
27547WAT    EPW11995   1.999   4.511   1.696  1.1109  0.2651  0.5889
27548WAT      O11996  -0.690   8.195   6.062 -0.2940  0.3014  0.1024
27548WAT     H111997  -0.664   8.201   5.970  0.9754 -1.7534  0.2655
27548WAT     H211998  -0.608   8.175   6.108 -1.1413 -0.0750  1.4963
27548WAT    EPW11999  -0.676   8.193   6.056 -0.2383 -0.0191  0.3078
27549WAT      O12000  -1.717   6.728   7.581  0.2487 -0.6265  0.5854
27549WAT     H112001  -1.747   6.701   7.668 -0.9654 -1.0244  0.0557
27549WAT     H212002  -1.773   6.803   7.558  2.1676  1.0891  1.1393
27549WAT    EPW12003  -1.728   6.735   7.590  0.3417 -0.4528  0.5884
27550WAT      O12004  -0.169   5.383   8.287 -0.3969 -0.8854 -0.1074
27550WAT     H112005  -0.166   5.333   8.369  1.9833  1.7684  1.6266
27550WAT     H212006  -0.181   5.473   8.315  0.4667  0.1226 -2.7038
27550WAT    EPW12007  -0.170   5.388   8.302  0.0310 -0.4022 -0.2213
27551WAT      O12008  -0.036   1.459   7.576  0.0300  0.1927 -0.0426
27551WAT     H112009   0.031   1.522   7.551  1.2364 -1.4451 -1.1941
27551WAT     H212010   0.003   1.374   7.557 -1.4502 -0.9418  1.6393
27551WAT    EPW12011  -0.022   1.456   7.570 -0.0061 -0.1730  0.0274
27552WAT      O12012  -2.977   6.034   8.772  0.2325  0.1929  0.4118
27552WAT     H112013  -3.027   6.001   8.846 -0.0471  1.9212  1.0225
27552WAT     H212014  -2.962   5.956   8.717 -3.1050 -0.4235  0.1639
27552WAT    EPW12015  -2.981   6.019   8.774 -0.2445  0.3395  0.4597
27553WAT      O12016  -5.601   9.276   8.060  0.5769  0.0124 -0.2077
27553WAT     H112017  -5.621   9.273   8.154 -2.3694  1.9500 -0.6449
27553WAT     H212018  -5.585   9.185   8.037 -1.5371 -0.9542  1.6844
27553WAT    EPW12019  -5.602   9.264   8.070 -0.0904  0.1407 -0.0157
27554WAT      O12020   8.519   0.431   0.873  0.1538 -0.3946 -0.7607
27554WAT     H112021   8.534   0.337   0.861  0.7947 -0.3272 -0.4835
27554WAT     H212022   8.579   0.473   0.812 -1.9039 -0.1809 -2.7856
27554WAT    EPW12023   8.529   0.424   0.863 -0.0329 -0.3575 -0.9912
27555WAT      O12024  -1.214   6.158   3.632  0.1361 -0.4811 -0.4949
27555WAT     H112025  -1.182   6.121   3.550 -0.5324  0.0180 -0.9901
27555WAT     H212026  -1.218   6.084   3.692  3.0074 -0.4449 -0.1392
27555WAT    EPW12027  -1.210   6.143   3.629  0.4266 -0.4106 -0.5132
27556WAT      O12028   3.660   1.958   2.686  0.6539  0.3429 -0.0182
27556WAT     H112029   3.650   2.009   2.606 -1.2458  2.2347  1.3184
27556WAT     H212030   3.572   1.924   2.704  0.0819  2.9512  3.0641
27556WAT    EPW12031   3.647   1.960   2.678  0.3279  0.9364  0.5646
27557WAT      O12032  -2.991   3.636   3.994  0.0783 -0.2594 -0.3550
27557WAT     H112033  -3.044   3.563   3.963  1.4413 -1.1856 -0.5918
27557WAT     H212034  -3.029   3.713   3.953 -0.6777 -0.9782 -1.0234
27557WAT    EPW12035  -3.003   3.637   3.985  0.1583 -0.4764 -0.4743
27558WAT      O12036   5.772   5.250   0.448  0.0256  0.6574 -0.1983
27558WAT     H112037   5.716   5.267   0.524  0.6964  2.2574 -0.0146
27558WAT     H212038   5.760   5.327   0.392 -0.7384 -0.6674 -1.9199
27558WAT    EPW12039   5.763   5.263   0.451  0.0134  0.6938 -0.4012
27559WAT      O12040   2.749   7.728   7.336  0.6770  0.0866  0.0069
27559WAT     H112041   2.772   7.705   7.246 -0.3792 -0.8675 -0.0261
27559WAT     H212042   2.691   7.804   7.328  0.9133  0.2628 -0.0770
27559WAT    EPW12043   2.745   7.735   7.323  0.5689 -0.0157 -0.0086
27560WAT      O12044  -4.812   5.992   7.950  0.3459  0.4742 -0.8365
27560WAT     H112045  -4.886   5.963   7.897 -1.0640  0.3393  1.1034
27560WAT     H212046  -4.736   5.948   7.912 -1.0999 -2.3802 -0.6308
27560WAT    EPW12047  -4.811   5.983   7.938 -0.0310  0.0801 -0.5534
27561WAT      O12048   0.216   5.932   6.816 -0.2760 -0.1729  0.1604
27561WAT     H112049   0.134   5.896   6.848 -0.0765  0.8389  1.8979
27561WAT     H212050   0.275   5.929   6.891  0.5295  1.3348 -0.3618
27561WAT    EPW12051   0.213   5.927   6.830 -0.1434  0.1593  0.3207
27562WAT      O12052   5.521   0.252   7.432 -0.0453 -0.6728 -0.2110
27562WAT     H112053   5.563   0.338   7.426 -1.7189  0.2700  0.9790
27562WAT     H212054   5.591   0.194   7.464  0.7090  0.5711  0.4753
27562WAT    EPW12055   5.536   0.256   7.435 -0.1664 -0.3844  0.0365
27563WAT      O12056  -4.033   6.443   8.800  0.7847 -0.1679 -0.4207
27563WAT     H112057  -4.108   6.502   8.801  0.1705 -0.9372  0.0536
27563WAT     H212058  -3.991   6.457   8.886  0.6745 -0.3808 -0.3333
27563WAT    EPW12059  -4.037   6.453   8.812  0.6893 -0.2973 -0.3467
27564WAT      O12060  -3.029   1.635   7.993 -0.3463  0.0441  0.8132
27564WAT     H112061  -2.962   1.673   8.050  2.1320  0.2951 -2.0324
27564WAT     H212062  -3.099   1.700   7.992  2.2491  3.0732 -1.1504
27564WAT    EPW12063  -3.030   1.648   8.001  0.3229  0.4767  0.1788
27565WAT      O12064   4.097   2.165   0.798  0.1310  0.3035  0.7875
27565WAT     H112065   4.070   2.093   0.740  0.5980  0.5078  0.3041
27565WAT     H212066   4.185   2.141   0.827  1.7518  2.1693 -2.0189
27565WAT    EPW12067   4.105   2.152   0.794  0.4065  0.5766  0.3536
27566WAT      O12068   4.850   3.604   5.941  0.4999  0.2210  0.2549
27566WAT     H112069   4.803   3.647   5.869  1.1069  0.5393  0.0434
27566WAT     H212070   4.814   3.644   6.020 -0.4438 -0.3992  0.1638
27566WAT    EPW12071   4.839   3.615   5.942  0.4554  0.1812  0.2148
27567WAT      O12072   2.660   6.844   4.199  0.2025 -0.3191  0.2533
27567WAT     H112073   2.722   6.888   4.140 -0.0305 -1.1829 -0.6739
27567WAT     H212074   2.607   6.914   4.235 -0.1529  0.1872 -1.1809
27567WAT    EPW12075   2.661   6.859   4.196  0.1248 -0.3664 -0.0579
27568WAT      O12076  -0.241   4.596   1.217  0.2569 -0.1577  0.1550
27568WAT     H112077  -0.214   4.572   1.129  1.7519  0.5186  0.3999
27568WAT     H212078  -0.314   4.537   1.237  1.7230 -2.2918 -0.4440
27568WAT    EPW12079  -0.247   4.585   1.208  0.6474 -0.3500  0.1083
27569WAT      O12080  -5.196   8.485   6.911  0.3666 -0.0433 -0.7429
27569WAT     H112081  -5.280   8.459   6.873 -0.4166  3.4762 -1.7857
27569WAT     H212082  -5.147   8.521   6.837  0.8610  2.3022  0.6520
27569WAT    EPW12083  -5.201   8.486   6.896  0.3283  0.7305 -0.6964
27570WAT      O12084   0.189   1.409   7.008  0.2414  0.1382 -0.2990
27570WAT     H112085   0.100   1.442   6.997  0.5638  1.2550  0.3309
27570WAT     H212086   0.179   1.328   7.057 -0.2427  1.9169  2.7434
27570WAT    EPW12087   0.176   1.403   7.013  0.2201  0.5201  0.1853
27571WAT      O12088  -4.003   8.985   7.036 -0.1824  0.4112 -0.0905
27571WAT     H112089  -4.006   9.012   6.944 -1.3823 -1.6630 -0.7100
27571WAT     H212090  -4.029   8.893   7.035 -0.5591  0.4343  2.3684
27571WAT    EPW12091  -4.007   8.977   7.024 -0.3903  0.1407  0.1521
27572WAT      O12092  -3.085   1.631   5.307 -0.4374 -0.4708 -0.0430
27572WAT     H112093  -3.013   1.571   5.327 -0.6462 -0.5336  0.5191
27572WAT     H212094  -3.103   1.675   5.390 -2.2708 -1.7634  0.2853
27572WAT    EPW12095  -3.078   1.629   5.320 -0.7068 -0.6496  0.0744
27573WAT      O12096   1.728   0.972   1.293 -0.4199 -0.5828  0.9546
27573WAT     H112097   1.721   0.980   1.388 -1.5324 -0.5422  0.8919
27573WAT     H212098   1.705   0.881   1.275 -1.5956 -0.2536  0.6467
27573WAT    EPW12099   1.724   0.961   1.303 -0.7218 -0.5340  0.9057
27574WAT      O12100  -1.793   3.471   2.285  0.1458  0.5621  0.1663
27574WAT     H112101  -1.808   3.469   2.379  2.2790 -2.4292  0.5976
27574WAT     H212102  -1.870   3.428   2.248  0.6855 -1.1645  0.9294
27574WAT    EPW12103  -1.805   3.465   2.292  0.4984 -0.0601  0.3238
27575WAT      O12104  -5.794   8.251   7.527 -0.2844  0.3631 -0.7347
27575WAT     H112105  -5.772   8.305   7.451  1.3782  1.7241  0.6126
27575WAT     H212106  -5.733   8.281   7.595  2.9651 -5.1375 -0.6068
27575WAT    EPW12107  -5.783   8.262   7.526  0.3636 -0.1831 -0.5400
27576WAT      O12108   6.564   9.779   1.362 -0.3418 -0.4452 -0.1552
27576WAT     H112109   6.595   9.777   1.452 -0.6200 -1.1223 -0.0668
27576WAT     H212110   6.553   9.686   1.339 -2.7299 -0.2335 -0.0370
27576WAT    EPW12111   6.567   9.766   1.371 -0.6936 -0.5069 -0.1280
27577WAT      O12112   0.512   6.705   5.822  0.0420 -0.8330  0.7782
27577WAT     H112113   0.514   6.655   5.903  1.6767  2.3499  2.9392
27577WAT     H212114   0.426   6.747   5.821  0.1631 -0.5780  1.0664
27577WAT    EPW12115   0.501   6.704   5.833  0.2736 -0.3796  1.1013
27578WAT      O12116   3.369   6.274   8.267  0.3874  0.1173 -0.4294
27578WAT     H112117   3.389   6.201   8.325  0.8850  0.9472  0.4942
27578WAT     H212118   3.333   6.234   8.188 -0.2988 -1.0476  0.4488
27578WAT    EPW12119   3.367   6.259   8.264  0.3625  0.0730 -0.1917
27579WAT      O12120  -5.016  10.124   7.385  0.6406  0.6142  0.2488
27579WAT     H112121  -4.981  10.213   7.386 -0.9218  1.2712 -0.8892
27579WAT     H212122  -5.022  10.101   7.292  0.7175 -0.5761  0.5138
27579WAT    EPW12123  -5.012  10.132   7.373  0.4447  0.5441  0.1338
27580WAT      O12124   1.867   4.346   1.898 -0.0110  0.6471 -0.0296
27580WAT     H112125   1.795   4.284   1.888  1.6186 -1.4735  0.6863
27580WAT     H212126   1.944   4.299   1.867  0.9721  3.2363 -1.8595
27580WAT    EPW12127   1.868   4.332   1.893  0.3336  0.7091 -0.1765
27581WAT      O12128  -4.237   3.734   6.500 -0.4907  0.2529 -0.0138
27581WAT     H112129  -4.156   3.777   6.474 -0.5153  0.2353 -0.1210
27581WAT     H212130  -4.232   3.728   6.595 -0.3067  0.1331 -0.0308
27581WAT    EPW12131  -4.226   3.739   6.509 -0.4697  0.2348 -0.0300
27582WAT      O12132   1.261   6.791   3.396  0.1478  0.0579 -0.2648
27582WAT     H112133   1.346   6.785   3.440 -0.4827  1.6528  1.3158
27582WAT     H212134   1.213   6.715   3.429  0.4477  0.0037  0.0610
27582WAT    EPW12135   1.266   6.780   3.406  0.1042  0.2611 -0.0134
27583WAT      O12136   0.277   8.029   7.175 -0.1787  0.2465  0.2294
27583WAT     H112137   0.359   8.027   7.126 -0.8768  0.6374 -0.9935
27583WAT     H212138   0.211   7.999   7.113 -1.0781  0.6160  0.9821
27583WAT    EPW12139   0.279   8.025   7.161 -0.3894  0.3462  0.1674
27584WAT      O12140  -4.382   5.247   6.262  0.4595 -0.3601 -0.1782
27584WAT     H112141  -4.356   5.275   6.350 -0.1331  0.0758 -0.1346
27584WAT     H212142  -4.459   5.301   6.242  1.1114  0.1820 -1.3249
27584WAT    EPW12143  -4.389   5.258   6.271  0.4673 -0.2313 -0.3238
27585WAT      O12144  -2.832   5.037   5.289  0.0365 -0.3517 -0.7914
27585WAT     H112145  -2.924   5.060   5.299  0.2372  1.3007 -2.3449
27585WAT     H212146  -2.809   4.996   5.373 -1.8989 -0.1295 -0.0949
27585WAT    EPW12147  -2.841   5.034   5.302 -0.1923 -0.1042 -0.9043
27586WAT      O12148   1.703   6.185   0.885  0.5536 -0.5139  0.3387
27586WAT     H112149   1.679   6.093   0.889  0.2181 -0.6933 -3.0925
27586WAT     H212150   1.796   6.187   0.909  0.7921 -1.8614 -0.4088
27586WAT    EPW12151   1.712   6.173   0.889  0.5408 -0.7153 -0.2125
27587WAT      O12152   1.837   4.871   7.177  0.9585  0.0759  0.8456
27587WAT     H112153   1.884   4.944   7.216  0.0010  1.4561 -0.4870
27587WAT     H212154   1.906   4.815   7.141  1.7064  2.4924 -1.8643
27587WAT    EPW12155   1.852   4.873   7.177  0.9308  0.5765  0.3123
27588WAT      O12156   2.240   2.318   1.717  0.5406 -0.0354 -1.3012
27588WAT     H112157   2.199   2.402   1.735  1.2949  0.0108  0.4085
27588WAT     H212158   2.177   2.253   1.747  1.5550  0.0327  1.1718
27588WAT    EPW12159   2.227   2.320   1.723  0.7738 -0.0204 -0.7495
27589WAT      O12160  -2.507   5.672   5.844 -0.5661 -0.3843  0.0667
27589WAT     H112161  -2.508   5.761   5.879  0.6906 -0.0019 -0.7942
27589WAT     H212162  -2.426   5.634   5.878 -0.2745 -0.6332 -0.8698
27589WAT    EPW12163  -2.497   5.679   5.853 -0.3619 -0.3667 -0.1705
27590WAT      O12164   0.372   2.966   1.053  0.4168 -0.3811  0.1063
27590WAT     H112165   0.308   3.019   1.101 -3.1097 -2.4618 -1.8715
27590WAT     H212166   0.348   2.875   1.074  1.1829 -1.2779 -2.5002
27590WAT    EPW12167   0.360   2.961   1.062  0.0528 -0.7738 -0.4984
27591WAT      O12168   1.231   2.024   1.384  0.4411  0.5625 -0.1808
27591WAT     H112169   1.310   2.078   1.386 -0.4540  2.0245 -1.7152
27591WAT     H212170   1.199   2.024   1.474  2.3348 -0.3275  0.5268
27591WAT    EPW12171   1.237   2.031   1.396  0.5728  0.6379 -0.2899
27592WAT      O12172   7.194   0.428   1.762 -0.2634 -0.5175  0.3112
27592WAT     H112173   7.118   0.454   1.813 -0.8639 -0.4936 -0.5850
27592WAT     H212174   7.158   0.381   1.687  0.6517 -1.3493  0.3743
27592WAT    EPW12175   7.179   0.425   1.759 -0.2220 -0.6240  0.2013
27593WAT      O12176  -4.132  10.275   2.337 -0.1999 -0.4459  0.0851
27593WAT     H112177  -4.050  10.296   2.379 -0.3575 -0.4205  0.3810
27593WAT     H212178  -4.111  10.271   2.243  0.3027 -1.2096  0.2166
27593WAT    EPW12179  -4.119  10.277   2.330 -0.1545 -0.5436  0.1414
27594WAT      O12180   3.071   2.606   1.210 -0.1558  0.3954 -0.0615
27594WAT     H112181   3.048   2.543   1.277  0.0458  0.0137 -0.3499
27594WAT     H212182   2.998   2.603   1.148 -0.7881  1.4086  0.5929
27594WAT    EPW12183   3.058   2.597   1.210 -0.2126  0.4786 -0.0132
27595WAT      O12184   7.322   3.005   0.878  0.5510  0.1689 -0.1737
27595WAT     H112185   7.345   3.013   0.970  1.3209  0.2000 -0.3577
27595WAT     H212186   7.233   3.040   0.871  1.5804  3.0771  0.0367
27595WAT    EPW12187   7.313   3.011   0.889  0.7885  0.5566 -0.1702
27596WAT      O12188  -3.553   3.304   5.157 -0.5484  0.5107  0.3981
27596WAT     H112189  -3.483   3.246   5.126 -1.0180  0.0886  0.1048
27596WAT     H212190  -3.631   3.248   5.159 -0.8431  0.9319  0.8839
27596WAT    EPW12191  -3.554   3.289   5.153 -0.6493  0.5106  0.4234
27597WAT      O12192   4.288   7.211   5.245  0.6003  0.1223  0.4507
27597WAT     H112193   4.354   7.250   5.301  1.1966 -0.1748 -0.0279
27597WAT     H212194   4.290   7.264   5.165 -1.0898  1.2996  1.1334
27597WAT    EPW12195   4.297   7.223   5.242  0.4563  0.2384  0.4776
27598WAT      O12196  -1.693   7.727   0.789 -0.2066  0.3061 -0.4432
27598WAT     H112197  -1.694   7.634   0.766  2.7803  0.1014 -0.1732
27598WAT     H212198  -1.667   7.771   0.708  0.4165  0.6588 -0.0588
27598WAT    EPW12199  -1.690   7.720   0.775  0.2696  0.3257 -0.3569
27599WAT      O12200   3.019   7.398   5.350 -0.7658  0.0984  0.4717
27599WAT     H112201   3.048   7.311   5.323  5.5311  1.6963  0.3027
27599WAT     H212202   2.973   7.433   5.274  2.8186 -0.9031 -2.4791
27599WAT    EPW12203   3.017   7.391   5.336  0.5375  0.1771  0.0603
27600WAT      O12204   0.188   9.579   0.005 -0.3310  0.1326  0.4138
27600WAT     H112205   0.194   9.493   0.047  0.8037 -0.0396 -0.0682
27600WAT     H212206   0.203   9.641   0.076 -4.0343  0.1419  1.4094
27600WAT    EPW12207   0.191   9.575   0.020 -0.6698  0.1111  0.4816
27601WAT      O12208  -3.922   0.972   7.485 -0.5407  0.2168  0.3016
27601WAT     H112209  -3.836   1.013   7.490 -0.1151 -0.3838 -1.4594
27601WAT     H212210  -3.978   1.029   7.537  0.3457  2.1751 -0.7694
27601WAT    EPW12211  -3.918   0.985   7.493 -0.3675  0.3959 -0.0720
27602WAT      O12212   3.295   0.395   5.124 -0.2492  0.1091 -0.0464
27602WAT     H112213   3.264   0.369   5.037 -1.7618 -0.8210  0.7288
27602WAT     H212214   3.224   0.448   5.160 -0.2289 -0.5933  1.0985
27602WAT    EPW12215   3.281   0.398   5.117 -0.4460 -0.1062  0.2067
27603WAT      O12216  -0.739   1.968   6.910 -0.8472 -0.0468 -0.1818
27603WAT     H112217  -0.697   2.036   6.858 -1.1818  2.6368  2.7352
27603WAT     H212218  -0.687   1.964   6.990 -1.8121 -2.0942  0.4149
27603WAT    EPW12219  -0.727   1.976   6.914 -1.0186  0.0371  0.2816
27604WAT      O12220   5.329   2.580   6.132 -0.5152  0.2406  0.2883
27604WAT     H112221   5.334   2.541   6.219 -0.1743  1.8537  1.0389
27604WAT     H212222   5.340   2.507   6.072 -2.5504 -1.2155  1.5346
27604WAT    EPW12223   5.331   2.566   6.136 -0.7384  0.2613  0.5517
27605WAT      O12224   2.646   9.665   0.687  0.0744 -0.1635 -0.2148
27605WAT     H112225   2.739   9.643   0.698 -0.4423 -2.9789 -0.5712
27605WAT     H212226   2.618   9.610   0.614 -0.9492  3.8530 -3.1370
27605WAT    EPW12227   2.654   9.655   0.679 -0.1287 -0.0052 -0.6472
27606WAT      O12228   2.394   6.707   1.022  0.2600  0.0007 -0.1311
27606WAT     H112229   2.469   6.749   1.065 -1.0943 -0.2357  2.7216
27606WAT     H212230   2.318   6.748   1.062 -1.3492  1.9024 -4.5626
27606WAT    EPW12231   2.394   6.718   1.033 -0.1309  0.2205 -0.3393
27607WAT      O12232   6.046   4.477   3.323 -0.2456  0.3967 -0.0871
27607WAT     H112233   6.136   4.470   3.355 -0.3511  0.4477  0.2289
27607WAT     H212234   5.992   4.457   3.399 -0.5010 -1.3230 -0.6864
27607WAT    EPW12235   6.051   4.474   3.337 -0.2930  0.1764 -0.1245
27608WAT      O12236   0.385   0.096   0.213 -0.0408  0.4395 -0.2782
27608WAT     H112237   0.329   0.081   0.290  3.3235  0.5647  2.3949
27608WAT     H212238   0.398   0.008   0.176 -0.1280  0.1146  0.4502
27608WAT    EPW12239   0.379   0.082   0.218  0.3914  0.4132  0.1704
27609WAT      O12240   0.620   4.560   8.129  0.3782  0.2097 -0.7744
27609WAT     H112241   0.681   4.499   8.087  0.5562  0.8505 -1.4785
27609WAT     H212242   0.618   4.636   8.071 -2.9829 -0.7257 -2.0989
27609WAT    EPW12243   0.628   4.562   8.116 -0.0416  0.1707 -1.0419
27610WAT      O12244  -3.048   1.671   7.515 -0.5336  0.3878  0.3456
27610WAT     H112245  -3.050   1.578   7.539 -0.4581  0.7131  1.7144
27610WAT     H212246  -3.125   1.683   7.459 -1.0219 -0.3325  0.8432
27610WAT    EPW12247  -3.059   1.660   7.511 -0.5881  0.3358  0.5915
27611WAT      O12248   3.348   3.260   7.266  0.0824  0.0818  0.0529
27611WAT     H112249   3.410   3.241   7.336 -0.4119 -1.4064  0.1352
27611WAT     H212250   3.302   3.177   7.252 -2.0720  1.1740  0.1759
27611WAT    EPW12251   3.350   3.247   7.273 -0.2669  0.0296  0.0796
27612WAT      O12252   5.980   9.118   0.765 -0.3988  0.1155 -0.5825
27612WAT     H112253   6.056   9.153   0.811 -0.9893 -0.4674  0.9044
27612WAT     H212254   5.980   9.163   0.680  0.4487  1.6027  0.1713
27612WAT    EPW12255   5.990   9.128   0.760 -0.3650  0.2346 -0.2870
27613WAT      O12256  -2.085   7.222   3.808 -0.3780 -0.4489  0.6757
27613WAT     H112257  -2.081   7.274   3.888  1.4386 -0.7216  0.8025
27613WAT     H212258  -2.143   7.148   3.831 -1.0629  0.2421  1.2412
27613WAT    EPW12259  -2.092   7.219   3.822 -0.2288 -0.3939  0.7670
27614WAT      O12260   3.905   7.189   0.747  0.5519  0.7073 -0.0961
27614WAT     H112261   3.996   7.164   0.734  0.5676 -0.2299  1.5496
27614WAT     H212262   3.856   7.137   0.684  0.9420 -0.7663  0.7781
27614WAT    EPW12263   3.910   7.179   0.737  0.6053  0.3891  0.2362
27615WAT      O12264   0.337   6.655   7.001  0.1091  0.5137  0.1547
27615WAT     H112265   0.368   6.657   6.911 -0.2767 -1.0031 -0.0420
27615WAT     H212266   0.255   6.604   6.997  0.2054  0.2212  1.3785
27615WAT    EPW12267   0.330   6.648   6.988  0.0709  0.2751  0.2902
27616WAT      O12268  -0.576   6.049   7.715 -0.2237 -0.8041  0.5631
27616WAT     H112269  -0.603   5.958   7.700 -1.4117 -0.3431 -0.2979
27616WAT     H212270  -0.590   6.092   7.630 -0.1731  0.2976  1.1009
27616WAT    EPW12271  -0.582   6.043   7.702 -0.3737 -0.5982  0.5207
27617WAT      O12272   7.292   4.237   0.854  0.0662  0.1278 -0.0028
27617WAT     H112273   7.251   4.277   0.777  0.4854  1.0332  0.2256
27617WAT     H212274   7.231   4.169   0.882  0.2385 -0.7248 -1.5663
27617WAT    EPW12275   7.279   4.234   0.848  0.1442  0.1349 -0.1789
27618WAT      O12276   0.198   7.952   8.052  0.5235  0.8060  0.1809
27618WAT     H112277   0.215   8.026   7.993  2.2010 -0.1142 -0.5788
27618WAT     H212278   0.196   7.876   7.994 -2.6495  0.3244  0.7455
27618WAT    EPW12279   0.200   7.952   8.037  0.3263  0.6211  0.1550
27619WAT      O12280   2.722   9.370   7.291  0.3155  0.2287 -0.3301
27619WAT     H112281   2.704   9.420   7.212 -2.1382 -1.2303 -0.8162
27619WAT     H212282   2.635   9.350   7.327  1.3160 -0.1944  2.0783
27619WAT    EPW12283   2.708   9.374   7.285  0.1239 -0.0196 -0.0765
27620WAT      O12284  -5.921   5.036   8.150 -0.1665  0.6213 -0.1755
27620WAT     H112285  -5.902   5.101   8.218 -1.9757  0.4625  0.5201
27620WAT     H212286  -5.965   4.965   8.196 -2.0900  0.8082 -1.5926
27620WAT    EPW12287  -5.924   5.035   8.165 -0.6588  0.6249 -0.2704
27621WAT      O12288  -3.604   0.470   6.425 -0.3919  0.1878  0.4268
27621WAT     H112289  -3.537   0.496   6.361  0.5519  0.2278  1.4039
27621WAT     H212290  -3.580   0.517   6.505  0.2210 -2.0901  1.6812
27621WAT    EPW12291  -3.592   0.480   6.427 -0.1866 -0.1074  0.7212
27622WAT      O12292   3.917   2.566   1.310  0.4189 -0.0687  0.3283
27622WAT     H112293   3.832   2.606   1.293  0.2150 -0.5830  0.1433
27622WAT     H212294   3.971   2.593   1.236  1.0743  2.0876  1.5171
27622WAT    EPW12295   3.913   2.575   1.298  0.4785  0.1478  0.4607
27623WAT      O12296  -0.249   5.666   5.710 -0.0635  0.3040 -0.6613
27623WAT     H112297  -0.331   5.702   5.744  1.0784 -0.1813  3.1525
27623WAT     H212298  -0.203   5.742   5.674 -0.8662  1.2232  0.1922
27623WAT    EPW12299  -0.254   5.681   5.710 -0.0187  0.3610 -0.0458
27624WAT      O12300   2.832   0.738   8.683  0.5224 -0.3245 -0.3821
27624WAT     H112301   2.897   0.708   8.746 -0.6678 -0.4389  0.8329
27624WAT     H212302   2.882   0.760   8.605  2.2501  1.3454  1.1029
27624WAT    EPW12303   2.847   0.737   8.681  0.5933 -0.1193 -0.0257
27625WAT      O12304  -1.051   7.062   6.133 -0.2232 -0.1702  0.3315
27625WAT     H112305  -0.983   7.065   6.201 -0.1812  4.5043  0.4102
27625WAT     H212306  -1.007   7.024   6.057  2.0855  1.1772  0.8741
27625WAT    EPW12307  -1.036   7.058   6.132  0.0869  0.6239  0.4137
27626WAT      O12308  -2.860   6.347   6.445 -0.3164  0.0396 -0.0871
27626WAT     H112309  -2.910   6.381   6.371 -0.4564  1.2983  0.5428
27626WAT     H212310  -2.926   6.305   6.500 -0.8094  1.9452  0.8817
27626WAT    EPW12311  -2.875   6.346   6.443 -0.3997  0.4568  0.1240
27627WAT      O12312   2.501   9.698   0.914 -0.4539  0.2663 -0.6028
27627WAT     H112313   2.521   9.677   0.823  0.0229 -3.0181  0.1368
27627WAT     H212314   2.586   9.714   0.955 -0.3925 -1.1124 -0.1575
27627WAT    EPW12315   2.515   9.698   0.908 -0.3830 -0.3486 -0.4465
27628WAT      O12316   2.945   9.846   3.844  0.3623 -0.1511 -0.2281
27628WAT     H112317   2.987   9.850   3.929  0.1059  2.3326 -0.1258
27628WAT     H212318   2.889   9.924   3.842 -0.0722 -0.4562 -2.4292
27628WAT    EPW12319   2.943   9.857   3.855  0.2712  0.1364 -0.5051
27629WAT      O12320  -2.782   5.750   5.087  0.0269 -0.3446  0.7363
27629WAT     H112321  -2.707   5.718   5.035 -0.2683  0.3651 -0.1669
27629WAT     H212322  -2.805   5.834   5.045  0.5640  0.8965  2.7997
27629WAT    EPW12323  -2.775   5.757   5.074  0.0588 -0.0875  0.8893
27630WAT      O12324   3.273   3.165   6.056  0.1782  0.3166 -0.3810
27630WAT     H112325   3.246   3.242   6.006 -2.4705  0.4512  1.0778
27630WAT     H212326   3.309   3.201   6.137 -0.8273  0.0758  0.1920
27630WAT    EPW12327   3.274   3.180   6.060 -0.3037  0.3026 -0.1130
27631WAT      O12328   1.477   8.645   0.831  0.0258  0.2940 -0.4407
27631WAT     H112329   1.413   8.579   0.804 -0.1654 -0.4390  1.6369
27631WAT     H212330   1.538   8.598   0.887  1.3844  1.3748 -0.9527
27631WAT    EPW12331   1.476   8.630   0.835  0.1798  0.3400 -0.2342
27632WAT      O12332   0.659   0.925   3.599 -0.5475  0.3432  0.1273
27632WAT     H112333   0.639   0.854   3.659 -2.0066 -1.4811 -2.3321
27632WAT     H212334   0.573   0.958   3.572  0.0211  0.5589 -1.5353
27632WAT    EPW12335   0.645   0.920   3.603 -0.6649  0.1311 -0.4164
27633WAT      O12336   1.814   1.475   0.431 -0.0172 -0.2561 -0.1094
27633WAT     H112337   1.803   1.467   0.525  0.1303  2.7399  0.2550
27633WAT     H212338   1.727   1.497   0.398  0.4851  1.7991 -0.1892
27633WAT    EPW12339   1.801   1.477   0.439  0.0685  0.4101 -0.0719
27634WAT      O12340   1.790  10.165   6.589  0.1732  0.2716  0.2474
27634WAT     H112341   1.869  10.183   6.537 -0.0631  0.3820 -0.0744
27634WAT     H212342   1.798  10.072   6.613 -0.4678 -0.2107 -1.2936
27634WAT    EPW12343   1.802  10.155   6.585  0.0575  0.2232  0.0017
27635WAT      O12344  -1.974   3.167   5.858 -0.4081  0.5196  0.2313
27635WAT     H112345  -1.975   3.262   5.849 -1.5623  0.3922 -1.5124
27635WAT     H212346  -2.061   3.145   5.892  0.4008  0.1687  2.1816
27635WAT    EPW12347  -1.986   3.176   5.861 -0.4536  0.4566  0.2584
27636WAT      O12348   0.521   0.386   8.740 -0.5671  0.2327 -0.1419
27636WAT     H112349   0.591   0.391   8.675 -0.9234  0.3197 -0.5263
27636WAT     H212350   0.532   0.301   8.782 -0.7877 -0.1502 -0.8402
27636WAT    EPW12351   0.532   0.376   8.737 -0.6432  0.1936 -0.2847
27637WAT      O12352   5.174   2.112   7.187 -0.8081  0.0374  0.6475
27637WAT     H112353   5.164   2.048   7.116  0.7164  1.2800 -0.8012
27637WAT     H212354   5.241   2.075   7.244  0.5064  0.4933 -0.5076
27637WAT    EPW12355   5.182   2.099   7.185 -0.4334  0.2614  0.3042
27638WAT      O12356   4.597   1.755   3.740 -0.3204  0.0919 -0.1661
27638WAT     H112357   4.657   1.731   3.810 -1.6798 -2.7315  0.1818
27638WAT     H212358   4.517   1.782   3.785 -0.2240  1.2060 -0.6391
27638WAT    EPW12359   4.595   1.756   3.755 -0.4871 -0.1336 -0.1825
27639WAT      O12360   1.119   9.128   5.659 -0.2056  0.2278  0.0239
27639WAT     H112361   1.059   9.162   5.726 -0.6453  0.7087 -0.6000
27639WAT     H212362   1.111   9.033   5.667 -2.2349  0.2431 -1.0378
27639WAT    EPW12363   1.110   9.120   5.669 -0.5313  0.2933 -0.1986
27640WAT      O12364  -3.818   0.529   8.478  0.4326 -0.3341  0.2161
27640WAT     H112365  -3.904   0.540   8.520  1.8558  1.4204  2.9404
27640WAT     H212366  -3.814   0.435   8.458 -2.4453 -0.3376 -0.9493
27640WAT    EPW12367  -3.829   0.518   8.481  0.2407 -0.1031  0.4215
27641WAT      O12368   2.073   4.175   6.544  0.0577 -0.3786 -0.2705
27641WAT     H112369   2.028   4.150   6.463 -1.4105  1.6406 -0.1441
27641WAT     H212370   2.012   4.152   6.614 -0.9245  2.4204 -0.1002
27641WAT    EPW12371   2.059   4.169   6.542 -0.2655  0.2570 -0.2313
27642WAT      O12372   5.648   5.417   4.152  0.4756 -0.7830  0.0906
27642WAT     H112373   5.609   5.416   4.240 -1.7469 -1.4085 -0.8326
27642WAT     H212374   5.640   5.508   4.123 -1.6015 -1.1412 -0.5860
27642WAT    EPW12375   5.642   5.429   4.160 -0.0916 -0.9129 -0.1204
27643WAT      O12376   2.969   2.802   4.998 -1.1180 -0.0513 -0.6773
27643WAT     H112377   2.895   2.747   5.027 -1.6079 -0.1405 -2.0129
27643WAT     H212378   2.941   2.891   5.017 -0.7366 -0.1820  0.5913
27643WAT    EPW12379   2.955   2.806   5.004 -1.1324 -0.0803 -0.6859
27644WAT      O12380   0.193   4.987   0.764  0.5360 -0.0405 -0.0446
27644WAT     H112381   0.122   4.935   0.803  0.0793 -0.4298 -1.3647
27644WAT     H212382   0.255   4.922   0.732  0.8334  0.2737 -0.1111
27644WAT    EPW12383   0.192   4.972   0.765  0.5150 -0.0503 -0.2275
27645WAT      O12384   5.329   8.740   3.972 -0.4602  0.5038  0.1966
27645WAT     H112385   5.242   8.762   4.006 -0.2412  1.3948  0.2000
27645WAT     H212386   5.374   8.824   3.965  0.9816 -0.0733  1.7783
27645WAT    EPW12387   5.324   8.754   3.976 -0.2410  0.5455  0.4057
27646WAT      O12388   3.530   4.248   2.949 -0.6172 -0.2272 -0.5409
27646WAT     H112389   3.523   4.194   2.870  0.5831 -0.0021 -0.8116
27646WAT     H212390   3.515   4.187   3.021 -1.1864 -0.5389 -0.9162
27646WAT    EPW12391   3.527   4.233   2.948 -0.5339 -0.2384 -0.6262
27647WAT      O12392   1.820   3.479   7.530 -0.2429  0.1526  0.7365
27647WAT     H112393   1.859   3.522   7.606 -1.6644  2.0378  0.4836
27647WAT     H212394   1.840   3.537   7.456  0.4125 -1.2278 -0.2273
27647WAT    EPW12395   1.827   3.493   7.530 -0.3440  0.2192  0.5760
27648WAT      O12396   0.095   6.660   8.831  0.0217 -0.4420 -0.3002
27648WAT     H112397   0.085   6.644   8.737 -1.1239 -1.6357 -0.0023
27648WAT     H212398   0.135   6.580   8.864 -1.3955 -0.8384  0.5120
27648WAT    EPW12399   0.099   6.647   8.823 -0.3163 -0.6518 -0.1535
27649WAT      O12400  -0.273   7.170   2.714  0.0684 -0.1155  0.0380
27649WAT     H112401  -0.280   7.075   2.722 -0.9060  0.0630  1.8142
27649WAT     H212402  -0.220   7.184   2.636 -0.9815 -2.0929 -1.1149
27649WAT    EPW12403  -0.267   7.159   2.704 -0.1986 -0.3526  0.1202
27650WAT      O12404   6.395   0.128   0.271 -0.5915  0.2786  0.2695
27650WAT     H112405   6.458   0.154   0.338 -0.6447  1.5371 -0.1383
27650WAT     H212406   6.439   0.146   0.188 -1.0133 -0.0372 -0.0270
27650WAT    EPW12407   6.409   0.134   0.269 -0.6545  0.4029  0.1766
27651WAT      O12408   4.190   7.001   5.834  0.2560  0.1320  0.0742
27651WAT     H112409   4.167   7.074   5.891  1.4742 -1.2208  2.4657
27651WAT     H212410   4.157   6.924   5.880  2.4829 -1.1330 -0.3231
27651WAT    EPW12411   4.183   7.001   5.848  0.7105 -0.2134  0.3371
27652WAT      O12412  -2.065   1.856   7.854 -0.1961  0.2056 -0.5938
27652WAT     H112413  -2.136   1.827   7.798  0.3678 -1.0424 -0.6997
27652WAT     H212414  -2.026   1.775   7.888 -0.8044  0.9005  1.9922
27652WAT    EPW12415  -2.069   1.842   7.851 -0.2019  0.1327 -0.2668
27653WAT      O12416   3.789   3.400   3.069  0.0385  0.2634  0.4802
27653WAT     H112417   3.714   3.380   3.124  0.4552  0.8660  1.2825
27653WAT     H212418   3.801   3.494   3.079  1.1581  0.1063  0.6917
27653WAT    EPW12419   3.780   3.410   3.077  0.2412  0.3222  0.6138
27654WAT      O12420  -2.262   8.411   1.075  0.0550 -0.1761 -0.1122
27654WAT     H112421  -2.307   8.385   1.156  0.8609 -0.1383  0.3642
27654WAT     H212422  -2.210   8.487   1.101 -0.4940  0.5048 -0.9327
27654WAT    EPW12423  -2.261   8.418   1.089  0.0890 -0.0815 -0.1576
27655WAT      O12424   0.328   7.672   1.306 -0.4537 -0.3567  0.8099
27655WAT     H112425   0.332   7.727   1.384 -4.1465 -1.2778  1.8641
27655WAT     H212426   0.348   7.584   1.337  1.6099 -0.2438 -0.0856
27655WAT    EPW12427   0.331   7.668   1.320 -0.6686 -0.4635  0.8308
27656WAT      O12428   6.002   5.136   3.581 -0.2842 -0.2011 -0.3927
27656WAT     H112429   5.913   5.115   3.607 -0.7852 -0.2988 -2.0963
27656WAT     H212430   6.034   5.194   3.650 -0.6142 -2.4491  1.7774
27656WAT    EPW12431   5.995   5.141   3.593 -0.3939 -0.5105 -0.3313
27657WAT      O12432  -1.449   2.074   3.131  0.1453  0.1082  0.1144
27657WAT     H112433  -1.395   2.120   3.066  0.6791  0.2004  0.6119
27657WAT     H212434  -1.422   2.112   3.215  0.5503 -1.0776  0.5320
27657WAT    EPW12435  -1.439   2.085   3.134  0.2691 -0.0360  0.2352
27658WAT      O12436  -4.347   1.148   6.766  0.2435 -0.2855  0.4453
27658WAT     H112437  -4.399   1.210   6.816 -0.7425  0.3709 -1.3058
27658WAT     H212438  -4.278   1.202   6.725  1.5304 -0.9326  1.6606
27658WAT    EPW12439  -4.345   1.163   6.767  0.2830 -0.2843  0.3748
27659WAT      O12440   4.428   0.820   6.536 -0.2673 -0.2825  0.1141
27659WAT     H112441   4.398   0.871   6.460  1.5849 -0.2491 -0.6484
27659WAT     H212442   4.453   0.736   6.499  1.0463 -0.1245  0.6200
27659WAT    EPW12443   4.427   0.816   6.521  0.1502 -0.2573  0.0801
27660WAT      O12444   3.069   9.737   2.925  0.4197  1.0209 -0.1137
27660WAT     H112445   3.099   9.734   2.834  3.1419  0.1380  0.7043
27660WAT     H212446   3.085   9.648   2.958  1.2458  1.7934  1.7003
27660WAT    EPW12447   3.075   9.725   2.917  0.8878  1.0066  0.2334
27661WAT      O12448  -5.474   8.811   4.896 -0.0420  0.1827  0.1311
27661WAT     H112449  -5.546   8.831   4.835  1.8843  2.3053 -1.6133
27661WAT     H212450  -5.490   8.868   4.971 -0.3738  0.3613 -0.0694
27661WAT    EPW12451  -5.486   8.821   4.898  0.1683  0.4864 -0.1252
27662WAT      O12452  -4.468   1.039   8.664 -0.3597 -0.1868 -0.3117
27662WAT     H112453  -4.421   0.957   8.647  1.0591  0.1919  1.5004
27662WAT     H212454  -4.402   1.098   8.700 -2.0714  0.5662  1.8051
27662WAT    EPW12455  -4.453   1.036   8.667 -0.3984 -0.0375  0.2065
27663WAT      O12456   6.177   5.072   1.088  0.4025  0.1702 -0.4014
27663WAT     H112457   6.254   5.027   1.054  0.5970 -0.1505  0.4559
27663WAT     H212458   6.202   5.101   1.176 -0.4596  0.0313 -0.0937
27663WAT    EPW12459   6.190   5.070   1.095  0.3145  0.1094 -0.2477
27664WAT      O12460  -6.647   8.700   6.527 -0.4899 -0.2978  0.9531
27664WAT     H112461  -6.661   8.614   6.566 -0.6389 -1.2122 -1.0117
27664WAT     H212462  -6.665   8.688   6.434  1.2589  1.4273  0.3166
27664WAT    EPW12463  -6.652   8.687   6.520 -0.2787 -0.1912  0.6099
27665WAT      O12464   2.169   0.578   7.058 -0.1267 -0.0518 -0.3212
27665WAT     H112465   2.236   0.634   7.017  0.2905 -0.7323 -0.5788
27665WAT     H212466   2.194   0.575   7.150 -0.1015  0.1108 -0.3217
27665WAT    EPW12467   2.181   0.585   7.064 -0.0684 -0.1201 -0.3550
27666WAT      O12468   4.034   3.104   2.288 -1.0498 -0.2412 -0.1553
27666WAT     H112469   3.962   3.108   2.351 -0.9482  1.3694 -0.0926
27666WAT     H212470   4.107   3.150   2.331 -0.4921 -0.4478 -0.8439
27666WAT    EPW12471   4.034   3.111   2.302 -0.9627 -0.0561 -0.2378
27667WAT      O12472   2.792   2.742   2.469 -0.2863 -0.2699 -0.1113
27667WAT     H112473   2.886   2.753   2.450 -0.1270 -0.4606  0.5275
27667WAT     H212474   2.748   2.805   2.413  0.4542  2.4303  2.1365
27667WAT    EPW12475   2.799   2.752   2.459 -0.1676  0.0610  0.2695
27668WAT      O12476   6.943   1.105   5.496 -0.1891 -0.1829  0.5141
27668WAT     H112477   6.959   1.098   5.402 -1.4656 -0.6411  0.3071
27668WAT     H212478   6.879   1.175   5.504  0.8125  0.6914  1.1811
27668WAT    EPW12479   6.937   1.113   5.484 -0.2253 -0.1280  0.5748
27669WAT      O12480  -2.530   7.768   1.370  0.7206  0.2503 -0.4472
27669WAT     H112481  -2.489   7.775   1.283 -0.6386  1.1334 -1.0532
27669WAT     H212482  -2.458   7.745   1.428  1.9888  1.2827 -1.5368
27669WAT    EPW12483  -2.515   7.766   1.366  0.7085  0.5031 -0.6709
27670WAT      O12484  -4.642   4.091   5.365  0.3278  0.3586 -0.4697
27670WAT     H112485  -4.722   4.087   5.416  1.3140  2.7430  1.4832
27670WAT     H212486  -4.580   4.036   5.412 -0.2516 -2.1508 -2.4196
27670WAT    EPW12487  -4.644   4.083   5.378  0.3815  0.3421 -0.4692
27671WAT      O12488   5.177   6.639   4.643  0.0421  0.4073  0.3755
27671WAT     H112489   5.186   6.734   4.630  2.5945  0.1367 -0.4851
27671WAT     H212490   5.259   6.613   4.686 -0.5526 -1.4249  0.4743
27671WAT    EPW12491   5.189   6.648   4.647  0.3004  0.1297  0.2749
27672WAT      O12492   4.017   8.940   5.203 -0.6927 -0.7368  0.7460
27672WAT     H112493   3.968   8.925   5.284 -1.1702  1.6386  0.9611
27672WAT     H212494   3.966   9.005   5.156  0.7585 -0.3860 -0.4027
27672WAT    EPW12495   4.004   8.947   5.208 -0.5643 -0.3772  0.6230
27673WAT      O12496  -1.389   3.408   3.118 -0.4689 -0.5059  0.2980
27673WAT     H112497  -1.417   3.317   3.125 -1.6783 -0.0695  2.1166
27673WAT     H212498  -1.363   3.419   3.027 -1.5192 -2.3371 -0.2716
27673WAT    EPW12499  -1.389   3.398   3.107 -0.7669 -0.6897  0.4628
27674WAT      O12500  -1.243   2.567   6.900  0.8110  0.3185  0.1034
27674WAT     H112501  -1.226   2.477   6.926  1.2479 -0.5359 -2.8117
27674WAT     H212502  -1.334   2.583   6.925 -0.4673 -2.2312 -2.3916
27674WAT    EPW12503  -1.253   2.557   6.907  0.7001 -0.1305 -0.6101
27675WAT      O12504  -2.287   5.318   7.846  1.0776  0.6831 -0.4437
27675WAT     H112505  -2.346   5.391   7.864  0.7049 -0.2086  2.5767
27675WAT     H212506  -2.219   5.355   7.791 -1.2283  2.2290 -2.4666
27675WAT    EPW12507  -2.286   5.333   7.841  0.7242  0.7694 -0.3121
27676WAT      O12508   2.489   1.356   3.317  0.1337  0.1794  0.4701
27676WAT     H112509   2.480   1.365   3.412  1.2651  0.4400  0.5741
27676WAT     H212510   2.573   1.312   3.306 -1.6549 -3.3495 -0.3018
27676WAT    EPW12511   2.499   1.351   3.328  0.0471 -0.2517  0.3819
27677WAT      O12512   5.668   0.584   4.891 -0.1465  0.1873  0.2770
27677WAT     H112513   5.704   0.574   4.802  0.6791 -1.2145  0.7383
27677WAT     H212514   5.744   0.573   4.948 -1.1208 -1.8780  1.2582
27677WAT    EPW12515   5.683   0.581   4.886 -0.1662 -0.2700  0.4673
27678WAT      O12516   2.219   5.923   3.010  0.3630 -0.0044  0.5233
27678WAT     H112517   2.183   6.009   2.986  1.3043 -0.1505 -1.6576
27678WAT     H212518   2.156   5.887   3.071 -2.2292  0.5594 -1.6251
27678WAT    EPW12519   2.206   5.930   3.015  0.1452  0.0505 -0.0478
27679WAT      O12520  -2.416   7.466   0.971  0.3713  0.3785 -0.7188
27679WAT     H112521  -2.326   7.498   0.957  0.9109 -1.5853 -2.1355
27679WAT     H212522  -2.408   7.402   1.041 -0.1066  0.8440 -0.2284
27679WAT    EPW12523  -2.403   7.462   0.978  0.3793  0.1807 -0.8409
27680WAT      O12524   1.893   6.262   6.957  0.1022 -0.0776 -0.0173
27680WAT     H112525   1.845   6.335   6.996 -0.2106 -0.2338 -0.1154
27680WAT     H212526   1.835   6.187   6.965 -1.0596  0.3760 -3.0365
27680WAT    EPW12527   1.879   6.262   6.963 -0.0923 -0.0386 -0.4287
27681WAT      O12528   2.512   8.709   8.182 -0.9386 -0.3275 -0.0409
27681WAT     H112529   2.489   8.777   8.118 -2.1632 -2.0496 -1.5180
27681WAT     H212530   2.428   8.677   8.214 -0.3605 -0.5742  1.3103
27681WAT    EPW12531   2.498   8.714   8.178 -1.0238 -0.5870 -0.0572
27682WAT      O12532   3.335   9.168   2.517  0.2375  0.0070 -0.2109
27682WAT     H112533   3.268   9.115   2.474 -0.6731 -0.0041  1.1627
27682WAT     H212534   3.417   9.121   2.502 -0.3780 -1.1327 -0.0623
27682WAT    EPW12535   3.337   9.155   2.509  0.0362 -0.1450 -0.0101
27683WAT      O12536  -6.236   9.069   5.219  0.5917  0.3788  0.8037
27683WAT     H112537  -6.300   9.061   5.290  0.8906 -0.1166  1.0302
27683WAT     H212538  -6.230   8.980   5.183 -1.4253  1.1000 -1.5367
27683WAT    EPW12539  -6.243   9.056   5.224  0.3653  0.4091  0.5248
27684WAT      O12540   3.153   2.705   6.413 -0.3468 -0.0326 -0.2630
27684WAT     H112541   3.153   2.614   6.443  2.7150  0.1341  0.6193
27684WAT     H212542   3.064   2.720   6.383 -1.8563 -2.3372  2.5205
27684WAT    EPW12543   3.142   2.695   6.413 -0.1421 -0.3146  0.2203
27685WAT      O12544  -2.140   4.857   1.351  0.0813 -0.5270 -0.3138
27685WAT     H112545  -2.134   4.763   1.367  0.1914 -0.4706 -0.0290
27685WAT     H212546  -2.087   4.871   1.273  2.3368 -0.2880  1.1709
27685WAT    EPW12547  -2.132   4.846   1.343  0.3934 -0.4880 -0.0804
27686WAT      O12548   0.827   0.436   0.210 -0.4457  0.3806  0.4278
27686WAT     H112549   0.749   0.382   0.201 -1.5239  1.9460 -0.2183
27686WAT     H212550   0.798   0.524   0.183  2.5132  0.2988 -4.0808
27686WAT    EPW12551   0.813   0.441   0.206 -0.1976  0.5763 -0.2521
27687WAT      O12552   2.280   3.346   7.102 -0.5234 -1.2443 -0.2412
27687WAT     H112553   2.209   3.292   7.070 -1.7143  0.2036 -0.1642
27687WAT     H212554   2.345   3.346   7.032 -1.2314 -1.4484 -0.9038
27687WAT    EPW12555   2.279   3.339   7.089 -0.7739 -1.0803 -0.3183
27688WAT      O12556  -1.100   6.407   3.698 -0.7565 -0.6566  0.0489
27688WAT     H112557  -1.120   6.398   3.791 -2.0348 -1.3096 -0.2552
27688WAT     H212558  -1.111   6.318   3.663  0.9072 -0.6606 -0.5236
27688WAT    EPW12559  -1.104   6.394   3.705 -0.7057 -0.7432 -0.0668
27689WAT      O12560   7.943   0.517   0.498 -0.2989  0.4894  0.3952
27689WAT     H112561   7.934   0.438   0.446 -1.5509  0.0862  1.1886
27689WAT     H212562   8.020   0.501   0.553 -0.6906 -0.2890  0.7310
27689WAT    EPW12563   7.952   0.505   0.498 -0.5159  0.3335  0.5441
27690WAT      O12564   0.908   1.416   2.241 -0.0848 -0.5521  0.3970
27690WAT     H112565   0.936   1.506   2.224 -0.0148 -0.3806  1.3514
27690WAT     H212566   0.895   1.378   2.154  1.0186  0.0237 -0.0463
27690WAT    EPW12567   0.910   1.423   2.227  0.0700 -0.4536  0.4644
27691WAT      O12568   5.240   7.548   3.128  0.2402  1.2373  0.2830
27691WAT     H112569   5.154   7.511   3.111  1.3674 -0.9423 -1.1641
27691WAT     H212570   5.237   7.576   3.220 -1.9711  1.2404  0.2523
27691WAT    EPW12571   5.228   7.547   3.138  0.0970  0.9503  0.0881
27692WAT      O12572   6.171   0.163   4.044  0.0968  0.2216 -0.1426
27692WAT     H112573   6.171   0.075   4.081  0.2232  0.0285 -0.5894
27692WAT     H212574   6.168   0.221   4.120 -1.8652 -0.1694  0.1526
27692WAT    EPW12575   6.170   0.159   4.059 -0.1457  0.1446 -0.1626
27693WAT      O12576   0.157   2.687   7.604  0.0179 -0.6681 -0.7192
27693WAT     H112577   0.217   2.758   7.583 -1.8536  0.3814 -2.9657
27693WAT     H212578   0.169   2.672   7.697  2.1670  0.9516 -0.6650
27693WAT    EPW12579   0.166   2.694   7.613  0.0545 -0.3161 -1.0083
27694WAT      O12580  -3.186   6.489   8.083 -0.2924 -0.0515 -0.2667
27694WAT     H112581  -3.221   6.567   8.041  0.7936  0.7729  0.3168
27694WAT     H212582  -3.185   6.423   8.013 -0.3223  0.7322 -1.0220
27694WAT    EPW12583  -3.190   6.490   8.068 -0.1529  0.1605 -0.2894
27695WAT      O12584   3.863   8.165   2.742 -0.2419 -0.7361  0.2953
27695WAT     H112585   3.800   8.186   2.673 -2.6881 -2.9868  1.6682
27695WAT     H212586   3.937   8.127   2.695 -1.2712 -0.9872 -1.2125
27695WAT    EPW12587   3.864   8.162   2.727 -0.7002 -1.0657  0.2774
27696WAT      O12588  -0.772   1.535   2.741  0.1510 -0.2485  0.1890
27696WAT     H112589  -0.843   1.525   2.803 -0.8977 -1.7256 -1.1614
27696WAT     H212590  -0.765   1.629   2.727 -0.9326 -0.0278  1.0101
27696WAT    EPW12591  -0.780   1.546   2.747 -0.1302 -0.4143  0.1192
27697WAT      O12592  -3.479   7.273   7.921 -0.4078  0.3163  0.0432
27697WAT     H112593  -3.459   7.354   7.875  2.9498  0.7709  1.9686
27697WAT     H212594  -3.449   7.204   7.862 -0.3410  0.6522 -0.3187
27697WAT    EPW12595  -3.472   7.274   7.907  0.0440  0.4206  0.2494
27698WAT      O12596   0.087   8.188   4.333  0.1862  0.1429 -0.1260
27698WAT     H112597   0.177   8.168   4.359  0.0905 -0.5823 -0.3257
27698WAT     H212598   0.063   8.265   4.385  0.5531 -0.3001  0.7101
27698WAT    EPW12599   0.095   8.196   4.343  0.2219 -0.0114 -0.0422
27699WAT      O12600  -4.948   7.960   3.543 -0.1550  0.2265 -0.3062
27699WAT     H112601  -4.977   7.875   3.510 -1.0286  0.5581 -0.4136
27699WAT     H212602  -4.855   7.965   3.519  0.1039 -1.0083  0.3479
27699WAT    EPW12603  -4.939   7.950   3.536 -0.2360  0.1075 -0.2341
27700WAT      O12604   4.291   3.735   3.978  0.3557  0.4515  0.6995
27700WAT     H112605   4.246   3.802   3.926  0.0606  0.5744  1.1141
27700WAT     H212606   4.257   3.746   4.067  2.5629  1.8085  1.4569
27700WAT    EPW12607   4.281   3.746   3.983  0.6077  0.6467  0.8541
27701WAT      O12608   1.320   9.423   2.801 -0.0483 -0.2321 -0.1946
27701WAT     H112609   1.380   9.433   2.727 -0.4362  2.3354 -0.2439
27701WAT     H212610   1.373   9.445   2.877 -0.6006  1.0007 -0.1390
27701WAT    EPW12611   1.335   9.427   2.801 -0.1723  0.2694 -0.1937
27702WAT      O12612  -3.737   3.305   6.176  0.2655 -0.1300 -0.3815
27702WAT     H112613  -3.832   3.300   6.163  0.1913 -2.2608  0.4450
27702WAT     H212614  -3.706   3.360   6.104 -1.6798  1.5275 -0.0598
27702WAT    EPW12615  -3.746   3.311   6.165 -0.0008 -0.1925 -0.2301
27703WAT      O12616   7.119   4.563   1.661  0.2401 -0.3121  0.3120
27703WAT     H112617   7.141   4.606   1.743 -0.1048 -1.0160  0.7778
27703WAT     H212618   7.193   4.505   1.643 -1.2693 -3.0050  2.0997
27703WAT    EPW12619   7.132   4.561   1.669 -0.0045 -0.7603  0.6092
27704WAT      O12620  -0.737   8.775   6.226 -0.1172  0.0054 -0.2722
27704WAT     H112621  -0.787   8.730   6.158 -0.3551  1.3338 -1.0260
27704WAT     H212622  -0.679   8.708   6.262 -2.2310 -1.5337  0.4633
27704WAT    EPW12623  -0.736   8.761   6.221 -0.4274 -0.0224 -0.2747
27705WAT      O12624   7.993   3.242   0.718 -0.0613 -1.1916  0.4562
27705WAT     H112625   7.906   3.232   0.680  1.1147 -0.9380 -2.5799
27705WAT     H212626   8.032   3.155   0.714  1.4946 -0.5143 -3.0143
27705WAT    EPW12627   7.987   3.230   0.713  0.2992 -1.0688 -0.4019
27706WAT      O12628   0.655   9.058   7.000 -0.3428  0.8633 -0.5644
27706WAT     H112629   0.599   9.136   6.997 -1.8045 -0.1346 -0.1713
27706WAT     H212630   0.609   8.993   6.947  0.6710  0.1297 -0.5780
27706WAT    EPW12631   0.642   9.060   6.992 -0.4019  0.6351 -0.5143
27707WAT      O12632  -2.934   8.875   0.270  0.4050  0.4402 -0.1147
27707WAT     H112633  -2.861   8.923   0.231  1.0046  0.5443  1.0844
27707WAT     H212634  -2.954   8.923   0.351 -0.5652  0.0344 -0.0938
27707WAT    EPW12635  -2.927   8.888   0.276  0.3562  0.4005  0.0462
27708WAT      O12636   0.346   7.411   7.835  0.0886  0.0617 -0.2596
27708WAT     H112637   0.285   7.344   7.803 -0.1246 -0.0345  0.3369
27708WAT     H212638   0.344   7.402   7.930 -0.0604  1.0193 -0.1622
27708WAT    EPW12639   0.338   7.401   7.843  0.0409  0.1752 -0.1683
27709WAT      O12640   5.363   9.385   3.451 -1.1033 -0.0373  0.0060
27709WAT     H112641   5.340   9.472   3.419 -3.6128  0.1141  1.8881
27709WAT     H212642   5.285   9.332   3.434 -0.9943 -0.9480  2.0429
27709WAT    EPW12643   5.350   9.389   3.445 -1.4198 -0.1373  0.5229
27710WAT      O12644   0.873   2.963   7.001  0.1856  0.1205 -0.3063
27710WAT     H112645   0.879   3.038   6.941 -0.2314  2.0212  1.8932
27710WAT     H212646   0.946   2.975   7.061 -0.2924 -0.8961  0.5088
27710WAT    EPW12647   0.884   2.974   7.001  0.0676  0.2371  0.0913
27711WAT      O12648  -4.687   8.839   8.739  0.3459 -0.5249  0.0764
27711WAT     H112649  -4.715   8.783   8.668 -3.8148 -0.3335  1.3293
27711WAT     H212650  -4.634   8.782   8.795  2.1944 -1.1186 -2.1099
27711WAT    EPW12651  -4.683   8.824   8.737  0.0408 -0.5779 -0.0467
27712WAT      O12652   6.360   5.347   0.235 -0.0558 -0.6504 -0.2507
27712WAT     H112653   6.390   5.306   0.316 -0.1916 -0.8771 -0.3146
27712WAT     H212654   6.440   5.366   0.187  0.0284 -0.4883 -0.0540
27712WAT    EPW12655   6.374   5.344   0.240 -0.0627 -0.6590 -0.2332
27713WAT      O12656  -0.569   5.170   1.652  0.7060 -0.1313 -0.1243
27713WAT     H112657  -0.580   5.096   1.591  0.2092 -0.0210 -0.1729
27713WAT     H212658  -0.611   5.243   1.608  2.7350  0.6450 -0.8901
27713WAT    EPW12659  -0.576   5.170   1.638  0.9081 -0.0143 -0.2317
27714WAT      O12660   4.178   8.714   5.876 -0.5147 -0.2194  0.2299
27714WAT     H112661   4.146   8.775   5.810  0.4218 -1.7824 -1.7947
27714WAT     H212662   4.254   8.758   5.915 -0.8112  0.5467 -0.0436
27714WAT    EPW12663   4.184   8.728   5.873 -0.4303 -0.3247 -0.0732
27715WAT      O12664  -1.045   2.198   2.655 -0.4690 -0.0990 -0.7136
27715WAT     H112665  -1.065   2.105   2.666  1.8550 -1.0675 -3.3755
27715WAT     H212666  -0.954   2.206   2.683 -0.7712  1.5045 -0.0978
27715WAT    EPW12667  -1.035   2.187   2.660 -0.2024 -0.0153 -0.9835
27716WAT      O12668  -3.374   9.115   1.121  1.0169  0.2999 -0.0609
27716WAT     H112669  -3.469   9.107   1.123  0.7427  2.4265 -1.3465
27716WAT     H212670  -3.351   9.114   1.028  2.0809  1.1337  0.1641
27716WAT    EPW12671  -3.383   9.114   1.109  1.1210  0.6905 -0.2007
27717WAT      O12672   3.297   1.684   2.555 -0.2107 -0.3541  0.0248
27717WAT     H112673   3.389   1.680   2.533 -0.0334  0.8747  0.4238
27717WAT     H212674   3.287   1.622   2.628  0.4901  0.1465  0.5597
27717WAT    EPW12675   3.308   1.675   2.562 -0.0948 -0.1259  0.1479
27718WAT      O12676   2.124   6.305   2.564 -0.4663  0.9566 -0.0535
27718WAT     H112677   2.050   6.251   2.589 -1.8057  3.7536  2.7716
27718WAT     H212678   2.138   6.285   2.472 -4.1600 -0.3704 -0.5021
27718WAT    EPW12679   2.116   6.295   2.555 -1.1301  1.1504  0.2599
27719WAT      O12680  -3.264   6.303   2.288 -1.4366 -0.2561  0.1234
27719WAT     H112681  -3.188   6.249   2.310 -2.3476 -0.8754  2.0251
27719WAT     H212682  -3.323   6.243   2.242 -1.4845 -0.2395  0.1630
27719WAT    EPW12683  -3.262   6.288   2.285 -1.5631 -0.3355  0.3796
27720WAT      O12684   0.968   5.810   3.893 -0.2553 -0.0491  0.3993
27720WAT     H112685   0.903   5.740   3.900 -0.1406 -0.0496  1.8798
27720WAT     H212686   0.923   5.880   3.846 -0.3658 -1.1013 -1.1147
27720WAT    EPW12687   0.953   5.810   3.888 -0.2548 -0.1879  0.3949
27721WAT      O12688  -1.476   4.797   3.079 -0.2905 -0.1140 -0.0063
27721WAT     H112689  -1.419   4.722   3.062 -0.5778 -0.1356 -0.9672
27721WAT     H212690  -1.565   4.760   3.078 -0.5945  0.5114 -2.5298
27721WAT    EPW12691  -1.480   4.782   3.077 -0.3685 -0.0341 -0.4659
27722WAT      O12692   1.328   3.198   2.394  0.0204 -0.0948  0.3690
27722WAT     H112693   1.314   3.139   2.469 -4.6411  0.0738 -0.0503
27722WAT     H212694   1.325   3.286   2.433 -0.7514 -0.0433  0.2112
27722WAT    EPW12695   1.326   3.202   2.409 -0.6963 -0.0658  0.2928
27723WAT      O12696   0.430   0.579   2.351  0.1607 -0.2010  0.2388
27723WAT     H112697   0.485   0.635   2.296  0.2005 -0.3763  0.0974
27723WAT     H212698   0.346   0.626   2.356 -0.1610 -0.6486 -0.7818
27723WAT    EPW12699   0.426   0.593   2.344  0.1235 -0.2832  0.0856
27724WAT      O12700  -5.468   3.304   8.998 -0.2464 -0.4608 -0.4117
27724WAT     H112701  -5.385   3.351   8.997  0.4380 -1.6202 -1.0227
27724WAT     H212702  -5.496   3.303   8.906 -1.0402  0.0855 -0.1830
27724WAT    EPW12703  -5.461   3.310   8.986 -0.2608 -0.5422 -0.4621
27725WAT      O12704  -0.934   9.858   2.508 -0.3632 -0.1701  0.0993
27725WAT     H112705  -0.994   9.784   2.515  0.1833 -0.6037  0.3257
27725WAT     H212706  -0.893   9.864   2.594  0.3023 -0.2206 -0.2040
27725WAT    EPW12707  -0.936   9.849   2.520 -0.2033 -0.2341  0.0893
27726WAT      O12708   3.252   3.153   2.474 -0.0382 -0.0930 -0.3708
27726WAT     H112709   3.338   3.148   2.515 -0.6745 -1.3059  0.8949
27726WAT     H212710   3.193   3.177   2.545 -0.7546  0.7631 -1.2323
27726WAT    EPW12711   3.256   3.156   2.488 -0.2166 -0.1401 -0.3175
27727WAT      O12712   0.259   7.959   8.695  0.1407  0.1182  0.2333
27727WAT     H112713   0.320   7.922   8.632  0.0536  0.4330 -0.0387
27727WAT     H212714   0.176   7.965   8.648 -0.9362 -3.0955  1.4758
27727WAT    EPW12715   0.256   7.955   8.681 -0.0128 -0.2639  0.3614
27728WAT      O12716   1.361   8.373   4.710  0.1460  0.8444  0.4190
27728WAT     H112717   1.287   8.401   4.764  1.4394 -0.0352  2.7912
27728WAT     H212718   1.397   8.297   4.756  3.0916  1.8099 -0.1099
27728WAT    EPW12719   1.356   8.367   4.723  0.7051  0.8554  0.6621
27729WAT      O12720   2.296   9.566   3.882  0.3401  0.0105 -0.6994
27729WAT     H112721   2.338   9.555   3.967  0.3828 -0.6749 -0.8085
27729WAT     H212722   2.212   9.520   3.890  1.0810 -1.5613 -1.5699
27729WAT    EPW12723   2.290   9.559   3.894  0.4435 -0.2871 -0.8286
27730WAT      O12724   1.715  10.165   2.838 -0.1284  0.1648 -0.1803
27730WAT     H112725   1.670  10.178   2.922 -1.7765 -1.4580 -0.7551
27730WAT     H212726   1.742  10.073   2.840  0.7387  0.3869 -1.0219
27730WAT    EPW12727   1.713  10.155   2.850 -0.2314 -0.0200 -0.3672
27731WAT      O12728   2.612   8.608   5.317 -0.1980  0.3694  0.0414
27731WAT     H112729   2.621   8.613   5.412 -1.9955 -0.7492  0.2977
27731WAT     H212730   2.558   8.684   5.294 -0.1999  0.3486 -0.0248
27731WAT    EPW12731   2.606   8.619   5.327 -0.4355  0.2193  0.0665
27732WAT      O12732   0.769   0.796   6.042 -0.0207  0.2548 -0.5358
27732WAT     H112733   0.710   0.802   6.117 -0.7084  0.0649 -1.0519
27732WAT     H212734   0.724   0.737   5.981  0.6718  0.1653 -0.9652
27732WAT    EPW12735   0.755   0.789   6.044 -0.0200  0.2179 -0.6607
27733WAT      O12736  -2.643   7.879   4.690 -0.4650  0.3223  0.0124
27733WAT     H112737  -2.587   7.892   4.613 -2.6874  1.7483 -1.4956
27733WAT     H212738  -2.596   7.922   4.761  1.8077 -1.3010 -0.3981
27733WAT    EPW12739  -2.630   7.886   4.689 -0.4585  0.2964 -0.2408
27734WAT      O12740  -3.093   8.601   7.847 -0.0507 -0.6814  0.4147
27734WAT     H112741  -3.188   8.592   7.852 -0.3037  1.7938  1.2675
27734WAT     H212742  -3.072   8.592   7.754 -0.8392 -3.1132  0.4079
27734WAT    EPW12743  -3.103   8.598   7.836 -0.1880 -0.6757  0.5262
27735WAT      O12744  -2.064   2.860   3.617 -0.4602 -0.0610  0.0050
27735WAT     H112745  -1.993   2.864   3.554 -2.1161 -0.1970 -1.9561
27735WAT     H212746  -2.020   2.865   3.702  1.7976  0.8833 -1.1227
27735WAT    EPW12747  -2.049   2.861   3.620 -0.3808  0.0457 -0.4023
27736WAT      O12748  -1.455   6.817   8.129 -0.3997  0.1736 -0.4072
27736WAT     H112749  -1.399   6.850   8.059  1.0237  1.6701  1.3266
27736WAT     H212750  -1.481   6.729   8.100  0.2491  0.6539 -2.6865
27736WAT    EPW12751  -1.451   6.810   8.116 -0.1264  0.4344 -0.4792
27737WAT      O12752   1.194   9.380   6.963 -0.0438 -0.2067  0.0158
27737WAT     H112753   1.158   9.294   6.939  0.8357 -0.0620 -2.1191
27737WAT     H212754   1.136   9.443   6.919  1.5080  0.0879 -1.7534
27737WAT    EPW12755   1.181   9.377   6.954  0.2769 -0.1483 -0.4992
27738WAT      O12756  -5.850   8.559   5.950 -0.5405  0.0379  0.3233
27738WAT     H112757  -5.891   8.569   6.036 -1.6227  0.1531 -0.1958
27738WAT     H212758  -5.897   8.486   5.910  0.8826 -0.9451  0.3434
27738WAT    EPW12759  -5.861   8.550   5.956 -0.4957 -0.0768  0.2575
27739WAT      O12760   2.461   0.270   8.284 -0.3008 -0.1188  0.1379
27739WAT     H112761   2.514   0.231   8.353 -0.8225 -1.2054 -0.0449
27739WAT     H212762   2.508   0.250   8.203 -1.7091 -2.4798 -0.1780
27739WAT    EPW12763   2.474   0.262   8.282 -0.5553 -0.5735  0.0720
27740WAT      O12764  -0.640   4.050   7.706  0.3515  0.2027 -0.1760
27740WAT     H112765  -0.717   4.060   7.762 -1.3282 -1.3883 -2.0251
27740WAT     H212766  -0.641   4.129   7.651 -0.6271 -0.2621 -0.8703
27740WAT    EPW12767  -0.650   4.062   7.706  0.0009 -0.0684 -0.5114
27741WAT      O12768   3.039   3.639   4.479 -0.2675  0.2184  0.0712
27741WAT     H112769   2.996   3.593   4.551  1.4040 -0.7648  0.4808
27741WAT     H212770   3.128   3.656   4.511  0.8347 -1.1125 -2.0765
27741WAT    EPW12771   3.045   3.636   4.493  0.0983 -0.0868 -0.1578
27742WAT      O12772   6.005   5.792   2.194  0.0387  0.3400  0.1151
27742WAT     H112773   6.078   5.814   2.136  2.1791 -0.6138  2.2655
27742WAT     H212774   5.959   5.874   2.208 -0.5443  0.6057 -2.8133
27742WAT    EPW12775   6.009   5.805   2.188  0.2439  0.2494  0.0125
27743WAT      O12776   0.292  10.226   0.381  0.1308 -0.4708  0.9595
27743WAT     H112777   0.361  10.243   0.317 -0.0795 -2.4654  0.1278
27743WAT     H212778   0.211  10.251   0.336  0.1711  0.5776  1.4363
27743WAT    EPW12779   0.290  10.231   0.367  0.1083 -0.5956  0.9127
27744WAT      O12780  -3.776   9.980   1.368  0.6705  0.6597  0.1357
27744WAT     H112781  -3.830  10.033   1.426  0.5691  1.5472 -0.7468
27744WAT     H212782  -3.748  10.040   1.299  1.4522 -0.1774 -0.3029
27744WAT    EPW12783  -3.779   9.995   1.366  0.7602  0.6661 -0.0386
27745WAT      O12784  -0.715   2.949   2.648 -0.2829  1.4825 -0.0601
27745WAT     H112785  -0.807   2.975   2.646 -0.2741  1.5016 -0.2094
27745WAT     H212786  -0.667   3.031   2.651 -0.2374  1.5037 -1.0934
27745WAT    EPW12787  -0.721   2.963   2.649 -0.2758  1.4877 -0.2161
27746WAT      O12788   0.991   0.898   0.872 -0.3185  0.5796 -0.7163
27746WAT     H112789   1.063   0.928   0.928 -0.6454  0.9989 -0.5183
27746WAT     H212790   1.024   0.817   0.833  1.2288  2.0144 -2.5938
27746WAT    EPW12791   1.005   0.891   0.875 -0.1575  0.8242 -0.9378
27747WAT      O12792   0.929   0.775   3.559 -0.5339  0.2932 -0.1788
27747WAT     H112793   0.873   0.847   3.532  3.8499  3.5332 -1.7489
27747WAT     H212794   0.932   0.717   3.483 -1.1920  0.4311 -0.3172
27747WAT    EPW12795   0.922   0.777   3.545 -0.0425  0.7387 -0.4041
27748WAT      O12796   7.568   2.843   3.553 -0.1580  0.0404 -0.0025
27748WAT     H112797   7.522   2.855   3.470  0.3658  1.5837 -0.1002
27748WAT     H212798   7.635   2.777   3.533  0.8137  1.3181 -1.2103
27748WAT    EPW12799   7.571   2.836   3.539  0.0393  0.4126 -0.1746
27749WAT      O12800   0.140   6.092   1.526 -0.2841 -0.5205  0.8479
27749WAT     H112801   0.101   6.005   1.517 -0.1678 -0.5808  0.9259
27749WAT     H212802   0.078   6.141   1.580  0.2226 -0.9200  1.8291
27749WAT    EPW12803   0.126   6.087   1.532 -0.2019 -0.5810  0.9876
27750WAT      O12804   5.525   0.644   4.621  0.8725 -0.3005 -0.3171
27750WAT     H112805   5.522   0.571   4.558  2.1064 -0.2144 -0.5015
27750WAT     H212806   5.467   0.616   4.692 -0.1697 -0.6134 -1.2570
27750WAT    EPW12807   5.517   0.631   4.622  0.8979 -0.3304 -0.4654
27751WAT      O12808   4.091   3.451   6.108 -0.6343 -0.0550  0.1612
27751WAT     H112809   4.153   3.499   6.054  1.2937 -0.2814  2.0191
27751WAT     H212810   4.033   3.407   6.046 -0.1248  1.6838 -1.6267
27751WAT    EPW12811   4.092   3.451   6.093 -0.3128  0.1445  0.1707
27752WAT      O12812  -0.704   6.370   0.458 -0.2313 -0.3100 -0.4251
27752WAT     H112813  -0.695   6.402   0.548 -0.3092  1.2370 -0.9301
27752WAT     H212814  -0.793   6.394   0.433  0.4572  1.2228 -1.5987
27752WAT    EPW12815  -0.715   6.377   0.466 -0.1508  0.0963 -0.6465
27753WAT      O12816  -2.588   9.058   8.401  0.0212 -0.5681  0.3252
27753WAT     H112817  -2.531   8.989   8.435  1.0475 -1.1204 -2.2961
27753WAT     H212818  -2.533   9.136   8.399 -0.1579 -0.4426  0.2604
27753WAT    EPW12819  -2.573   9.059   8.405  0.1330 -0.6247 -0.0291
27754WAT      O12820   4.733   2.448   6.399  0.9164  0.1053 -0.1967
27754WAT     H112821   4.783   2.438   6.481 -1.1266  0.5223  1.1883
27754WAT     H212822   4.776   2.520   6.353 -0.0108  2.4369  2.3039
27754WAT    EPW12823   4.745   2.456   6.404  0.5245  0.4678  0.3159
27755WAT      O12824  -2.081   5.552   1.369  0.2698 -0.2073 -0.8754
27755WAT     H112825  -2.123   5.467   1.352 -1.1285  0.3442 -0.3004
27755WAT     H212826  -2.139   5.615   1.326  1.8039  0.4092 -2.1164
27755WAT    EPW12827  -2.094   5.549   1.361  0.2877 -0.0532 -0.9633
27756WAT      O12828  -0.076   1.674   8.866 -0.0971  0.1372 -0.0280
27756WAT     H112829  -0.004   1.729   8.894  0.0265  0.4188 -0.8835
27756WAT     H212830  -0.102   1.708   8.780 -1.2226  0.0244  0.2435
27756WAT    EPW12831  -0.070   1.685   8.858 -0.2292  0.1595 -0.1049
27757WAT      O12832   1.387  10.119   3.588 -0.4662 -0.7544 -0.5935
27757WAT     H112833   1.420  10.060   3.655 -0.7334 -0.3331 -0.0803
27757WAT     H212834   1.394  10.207   3.627  0.7396 -0.3461 -1.6713
27757WAT    EPW12835   1.392  10.123   3.602 -0.3424 -0.6447 -0.6679
27758WAT      O12836   5.988   0.362   0.356  0.3662 -0.2149 -0.4377
27758WAT     H112837   6.000   0.436   0.415  0.0890 -1.4394  1.2572
27758WAT     H212838   5.894   0.344   0.359  0.2966 -0.0778 -1.5499
27758WAT    EPW12839   5.977   0.369   0.364  0.3204 -0.3583 -0.3608
27759WAT      O12840   2.776   0.892   3.068  0.0071  1.0114  0.6818
27759WAT     H112841   2.840   0.821   3.058  0.0233  1.2859 -1.9531
27759WAT     H212842   2.822   0.970   3.034 -1.8600  1.0768 -2.0293
27759WAT    EPW12843   2.791   0.893   3.062 -0.2370  1.0562 -0.0232
27760WAT      O12844   1.832   9.892   4.429  0.2581  0.1550  0.2407
27760WAT     H112845   1.927   9.881   4.433  0.2515  0.1132  3.6968
27760WAT     H212846   1.817   9.985   4.445 -0.3316  0.7183 -2.9424
27760WAT    EPW12847   1.842   9.903   4.432  0.1794  0.2236  0.2768
27761WAT      O12848   7.474   2.397   2.122 -0.0873 -0.2206 -0.5618
27761WAT     H112849   7.540   2.431   2.062  0.4071 -2.5043 -1.4292
27761WAT     H212850   7.393   2.442   2.098  0.0214 -1.2816 -3.2394
27761WAT    EPW12851   7.472   2.407   2.111 -0.0079 -0.6616 -1.0294
27762WAT      O12852  -1.874   5.409   3.206 -0.3281  0.9413  0.6423
27762WAT     H112853  -1.815   5.362   3.147 -0.9878  0.4090  0.3954
27762WAT     H212854  -1.959   5.402   3.164 -0.5252  1.9157  0.8745
27762WAT    EPW12855  -1.877   5.402   3.193 -0.4411  0.9997  0.6404
27763WAT      O12856   3.307   6.671   6.159  0.1029  0.5089  0.0980
27763WAT     H112857   3.220   6.708   6.169  0.3159  1.7656 -2.2317
27763WAT     H212858   3.348   6.683   6.245 -1.4677  1.3031  0.7678
27763WAT    EPW12859   3.301   6.677   6.172 -0.0762  0.7792 -0.1211
27764WAT      O12860  -3.235   3.820   3.415 -0.5570  0.4794 -0.1277
27764WAT     H112861  -3.270   3.840   3.328 -0.3606  1.8609  0.0854
27764WAT     H212862  -3.149   3.864   3.416 -0.6896  0.7204  0.8609
27764WAT    EPW12863  -3.228   3.829   3.403 -0.5485  0.6933  0.0308
27765WAT      O12864   4.435   6.442   1.061  0.0566 -0.9275 -0.5821
27765WAT     H112865   4.395   6.481   1.139 -0.3797  0.3079 -1.3934
27765WAT     H212866   4.401   6.352   1.059 -2.6302  0.0068 -1.1364
27765WAT    EPW12867   4.425   6.435   1.071 -0.3555 -0.6411 -0.7622
27766WAT      O12868   2.091   5.910   4.412  0.7023  0.8769 -0.4056
27766WAT     H112869   2.022   5.932   4.349 -1.1793  0.9207  1.5525
27766WAT     H212870   2.062   5.827   4.451  2.7517 -0.0973 -0.8130
27766WAT    EPW12871   2.078   5.902   4.409  0.7244  0.7541 -0.2012
27767WAT      O12872   5.911  10.144   2.136  0.0407  0.6267  0.0709
27767WAT     H112873   5.978  10.078   2.122  0.5494  1.1812 -0.1439
27767WAT     H212874   5.944  10.197   2.208 -0.9602 -0.1153  1.1047
27767WAT    EPW12875   5.924  10.142   2.144 -0.0243  0.6018  0.1789
27768WAT      O12876   2.308   7.490   8.427 -0.0457  0.4785  0.1906
27768WAT     H112877   2.264   7.571   8.404 -0.1677  0.4910  0.4721
27768WAT     H212878   2.357   7.466   8.348 -0.3561  0.5941 -0.0365
27768WAT    EPW12879   2.309   7.497   8.413 -0.1026  0.4954  0.1979
27769WAT      O12880   6.630   4.303   0.439 -0.7774 -0.1448  0.1511
27769WAT     H112881   6.589   4.389   0.442  0.3821  0.4093  1.6303
27769WAT     H212882   6.705   4.314   0.380  1.2638  0.8575  2.6962
27769WAT    EPW12883   6.635   4.316   0.432 -0.3555  0.0603  0.6819
27770WAT      O12884  -0.939   0.234   5.119  0.0974  0.0896  0.4821
27770WAT     H112885  -0.847   0.260   5.125  1.1715 -3.2145  0.3987
27770WAT     H212886  -0.963   0.211   5.209  0.4187 -1.9807  0.0975
27770WAT    EPW12887  -0.930   0.234   5.132  0.2814 -0.6193  0.4203
27771WAT      O12888   0.668   1.691   3.516 -0.1588 -0.3185 -0.5169
27771WAT     H112889   0.628   1.618   3.470  1.5281 -1.4447 -0.3041
27771WAT     H212890   0.758   1.662   3.535  0.5155  1.7203 -0.2354
27771WAT    EPW12891   0.675   1.678   3.513  0.1526 -0.1981 -0.4517
27772WAT      O12892   2.817   9.121   5.829  0.0410 -0.1202  0.1185
27772WAT     H112893   2.865   9.045   5.861  0.4917  1.0085  2.3695
27772WAT     H212894   2.728   9.088   5.812  0.2650 -1.1862  0.8951
27772WAT    EPW12895   2.811   9.107   5.831  0.1302 -0.1116  0.5176
27773WAT      O12896  -5.153   8.993   8.951  0.4092 -0.7036 -0.5532
27773WAT     H112897  -5.120   9.082   8.959 -0.5708 -0.3100 -0.7095
27773WAT     H212898  -5.115   8.946   9.026  0.4477  0.0033 -0.1260
27773WAT    EPW12899  -5.144   8.998   8.962  0.2854 -0.5589 -0.5174
27774WAT      O12900  -3.055   8.462   1.296  0.1921  0.2238  0.2961
27774WAT     H112901  -3.067   8.367   1.303  0.6341  0.1175 -0.2838
27774WAT     H212902  -3.139   8.499   1.321 -0.4401 -0.3812 -0.8404
27774WAT    EPW12903  -3.068   8.454   1.300  0.1671  0.1302  0.0697
27775WAT      O12904  -0.273   9.605   3.014 -0.3416 -0.2872 -0.3685
27775WAT     H112905  -0.314   9.674   3.067  1.0428  0.6857 -0.5070
27775WAT     H212906  -0.186   9.594   3.052  0.3251 -0.2625 -1.8064
27775WAT    EPW12907  -0.267   9.613   3.026 -0.0710 -0.1559 -0.5765
27776WAT      O12908   1.195   7.458   4.291  0.9702 -0.0585  0.0179
27776WAT     H112909   1.111   7.494   4.318 -1.0290 -1.6542 -3.3424
27776WAT     H212910   1.183   7.363   4.294  2.5245 -0.3203 -0.8642
27776WAT    EPW12911   1.182   7.450   4.295  0.9115 -0.3035 -0.5417
27777WAT      O12912  -1.311   3.475   1.012  0.4350 -0.0284 -0.6005
27777WAT     H112913  -1.320   3.380   1.004  0.8393 -0.3666  1.9915
27777WAT     H212914  -1.385   3.510   0.962 -0.9114 -1.7985  0.0327
27777WAT    EPW12915  -1.322   3.467   1.004  0.3107 -0.3065 -0.1751
27778WAT      O12916   0.127   6.602   0.232 -0.2782  0.2029 -0.1283
27778WAT     H112917   0.124   6.570   0.142  2.4652 -2.5738  0.6046
27778WAT     H212918   0.100   6.528   0.286 -0.3808  1.3032  1.4208
27778WAT    EPW12919   0.123   6.588   0.228  0.0701 -0.0184  0.1727
27779WAT      O12920  -4.610   5.949   5.131  0.0109  0.7117 -0.0715
27779WAT     H112921  -4.667   5.872   5.134 -1.1515  1.5600  0.5549
27779WAT     H212922  -4.598   5.966   5.037  0.2151 -0.1549 -0.2195
27779WAT    EPW12923  -4.616   5.941   5.119 -0.1154  0.7093 -0.0083
27780WAT      O12924   2.173   7.918   7.566  0.4714 -0.0036 -0.3504
27780WAT     H112925   2.142   7.959   7.646  0.6981  1.9996 -1.2023
27780WAT     H212926   2.134   7.831   7.566  0.0272  0.1470  1.6406
27780WAT    EPW12927   2.164   7.912   7.576  0.4427  0.2804 -0.2000
27781WAT      O12928   8.027   0.289   1.523  0.2724 -0.4859  0.0357
27781WAT     H112929   8.110   0.276   1.568 -0.1162 -1.5719  0.4822
27781WAT     H212930   7.966   0.231   1.569 -1.3041  1.9573  1.2341
27781WAT    EPW12931   8.030   0.280   1.535  0.0134 -0.3069  0.2526
27782WAT      O12932  -2.486   7.116   3.597  0.2178 -0.7618  0.0100
27782WAT     H112933  -2.535   7.132   3.517 -1.6006 -4.5008  0.1906
27782WAT     H212934  -2.398   7.091   3.568 -0.0717 -0.9132 -0.7391
27782WAT    EPW12935  -2.481   7.115   3.583 -0.0603 -1.2748 -0.0650
27783WAT      O12936   4.868   5.615   3.390  0.2103  0.1601  0.4849
27783WAT     H112937   4.953   5.652   3.370 -0.3183 -0.0446 -2.4855
27783WAT     H212938   4.871   5.526   3.357 -2.7409  1.6620 -5.0676
27783WAT    EPW12939   4.879   5.608   3.383 -0.2484  0.3312 -0.6392
27784WAT      O12940  -2.413   4.402   3.445  0.8167  0.2466 -0.2116
27784WAT     H112941  -2.505   4.376   3.438  0.5795  0.4275  1.6168
27784WAT     H212942  -2.365   4.319   3.444  0.5622  0.1002 -0.3125
27784WAT    EPW12943  -2.419   4.388   3.444  0.7519  0.2513  0.0162
27785WAT      O12944   6.134   7.869   1.605  1.0109  0.4676  0.1950
27785WAT     H112945   6.113   7.957   1.574  0.9854 -0.5527 -2.9827
27785WAT     H212946   6.227   7.858   1.583  0.7886 -0.5994 -0.2608
27785WAT    EPW12947   6.144   7.879   1.598  0.9782  0.1922 -0.2843
27786WAT      O12948   1.036   7.466   6.746  0.2964  0.0867 -0.5501
27786WAT     H112949   1.043   7.556   6.712 -1.7641  1.0038  1.1875
27786WAT     H212950   1.001   7.477   6.835 -2.1265 -2.5173 -1.0381
27786WAT    EPW12951   1.032   7.480   6.754 -0.2949 -0.1361 -0.3853
27787WAT      O12952   5.502   1.400   0.793 -0.6062  0.4370 -0.0170
27787WAT     H112953   5.537   1.475   0.843  2.4647 -0.6289 -0.3205
27787WAT     H212954   5.423   1.433   0.752  0.2705  3.3391  0.3956
27787WAT    EPW12955   5.496   1.414   0.794 -0.0856  0.6792 -0.0027
27788WAT      O12956   7.121   1.169   4.776 -1.0886 -0.4181  0.6710
27788WAT     H112957   7.069   1.089   4.788  1.5142 -2.1857  1.1995
27788WAT     H212958   7.067   1.225   4.721 -3.0961 -2.5051  0.3656
27788WAT    EPW12959   7.107   1.166   4.770 -1.0102 -0.9265  0.7007
27789WAT      O12960   4.473   5.319   3.806  0.3038  0.6771 -0.2120
27789WAT     H112961   4.395   5.321   3.751  0.3054 -0.7771 -0.2855
27789WAT     H212962   4.440   5.326   3.895  0.0729 -0.0044 -0.2381
27789WAT    EPW12963   4.458   5.320   3.810  0.2735  0.3955 -0.2252
27790WAT      O12964   9.201   0.468   0.433  0.6363 -0.2860 -0.2661
27790WAT     H112965   9.217   0.488   0.525  1.0369  0.0865 -0.4110
27790WAT     H212966   9.283   0.491   0.389  0.2627  0.0716 -0.7943
27790WAT    EPW12967   9.214   0.474   0.439  0.6404 -0.1897 -0.3549
27791WAT      O12968  -2.820   4.086   4.452  0.3281 -0.0091  0.0067
27791WAT     H112969  -2.912   4.113   4.453 -0.3085 -2.0589  0.0722
27791WAT     H212970  -2.790   4.105   4.364 -0.4846 -0.3359 -0.3481
27791WAT    EPW12971  -2.829   4.092   4.441  0.1370 -0.3226 -0.0315
27792WAT      O12972  -0.963   8.326   2.106  0.8418 -0.4252 -0.3654
27792WAT     H112973  -1.030   8.372   2.157 -0.0005 -0.6541 -1.2106
27792WAT     H212974  -1.011   8.253   2.065  1.8209 -1.1518 -0.2493
27792WAT    EPW12975  -0.978   8.322   2.107  0.8598 -0.5512 -0.4617
27793WAT      O12976   5.026   6.896   4.999  0.2693  0.3310 -0.1918
27793WAT     H112977   5.097   6.931   5.052  1.2695 -0.6421 -0.8494
27793WAT     H212978   5.028   6.802   5.016 -0.4418  0.2106 -0.7238
27793WAT    EPW12979   5.035   6.888   5.009  0.3076  0.1867 -0.3486
27794WAT      O12980  -0.535   3.757   6.064 -0.3884 -0.4164 -0.4147
27794WAT     H112981  -0.474   3.715   6.003 -1.1236 -0.8371 -0.8744
27794WAT     H212982  -0.492   3.839   6.088 -0.2085 -0.1032 -1.7239
27794WAT    EPW12983  -0.521   3.762   6.059 -0.4616 -0.4306 -0.6480
27795WAT      O12984   5.601   8.930   3.106 -0.3571 -0.4676  0.1397
27795WAT     H112985   5.533   8.910   3.040 -0.5667 -1.6089  0.6781
27795WAT     H212986   5.619   8.846   3.147  1.8039 -0.2882 -0.3626
27795WAT    EPW12987   5.594   8.916   3.102 -0.0997 -0.5946  0.1445
27796WAT      O12988   2.243   8.823   2.709  0.4957  0.3598  0.3822
27796WAT     H112989   2.155   8.860   2.715 -0.8636 -2.6193  0.5686
27796WAT     H212990   2.300   8.892   2.744 -1.6211  2.6317 -0.2968
27796WAT    EPW12991   2.239   8.837   2.715  0.0372  0.2666  0.3172
27797WAT      O12992   8.947   4.877   0.159  0.2738 -0.2063  0.6221
27797WAT     H112993   8.897   4.953   0.129  1.5221 -0.2012 -1.7317
27797WAT     H212994   8.892   4.802   0.136 -0.3786 -0.0883  1.7407
27797WAT    EPW12995   8.933   4.877   0.152  0.3529 -0.1900  0.4592
27798WAT      O12996  -4.394   6.870   8.124 -0.3416  0.1094 -0.0569
27798WAT     H112997  -4.469   6.878   8.183  1.5772  4.3117  2.2695
27798WAT     H212998  -4.428   6.897   8.039 -1.8310  0.3057  0.5680
27798WAT    EPW12999  -4.409   6.874   8.121 -0.2851  0.6893  0.3328
27799WAT      O13000   1.725   0.757   4.766 -0.1010 -0.0520 -0.7124
27799WAT     H113001   1.674   0.835   4.743 -1.1805 -0.1020  1.3763
27799WAT     H213002   1.738   0.763   4.860 -0.9963 -2.8553 -0.3200
27799WAT    EPW13003   1.720   0.768   4.775 -0.3614 -0.4283 -0.3850
27800WAT      O13004   7.662   0.519   3.156  0.4721 -0.2263 -0.0010
27800WAT     H113005   7.660   0.531   3.251 -1.8507 -0.6815  0.0739
27800WAT     H213006   7.575   0.548   3.127 -0.0833 -3.1117 -1.5788
27800WAT    EPW13007   7.650   0.525   3.165  0.0925 -0.6669 -0.1992
27801WAT      O13008   4.372   2.983   3.061 -0.4768  0.5230 -0.0244
27801WAT     H113009   4.367   2.944   2.974 -1.1587  1.8185 -0.5894
27801WAT     H213010   4.464   3.003   3.074 -0.1118 -1.2084  0.2716
27801WAT    EPW13011   4.383   2.980   3.051 -0.5186  0.4656 -0.0600
27802WAT      O13012   2.562   6.461   7.659  0.7307  0.5183 -0.2949
27802WAT     H113013   2.482   6.486   7.614 -1.1868 -3.1900  0.6061
27802WAT     H213014   2.614   6.415   7.592 -0.4682 -1.7769  0.2318
27802WAT    EPW13015   2.558   6.458   7.644  0.3196 -0.2735 -0.1066
27803WAT      O13016   5.817   7.796   1.976 -0.1037 -0.3053 -0.2393
27803WAT     H113017   5.803   7.878   2.024  0.4230  0.5464 -1.4751
27803WAT     H213018   5.855   7.737   2.040 -0.2669  0.4904  0.6180
27803WAT    EPW13019   5.820   7.799   1.991 -0.0558 -0.0880 -0.2893
27804WAT      O13020  -6.458   8.137   7.072 -0.1115 -0.4621 -0.0767
27804WAT     H113021  -6.396   8.065   7.085  0.1448 -0.2882 -0.3336
27804WAT     H213022  -6.415   8.195   7.010  0.8026  1.2578  2.0502
27804WAT    EPW13023  -6.444   8.135   7.065  0.0427 -0.2122  0.1700
27805WAT      O13024  -4.177   8.489   2.735  0.7257  0.1422  0.3509
27805WAT     H113025  -4.187   8.463   2.643 -1.6335  1.8471  0.0121
27805WAT     H213026  -4.200   8.411   2.785 -0.7171 -0.0557 -0.5667
27805WAT    EPW13027  -4.182   8.475   2.729  0.2244  0.3409  0.1853
27806WAT      O13028  -0.332   9.294   8.801 -0.2946  0.2289  0.2054
27806WAT     H113029  -0.249   9.323   8.840 -0.1285  2.1686 -1.4194
27806WAT     H213030  -0.323   9.314   8.708 -1.8106 -1.4844 -0.3615
27806WAT    EPW13031  -0.320   9.300   8.794 -0.4727  0.2589 -0.0834
27807WAT      O13032  10.099   0.084   0.522 -0.3279  0.4016 -0.0006
27807WAT     H113033  10.129   0.085   0.613  0.0146  1.0975 -0.1107
27807WAT     H213034  10.168   0.131   0.474  0.6749 -1.8910 -1.0029
27807WAT    EPW13035  10.112   0.090   0.528 -0.1507  0.1910 -0.1473
27808WAT      O13036  -0.516   3.477   2.630  0.2329 -0.4918 -0.4207
27808WAT     H113037  -0.559   3.557   2.601 -0.8312 -1.5649 -2.0183
27808WAT     H213038  -0.439   3.469   2.573 -0.2875 -1.1606 -1.0450
27808WAT    EPW13039  -0.511   3.486   2.619  0.0239 -0.7217 -0.7137
27809WAT      O13040  -0.226   2.649   5.691  0.0676  0.0382  0.1228
27809WAT     H113041  -0.158   2.702   5.649 -1.3553  1.0614 -0.9625
27809WAT     H213042  -0.300   2.653   5.631 -0.1353 -3.2232 -0.0334
27809WAT    EPW13043  -0.227   2.657   5.678 -0.1468 -0.2570 -0.0410
27810WAT      O13044   1.611   7.934   8.412  0.0985  0.7370 -0.6834
27810WAT     H113045   1.543   7.942   8.479  0.4458  0.1992 -0.2554
27810WAT     H213046   1.685   7.983   8.448  0.7060 -0.5584 -0.0876
27810WAT    EPW13047   1.612   7.941   8.426  0.2244  0.4952 -0.5488
27811WAT      O13048   2.106   5.030   5.211 -0.2399  0.2544  0.3298
27811WAT     H113049   2.081   5.080   5.133  1.8563 -1.9621 -1.9382
27811WAT     H213050   2.035   5.047   5.274 -3.0424  0.6942 -2.6678
27811WAT    EPW13051   2.093   5.039   5.209 -0.3330  0.0200 -0.3648
27812WAT      O13052  -4.673   0.923   8.867 -0.1685 -0.0792  0.6223
27812WAT     H113053  -4.608   0.977   8.821  1.2240 -1.6503  0.6350
27812WAT     H213054  -4.620   0.862   8.918 -1.6966 -1.0616  1.0645
27812WAT    EPW13055  -4.657   0.922   8.868 -0.1864 -0.4160  0.6819
27813WAT      O13056  -2.035  10.151   2.637  0.3755  0.0240 -0.1528
27813WAT     H113057  -1.956  10.205   2.651  0.3640 -0.2037  0.9079
27813WAT     H213058  -2.001  10.064   2.618  0.3979 -0.1295  0.5429
27813WAT    EPW13059  -2.020  10.147   2.636  0.3771 -0.0257  0.0788
27814WAT      O13060   4.980   5.445   2.110  0.1489  0.6728 -0.0965
27814WAT     H113061   5.065   5.404   2.092  0.6029  1.6447 -0.2725
27814WAT     H213062   4.976   5.518   2.048 -2.0632 -0.9766 -2.0472
27814WAT    EPW13063   4.991   5.449   2.100 -0.0830  0.5834 -0.3769
27815WAT      O13064   2.284   1.556   1.393  0.0530  0.1979  0.0627
27815WAT     H113065   2.250   1.581   1.479 -0.9684  0.1243 -0.3039
27815WAT     H213066   2.209   1.565   1.335  0.7106  0.1356 -0.8037
27815WAT    EPW13067   2.269   1.560   1.397  0.0051  0.1799 -0.0999
27816WAT      O13068  -4.976   3.158   6.462  0.2274  0.9410 -0.0812
27816WAT     H113069  -5.011   3.241   6.492  1.5411  1.3542  0.4068
27816WAT     H213070  -4.885   3.158   6.493  1.0317  0.4415 -2.2485
27816WAT    EPW13071  -4.968   3.169   6.470  0.5069  0.9295 -0.3028
27817WAT      O13072   2.000   7.844   3.788 -0.0574 -0.2278 -0.6584
27817WAT     H113073   2.005   7.770   3.726  0.6008 -0.4013 -0.4055
27817WAT     H213074   1.975   7.804   3.871 -0.9925  0.0134 -0.8109
27817WAT    EPW13075   1.997   7.829   3.791 -0.0939 -0.2186 -0.6452
27818WAT      O13076   3.179   5.966   1.448 -0.6611 -0.1631  0.5995
27818WAT     H113077   3.265   6.007   1.449 -0.4400 -0.5657 -0.4365
27818WAT     H213078   3.121   6.028   1.493  0.0154  0.4502  0.6264
27818WAT    EPW13079   3.182   5.979   1.454 -0.5426 -0.1352  0.4664
27819WAT      O13080  -1.089   4.798   5.893 -0.6388 -0.1715  0.4814
27819WAT     H113081  -1.009   4.761   5.855 -0.9347 -0.4657  0.1402
27819WAT     H213082  -1.153   4.727   5.889 -0.9555  0.1023  0.6339
27819WAT    EPW13083  -1.087   4.784   5.888 -0.7196 -0.1743  0.4566
27820WAT      O13084  -2.094   7.803   6.126  0.5316  0.0801  0.1804
27820WAT     H113085  -2.144   7.791   6.045 -0.7738 -2.2091  1.2398
27820WAT     H213086  -2.097   7.718   6.169  0.6016  1.3945  2.9781
27820WAT    EPW13087  -2.101   7.790   6.121  0.3687 -0.0486  0.6890
27821WAT      O13088   4.603   0.482   7.614 -0.2611 -0.7222 -0.1815
27821WAT     H113089   4.631   0.572   7.626 -0.5197 -0.4496 -1.4855
27821WAT     H213090   4.578   0.452   7.702  0.5095  0.2267  0.3751
27821WAT    EPW13091   4.603   0.490   7.628 -0.1936 -0.5611 -0.2804
27822WAT      O13092  -0.656   7.767   1.896 -0.2841  0.2713  0.7745
27822WAT     H113093  -0.744   7.771   1.858 -1.3916  2.7048  3.2129
27822WAT     H213094  -0.659   7.829   1.969  2.9796 -0.8465  2.0338
27822WAT    EPW13095  -0.668   7.776   1.901  0.0003  0.4449  1.2622
27823WAT      O13096  -1.457   1.974   3.495 -0.3109 -0.4186  0.2842
27823WAT     H113097  -1.370   1.937   3.505  0.0029  0.4734  1.0749
27823WAT     H213098  -1.494   1.973   3.584  0.1387  2.0891  0.5744
27823WAT    EPW13099  -1.450   1.969   3.508 -0.2102  0.0298  0.4268
27824WAT      O13100  -3.138   9.621   5.937 -0.3498  0.0411  0.2556
27824WAT     H113101  -3.134   9.673   6.018 -1.5518 -0.3688  0.6099
27824WAT     H213102  -3.155   9.686   5.868  0.2651  0.3436  0.3792
27824WAT    EPW13103  -3.140   9.637   5.939 -0.4271  0.0272  0.3185
27825WAT      O13104   0.938   4.935   8.296  0.3928 -0.0166  0.4617
27825WAT     H113105   0.941   4.874   8.369 -1.1408 -1.2955 -0.4820
27825WAT     H213106   1.029   4.964   8.285  0.6009  0.5887  3.1187
27825WAT    EPW13107   0.950   4.931   8.304  0.2180 -0.1054  0.6876
27826WAT      O13108   8.571   1.789   0.337 -0.3249  0.4284 -0.1623
27826WAT     H113109   8.599   1.800   0.246  0.1650 -1.0348 -0.2179
27826WAT     H213110   8.644   1.743   0.378 -1.5108 -1.0360  0.3766
27826WAT    EPW13111   8.584   1.785   0.330 -0.4163  0.0423 -0.0986
27827WAT      O13112   0.851   5.768   2.099 -0.5748  0.0346 -0.0533
27827WAT     H113113   0.795   5.780   2.022 -1.0453  0.0669  0.2906
27827WAT     H213114   0.790   5.747   2.170 -0.0970 -0.5399  0.1954
27827WAT    EPW13115   0.835   5.767   2.098 -0.5738 -0.0370  0.0249
27828WAT      O13116  -0.284   5.203   6.489 -0.7567  0.1178  0.1387
27828WAT     H113117  -0.188   5.210   6.496 -0.3284 -2.9155 -1.1041
27828WAT     H213118  -0.306   5.259   6.415  0.1315  0.3469  0.0269
27828WAT    EPW13119  -0.274   5.211   6.480 -0.5831 -0.2520 -0.0398
27829WAT      O13120   5.804   5.640   1.509  0.1603  0.4072 -0.2677
27829WAT     H113121   5.823   5.731   1.488  0.4461  0.2921 -0.5160
27829WAT     H213122   5.805   5.637   1.605 -1.3778  0.9859 -0.1978
27829WAT    EPW13123   5.807   5.652   1.519 -0.0050  0.4683 -0.2912
27830WAT      O13124  -0.619   9.024   4.437  1.0653  0.0353  0.9835
27830WAT     H113125  -0.632   8.985   4.351 -0.2467  0.9678  0.7178
27830WAT     H213126  -0.684   8.982   4.493  2.7046 -1.4507  1.8717
27830WAT    EPW13127  -0.629   9.014   4.433  1.1084 -0.0377  1.0655
27831WAT      O13128  -4.323   4.042   7.592  0.0033  0.4587 -0.0856
27831WAT     H113129  -4.375   4.120   7.573  2.1761  2.1539  0.6125
27831WAT     H213130  -4.237   4.060   7.554  0.8715 -1.1345  1.0150
27831WAT    EPW13131  -4.319   4.054   7.584  0.4044  0.4723  0.1516
27832WAT      O13132  -4.884   3.591   7.880 -0.4592  0.1998 -0.3538
27832WAT     H113133  -4.876   3.521   7.944  0.0425 -0.0951 -0.7344
27832WAT     H213134  -4.804   3.586   7.828 -0.6572  0.7184 -0.7230
27832WAT    EPW13135  -4.873   3.581   7.881 -0.4191  0.2292 -0.4528
27833WAT      O13136   2.912   0.226   5.630 -0.2824  0.0514 -0.0636
27833WAT     H113137   2.913   0.298   5.568  1.6468  1.6128  1.6355
27833WAT     H213138   2.821   0.221   5.660 -0.8510  0.4526 -1.6293
27833WAT    EPW13139   2.900   0.235   5.626 -0.1030  0.3102 -0.0463
27834WAT      O13140   1.174   9.901   0.524 -0.2702  0.0575  0.0748
27834WAT     H113141   1.096   9.868   0.480  0.0904 -0.2700 -0.3348
27834WAT     H213142   1.241   9.834   0.508  0.2343  0.5741 -0.0237
27834WAT    EPW13143   1.173   9.888   0.516 -0.1561  0.0825  0.0078
27835WAT      O13144   0.811   4.358   5.600 -0.0870 -0.7303 -0.2076
27835WAT     H113145   0.867   4.435   5.593  0.1068 -0.8794 -0.2982
27835WAT     H213146   0.724   4.390   5.575 -0.2363 -0.2832  0.7881
27835WAT    EPW13147   0.807   4.373   5.596 -0.0811 -0.6909 -0.0882
27836WAT      O13148   0.444   3.660   2.872  0.2955  0.2826 -0.0520
27836WAT     H113149   0.528   3.701   2.853  0.0642  1.1274  0.7153
27836WAT     H213150   0.457   3.568   2.851  0.9636  0.6482 -1.3574
27836WAT    EPW13151   0.457   3.653   2.867  0.3531  0.4421 -0.1229
27837WAT      O13152  -0.865   7.656   3.250 -0.7245 -0.0726 -0.3447
27837WAT     H113153  -0.810   7.674   3.174  1.0025 -0.4951  0.7551
27837WAT     H213154  -0.857   7.734   3.304 -2.1022  0.3056 -0.6546
27837WAT    EPW13155  -0.857   7.669   3.247 -0.6784 -0.0784 -0.2404
27838WAT      O13156   2.000   9.632   5.012  0.1932 -0.3593 -0.1564
27838WAT     H113157   1.952   9.652   4.932  0.2779  0.1938 -0.0756
27838WAT     H213158   2.032   9.543   4.999 -0.8502 -0.7425 -0.2090
27838WAT    EPW13159   1.998   9.623   5.000  0.0667 -0.3371 -0.1526
27839WAT      O13160   4.724   9.140   3.264 -0.1564 -0.3741  0.8404
27839WAT     H113161   4.694   9.081   3.195 -1.8838  0.9245  0.4055
27839WAT     H213162   4.658   9.132   3.333 -1.4609  2.2275  0.0503
27839WAT    EPW13163   4.711   9.131   3.264 -0.5562  0.1402  0.6789
27840WAT      O13164   4.205   9.456   3.665 -0.6727 -0.1587 -1.1877
27840WAT     H113165   4.230   9.547   3.651 -2.3530  0.4319 -0.5763
27840WAT     H213166   4.287   9.407   3.658  0.4940  1.5536 -0.0482
27840WAT    EPW13167   4.219   9.461   3.662 -0.7403  0.1450 -0.9568
27841WAT      O13168   4.908   9.568   0.628  0.1399 -0.4119  0.4387
27841WAT     H113169   4.992   9.543   0.590  0.0763  0.8634 -0.6291
27841WAT     H213170   4.919   9.556   0.722  1.2404 -1.0408  0.2410
27841WAT    EPW13171   4.920   9.563   0.635  0.2768 -0.3271  0.2718
27842WAT      O13172   6.255   1.829   4.679 -0.0762  0.3237  0.6240
27842WAT     H113173   6.257   1.737   4.652 -0.0402 -0.0683  1.8931
27842WAT     H213174   6.344   1.860   4.662  0.4255 -0.3876  1.8132
27842WAT    EPW13175   6.267   1.821   4.673 -0.0055  0.1782  0.9482
27843WAT      O13176   0.601   2.866   6.938 -0.2697  0.1157  0.4039
27843WAT     H113177   0.540   2.907   6.877 -0.1584 -1.2316 -0.6460
27843WAT     H213178   0.687   2.900   6.912  0.0663 -2.0638 -1.6861
27843WAT    EPW13179   0.605   2.876   6.927 -0.2107 -0.3494 -0.0105
27844WAT      O13180  -3.744   1.974   6.161  0.1239 -0.5798  0.4077
27844WAT     H113181  -3.735   1.880   6.171 -0.2607 -0.8052 -1.0711
27844WAT     H213182  -3.834   1.993   6.190 -0.4599 -0.9863 -1.0236
27844WAT    EPW13183  -3.755   1.964   6.166 -0.0037 -0.6632  0.0243
27845WAT      O13184   1.789   4.494   1.464  0.2438  0.5114  0.0835
27845WAT     H113185   1.717   4.451   1.419  0.0315  1.7967 -0.8670
27845WAT     H213186   1.809   4.437   1.538  0.0689 -1.2454 -1.1653
27845WAT    EPW13187   1.782   4.481   1.468  0.1927  0.4492 -0.2066
27846WAT      O13188   2.152   6.848   6.348  0.1392 -0.1999 -0.3874
27846WAT     H113189   2.210   6.866   6.274  0.6218 -0.4227 -0.0704
27846WAT     H213190   2.211   6.825   6.419 -0.2310  1.3668  0.4766
27846WAT    EPW13191   2.167   6.847   6.347  0.1539 -0.0229 -0.2317
27847WAT      O13192   1.027  10.000   7.569  0.1235 -0.2795  0.3162
27847WAT     H113193   1.122   9.991   7.580  0.2916  0.6762 -0.2344
27847WAT     H213194   0.990   9.932   7.626  1.0835  1.0114  2.6484
27847WAT    EPW13195   1.035   9.990   7.578  0.2723  0.0167  0.5512
27848WAT      O13196  -1.459   9.157   8.770  0.1772  0.4080  0.3246
27848WAT     H113197  -1.499   9.133   8.853  1.8642  0.6617  1.2502
27848WAT     H213198  -1.431   9.073   8.732 -0.7252  0.2784 -0.0823
27848WAT    EPW13199  -1.461   9.143   8.776  0.2806  0.4249  0.3929
27849WAT      O13200   3.925   4.671   4.947 -0.5562  0.2765 -0.5969
27849WAT     H113201   3.841   4.664   4.992  0.5403  0.1587  1.5624
27849WAT     H213202   3.990   4.669   5.017  1.2621  0.4353 -2.1925
27849WAT    EPW13203   3.923   4.670   4.962 -0.1719  0.2820 -0.5224
27850WAT      O13204   1.098   7.158   4.284  0.2759  0.3222  0.2597
27850WAT     H113205   1.005   7.143   4.299  0.3550 -0.0896  0.3559
27850WAT     H213206   1.128   7.081   4.235 -0.3336  2.4082 -3.7470
27850WAT    EPW13207   1.090   7.146   4.280  0.2059  0.5429 -0.2563
27851WAT      O13208   5.702   2.850   5.993 -0.1250 -0.0187  0.5879
27851WAT     H113209   5.617   2.826   5.957  0.1760  1.9876 -1.7104
27851WAT     H213210   5.758   2.774   5.975 -1.0362 -0.7274  0.6956
27851WAT    EPW13211   5.699   2.837   5.986 -0.2055  0.1525  0.2990
27852WAT      O13212   1.768   3.826   7.637  0.6984 -0.4804  0.5920
27852WAT     H113213   1.813   3.873   7.566 -0.4473 -0.8553 -0.4226
27852WAT     H213214   1.833   3.765   7.670  1.6643  0.5987  0.7685
27852WAT    EPW13215   1.783   3.824   7.632  0.6747 -0.3875  0.4814
27853WAT      O13216  -0.352   7.719   8.473 -0.0937 -0.4669 -0.2559
27853WAT     H113217  -0.276   7.691   8.525  0.3646  1.4936  0.1988
27853WAT     H213218  -0.409   7.642   8.471  1.0410 -1.3894  0.9888
27853WAT    EPW13219  -0.349   7.705   8.480  0.1164 -0.3300 -0.0319
27854WAT      O13220   2.018  10.097   7.910 -0.3748 -0.4956 -0.1591
27854WAT     H113221   2.044  10.053   7.991  3.2122  0.2386 -0.7254
27854WAT     H213222   1.961  10.034   7.866 -1.5173 -1.3707  2.3740
27854WAT    EPW13223   2.014  10.083   7.915 -0.0523 -0.5145  0.1004
27855WAT      O13224  -2.792   6.100   2.881  0.6514  0.4480  0.3863
27855WAT     H113225  -2.882   6.132   2.872  0.7074  0.4524 -0.2190
27855WAT     H213226  -2.754   6.153   2.950 -0.1263 -0.2500  1.3818
27855WAT    EPW13227  -2.799   6.111   2.889  0.5562  0.3567  0.4379
27856WAT      O13228   3.554   2.419   4.038 -0.3136  0.0542  0.1279
27856WAT     H113229   3.507   2.502   4.035  0.7818  0.7099  0.7179
27856WAT     H213230   3.484   2.353   4.041 -1.1973  0.9393 -0.2172
27856WAT    EPW13231   3.538   2.421   4.038 -0.2857  0.2575  0.1605
27857WAT      O13232   2.583   5.387   7.557  0.3333 -0.3057 -0.6652
27857WAT     H113233   2.502   5.355   7.597  1.2322  1.1195  2.5986
27857WAT     H213234   2.553   5.432   7.477 -2.1811  0.4053  0.5474
27857WAT    EPW13235   2.568   5.389   7.552  0.1202 -0.0241 -0.0746
27858WAT      O13236  -0.703   3.781   3.174 -0.5544  0.2627  0.8511
27858WAT     H113237  -0.741   3.808   3.257 -1.5294  1.5416  0.0382
27858WAT     H213238  -0.615   3.751   3.196 -1.2116 -0.6008  2.4865
27858WAT    EPW13239  -0.696   3.780   3.187 -0.7697  0.3176  0.9596
27859WAT      O13240  -5.001   7.670   4.252 -0.2147 -0.2249  0.4004
27859WAT     H113241  -4.991   7.763   4.275 -1.5236  1.7534 -5.4229
27859WAT     H213242  -5.075   7.640   4.306  0.4874  1.8585  2.7338
27859WAT    EPW13243  -5.010   7.679   4.262 -0.2947  0.3109 -0.0598
27860WAT      O13244   0.772   5.083   3.838  0.1420 -0.6054 -0.1783
27860WAT     H113245   0.754   5.087   3.932  4.9628 -0.1202  0.9903
27860WAT     H213246   0.782   5.174   3.812 -1.9238 -0.6866 -1.4979
27860WAT    EPW13247   0.771   5.095   3.847  0.5054 -0.5522 -0.1981
27861WAT      O13248   3.792   0.640   6.154 -0.7057 -0.4454  0.2645
27861WAT     H113249   3.710   0.662   6.109 -0.2687 -3.7064 -2.5015
27861WAT     H213250   3.861   0.668   6.094  0.0021 -2.1719  0.2302
27861WAT    EPW13251   3.790   0.647   6.141 -0.5547 -1.1032 -0.1049
27862WAT      O13252   0.139   5.717   5.442 -0.1616 -1.0176 -0.1438
27862WAT     H113253   0.200   5.676   5.380  0.0714 -0.9739  0.0518
27862WAT     H213254   0.196   5.754   5.509 -0.4058 -0.9378  0.0191
27862WAT    EPW13255   0.155   5.716   5.443 -0.1631 -1.0016 -0.0966
27863WAT      O13256   4.493   0.340   1.342  0.3414  0.0287 -0.1052
27863WAT     H113257   4.538   0.259   1.364  2.7068  1.5036  0.9499
27863WAT     H213258   4.498   0.346   1.247  0.6290 -0.8044 -0.1431
27863WAT    EPW13259   4.500   0.330   1.333  0.6914  0.1134  0.0290
27864WAT      O13260  -1.930   6.804   7.001 -0.3833 -0.0759 -0.4953
27864WAT     H113261  -1.875   6.749   7.056 -0.2166  0.0252 -0.5602
27864WAT     H213262  -1.873   6.876   6.974 -1.0624  1.0562  0.9723
27864WAT    EPW13263  -1.915   6.806   7.005 -0.4508  0.0868 -0.3102
27865WAT      O13264   3.401   1.802   6.408 -0.4687  0.2846 -1.2134
27865WAT     H113265   3.413   1.865   6.480 -0.4752  0.6515 -1.5285
27865WAT     H213266   3.323   1.752   6.433 -0.4498  0.3847 -0.9478
27865WAT    EPW13267   3.392   1.804   6.421 -0.4671  0.3462 -1.2200
27866WAT      O13268   6.666   0.811   2.840 -0.0441  0.4709 -0.0534
27866WAT     H113269   6.653   0.749   2.911 -0.4047  0.6773  0.0676
27866WAT     H213270   6.717   0.764   2.775 -0.2899  0.0610  0.0507
27866WAT    EPW13271   6.671   0.797   2.841 -0.1242  0.4440 -0.0237
27867WAT      O13272   6.931   6.372   1.893 -0.0205  0.0630  0.3942
27867WAT     H113273   7.020   6.337   1.898  0.1170  0.2253 -0.6706
27867WAT     H213274   6.890   6.347   1.976 -0.6295 -4.5610 -1.0084
27867WAT    EPW13275   6.937   6.364   1.905 -0.0825 -0.5255  0.0688
27868WAT      O13276   3.495   7.494   6.005  0.5543  0.1033  0.1120
27868WAT     H113277   3.505   7.485   5.910  1.1505  0.1932  0.1621
27868WAT     H213278   3.541   7.576   6.026 -1.6134  1.3731  0.1555
27868WAT    EPW13279   3.502   7.504   5.995  0.3471  0.2825  0.1242
27869WAT      O13280  -4.862   6.371   4.940  0.8531  0.0487  0.2504
27869WAT     H113281  -4.790   6.434   4.950  1.7274 -1.0990  1.3524
27869WAT     H213282  -4.819   6.286   4.932 -0.3894 -0.7157  1.3516
27869WAT    EPW13283  -4.847   6.368   4.940  0.8044 -0.2034  0.5410
27870WAT      O13284   6.782   5.535   1.132  0.3686 -0.5018  0.0595
27870WAT     H113285   6.733   5.473   1.079 -1.8744  1.5319 -0.4006
27870WAT     H213286   6.826   5.481   1.198 -1.7440 -2.5453 -0.0966
27870WAT    EPW13287   6.781   5.520   1.134 -0.2058 -0.5031 -0.0218
27871WAT      O13288   3.099   5.580   6.995  0.6296  0.8707 -0.7186
27871WAT     H113289   3.140   5.514   6.939  0.9264  1.3001 -1.0178
27871WAT     H213290   3.172   5.637   7.022  0.8398 -0.4419  1.7165
27871WAT    EPW13291   3.114   5.579   6.991  0.6964  0.7541 -0.4368
27872WAT      O13292  -0.266   0.917   4.532  0.5434  0.6449 -0.4040
27872WAT     H113293  -0.266   0.835   4.582 -0.9277 -0.3670 -1.9513
27872WAT     H213294  -0.359   0.937   4.519  0.8872  1.9287 -1.0988
27872WAT    EPW13295  -0.279   0.909   4.537  0.3947  0.6807 -0.6998
27873WAT      O13296   0.796   4.546   5.098 -0.0010 -0.5913  0.2124
27873WAT     H113297   0.832   4.628   5.131  1.5928 -1.0507 -0.2926
27873WAT     H213298   0.799   4.487   5.174  1.4977 -0.9700 -0.1010
27873WAT    EPW13299   0.801   4.549   5.113  0.4069 -0.7019  0.1044
27874WAT      O13300  -0.712   4.799   8.057  0.3614  0.4905 -0.9866
27874WAT     H113301  -0.782   4.824   7.996  0.0001  0.8991 -0.4151
27874WAT     H213302  -0.753   4.733   8.114  0.7266  0.0362 -1.2429
27874WAT    EPW13303  -0.727   4.793   8.057  0.3619  0.4845 -0.9451
27875WAT      O13304   2.148   9.760   4.155 -0.5456  0.4493  0.2955
27875WAT     H113305   2.216   9.694   4.138 -0.7807  0.5068 -1.0159
27875WAT     H213306   2.110   9.777   4.069 -1.5806  1.1248  0.8671
27875WAT    EPW13307   2.152   9.753   4.141 -0.7131  0.5460  0.1979
27876WAT      O13308   2.597   1.376   1.944  0.5739  0.4386 -0.1741
27876WAT     H113309   2.570   1.349   1.856 -2.0046  1.0848  0.3421
27876WAT     H213310   2.604   1.472   1.939 -2.9366  0.8890  1.0288
27876WAT    EPW13311   2.595   1.385   1.931 -0.2292  0.5832  0.0526
27877WAT      O13312   1.581   3.645   6.080  1.0215  0.4767 -0.0500
27877WAT     H113313   1.553   3.554   6.097  2.9544 -0.3862 -1.2096
27877WAT     H213314   1.583   3.652   5.985  2.5273  1.2035  0.0215
27877WAT    EPW13315   1.577   3.634   6.070  1.4750  0.4587 -0.1936
27878WAT      O13316  -3.686   2.973   7.903  0.2619  0.1485 -0.0434
27878WAT     H113317  -3.781   2.961   7.901  0.4993 -2.6915  0.4135
27878WAT     H213318  -3.669   3.048   7.847 -2.6214  4.6541  4.3303
27878WAT    EPW13319  -3.696   2.981   7.896 -0.0871  0.3682  0.5939
27879WAT      O13320   0.585   1.655   1.042 -0.2036 -0.2699 -0.5028
27879WAT     H113321   0.529   1.713   1.092 -2.2903 -2.3669 -0.1975
27879WAT     H213322   0.627   1.711   0.977 -2.4779  1.4931 -0.5578
27879WAT    EPW13323   0.583   1.670   1.040 -0.7788 -0.3139 -0.4697
27880WAT      O13324   4.144   0.764   0.850  0.2518  0.2267 -0.5855
27880WAT     H113325   4.176   0.838   0.798  0.0750  1.3556  0.8489
27880WAT     H213326   4.052   0.783   0.867  0.3213 -0.0759  0.1982
27880WAT    EPW13327   4.136   0.776   0.845  0.2377  0.3357 -0.2929
27881WAT      O13328  -5.393   8.737   8.247 -0.2383 -0.4758 -0.0677
27881WAT     H113329  -5.424   8.753   8.158 -0.3344  0.4733  0.1198
27881WAT     H213330  -5.414   8.645   8.264 -0.7225 -0.5147 -0.8240
27881WAT    EPW13331  -5.400   8.727   8.237 -0.3147 -0.3557 -0.1426
27882WAT      O13332  -1.130   0.640   3.574  0.3706 -0.2177  0.2316
27882WAT     H113333  -1.145   0.576   3.643  1.5204  0.6092  1.2986
27882WAT     H213334  -1.129   0.725   3.620  1.0461  0.3601 -0.8089
27882WAT    EPW13335  -1.132   0.643   3.590  0.6113 -0.0325  0.2351
27883WAT      O13336   5.014   3.010   5.266  1.1623 -0.2991 -0.1013
27883WAT     H113337   5.105   3.003   5.292  1.6997 -0.6193 -1.9135
27883WAT     H213338   4.981   2.920   5.271  0.2190  0.0958  2.7498
27883WAT    EPW13339   5.021   2.997   5.270  1.1086 -0.2892  0.0358
27884WAT      O13340  -0.340   0.163   8.694  0.3028 -0.0836  0.2105
27884WAT     H113341  -0.263   0.213   8.668  0.8217 -0.7777  0.4076
27884WAT     H213342  -0.385   0.142   8.612  1.0452 -0.8359 -0.0114
27884WAT    EPW13343  -0.336   0.167   8.680  0.4692 -0.2743  0.2074
27885WAT      O13344   3.010  -0.022   2.767 -0.4330  0.1381  0.3725
27885WAT     H113345   3.037   0.046   2.706 -0.5863 -0.3709 -0.2705
27885WAT     H213346   2.944   0.021   2.823 -1.8228  0.0712 -1.1287
27885WAT    EPW13347   3.005  -0.007   2.767 -0.6366  0.0621  0.0898
27886WAT      O13348  -1.188   6.024   0.935 -0.2143  0.0185 -0.4615
27886WAT     H113349  -1.160   6.058   1.020 -0.0605 -2.1172  0.3907
27886WAT     H213350  -1.238   6.096   0.896  2.6317  2.3651 -0.1385
27886WAT    EPW13351  -1.191   6.038   0.941  0.1813  0.0465 -0.3065
27887WAT      O13352  -4.035   2.086   7.158  0.8275 -0.7552 -1.0113
27887WAT     H113353  -4.004   2.067   7.069  1.7561 -0.2488 -0.8154
27887WAT     H213354  -4.043   2.001   7.200 -0.5106 -1.0728 -1.8466
27887WAT    EPW13355  -4.032   2.072   7.152  0.7737 -0.7304 -1.0955
27888WAT      O13356  -1.218  10.235   1.811 -0.0236 -0.3333  0.0195
27888WAT     H113357  -1.260  10.186   1.739  0.6133 -1.0445  0.1232
27888WAT     H213358  -1.244  10.326   1.796 -0.5628 -0.5869 -0.6484
27888WAT    EPW13359  -1.227  10.240   1.799 -0.0107 -0.4606 -0.0548
27889WAT      O13360  -3.669   4.610   7.516  0.1069 -0.2921 -0.4055
27889WAT     H113361  -3.628   4.696   7.508 -1.2940  0.5287  0.6758
27889WAT     H213362  -3.597   4.547   7.504  1.5746  1.0560  0.9283
27889WAT    EPW13363  -3.654   4.613   7.514  0.1158 -0.0060 -0.0870
27890WAT      O13364   5.771   7.035   3.159 -0.3782  0.0603  0.0709
27890WAT     H113365   5.795   7.127   3.160 -0.9320  0.2788  2.7301
27890WAT     H213366   5.854   6.988   3.153 -0.1618  0.6670 -2.4579
27890WAT    EPW13367   5.785   7.041   3.159 -0.4227  0.1690  0.0880
27891WAT      O13368   0.033   4.478   7.794 -0.9468  0.3530 -0.2766
27891WAT     H113369  -0.024   4.402   7.802 -1.6157  0.9568  0.9877
27891WAT     H213370   0.115   4.444   7.759 -2.1236 -0.5050 -2.3393
27891WAT    EPW13371   0.036   4.464   7.791 -1.1903  0.3195 -0.3819
27892WAT      O13372  -2.306   0.805   8.004 -0.0759 -0.4425  0.4619
27892WAT     H113373  -2.351   0.890   8.005  1.4283  0.3799  0.8544
27892WAT     H213374  -2.322   0.768   8.091 -0.3289 -0.3578  0.4542
27892WAT    EPW13375  -2.314   0.811   8.015  0.0890 -0.3228  0.5126
27893WAT      O13376   8.699   3.145   0.283  0.5365  0.1832 -0.1184
27893WAT     H113377   8.714   3.188   0.199 -0.1506  1.2236  0.2692
27893WAT     H213378   8.632   3.079   0.266  0.4050  0.3885 -0.3941
27893WAT    EPW13379   8.693   3.142   0.270  0.4287  0.3475 -0.1037
27894WAT      O13380  -2.000   9.814   0.255 -0.4363 -0.6249  0.1209
27894WAT     H113381  -2.028   9.798   0.165  1.5393 -1.9149 -0.3436
27894WAT     H213382  -1.948   9.737   0.278 -0.0717  0.1171  2.0340
27894WAT    EPW13383  -1.997   9.802   0.246 -0.1276 -0.6976  0.3120
27895WAT      O13384   4.351   4.953   1.654 -0.6049 -0.0444  0.5566
27895WAT     H113385   4.387   5.009   1.585  0.0879  0.2174  1.1146
27895WAT     H213386   4.263   4.932   1.624  0.6610 -2.4165 -1.8961
27895WAT    EPW13387   4.344   4.958   1.641 -0.3467 -0.3231  0.3067
27896WAT      O13388  -6.829   5.778   8.918 -0.7510  0.2311  0.3702
27896WAT     H113389  -6.861   5.868   8.922 -1.9551 -0.2152  1.8636
27896WAT     H213390  -6.902   5.729   8.878 -0.7734 -0.3204  1.0553
27896WAT    EPW13391  -6.843   5.783   8.913 -0.9129  0.0994  0.6571
27897WAT      O13392   3.417   1.615   6.798  0.3415 -0.3334 -0.9338
27897WAT     H113393   3.343   1.657   6.841  0.3145  0.5682 -1.8135
27897WAT     H213394   3.489   1.679   6.807  0.8361 -0.9235 -0.6376
27897WAT    EPW13395   3.417   1.629   6.805  0.4030 -0.2923 -1.0109
27898WAT      O13396   3.685   4.345   3.266 -0.0125  0.4460  0.2585
27898WAT     H113397   3.637   4.393   3.198  2.6510 -0.7861 -2.7625
27898WAT     H213398   3.666   4.253   3.247  0.4557  0.0659  1.5234
27898WAT    EPW13399   3.676   4.339   3.254  0.4005  0.2334  0.0268
27899WAT      O13400  -0.373   3.777   3.806 -0.3031  0.2334 -0.5194
27899WAT     H113401  -0.452   3.724   3.818 -0.2363 -0.0139 -1.1447
27899WAT     H213402  -0.301   3.715   3.816 -0.2400  0.0134 -2.0892
27899WAT    EPW13403  -0.374   3.762   3.809 -0.2860  0.1718 -0.8090
27900WAT      O13404  -0.912   3.445   2.683 -0.4095  0.0492 -0.5003
27900WAT     H113405  -0.841   3.392   2.645  1.3290  2.4753 -0.8814
27900WAT     H213406  -0.895   3.445   2.777  0.3078  0.8709 -0.6211
27900WAT    EPW13407  -0.900   3.438   2.690 -0.0856  0.4776 -0.5665
27901WAT      O13408  -0.786   3.902   3.413  0.8092  0.2714 -0.0820
27901WAT     H113409  -0.864   3.955   3.429  0.8038  0.2120  0.0912
27901WAT     H213410  -0.717   3.947   3.461  0.3293 -1.1926  2.1250
27901WAT    EPW13411  -0.787   3.915   3.421  0.7452  0.0703  0.2320
27902WAT      O13412  -4.109  10.188   3.846 -0.0893 -0.0159  0.0206
27902WAT     H113413  -4.097  10.227   3.760 -0.6118 -0.0962 -0.0929
27902WAT     H213414  -4.026  10.144   3.864  0.0066 -0.0373 -0.4599
27902WAT    EPW13415  -4.096  10.187   3.837 -0.1457 -0.0296 -0.0577
27903WAT      O13416  -3.860   8.198   7.823  0.4006  0.2203  0.8079
27903WAT     H113417  -3.792   8.132   7.810  0.7746  0.5048  1.2466
27903WAT     H213418  -3.823   8.278   7.787  0.6957  0.5896  1.8818
27903WAT    EPW13419  -3.846   8.200   7.817  0.4889  0.3066  1.0073
27904WAT      O13420   3.775   5.766   7.162  0.5083 -0.1011 -0.3315
27904WAT     H113421   3.840   5.784   7.229  0.5500  1.1839 -0.6872
27904WAT     H213422   3.804   5.818   7.086  0.7683 -1.9168 -1.5554
27904WAT    EPW13423   3.787   5.775   7.161  0.5481 -0.1709 -0.5395
27905WAT      O13424  -4.613   9.283   8.337  0.2371 -0.2476  0.3508
27905WAT     H113425  -4.560   9.347   8.385  2.9339 -2.1346  0.1173
27905WAT     H213426  -4.625   9.211   8.399 -1.5022 -0.2078  0.1203
27905WAT    EPW13427  -4.608   9.282   8.352  0.3633 -0.4916  0.2899
27906WAT      O13428  -4.125   4.052   4.511  0.7770 -0.9224 -0.3176
27906WAT     H113429  -4.055   4.019   4.454  0.1285  0.9879 -2.3644
27906WAT     H213430  -4.117   4.147   4.506  0.3315 -0.6359  2.4631
27906WAT    EPW13431  -4.115   4.060   4.503  0.6328 -0.6325 -0.2205
27907WAT      O13432   2.882   5.555   0.235  0.0578 -0.7596 -0.2918
27907WAT     H113433   2.803   5.516   0.199 -0.9992  1.1629 -0.1352
27907WAT     H213434   2.859   5.579   0.325 -0.1984  2.4601 -1.1107
27907WAT    EPW13435   2.869   5.553   0.242 -0.1154 -0.0815 -0.3791
27908WAT      O13436  -0.543   3.852   1.137 -0.3372 -0.0117  0.3903
27908WAT     H113437  -0.548   3.769   1.090 -1.7493  0.5498 -0.5306
27908WAT     H213438  -0.618   3.851   1.197  0.3487  0.0917  1.2719
27908WAT    EPW13439  -0.553   3.841   1.139 -0.4330  0.0759  0.3852
27909WAT      O13440   2.376   5.575   2.823 -0.2526  0.0296  0.4588
27909WAT     H113441   2.465   5.569   2.857 -0.6520 -0.4104  1.4743
27909WAT     H213442   2.380   5.531   2.738  1.0123  2.1010 -0.6490
27909WAT    EPW13443   2.388   5.569   2.817 -0.1385  0.2449  0.4467
27910WAT      O13444   3.435   0.316   0.652  0.2734 -0.4416 -0.2812
27910WAT     H113445   3.400   0.282   0.735  1.3733  2.2968  1.4604
27910WAT     H213446   3.527   0.289   0.653  0.4515  0.1696 -0.2875
27910WAT    EPW13447   3.443   0.308   0.663  0.4419  0.0002 -0.0523
27911WAT      O13448   9.037   0.782   1.830 -0.4250 -0.1328 -0.2790
27911WAT     H113449   9.046   0.877   1.834 -2.4013  0.1305  3.9656
27911WAT     H213450   9.103   0.750   1.891 -0.9475 -1.3346 -0.3194
27911WAT    EPW13451   9.047   0.790   1.839 -0.7548 -0.2566  0.2755
27912WAT      O13452   0.486   2.214   4.678  0.1385 -0.1298 -0.0812
27912WAT     H113453   0.463   2.141   4.621 -0.5754 -0.3978  0.5349
27912WAT     H213454   0.464   2.183   4.766 -0.0588  0.7786  0.1980
27912WAT    EPW13455   0.480   2.200   4.682  0.0183 -0.0454  0.0370
27913WAT      O13456   5.613   2.351   4.954  0.4345 -0.3109  0.4996
27913WAT     H113457   5.532   2.395   4.929 -0.5580 -2.2440  0.1001
27913WAT     H213458   5.600   2.328   5.047  0.6685 -0.3365  0.5273
27913WAT    EPW13459   5.601   2.354   4.963  0.3345 -0.5691  0.4504
27914WAT      O13460   2.696   1.572   3.225 -0.2247  0.7313 -0.1499
27914WAT     H113461   2.605   1.565   3.197 -0.5621  0.3771  0.9927
27914WAT     H213462   2.692   1.627   3.304  0.8011  2.5011 -1.2536
27914WAT    EPW13463   2.683   1.579   3.232 -0.1339  0.9180 -0.1448
27915WAT      O13464   0.880   6.058   3.788  0.1294  0.4133  0.7274
27915WAT     H113465   0.787   6.077   3.798 -1.5555 -5.2177 -0.6560
27915WAT     H213466   0.894   6.054   3.693  1.0625 -1.2768  0.9033
27915WAT    EPW13467   0.869   6.060   3.777  0.0302 -0.5524  0.5682
27916WAT      O13468   2.395   0.187   4.488 -0.1110  0.6005 -0.3394
27916WAT     H113469   2.491   0.188   4.485 -0.0208  2.3513  1.1543
27916WAT     H213470   2.373   0.097   4.508  1.1072 -0.2379 -2.4373
27916WAT    EPW13471   2.405   0.176   4.490  0.0615  0.7209 -0.4189
27917WAT      O13472   2.969   6.049   2.392  0.0196 -0.3065 -0.2484
27917WAT     H113473   2.922   6.127   2.422 -0.5864  0.0607 -2.0600
27917WAT     H213474   3.015   6.077   2.313  3.6778 -0.5573  1.5739
27917WAT    EPW13475   2.969   6.063   2.386  0.4221 -0.2911 -0.2469
27918WAT      O13476  -3.456   5.379   3.387  0.1816  0.2204 -0.5908
27918WAT     H113477  -3.455   5.377   3.291  0.2802 -0.5902 -0.5775
27918WAT     H213478  -3.490   5.293   3.412  0.4412  0.3208  0.1083
27918WAT    EPW13479  -3.461   5.367   3.377  0.2289  0.1266 -0.4969
27919WAT      O13480   4.885   4.485   1.144  0.4159  0.4166 -0.4755
27919WAT     H113481   4.933   4.539   1.207  2.3626 -1.9787  0.2277
27919WAT     H213482   4.937   4.491   1.064 -0.8821  1.7071 -1.2768
27919WAT    EPW13483   4.898   4.493   1.142  0.5016  0.2711 -0.4885
27920WAT      O13484  -0.719   9.338   3.473  0.6938 -1.1525  0.1119
27920WAT     H113485  -0.801   9.367   3.512  0.1144 -1.3597 -0.9171
27920WAT     H213486  -0.673   9.419   3.450  0.5697 -1.0399  0.2588
27920WAT    EPW13487  -0.724   9.353   3.475  0.6010 -1.1649 -0.0044
27921WAT      O13488   0.706   0.479   5.605 -0.2002  0.0925 -0.0658
27921WAT     H113489   0.662   0.492   5.521  2.4725  0.4365 -1.5297
27921WAT     H213490   0.659   0.536   5.666 -2.1916 -0.1296 -1.3196
27921WAT    EPW13491   0.694   0.488   5.602 -0.1104  0.1086 -0.4244
27922WAT      O13492   1.381   9.660   4.237  0.1847 -0.7229  0.0451
27922WAT     H113493   1.421   9.576   4.263  2.5405  0.8410  1.9447
27922WAT     H213494   1.294   9.657   4.275 -0.6378 -3.0997 -1.7504
27922WAT    EPW13495   1.375   9.648   4.246  0.3870 -0.8302  0.0589
27923WAT      O13496   3.523   9.652   0.633  0.4723  0.0031  1.1154
27923WAT     H113497   3.578   9.728   0.651  0.6621  0.0715  0.2991
27923WAT     H213498   3.566   9.580   0.678  0.9224  0.1595  0.9389
27923WAT    EPW13499   3.536   9.653   0.641  0.5567  0.0324  0.9845
27924WAT      O13500  -2.962   2.517   4.425  0.0580  0.2707 -0.0645
27924WAT     H113501  -3.037   2.475   4.467 -0.5461  0.0598 -1.3167
27924WAT     H213502  -3.000   2.592   4.379 -0.0177 -1.7648 -3.6104
27924WAT    EPW13503  -2.977   2.522   4.425 -0.0316 -0.0256 -0.6971
27925WAT      O13504   3.605   9.776   3.948 -0.7782  0.0359 -0.1151
27925WAT     H113505   3.624   9.781   4.041 -2.0256  0.1834  0.1473
27925WAT     H213506   3.511   9.794   3.941 -0.8578 -0.6933 -1.3272
27925WAT    EPW13507   3.595   9.779   3.959 -0.9532 -0.0405 -0.2404
27926WAT      O13508   2.269   8.667   8.305  0.5132  0.3409  0.1895
27926WAT     H113509   2.303   8.702   8.387  0.4249  2.8473 -0.7764
27926WAT     H213510   2.221   8.739   8.266  0.0571 -0.9687 -1.8172
27926WAT    EPW13511   2.267   8.681   8.311  0.4414  0.4988 -0.2027
27927WAT      O13512   2.664   1.712   6.468 -0.3183 -0.1624  0.0097
27927WAT     H113513   2.695   1.757   6.546  1.0915 -1.7254  0.4327
27927WAT     H213514   2.744   1.685   6.423 -1.0545 -1.9430 -0.3457
27927WAT    EPW13515   2.679   1.714   6.473 -0.2294 -0.6034  0.0186
27928WAT      O13516  -0.175   6.627   2.028  0.1772 -0.3525 -0.0415
27928WAT     H113517  -0.108   6.686   2.063 -0.1331 -0.4578  0.7496
27928WAT     H213518  -0.239   6.619   2.099 -0.5822 -0.3939 -0.7197
27928WAT    EPW13519  -0.175   6.634   2.042  0.0361 -0.3719 -0.0265
27929WAT      O13520   4.725   8.687   3.477 -0.0192 -0.0475  0.2977
27929WAT     H113521   4.666   8.615   3.453  2.0074 -1.6092 -0.2924
27929WAT     H213522   4.682   8.731   3.550 -2.9935  0.3665 -1.5097
27929WAT    EPW13523   4.712   8.684   3.483 -0.1442 -0.1993 -0.0186
27930WAT      O13524   0.624   8.855   8.565 -0.7729 -0.0144  0.3635
27930WAT     H113525   0.587   8.938   8.535  1.2755  0.8416  0.0006
27930WAT     H213526   0.562   8.789   8.534 -1.2521  1.2047 -1.4769
27930WAT    EPW13527   0.611   8.857   8.557 -0.5660  0.2594  0.0730
27931WAT      O13528   4.054   0.051   0.817  0.5420 -0.5068 -0.3517
27931WAT     H113529   4.034   0.074   0.726 -0.1842  1.3689  0.2356
27931WAT     H213530   3.978   0.081   0.867  0.9683 -1.4247  0.8947
27931WAT    EPW13531   4.042   0.058   0.811  0.5026 -0.3805 -0.1098
27932WAT      O13532  -3.862   1.467   6.595  0.1514  0.3232  0.0397
27932WAT     H113533  -3.889   1.541   6.541 -0.2570  0.3652  0.2918
27932WAT     H213534  -3.911   1.478   6.677 -2.3864 -1.9131 -1.0105
27932WAT    EPW13535  -3.872   1.478   6.599 -0.2371  0.0339 -0.0658
27933WAT      O13536   3.923   4.158   4.531 -0.3913 -0.7718  0.0317
27933WAT     H113537   4.006   4.202   4.513 -0.9013  0.2560  0.1778
27933WAT     H213538   3.908   4.105   4.452 -0.2262  0.0175 -0.5480
27933WAT    EPW13539   3.932   4.156   4.518 -0.4368 -0.5322 -0.0255
27934WAT      O13540   4.583   1.700   8.677 -0.2241 -0.5213 -0.3884
27934WAT     H113541   4.499   1.736   8.649 -0.4938  0.0051  1.0286
27934WAT     H213542   4.588   1.721   8.770  1.5550 -0.3859 -0.4864
27934WAT    EPW13543   4.573   1.708   8.686 -0.0250 -0.4340 -0.2141
27935WAT      O13544  -6.421  10.231   6.432  0.3351  0.2360  0.5418
27935WAT     H113545  -6.467  10.259   6.352  0.9499  0.4631  0.2632
27935WAT     H213546  -6.330  10.220   6.404  0.7348  1.1767  1.4190
27935WAT    EPW13547  -6.415  10.233   6.418  0.4687  0.3896  0.6206
27936WAT      O13548   2.888   0.530   3.590  0.0055 -0.4932  0.3623
27936WAT     H113549   2.946   0.604   3.603  0.6968 -1.1773  1.3191
27936WAT     H213550   2.814   0.565   3.541  1.4190  0.3090 -1.3086
27936WAT    EPW13551   2.886   0.544   3.585  0.2831 -0.4776  0.2682
27937WAT      O13552   5.581   6.705   3.224 -0.3722  0.1192  0.1590
27937WAT     H113553   5.498   6.659   3.228 -0.2333 -0.2054 -0.4891
27937WAT     H213554   5.557   6.797   3.211 -0.6313  0.1017  0.4912
27937WAT    EPW13555   5.567   6.711   3.223 -0.3879  0.0741  0.1173
27938WAT      O13556   4.640   4.118   0.185 -0.0735  0.0312 -0.2457
27938WAT     H113557   4.624   4.144   0.276  3.1647  0.1041  0.4456
27938WAT     H213558   4.654   4.200   0.138 -1.5531 -0.0173 -0.8056
27938WAT    EPW13559   4.640   4.132   0.191  0.1583  0.0343 -0.2284
27939WAT      O13560   1.290   6.167   1.745 -0.0778 -0.2658 -0.9642
27939WAT     H113561   1.272   6.215   1.826  3.7395  1.4944 -0.9527
27939WAT     H213562   1.368   6.115   1.764 -1.5793 -3.3174 -2.3383
27939WAT    EPW13563   1.298   6.167   1.758  0.2276 -0.4361 -1.1439
27940WAT      O13564  -5.226   3.321   7.602  0.5234 -0.0372  0.0268
27940WAT     H113565  -5.279   3.401   7.605 -0.9454 -1.0165  2.2692
27940WAT     H213566  -5.284   3.252   7.633  1.8440 -1.9765 -1.5783
27940WAT    EPW13567  -5.240   3.323   7.606  0.5038 -0.4220  0.1109
27941WAT      O13568   2.170   9.171   4.843 -0.2273  0.2460  0.1377
27941WAT     H113569   2.266   9.171   4.846 -0.2024  0.5875 -0.4698
27941WAT     H213570   2.146   9.079   4.848  0.1840  0.0728 -0.8500
27941WAT    EPW13571   2.180   9.159   4.844 -0.1698  0.2685 -0.0727
27942WAT      O13572   4.884   1.097   2.344  0.1967 -0.1425  0.3441
27942WAT     H113573   4.895   1.124   2.436  0.3654  0.7938  0.0566
27942WAT     H213574   4.964   1.125   2.301 -0.0216 -0.2782 -0.1581
27942WAT    EPW13575   4.896   1.104   2.351  0.1903 -0.0369  0.2398
27943WAT      O13576   1.306   0.755   4.524  0.3223 -0.3702  0.1426
27943WAT     H113577   1.344   0.836   4.491  0.2701 -0.1072  0.7167
27943WAT     H213578   1.381   0.706   4.559  0.1850 -0.0187  0.9303
27943WAT    EPW13579   1.321   0.759   4.524  0.2973 -0.2892  0.3223
27944WAT      O13580   2.267   1.632   7.995  0.2055  0.9062  0.1464
27944WAT     H113581   2.235   1.702   7.937 -1.2736  0.7683  0.7486
27944WAT     H213582   2.188   1.598   8.037  0.8603 -1.2576 -0.2429
27944WAT    EPW13583   2.252   1.637   7.993  0.0968  0.6026  0.1745
27945WAT      O13584   3.925   8.050   6.177 -0.0802  0.1930  0.1430
27945WAT     H113585   3.991   8.119   6.189 -0.0693  0.7896 -2.6458
27945WAT     H213586   3.969   7.984   6.123 -1.2408 -0.1789 -0.3835
27945WAT    EPW13587   3.940   8.050   6.171 -0.2319  0.2227 -0.2942
27946WAT      O13588   0.344   9.169   2.850 -0.2682  0.7847  0.3487
27946WAT     H113589   0.400   9.104   2.807  1.6912 -0.1169  3.8176
27946WAT     H213590   0.397   9.249   2.852 -1.7482  1.9165 -1.8405
27946WAT    EPW13591   0.359   9.171   2.845 -0.2050  0.8149  0.5175
27947WAT      O13592   1.695   4.887   5.985  0.0088  0.5017  0.1231
27947WAT     H113593   1.692   4.974   6.023  1.2193  1.5036 -1.9124
27947WAT     H213594   1.754   4.838   6.042  0.7404  1.5692  0.3161
27947WAT    EPW13595   1.703   4.892   5.997  0.2649  0.7746 -0.1199
27948WAT      O13596   4.888   5.302   5.218 -0.0230 -0.4781  0.2289
27948WAT     H113597   4.812   5.257   5.255 -0.0498 -0.5048  0.1428
27948WAT     H213598   4.956   5.295   5.285 -0.6560  1.1590  1.1044
27948WAT    EPW13599   4.887   5.295   5.231 -0.1099 -0.2658  0.3331
27949WAT      O13600   8.197   2.549   2.426 -0.3435  0.5329  0.3627
27949WAT     H113601   8.256   2.590   2.488  1.8066 -1.7702  0.0136
27949WAT     H213602   8.240   2.557   2.341 -1.6744  0.8111 -0.3200
27949WAT    EPW13603   8.210   2.555   2.423 -0.2351  0.2658  0.2267
27950WAT      O13604  -4.397   9.037   8.759 -0.4127  0.4181  0.2259
27950WAT     H113605  -4.479   9.073   8.791 -0.7654 -1.4472  1.5530
27950WAT     H213606  -4.337   9.044   8.833  0.1366  0.1878 -0.1886
27950WAT    EPW13607  -4.400   9.043   8.773 -0.3870  0.1416  0.3467
27951WAT      O13608  -2.416   8.865   4.252  0.1870  0.0640  0.4910
27951WAT     H113609  -2.322   8.847   4.260  0.3985 -0.0976 -1.6898
27951WAT     H213610  -2.437   8.914   4.331  1.8563 -0.8589  1.5729
27951WAT    EPW13611  -2.406   8.869   4.263  0.4350 -0.0787  0.3459
27952WAT      O13612   5.742   5.766   1.109 -0.3387 -0.7016 -0.8785
27952WAT     H113613   5.650   5.750   1.129  0.5214 -4.9939  0.8750
27952WAT     H213614   5.776   5.815   1.184 -1.3226  2.1434 -2.1687
27952WAT    EPW13615   5.735   5.770   1.121 -0.3552 -0.8926 -0.8174
27953WAT      O13616   4.125   8.120   3.530  1.0653  0.2681  0.1433
27953WAT     H113617   4.182   8.053   3.567  1.7926  1.3736  1.1277
27953WAT     H213618   4.119   8.187   3.599 -0.2640  0.8537 -0.4967
27953WAT    EPW13619   4.132   8.120   3.544  0.9859  0.4907  0.1887
27954WAT      O13620   1.207   0.026   2.244 -0.0839 -0.4426 -0.2159
27954WAT     H113621   1.211  -0.056   2.196  0.4949  0.5785 -2.0076
27954WAT     H213622   1.147   0.081   2.193  1.2136  0.9834 -0.2836
27954WAT    EPW13623   1.199   0.023   2.231  0.1636 -0.1199 -0.4611
27955WAT      O13624  -1.554   3.173   5.058 -0.2386 -0.1593  0.8314
27955WAT     H113625  -1.532   3.264   5.078 -1.4347  0.2295  0.4171
27955WAT     H213626  -1.591   3.139   5.140 -1.3850  0.2425  0.4907
27955WAT    EPW13627  -1.556   3.180   5.072 -0.5476 -0.0550  0.7319
27956WAT      O13628  -0.768   2.511   5.687  0.5754 -0.1631 -0.6283
27956WAT     H113629  -0.793   2.422   5.712 -1.4138  0.8671  1.3806
27956WAT     H213630  -0.782   2.514   5.592 -0.6915 -1.6098 -0.5203
27956WAT    EPW13631  -0.773   2.500   5.677  0.1459 -0.2180 -0.3490
27957WAT      O13632   1.096   7.745   0.946 -0.1428 -0.4504  0.8756
27957WAT     H113633   1.174   7.741   0.891 -0.8310  0.1046 -0.1718
27957WAT     H213634   1.077   7.839   0.955 -0.7087 -0.5766  1.0904
27957WAT    EPW13635   1.103   7.757   0.940 -0.3082 -0.3939  0.7658
27958WAT      O13636   5.234   1.789   3.768  0.1674  0.2833 -0.1468
27958WAT     H113637   5.295   1.792   3.841  1.7569 -1.7086 -1.2577
27958WAT     H213638   5.275   1.841   3.699 -0.1798  0.2686 -0.3710
27958WAT    EPW13639   5.247   1.796   3.769  0.3312  0.0186 -0.3229
27959WAT      O13640  -3.045   1.724   6.705  0.2303 -0.4376  0.1373
27959WAT     H113641  -3.119   1.667   6.684  1.3265 -0.8800 -3.0362
27959WAT     H213642  -2.970   1.682   6.662  1.5884  2.0204 -0.0604
27959WAT    EPW13643  -3.045   1.711   6.697  0.5540 -0.1717 -0.3073
27960WAT      O13644   8.303   1.623   1.552  0.5376  0.5979  0.4077
27960WAT     H113645   8.232   1.560   1.562  0.9074 -0.0088 -0.6529
27960WAT     H213646   8.301   1.647   1.459  0.2530  2.3330  0.8338
27960WAT    EPW13647   8.294   1.618   1.541  0.5488  0.7467  0.3240
27961WAT      O13648   3.657   4.098   3.133  0.3504  0.5322 -0.2358
27961WAT     H113649   3.643   4.026   3.072  0.8582  1.3080 -1.3165
27961WAT     H213650   3.746   4.086   3.166 -0.9609 -1.7060  2.9355
27961WAT    EPW13651   3.667   4.087   3.129  0.2444  0.3395  0.0399
27962WAT      O13652   6.099   3.803   2.607 -0.3775  0.3281  0.6075
27962WAT     H113653   6.099   3.863   2.681 -0.2341  2.0440 -0.7101
27962WAT     H213654   6.175   3.747   2.621  0.6410  1.7379  0.9379
27962WAT    EPW13655   6.109   3.803   2.618 -0.2241  0.7403  0.4773
27963WAT      O13656   3.201   8.606   5.894  0.1136  0.5068 -0.0959
27963WAT     H113657   3.296   8.595   5.903  0.8306  3.7680 -1.9287
27963WAT     H213658   3.176   8.657   5.971 -0.5808 -1.7933  1.2908
27963WAT    EPW13659   3.210   8.611   5.906  0.1165  0.6332 -0.1547
27964WAT      O13660   6.011   3.839   2.026 -0.4265  0.1991 -0.0966
27964WAT     H113661   6.008   3.934   2.043  0.3620  1.3721 -4.9806
27964WAT     H213662   6.101   3.814   2.048  0.1421  1.2544 -1.0902
27964WAT    EPW13663   6.023   3.849   2.031 -0.2475  0.4930 -0.8719
27965WAT      O13664   1.519   5.189   1.073  0.4965 -0.8409  0.5142
27965WAT     H113665   1.490   5.216   0.985 -2.2183  0.3804  1.6640
27965WAT     H213666   1.554   5.269   1.112  0.7523 -1.1437  0.9096
27965WAT    EPW13667   1.520   5.203   1.066  0.1722 -0.7198  0.7179
27966WAT      O13668  -1.718   2.159   5.243  0.1900  1.0232 -0.0660
27966WAT     H113669  -1.650   2.172   5.308  0.9689 -1.1941 -0.3740
27966WAT     H213670  -1.763   2.079   5.270 -0.9915  1.3522 -0.9722
27966WAT    EPW13671  -1.715   2.150   5.255  0.1369  0.7741 -0.2260
27967WAT      O13672   6.521   6.165   0.179 -0.3565  0.6220  0.1822
27967WAT     H113673   6.456   6.140   0.113  2.8147 -1.0711 -2.5713
27967WAT     H213674   6.533   6.086   0.232  1.6330 -0.1832 -1.3716
27967WAT    EPW13675   6.514   6.151   0.177  0.3242  0.2925 -0.3859
27968WAT      O13676   8.870   2.962   0.413  0.5330 -0.1837  0.1986
27968WAT     H113677   8.814   3.026   0.368 -1.7010 -2.1700  0.0019
27968WAT     H213678   8.933   3.016   0.461 -1.9228  2.2368  0.9698
27968WAT    EPW13679   8.871   2.978   0.413 -0.0858 -0.1265  0.2744
27969WAT      O13680   8.567   2.481   0.508 -0.1029 -0.3292 -0.0014
27969WAT     H113681   8.599   2.397   0.475 -0.7437 -1.0927  1.1955
27969WAT     H213682   8.645   2.525   0.542  0.1098 -0.8578  0.2047
27969WAT    EPW13683   8.581   2.476   0.508 -0.1593 -0.4996  0.1837
27970WAT      O13684  -0.555   8.064   2.551 -0.2947 -0.6432 -0.1809
27970WAT     H113685  -0.567   8.159   2.556  1.7009 -0.3452 -0.0534
27970WAT     H213686  -0.470   8.053   2.508 -0.3299 -2.3534  0.1184
27970WAT    EPW13687  -0.545   8.075   2.546 -0.0361 -0.8292 -0.1247
27971WAT      O13688  -5.358   7.694   5.993 -0.2327 -0.6411  0.6999
27971WAT     H113689  -5.423   7.710   6.061  0.4399 -1.8950  1.6731
27971WAT     H213690  -5.283   7.659   6.040  0.6713 -0.4531 -0.5693
27971WAT    EPW13691  -5.357   7.692   6.008 -0.0248 -0.7818  0.6607
27972WAT      O13692  -3.977   4.951   8.220  0.5462  0.3736 -0.0442
27972WAT     H113693  -4.067   4.925   8.199  0.0228  0.8532  1.5317
27972WAT     H213694  -3.942   4.983   8.137  0.0170 -1.8644 -1.2172
27972WAT    EPW13695  -3.984   4.952   8.206  0.4073  0.1419  0.0091
27973WAT      O13696   0.383   6.280   8.438 -0.4626 -0.1116 -0.3140
27973WAT     H113697   0.394   6.232   8.356 -1.9528 -0.9433 -0.0583
27973WAT     H213698   0.470   6.316   8.456 -0.5327  1.9874 -3.3638
27973WAT    EPW13699   0.396   6.279   8.430 -0.6684  0.0556 -0.6828
27974WAT      O13700  -3.032   6.074   2.021  0.8781 -0.1195 -0.1879
27974WAT     H113701  -3.022   6.087   2.115  0.9489 -0.3351 -0.1634
27974WAT     H213702  -2.943   6.080   1.986  0.6849  1.5182 -0.4564
27974WAT    EPW13703  -3.018   6.076   2.029  0.8619  0.0679 -0.2201
27975WAT      O13704  -0.044   4.002   1.860 -0.6139 -0.2576  0.1229
27975WAT     H113705  -0.093   4.074   1.899 -0.6240 -0.7482  1.0375
27975WAT     H213706  -0.111   3.939   1.833 -0.4937 -1.0770  1.6743
27975WAT    EPW13707  -0.059   4.004   1.861 -0.5994 -0.4303  0.4481
27976WAT      O13708  -1.122  10.317   8.688  0.2596 -0.8060  0.4411
27976WAT     H113709  -1.212  10.335   8.662  0.9123 -1.0308 -2.2785
27976WAT     H213710  -1.098  10.237   8.641  1.8048 -0.9115  1.3097
27976WAT    EPW13711  -1.130  10.309   8.679  0.5495 -0.8497  0.1969
27977WAT      O13712   1.917   2.305   0.531 -0.0897  0.6419 -0.7307
27977WAT     H113713   1.913   2.267   0.443  0.8841 -1.7620  0.1719
27977WAT     H213714   1.998   2.270   0.569 -0.7518  1.1586  1.3115
27977WAT    EPW13715   1.927   2.295   0.524 -0.0487  0.3930 -0.3423
27978WAT      O13716  -3.172   9.041   4.260 -0.1587 -0.4395  0.2462
27978WAT     H113717  -3.224   9.000   4.190  0.0001 -0.1852 -0.0213
27978WAT     H213718  -3.236   9.061   4.328 -0.4801  0.2138 -0.2346
27978WAT    EPW13719  -3.187   9.038   4.260 -0.1801 -0.3195  0.1473
27979WAT      O13720  -1.401   6.993   0.693 -0.0972 -0.5404  0.4270
27979WAT     H113721  -1.472   7.035   0.741  0.9594 -0.0847  1.6454
27979WAT     H213722  -1.350   7.065   0.656 -2.7219 -0.7733 -4.4773
27979WAT    EPW13723  -1.404   7.008   0.694 -0.3041 -0.5109 -0.0591
27980WAT      O13724   3.578   8.085   2.984  0.4290 -0.2738  0.3365
27980WAT     H113725   3.500   8.119   3.028  1.9672  1.4384  1.9236
27980WAT     H213726   3.591   7.999   3.022  0.6621  0.4262  1.9191
27980WAT    EPW13727   3.569   8.078   2.995  0.6626  0.0448  0.7546
27981WAT      O13728  -4.170   9.843   6.032 -0.6044 -0.1132  0.2950
27981WAT     H113729  -4.184   9.785   6.107  2.6182  1.2468  2.1474
27981WAT     H213730  -4.099   9.901   6.060 -3.0587  4.3053 -1.6724
27981WAT    EPW13731  -4.162   9.843   6.046 -0.5031  0.6490  0.2799
27982WAT      O13732  -0.872   2.618   8.753  0.5322 -0.0054  0.1958
27982WAT     H113733  -0.818   2.662   8.819  0.3117 -0.5623  0.7666
27982WAT     H213734  -0.918   2.550   8.802 -2.1337  1.5874  0.1078
27982WAT    EPW13735  -0.871   2.615   8.768  0.1515  0.1314  0.2589
27983WAT      O13736   3.759   8.511   2.186  0.0996  0.8386 -0.6549
27983WAT     H113737   3.822   8.520   2.114  1.6513 -2.0709  0.1934
27983WAT     H213738   3.811   8.527   2.264 -1.0614  1.7299 -0.0366
27983WAT    EPW13739   3.775   8.515   2.186  0.1510  0.5722 -0.4615
27984WAT      O13740  -3.677   3.817   4.154 -0.2049  0.0809 -0.0765
27984WAT     H113741  -3.695   3.747   4.092  0.3118  0.1009 -0.2579
27984WAT     H213742  -3.635   3.774   4.228  0.9924  0.3120 -0.5977
27984WAT    EPW13743  -3.674   3.802   4.156  0.0212  0.1140 -0.1690
27985WAT      O13744  -1.366   1.701   1.753  0.0015  0.2007 -0.0002
27985WAT     H113745  -1.348   1.648   1.831 -0.1977  1.1426  0.6996
27985WAT     H213746  -1.283   1.744   1.733  0.0827 -0.1271 -0.3896
27985WAT    EPW13747  -1.353   1.700   1.761 -0.0140  0.2818  0.0407
27986WAT      O13748   4.223   9.322   4.925  0.4175  0.0848 -0.2398
27986WAT     H113749   4.251   9.252   4.865 -0.3825  0.1960 -0.7606
27986WAT     H213750   4.197   9.277   5.005 -1.1878 -0.3664 -0.9606
27986WAT    EPW13751   4.223   9.307   4.927  0.1001  0.0405 -0.4034
27987WAT      O13752  -3.983   8.450   5.742  0.6645  0.4082 -1.0607
27987WAT     H113753  -3.922   8.514   5.706  2.3175 -1.3008 -1.4882
27987WAT     H213754  -3.970   8.455   5.837  0.8326  0.6516 -1.0961
27987WAT    EPW13755  -3.973   8.459   5.750  0.9048  0.2146 -1.1218
27988WAT      O13756  -5.506   3.430   7.857 -0.4776 -0.1793  0.0380
27988WAT     H113757  -5.585   3.396   7.815 -0.4872 -0.4630  0.2795
27988WAT     H213758  -5.526   3.425   7.951 -1.6626  3.2137  0.1228
27988WAT    EPW13759  -5.519   3.425   7.864 -0.6351  0.2308  0.0808
27989WAT      O13760   8.357   0.510   3.463  0.2419 -0.4878  0.0952
27989WAT     H113761   8.310   0.538   3.542 -2.2578 -0.3382 -1.3079
27989WAT     H213762   8.373   0.417   3.476 -4.8788 -1.9093 -1.0737
27989WAT    EPW13763   8.353   0.501   3.475 -0.7629 -0.6555 -0.2441
27990WAT      O13764  -6.703  10.318   8.369  0.6220  0.0652  0.0947
27990WAT     H113765  -6.662  10.243   8.413 -0.1048 -0.5877 -0.3126
27990WAT     H213766  -6.769  10.279   8.312  0.6072  0.9874 -0.5427
27990WAT    EPW13767  -6.706  10.303   8.367  0.5243  0.1006 -0.0429
27991WAT      O13768   8.862   1.981   1.674  0.5014 -0.6248 -0.2223
27991WAT     H113769   8.798   1.942   1.615  0.5895 -2.8546  1.0409
27991WAT     H213770   8.940   1.992   1.621 -0.2265 -0.0013 -1.1991
27991WAT    EPW13771   8.863   1.977   1.660  0.4168 -0.8367 -0.1845
27992WAT      O13772  -6.276   9.167   6.311  0.6918  0.1804 -0.0373
27992WAT     H113773  -6.239   9.242   6.358 -0.0012  0.2077  0.4896
27992WAT     H213774  -6.346   9.204   6.258  1.2267  0.0919 -0.8164
27992WAT    EPW13775  -6.281   9.182   6.310  0.6711  0.1726 -0.0708
27993WAT      O13776   2.422   6.371   7.418 -0.1599  0.9072  0.1089
27993WAT     H113777   2.345   6.346   7.469  0.1448  2.6309  1.4965
27993WAT     H213778   2.386   6.413   7.340 -0.6203 -0.4685 -0.4403
27993WAT    EPW13779   2.407   6.374   7.414 -0.1804  0.9532  0.2193
27994WAT      O13780  -4.886   7.158   4.880 -0.1823  0.8739 -0.1532
27994WAT     H113781  -4.881   7.101   4.804  0.0785 -0.7959  1.0554
27994WAT     H213782  -4.797   7.162   4.914 -0.6396 -0.3299  1.3497
27994WAT    EPW13783  -4.874   7.151   4.875 -0.2081  0.4947  0.2043
27995WAT      O13784  -4.014   9.018   8.295 -0.2088 -0.6966  0.0407
27995WAT     H113785  -4.040   9.040   8.206  0.5480 -0.2353 -0.0728
27995WAT     H213786  -4.095   9.023   8.346 -0.1887  1.9817 -0.0478
27995WAT    EPW13787  -4.028   9.022   8.290 -0.1063 -0.2828  0.0148
27996WAT      O13788  -3.651   4.727   4.009  0.0775  1.2908  0.3024
27996WAT     H113789  -3.580   4.664   3.999 -1.0885 -0.2627  1.2616
27996WAT     H213790  -3.685   4.711   4.097 -1.3739  2.0741 -0.0805
27996WAT    EPW13791  -3.646   4.717   4.019 -0.2677  1.1895  0.3786
27997WAT      O13792  -3.220   0.535   8.451 -0.1168 -0.1884 -0.1208
27997WAT     H113793  -3.193   0.595   8.382 -1.0149  0.2503 -0.1030
27997WAT     H213794  -3.314   0.525   8.440 -0.1129 -0.9371  0.4002
27997WAT    EPW13795  -3.229   0.542   8.441 -0.2347 -0.2293 -0.0501
27998WAT      O13796  -0.656   4.582   1.011 -0.3126 -0.1442 -0.0185
27998WAT     H113797  -0.683   4.537   0.931  0.7321 -0.9351  0.0422
27998WAT     H213798  -0.600   4.654   0.980 -2.7323  1.8074 -0.1778
27998WAT    EPW13799  -0.652   4.586   0.996 -0.4939  0.0088 -0.0315
27999WAT      O13800  -3.753   3.884   5.899  0.2990 -0.4783 -0.0261
27999WAT     H113801  -3.817   3.842   5.842  0.5244  0.5049 -1.0355
27999WAT     H213802  -3.744   3.973   5.865 -1.6833  1.1587  3.2652
27999WAT    EPW13803  -3.760   3.890   5.887  0.0672 -0.1327  0.2749
28000WAT      O13804  -1.435   2.570   2.704 -0.2239 -0.1278  0.0620
28000WAT     H113805  -1.374   2.496   2.704 -1.8815 -1.6159  1.8597
28000WAT     H213806  -1.418   2.615   2.622  3.4808 -0.2337  0.6219
28000WAT    EPW13807  -1.425   2.566   2.693  0.0461 -0.3381  0.3729
28001WAT      O13808   2.614   7.241   6.508 -0.2121  1.0139 -0.1323
28001WAT     H113809   2.604   7.146   6.516 -0.2441  0.9799 -0.5428
28001WAT     H213810   2.539   7.278   6.555 -0.1602  0.8395  0.0910
28001WAT    EPW13811   2.603   7.233   6.515 -0.2095  0.9866 -0.1569
28002WAT      O13812  -3.650   0.193   7.601  0.2255 -0.0807  0.2320
28002WAT     H113813  -3.710   0.186   7.527 -0.3216 -0.8150  0.7258
28002WAT     H213814  -3.579   0.132   7.581  0.3292  0.0893  0.0823
28002WAT    EPW13815  -3.649   0.184   7.589  0.1669 -0.1551  0.2775
28003WAT      O13816   4.487   4.833   3.856  0.3207 -0.0050 -0.6584
28003WAT     H113817   4.543   4.909   3.870  1.8776 -1.5150  2.1691
28003WAT     H213818   4.449   4.815   3.942 -0.2342 -2.2551 -1.3139
28003WAT    EPW13819   4.489   4.841   3.869  0.4528 -0.5009 -0.3721
28004WAT      O13820   4.831   5.480   0.691 -0.1828 -0.2447 -1.0516
28004WAT     H113821   4.923   5.455   0.686 -0.4781 -1.2190 -2.3006
28004WAT     H213822   4.790   5.433   0.618 -1.6781  0.1281 -0.4844
28004WAT    EPW13823   4.838   5.470   0.680 -0.4189 -0.3240 -1.1415
28005WAT      O13824  -3.510   7.594   8.358  0.5179 -0.0210  0.0873
28005WAT     H113825  -3.491   7.534   8.430 -0.5332 -0.1190  0.2883
28005WAT     H213826  -3.473   7.678   8.387 -0.3097  0.0570  0.9603
28005WAT    EPW13827  -3.502   7.597   8.371  0.2701 -0.0236  0.2289
28006WAT      O13828  -3.624   9.683   4.983  0.2573 -0.5084 -0.2206
28006WAT     H113829  -3.678   9.738   5.040 -1.2595 -1.9473 -0.1914
28006WAT     H213830  -3.656   9.701   4.895 -4.1822 -4.9420 -0.0108
28006WAT    EPW13831  -3.636   9.692   4.979 -0.5282 -1.2832 -0.1891
28007WAT      O13832  -1.602   3.596   2.679  0.7949 -0.8604 -0.0189
28007WAT     H113833  -1.672   3.614   2.742  0.7570 -0.9014 -0.0493
28007WAT     H213834  -1.548   3.675   2.679 -1.2971  0.7463 -2.7218
28007WAT    EPW13835  -1.604   3.609   2.687  0.5140 -0.6539 -0.3794
28008WAT      O13836   0.111   0.963   2.830 -1.3880 -0.0335  0.7503
28008WAT     H113837   0.018   0.942   2.824 -1.5349  0.3524  1.5327
28008WAT     H213838   0.143   0.959   2.740 -1.5147 -3.0495  0.7344
28008WAT    EPW13839   0.103   0.960   2.817 -1.4241 -0.3804  0.8514
28009WAT      O13840   3.835   9.966   3.021 -0.1569 -0.4199 -0.2362
28009WAT     H113841   3.793   9.892   3.064  0.0903  0.4252  1.5643
28009WAT     H213842   3.765  10.008   2.971 -0.4215 -1.5121 -0.8170
28009WAT    EPW13843   3.821   9.962   3.020 -0.1591 -0.4525 -0.0753
28010WAT      O13844   4.903   1.975   7.795  0.1837  0.0683 -0.2139
28010WAT     H113845   4.916   2.030   7.718  0.6723  0.0381 -0.1596
28010WAT     H213846   4.813   1.943   7.788  0.0441  0.5198 -0.4759
28010WAT    EPW13847   4.893   1.978   7.784  0.2298  0.1239 -0.2413
28011WAT      O13848  -1.499   2.936   7.545  0.3975  0.2025  0.2895
28011WAT     H113849  -1.525   2.912   7.634 -0.5648  0.3288  0.0581
28011WAT     H213850  -1.563   3.001   7.518  2.8364  3.0399  0.8254
28011WAT    EPW13851  -1.511   2.941   7.553  0.5922  0.5933  0.3295
28012WAT      O13852   1.498   0.932   0.495  1.3163  0.0771 -0.0496
28012WAT     H113853   1.475   0.953   0.586  1.8863  0.4817  0.0070
28012WAT     H213854   1.448   0.994   0.443  0.1457 -0.8613 -0.0803
28012WAT    EPW13855   1.489   0.943   0.500  1.2371  0.0067 -0.0462
28013WAT      O13856   1.385   3.792   8.365 -0.2935  0.9038  0.8684
28013WAT     H113857   1.437   3.714   8.346 -1.5148  0.2063  0.3146
28013WAT     H213858   1.424   3.827   8.445  1.0377  0.4214  0.4559
28013WAT    EPW13859   1.397   3.787   8.373 -0.2789  0.7482  0.7405
28014WAT      O13860  -0.344  10.019   4.684 -0.7201  0.8230  0.2237
28014WAT     H113861  -0.317  10.026   4.775 -0.3705  3.0238 -0.0010
28014WAT     H213862  -0.344  10.109   4.651  1.2350 -0.0623 -2.5653
28014WAT    EPW13863  -0.341  10.032   4.691 -0.4161  0.9966 -0.1738
28015WAT      O13864  -6.091   3.469   8.314  0.3638 -0.0252 -0.0689
28015WAT     H113865  -6.181   3.438   8.309  1.0382 -2.5042  1.2417
28015WAT     H213866  -6.052   3.445   8.230  0.0941 -0.0041 -0.1990
28015WAT    EPW13867  -6.098   3.462   8.302  0.4170 -0.3493  0.0868
28016WAT      O13868   0.930   0.595   5.037 -0.7070 -0.4344  0.4472
28016WAT     H113869   0.909   0.620   4.946 -1.2098  1.3588  1.0076
28016WAT     H213870   0.885   0.661   5.090  0.5913 -0.7302  1.9682
28016WAT    EPW13871   0.921   0.607   5.032 -0.6021 -0.2369  0.7217
28017WAT      O13872  -3.093   1.738   4.007 -0.6060 -0.6400 -0.0202
28017WAT     H113873  -3.016   1.707   4.054 -1.6037 -1.5237  1.0899
28017WAT     H213874  -3.106   1.827   4.038 -0.2155 -0.5961  0.0185
28017WAT    EPW13875  -3.085   1.746   4.017 -0.6860 -0.7508  0.1316
28018WAT      O13876   5.368   5.156   6.090 -0.2609 -0.1456 -0.0014
28018WAT     H113877   5.280   5.125   6.069 -0.7378  1.0704  0.1124
28018WAT     H213878   5.355   5.246   6.119  1.1228  0.3546 -0.8464
28018WAT    EPW13879   5.355   5.164   6.091 -0.1411  0.0808 -0.0978
28019WAT      O13880   2.791   3.893   5.581  0.3866 -0.1982  0.2917
28019WAT     H113881   2.816   3.979   5.548  1.2572 -0.4213  0.3538
28019WAT     H213882   2.695   3.893   5.577  0.4113  0.2749 -0.9972
28019WAT    EPW13883   2.782   3.904   5.576  0.5046 -0.1652  0.1299
28020WAT      O13884  -1.074   9.020   6.107 -0.0327 -0.1004  0.5652
28020WAT     H113885  -1.028   9.056   6.183  1.5574 -0.7400 -0.0655
28020WAT     H213886  -1.027   8.940   6.086 -0.7016 -0.1474 -0.8620
28020WAT    EPW13887  -1.062   9.014   6.114  0.0889 -0.1907  0.2940
28021WAT      O13888  -2.356   8.949   6.642 -0.9211 -0.1926 -0.5330
28021WAT     H113889  -2.383   9.027   6.689 -0.4917  0.8792 -2.0000
28021WAT     H213890  -2.264   8.938   6.665 -1.4485 -1.4386  1.1946
28021WAT    EPW13891  -2.348   8.958   6.651 -0.9340 -0.2160 -0.4985
28022WAT      O13892   2.531   3.170   5.302  0.0804  0.4063 -0.5634
28022WAT     H113893   2.518   3.210   5.388 -1.1550  1.1469 -1.0780
28022WAT     H213894   2.617   3.129   5.308  0.4183  1.2491  0.7136
28022WAT    EPW13895   2.541   3.170   5.315 -0.0379  0.6151 -0.4628
28023WAT      O13896  -3.360   2.967   7.187  0.2270 -0.3969  0.0301
28023WAT     H113897  -3.447   2.928   7.192  0.2266 -0.4468 -0.3282
28023WAT     H213898  -3.362   3.037   7.252 -0.1238 -0.3095 -0.0717
28023WAT    EPW13899  -3.372   2.971   7.196  0.1806 -0.3920 -0.0305
28024WAT      O13900   4.854   3.227   5.755 -0.8377 -0.2491  0.1463
28024WAT     H113901   4.762   3.217   5.730 -1.0153 -0.9253  1.0251
28024WAT     H213902   4.881   3.309   5.714 -1.1197 -1.2254 -2.1821
28024WAT    EPW13903   4.845   3.237   5.746 -0.8984 -0.4671 -0.0448
28025WAT      O13904   1.677   6.572   4.584  0.6025 -0.4629 -0.2947
28025WAT     H113905   1.620   6.645   4.558  1.8503  1.3037  1.6076
28025WAT     H213906   1.673   6.511   4.510  0.6840  2.2094 -2.6762
28025WAT    EPW13907   1.669   6.574   4.571  0.7778  0.1223 -0.3579
28026WAT      O13908  -3.419   8.359   5.602  0.2848 -0.1912 -0.3517
28026WAT     H113909  -3.492   8.328   5.549  1.1255  0.3829 -1.9428
28026WAT     H213910  -3.456   8.374   5.689 -0.5073 -3.9737  0.0997
28026WAT    EPW13911  -3.434   8.357   5.607  0.2912 -0.6142 -0.5021
28027WAT      O13912  -4.766   7.351   7.295 -0.1194 -0.0275 -0.0053
28027WAT     H113913  -4.802   7.397   7.370  3.2078  1.3750  0.9481
28027WAT     H213914  -4.799   7.262   7.304 -0.4520  0.2717  2.7330
28027WAT    EPW13915  -4.775   7.345   7.306  0.2756  0.1969  0.4816
28028WAT      O13916  -3.114   9.490   5.616  0.3131  0.3035  0.3422
28028WAT     H113917  -3.193   9.474   5.667 -0.7372 -1.6849 -1.7143
28028WAT     H213918  -3.095   9.406   5.575  2.6806  1.1188 -0.3719
28028WAT    EPW13919  -3.122   9.477   5.617  0.4869  0.1488 -0.0231
28029WAT      O13920   3.827   3.548   8.454  0.7161 -0.2859 -0.1031
28029WAT     H113921   3.772   3.566   8.531  1.2501 -0.5765  0.3567
28029WAT     H213922   3.824   3.628   8.403 -2.0866 -1.0355 -1.3428
28029WAT    EPW13923   3.819   3.561   8.458  0.4169 -0.4231 -0.2060
28030WAT      O13924  -0.737   7.944   3.726 -0.1118 -0.5375 -0.4496
28030WAT     H113925  -0.711   7.894   3.648 -1.9019 -2.6012  0.1522
28030WAT     H213926  -0.796   8.012   3.692 -0.8775 -1.4152 -0.9372
28030WAT    EPW13927  -0.741   7.946   3.711 -0.4489 -0.9253 -0.4345
28031WAT      O13928   4.368   6.478   5.405  0.7630  0.6186  0.1713
28031WAT     H113929   4.444   6.446   5.358  0.1339  0.7752 -0.9712
28031WAT     H213930   4.355   6.414   5.475  0.0868 -1.1497 -1.4972
28031WAT    EPW13931   4.376   6.466   5.408  0.5906  0.4060 -0.1993
28032WAT      O13932  -1.880   7.869   5.380  0.5621 -0.1219 -0.2112
28032WAT     H113933  -1.938   7.804   5.419  1.0510 -0.3899  0.0725
28032WAT     H213934  -1.919   7.953   5.404  1.0673 -0.2655  1.2228
28032WAT    EPW13935  -1.893   7.872   5.388  0.6933 -0.1760  0.0153
28033WAT      O13936   3.019   6.007   2.804 -0.5517  0.1605 -0.1474
28033WAT     H113937   3.027   5.911   2.803 -0.4351 -0.0080  3.6657
28033WAT     H213938   2.925   6.023   2.799 -1.0254 -0.5506  3.5166
28033WAT    EPW13939   3.008   5.996   2.803 -0.5988  0.0446  0.8388
28034WAT      O13940  -4.657   6.064   7.360  0.1183  0.1306 -0.7617
28034WAT     H113941  -4.697   6.003   7.298 -2.9692  2.4075 -1.2039
28034WAT     H213942  -4.702   6.047   7.443  3.0687 -1.7466  0.6721
28034WAT    EPW13943  -4.668   6.053   7.363  0.1001  0.1833 -0.6309
28035WAT      O13944   6.800   4.573   1.955  0.1366 -0.1189 -0.0350
28035WAT     H113945   6.755   4.495   1.987 -0.2443  0.2407  0.3151
28035WAT     H213946   6.881   4.540   1.917 -0.4406 -0.7885 -0.7207
28035WAT    EPW13947   6.805   4.559   1.954  0.0100 -0.1597 -0.0793
28036WAT      O13948  -2.592   6.882   1.205 -0.4151  0.0506  0.1091
28036WAT     H113949  -2.590   6.884   1.301 -2.9151  0.5111  0.2349
28036WAT     H213950  -2.589   6.975   1.180  1.3948 -0.0989 -0.3682
28036WAT    EPW13951  -2.591   6.895   1.214 -0.5060  0.0916  0.0627
28037WAT      O13952   4.616   7.020   3.995 -0.3051  1.2718  0.5233
28037WAT     H113953   4.555   7.014   3.921  0.4911  1.9524 -0.2098
28037WAT     H213954   4.631   6.929   4.021 -0.0180  0.9670 -0.6521
28037WAT    EPW13955   4.610   7.007   3.989 -0.1624  1.3216  0.2716
28038WAT      O13956   2.482   9.026   3.284  0.0720 -0.5145  0.3490
28038WAT     H113957   2.417   9.010   3.352 -0.2648  1.7839  0.6453
28038WAT     H213958   2.453   8.972   3.210  0.2630 -2.7960  1.8423
28038WAT    EPW13959   2.470   9.017   3.283  0.0528 -0.5121  0.5851
28039WAT      O13960   2.383   5.868   1.836 -0.6535 -0.0899 -1.2581
28039WAT     H113961   2.467   5.911   1.823  0.6398 -1.8720  0.5456
28039WAT     H213962   2.340   5.918   1.906 -0.9064  0.5486 -1.8634
28039WAT    EPW13963   2.388   5.880   1.844 -0.5163 -0.2408 -1.1001
28040WAT      O13964   6.859   1.107   3.522 -0.7756 -0.2441  0.2137
28040WAT     H113965   6.893   1.195   3.504 -2.4472  0.4612  0.3268
28040WAT     H213966   6.772   1.122   3.559 -0.5028 -1.9247  1.6373
28040WAT    EPW13967   6.852   1.121   3.524 -0.9599 -0.3728  0.4164
28041WAT      O13968   2.159   8.432   6.577  0.2674 -0.0896 -0.4048
28041WAT     H113969   2.168   8.378   6.656  0.1413  2.5075  1.5593
28041WAT     H213970   2.225   8.398   6.516  3.5762  0.4219  2.5241
28041WAT    EPW13971   2.169   8.421   6.580  0.6872  0.3204  0.2403
28042WAT      O13972  -2.055   3.916   7.051  0.2013  0.4010 -0.2281
28042WAT     H113973  -2.060   4.008   7.076 -1.8437 -0.3154  2.4623
28042WAT     H213974  -1.984   3.880   7.104 -0.0649  0.1215 -0.0527
28042WAT    EPW13975  -2.046   3.923   7.061 -0.1035  0.2697  0.1500
28043WAT      O13976   2.204   5.098   0.050  0.2389 -0.1154  0.1357
28043WAT     H113977   2.292   5.125   0.077  0.2799  2.9279 -2.3504
28043WAT     H213978   2.219   5.024  -0.009  1.0285 -0.3059  0.5617
28043WAT    EPW13979   2.218   5.092   0.046  0.3483  0.2611 -0.1360
28044WAT      O13980  -2.839   9.404   0.484 -0.1325 -0.6068 -0.3140
28044WAT     H113981  -2.830   9.357   0.566 -0.3731  0.1947  0.1878
28044WAT     H213982  -2.908   9.357   0.437 -1.1662 -0.1319  0.6575
28044WAT    EPW13983  -2.847   9.392   0.489 -0.3006 -0.4382 -0.1197
28045WAT      O13984   2.420   3.870   7.887  0.4319  0.0564  0.2578
28045WAT     H113985   2.405   3.820   7.806 -0.0082  0.4038  0.1162
28045WAT     H213986   2.487   3.934   7.863  1.0045 -0.4738  0.4427
28045WAT    EPW13987   2.427   3.872   7.873  0.4493  0.0323  0.2635
28046WAT      O13988   6.960   2.316   2.213 -0.4158  0.7739 -0.2517
28046WAT     H113989   6.887   2.278   2.261  0.6736 -0.3978  0.5306
28046WAT     H213990   6.955   2.275   2.126  0.6850 -1.1688  0.5481
28046WAT    EPW13991   6.950   2.306   2.208 -0.1268  0.3631 -0.0432
28047WAT      O13992   4.031   2.709   4.483 -0.0714 -0.1875 -0.2048
28047WAT     H113993   4.108   2.677   4.529 -0.4739  1.0570  1.4441
28047WAT     H213994   4.033   2.665   4.398  2.3652 -0.2625 -0.1666
28047WAT    EPW13995   4.041   2.699   4.478  0.1967 -0.0331  0.0176
28048WAT      O13996   3.655   8.790   6.691 -0.3841 -0.1339  0.3439
28048WAT     H113997   3.726   8.854   6.680  0.4930 -0.7855  1.9675
28048WAT     H213998   3.602   8.825   6.762 -1.2236 -0.0884 -0.2887
28048WAT    EPW13999   3.657   8.803   6.699 -0.3792 -0.2141  0.4745
28049WAT      O14000  -5.265   8.550   8.971  0.0843  0.6111 -0.1293
28049WAT     H114001  -5.353   8.531   8.941 -1.2298 -0.1946  3.6573
28049WAT     H214002  -5.273   8.633   9.019  1.2366  0.2814  0.6842
28049WAT    EPW14003  -5.277   8.559   8.974  0.0627  0.4611  0.4773
28050WAT      O14004  -2.079   2.692   4.856  0.3473  0.8009  0.4431
28050WAT     H114005  -2.134   2.750   4.803  0.6743  2.5831  1.9556
28050WAT     H214006  -2.138   2.622   4.883 -1.3717  2.8146  2.2853
28050WAT    EPW14007  -2.094   2.690   4.852  0.1637  1.3015  0.8855
28051WAT      O14008   0.767   4.134   1.371  0.3460 -0.1421  0.1443
28051WAT     H114009   0.799   4.195   1.304  2.6732 -1.6188 -0.2111
28051WAT     H214010   0.806   4.050   1.347 -2.5086 -1.7910  0.7668
28051WAT    EPW14011   0.776   4.131   1.359  0.2765 -0.5543  0.1795
28052WAT      O14012   0.054   0.953   4.140  0.0355 -0.5615 -0.5269
28052WAT     H114013  -0.027   0.908   4.167 -0.2246  0.1653 -0.0654
28052WAT     H214014   0.086   0.994   4.221 -0.0683  0.5918 -1.0478
28052WAT    EPW14015   0.047   0.953   4.155 -0.0125 -0.3136 -0.5348
28053WAT      O14016   5.939   2.648   1.183 -0.0138 -0.4026  1.2840
28053WAT     H114017   5.847   2.622   1.193 -1.3941  1.1641 -3.9732
28053WAT     H214018   5.982   2.569   1.152 -0.5759 -0.2268  0.0020
28053WAT    EPW14019   5.932   2.634   1.180 -0.2701 -0.1729  0.4216
28054WAT      O14020   0.301   2.159   5.222  0.2900 -0.1517  0.6465
28054WAT     H114021   0.292   2.094   5.152  2.8586  1.4654 -1.3730
28054WAT     H214022   0.279   2.242   5.180 -0.1722  0.6472  2.3978
28054WAT    EPW14023   0.297   2.161   5.207  0.5678  0.1670  0.6111
28055WAT      O14024  -1.866   7.235   4.250 -0.3532  0.0485 -0.4652
28055WAT     H114025  -1.813   7.248   4.328 -2.4703  3.3658  0.6021
28055WAT     H214026  -1.935   7.174   4.278  1.0830 -1.9759 -1.0472
28055WAT    EPW14027  -1.868   7.228   4.264 -0.4430  0.2191 -0.4010
28056WAT      O14028   5.869   1.247   3.006  0.0739 -0.1218 -0.0475
28056WAT     H114029   5.804   1.227   2.938 -2.6859  3.9364  0.9969
28056WAT     H214030   5.818   1.246   3.088  1.9635  0.7171  1.2004
28056WAT    EPW14031   5.853   1.244   3.008 -0.0410  0.5242  0.2549
28057WAT      O14032   4.666   4.077   4.371  0.0350 -0.3244 -0.9149
28057WAT     H114033   4.633   4.105   4.286  2.3784 -1.1318 -2.2059
28057WAT     H214034   4.696   3.987   4.356  0.8239 -0.3557  0.6465
28057WAT    EPW14035   4.666   4.069   4.357  0.4482 -0.4349 -0.8793
28058WAT      O14036  -3.265   3.918   7.813 -0.1254  0.0038  0.0468
28058WAT     H114037  -3.299   3.924   7.724 -0.2704 -0.9500  0.0228
28058WAT     H214038  -3.243   3.825   7.824 -1.2781 -0.1417  1.4368
28058WAT    EPW14039  -3.266   3.906   7.803 -0.2965 -0.1411  0.2270
28059WAT      O14040  -5.809   6.445   8.628 -0.6359  0.8374 -0.2579
28059WAT     H114041  -5.846   6.487   8.706 -0.4208 -0.5805  0.6481
28059WAT     H214042  -5.775   6.362   8.660  1.4543  1.1680 -1.4612
28059WAT    EPW14043  -5.810   6.440   8.642 -0.3319  0.6940 -0.2971
28060WAT      O14044   8.391   0.076   3.255  1.0941  0.0585  0.3245
28060WAT     H114045   8.478   0.055   3.220  1.9606  3.0638  0.4517
28060WAT     H214046   8.344   0.113   3.181  0.4551 -0.1108  0.6394
28060WAT    EPW14047   8.397   0.078   3.241  1.1239  0.4325  0.3828
28061WAT      O14048  -7.644   9.625   7.683  0.0346  0.1286 -0.1746
28061WAT     H114049  -7.698   9.670   7.748  0.2767 -0.8225  0.6977
28061WAT     H214050  -7.554   9.643   7.709  0.1358 -0.8828  0.2157
28061WAT    EPW14051  -7.639   9.633   7.695  0.0799 -0.1302 -0.0079
28062WAT      O14052  -1.576   9.125   5.019  0.5210  0.1952  0.3619
28062WAT     H114053  -1.639   9.191   4.991  0.1357  0.6815  2.2346
28062WAT     H214054  -1.609   9.043   4.982 -0.0637  0.7553 -0.3810
28062WAT    EPW14055  -1.588   9.123   5.010  0.3931  0.3333  0.5109
28063WAT      O14056  -2.883   3.044   7.326  0.0319 -0.4845 -0.0198
28063WAT     H114057  -2.859   3.028   7.417 -0.7189 -4.0144 -0.3134
28063WAT     H214058  -2.908   2.959   7.292 -0.3701  0.8138 -3.3937
28063WAT    EPW14059  -2.884   3.031   7.333 -0.1202 -0.7788 -0.5035
28064WAT      O14060  -0.688   9.535   1.699 -0.1509 -1.0472 -0.5361
28064WAT     H114061  -0.706   9.628   1.708  1.5360 -0.7635  0.4256
28064WAT     H214062  -0.703   9.516   1.606 -1.3160 -0.0288 -0.5710
28064WAT    EPW14063  -0.692   9.544   1.688 -0.0821 -0.8759 -0.4138
28065WAT      O14064   0.582   1.938   1.781  0.0976  0.0596  0.0558
28065WAT     H114065   0.590   1.949   1.686 -0.9178 -2.7284 -0.4423
28065WAT     H214066   0.517   2.004   1.807  0.8073  1.2493 -1.0441
28065WAT    EPW14067   0.574   1.948   1.772  0.0573 -0.1512 -0.1550
28066WAT      O14068  -1.619   0.100   4.791 -0.5659 -0.0315 -0.3169
28066WAT     H114069  -1.622   0.017   4.837  1.9148 -0.2563 -0.4455
28066WAT     H214070  -1.602   0.076   4.700  0.4392  0.5950 -0.3092
28066WAT    EPW14071  -1.617   0.086   4.785 -0.1061  0.0215 -0.3328
28067WAT      O14072   3.814   5.947   2.578 -0.6912 -0.2090 -0.7032
28067WAT     H114073   3.831   5.862   2.538 -2.7069 -1.3035  0.6311
28067WAT     H214074   3.760   5.993   2.514  1.3012  0.5738 -1.9119
28067WAT    EPW14075   3.809   5.942   2.564 -0.6943 -0.2499 -0.6865
28068WAT      O14076  -1.245  10.176   2.737 -0.4913 -0.4469  0.5686
28068WAT     H114077  -1.260  10.262   2.776 -1.8333 -0.9186  1.1258
28068WAT     H214078  -1.332  10.141   2.720  0.0164 -0.6516 -2.0278
28068WAT    EPW14079  -1.258  10.183   2.740 -0.6014 -0.5360  0.2997
28069WAT      O14080   0.159   6.061   3.754  0.3897 -0.6447 -0.6666
28069WAT     H114081   0.235   6.065   3.812  2.6037  0.3572 -3.4124
28069WAT     H214082   0.118   6.147   3.762  0.3043 -0.7249 -0.1777
28069WAT    EPW14083   0.163   6.073   3.763  0.6705 -0.5231 -0.9642
28070WAT      O14084  -2.965   1.323   4.777 -0.3197  0.5281  0.0181
28070WAT     H114085  -3.007   1.238   4.763 -1.3028  1.4228 -3.8818
28070WAT     H214086  -2.991   1.349   4.865 -0.6382 -2.8000  1.0272
28070WAT    EPW14087  -2.974   1.315   4.787 -0.4914  0.2071 -0.3633
28071WAT      O14088  -4.675   8.336   6.326 -0.4175 -0.1478 -0.2775
28071WAT     H114089  -4.714   8.275   6.389  0.2110 -0.4795 -0.1988
28071WAT     H214090  -4.733   8.333   6.250  0.1221 -1.5883 -0.6589
28071WAT    EPW14091  -4.688   8.328   6.325 -0.2632 -0.3815 -0.3176
28072WAT      O14092   4.703   7.348   5.467 -0.3519 -0.5266 -0.3672
28072WAT     H114093   4.729   7.266   5.424 -1.7802 -0.3557 -1.6489
28072WAT     H214094   4.771   7.410   5.442  1.1386 -1.4483  1.2036
28072WAT    EPW14095   4.716   7.345   5.458 -0.3438 -0.6258 -0.3293
28073WAT      O14096   1.502   3.432   5.054  0.0704 -0.1030  0.5357
28073WAT     H114097   1.417   3.472   5.073  0.9530  1.9601  0.4371
28073WAT     H214098   1.564   3.478   5.111  1.4110 -0.1939 -0.7759
28073WAT    EPW14099   1.499   3.443   5.064  0.3636  0.1571  0.3495
28074WAT      O14100   1.139   1.097   0.238 -0.5103 -0.0078 -0.1704
28074WAT     H114101   1.177   1.179   0.206 -0.9162 -0.6004 -2.2786
28074WAT     H214102   1.113   1.117   0.328 -3.0018  3.0206 -1.3825
28074WAT    EPW14103   1.141   1.111   0.246 -0.8925  0.3134 -0.6083
28075WAT      O14104   4.874   5.904   3.133 -0.5898 -0.7772  0.2133
28075WAT     H114105   4.814   5.978   3.146 -0.6369 -1.0916  2.1318
28075WAT     H214106   4.823   5.827   3.160 -0.3508 -1.4681 -1.2175
28075WAT    EPW14107   4.859   5.904   3.139 -0.5646 -0.9096  0.2778
28076WAT      O14108   2.040   0.794   6.822  0.1679 -0.7773 -0.0762
28076WAT     H114109   1.987   0.761   6.895  0.1108 -1.5612 -0.4659
28076WAT     H214110   2.126   0.810   6.860  0.6537 -2.8570 -0.2009
28076WAT    EPW14111   2.044   0.792   6.837  0.2244 -1.1550 -0.1442
28077WAT      O14112   2.566   5.555   6.542  0.8686  0.2084  0.0053
28077WAT     H114113   2.607   5.631   6.585  1.1573  0.0936 -0.0675
28077WAT     H214114   2.534   5.501   6.614  0.5110  0.4825  0.0541
28077WAT    EPW14115   2.567   5.558   6.557  0.8595  0.2296  0.0019
28078WAT      O14116  -0.950   0.793   7.279 -0.0051 -0.1801 -0.3075
28078WAT     H114117  -0.934   0.712   7.327  0.9667  0.7486  0.9895
28078WAT     H214118  -0.975   0.857   7.346  1.7470  1.2481 -0.9089
28078WAT    EPW14119  -0.951   0.791   7.294  0.3542  0.1308 -0.2158
28079WAT      O14120   4.565   1.201   7.595 -0.1451  0.1198  1.0137
28079WAT     H114121   4.632   1.170   7.656 -1.0236 -0.9778  1.4414
28079WAT     H214122   4.614   1.233   7.520  0.8259 -3.0918  0.1537
28079WAT    EPW14123   4.580   1.201   7.593 -0.1328 -0.4486  0.9568
28080WAT      O14124  -4.610   9.141   8.919  0.1894  0.7894 -0.5412
28080WAT     H114125  -4.680   9.075   8.916 -0.1651  1.1693 -3.0216
28080WAT     H214126  -4.653   9.220   8.949  0.0355  0.5037 -0.0043
28080WAT    EPW14127  -4.625   9.142   8.922  0.1223  0.8020 -0.7973
28081WAT      O14128   3.942   2.423   8.322 -0.1182 -0.0732  0.5444
28081WAT     H114129   3.921   2.354   8.258  1.5189 -1.0442  0.9906
28081WAT     H214130   3.937   2.504   8.272  0.7013 -0.7697 -0.7284
28081WAT    EPW14131   3.939   2.424   8.307  0.2058 -0.2931  0.4358
28082WAT      O14132   2.715   9.022   0.162  0.2846 -0.6416  0.2332
28082WAT     H114133   2.637   9.004   0.110  0.4690  2.1016 -1.1588
28082WAT     H214134   2.741   8.936   0.196 -1.8673 -2.0130 -1.2988
28082WAT    EPW14135   2.708   9.008   0.160  0.0250 -0.4606 -0.1525
28083WAT      O14136  -3.983  10.049   5.444  0.2981 -0.1656  0.4010
28083WAT     H114137  -4.048  10.109   5.481  0.5288 -0.7964  1.8872
28083WAT     H214138  -3.913  10.106   5.413 -0.7312  0.4966 -0.8309
28083WAT    EPW14139  -3.982  10.065   5.444  0.1928 -0.1612  0.4344
28084WAT      O14140  -1.311   8.839   7.417 -0.2303 -0.3949  0.2355
28084WAT     H114141  -1.272   8.926   7.409  0.0883 -0.6764 -2.0554
28084WAT     H214142  -1.244   8.787   7.460  1.4563 -0.5031 -2.2814
28084WAT    EPW14143  -1.297   8.844   7.422  0.0342 -0.4463 -0.3986
28085WAT      O14144   7.819   4.807   1.818 -0.2464 -0.4930  0.1265
28085WAT     H114145   7.751   4.875   1.810 -0.6118 -0.8075  0.5474
28085WAT     H214146   7.892   4.841   1.765  0.2914  1.1144  1.7819
28085WAT    EPW14147   7.819   4.821   1.810 -0.2236 -0.3223  0.4004
28086WAT      O14148  -1.016   9.923   4.029 -0.3470  0.3619 -0.0484
28086WAT     H114149  -0.933   9.965   4.051  1.1267 -0.9782 -2.5067
28086WAT     H214150  -1.000   9.829   4.041 -1.9440  0.1483  0.6563
28086WAT    EPW14151  -1.003   9.916   4.033 -0.3632  0.1574 -0.2797
28087WAT      O14152   2.465   4.633   1.677 -0.8709  0.5807  0.2367
28087WAT     H114153   2.491   4.627   1.769 -0.4833 -3.0012  0.0256
28087WAT     H214154   2.548   4.632   1.629 -1.1186  0.1449 -0.1889
28087WAT    EPW14155   2.480   4.632   1.683 -0.8525  0.0505  0.1527
28088WAT      O14156   5.156   9.908   3.644 -0.2502  0.2983 -0.5152
28088WAT     H114157   5.230   9.948   3.598 -0.1569  0.1067 -0.5338
28088WAT     H214158   5.095   9.884   3.574 -1.0846  1.9382 -0.4049
28088WAT    EPW14159   5.158   9.910   3.628 -0.3479  0.4897 -0.5031
28089WAT      O14160   2.316   4.231   5.798  0.3745  0.1460 -0.1393
28089WAT     H114161   2.293   4.288   5.872  0.6205  1.5541 -1.1037
28089WAT     H214162   2.231   4.204   5.762  0.2224  1.4185 -0.7814
28089WAT    EPW14163   2.301   4.235   5.803  0.3870  0.4997 -0.3512
28090WAT      O14164  -0.137   2.840   2.363 -0.2302  0.3432  0.4912
28090WAT     H114165  -0.131   2.935   2.374  0.1848  0.3274  0.4171
28090WAT     H214166  -0.219   2.816   2.406 -0.0370  0.6572  1.0379
28090WAT    EPW14167  -0.147   2.850   2.370 -0.1500  0.3825  0.5536
28091WAT      O14168   3.236   1.065   2.635  0.1963 -0.5176  0.0941
28091WAT     H114169   3.200   1.008   2.703 -0.2986 -0.1271  0.1735
28091WAT     H214170   3.329   1.046   2.633 -0.2294 -2.8038 -1.2913
28091WAT    EPW14171   3.243   1.055   2.644  0.0747 -0.7676 -0.0782
28092WAT      O14172   5.412   3.648   3.385 -0.1167 -0.4512 -0.5634
28092WAT     H114173   5.390   3.694   3.466  0.0054 -1.3806  0.0054
28092WAT     H214174   5.349   3.577   3.380  1.9272 -2.4449  0.4818
28092WAT    EPW14175   5.401   3.645   3.395  0.1688 -0.8367 -0.3505
28093WAT      O14176   0.885   3.473   4.151  0.3980 -0.1160  0.4316
28093WAT     H114177   0.946   3.447   4.082 -0.4417 -2.1125  0.3733
28093WAT     H214178   0.800   3.442   4.120 -0.0278 -0.8660  2.2462
28093WAT    EPW14179   0.882   3.465   4.137  0.2311 -0.4783  0.6633
28094WAT      O14180  -1.254   3.871   6.123  0.3708 -0.4835 -0.1664
28094WAT     H114181  -1.340   3.833   6.142  0.2082 -0.8238 -1.5116
28094WAT     H214182  -1.197   3.835   6.191 -0.3438 -1.0308  0.1571
28094WAT    EPW14183  -1.258   3.861   6.135  0.2550 -0.6006 -0.3011
28095WAT      O14184   0.881   4.368   7.094  0.2809 -0.6994 -0.6296
28095WAT     H114185   0.871   4.443   7.036 -0.1661  0.3496  0.7310
28095WAT     H214186   0.889   4.292   7.036  0.8095  0.4040 -2.0417
28095WAT    EPW14187   0.881   4.368   7.079  0.2917 -0.4153 -0.6366
28096WAT      O14188  -1.443   8.440   4.470  0.0858 -0.1630  1.2027
28096WAT     H114189  -1.378   8.389   4.422 -1.5873 -0.0965 -1.3360
28096WAT     H214190  -1.449   8.523   4.423 -2.2044 -0.3968  0.9309
28096WAT    EPW14191  -1.435   8.444   4.457 -0.4370 -0.1855  0.8318
28097WAT      O14192  -2.031   8.142   1.437 -0.3375  0.1515  0.2043
28097WAT     H114193  -2.100   8.103   1.384  1.9936 -3.8664 -0.2598
28097WAT     H214194  -2.058   8.126   1.528 -0.9339  0.4786  0.0893
28097WAT    EPW14195  -2.044   8.135   1.442 -0.1087 -0.3357  0.1280
28098WAT      O14196   3.184   1.842   3.413  0.4184  0.8406  0.2661
28098WAT     H114197   3.150   1.754   3.429  0.5244  0.5170 -1.0928
28098WAT     H214198   3.128   1.876   3.342  0.8947  1.5423  0.2146
28098WAT    EPW14199   3.172   1.835   3.405  0.4952  0.8904  0.0801
28099WAT      O14200   2.331   7.124   0.103 -0.9700  0.5105  0.4169
28099WAT     H114201   2.304   7.215   0.111 -0.6592  0.4569  3.2033
28099WAT     H214202   2.426   7.126   0.114 -0.9405 -0.1363  0.3352
28099WAT    EPW14203   2.340   7.136   0.105 -0.9251  0.4182  0.7736
28100WAT      O14204   4.762   3.749   1.782  0.5803  0.0110 -0.1130
28100WAT     H114205   4.835   3.691   1.799  0.2838 -0.8227 -1.4988
28100WAT     H214206   4.794   3.809   1.715  0.3282  0.3198  0.0380
28100WAT    EPW14207   4.776   3.749   1.775  0.5083 -0.0584 -0.2759
28101WAT      O14208   3.452   4.690   5.299 -0.2443 -0.1037  1.0102
28101WAT     H114209   3.454   4.607   5.346 -2.9546  0.5069  2.4123
28101WAT     H214210   3.472   4.756   5.366 -2.9460  0.6827  1.1698
28101WAT    EPW14211   3.455   4.688   5.314 -0.9581  0.0806  1.2162
28102WAT      O14212  -0.674   2.850   0.514  0.5918  0.0348  0.5399
28102WAT     H114213  -0.709   2.764   0.492  0.5201 -0.0156  0.8362
28102WAT     H214214  -0.612   2.870   0.445 -1.5236  1.0660 -1.1805
28102WAT    EPW14215  -0.671   2.841   0.502  0.3034  0.1642  0.3521
28103WAT      O14216  -4.828   3.746   6.673  0.0506  0.3269 -0.5130
28103WAT     H114217  -4.852   3.655   6.686  1.0574  0.2391  1.0737
28103WAT     H214218  -4.754   3.744   6.613 -0.3483  0.1494 -0.9957
28103WAT    EPW14219  -4.821   3.734   6.667  0.1307  0.2918 -0.3674
28104WAT      O14220  -0.577   3.434   2.895 -0.3988  0.5734  0.0680
28104WAT     H114221  -0.537   3.440   2.808  0.8533  0.0307  0.5819
28104WAT     H214222  -0.600   3.341   2.905  1.9265  0.0602  1.3264
28104WAT    EPW14223  -0.575   3.423   2.885  0.0731  0.4342  0.3017
28105WAT      O14224   1.358   9.372   4.294  0.2563 -0.2078 -0.6099
28105WAT     H114225   1.381   9.350   4.384  3.8415  0.8914 -1.1251
28105WAT     H214226   1.384   9.295   4.243  1.3230  0.4171 -1.0365
28105WAT    EPW14227   1.364   9.359   4.299  0.8699  0.0196 -0.7341
28106WAT      O14228   4.097   2.669   2.754  0.3624 -0.0350  0.5800
28106WAT     H114229   4.139   2.675   2.668  1.0328 -1.2480  0.7943
28106WAT     H214230   4.012   2.629   2.737 -0.0733  0.9544  0.3395
28106WAT    EPW14231   4.092   2.665   2.740  0.3932 -0.0645  0.5765
28107WAT      O14232   3.212   0.175   5.374  1.2466 -1.1540 -0.0091
28107WAT     H114233   3.216   0.129   5.458  3.2475 -0.2611  0.4548
28107WAT     H214234   3.150   0.125   5.322  1.4109 -2.8623  1.3405
28107WAT    EPW14235   3.205   0.162   5.379  1.5322 -1.2616  0.2298
28108WAT      O14236  -5.435   7.710   8.724 -0.4457 -0.7113 -0.3998
28108WAT     H114237  -5.495   7.728   8.652  0.6037  2.1785 -0.6894
28108WAT     H214238  -5.364   7.774   8.712  0.4287 -1.0264  2.4520
28108WAT    EPW14239  -5.433   7.720   8.713 -0.1922 -0.3717 -0.0620
28109WAT      O14240   7.789   2.246   1.875  0.1001 -0.1304  0.0793
28109WAT     H114241   7.829   2.245   1.961 -2.6585  1.1094  1.4972
28109WAT     H214242   7.835   2.314   1.827  1.5463 -0.7122  0.5946
28109WAT    EPW14243   7.800   2.255   1.880 -0.0730 -0.0435  0.3343
28110WAT      O14244   5.885   1.570   5.548  0.2367 -0.3379  0.6071
28110WAT     H114245   5.912   1.659   5.527 -1.8894  0.6343  1.6811
28110WAT     H214246   5.962   1.529   5.586  1.3529  0.9043 -0.2357
28110WAT    EPW14247   5.899   1.576   5.550  0.1035 -0.0458  0.6375
28111WAT      O14248  -1.619   5.625   1.743  0.7043  0.1044 -0.5887
28111WAT     H114249  -1.692   5.639   1.803 -0.8061 -0.0856 -2.2862
28111WAT     H214250  -1.590   5.535   1.760  2.9759  1.2314  2.5109
28111WAT    EPW14251  -1.625   5.615   1.753  0.8047  0.2282 -0.4038
28112WAT      O14252  -2.644   9.113   3.903 -0.6942 -0.3358 -0.0159
28112WAT     H114253  -2.647   9.075   3.815 -2.3607  0.8378 -0.5237
28112WAT     H214254  -2.636   9.207   3.888 -0.2451 -0.1761  1.1235
28112WAT    EPW14255  -2.644   9.120   3.890 -0.8546 -0.1597  0.0672
28113WAT      O14256   1.969   3.699   3.082  0.4177  0.4489  0.0043
28113WAT     H114257   2.035   3.665   3.141 -1.3307 -0.7752  1.3722
28113WAT     H214258   2.018   3.746   3.014  2.6881 -1.1227  0.4716
28113WAT    EPW14259   1.984   3.701   3.081  0.4866  0.0801  0.2463
28114WAT      O14260  -0.673   8.969   3.763 -0.6108 -0.1793 -0.3626
28114WAT     H114261  -0.713   8.986   3.678 -0.7687  4.6822  0.3669
28114WAT     H214262  -0.735   8.910   3.807 -2.1010 -0.3596 -2.5418
28114WAT    EPW14263  -0.687   8.964   3.758 -0.8281  0.4382 -0.5538
28115WAT      O14264   1.930   6.372   1.675 -0.6654  0.2694  0.5675
28115WAT     H114265   1.913   6.447   1.619  0.9743  0.4849  0.2950
28115WAT     H214266   1.916   6.296   1.618 -1.4968  0.3832  0.6075
28115WAT    EPW14267   1.926   6.372   1.660 -0.5588  0.3130  0.5369
28116WAT      O14268  -0.971  10.247   1.565 -0.4105  0.2792  0.3184
28116WAT     H114269  -0.918  10.327   1.569 -2.2451  1.5785 -0.0716
28116WAT     H214270  -0.971  10.213   1.654 -1.7381  2.2076  1.1142
28116WAT    EPW14271  -0.964  10.253   1.577 -0.8276  0.7048  0.3719
28117WAT      O14272   2.964   9.083   5.152  0.3393  0.4218 -0.3923
28117WAT     H114273   2.919   9.006   5.186  1.5206  0.1366  0.5866
28117WAT     H214274   2.978   9.063   5.059 -0.8239  0.1856 -0.5309
28117WAT    EPW14275   2.960   9.070   5.144  0.3417  0.3529 -0.2813
28118WAT      O14276   6.036   9.645   0.979 -0.3531  0.2274  0.7052
28118WAT     H114277   6.044   9.719   1.039 -0.1754 -0.0610  1.0388
28118WAT     H214278   6.123   9.637   0.939 -0.6739  0.8984 -0.1673
28118WAT    EPW14279   6.048   9.654   0.982 -0.3722  0.2775  0.6341
28119WAT      O14280  -0.736   8.481   2.719  0.2610  0.1373 -0.3850
28119WAT     H114281  -0.816   8.473   2.667 -1.7860  2.5063  2.1173
28119WAT     H214282  -0.699   8.566   2.693  1.0336 -0.1475 -0.2600
28119WAT    EPW14283  -0.741   8.491   2.708  0.0929  0.4120 -0.0384
28120WAT      O14284   3.605   2.033   7.670 -0.4890 -0.3899  0.1720
28120WAT     H114285   3.523   2.001   7.631 -1.9053  0.9165  1.9230
28120WAT     H214286   3.587   2.039   7.763  0.6744  2.5180  0.3127
28120WAT    EPW14287   3.592   2.029   7.677 -0.5223  0.1659  0.4215
28121WAT      O14288  -0.974   8.151   1.765  0.1101  0.3403 -0.2605
28121WAT     H114289  -0.895   8.170   1.815 -1.1133 -2.3043  3.1279
28121WAT     H214290  -1.046   8.165   1.827 -2.0725  1.6166 -2.8683
28121WAT    EPW14291  -0.973   8.155   1.780 -0.3391  0.1597 -0.1575
28122WAT      O14292   7.811   0.586   1.487 -0.7946 -0.3706 -0.4804
28122WAT     H114293   7.848   0.651   1.428  0.3745 -0.5643  0.0205
28122WAT     H214294   7.857   0.505   1.465 -2.0784 -1.0080 -0.9483
28122WAT    EPW14295   7.822   0.584   1.476 -0.8097 -0.4802 -0.4761
28123WAT      O14296  -4.251  10.203   3.509  0.0439 -0.2237  0.4670
28123WAT     H114297  -4.287  10.271   3.451 -0.4918  0.3831  1.4899
28123WAT     H214298  -4.161  10.232   3.525 -0.3151  0.4917  1.2481
28123WAT    EPW14299  -4.243  10.216   3.503 -0.0741 -0.0496  0.7050
28124WAT      O14300   0.129   3.333   4.337  0.5409 -0.2410 -0.3042
28124WAT     H114301   0.099   3.280   4.264 -0.0490  0.3547 -0.5014
28124WAT     H214302   0.153   3.417   4.298  0.4927 -0.0152  0.1441
28124WAT    EPW14303   0.128   3.337   4.323  0.4568 -0.1326 -0.2711
28125WAT      O14304   0.361   7.796   4.344  0.1144 -0.4002  0.0314
28125WAT     H114305   0.455   7.792   4.329  0.4172  2.4188  0.4915
28125WAT     H214306   0.352   7.804   4.439 -0.7262 -2.2252  0.1350
28125WAT    EPW14307   0.372   7.797   4.354  0.0435 -0.2692  0.1059
28126WAT      O14308  -0.331   3.749   1.896  0.2315  0.5002 -0.4263
28126WAT     H114309  -0.364   3.675   1.846 -2.2266  1.0865  0.1962
28126WAT     H214310  -0.401   3.814   1.892  0.4557  1.0846  2.6045
28126WAT    EPW14311  -0.345   3.748   1.889 -0.0631  0.6546  0.0555
28127WAT      O14312   6.225   2.232   3.781  0.4294 -0.4765  0.1259
28127WAT     H114313   6.281   2.198   3.711  0.5197  0.4122 -0.2438
28127WAT     H214314   6.261   2.193   3.861  0.9774 -0.6836 -0.2116
28127WAT    EPW14315   6.238   2.222   3.782  0.5136 -0.3867  0.0325
28128WAT      O14316   1.495   1.717   1.193 -0.1193  0.6863  0.5377
28128WAT     H114317   1.525   1.638   1.239  1.6862  1.3437  0.5761
28128WAT     H214318   1.408   1.734   1.229 -1.6472 -2.6174 -1.2179
28128WAT    EPW14319   1.487   1.709   1.204 -0.0826  0.3372  0.3112
28129WAT      O14320   5.301   6.074   4.671 -0.0082  0.3486 -0.1156
28129WAT     H114321   5.316   5.981   4.654  2.9776  0.7694 -0.2373
28129WAT     H214322   5.233   6.099   4.609  0.1660 -1.4338 -1.0825
28129WAT    EPW14323   5.294   6.065   4.661  0.4084  0.1688 -0.2592
28130WAT      O14324   1.369   4.583   4.126  0.1529  0.0173 -0.3091
28130WAT     H114325   1.443   4.641   4.110 -0.5809  0.1476 -3.8765
28130WAT     H214326   1.407   4.495   4.123  0.5918  0.1367  0.9787
28130WAT    EPW14327   1.384   4.579   4.124  0.1140  0.0501 -0.6099
28131WAT      O14328  -2.085   3.061   4.082  0.2830 -0.4457  0.4514
28131WAT     H114329  -2.130   3.045   4.165 -0.6158  1.6110  0.4170
28131WAT     H214330  -2.114   3.148   4.055  1.7397 -0.4281 -1.2675
28131WAT    EPW14331  -2.094   3.070   4.090  0.3567 -0.1721  0.2201
28132WAT      O14332   0.024   0.071   7.042  0.2158 -0.1805  0.0895
28132WAT     H114333   0.119   0.074   7.033  0.2427 -0.2186  0.3649
28132WAT     H214334   0.008   0.022   7.123 -0.0581 -0.9235 -0.4027
28132WAT    EPW14335   0.034   0.065   7.051  0.1832 -0.2835  0.0608
28133WAT      O14336   6.701   0.176   3.531  0.1374  0.7417  0.2929
28133WAT     H114337   6.659   0.154   3.615  0.4087 -0.0681  0.2263
28133WAT     H214338   6.705   0.093   3.484 -0.2645  1.2401 -0.6471
28133WAT    EPW14339   6.696   0.162   3.536  0.1202  0.7006  0.1601
28134WAT      O14340  -1.437   2.450   3.930  0.7868  0.2721 -0.3167
28134WAT     H114341  -1.417   2.542   3.911 -0.4114  1.0178  1.7038
28134WAT     H214342  -1.533   2.447   3.933  0.8082 -1.0724 -0.4727
28134WAT    EPW14343  -1.447   2.462   3.928  0.6316  0.1930 -0.0708
28135WAT      O14344   0.756  10.299   0.863  0.1042 -0.2399  0.4763
28135WAT     H114345   0.838  10.348   0.874  0.8000 -0.7024 -1.8665
28135WAT     H214346   0.688  10.361   0.887  0.8903  2.4045 -3.1081
28135WAT    EPW14347   0.758  10.314   0.867  0.2996  0.0482 -0.3055
28136WAT      O14348  -0.514   6.993   6.528 -1.2013 -0.6104  0.7608
28136WAT     H114349  -0.531   7.034   6.444  0.1744  0.8781  1.1442
28136WAT     H214350  -0.592   6.941   6.547 -1.4644 -1.1027 -1.4805
28136WAT    EPW14351  -0.526   6.991   6.520 -1.0546 -0.4790  0.5159
28137WAT      O14352   2.192   7.725   2.243 -0.4232 -0.3770  0.6170
28137WAT     H114353   2.265   7.684   2.197 -1.2977  0.6990 -1.9273
28137WAT     H214354   2.114   7.681   2.208 -1.1973  1.3042  0.1514
28137WAT    EPW14355   2.191   7.713   2.232 -0.6406 -0.0134  0.2199
28138WAT      O14356   4.166   1.375   7.531 -0.6215 -0.1217  0.3491
28138WAT     H114357   4.180   1.463   7.498 -1.4579 -0.2436 -0.3677
28138WAT     H214358   4.234   1.363   7.598  0.4883  0.4972 -0.6278
28138WAT    EPW14359   4.177   1.385   7.535 -0.5856 -0.0561  0.1259
28139WAT      O14360   3.502   2.893   1.786  0.3444 -0.5985  0.5485
28139WAT     H114361   3.525   2.883   1.878  0.8460  0.2663  0.5223
28139WAT     H214362   3.566   2.839   1.739  1.5594  0.7813  0.5646
28139WAT    EPW14363   3.514   2.885   1.792  0.5709 -0.3023  0.5471
28140WAT      O14364  -2.771   7.519   4.398 -0.5602  0.5351  0.1908
28140WAT     H114365  -2.751   7.569   4.477 -0.5103  1.2061 -0.2325
28140WAT     H214366  -2.730   7.569   4.327  0.6141 -0.7986 -0.1151
28140WAT    EPW14367  -2.763   7.532   4.399 -0.3988  0.4478  0.0949
28141WAT      O14368   0.809   8.892   3.617  0.1549 -0.6494  0.9897
28141WAT     H114369   0.893   8.845   3.617  0.3234 -0.4919 -1.6054
28141WAT     H214370   0.832   8.981   3.647  1.0663 -0.4237 -0.3153
28141WAT    EPW14371   0.823   8.898   3.621  0.2973 -0.5984  0.4753
28142WAT      O14372   4.919   1.128   7.721  0.0194  0.3232 -0.6373
28142WAT     H114373   4.953   1.217   7.709  1.1995  0.1303  0.9489
28142WAT     H214374   4.946   1.081   7.642 -1.1169  1.4985 -1.7515
28142WAT    EPW14375   4.927   1.133   7.709  0.0253  0.4528 -0.5751
28143WAT      O14376   7.751   5.373   0.877  0.3399  0.5643 -0.2008
28143WAT     H114377   7.730   5.466   0.874 -2.5143 -0.0057  0.0264
28143WAT     H214378   7.818   5.366   0.945 -0.7765  2.2515  1.1450
28143WAT    EPW14379   7.757   5.384   0.885 -0.1838  0.7117  0.0066
28144WAT      O14380   1.598   4.401   0.506 -0.2843 -0.4214  0.4955
28144WAT     H114381   1.626   4.329   0.449  3.3388  0.2376  1.1524
28144WAT     H214382   1.648   4.476   0.474 -3.0740  1.6162  0.5730
28144WAT    EPW14383   1.608   4.401   0.494 -0.1743 -0.0660  0.5924
28145WAT      O14384   2.684   2.693   3.978  0.7392  0.6404 -1.0491
28145WAT     H114385   2.729   2.770   3.944  0.9608 -0.0884 -2.4896
28145WAT     H214386   2.620   2.728   4.040  0.3980  2.0307 -2.1466
28145WAT    EPW14387   2.682   2.708   3.982  0.7235  0.7277 -1.3838
28146WAT      O14388   3.048   7.783   3.292  0.3175 -0.3420 -0.3669
28146WAT     H114389   2.990   7.745   3.358  0.7507 -0.0930  0.1667
28146WAT     H214390   3.014   7.871   3.278  0.4504 -0.2637 -0.1973
28146WAT    EPW14391   3.036   7.790   3.299  0.3922 -0.2985 -0.2742
28147WAT      O14392  -5.641  10.256   7.673  0.1341  0.4022 -0.0433
28147WAT     H114393  -5.573  10.290   7.615  1.0477 -0.4628  0.5074
28147WAT     H214394  -5.619  10.164   7.685  0.7851  0.8393  2.7700
28147WAT    EPW14395  -5.629  10.249   7.667  0.3405  0.3457  0.4003
28148WAT      O14396   3.065   3.081   8.978  0.3932  0.0166 -0.0077
28148WAT     H114397   3.100   2.993   8.991 -0.6106 -0.6120 -1.3441
28148WAT     H214398   2.989   3.069   8.921 -0.7641  1.5750  1.1145
28148WAT    EPW14399   3.060   3.068   8.972  0.1081  0.1392 -0.0358
28149WAT      O14400  -5.715   8.604   6.996  0.4044  0.0271  0.3043
28149WAT     H114401  -5.744   8.693   7.015 -1.0468 -0.5832  1.1073
28149WAT     H214402  -5.768   8.577   6.921 -1.0237 -1.0013  1.6119
28149WAT    EPW14403  -5.726   8.612   6.989  0.0246 -0.1893  0.5829
28150WAT      O14404  -0.322   7.544   7.763  0.1810 -0.1751  0.2800
28150WAT     H114405  -0.328   7.500   7.848 -0.3266  0.4259  0.5684
28150WAT     H214406  -0.310   7.636   7.785 -2.5979  0.3994 -0.2330
28150WAT    EPW14407  -0.321   7.550   7.777 -0.2524 -0.0198  0.2501
28151WAT      O14408   2.527   2.547   7.304  0.9023  0.4110 -0.5295
28151WAT     H114409   2.452   2.598   7.273  0.9698  0.7215 -0.1953
28151WAT     H214410   2.573   2.606   7.364  1.2403  0.1142 -0.4901
28151WAT    EPW14411   2.523   2.562   7.308  0.9557  0.4128 -0.4802
28152WAT      O14412  -5.444   7.165   4.903 -0.9725  0.5432  0.1089
28152WAT     H114413  -5.396   7.154   4.821  0.3257 -0.4704  0.9594
28152WAT     H214414  -5.454   7.259   4.913 -1.0429  0.6804 -1.1516
28152WAT    EPW14415  -5.439   7.176   4.894 -0.8106  0.4275  0.0548
28153WAT      O14416   3.769   6.512   7.435  0.3289  0.3329  0.6852
28153WAT     H114417   3.731   6.531   7.521  0.6684 -1.3490  1.2439
28153WAT     H214418   3.846   6.458   7.454 -1.4212 -2.9951 -0.7368
28153WAT    EPW14419   3.774   6.507   7.449  0.1427 -0.3278  0.5713
28154WAT      O14420  -1.729   2.258   6.319  0.3093  0.1663 -0.2001
28154WAT     H114421  -1.803   2.315   6.296 -0.1130  0.9339  2.6814
28154WAT     H214422  -1.704   2.218   6.236 -2.8916  0.3936 -1.4378
28154WAT    EPW14423  -1.736   2.260   6.305 -0.1686  0.2975  0.0165
28155WAT      O14424  -5.065   7.276   7.166 -0.1739 -0.3560 -0.0194
28155WAT     H114425  -5.014   7.251   7.243 -1.0922  0.5780  0.9348
28155WAT     H214426  -5.133   7.209   7.159 -1.0260  0.3765  0.9396
28155WAT    EPW14427  -5.067   7.264   7.175 -0.4072 -0.1361  0.2329
28156WAT      O14428  -2.369   8.106   5.448 -0.4572  0.0995 -0.3276
28156WAT     H114429  -2.334   8.055   5.375 -1.7136 -1.6581  0.2466
28156WAT     H214430  -2.455   8.069   5.465 -0.8886  1.5791  0.9815
28156WAT    EPW14431  -2.376   8.095   5.441 -0.6797  0.0629 -0.0792
28157WAT      O14432  -0.377   7.962   3.825  0.0468  0.0467 -0.0583
28157WAT     H114433  -0.380   7.901   3.751  0.3434 -0.9299  0.7193
28157WAT     H214434  -0.461   8.006   3.822 -0.2243 -0.4835 -0.5663
28157WAT    EPW14435  -0.388   7.960   3.815  0.0502 -0.1521 -0.0226
28158WAT      O14436   3.172   5.158   8.385  0.4336  0.1225 -0.3509
28158WAT     H114437   3.215   5.085   8.341  0.4276  0.3010 -0.6574
28158WAT     H214438   3.146   5.217   8.314 -1.3245 -0.5083 -0.2840
28158WAT    EPW14439   3.174   5.156   8.370  0.2010  0.0627 -0.3829
28159WAT      O14440   4.269   6.165   2.579 -0.0911  0.0122 -0.3792
28159WAT     H114441   4.241   6.103   2.512 -0.0240 -0.6232  0.1758
28159WAT     H214442   4.200   6.162   2.645  0.1017  0.2442 -0.1651
28159WAT    EPW14443   4.257   6.157   2.579 -0.0567 -0.0410 -0.2778
28160WAT      O14444   0.085   4.588   6.192 -0.6377  0.1072 -0.0035
28160WAT     H114445   0.060   4.510   6.143  0.2465  0.7691 -1.5930
28160WAT     H214446   0.165   4.562   6.239 -0.8123 -0.1843  0.1320
28160WAT    EPW14447   0.092   4.574   6.192 -0.5441  0.1559 -0.1953
28161WAT      O14448   2.130   3.783   2.408  0.2017 -0.1636 -0.5468
28161WAT     H114449   2.067   3.816   2.472 -1.5243 -2.6986 -0.7785
28161WAT     H214450   2.198   3.740   2.460  0.7480  0.8957 -0.3582
28161WAT    EPW14451   2.131   3.782   2.423  0.0461 -0.3582 -0.5524
28162WAT      O14452   1.076  10.149   1.841  0.6802 -0.2149 -0.2788
28162WAT     H114453   1.085  10.213   1.770  0.6826 -1.3946 -1.3716
28162WAT     H214454   1.004  10.183   1.895  1.4088  1.2666 -0.2056
28162WAT    EPW14455   1.068  10.162   1.839  0.7766 -0.1750 -0.4133
28163WAT      O14456   2.336   6.526   2.578  0.4040  0.0953 -0.1492
28163WAT     H114457   2.282   6.566   2.510  0.0354 -2.3796 -1.4027
28163WAT     H214458   2.287   6.448   2.605  1.5398 -0.1098  1.4745
28163WAT    EPW14459   2.322   6.521   2.573  0.5052 -0.2580 -0.1005
28164WAT      O14460   7.117   4.276   1.533 -0.4338 -0.2423 -0.0977
28164WAT     H114461   7.105   4.183   1.552  2.3614 -0.1658  3.1328
28164WAT     H214462   7.205   4.295   1.565 -0.1316  3.1660 -2.4374
28164WAT    EPW14463   7.127   4.266   1.540 -0.0250  0.2172  0.0198
28165WAT      O14464   0.646   7.348   6.529 -0.0023 -0.6728 -0.4116
28165WAT     H114465   0.659   7.308   6.615 -0.2651 -3.1864 -1.4451
28165WAT     H214466   0.700   7.427   6.531 -0.3220 -0.4279  2.1700
28165WAT    EPW14467   0.655   7.353   6.541 -0.0791 -0.9720 -0.2072
28166WAT      O14468  -1.648   3.511   4.722  0.3559 -0.3509  0.2647
28166WAT     H114469  -1.671   3.439   4.782 -1.5400  0.7655  0.9568
28166WAT     H214470  -1.674   3.480   4.636 -2.5163  0.2272  0.8193
28166WAT    EPW14471  -1.654   3.497   4.719 -0.2730 -0.1274  0.4292
28167WAT      O14472  -4.599   4.250   7.244 -0.9709  0.2165 -0.6568
28167WAT     H114473  -4.538   4.310   7.287 -1.9574  0.8165 -0.0625
28167WAT     H214474  -4.559   4.164   7.257 -1.6450  0.2322  2.3664
28167WAT    EPW14475  -4.586   4.246   7.252 -1.1899  0.2975 -0.1798
28168WAT      O14476  -3.132   1.744   5.884 -0.2743  0.2426  0.6770
28168WAT     H114477  -3.117   1.663   5.933 -0.3099 -0.6035 -0.6741
28168WAT     H214478  -3.116   1.813   5.948 -0.8310 -0.8262  2.0273
28168WAT    EPW14479  -3.128   1.742   5.899 -0.3524 -0.0100  0.6771
28169WAT      O14480  -3.179   5.811   2.899 -0.4915 -0.3269  0.6097
28169WAT     H114481  -3.103   5.753   2.905 -1.4317 -1.8035 -0.7441
28169WAT     H214482  -3.252   5.759   2.935 -0.8615  1.1537  2.1459
28169WAT    EPW14483  -3.179   5.796   2.904 -0.6644 -0.3264  0.6338
28170WAT      O14484  -2.638   1.649   8.818 -0.5019 -0.1384 -0.1600
28170WAT     H114485  -2.727   1.662   8.787 -0.5839 -1.2440 -0.4560
28170WAT     H214486  -2.586   1.637   8.738 -0.1266  0.2405  0.0183
28170WAT    EPW14487  -2.643   1.649   8.803 -0.4632 -0.2342 -0.1750
28171WAT      O14488  -2.092   7.778   1.174  0.3029 -0.5073  0.3068
28171WAT     H114489  -2.045   7.776   1.257  1.4888  1.2295 -0.2863
28171WAT     H214490  -2.024   7.789   1.107 -0.8759  4.0574 -0.4787
28171WAT    EPW14491  -2.077   7.779   1.176  0.3039  0.3240  0.1250
28172WAT      O14492   0.198   0.073   0.930 -0.4457  0.7383 -0.0326
28172WAT     H114493   0.119   0.116   0.897 -0.3965 -1.0085 -2.7361
28172WAT     H214494   0.270   0.124   0.893 -0.3418  0.7036  0.1213
28172WAT    EPW14495   0.197   0.085   0.920 -0.4255  0.5033 -0.3689
28173WAT      O14496   1.374   5.938   4.896  0.0131  0.2033  0.4955
28173WAT     H114497   1.404   6.019   4.856 -1.2167  0.8413  0.8189
28173WAT     H214498   1.361   5.960   4.988  0.9688 -0.7415  0.8770
28173WAT    EPW14499   1.376   5.951   4.902 -0.0231  0.1628  0.5887
28174WAT      O14500   2.006   6.007   8.412 -0.1335 -0.8850  0.9781
28174WAT     H114501   1.946   6.071   8.373 -0.2746 -1.1200  0.8061
28174WAT     H214502   1.957   5.924   8.409 -0.1356 -0.9165  1.6138
28174WAT    EPW14503   1.991   6.005   8.407 -0.1524 -0.9201  1.0390
28175WAT      O14504   3.677   2.539   4.444  0.1701  0.2742  0.5584
28175WAT     H114505   3.735   2.497   4.508  0.2585  0.3378  0.5200
28175WAT     H214506   3.594   2.492   4.452  1.4605 -3.0916 -2.6006
28175WAT    EPW14507   3.674   2.527   4.453  0.3519 -0.1613  0.1366
28176WAT      O14508   0.527   2.461   5.637  0.6362 -0.0154 -0.5479
28176WAT     H114509   0.545   2.552   5.660 -0.1900  0.5225 -1.9275
28176WAT     H214510   0.451   2.438   5.690 -1.3079  1.2439 -2.6077
28176WAT    EPW14511   0.519   2.470   5.647  0.2708  0.2215 -1.0016
28177WAT      O14512  -2.408   6.959   0.892 -0.4805  0.1152  0.3966
28177WAT     H114513  -2.492   7.005   0.891 -0.1173  0.8334  1.2647
28177WAT     H214514  -2.371   6.978   0.979 -0.8187 -2.7584  1.2915
28177WAT    EPW14515  -2.414   6.968   0.904 -0.4772 -0.1690  0.6292
28178WAT      O14516   5.804   8.711   1.141 -0.9730 -0.0998  0.2909
28178WAT     H114517   5.816   8.771   1.067 -1.5853  2.4056  2.1009
28178WAT     H214518   5.771   8.630   1.101 -1.5906  1.2608 -2.1338
28178WAT    EPW14519   5.801   8.708   1.126 -1.1351  0.4101  0.2098
28179WAT      O14520   0.037   2.560   2.670  0.4832  0.8691  0.1215
28179WAT     H114521   0.049   2.644   2.713  0.4496  0.3371  1.1880
28179WAT     H214522   0.126   2.535   2.642  0.3912  1.5839 -0.8420
28179WAT    EPW14523   0.050   2.568   2.672  0.4667  0.8934  0.1351
28180WAT      O14524  -1.875   6.918   1.092 -0.6972  0.1940 -0.0676
28180WAT     H114525  -1.844   6.960   1.172  0.1613  2.4346 -1.4810
28180WAT     H214526  -1.827   6.836   1.087 -1.0011 -0.1351  1.8267
28180WAT    EPW14527  -1.865   6.913   1.102 -0.6241  0.4461 -0.0042
28181WAT      O14528  -2.895   7.667   7.309 -0.1476 -1.1155 -0.1356
28181WAT     H114529  -2.951   7.663   7.387  2.2420 -0.5531  1.7067
28181WAT     H214530  -2.890   7.760   7.287 -0.6427 -1.2527 -0.8635
28181WAT    EPW14531  -2.902   7.678   7.316  0.1023 -1.0593  0.0114
28182WAT      O14532   1.732   7.925   5.441  0.2023  0.1431 -0.4375
28182WAT     H114533   1.810   7.874   5.420 -0.8516 -1.2606 -1.0610
28182WAT     H214534   1.707   7.966   5.358  0.1687  0.4633 -0.2725
28182WAT    EPW14535   1.739   7.924   5.427  0.0589  0.0002 -0.4981
28183WAT      O14536   2.045   4.832   6.013  0.1396 -0.6707 -0.5695
28183WAT     H114537   2.018   4.776   5.940 -1.6010 -0.2824 -0.2701
28183WAT     H214538   2.072   4.771   6.082 -0.1031 -1.0930 -0.8453
28183WAT    EPW14539   2.045   4.817   6.012 -0.1220 -0.6752 -0.5662
28184WAT      O14540   0.048   5.727   7.585 -0.5316 -0.2317  0.3446
28184WAT     H114541   0.124   5.685   7.623 -1.8413 -3.4737 -0.2721
28184WAT     H214542  -0.024   5.708   7.645 -1.1062  1.9113  0.4304
28184WAT    EPW14543   0.049   5.719   7.598 -0.7801 -0.3767  0.2744
28185WAT      O14544  -3.557   8.764   5.696  0.5012  0.3197 -0.2978
28185WAT     H114545  -3.601   8.834   5.744 -1.2831 -0.2996 -0.9328
28185WAT     H214546  -3.590   8.772   5.606 -0.1227 -1.5779 -0.2906
28185WAT    EPW14547  -3.567   8.774   5.691  0.1836 -0.0119 -0.3805
28186WAT      O14548   3.799   5.313   5.494  0.5388  0.2609  0.7908
28186WAT     H114549   3.721   5.366   5.510  0.9644  0.5715  1.9115
28186WAT     H214550   3.804   5.306   5.398 -1.8128 -1.2040  0.6994
28186WAT    EPW14551   3.790   5.319   5.483  0.2848  0.1087  0.9265
28187WAT      O14552   3.756   0.427   7.712  0.0892  0.0846 -0.1948
28187WAT     H114553   3.688   0.444   7.647  0.7573  1.2338 -0.6309
28187WAT     H214554   3.710   0.389   7.787 -0.9607  0.4273 -0.6555
28187WAT    EPW14555   3.741   0.425   7.714  0.0389  0.2814 -0.3130
28188WAT      O14556   1.228   7.158   8.446  0.2388  0.4944 -0.1443
28188WAT     H114557   1.245   7.209   8.525 -0.2478 -1.2856  1.1642
28188WAT     H214558   1.305   7.173   8.390  1.7637 -0.0859  1.6921
28188WAT    EPW14559   1.240   7.167   8.449  0.3757  0.1829  0.2708
28189WAT      O14560  -6.292   9.674   5.083 -0.0287  0.1642  0.2119
28189WAT     H114561  -6.218   9.643   5.135 -0.9032 -0.6277  1.0293
28189WAT     H214562  -6.350   9.598   5.076 -0.3218  0.4850 -1.2541
28189WAT    EPW14563  -6.290   9.660   5.089 -0.1829  0.1020  0.1264
28190WAT      O14564   3.127   7.453   2.784  0.0195 -0.6168  0.3409
28190WAT     H114565   3.183   7.378   2.764  2.3000  1.4527 -1.7711
28190WAT     H214566   3.045   7.415   2.813  0.0880 -4.0412 -3.1720
28190WAT    EPW14567   3.124   7.438   2.785  0.3293 -0.7954 -0.4009
28191WAT      O14568   6.347   7.074   2.334  0.4573 -0.1774 -0.2688
28191WAT     H114569   6.349   7.162   2.371 -0.6007  0.3701 -1.4654
28191WAT     H214570   6.360   7.087   2.240  1.0852 -1.3696 -0.3592
28191WAT    EPW14571   6.349   7.087   2.327  0.4005 -0.2623 -0.4385
28192WAT      O14572   3.547   1.172   1.237  0.5790 -0.4679 -0.0153
28192WAT     H114573   3.598   1.237   1.189  1.1042 -1.1985 -0.4633
28192WAT     H214574   3.584   1.088   1.210 -0.8027 -1.0166 -0.2885
28192WAT    EPW14575   3.559   1.169   1.227  0.4661 -0.6366 -0.1104
28193WAT      O14576  -0.069  10.008   3.383 -0.1035 -0.7371 -0.4703
28193WAT     H114577  -0.148  10.061   3.369 -0.2856 -0.8476  0.1168
28193WAT     H214578   0.004  10.067   3.364 -0.2553  0.2411  1.7667
28193WAT    EPW14579  -0.070  10.023   3.378 -0.1475 -0.6227 -0.0978
28194WAT      O14580   5.674   2.560   0.926  0.0320 -0.1415  0.0521
28194WAT     H114581   5.700   2.648   0.900 -1.0961  1.2523  3.0742
28194WAT     H214582   5.744   2.530   0.984  0.6706 -1.5312 -1.3613
28194WAT    EPW14583   5.686   2.567   0.930 -0.0324 -0.1408  0.2643
28195WAT      O14584   0.958   6.127   4.358 -0.0055 -0.2754 -0.2210
28195WAT     H114585   0.961   6.215   4.397 -1.9052 -0.3491  0.1783
28195WAT     H214586   0.907   6.138   4.278 -0.4619 -1.0627 -0.0470
28195WAT    EPW14587   0.952   6.140   4.353 -0.3162 -0.3891 -0.1454
28196WAT      O14588   3.553   2.773   3.201 -0.2653 -0.2643  0.2497
28196WAT     H114589   3.561   2.868   3.207  1.0399 -0.1548 -2.1454
28196WAT     H214590   3.556   2.754   3.108 -0.9655 -2.6514  0.6413
28196WAT    EPW14591   3.555   2.783   3.190 -0.1855 -0.5647 -0.0145
28197WAT      O14592   5.873   5.271   4.558 -0.1623  0.7376  0.3801
28197WAT     H114593   5.863   5.327   4.480  1.7796 -0.6842 -0.9743
28197WAT     H214594   5.967   5.266   4.572 -0.0571 -3.5902 -0.6922
28197WAT    EPW14595   5.884   5.278   4.549  0.1078 -0.0207  0.0598
28198WAT      O14596   3.787   8.781   4.468  0.4376  0.0799  0.0445
28198WAT     H114597   3.821   8.870   4.476 -1.6755  1.0044 -0.5615
28198WAT     H214598   3.756   8.775   4.377  1.2260 -1.5692 -0.1711
28198WAT    EPW14599   3.787   8.792   4.457  0.2629 -0.0153 -0.0639
28199WAT      O14600  -2.164   5.601   7.742  0.1969 -0.0609 -0.2289
28199WAT     H114601  -2.166   5.671   7.677 -1.0495 -0.4761 -0.6762
28199WAT     H214602  -2.074   5.599   7.772  0.6868  0.4973 -1.5624
28199WAT    EPW14603  -2.153   5.610   7.737  0.0972 -0.0420 -0.4637
28200WAT      O14604   3.093   7.250   7.264  0.0630  0.6603  0.2277
28200WAT     H114605   3.058   7.326   7.310 -0.7902  0.0493  0.6105
28200WAT     H214606   3.147   7.205   7.329  1.3862  1.4610 -0.2869
28200WAT    EPW14607   3.096   7.254   7.279  0.1249  0.6852  0.2103
28201WAT      O14608  -2.205  10.127   1.500  0.6195  0.1453  0.5235
28201WAT     H114609  -2.261  10.180   1.443  2.6731 -0.4026 -2.2130
28201WAT     H214610  -2.234  10.037   1.486  1.4643 -0.0410 -0.0900
28201WAT    EPW14611  -2.216  10.122   1.491  1.0017  0.0486  0.0817
28202WAT      O14612  -1.033   8.505   0.041 -0.1040  0.2061 -0.0752
28202WAT     H114613  -1.014   8.518  -0.052 -0.1324  3.2386  0.2544
28202WAT     H214614  -0.948   8.485   0.080  0.1793  0.5606 -0.5040
28202WAT    EPW14615  -1.019   8.504   0.034 -0.0703  0.6528 -0.0887
28203WAT      O14616  -7.044   7.640   7.282  0.7133 -0.7028 -0.6982
28203WAT     H114617  -7.067   7.604   7.197  1.7588 -1.6044 -0.6162
28203WAT     H214618  -6.980   7.708   7.263  1.2033 -1.1370 -0.6119
28203WAT    EPW14619  -7.039   7.644   7.268  0.9160 -0.8788 -0.6762
28204WAT      O14620   1.451   8.434   5.231 -1.0937  0.0541  0.8720
28204WAT     H114621   1.542   8.460   5.213 -1.4614  0.6393 -0.2201
28204WAT     H214622   1.458   8.343   5.258 -0.2380 -0.1085  0.1583
28204WAT    EPW14623   1.464   8.426   5.232 -1.0293  0.1101  0.6337
28205WAT      O14624   4.034   4.951   1.410 -0.3390 -0.8550 -0.2624
28205WAT     H114625   3.991   4.917   1.331  0.2262  0.6897 -1.2688
28205WAT     H214626   4.036   5.045   1.398  0.6151 -0.6554  1.1816
28205WAT    EPW14627   4.028   4.959   1.398 -0.1385 -0.6249 -0.2046
28206WAT      O14628  -6.459   8.252   6.076  0.1895 -0.3567  0.0632
28206WAT     H114629  -6.487   8.165   6.106  0.6329 -0.3523  0.5056
28206WAT     H214630  -6.491   8.312   6.144 -1.5000  0.0208 -1.0212
28206WAT    EPW14631  -6.467   8.249   6.089  0.0250 -0.3066 -0.0215
28207WAT      O14632   3.806   7.922   5.880  0.4887 -0.3122  0.3282
28207WAT     H114633   3.879   7.981   5.899  1.4284 -1.1517 -0.5362
28207WAT     H214634   3.728   7.970   5.909  1.3325  0.7874  0.8696
28207WAT    EPW14635   3.805   7.936   5.886  0.7240 -0.2780  0.2856
28208WAT      O14636   5.137   6.537   2.901 -0.3345  0.3657 -0.1311
28208WAT     H114637   5.225   6.507   2.877 -0.3775 -0.6663  0.9180
28208WAT     H214638   5.152   6.618   2.949  0.1859 -0.5614  1.3317
28208WAT    EPW14639   5.151   6.543   2.904 -0.2716  0.1073  0.2003
28209WAT      O14640   4.770   6.528   0.292  0.6900 -0.3922 -0.4669
28209WAT     H114641   4.813   6.583   0.357 -1.4582  1.2419 -0.2949
28209WAT     H214642   4.707   6.476   0.342  0.4404 -0.6042 -0.9905
28209WAT    EPW14643   4.767   6.529   0.307  0.3738 -0.2046 -0.5133
28210WAT      O14644   3.232   7.201   2.641 -0.0668  0.2763  0.2413
28210WAT     H114645   3.275   7.194   2.556 -1.9212 -2.4539 -0.5885
28210WAT     H214646   3.281   7.141   2.698  1.0955  2.0074  1.1696
28210WAT    EPW14647   3.244   7.192   2.637 -0.1581  0.1445  0.2543
28211WAT      O14648   5.582   1.863   1.003 -0.2222  0.6190  0.3574
28211WAT     H114649   5.512   1.806   1.035 -0.5342  0.4002 -0.6695
28211WAT     H214650   5.539   1.920   0.939  0.4027  0.9677  0.2400
28211WAT    EPW14651   5.567   1.863   0.999 -0.1810  0.6362  0.2065
28212WAT      O14652   0.665  10.331   1.361  0.2251 -0.0348 -0.6535
28212WAT     H114653   0.758  10.350   1.372  0.2278 -1.1784  1.7852
28212WAT     H214654   0.663  10.256   1.301  0.7347  0.9960 -2.0170
28212WAT    EPW14655   0.677  10.323   1.354  0.2927 -0.0496 -0.5116
28213WAT      O14656  -5.474   6.830   8.543 -0.4340 -0.3788 -0.4074
28213WAT     H114657  -5.526   6.880   8.480 -0.2342  1.5467  0.8544
28213WAT     H214658  -5.461   6.745   8.502 -3.2232 -0.3884 -1.4326
28213WAT    EPW14659  -5.479   6.826   8.529 -0.7756 -0.1264 -0.3762
28214WAT      O14660   3.213   6.124   1.694 -0.4534 -0.1107 -0.1212
28214WAT     H114661   3.250   6.037   1.707 -2.1228 -0.6813  1.2484
28214WAT     H214662   3.289   6.182   1.688  0.7244 -1.7062 -1.8477
28214WAT    EPW14663   3.228   6.120   1.695 -0.5182 -0.3965 -0.1683
28215WAT      O14664  -5.225   6.262   6.450 -0.2139  0.4791  0.1914
28215WAT     H114665  -5.131   6.273   6.462 -0.3902  0.5380  1.7561
28215WAT     H214666  -5.233   6.193   6.384  0.9303  0.1686  0.3608
28215WAT    EPW14667  -5.214   6.254   6.443 -0.0863  0.4461  0.4201
28216WAT      O14668   6.272   8.547   2.027 -0.2588  0.9201 -0.1101
28216WAT     H114669   6.352   8.504   2.059 -0.1184  0.7566 -0.6752
28216WAT     H214670   6.234   8.485   1.965 -1.0280  0.8394  0.4209
28216WAT    EPW14671   6.278   8.533   2.023 -0.3417  0.8874 -0.1147
28217WAT      O14672   5.497   1.952   6.592  0.0409 -0.1641 -0.6223
28217WAT     H114673   5.508   1.873   6.539 -0.7060 -1.9253  1.7238
28217WAT     H214674   5.559   2.015   6.553 -0.1551 -1.4533 -3.2606
28217WAT    EPW14675   5.507   1.950   6.580 -0.0834 -0.5664 -0.6607
28218WAT      O14676  -2.812   1.756   7.379 -0.3548  0.4982 -0.4039
28218WAT     H114677  -2.884   1.730   7.437 -1.1416 -0.3545 -1.7167
28218WAT     H214678  -2.746   1.688   7.392 -0.1316  0.8205  0.1771
28218WAT    EPW14679  -2.813   1.743   7.389 -0.4292  0.4282 -0.5007
28219WAT      O14680  -5.332   8.143   4.185 -0.9150  0.0664  0.1307
28219WAT     H114681  -5.333   8.129   4.091  0.7591  1.0231 -0.0721
28219WAT     H214682  -5.285   8.067   4.220  1.2070  1.1670 -0.1690
28219WAT    EPW14683  -5.326   8.131   4.177 -0.4144  0.3381  0.0644
28220WAT      O14684   2.949   8.028   8.089  0.4097  0.1187 -0.2025
28220WAT     H114685   2.951   8.123   8.086 -0.5555  0.4815  4.0713
28220WAT     H214686   2.941   8.007   8.182 -3.0263 -4.0759 -1.1154
28220WAT    EPW14687   2.948   8.038   8.101 -0.1709 -0.3867  0.2408
28221WAT      O14688   0.109   0.871   3.294  1.2954 -0.7780  0.5085
28221WAT     H114689   0.137   0.815   3.366  0.3349 -1.2329  0.5438
28221WAT     H214690   0.177   0.939   3.289  2.4549 -1.8828  0.5153
28221WAT    EPW14691   0.122   0.872   3.303  1.3217 -0.9837  0.5141
28222WAT      O14692   4.395   3.743   1.730 -0.7315  0.1479  0.2443
28222WAT     H114693   4.437   3.809   1.675  1.2933 -1.3853 -0.1273
28222WAT     H214694   4.457   3.727   1.801 -1.8418 -0.3188  1.1423
28222WAT    EPW14695   4.408   3.750   1.732 -0.6108 -0.1159  0.3138
28223WAT      O14696   2.264   7.387   8.685  0.1873 -0.5226 -0.1200
28223WAT     H114697   2.173   7.405   8.709  0.1871 -0.9969  0.2727
28223WAT     H214698   2.269   7.405   8.591  0.1878  1.4064  0.2273
28223WAT    EPW14699   2.253   7.392   8.676  0.1874 -0.3307 -0.0224
28224WAT      O14700   3.570   9.238   6.510  0.7963 -0.0412  0.2397
28224WAT     H114701   3.522   9.253   6.429  0.3553  0.3005  0.5575
28224WAT     H214702   3.638   9.306   6.511 -1.0821  1.9998  1.5865
28224WAT    EPW14703   3.572   9.249   6.500  0.4903  0.2732  0.4592
28225WAT      O14704  -0.382   0.952   3.931  0.5229  0.4097  0.1680
28225WAT     H114705  -0.466   0.999   3.932  0.4709  0.5055 -2.3722
28225WAT     H214706  -0.322   1.011   3.886  2.0863  0.4737  2.2413
28225WAT    EPW14707  -0.385   0.966   3.925  0.7223  0.4308  0.1065
28226WAT      O14708   5.263   8.967   3.496 -0.9851 -0.4795 -0.5893
28226WAT     H114709   5.169   8.979   3.488 -0.7608  1.6126 -0.5181
28226WAT     H214710   5.301   9.026   3.431  0.3068  0.3143  0.8172
28226WAT    EPW14711   5.256   8.976   3.486 -0.7851 -0.0987 -0.3943
28227WAT      O14712  -2.712   7.994   5.351 -0.1675 -0.3585 -0.1883
28227WAT     H114713  -2.713   8.070   5.293  3.5493 -1.2081 -1.6906
28227WAT     H214714  -2.716   8.032   5.439 -0.7745  1.3827 -0.9118
28227WAT    EPW14715  -2.713   8.009   5.355  0.2426 -0.2408 -0.4818
28228WAT      O14716   2.810   9.071   4.602  0.9824  0.1466  0.0349
28228WAT     H114717   2.824   8.984   4.565 -1.7785 -0.0093 -0.8562
28228WAT     H214718   2.751   9.057   4.676  2.1320  1.0742  1.1747
28228WAT    EPW14719   2.804   9.058   4.607  0.7699  0.2484  0.0679
28229WAT      O14720  -2.394   9.907   3.385 -0.4046 -0.1035 -0.1745
28229WAT     H114721  -2.407   9.979   3.446 -1.6137  0.0712 -0.6244
28229WAT     H214722  -2.429   9.939   3.302 -4.6934 -2.4799  0.4372
28229WAT    EPW14723  -2.400   9.921   3.382 -1.1297 -0.3939 -0.1531
28230WAT      O14724   0.485   0.375   7.100  0.7958  0.6658 -0.2295
28230WAT     H114725   0.400   0.398   7.064  1.1614  1.6852 -0.4802
28230WAT     H214726   0.501   0.286   7.069 -0.1307  0.4956 -0.2521
28230WAT    EPW14727   0.476   0.366   7.091  0.7219  0.7778 -0.2654
28231WAT      O14728  -1.601   8.126   8.666  0.4907 -0.9481  0.1991
28231WAT     H114729  -1.656   8.178   8.724 -1.0749 -1.3586 -0.8354
28231WAT     H214730  -1.512   8.161   8.679 -0.4616  2.0979 -0.5063
28231WAT    EPW14731  -1.596   8.138   8.675  0.1586 -0.6003 -0.0300
28232WAT      O14732   6.056   0.434   1.736  0.2593 -0.0070  0.0441
28232WAT     H114733   6.120   0.467   1.673  0.6865  0.5151  0.7457
28232WAT     H214734   6.041   0.507   1.796 -1.7276  0.2213 -0.6571
28232WAT    EPW14735   6.063   0.448   1.736  0.0534  0.0920  0.0441
28233WAT      O14736  -2.658   5.724   2.308  0.3173 -0.5573 -0.1260
28233WAT     H114737  -2.668   5.629   2.298 -1.2521 -0.3177 -0.9586
28233WAT     H214738  -2.717   5.747   2.379  0.0627 -0.0761 -0.4922
28233WAT    EPW14739  -2.667   5.715   2.316  0.0767 -0.4623 -0.2840
28234WAT      O14740  -5.063   1.148   8.672  0.0891  0.4109 -0.5381
28234WAT     H114741  -4.975   1.147   8.632  0.2646  1.3311 -0.2029
28234WAT     H214742  -5.107   1.073   8.633  0.9565  0.0567 -0.8787
28234WAT    EPW14743  -5.057   1.138   8.662  0.2265  0.4855 -0.5388
28235WAT      O14744   0.089   2.169   6.939 -0.2551 -0.0440  0.3654
28235WAT     H114745   0.101   2.134   6.851 -1.2896 -2.4013  1.0804
28235WAT     H214746   0.153   2.121   6.993 -2.9736 -2.4798  1.7043
28235WAT    EPW14747   0.099   2.158   6.935 -0.7501 -0.6762  0.6363
28236WAT      O14748  -1.928   7.049   8.294 -0.5518 -0.0178 -0.3217
28236WAT     H114749  -1.861   6.981   8.289 -2.0083 -1.5314 -0.0496
28236WAT     H214750  -1.903   7.102   8.370 -0.1460 -1.1012  0.3128
28236WAT    EPW14751  -1.916   7.047   8.304 -0.6903 -0.3605 -0.2017
28237WAT      O14752  -0.522   0.493   3.677 -0.2790  0.3675  0.4835
28237WAT     H114753  -0.508   0.476   3.583 -0.5848 -1.4824  0.7343
28237WAT     H214754  -0.614   0.471   3.691 -0.4627  1.4526  1.0703
28237WAT    EPW14755  -0.532   0.488   3.666 -0.3436  0.2666  0.5939
28238WAT      O14756   3.868   4.894   0.323  0.6016  0.1488 -0.6027
28238WAT     H114757   3.868   4.864   0.232  1.4269  0.6195 -0.7684
28238WAT     H214758   3.785   4.941   0.332  0.1777 -0.5241 -0.8918
28238WAT    EPW14759   3.857   4.896   0.312  0.6545  0.1223 -0.6627
28239WAT      O14760   3.945   0.130   8.668  0.1582 -0.3497  0.3294
28239WAT     H114761   3.863   0.156   8.627 -0.1852 -0.7966  0.7220
28239WAT     H214762   3.925   0.048   8.713  1.3260 -1.6221 -1.3201
28239WAT    EPW14763   3.932   0.123   8.668  0.2669 -0.5764  0.1636
28240WAT      O14764   1.145   4.883   7.477  0.0651 -0.2898 -0.6300
28240WAT     H114765   1.163   4.939   7.401 -0.6796  0.7512 -0.0687
28240WAT     H214766   1.158   4.794   7.445  1.1738  0.1903 -1.5861
28240WAT    EPW14767   1.149   4.879   7.463  0.1131 -0.0892 -0.6821
28241WAT      O14768  -0.150   0.878   2.052  0.2965  0.6310 -0.1514
28241WAT     H114769  -0.240   0.881   2.084  0.3163  2.0161 -0.1798
28241WAT     H214770  -0.157   0.894   1.958  0.3846 -1.7838 -0.6304
28241WAT    EPW14771  -0.163   0.881   2.044  0.3108  0.4952 -0.2184
28242WAT      O14772  -4.398   0.265   8.279  0.7893 -0.3212  0.7904
28242WAT     H114773  -4.339   0.216   8.337 -0.3695 -0.4121  1.9529
28242WAT     H214774  -4.431   0.336   8.334  2.5881  1.9988 -0.8991
28242WAT    EPW14775  -4.395   0.268   8.294  0.8738 -0.0272  0.7210
28243WAT      O14776   6.446   3.374   4.806  0.0457 -0.2296 -0.2856
28243WAT     H114777   6.448   3.400   4.714 -2.7396  0.9107 -0.1079
28243WAT     H214778   6.472   3.453   4.854  0.5752 -0.5483 -0.0343
28243WAT    EPW14779   6.450   3.388   4.800 -0.2518 -0.1212 -0.2289
28244WAT      O14780  -3.967   2.974   7.929  0.5033 -0.2461  0.1133
28244WAT     H114781  -3.988   3.065   7.949  2.3241  0.5488 -1.3058
28244WAT     H214782  -4.032   2.923   7.977 -0.8419  1.8051  0.5737
28244WAT    EPW14783  -3.978   2.979   7.938  0.5661  0.1292 -0.0134
28245WAT      O14784   3.075   2.449   0.892  0.5224  0.2436 -0.0940
28245WAT     H114785   3.029   2.522   0.850 -2.1182 -0.3164  1.5931
28245WAT     H214786   3.157   2.488   0.924 -0.1009  2.0893 -0.5973
28245WAT    EPW14787   3.080   2.464   0.891  0.0919  0.4131  0.0621
28246WAT      O14788  -5.740   4.895   8.021 -0.5463  0.2941  0.6913
28246WAT     H114789  -5.664   4.952   8.011 -0.0389 -0.4964 -0.1626
28246WAT     H214790  -5.801   4.945   8.076  1.0766  0.4571  2.4648
28246WAT    EPW14791  -5.738   4.909   8.027 -0.2651  0.2112  0.8125
28247WAT      O14792   1.988   4.492   4.384  0.3226  0.3776 -0.4472
28247WAT     H114793   2.011   4.406   4.417 -1.1355 -0.1691 -0.7872
28247WAT     H214794   2.034   4.499   4.300  0.8732  0.1626 -0.1660
28247WAT    EPW14795   1.997   4.482   4.377  0.2030  0.2770 -0.4551
28248WAT      O14796   3.294   7.091   4.563  0.9146  0.5980 -0.0468
28248WAT     H114797   3.351   7.154   4.518 -0.3632  2.2209  0.5294
28248WAT     H214798   3.292   7.121   4.653  1.7821 -1.4201  0.7128
28248WAT    EPW14799   3.302   7.103   4.569  0.8606  0.5462  0.1295
28249WAT      O14800  -4.190   3.287   7.554 -0.2307  0.9667 -0.0931
28249WAT     H114801  -4.201   3.212   7.497  0.2178  1.1114 -0.3748
28249WAT     H214802  -4.278   3.308   7.585 -0.7256  1.8474 -1.9633
28249WAT    EPW14803  -4.203   3.280   7.551 -0.2367  1.1019 -0.3767
28250WAT      O14804   1.351   2.061   2.148 -0.6304  0.1485 -0.3848
28250WAT     H114805   1.307   2.071   2.232  0.2747  0.6301  0.0518
28250WAT     H214806   1.306   2.122   2.090 -0.1616  1.0944  0.2193
28250WAT    EPW14807   1.340   2.070   2.151 -0.4492  0.3368 -0.2475
28251WAT      O14808   2.151   1.918   3.801  0.2159 -0.0921  0.3476
28251WAT     H114809   2.234   1.960   3.780 -1.0645  2.4316 -0.0546
28251WAT     H214810   2.099   1.926   3.720 -0.1367 -2.5777  0.2289
28251WAT    EPW14811   2.155   1.924   3.787  0.0005 -0.0870  0.2789
28252WAT      O14812   1.618   7.849   2.086  0.4889 -1.0914 -0.1992
28252WAT     H114813   1.581   7.769   2.048 -0.7753  0.4003 -2.3249
28252WAT     H214814   1.569   7.920   2.044  2.3424  0.8507  0.7484
28252WAT    EPW14815   1.606   7.848   2.075  0.5667 -0.6385 -0.3546
28253WAT      O14816   3.908   5.665   0.408  0.5270  0.6128  0.0775
28253WAT     H114817   3.958   5.593   0.370  2.3620  2.7760 -1.8685
28253WAT     H214818   3.950   5.681   0.492 -0.7049 -1.2986  1.1404
28253WAT    EPW14819   3.920   5.657   0.414  0.6064  0.6461 -0.0390
28254WAT      O14820   0.795   0.061   3.341 -0.3060 -0.3122 -0.4702
28254WAT     H114821   0.846  -0.019   3.348 -1.1075 -0.8639 -0.7666
28254WAT     H214822   0.857   0.127   3.311  0.5064 -0.6664  0.4021
28254WAT    EPW14823   0.810   0.059   3.338 -0.3045 -0.4317 -0.3943
28255WAT      O14824   3.059   4.337   4.543 -0.1534  0.4199 -0.0016
28255WAT     H114825   3.010   4.409   4.583  0.2475  1.7399 -1.7883
28255WAT     H214826   3.149   4.368   4.540 -0.1675  0.3955 -1.9055
28255WAT    EPW14827   3.065   4.351   4.548 -0.1023  0.5908 -0.4883
28256WAT      O14828   1.499   5.151   2.312 -0.1595  0.3985 -0.3380
28256WAT     H114829   1.406   5.160   2.331 -1.1853  0.9898 -4.7038
28256WAT     H214830   1.534   5.240   2.320  0.7891 -0.1428  3.6802
28256WAT    EPW14831   1.491   5.164   2.316 -0.1697  0.4051 -0.3837
28257WAT      O14832  -1.626   7.523   4.447 -0.2604 -0.4300 -0.2898
28257WAT     H114833  -1.548   7.556   4.493  2.0063 -0.1457 -3.9302
28257WAT     H214834  -1.668   7.602   4.413 -2.6923 -0.5234  2.1167
28257WAT    EPW14835  -1.621   7.538   4.449 -0.2822 -0.4046 -0.4525
28258WAT      O14836   1.390   7.946   1.924  0.5288  0.6340  0.2393
28258WAT     H114837   1.426   7.889   1.856  0.6729 -0.2672  1.0535
28258WAT     H214838   1.402   8.034   1.889 -2.4841  0.1557 -2.4290
28258WAT    EPW14839   1.396   7.950   1.910  0.1504  0.4520 -0.0053
28259WAT      O14840   0.045   9.890   1.950  0.6394 -0.0047  0.2763
28259WAT     H114841   0.115   9.842   1.994  0.6073  0.0157  0.3489
28259WAT     H214842   0.091   9.944   1.885  0.5472 -1.4708 -1.0423
28259WAT    EPW14843   0.061   9.891   1.947  0.6230 -0.1955  0.1119
28260WAT      O14844  -3.528   6.911   2.005 -0.2819 -0.4263  0.2995
28260WAT     H114845  -3.587   6.905   1.930  0.5169  1.7246 -0.5719
28260WAT     H214846  -3.450   6.861   1.979  0.8964  2.0282 -1.3343
28260WAT    EPW14847  -3.525   6.903   1.992 -0.0211  0.1812 -0.0309
28261WAT      O14848   1.562   3.940   4.228 -0.2955 -0.4164 -0.3153
28261WAT     H114849   1.548   3.846   4.225  1.5475 -0.7907  0.6721
28261WAT     H214850   1.518   3.968   4.308  0.9915 -0.8646  0.5879
28261WAT    EPW14851   1.555   3.931   4.239  0.1174 -0.5248 -0.0658
28262WAT      O14852  -0.270   8.915   7.614  0.3473  0.4230  0.2050
28262WAT     H114853  -0.237   8.827   7.596 -0.4011  0.0664  0.5906
28262WAT     H214854  -0.238   8.935   7.702 -1.8104 -0.5883  1.2828
28262WAT    EPW14855  -0.261   8.906   7.623 -0.0360  0.2422  0.3982
28263WAT      O14856  -1.502  10.080   8.125 -0.2402 -0.0077 -0.3454
28263WAT     H114857  -1.479  10.072   8.218  3.2783  0.7377 -0.9826
28263WAT     H214858  -1.530   9.993   8.099 -0.4957 -0.4203  1.2533
28263WAT    EPW14859  -1.502  10.068   8.134  0.1901  0.0362 -0.2189
28264WAT      O14860   2.067   2.049   8.714  0.1100  0.5087  0.0850
28264WAT     H114861   2.042   2.137   8.743 -1.5037 -0.2798  1.2721
28264WAT     H214862   2.135   2.022   8.775 -2.4620 -0.6845  2.7014
28264WAT    EPW14863   2.072   2.057   8.726 -0.4421  0.2474  0.5865
28265WAT      O14864   2.433   0.021   3.650 -0.0515 -0.2491  0.0198
28265WAT     H114865   2.476   0.029   3.564 -0.8691 -0.8890 -0.4701
28265WAT     H214866   2.501  -0.015   3.707 -0.2226 -2.4025 -1.0362
28265WAT    EPW14867   2.448   0.017   3.646 -0.1819 -0.6176 -0.1842
28266WAT      O14868   2.127   2.398   6.989 -0.0516 -0.1682  0.0381
28266WAT     H114869   2.063   2.460   7.025  2.1179  2.0700  0.3488
28266WAT     H214870   2.112   2.318   7.039 -2.5234  0.2696  0.1364
28266WAT    EPW14871   2.116   2.396   7.001 -0.0914  0.1847  0.0920
28267WAT      O14872  -0.257   3.560   7.247 -0.3611  0.0457  0.0526
28267WAT     H114873  -0.192   3.559   7.176 -0.6504  0.2283 -0.2161
28267WAT     H214874  -0.341   3.557   7.202 -0.5574  0.6377  0.3703
28267WAT    EPW14875  -0.259   3.559   7.231 -0.4251  0.1479  0.0589
28268WAT      O14876   2.785   6.825   6.754  0.1323  0.2789 -0.4670
28268WAT     H114877   2.763   6.918   6.755 -4.1963 -0.4542 -1.8705
28268WAT     H214878   2.864   6.819   6.701  1.5513  3.1791  1.0609
28268WAT    EPW14879   2.792   6.836   6.747 -0.2514  0.5648 -0.4506
28269WAT      O14880   2.281   6.152   7.894  0.2734  0.1568  0.4018
28269WAT     H114881   2.223   6.219   7.858 -1.1396 -0.9422  0.5741
28269WAT     H214882   2.367   6.173   7.856 -0.5276  0.8933 -1.1200
28269WAT    EPW14883   2.285   6.164   7.884 -0.0186  0.1092  0.2236
28270WAT      O14884   7.600   6.018   0.617 -0.3365 -0.0537  0.3484
28270WAT     H114885   7.517   5.994   0.575 -0.8402  0.8199  0.8199
28270WAT     H214886   7.646   6.071   0.552 -0.3179 -0.2154  0.2295
28270WAT    EPW14887   7.595   6.022   0.603 -0.4005  0.0401  0.3949
28271WAT      O14888  -3.154   8.450   0.612  0.8765  0.2318  0.3672
28271WAT     H114889  -3.094   8.522   0.631  0.1334  0.3795  2.4165
28271WAT     H214890  -3.178   8.462   0.520  1.2443  2.2513  0.4926
28271WAT    EPW14891  -3.149   8.461   0.602  0.8270  0.5178  0.6540
28272WAT      O14892   0.661   2.101   8.653  0.3914  0.1433  0.2080
28272WAT     H114893   0.757   2.097   8.645  0.3457  1.0434 -0.9259
28272WAT     H214894   0.628   2.076   8.567 -0.5046 -2.6208  1.2468
28272WAT    EPW14895   0.670   2.097   8.641  0.2672 -0.1025  0.1955
28273WAT      O14896   5.530   3.945   5.410 -0.0908 -0.0307 -0.1660
28273WAT     H114897   5.503   4.000   5.484  0.4803  0.1985 -0.1207
28273WAT     H214898   5.616   3.912   5.435 -0.6332 -1.3349  0.0080
28273WAT    EPW14899   5.537   3.948   5.423 -0.0873 -0.1724 -0.1371
28274WAT      O14900   5.440   0.556   6.647 -0.1051  0.6475 -0.3109
28274WAT     H114901   5.375   0.491   6.621 -1.3507  1.1577  1.3385
28274WAT     H214902   5.461   0.533   6.738  1.2392  1.1369 -0.4711
28274WAT    EPW14903   5.435   0.544   6.656 -0.0920  0.7793 -0.1144
28275WAT      O14904  -2.140   8.883   0.644  0.0903  0.1468  0.6234
28275WAT     H114905  -2.064   8.907   0.591  1.6006  0.0758  2.5887
28275WAT     H214906  -2.159   8.793   0.618  0.3746  0.3220 -0.2344
28275WAT    EPW14907  -2.132   8.874   0.634  0.3269  0.1602  0.7695
28276WAT      O14908   0.596   5.022   6.149  0.4454  0.6382 -0.2641
28276WAT     H114909   0.636   5.014   6.062  4.1026 -0.1210  1.2837
28276WAT     H214910   0.586   5.116   6.162  2.4274  0.9509 -0.5798
28276WAT    EPW14911   0.600   5.033   6.139  1.1891  0.5794 -0.1018
28277WAT      O14912   5.236   2.816   4.082 -0.2450 -0.2847  0.0044
28277WAT     H114913   5.156   2.806   4.132 -0.3250 -0.2767 -0.1208
28277WAT     H214914   5.254   2.729   4.047 -0.4204 -0.2032 -0.2988
28277WAT    EPW14915   5.228   2.803   4.084 -0.2789 -0.2729 -0.0522
28278WAT      O14916  -1.959   4.204   7.504 -0.1494  0.4080 -0.0890
28278WAT     H114917  -2.017   4.275   7.532  0.2053  0.9332 -0.6751
28278WAT     H214918  -2.009   4.124   7.521 -0.8077  0.8272 -0.0371
28278WAT    EPW14919  -1.973   4.203   7.510 -0.1894  0.5324 -0.1597
28279WAT      O14920  -5.539   8.581   4.604  0.6009  0.2406 -0.4274
28279WAT     H114921  -5.538   8.556   4.512  0.1535  1.7674 -0.8715
28279WAT     H214922  -5.447   8.581   4.630  0.8050  0.6117 -1.1182
28279WAT    EPW14923  -5.527   8.578   4.595  0.5689  0.4911 -0.5770
28280WAT      O14924  -6.071  10.240   6.917 -0.0479 -0.2676 -0.3538
28280WAT     H114925  -6.056  10.147   6.935 -1.5732 -0.1602  1.9886
28280WAT     H214926  -6.164  10.253   6.939  0.8234  2.3813  2.4354
28280WAT    EPW14927  -6.082  10.229   6.922 -0.1342  0.0963  0.3231
28281WAT      O14928  -3.240   2.758   7.602  0.0346  0.0142 -0.4708
28281WAT     H114929  -3.195   2.685   7.559 -1.8878 -2.2368  1.0615
28281WAT     H214930  -3.326   2.762   7.560 -0.0901  1.0565 -0.1544
28281WAT    EPW14931  -3.245   2.749   7.591 -0.2353 -0.1453 -0.2267
28282WAT      O14932   6.130   6.186   0.425 -0.6124  1.0696 -0.0342
28282WAT     H114933   6.140   6.136   0.506 -0.7280  0.2159 -0.5321
28282WAT     H214934   6.211   6.237   0.418  1.0894 -1.5669 -1.2005
28282WAT    EPW14935   6.142   6.186   0.435 -0.4029  0.6094 -0.2537
28283WAT      O14936   4.219   2.972   7.725  0.2002 -0.5311 -0.3997
28283WAT     H114937   4.171   2.985   7.807  0.6845 -2.0083  0.1586
28283WAT     H214938   4.197   3.048   7.672 -1.6100 -0.4444  0.3887
28283WAT    EPW14939   4.210   2.984   7.729  0.0255 -0.7145 -0.2220
28284WAT      O14940  -1.106   8.456   2.870  0.1132 -0.0630 -0.0251
28284WAT     H114941  -1.194   8.433   2.839 -0.4023  2.1298 -0.3781
28284WAT     H214942  -1.086   8.537   2.824  1.1808  0.9440  2.1073
28284WAT    EPW14943  -1.115   8.463   2.860  0.1860  0.3591  0.2097
28285WAT      O14944   2.964   1.615   2.555 -0.3809  0.7609  0.8337
28285WAT     H114945   2.869   1.607   2.566  0.0840 -1.7019  4.7660
28285WAT     H214946   2.995   1.652   2.637  2.2378 -0.2541  0.3850
28285WAT    EPW14947   2.955   1.619   2.567  0.0259  0.3022  1.2932
28286WAT      O14948   8.988   0.672   2.225  0.2761  0.7669  0.2070
28286WAT     H114949   9.016   0.710   2.309  0.0254  2.5991 -0.5095
28286WAT     H214950   8.922   0.732   2.192  2.1030  1.4927 -2.4789
28286WAT    EPW14951   8.983   0.685   2.232  0.4835  1.1043 -0.2418
28287WAT      O14952   1.434   7.105   7.030 -0.7343 -0.3359 -0.0130
28287WAT     H114953   1.446   7.082   7.122  2.9417 -1.6594 -0.6574
28287WAT     H214954   1.396   7.027   6.990 -0.8301 -0.3402  0.0870
28287WAT    EPW14955   1.431   7.092   7.037 -0.2621 -0.5109 -0.0849
28288WAT      O14956  -0.522   7.770   3.669 -0.6394  0.1899 -0.2222
28288WAT     H114957  -0.576   7.741   3.742  0.6350  1.2851  1.2142
28288WAT     H214958  -0.536   7.704   3.601 -2.6179 -0.3279  0.6141
28288WAT    EPW14959  -0.531   7.758   3.670 -0.7323  0.2663  0.0775
28289WAT      O14960   3.501   8.282   5.316 -0.1809  0.0014 -0.0419
28289WAT     H114961   3.560   8.352   5.290  0.6228 -0.7525 -0.3016
28289WAT     H214962   3.484   8.299   5.409 -2.0394  1.9663 -0.6555
28289WAT    EPW14963   3.507   8.293   5.325 -0.3200  0.1612 -0.1571
28290WAT      O14964  -1.378   1.631   5.469 -0.0963  0.5398 -0.2474
28290WAT     H114965  -1.303   1.573   5.458  0.2169  1.0291 -0.7387
28290WAT     H214966  -1.344   1.718   5.449 -1.4261  0.4751 -3.3178
28290WAT    EPW14967  -1.364   1.635   5.465 -0.2304  0.5958 -0.7172
28291WAT      O14968   6.955   7.815   0.162  0.0312  0.1702 -0.1791
28291WAT     H114969   6.935   7.738   0.215 -1.8177  0.9295  0.2918
28291WAT     H214970   6.996   7.876   0.223  1.2494 -0.2823 -0.4946
28291WAT    EPW14971   6.958   7.813   0.177 -0.0520  0.2105 -0.1586
28292WAT      O14972  -0.986   9.096   2.894  1.2779 -0.5165  0.6470
28292WAT     H114973  -1.043   9.048   2.835  0.0115 -0.6614  1.9256
28292WAT     H214974  -0.972   9.180   2.851  1.1436 -0.9492 -0.2688
28292WAT    EPW14975  -0.992   9.101   2.881  1.0932 -0.5927  0.6949
28293WAT      O14976   2.895   3.405   2.880  0.3743  0.4726 -0.2286
28293WAT     H114977   2.863   3.342   2.944  0.5390  1.0903  0.4798
28293WAT     H214978   2.962   3.455   2.927 -1.2270  2.6058 -0.0578
28293WAT    EPW14979   2.899   3.403   2.894  0.1848  0.8354 -0.1127
28294WAT      O14980   3.348   2.022   1.185 -0.2195 -0.6708 -0.0142
28294WAT     H114981   3.281   2.079   1.223  0.9975 -0.8710  2.6630
28294WAT     H214982   3.421   2.081   1.166 -0.5982 -0.6759 -1.6056
28294WAT    EPW14983   3.349   2.038   1.188 -0.1090 -0.6979  0.1291
28295WAT      O14984   2.036   6.528   8.252 -0.7747 -0.0411 -0.1884
28295WAT     H114985   1.941   6.517   8.245 -1.1898  2.1741  0.9930
28295WAT     H214986   2.059   6.489   8.336 -0.4524 -1.4050 -0.8864
28295WAT    EPW14987   2.026   6.522   8.262 -0.7870  0.0713 -0.1245
28296WAT      O14988   5.057   9.158   0.047 -0.4422  0.0665  0.6404
28296WAT     H114989   5.038   9.239   0.095  0.5270 -0.3792  1.8573
28296WAT     H214990   4.987   9.150  -0.017 -0.7370  1.6942  0.7208
28296WAT    EPW14991   5.046   9.167   0.045 -0.3533  0.2227  0.8115
28297WAT      O14992   5.054   0.357   1.772 -0.9048 -0.1819  0.0890
28297WAT     H114993   5.053   0.359   1.677 -0.0631 -0.3014  0.0714
28297WAT     H214994   5.115   0.427   1.797 -2.9488  1.5297  0.6221
28297WAT    EPW14995   5.062   0.367   1.763 -1.0633  0.0281  0.1570
28298WAT      O14996  -0.430   8.659   0.844 -0.1201 -0.3499 -0.2943
28298WAT     H114997  -0.475   8.636   0.926 -1.0102  1.4981 -0.2197
28298WAT     H214998  -0.481   8.615   0.776 -1.0690  0.3497 -0.0623
28298WAT    EPW14999  -0.443   8.650   0.846 -0.3626 -0.0134 -0.2539
28299WAT      O15000  -3.162   2.275   7.805 -0.9501 -0.1515 -0.1575
28299WAT     H115001  -3.087   2.235   7.761  0.0641  0.8609  0.5900
28299WAT     H215002  -3.228   2.206   7.807  0.9955 -2.1175  1.7906
28299WAT    EPW15003  -3.161   2.261   7.800 -0.5597 -0.2773  0.1981
28300WAT      O15004  -2.757   9.151   7.026  0.1741 -0.8324 -0.5204
28300WAT     H115005  -2.742   9.177   7.117  0.7901  2.1225 -1.3502
28300WAT     H215006  -2.738   9.057   7.025  4.2400 -0.3009  1.6517
28300WAT    EPW15007  -2.752   9.142   7.038  0.7918 -0.3729 -0.3433
28301WAT      O15008  -2.032   7.590   3.698  0.3531  0.7090 -0.0585
28301WAT     H115009  -2.077   7.663   3.656 -0.5461 -0.5162 -1.3099
28301WAT     H215010  -1.969   7.632   3.757 -1.5234  2.4818  0.8107
28301WAT    EPW15011  -2.029   7.605   3.700 -0.0130  0.7813 -0.1088
28302WAT      O15012   7.118   4.713   3.037  0.2414 -0.4848 -0.4562
28302WAT     H115013   7.202   4.716   2.993  0.6775 -2.1234  0.1942
28302WAT     H215014   7.095   4.805   3.051  0.9227  0.0355 -2.4499
28302WAT    EPW15015   7.126   4.725   3.033  0.3889 -0.6320 -0.6334
28303WAT      O15016   4.265   4.827   7.857  0.4830  0.2780  0.2460
28303WAT     H115017   4.177   4.836   7.820  0.3744 -0.6082  0.2769
28303WAT     H215018   4.253   4.774   7.935  1.5018 -3.1321 -1.7232
28303WAT    EPW15019   4.252   4.821   7.863  0.6030 -0.2885 -0.0098
28304WAT      O15020  -5.401   9.129   4.676 -0.1371 -0.4693 -0.0554
28304WAT     H115021  -5.308   9.106   4.669 -0.5836 -1.9980 -1.3555
28304WAT     H215022  -5.402   9.224   4.665  1.1140 -0.6321 -2.2193
28304WAT    EPW15023  -5.389   9.139   4.674 -0.0310 -0.6924 -0.5121
28305WAT      O15024   5.316   0.303   7.671 -0.6092  0.3255 -0.0580
28305WAT     H115025   5.322   0.295   7.576  0.0541 -0.1210  0.0137
28305WAT     H215026   5.271   0.387   7.685  0.6328  1.1441 -0.7625
28305WAT    EPW15027   5.311   0.313   7.661 -0.3579  0.3746 -0.1414
28306WAT      O15028   3.513   4.178   4.064 -0.6420  0.2292 -0.0739
28306WAT     H115029   3.550   4.238   4.129 -0.5603 -2.4117  2.5385
28306WAT     H215030   3.430   4.149   4.103 -0.1871 -2.0918 -0.6594
28306WAT    EPW15031   3.507   4.182   4.078 -0.5713 -0.4253  0.1936
28307WAT      O15032  -0.687   5.058   6.382  0.3957  0.7419 -0.0981
28307WAT     H115033  -0.635   5.013   6.315 -0.4825 -0.2680 -0.1351
28307WAT     H215034  -0.665   5.012   6.463 -0.5803  0.1740 -0.1496
28307WAT    EPW15035  -0.677   5.046   6.384  0.1511  0.5338 -0.1097
28308WAT      O15036   1.547   2.549   6.052 -0.1882  0.0164  0.0652
28308WAT     H115037   1.600   2.530   6.129  0.1085  0.5655  0.0016
28308WAT     H215038   1.572   2.481   5.989  1.0976  0.7804 -0.2773
28308WAT    EPW15039   1.557   2.537   6.054  0.0204  0.1897  0.0117
28309WAT      O15040  -0.288   6.606   0.975  0.4254 -0.1950  0.2205
28309WAT     H115041  -0.299   6.559   0.892  2.0744 -1.2181  0.5300
28309WAT     H215042  -0.377   6.626   1.003 -0.1972 -0.3904 -1.4755
28309WAT    EPW15043  -0.301   6.602   0.968  0.5608 -0.3557  0.0376
28310WAT      O15044   1.718   1.341   7.595 -0.3593 -0.3807 -0.3822
28310WAT     H115045   1.688   1.357   7.506 -2.0940  3.3943  0.6785
28310WAT     H215046   1.638   1.342   7.648  0.7892 -0.5207  1.4677
28310WAT    EPW15047   1.704   1.343   7.590 -0.4366  0.0987  0.0017
28311WAT      O15048  -1.149   8.406   4.953 -0.3312 -0.7286  0.4424
28311WAT     H115049  -1.142   8.404   4.857  0.4716  1.1951  0.4210
28311WAT     H215050  -1.172   8.316   4.977  1.9021 -1.8941 -1.3628
28311WAT    EPW15051  -1.151   8.394   4.943  0.0693 -0.6289  0.2015
28312WAT      O15052  -3.984   5.626   6.667  0.2711  0.0566  0.2187
28312WAT     H115053  -3.925   5.699   6.646  0.8609 -0.6308 -0.5799
28312WAT     H215054  -3.959   5.557   6.605  0.0751 -1.0114  1.3001
28312WAT    EPW15055  -3.973   5.627   6.656  0.3232 -0.1750  0.2561
28313WAT      O15056   4.961   4.122   4.148 -0.1406  0.3223  0.7141
28313WAT     H115057   4.865   4.113   4.154 -0.1246  0.7335  1.9742
28313WAT     H215058   4.987   4.150   4.236  1.0038  1.5389  0.0097
28313WAT    EPW15059   4.951   4.125   4.161  0.0124  0.5369  0.7875
28314WAT      O15060  -1.086   6.204   3.029  0.6289  0.7810  0.0572
28314WAT     H115061  -1.174   6.206   3.065 -1.4253 -1.9294 -4.0212
28314WAT     H215062  -1.031   6.175   3.102 -2.3348 -0.3136  2.0626
28314WAT    EPW15063  -1.090   6.200   3.043 -0.0329  0.2792 -0.2162
28315WAT      O15064   6.691   4.542   3.220 -0.5841  0.3343  0.0050
28315WAT     H115065   6.748   4.469   3.241 -2.2856 -1.0938 -0.0895
28315WAT     H215066   6.733   4.618   3.260  3.2792  0.1133 -3.0130
28315WAT    EPW15067   6.704   4.543   3.228 -0.2990  0.1168 -0.4055
28316WAT      O15068  -1.362   7.375   6.374 -0.6534 -0.2570  0.1971
28316WAT     H115069  -1.449   7.343   6.397 -0.5283 -0.0369  0.9944
28316WAT     H215070  -1.307   7.296   6.373 -0.6537 -0.2622  0.6799
28316WAT    EPW15071  -1.366   7.360   6.377 -0.6369 -0.2286  0.3660
28317WAT      O15072  -0.834   6.573   1.005  0.5613 -0.2308  0.0386
28317WAT     H115073  -0.740   6.558   0.999  0.7456  0.4508  1.0283
28317WAT     H215074  -0.869   6.535   0.924  1.6320 -0.8296 -0.1651
28317WAT    EPW15075  -0.826   6.566   0.993  0.7268 -0.2198  0.1422
28318WAT      O15076   0.161   4.164   3.441  0.6619 -0.5318 -0.3611
28318WAT     H115077   0.243   4.172   3.488  0.7438 -1.6459 -0.2924
28318WAT     H215078   0.108   4.103   3.494 -0.4903  0.7111 -0.0239
28318WAT    EPW15079   0.165   4.157   3.454  0.5207 -0.5147 -0.3077
28319WAT      O15080  -1.464   2.500   5.223 -0.2217 -0.1242  0.0266
28319WAT     H115081  -1.402   2.573   5.220  1.5804 -1.3006  3.5852
28319WAT     H215082  -1.496   2.493   5.133  3.0342  2.0369 -1.5102
28319WAT    EPW15083  -1.460   2.509   5.211  0.4454  0.0057  0.2933
28320WAT      O15084   2.556   1.565   7.186 -0.8965 -0.2243  0.4784
28320WAT     H115085   2.581   1.481   7.147  0.5476 -0.4658  1.8128
28320WAT     H215086   2.638   1.614   7.190 -0.6817 -0.6509  4.1492
28320WAT    EPW15087   2.570   1.560   7.181 -0.6777 -0.3124  1.1384
28321WAT      O15088  -0.559   8.773   5.009 -0.1029 -0.3885 -0.8743
28321WAT     H115089  -0.547   8.866   5.028 -1.1816 -0.4675  0.3246
28321WAT     H215090  -0.611   8.771   4.928  0.0902  0.0355 -1.0107
28321WAT    EPW15091  -0.565   8.785   5.001 -0.2197 -0.3433 -0.7341
28322WAT      O15092   2.254   5.284   3.617 -0.7191  0.1550  0.9371
28322WAT     H115093   2.294   5.197   3.612  0.0122  0.5384 -0.5316
28322WAT     H215094   2.301   5.327   3.688  0.3777  0.0253  0.3249
28322WAT    EPW15095   2.265   5.278   3.626 -0.4779  0.1886  0.6627
28323WAT      O15096   3.883   5.082   2.159  0.6524  0.0952 -0.3697
28323WAT     H115097   3.962   5.066   2.211  0.8168 -2.8731 -1.3162
28323WAT     H215098   3.819   5.020   2.194 -0.3164  0.4337 -1.4968
28323WAT    EPW15099   3.885   5.072   2.170  0.5463 -0.2515 -0.6431
28324WAT      O15100  -3.147   9.714   3.928 -0.4803  0.3790 -0.3778
28324WAT     H115101  -3.167   9.800   3.965 -1.0322 -0.9239  2.7109
28324WAT     H215102  -3.232   9.671   3.921 -0.1634 -0.1101 -1.4557
28324WAT    EPW15103  -3.161   9.719   3.932 -0.5113  0.1426 -0.1125
28325WAT      O15104   6.256   1.128   6.583 -0.0040 -0.0741 -0.4949
28325WAT     H115105   6.254   1.050   6.638  1.0935 -0.1963 -0.5965
28325WAT     H215106   6.347   1.134   6.554  0.7641  2.9845  2.0203
28325WAT    EPW15107   6.268   1.118   6.587  0.2420  0.3132 -0.1767
28326WAT      O15108  -5.989   8.540   7.468  0.1267 -0.0551 -0.0428
28326WAT     H115109  -6.012   8.591   7.390 -0.8273  0.5415  0.6151
28326WAT     H215110  -6.010   8.450   7.444  0.7352 -0.0097 -0.8055
28326WAT    EPW15111  -5.994   8.535   7.454  0.0811  0.0291 -0.0567
28327WAT      O15112   0.624   3.174   6.656 -0.0148 -0.1554 -0.4048
28327WAT     H115113   0.672   3.243   6.700 -0.4524 -0.5684  0.7430
28327WAT     H215114   0.678   3.095   6.669 -1.2670 -0.7723  1.5007
28327WAT    EPW15115   0.637   3.173   6.663 -0.2377 -0.2912 -0.0024
28328WAT      O15116   1.321   5.909   3.179  0.0875  0.1124 -0.4080
28328WAT     H115117   1.387   5.935   3.116 -0.2480 -1.2141 -1.3581
28328WAT     H215118   1.370   5.864   3.248  0.2790  0.0508 -0.5851
28328WAT    EPW15119   1.336   5.906   3.180  0.0685 -0.0706 -0.5567
28329WAT      O15120   6.105   3.044   0.179  0.0959 -0.1483 -0.1350
28329WAT     H115121   6.036   3.105   0.204 -0.8612 -1.4251  0.4797
28329WAT     H215122   6.177   3.099   0.148 -0.6331  1.2751  0.6348
28329WAT    EPW15123   6.106   3.059   0.178 -0.1264 -0.1290  0.0476
28330WAT      O15124  -1.742   5.579   2.436 -0.4962  0.2169 -0.0196
28330WAT     H115125  -1.761   5.656   2.383  0.2439  0.0942 -0.4790
28330WAT     H215126  -1.826   5.534   2.443 -0.9495  1.0784  0.2924
28330WAT    EPW15127  -1.755   5.583   2.430 -0.4584  0.3142 -0.0391
28331WAT      O15128  -4.563  10.070   6.153 -0.1176  0.2171  0.2775
28331WAT     H115129  -4.476  10.104   6.173  0.4284 -1.1741  0.3821
28331WAT     H215130  -4.621  10.146   6.161  0.9963  1.0419  0.7732
28331WAT    EPW15131  -4.559  10.085   6.157  0.1011  0.1421  0.3567
28332WAT      O15132  -2.956   8.155   8.862  0.2240 -0.0028  0.3401
28332WAT     H115133  -2.914   8.147   8.948 -0.6284 -0.0153  0.7606
28332WAT     H215134  -2.886   8.188   8.805  0.4088  1.4353  1.3634
28332WAT    EPW15135  -2.941   8.158   8.866  0.1359  0.1850  0.5302
28333WAT      O15136   2.175   7.305   4.724 -0.2561  0.2838  0.2485
28333WAT     H115137   2.161   7.270   4.812 -0.8853  0.9989  0.4378
28333WAT     H215138   2.136   7.239   4.666  2.9049 -1.8107  0.2350
28333WAT    EPW15139   2.168   7.292   4.728  0.0778  0.1018  0.2720
28334WAT      O15140  -2.599   8.781   3.954  0.1822 -0.5888 -0.2615
28334WAT     H115141  -2.670   8.795   4.017 -0.5209 -0.5540 -1.0545
28334WAT     H215142  -2.535   8.849   3.976 -1.0322  0.8548 -0.9648
28334WAT    EPW15143  -2.600   8.792   3.966 -0.0708 -0.3943 -0.4588
28335WAT      O15144   7.613   1.463   2.865  0.3343  0.1566 -0.3052
28335WAT     H115145   7.690   1.466   2.921 -0.0335  0.8858  0.1846
28335WAT     H215146   7.541   1.492   2.921  0.0225  1.2757 -1.2323
28335WAT    EPW15147   7.614   1.467   2.879  0.2446  0.4004 -0.3628
28336WAT      O15148  -4.367   6.275   5.861  0.0526  0.3282 -0.1454
28336WAT     H115149  -4.288   6.256   5.811 -0.8791  0.9537 -1.9527
28336WAT     H215150  -4.355   6.230   5.945  1.1709 -1.7650 -1.3696
28336WAT    EPW15151  -4.355   6.267   5.866  0.0772  0.1347 -0.5450
28337WAT      O15152   1.843   2.191   7.415  0.4492  0.3219  0.0296
28337WAT     H115153   1.782   2.264   7.431 -1.0939 -0.8779 -0.1175
28337WAT     H215154   1.799   2.115   7.454  1.6061 -0.6919 -0.6029
28337WAT    EPW15155   1.829   2.191   7.422  0.3983  0.0299 -0.0734
28338WAT      O15156  -0.251   7.201   3.961 -0.5111 -0.8608  0.3895
28338WAT     H115157  -0.328   7.175   4.012 -0.2745  0.2564  1.3845
28338WAT     H215158  -0.244   7.136   3.892 -1.3151 -1.9927  1.3359
28338WAT    EPW15159  -0.260   7.189   3.959 -0.5859 -0.8628  0.6455
28339WAT      O15160  -5.087   8.433   5.943 -0.7323 -0.2477  0.0940
28339WAT     H115161  -5.152   8.443   6.013 -2.2547  1.8734 -1.5036
28339WAT     H215162  -5.137   8.407   5.866  0.3319  0.9042 -1.0538
28339WAT    EPW15163  -5.102   8.431   5.942 -0.7925  0.1841 -0.2680
28340WAT      O15164   7.674   1.170   1.011 -0.5731 -0.0136 -0.0176
28340WAT     H115165   7.727   1.105   0.963  0.9927  1.7179 -0.7479
28340WAT     H215166   7.684   1.145   1.103  0.6559 -0.3542 -0.2264
28340WAT    EPW15167   7.682   1.158   1.017 -0.2043  0.1699 -0.1414
28341WAT      O15168   4.364   3.316   6.641 -0.6681 -0.3598  0.1693
28341WAT     H115169   4.303   3.249   6.671  0.3769 -1.8647 -0.9239
28341WAT     H215170   4.313   3.397   6.642 -1.8264 -1.0404  2.0048
28341WAT    EPW15171   4.349   3.318   6.645 -0.6831 -0.6480  0.2670
28342WAT      O15172   3.224   6.167   2.653  0.2269 -0.4618  0.3602
28342WAT     H115173   3.244   6.236   2.716  0.0020  2.0783 -2.1573
28342WAT     H215174   3.162   6.110   2.699  0.4254  0.9688  2.5521
28342WAT    EPW15175   3.218   6.168   2.667  0.2234  0.0618  0.3172
28343WAT      O15176   3.732   3.270   1.328  0.3549  0.0456  0.5033
28343WAT     H115177   3.760   3.361   1.340  0.3215 -0.0382  1.2466
28343WAT     H215178   3.723   3.260   1.233  1.0981  0.5998  0.3622
28343WAT    EPW15179   3.735   3.280   1.317  0.4485  0.1076  0.5828
28344WAT      O15180   0.918   1.869   6.206  0.8151 -0.1902  0.2673
28344WAT     H115181   0.848   1.907   6.153  1.0161 -0.7821 -0.4501
28344WAT     H215182   0.909   1.910   6.292 -0.5205 -0.3819  0.2380
28344WAT    EPW15183   0.907   1.879   6.211  0.6655 -0.2936  0.1688
28345WAT      O15184  -4.746   3.741   7.457  0.5655 -0.2144 -0.2747
28345WAT     H115185  -4.702   3.737   7.372  0.3354  0.3845 -0.4229
28345WAT     H215186  -4.839   3.728   7.436  0.2678  1.7682 -0.3351
28345WAT    EPW15187  -4.753   3.738   7.443  0.4959  0.1260 -0.3023
28346WAT      O15188  -4.358   9.834   5.305  0.3276  0.1454 -0.7904
28346WAT     H115189  -4.306   9.759   5.277  2.9846  2.1444 -1.5673
28346WAT     H215190  -4.352   9.834   5.400 -0.2918 -0.9648 -0.7304
28346WAT    EPW15191  -4.351   9.824   5.314  0.5963  0.2623 -0.8852
28347WAT      O15192  -1.320   6.772   0.867  0.0770  0.5074  0.0809
28347WAT     H115193  -1.238   6.812   0.896 -0.8786  2.3440  0.3738
28347WAT     H215194  -1.363   6.840   0.816 -1.8711  0.0502  1.0417
28347WAT    EPW15195  -1.315   6.786   0.864 -0.3060  0.6893  0.2462
28348WAT      O15196   6.620   0.400   6.698  0.2941 -0.1661  0.1781
28348WAT     H115197   6.573   0.425   6.778 -0.4369 -3.3948  0.8810
28348WAT     H215198   6.553   0.370   6.638  1.0956 -0.9230 -0.3719
28348WAT    EPW15199   6.605   0.399   6.701  0.3035 -0.6918  0.1984
28349WAT      O15200   3.018   1.207   0.084  0.2441  0.6607  0.3538
28349WAT     H115201   3.008   1.113   0.100 -0.9513  0.6943 -0.1068
28349WAT     H215202   2.931   1.244   0.103  0.7951  1.7332  0.8941
28349WAT    EPW15203   3.005   1.199   0.089  0.1590  0.8066  0.3643
28350WAT      O15204   4.665   2.758   5.855  0.6269 -0.3047  0.1981
28350WAT     H115205   4.703   2.845   5.864 -1.4335  0.5785  1.2500
28350WAT     H215206   4.688   2.730   5.767  0.8144  1.5959 -0.4003
28350WAT    EPW15207   4.673   2.765   5.845  0.3798  0.0625  0.2580
28351WAT      O15208   1.759  10.070   3.299  0.6330 -0.0097  0.2293
28351WAT     H115209   1.795  10.138   3.242  1.2187 -0.8958 -0.4867
28351WAT     H215210   1.792   9.988   3.262 -0.2271 -0.6992  0.9555
28351WAT    EPW15211   1.768  10.068   3.287  0.5968 -0.2170  0.2307
28352WAT      O15212   7.270   5.662   0.251 -0.0533 -0.5501  0.4251
28352WAT     H115213   7.260   5.608   0.329  0.0778  0.3429  1.0701
28352WAT     H215214   7.360   5.646   0.222 -0.1150 -0.9107  0.4250
28352WAT    EPW15215   7.281   5.653   0.258 -0.0443 -0.4797  0.5102
28353WAT      O15216  -3.188   5.669   2.432 -0.2535  0.4507  0.1229
28353WAT     H115217  -3.168   5.736   2.498 -2.5112  1.4164 -0.0768
28353WAT     H215218  -3.277   5.689   2.404 -0.1718 -1.3099 -1.6120
28353WAT    EPW15219  -3.197   5.680   2.437 -0.5406  0.3462 -0.1322
28354WAT      O15220  -3.598   8.042   7.645 -0.2748  0.5578  0.4439
28354WAT     H115221  -3.543   8.119   7.658 -0.2255  0.4722  0.7677
28354WAT     H215222  -3.561   7.976   7.704 -0.1855  0.2186  0.0189
28354WAT    EPW15223  -3.586   8.043   7.654 -0.2564  0.5016  0.4308
28355WAT      O15224   4.617   0.558   4.232  0.3634  0.2122  0.2444
28355WAT     H115225   4.638   0.505   4.155 -0.8889 -0.7221  0.5193
28355WAT     H215226   4.687   0.539   4.294 -0.8786 -2.4243  0.9535
28355WAT    EPW15227   4.629   0.549   4.230  0.0343 -0.2587  0.3741
28356WAT      O15228   2.155   0.362   8.937  0.4124  0.1314  0.3199
28356WAT     H115229   2.123   0.300   9.003  3.2028 -0.6786  1.0319
28356WAT     H215230   2.124   0.447   8.968 -0.9241 -0.5633  0.9847
28356WAT    EPW15231   2.147   0.365   8.950  0.6042 -0.0672  0.5015
28357WAT      O15232   1.763   1.466   3.674  0.2630  0.5641  0.0894
28357WAT     H115233   1.815   1.386   3.684 -1.3806 -0.4697  0.9425
28357WAT     H215234   1.795   1.505   3.593  0.3189 -1.6134 -1.0188
28357WAT    EPW15235   1.774   1.461   3.665  0.0536  0.1406  0.0558
28358WAT      O15236   6.849  10.081   0.279  0.8666  0.6398  0.7405
28358WAT     H115237   6.935  10.083   0.320  0.3094 -0.0959  1.9746
28358WAT     H215238   6.794  10.133   0.337  0.6801  2.0039 -0.5875
28358WAT    EPW15239   6.853  10.088   0.292  0.7687  0.7224  0.7281
28359WAT      O15240  -3.789   1.157   6.821 -0.6638 -0.1696  0.0907
28359WAT     H115241  -3.800   1.062   6.824  0.0442 -0.2480  0.3884
28359WAT     H215242  -3.865   1.192   6.868 -0.6823 -0.6073  0.3883
28359WAT    EPW15243  -3.801   1.149   6.828 -0.5729 -0.2376  0.1693
28360WAT      O15244  -3.322   3.712   8.665  0.3116 -0.3572 -0.0906
28360WAT     H115245  -3.284   3.786   8.711 -1.1455 -1.5179  3.2809
28360WAT     H215246  -3.382   3.751   8.602  0.1148  1.3447  1.0860
28360WAT    EPW15247  -3.325   3.727   8.662  0.0936 -0.2857  0.5093
28361WAT      O15248  -2.325   7.777   2.303 -1.0566 -0.0589  0.4071
28361WAT     H115249  -2.348   7.699   2.354 -0.3312 -0.3637  0.2856
28361WAT     H215250  -2.233   7.764   2.279 -0.7533  1.1093  0.8715
28361WAT    EPW15251  -2.316   7.765   2.306 -0.9209  0.0551  0.4524
28362WAT      O15252   0.298   6.358   3.625  0.2263 -0.4426 -0.4219
28362WAT     H115253   0.379   6.307   3.631  0.3339 -0.1398  1.4447
28362WAT     H215254   0.298   6.392   3.536  2.4545 -0.0069 -0.3358
28362WAT    EPW15255   0.309   6.355   3.614  0.5344 -0.3455 -0.1644
28363WAT      O15256   2.387   8.896   4.513  0.0446  0.2099  0.3111
28363WAT     H115257   2.351   8.818   4.557  0.9316  0.3587  1.3374
28363WAT     H215258   2.456   8.926   4.572  1.5858  0.1679 -1.4071
28363WAT    EPW15259   2.391   8.889   4.527  0.3649  0.2236  0.2201
28364WAT      O15260   2.134   5.360   2.181 -0.3386 -0.2411  0.3717
28364WAT     H115261   2.061   5.340   2.122  0.5650 -0.0696 -0.8313
28364WAT     H215262   2.202   5.297   2.158  0.4716  0.5973  0.3822
28364WAT    EPW15263   2.133   5.349   2.170 -0.1125 -0.1080  0.2145
28365WAT      O15264  -5.416   9.384   5.986  0.3682  0.1276 -0.7099
28365WAT     H115265  -5.354   9.420   5.922  0.6175  0.0713 -0.5009
28365WAT     H215266  -5.494   9.439   5.976  0.5689  0.4097 -0.7430
28365WAT    EPW15267  -5.418   9.396   5.976  0.4275  0.1574 -0.6866
28366WAT      O15268  -1.017   9.356   2.804  0.4221 -0.0903  0.1881
28366WAT     H115269  -1.071   9.323   2.732  3.1245 -1.1075 -1.5212
28366WAT     H215270  -0.962   9.424   2.764 -1.3692  3.0028  2.4896
28366WAT    EPW15271  -1.017   9.361   2.790  0.5423  0.1836  0.2662
28367WAT      O15272  -3.228   8.536   7.054  0.5823 -0.5253 -0.0705
28367WAT     H115273  -3.155   8.566   7.108  0.7676  4.6127 -2.5365
28367WAT     H215274  -3.304   8.581   7.091 -0.1630 -0.8667 -1.1644
28367WAT    EPW15275  -3.228   8.546   7.066  0.5084  0.1073 -0.5400
28368WAT      O15276   2.142   2.696   6.202  0.0933 -0.8139  0.7324
28368WAT     H115277   2.135   2.609   6.164 -1.3339 -1.0213  1.3977
28368WAT     H215278   2.181   2.750   6.133  1.0681 -1.9687  0.3415
28368WAT    EPW15279   2.146   2.692   6.188  0.0335 -0.9936  0.7687
28369WAT      O15280  -1.124   2.499   2.862 -0.5237 -0.2851  0.2686
28369WAT     H115281  -1.172   2.419   2.882  1.6848 -1.0136  3.3818
28369WAT     H215282  -1.047   2.470   2.813 -1.1650  0.3651 -1.1807
28369WAT    EPW15283  -1.120   2.484   2.858 -0.3170 -0.2955  0.4880
28370WAT      O15284  -0.138   5.731   8.726 -0.2291  0.5615  0.0526
28370WAT     H115285  -0.228   5.703   8.711 -0.0898 -1.5081  2.5223
28370WAT     H215286  -0.146   5.821   8.759 -1.3230  0.5753 -0.2310
28370WAT    EPW15287  -0.151   5.739   8.728 -0.3550  0.2904  0.3409
28371WAT      O15288  -0.119   0.260   2.585  0.0021 -0.2046  0.9456
28371WAT     H115289  -0.205   0.300   2.571 -0.8423 -2.0205  0.7217
28371WAT     H215290  -0.067   0.286   2.509 -1.2088 -1.2888 -0.2882
28371WAT    EPW15291  -0.123   0.269   2.573 -0.2690 -0.5871  0.7533
28372WAT      O15292  -6.508   5.730   8.581 -0.4100 -0.4488  1.0698
28372WAT     H115293  -6.602   5.737   8.593 -0.4561  4.7255  0.0088
28372WAT     H215294  -6.498   5.690   8.495 -1.6104 -0.7031  1.0280
28372WAT    EPW15295  -6.519   5.726   8.571 -0.5744  0.2000  0.9246
28373WAT      O15296   2.277   0.426   1.202 -0.5546  0.1022  0.3257
28373WAT     H115297   2.197   0.443   1.252 -0.9553 -2.3093  0.6501
28373WAT     H215298   2.287   0.503   1.146 -3.1223  0.4862  0.2560
28373WAT    EPW15299   2.268   0.438   1.201 -0.9462 -0.1652  0.3593
28374WAT      O15300  -6.450  10.223   7.248 -0.4701  0.3804  0.2237
28374WAT     H115301  -6.486  10.135   7.256 -0.6567  0.2706 -1.4556
28374WAT     H215302  -6.361  10.216   7.283 -0.3768 -0.5649 -0.1638
28374WAT    EPW15303  -6.443  10.211   7.253 -0.4823  0.2413 -0.0486
28375WAT      O15304  -1.482   2.161   7.711  0.0683  0.8242 -0.2153
28375WAT     H115305  -1.525   2.203   7.637 -0.8459 -1.3503 -1.0066
28375WAT     H215306  -1.517   2.072   7.712  1.2852  0.2939  1.8511
28375WAT    EPW15307  -1.492   2.154   7.701  0.1082  0.4674 -0.0472
28376WAT      O15308  -4.388   6.031   7.986  0.0427 -0.0298  0.0676
28376WAT     H115309  -4.419   5.997   7.902  0.4953  0.3564 -0.2682
28376WAT     H215310  -4.462   6.023   8.045 -2.3337  4.6933 -1.7175
28376WAT    EPW15311  -4.402   6.026   7.983 -0.2108  0.6440 -0.2120
28377WAT      O15312  -4.038   6.096   8.258  0.0915 -0.3287 -0.4700
28377WAT     H115313  -4.108   6.139   8.308  1.4885  0.6433  0.7318
28377WAT     H215314  -4.085   6.041   8.195 -1.7610  0.9173 -0.2753
28377WAT    EPW15315  -4.054   6.094   8.256  0.0312 -0.0362 -0.2861
28378WAT      O15316   1.163   0.846   2.298  0.1835  0.1095  0.4567
28378WAT     H115317   1.251   0.836   2.263  0.6488  2.7290  0.6825
28378WAT     H215318   1.138   0.758   2.326  1.8535 -1.1102 -1.5501
28378WAT    EPW15319   1.171   0.833   2.297  0.4651  0.2941  0.2217
28379WAT      O15320  -0.780   4.141   2.925 -0.5020 -0.0740 -0.3558
28379WAT     H115321  -0.818   4.179   2.846 -1.8074 -2.3034 -0.8965
28379WAT     H215322  -0.823   4.055   2.934  1.0097 -0.7149  1.6996
28379WAT    EPW15323  -0.790   4.134   2.916 -0.4748 -0.4528 -0.1560
28380WAT      O15324  -1.913   0.769   6.017  0.1362 -0.0088 -0.3891
28380WAT     H115325  -1.945   0.680   6.034 -1.3188  0.8361  1.7479
28380WAT     H215326  -1.953   0.822   6.086 -0.5707  2.6615 -2.6785
28380WAT    EPW15327  -1.922   0.764   6.029 -0.1489  0.4548 -0.4091
28381WAT      O15328   5.401   7.482   0.591  0.5556 -0.2959 -0.2250
28381WAT     H115329   5.366   7.517   0.509 -0.9638  2.3827  1.3933
28381WAT     H215330   5.323   7.459   0.642  1.4706 -4.3200 -0.3050
28381WAT    EPW15331   5.386   7.484   0.587  0.4759 -0.4735 -0.0221
28382WAT      O15332   0.056   8.551   3.003 -0.0861 -0.4746  0.2465
28382WAT     H115333  -0.031   8.588   3.021  0.2904  1.0157 -0.8420
28382WAT     H215334   0.038   8.471   2.955 -0.8703  0.3384 -0.8691
28382WAT    EPW15335   0.042   8.545   2.999 -0.1399 -0.1707 -0.0441
28383WAT      O15336  -2.797   6.689   5.455 -0.5995 -0.1426  0.3063
28383WAT     H115337  -2.740   6.751   5.502 -1.3654 -1.1096  2.6745
28383WAT     H215338  -2.742   6.655   5.384  1.8201 -0.9509  2.4006
28383WAT    EPW15339  -2.782   6.693   5.452 -0.3815 -0.3767  0.8948
28384WAT      O15340   1.645   6.767   0.778  0.6110  0.6830 -0.8448
28384WAT     H115341   1.736   6.794   0.769  1.0164 -0.1831  0.4437
28384WAT     H215342   1.646   6.673   0.763  0.1714  0.4295  0.5820
28384WAT    EPW15343   1.657   6.759   0.775  0.6065  0.5352 -0.4867
28385WAT      O15344  -2.947   2.315   6.488  0.3807 -0.1654  0.5510
28385WAT     H115345  -2.913   2.404   6.493 -0.4104  0.2019 -0.2780
28385WAT     H215346  -2.919   2.274   6.569  1.8409  0.4436  0.3866
28385WAT    EPW15347  -2.939   2.321   6.499  0.4690 -0.0366  0.4201
28386WAT      O15348   0.841   4.481   7.617 -0.3251 -0.5779  0.5031
28386WAT     H115349   0.855   4.575   7.618  0.6536 -0.6906 -0.5894
28386WAT     H215350   0.845   4.454   7.709  0.6319  0.2671  0.7182
28386WAT    EPW15351   0.843   4.490   7.629 -0.0698 -0.4814  0.3874
28387WAT      O15352   4.159   6.314   5.307  1.0724  0.4637 -0.3020
28387WAT     H115353   4.187   6.223   5.311 -2.0141 -0.5639  1.3000
28387WAT     H215354   4.234   6.364   5.339  2.2868 -1.6600  0.3312
28387WAT    EPW15355   4.173   6.309   5.312  0.8256  0.0482 -0.0072
28388WAT      O15356   5.536   8.875   0.884  0.2684  0.9551  0.5090
28388WAT     H115357   5.489   8.908   0.960  0.3790  1.8689  0.1839
28388WAT     H215358   5.586   8.950   0.851 -1.4075  1.2013 -1.7413
28388WAT    EPW15359   5.537   8.889   0.889  0.0620  1.1082  0.1693
28389WAT      O15360  -0.684   6.472   0.704 -0.2522  0.1516  0.7124
28389WAT     H115361  -0.775   6.454   0.727 -0.1320  0.8565  1.7948
28389WAT     H215362  -0.685   6.560   0.668 -0.7818 -1.5728 -4.2241
28389WAT    EPW15363  -0.696   6.481   0.702 -0.3062  0.0172  0.2041
28390WAT      O15364   1.796   5.453   5.613  0.2247  0.1918 -0.5454
28390WAT     H115365   1.856   5.504   5.668 -0.5270 -1.7975  2.3502
28390WAT     H215366   1.727   5.425   5.673 -2.8905  1.1183 -3.4053
28390WAT    EPW15367   1.795   5.456   5.628 -0.2853  0.0517 -0.5405
28391WAT      O15368  -1.495   0.287   5.003  0.8365  0.5140  0.3195
28391WAT     H115369  -1.401   0.304   4.997  0.7483  0.4192 -3.0312
28391WAT     H215370  -1.506   0.199   4.968 -0.6528  1.2512 -1.2050
28391WAT    EPW15371  -1.484   0.278   4.998  0.6285  0.5987 -0.3235
28392WAT      O15372   0.601   8.568   3.730  0.1177 -0.0188  0.3213
28392WAT     H115373   0.520   8.521   3.714  0.5495 -0.4422 -0.7547
28392WAT     H215374   0.574   8.651   3.770 -0.8078 -0.2665  0.2229
28392WAT    EPW15375   0.587   8.572   3.733  0.0526 -0.1073  0.1664
28393WAT      O15376   0.854   6.777   8.270  0.5068 -0.5071 -0.1845
28393WAT     H115377   0.837   6.731   8.188  2.3059 -1.7076  0.0503
28393WAT     H215378   0.768   6.786   8.311 -0.2670 -0.9451 -1.6414
28393WAT    EPW15379   0.841   6.772   8.265  0.6420 -0.7231 -0.3457
28394WAT      O15380   2.602   7.051   0.188  0.4112  0.2732 -0.5396
28394WAT     H115381   2.629   7.061   0.097 -1.1195  1.2581 -0.9219
28394WAT     H215382   2.679   7.015   0.232  1.0473 -0.6407 -2.2953
28394WAT    EPW15383   2.615   7.047   0.182  0.2931  0.2825 -0.8216
28395WAT      O15384   3.012   6.086   6.537  0.0120 -0.0389 -0.0359
28395WAT     H115385   3.064   6.012   6.505  1.1549  0.3764  0.7921
28395WAT     H215386   2.937   6.045   6.580 -1.4128 -0.6148 -2.8370
28395WAT    EPW15387   3.009   6.071   6.539 -0.0253 -0.0598 -0.2964
28396WAT      O15388  -2.463   9.486   8.240 -0.3835 -0.0706 -0.5392
28396WAT     H115389  -2.436   9.562   8.291  1.6844 -1.0695 -0.0387
28396WAT     H215390  -2.385   9.461   8.191 -0.5261 -2.7004  0.4032
28396WAT    EPW15391  -2.449   9.493   8.240 -0.1295 -0.5493 -0.3490
28397WAT      O15392   1.258   0.035   3.003 -0.3565 -0.7040 -0.1372
28397WAT     H115393   1.249   0.115   3.054  0.1893  0.2016 -1.3988
28397WAT     H215394   1.310  -0.023   3.058  1.1442  0.6396 -0.0721
28397WAT    EPW15395   1.264   0.038   3.017 -0.0866 -0.4073 -0.2949
28398WAT      O15396   3.133   5.454   6.178  0.3708 -0.2554  0.4709
28398WAT     H115397   3.137   5.548   6.195  0.1448 -0.5796  2.6804
28398WAT     H215398   3.112   5.416   6.263  0.9951 -2.3601 -0.2597
28398WAT    EPW15399   3.131   5.462   6.192  0.4234 -0.5758  0.6659
28399WAT      O15400   0.582   7.023   6.454 -0.5578  0.5066 -0.8434
28399WAT     H115401   0.499   7.006   6.499 -0.8350  0.3484 -1.4103
28399WAT     H215402   0.602   7.115   6.474 -1.3086  0.8004 -1.4077
28399WAT    EPW15403   0.574   7.033   6.463 -0.6934  0.5245 -0.9928
28400WAT      O15404  -6.920   9.618   7.178  0.4071  0.3750  0.3172
28400WAT     H115405  -6.959   9.700   7.147 -2.4502 -0.5728  1.0856
28400WAT     H215406  -6.830   9.641   7.199 -0.7563  3.9061  2.3865
28400WAT    EPW15407  -6.914   9.632   7.177 -0.1233  0.7162  0.6914
28401WAT      O15408   6.663   9.432   0.431 -0.6690  0.0481  0.1088
28401WAT     H115409   6.691   9.512   0.386  0.3429  0.4710  1.4176
28401WAT     H215410   6.662   9.456   0.524  1.5254 -1.9356  0.7363
28401WAT    EPW15411   6.667   9.446   0.437 -0.2463 -0.1578  0.3642
28402WAT      O15412  -1.240   1.818   3.185  0.4986 -0.3471 -0.0600
28402WAT     H115413  -1.269   1.728   3.170  2.4269 -1.0053 -0.1259
28402WAT     H215414  -1.320   1.870   3.181 -0.6574 -2.0423 -0.0785
28402WAT    EPW15415  -1.254   1.813   3.183  0.6005 -0.6575 -0.0713
28403WAT      O15416   2.537   5.808   7.506  0.1695  0.7133  0.3701
28403WAT     H115417   2.604   5.744   7.483  0.3836  1.3925 -0.9990
28403WAT     H215418   2.462   5.755   7.535 -0.0805 -0.2286 -1.8378
28403WAT    EPW15419   2.536   5.792   7.507  0.1647  0.6788 -0.1018
28404WAT      O15420   0.605   1.796   3.180  0.4127  0.4704 -0.2862
28404WAT     H115421   0.527   1.769   3.228  0.4111  1.4438  0.2824
28404WAT     H215422   0.676   1.789   3.245  1.0662 -1.6511 -1.1347
28404WAT    EPW15423   0.604   1.791   3.195  0.4987  0.3189 -0.3231
28405WAT      O15424  -0.377   1.383   8.280 -0.7483 -0.3282 -0.1560
28405WAT     H115425  -0.380   1.352   8.371 -0.8211  0.3786  0.0859
28405WAT     H215426  -0.315   1.325   8.237 -2.3401 -2.1067 -0.2061
28405WAT    EPW15427  -0.370   1.371   8.287 -0.9678 -0.4696 -0.1307
28406WAT      O15428   4.395   0.873   0.513  0.0604 -0.4348 -0.4429
28406WAT     H115429   4.410   0.792   0.562 -0.8389 -1.0867 -1.2103
28406WAT     H215430   4.468   0.930   0.539 -0.6993 -0.5109  2.0884
28406WAT    EPW15431   4.407   0.870   0.523 -0.1583 -0.5308 -0.2102
28407WAT      O15432   4.719   2.429   3.414 -0.0218 -0.2452 -0.1966
28407WAT     H115433   4.633   2.393   3.438 -0.7069  2.0926  1.1537
28407WAT     H215434   4.781   2.360   3.437 -1.3340 -0.9787  1.3292
28407WAT    EPW15435   4.716   2.415   3.420 -0.2854 -0.0335  0.1826
28408WAT      O15436   2.461   6.450   1.109 -0.1341 -0.5440 -0.0963
28408WAT     H115437   2.440   6.543   1.102 -0.7065 -0.7674 -1.8725
28408WAT     H215438   2.535   6.438   1.049 -2.2318 -1.8074 -2.6465
28408WAT    EPW15439   2.468   6.460   1.100 -0.4863 -0.7401 -0.6670
28409WAT      O15440   5.818   5.513   4.371 -0.0085  0.3161 -0.0779
28409WAT     H115441   5.786   5.504   4.281 -1.7969  1.9628  0.3312
28409WAT     H215442   5.806   5.605   4.392 -0.2810 -0.1385  2.0679
28409WAT    EPW15443   5.812   5.524   4.362 -0.2804  0.4735  0.2592
28410WAT      O15444   0.405   9.588   1.561  0.5790  0.1781  0.5324
28410WAT     H115445   0.369   9.512   1.516 -1.0832  1.2144  0.0053
28410WAT     H215446   0.334   9.652   1.560  2.3747  2.3016 -0.3799
28410WAT    EPW15447   0.391   9.586   1.555  0.5966  0.5946  0.3426
28411WAT      O15448  -2.952   2.183   5.445 -0.7680  0.1634  0.3373
28411WAT     H115449  -2.980   2.242   5.515  0.2735  2.8149 -1.3247
28411WAT     H215450  -2.930   2.241   5.372  2.3699 -2.1145 -0.7517
28411WAT    EPW15451  -2.953   2.198   5.445 -0.2167  0.2126 -0.0255
28412WAT      O15452  -3.374  10.377   5.764 -0.0615 -0.3455  0.0726
28412WAT     H115453  -3.289  10.390   5.721 -1.1655  0.5127 -1.9608
28412WAT     H215454  -3.368  10.289   5.802  1.7030 -0.3392 -0.1166
28412WAT    EPW15455  -3.362  10.367   5.763  0.0256 -0.2317 -0.2205
28413WAT      O15456   0.479   5.722   4.472  0.2633  0.1950 -0.1812
28413WAT     H115457   0.438   5.772   4.542  0.4005 -0.7673  0.6155
28413WAT     H215458   0.564   5.697   4.507 -0.0931 -1.2125 -0.2396
28413WAT    EPW15459   0.485   5.725   4.486  0.2344 -0.1173 -0.0839
28414WAT      O15460   1.949   7.224   6.739 -0.2296 -0.2199 -0.3624
28414WAT     H115461   1.889   7.232   6.664 -1.5137 -0.4411  0.6150
28414WAT     H215462   1.945   7.310   6.782  1.7929  0.4887 -1.4338
28414WAT    EPW15463   1.940   7.236   6.735 -0.1322 -0.1554 -0.3748
28415WAT      O15464   6.514   0.442   4.539 -0.1720  0.6303  0.0551
28415WAT     H115465   6.563   0.452   4.620 -1.9411  0.7314  1.1711
28415WAT     H215466   6.562   0.495   4.475  1.3821  0.3618  0.9525
28415WAT    EPW15467   6.526   0.450   4.541 -0.2003  0.6082  0.3207
28416WAT      O15468   6.719   8.651   1.301 -0.4157 -0.2238  0.2151
28416WAT     H115469   6.685   8.732   1.263  1.2384  1.6435  2.3718
28416WAT     H215470   6.702   8.661   1.395  2.7358 -0.7776  0.9412
28416WAT    EPW15471   6.712   8.663   1.309  0.2182 -0.0505  0.5953
28417WAT      O15472  -1.864   4.210   8.405 -1.0099  0.7693 -0.4276
28417WAT     H115473  -1.919   4.273   8.359 -1.9612  0.2702  0.0092
28417WAT     H215474  -1.778   4.219   8.363 -1.6263  0.9642 -1.6960
28417WAT    EPW15475  -1.860   4.220   8.393 -1.2167  0.7291 -0.5374
28418WAT      O15476   4.259   5.757   7.416  0.2358  0.0695 -0.4401
28418WAT     H115477   4.272   5.751   7.510  2.0980 -2.1468 -0.7466
28418WAT     H215478   4.333   5.710   7.378 -0.0122  1.5710 -3.0615
28418WAT    EPW15479   4.270   5.750   7.423  0.4489 -0.0246 -0.8264
28419WAT      O15480  -0.628   2.785   7.094  0.2005 -0.5336 -0.5226
28419WAT     H115481  -0.584   2.702   7.077  0.7601 -0.5493  0.8995
28419WAT     H215482  -0.701   2.786   7.032  0.6266 -1.7278 -1.0765
28419WAT    EPW15483  -0.632   2.774   7.084  0.3305 -0.6931 -0.4079
28420WAT      O15484  -7.372   5.429   8.998 -0.7760 -0.1130 -0.3798
28420WAT     H115485  -7.450   5.470   8.961 -0.1759  0.4068 -1.0898
28420WAT     H215486  -7.312   5.421   8.924 -0.1705 -0.5537  0.1514
28420WAT    EPW15487  -7.375   5.433   8.983 -0.6168 -0.1025 -0.4034
28421WAT      O15488   5.997   1.399   1.982  0.5862  0.1203  0.5636
28421WAT     H115489   5.984   1.492   1.999  0.2790 -0.2110  2.3000
28421WAT     H215490   5.909   1.366   1.962  0.7995  0.3091 -0.8296
28421WAT    EPW15491   5.983   1.407   1.981  0.5736  0.1015  0.6089
28422WAT      O15492   3.751   3.134   2.415  0.2134 -0.2992  0.4327
28422WAT     H115493   3.669   3.126   2.368 -1.2534  0.6213  2.6681
28422WAT     H215494   3.777   3.043   2.434 -0.2649 -0.5966 -0.3025
28422WAT    EPW15495   3.744   3.121   2.412 -0.0432 -0.2171  0.6306
28423WAT      O15496  -1.225   5.648   1.534 -0.0448 -0.0324  0.1220
28423WAT     H115497  -1.237   5.594   1.612  0.9212 -2.5938 -1.3756
28423WAT     H215498  -1.134   5.635   1.509  0.4195  2.8360 -0.0448
28423WAT    EPW15499  -1.215   5.639   1.541  0.1438  0.0081 -0.0975
28424WAT      O15500  -0.459   2.292   1.648 -0.3074 -0.7058 -0.3828
28424WAT     H115501  -0.471   2.328   1.560 -1.4506 -1.5675 -0.5926
28424WAT     H215502  -0.428   2.202   1.634 -1.6874 -1.2731  0.0533
28424WAT    EPW15503  -0.457   2.285   1.634 -0.6402 -0.8943 -0.3529
28425WAT      O15504  -1.657   0.136   4.144 -0.2015  0.2458 -0.0578
28425WAT     H115505  -1.665   0.232   4.143 -1.0801  0.1748 -1.0485
28425WAT     H215506  -1.592   0.119   4.212  0.1987  1.5627 -0.0767
28425WAT    EPW15507  -1.650   0.147   4.153 -0.2646  0.4101 -0.1912
28426WAT      O15508   2.389   7.780   4.485 -0.4157 -0.5536  0.0116
28426WAT     H115509   2.343   7.735   4.556 -0.5012  0.2195  0.4631
28426WAT     H215510   2.331   7.852   4.461  0.7931  0.8143  1.0087
28426WAT    EPW15511   2.376   7.784   4.492 -0.2674 -0.2708  0.2027
28427WAT      O15512   0.507   5.939   3.404  0.1458 -0.7420  0.6467
28427WAT     H115513   0.591   5.956   3.360 -0.0923  1.7991  1.0548
28427WAT     H215514   0.519   5.852   3.443  2.8493 -0.2134  1.2450
28427WAT    EPW15515   0.520   5.930   3.403  0.4710 -0.3371  0.7794
28428WAT      O15516  -0.119   3.833   8.456 -0.3146 -0.4260 -0.3596
28428WAT     H115517  -0.169   3.898   8.408 -0.1757  1.2534  1.6166
28428WAT     H215518  -0.185   3.776   8.495 -0.8076  1.4272  1.7461
28428WAT    EPW15519  -0.134   3.834   8.455 -0.3613  0.0399  0.1788
28429WAT      O15520  -5.165  10.114   6.015  0.5092  0.3795 -0.2785
28429WAT     H115521  -5.086  10.167   6.005  1.0519 -0.5734 -1.2189
28429WAT     H215522  -5.186  10.085   5.926 -0.2580 -0.2826  0.1091
28429WAT    EPW15523  -5.157  10.117   6.002  0.4795  0.1664 -0.3514
28430WAT      O15524   4.396   6.543   0.035  0.5614  0.0912 -0.1307
28430WAT     H115525   4.396   6.617  -0.026  0.4038 -2.0158 -2.8602
28430WAT     H215526   4.473   6.492   0.010  0.6202 -0.7626  1.6453
28430WAT    EPW15527   4.406   6.546   0.024  0.5483 -0.2993 -0.2565
28431WAT      O15528  -0.520   8.937   5.980 -0.3983 -0.2360 -0.3934
28431WAT     H115529  -0.431   8.965   6.002 -0.5880  2.9655 -2.9326
28431WAT     H215530  -0.510   8.845   5.954  1.3945 -1.1486  2.9434
28431WAT    EPW15531  -0.507   8.929   5.980 -0.1869  0.0663 -0.2882
28432WAT      O15532  -7.096  10.114   7.556  0.5519 -0.3748 -0.1692
28432WAT     H115533  -7.117  10.069   7.638 -0.8535 -1.6189 -1.1707
28432WAT     H215534  -7.135  10.201   7.566 -0.0621 -0.6919  0.2692
28432WAT    EPW15535  -7.104  10.120   7.568  0.2856 -0.5808 -0.2437
28433WAT      O15536   3.430   5.500   6.278  0.4789 -0.6329 -0.0081
28433WAT     H115537   3.435   5.534   6.367  1.2597 -1.9421  0.4772
28433WAT     H215538   3.397   5.411   6.288 -0.0931 -0.5603 -1.1026
28433WAT    EPW15539   3.426   5.493   6.291  0.5064 -0.7958 -0.0882
28434WAT      O15540   0.126  10.190   5.415  0.7721 -0.4543 -0.1417
28434WAT     H115541   0.110  10.245   5.491  2.6099  1.0071 -0.7242
28434WAT     H215542   0.114  10.249   5.340  3.7139 -0.4679 -0.7606
28434WAT    EPW15543   0.122  10.205   5.415  1.4025 -0.2632 -0.3002
28435WAT      O15544  -5.781   5.957   8.872  0.7322 -0.2319 -0.5897
28435WAT     H115545  -5.694   5.927   8.898  0.4899 -2.3021 -1.8974
28435WAT     H215546  -5.842   5.898   8.917  0.0844  0.0927 -1.0124
28435WAT    EPW15547  -5.778   5.946   8.881  0.6149 -0.4621 -0.8178
28436WAT      O15548  -4.043   9.833   3.146  0.5007  0.3078 -0.0048
28436WAT     H115549  -4.087   9.891   3.083  1.2874  1.4541  0.4745
28436WAT     H215550  -4.113   9.806   3.206  0.1841  1.0255 -0.0445
28436WAT    EPW15551  -4.058   9.837   3.146  0.5627  0.5541  0.0532
28437WAT      O15552   3.041   6.579   5.736 -0.1290  0.0929  0.1547
28437WAT     H115553   3.003   6.636   5.669 -0.9733 -0.4505  0.1643
28437WAT     H215554   3.114   6.536   5.691 -0.5718 -0.1225 -0.3708
28437WAT    EPW15555   3.046   6.581   5.721 -0.2987 -0.0069  0.0868
28438WAT      O15556   0.237   7.424   3.472  0.0440 -0.0979  0.1516
28438WAT     H115557   0.290   7.447   3.548 -0.0437 -0.6197  0.3762
28438WAT     H215558   0.152   7.466   3.487  0.3253  0.5837 -0.1186
28438WAT    EPW15559   0.233   7.432   3.484  0.0696 -0.0768  0.1457
28439WAT      O15560  -3.702   0.232   8.976  0.3005  0.2188  0.2747
28439WAT     H115561  -3.639   0.182   9.028  1.3319  0.5812 -0.6038
28439WAT     H215562  -3.698   0.193   8.889  0.8659  1.5732 -0.3333
28439WAT    EPW15563  -3.693   0.221   8.972  0.5112  0.4453  0.0787
28440WAT      O15564   4.669   7.838   5.744 -0.1032 -0.1917 -0.5796
28440WAT     H115565   4.691   7.789   5.665 -1.5608  0.4895 -1.4489
28440WAT     H215566   4.754   7.861   5.782  0.7669 -4.5331  0.7135
28440WAT    EPW15567   4.683   7.835   5.738 -0.1805 -0.6745 -0.5236
28441WAT      O15568   2.909   8.554   2.743  0.0597  0.2056  0.1611
28441WAT     H115569   2.905   8.631   2.800 -1.7461  1.7708 -1.9145
28441WAT     H215570   2.819   8.521   2.742 -0.0760  0.5263 -2.1054
28441WAT    EPW15571   2.897   8.559   2.751 -0.1963  0.4544 -0.4116
28442WAT      O15572   1.172   0.729   4.975 -0.3349  0.9474 -0.8869
28442WAT     H115573   1.091   0.722   5.025  0.6190 -1.2584  0.5016
28442WAT     H215574   1.241   0.719   5.040  0.9634 -1.2494 -2.4668
28442WAT    EPW15575   1.170   0.727   4.990 -0.0379  0.3667 -0.9122
28443WAT      O15576   3.849   9.155   5.040  0.3288  0.2826  0.0658
28443WAT     H115577   3.810   9.204   5.112 -0.8948  0.0099 -0.3849
28443WAT     H215578   3.832   9.208   4.962 -1.1653 -0.8788 -0.4587
28443WAT    EPW15579   3.842   9.168   5.039 -0.0297  0.0939 -0.0629
28444WAT      O15580   1.303   0.908   4.777 -0.8791 -0.1213  0.3670
28444WAT     H115581   1.259   0.852   4.714 -0.6912 -0.4011  0.4846
28444WAT     H215582   1.270   0.879   4.862 -1.1327  0.2538  0.3997
28444WAT    EPW15583   1.293   0.897   4.780 -0.8878 -0.1087  0.3870
28445WAT      O15584  -5.339   3.688   6.851  0.0279 -0.2695  0.2066
28445WAT     H115585  -5.420   3.642   6.875  0.4201  0.0323  2.3393
28445WAT     H215586  -5.281   3.674   6.926  1.7961 -0.0750 -1.0745
28445WAT    EPW15587  -5.342   3.680   6.864  0.3128 -0.2040  0.3188
28446WAT      O15588   0.629   6.267   5.385 -0.3661 -0.2027  0.1942
28446WAT     H115589   0.668   6.204   5.325  1.9214  0.0325  1.3016
28446WAT     H215590   0.704   6.309   5.427 -1.8496  1.5386  1.2512
28446WAT    EPW15591   0.644   6.264   5.383 -0.2600  0.0577  0.4797
28447WAT      O15592   3.344   3.710   2.849 -0.7011  0.5581 -0.1427
28447WAT     H115593   3.253   3.711   2.877 -0.8344  0.4848 -0.5625
28447WAT     H215594   3.341   3.729   2.756 -0.3503 -0.1938 -0.3210
28447WAT    EPW15595   3.332   3.713   2.841 -0.6723  0.4492 -0.2215
28448WAT      O15596  -3.538   8.433   1.478 -0.1890 -0.8236 -0.5508
28448WAT     H115597  -3.603   8.391   1.534  0.5842  0.4962  1.4559
28448WAT     H215598  -3.568   8.416   1.389 -3.1667 -0.4099  0.2767
28448WAT    EPW15599  -3.550   8.425   1.473 -0.4798 -0.5951 -0.1770
28449WAT      O15600   0.007   8.154   6.471  0.0168  0.0478 -0.4543
28449WAT     H115601   0.049   8.152   6.558  0.2595 -1.2274 -0.5757
28449WAT     H215602   0.004   8.247   6.448  2.2663  0.2587 -0.1755
28449WAT    EPW15603   0.012   8.166   6.480  0.3455 -0.0925 -0.4334
28450WAT      O15604  -4.578   8.455   5.247  0.7443  0.1942  0.0563
28450WAT     H115605  -4.628   8.382   5.283  1.6228 -0.1340  0.6317
28450WAT     H215606  -4.641   8.502   5.192 -0.2314 -0.1262  0.8777
28450WAT    EPW15607  -4.593   8.452   5.244  0.7315  0.1087  0.2406
28451WAT      O15608  -2.853   7.998   7.895  0.7856 -0.1051  0.0262
28451WAT     H115609  -2.850   7.903   7.882  0.4842  0.0592 -1.4218
28451WAT     H215610  -2.917   8.011   7.965  1.2802 -0.9856  0.6653
28451WAT    EPW15611  -2.861   7.987   7.903  0.8111 -0.1996 -0.0806
28452WAT      O15612   4.021   8.494   5.935  0.1936 -0.4849 -0.3651
28452WAT     H115613   4.062   8.572   5.899 -0.8873  1.6347  2.5712
28452WAT     H215614   4.094   8.433   5.950  1.6357  1.3324  0.4057
28452WAT    EPW15615   4.036   8.496   5.932  0.2413  0.0343  0.1240
28453WAT      O15616   2.277   5.288   5.335 -0.0595 -0.9930  0.4211
28453WAT     H115617   2.234   5.211   5.373 -2.0179 -0.9936 -1.5937
28453WAT     H215618   2.239   5.362   5.381 -0.5886 -1.0954  0.1522
28453WAT    EPW15619   2.267   5.287   5.346 -0.3875 -1.0066  0.1199
28454WAT      O15620   3.044   0.220   4.154  0.2420  0.2661  0.1647
28454WAT     H115621   2.969   0.164   4.135  0.7062 -0.0511 -0.7944
28454WAT     H215622   3.079   0.243   4.068  2.0598 -0.6951  0.5933
28454WAT    EPW15623   3.039   0.216   4.140  0.5430  0.0975  0.0947
28455WAT      O15624  -1.893   2.560   6.068  0.0569  0.3575 -0.0359
28455WAT     H115625  -1.840   2.625   6.112  0.5122 -0.6890  1.0205
28455WAT     H215626  -1.938   2.514   6.139  1.7803 -2.2218 -0.4836
28455WAT    EPW15627  -1.892   2.562   6.083  0.3442 -0.1208  0.0443
28456WAT      O15628   3.930   0.230   7.292  0.7059 -0.0386  0.8916
28456WAT     H115629   3.932   0.320   7.257 -1.6943 -0.7262 -1.3177
28456WAT     H215630   4.000   0.185   7.245 -0.9957 -0.3600 -1.5223
28456WAT    EPW15631   3.939   0.236   7.281  0.1649 -0.1717  0.2816
28457WAT      O15632  -1.562   4.599   0.184  0.1117 -0.1074  0.1052
28457WAT     H115633  -1.473   4.591   0.151  0.6175  0.6874  1.1913
28457WAT     H215634  -1.599   4.673   0.137 -0.4035 -1.1422 -1.1850
28457WAT    EPW15635  -1.556   4.607   0.174  0.1104 -0.1392  0.0783
28458WAT      O15636   4.718   7.187   3.217 -0.0219 -0.4358  0.4049
28458WAT     H115637   4.663   7.112   3.240  1.6590 -1.8967 -0.1127
28458WAT     H215638   4.720   7.187   3.121 -0.0220  0.2926  0.3992
28458WAT    EPW15639   4.711   7.177   3.207  0.1998 -0.5324  0.3359
28459WAT      O15640  -6.469   7.116   7.305  0.4227  0.3984  0.9143
28459WAT     H115641  -6.420   7.117   7.387 -0.1218 -0.2127  1.2449
28459WAT     H215642  -6.440   7.037   7.260  0.0980  0.2906  0.8921
28459WAT    EPW15643  -6.459   7.106   7.310  0.3080  0.3035  0.9551
28460WAT      O15644   5.417   0.061   0.045  0.0967 -0.3642 -0.3545
28460WAT     H115645   5.386   0.091  -0.041 -0.2158  0.9641  0.1900
28460WAT     H215646   5.435   0.142   0.093 -0.1492 -1.0844  0.9855
28460WAT    EPW15647   5.415   0.076   0.040  0.0231 -0.2840 -0.1059
28461WAT      O15648   1.714   6.377   7.389 -0.3885  0.6515 -0.5713
28461WAT     H115649   1.680   6.302   7.437 -0.4136  1.7089  1.1284
28461WAT     H215650   1.642   6.441   7.391  1.2616  2.6721  2.5279
28461WAT    EPW15651   1.700   6.376   7.396 -0.1742  1.0576  0.0618
28462WAT      O15652   6.982   0.485   0.981  0.0896  0.3280  0.2317
28462WAT     H115653   7.069   0.520   0.965  0.9587 -0.8829  1.8924
28462WAT     H215654   6.979   0.404   0.931 -0.1734  0.4908 -0.0168
28462WAT    EPW15655   6.993   0.479   0.973  0.1695  0.1898  0.4180
28463WAT      O15656   0.793   4.426   1.541 -1.0023  0.0904  0.2971
28463WAT     H115657   0.842   4.476   1.606  1.3913  0.5591 -1.7185
28463WAT     H215658   0.838   4.342   1.536 -2.0700 -0.4951  0.2660
28463WAT    EPW15659   0.806   4.422   1.548 -0.8274  0.0749  0.0271
28464WAT      O15660   4.750   2.583   0.660 -0.1112 -0.4589 -0.1601
28464WAT     H115661   4.683   2.554   0.598 -0.8514 -0.4475  0.6172
28464WAT     H215662   4.742   2.679   0.661 -0.4912 -0.4917  0.3695
28464WAT    EPW15663   4.740   2.592   0.652 -0.2589 -0.4617  0.0122
28465WAT      O15664  -0.219  10.268   0.308 -1.7309  0.2341  0.6698
28465WAT     H115665  -0.222  10.325   0.385  3.1255  2.1102 -0.1646
28465WAT     H215666  -0.265  10.317   0.240  0.3786  2.3145  0.5953
28465WAT    EPW15667  -0.225  10.282   0.309 -0.8121  0.7563  0.5499
28466WAT      O15668   2.327   4.657   6.212 -0.2286 -0.2253 -0.9050
28466WAT     H115669   2.235   4.631   6.219  0.0207 -0.7418  1.1888
28466WAT     H215670   2.374   4.575   6.197 -0.0305 -0.0802 -1.0890
28466WAT    EPW15671   2.321   4.643   6.211 -0.1696 -0.2742 -0.6530
28467WAT      O15672   1.120   7.464   7.370 -0.0866  0.3350  1.0312
28467WAT     H115673   1.141   7.419   7.452 -1.7210  1.2598  2.0042
28467WAT     H215674   1.081   7.547   7.397  0.8733  1.4137 -0.7186
28467WAT    EPW15675   1.117   7.469   7.384 -0.1756  0.5991  0.9286
28468WAT      O15676   1.541   3.596   1.984  0.8051  0.5520 -0.1519
28468WAT     H115677   1.504   3.621   1.900 -0.8568 -0.8514  0.1002
28468WAT     H215678   1.590   3.516   1.967  1.1402  0.7017  0.0833
28468WAT    EPW15679   1.542   3.589   1.971  0.6301  0.3866 -0.0876
28469WAT      O15680   0.443   3.317   5.459  0.6550 -0.0013  0.0525
28469WAT     H115681   0.365   3.372   5.463  0.1241 -0.7639  0.5971
28469WAT     H215682   0.458   3.303   5.366 -1.6637 -2.2771 -0.0877
28469WAT    EPW15683   0.435   3.322   5.447  0.2791 -0.4020  0.1059
28470WAT      O15684   0.327   4.002   3.714  0.2510 -0.2467 -0.0451
28470WAT     H115685   0.404   3.986   3.770  0.1124  0.8364  0.4714
28470WAT     H215686   0.256   4.021   3.775 -0.3237 -0.7483 -0.5410
28470WAT    EPW15687   0.328   4.002   3.729  0.1569 -0.1700 -0.0424
28471WAT      O15688  -3.400   0.101   7.504 -0.1319  0.5880  0.2509
28471WAT     H115689  -3.403   0.196   7.506 -0.7287  0.6036 -0.6547
28471WAT     H215690  -3.396   0.074   7.596  1.6889  1.5129  0.4955
28471WAT    EPW15691  -3.400   0.110   7.516  0.0296  0.7120  0.1638
28472WAT      O15692   3.394   7.820   7.138 -0.3500  0.1531  0.2904
28472WAT     H115693   3.362   7.747   7.192 -1.5833  0.5371  0.1176
28472WAT     H215694   3.315   7.853   7.094  0.1823  1.6216  0.3910
28472WAT    EPW15695   3.379   7.815   7.139 -0.4425  0.3974  0.2809
28473WAT      O15696  -0.296   2.641   8.741 -0.0837 -0.0292 -0.3105
28473WAT     H115697  -0.308   2.709   8.808 -0.4860 -1.2735  0.9377
28473WAT     H215698  -0.342   2.674   8.665 -1.7239  0.3665  0.8022
28473WAT    EPW15699  -0.303   2.655   8.740 -0.3531 -0.1411  0.0010
28474WAT      O15700  -5.025   1.220   8.941 -0.3439 -0.0542 -0.0068
28474WAT     H115701  -4.976   1.161   8.997  0.9820 -0.2523 -1.3107
28474WAT     H215702  -5.045   1.169   8.863 -2.1757  0.2057  0.2472
28474WAT    EPW15703  -5.021   1.206   8.938 -0.4106 -0.0461 -0.1454
28475WAT      O15704  -3.358   2.103   7.577  0.2495 -0.1229 -0.8295
28475WAT     H115705  -3.335   2.180   7.525  1.0122  0.1964 -0.0520
28475WAT     H215706  -3.445   2.123   7.611  0.6532  0.6693 -0.1968
28475WAT    EPW15707  -3.366   2.116   7.575  0.4034  0.0236 -0.6435
28476WAT      O15708   5.813   0.775   2.966  0.3063  0.0171 -0.2915
28476WAT     H115709   5.905   0.750   2.965  0.5655  0.9233 -0.1561
28476WAT     H215710   5.788   0.774   3.059  0.2875  0.1269 -0.2942
28476WAT    EPW15711   5.822   0.772   2.978  0.3381  0.1511 -0.2739
28477WAT      O15712  -3.805   9.356   7.301  0.1972 -0.1691  0.5251
28477WAT     H115713  -3.873   9.422   7.282 -0.1365  0.3571  3.1918
28477WAT     H215714  -3.817   9.290   7.233 -0.5537  1.6908 -1.2663
28477WAT    EPW15715  -3.816   9.356   7.289  0.0541  0.1454  0.6406
28478WAT      O15716  10.344   0.540   0.301  0.3229  0.2879 -0.7057
28478WAT     H115717  10.328   0.598   0.227 -0.3017 -0.3402 -1.0821
28478WAT     H215718  10.349   0.597   0.377 -1.2304  0.7651 -0.9290
28478WAT    EPW15719  10.343   0.555   0.301  0.0358  0.2680 -0.7848
28479WAT      O15720   2.199   9.985   6.608  0.6954  0.1603 -0.3084
28479WAT     H115721   2.133   9.964   6.542 -0.3064 -0.1497  0.7602
28479WAT     H215722   2.151   9.983   6.691  1.9908  0.2270  0.4633
28479WAT    EPW15723   2.184   9.982   6.610  0.7342  0.1283 -0.0656
28480WAT      O15724   0.666   2.411   4.622 -0.7979  0.5609  0.4027
28480WAT     H115725   0.726   2.384   4.553  0.1090  2.1316  0.5583
28480WAT     H215726   0.601   2.340   4.625 -1.0689  0.5795 -2.2655
28480WAT    EPW15727   0.665   2.398   4.613 -0.7141  0.7704  0.0713
28481WAT      O15728  -0.274   7.227   4.635 -0.6364 -0.1952 -0.3246
28481WAT     H115729  -0.279   7.131   4.631  0.3098 -0.2726  0.0718
28481WAT     H215730  -0.214   7.245   4.706 -1.7854  0.7436  0.4433
28481WAT    EPW15731  -0.267   7.217   4.644 -0.6632 -0.0815 -0.1712
28482WAT      O15732   1.354   8.624   7.367 -0.0284 -0.4511  0.6471
28482WAT     H115733   1.331   8.611   7.275  2.1403  0.1970 -0.0626
28482WAT     H215734   1.276   8.661   7.406 -0.1330  2.1389 -1.6682
28482WAT    EPW15735   1.341   8.627   7.360  0.2438 -0.0238  0.2482
28483WAT      O15736  -0.610   4.435   0.482  0.3415 -0.0793 -0.4924
28483WAT     H115737  -0.544   4.475   0.538 -0.9588 -0.3070  1.2925
28483WAT     H215738  -0.691   4.482   0.503 -0.7713 -2.1000  0.0272
28483WAT    EPW15739  -0.612   4.446   0.492  0.0233 -0.3760 -0.1885
28484WAT      O15740   4.312   1.565   0.949  0.0121 -0.2302 -0.5449
28484WAT     H115741   4.330   1.651   0.911 -0.7549  0.5280  0.7345
28484WAT     H215742   4.219   1.569   0.974  0.6622 -0.3438  2.1625
28484WAT    EPW15743   4.302   1.577   0.948 -0.0033 -0.1452 -0.0191
28485WAT      O15744  -0.539   3.529   4.081  0.5428 -0.2183  0.0291
28485WAT     H115745  -0.552   3.454   4.139 -2.3388 -0.1841 -0.4304
28485WAT     H215746  -0.529   3.604   4.140 -2.5866 -0.1380  0.6379
28485WAT    EPW15747  -0.539   3.529   4.096 -0.2500 -0.2033  0.0489
28486WAT      O15748  -5.200   0.965   8.429  0.0746  0.0722 -0.4358
28486WAT     H115749  -5.210   0.918   8.346  1.5706 -2.8634  0.9077
28486WAT     H215750  -5.125   1.022   8.415 -0.7721  0.9662 -1.5967
28486WAT    EPW15751  -5.191   0.967   8.416  0.1602 -0.1971 -0.4115
28487WAT      O15752  -0.185   2.128   6.789 -0.6327  0.5994 -0.3671
28487WAT     H115753  -0.094   2.119   6.818 -0.7490  1.7512  0.3806
28487WAT     H215754  -0.217   2.037   6.783  0.5944  0.1745 -0.8008
28487WAT    EPW15755  -0.177   2.115   6.792 -0.4862  0.6955 -0.3257
28488WAT      O15756   2.538   6.655   0.077  0.1880  0.0931 -0.9890
28488WAT     H115757   2.627   6.685   0.057  0.5393  0.2206  0.6584
28488WAT     H215758   2.539   6.562   0.054  0.1616  0.4927 -2.7483
28488WAT    EPW15759   2.550   6.647   0.071  0.2308  0.1626 -1.0038
28489WAT      O15760  -1.605   6.623   1.407 -0.3210  0.6783  0.4024
28489WAT     H115761  -1.643   6.535   1.407  1.2749 -0.0562  0.5972
28489WAT     H215762  -1.556   6.628   1.488  0.8243  1.1770 -0.2926
28489WAT    EPW15763  -1.603   6.612   1.417  0.0405  0.6473  0.3364
28490WAT      O15764  -2.602   9.429   0.841  0.1726 -0.1072  0.1513
28490WAT     H115765  -2.570   9.386   0.762 -0.5765  2.4715 -1.7026
28490WAT     H215766  -2.638   9.512   0.810 -0.8188  0.7176  3.1451
28490WAT    EPW15767  -2.603   9.435   0.827 -0.0569  0.3419  0.3017
28491WAT      O15768  -1.031   5.430   8.507 -0.0880 -0.5577  0.1523
28491WAT     H115769  -1.119   5.466   8.511  0.1528  0.3664 -1.7645
28491WAT     H215770  -1.021   5.398   8.418  1.1999 -1.5213  0.6002
28491WAT    EPW15771  -1.041   5.431   8.496  0.1135 -0.5629 -0.0415
28492WAT      O15772  -1.169   6.941   4.982 -0.1979 -0.5144 -0.3852
28492WAT     H115773  -1.154   6.847   4.972 -0.2640 -0.7535  1.5042
28492WAT     H215774  -1.089   6.975   5.021  0.2301  0.4290 -1.9780
28492WAT    EPW15775  -1.157   6.933   4.986 -0.1501 -0.4215 -0.3462
28493WAT      O15776  -0.773  10.294   0.002 -0.0122  0.2977 -0.4039
28493WAT     H115777  -0.843  10.255   0.053 -0.7365  1.6627 -0.3143
28493WAT     H215778  -0.693  10.275   0.052 -0.2273 -1.5602 -0.6852
28493WAT    EPW15779  -0.771  10.286   0.015 -0.1361  0.2327 -0.4292
28494WAT      O15780   3.426   1.512   3.447  1.0234  0.3646  0.3943
28494WAT     H115781   3.377   1.523   3.528  0.4668  0.4672  0.0507
28494WAT     H215782   3.443   1.418   3.441  2.9178  0.5750  1.6835
28494WAT    EPW15783   3.421   1.501   3.457  1.2000  0.4059  0.5190
28495WAT      O15784   2.902   9.324   4.568 -0.1312 -0.0330  0.0730
28495WAT     H115785   2.859   9.238   4.572  2.4859 -1.6944 -2.6958
28495WAT     H215786   2.985   9.307   4.523  0.9615  3.8552  0.2378
28495WAT    EPW15787   2.908   9.310   4.563  0.3581  0.2608 -0.2701
28496WAT      O15788   1.654   0.268   8.654  0.0657  0.3786 -0.7533
28496WAT     H115789   1.581   0.254   8.594  0.5948  1.1695 -1.6139
28496WAT     H215790   1.618   0.321   8.725 -0.7679 -1.2446  0.0796
28496WAT    EPW15791   1.640   0.273   8.656  0.0255  0.2688 -0.7567
28497WAT      O15792  -8.267   9.710   8.913 -0.4134 -0.4368  0.8402
28497WAT     H115793  -8.182   9.744   8.941 -0.2981 -1.9156  2.4649
28497WAT     H215794  -8.248   9.622   8.880 -1.3974 -1.1656  2.1219
28497WAT    EPW15795  -8.253   9.703   8.912 -0.5279 -0.7277  1.2231
28498WAT      O15796   3.596   0.643   3.330 -0.3115 -0.1032 -0.4476
28498WAT     H115797   3.519   0.598   3.366 -0.2392 -0.1212 -0.3125
28498WAT     H215798   3.631   0.693   3.404 -1.3728  1.5593 -1.0095
28498WAT    EPW15799   3.590   0.644   3.345 -0.4419  0.1137 -0.5039
28499WAT      O15800   2.303   6.031   4.571 -0.3423  0.3891  0.3607
28499WAT     H115801   2.238   5.971   4.535  2.0401 -1.3636 -1.3338
28499WAT     H215802   2.307   6.010   4.665 -0.5144 -1.1619  0.0337
28499WAT    EPW15803   2.295   6.020   4.579 -0.0508 -0.0465  0.0939
28500WAT      O15804  -4.283   7.769   5.636  0.2971 -0.1509 -0.3296
28500WAT     H115805  -4.207   7.734   5.682  0.5272 -0.8160 -1.1760
28500WAT     H215806  -4.356   7.716   5.666  0.2544  0.1484  0.0986
28500WAT    EPW15807  -4.283   7.757   5.646  0.3216 -0.1993 -0.3848
28501WAT      O15808   6.010   0.300   0.715 -0.1926  0.3194  0.6513
28501WAT     H115809   6.045   0.228   0.663 -1.0689  0.9417 -0.8835
28501WAT     H215810   6.087   0.342   0.753  0.3569 -1.1631  1.2825
28501WAT    EPW15811   6.024   0.296   0.713 -0.2358  0.2059  0.5321
28502WAT      O15812   3.862   8.727   5.604  0.2262 -0.4363  0.3871
28502WAT     H115813   3.849   8.670   5.529  0.0486  0.1787 -0.0583
28502WAT     H215814   3.796   8.699   5.667  0.5067 -1.0853  0.3973
28502WAT    EPW15815   3.852   8.716   5.602  0.2397 -0.4406  0.3297
28503WAT      O15816  -0.257   7.960   2.696 -0.1145 -0.2747  0.5098
28503WAT     H115817  -0.205   7.939   2.773 -2.0098  0.7976  2.1609
28503WAT     H215818  -0.295   7.876   2.669  2.3716 -1.1024 -0.7906
28503WAT    EPW15819  -0.255   7.946   2.702 -0.0366 -0.2422  0.5561
28504WAT      O15820  -1.096   5.042   2.414 -0.0780  0.2360  0.3500
28504WAT     H115821  -1.120   4.950   2.423  1.9322 -0.3492  0.3659
28504WAT     H215822  -1.172   5.091   2.446 -0.5840 -1.4423  1.8694
28504WAT    EPW15823  -1.109   5.037   2.420  0.1204 -0.0627  0.5525
28505WAT      O15824   5.707   1.973   2.507 -0.5669  0.2857 -0.2494
28505WAT     H115825   5.765   2.047   2.491  0.2682 -0.1810  0.5675
28505WAT     H215826   5.657   1.998   2.585 -1.4662  0.6785 -0.9379
28505WAT    EPW15827   5.708   1.986   2.515 -0.5755  0.2760 -0.2325
28506WAT      O15828   1.887   5.525   2.848 -0.4034  0.9058  0.3865
28506WAT     H115829   1.837   5.485   2.920  1.4580 -1.7663  0.3764
28506WAT     H215830   1.964   5.562   2.892 -0.1618  0.8960 -0.0311
28506WAT    EPW15831   1.890   5.524   2.864 -0.1261  0.5519  0.3301
28507WAT      O15832  -1.096   0.403   3.041  0.1757  0.0251  0.5111
28507WAT     H115833  -1.026   0.338   3.033  0.0650 -0.0341 -0.0363
28507WAT     H215834  -1.062   0.480   2.996 -0.5573 -0.3857 -0.7958
28507WAT    EPW15835  -1.082   0.405   3.034  0.0644 -0.0369  0.2667
28508WAT      O15836   4.843  10.112   1.013 -0.3671 -0.1690  0.6935
28508WAT     H115837   4.864  10.102   0.921 -2.0384 -0.9237  0.3481
28508WAT     H215838   4.861  10.026   1.052  0.1125  0.0795  1.0313
28508WAT    EPW15839   4.848  10.099   1.006 -0.5243 -0.2356  0.6925
28509WAT      O15840   4.000   1.934   0.940 -0.1836  0.3352 -0.3506
28509WAT     H115841   4.019   1.855   0.890  1.2651  0.3058  0.1952
28509WAT     H215842   3.920   1.969   0.901 -0.8071 -1.3452 -0.6532
28509WAT    EPW15843   3.992   1.929   0.928 -0.0746  0.1097 -0.3185
28510WAT      O15844   0.469   9.881   7.599  0.1817 -0.1761 -0.2663
28510WAT     H115845   0.418   9.953   7.561  0.8369  0.1979 -0.4646
28510WAT     H215846   0.455   9.889   7.694  0.0827  0.0869 -0.3018
28510WAT    EPW15847   0.461   9.892   7.607  0.2550 -0.0920 -0.2971
28511WAT      O15848   3.017   0.589   5.564 -0.7607 -0.5903 -0.7120
28511WAT     H115849   2.962   0.609   5.640  0.4844  2.0370 -0.3675
28511WAT     H215850   2.956   0.586   5.491 -1.6072  0.5460 -0.0998
28511WAT    EPW15851   3.002   0.592   5.565 -0.7082 -0.0939 -0.5858
28512WAT      O15852  -0.446   3.208   0.863  0.1529  0.3842  0.8000
28512WAT     H115853  -0.426   3.115   0.849  0.2240  0.4347  0.5555
28512WAT     H215854  -0.391   3.254   0.799 -1.0392  0.5012 -0.1706
28512WAT    EPW15855  -0.436   3.202   0.853  0.0050  0.4063  0.6398
28513WAT      O15856  -0.094   3.889   7.549  0.4410 -0.2013 -0.1815
28513WAT     H115857  -0.013   3.929   7.580 -0.1620  0.2023  0.9695
28513WAT     H215858  -0.161   3.923   7.609 -0.2854 -1.9822  0.0617
28513WAT    EPW15859  -0.092   3.899   7.561  0.2656 -0.3830  0.0024
28514WAT      O15860  -1.550   3.754   4.539 -0.0171  0.4055  0.3565
28514WAT     H115861  -1.534   3.661   4.526 -2.5542  0.0924 -1.1904
28514WAT     H215862  -1.482   3.782   4.601  1.5635 -2.1642 -0.0759
28514WAT    EPW15863  -1.539   3.746   4.545 -0.1433  0.0253  0.0954
28515WAT      O15864  -1.997   8.634   0.160  0.2588 -0.0413 -0.5860
28515WAT     H115865  -1.941   8.585   0.099 -1.3523 -0.7837 -1.5333
28515WAT     H215866  -1.957   8.620   0.246  2.2140  0.4961 -1.3661
28515WAT    EPW15867  -1.984   8.626   0.163  0.3042 -0.0682 -0.8138
28516WAT      O15868  -1.530   0.139   5.463  0.2668 -0.3822 -0.1277
28516WAT     H115869  -1.599   0.081   5.494  1.5584 -0.8642  2.1107
28516WAT     H215870  -1.469   0.082   5.416  0.7644 -0.6055  0.7564
28516WAT    EPW15871  -1.531   0.124   5.461  0.5029 -0.4752  0.2842
28517WAT      O15872   6.752   4.085   1.424  0.4545 -0.8983  0.2462
28517WAT     H115873   6.776   4.177   1.416 -1.5375 -0.3783 -0.5456
28517WAT     H215874   6.706   4.065   1.342 -1.6500 -1.7419  1.5225
28517WAT    EPW15875   6.749   4.094   1.412 -0.0858 -0.9408  0.3101
28518WAT      O15876  -0.513   5.629   2.956  0.1478  0.2552 -0.4413
28518WAT     H115877  -0.535   5.541   2.926  0.0003  0.3018 -0.4715
28518WAT     H215878  -0.473   5.616   3.042  0.8200  0.0958 -0.7677
28518WAT    EPW15879  -0.510   5.616   2.963  0.2170  0.2401 -0.4883
28519WAT      O15880   5.061   0.617   7.781 -0.4782 -0.0977  0.4793
28519WAT     H115881   4.986   0.658   7.737 -1.0052 -1.2988  0.1982
28519WAT     H215882   5.080   0.674   7.855 -1.6150  0.2923  0.4906
28519WAT    EPW15883   5.053   0.630   7.785 -0.6979 -0.2047  0.4439
28520WAT      O15884   6.063   0.720   5.311  0.0533 -0.4273  0.3599
28520WAT     H115885   6.157   0.698   5.312  0.5836  1.5938  1.4061
28520WAT     H215886   6.042   0.733   5.219  1.0032 -0.2296  0.1557
28520WAT    EPW15887   6.073   0.719   5.299  0.2484 -0.1347  0.4711
28521WAT      O15888   0.623   4.870   6.822 -0.0974 -0.6107  0.1302
28521WAT     H115889   0.555   4.923   6.783 -2.1137 -2.2876  1.1390
28521WAT     H215890   0.650   4.810   6.753  2.7718  2.0121 -1.2747
28521WAT    EPW15891   0.618   4.869   6.808  0.0151 -0.4861  0.0782
28522WAT      O15892  -2.366   9.530   6.520  0.0519  0.1066 -0.9391
28522WAT     H115893  -2.461   9.518   6.513 -0.0614 -3.0061  2.5587
28522WAT     H215894  -2.355   9.624   6.532 -2.7636  0.4247 -0.0816
28522WAT    EPW15895  -2.377   9.541   6.521 -0.3344 -0.2618 -0.3648
28523WAT      O15896   3.614   0.815   7.981 -0.4376  1.1576  0.4343
28523WAT     H115897   3.644   0.898   7.943  2.0753  0.1454  0.0693
28523WAT     H215898   3.542   0.788   7.924 -0.3396  2.3786 -0.3046
28523WAT    EPW15899   3.608   0.822   7.969 -0.0933  1.1851  0.2887
28524WAT      O15900  -2.994   8.234   2.270  0.2698 -0.4726  0.0738
28524WAT     H115901  -3.083   8.200   2.256  0.3892 -0.5100 -0.6266
28524WAT     H215902  -2.981   8.297   2.199  1.5771 -2.0194 -1.1267
28524WAT    EPW15903  -3.004   8.238   2.259  0.4579 -0.6819 -0.1769
28525WAT      O15904   1.216   9.023   6.460 -0.2391  0.7936 -0.4701
28525WAT     H115905   1.214   8.990   6.550 -2.5645  1.8859 -0.0392
28525WAT     H215906   1.124   9.036   6.437  0.3476  1.5788 -2.6270
28525WAT    EPW15907   1.204   9.021   6.469 -0.4684  1.0414 -0.6979
28526WAT      O15908   5.730   1.636   5.774  0.0476  0.2146  0.2240
28526WAT     H115909   5.780   1.609   5.697  0.4309  1.1359  0.1348
28526WAT     H215910   5.760   1.726   5.792  0.9181 -0.4039  2.1992
28526WAT    EPW15911   5.741   1.644   5.766  0.2127  0.2546  0.4728
28527WAT      O15912  -0.710   1.246   1.482 -0.2337 -0.4030  0.8253
28527WAT     H115913  -0.642   1.203   1.431  0.6794  0.1170  1.5776
28527WAT     H215914  -0.763   1.174   1.517  0.0925 -0.8232  0.4661
28527WAT    EPW15915  -0.708   1.231   1.480 -0.0703 -0.3898  0.8771
28528WAT      O15916  -0.988   8.565   0.859 -0.1748 -0.1682  0.0943
28528WAT     H115917  -1.083   8.557   0.855 -0.1075 -0.4693 -1.2508
28528WAT     H215918  -0.958   8.479   0.888 -0.2478 -0.5295 -0.8594
28528WAT    EPW15919  -0.997   8.553   0.863 -0.1756 -0.2551 -0.2089
28529WAT      O15920   5.690   4.365   2.962 -0.4269  0.1385  0.1170
28529WAT     H115921   5.678   4.404   3.048  0.4016 -0.8223  0.6841
28529WAT     H215922   5.620   4.300   2.956  0.5137 -0.9661  0.7751
28529WAT    EPW15923   5.679   4.362   2.972 -0.1936 -0.1340  0.2786
28530WAT      O15924   5.190   6.178   0.977  0.6029  0.4499 -0.1644
28530WAT     H115925   5.191   6.107   1.042  4.5077  0.1565 -0.3199
28530WAT     H215926   5.117   6.234   1.004 -0.8626 -2.1096  1.6348
28530WAT    EPW15927   5.181   6.176   0.989  0.9243  0.0734  0.0524
28531WAT      O15928  -2.189   2.433   3.231  0.2302  0.2547  0.2300
28531WAT     H115929  -2.196   2.360   3.293 -1.5092  0.4854  0.3587
28531WAT     H215930  -2.095   2.443   3.216  0.5458 -1.4515  0.8652
28531WAT    EPW15931  -2.178   2.425   3.237  0.0424  0.0601  0.3307
28532WAT      O15932   5.702   4.489   1.221 -0.0497 -0.5818 -1.0744
28532WAT     H115933   5.695   4.553   1.149  3.0750  0.0318 -0.9889
28532WAT     H215934   5.747   4.415   1.181  0.2597 -0.9069 -0.1290
28532WAT    EPW15935   5.707   4.488   1.206  0.4034 -0.5438 -0.9385
28533WAT      O15936   1.304   4.369   1.038 -0.0768  0.1177  0.2772
28533WAT     H115937   1.333   4.278   1.033  0.2701  0.2445 -0.0736
28533WAT     H215938   1.230   4.368   1.099  0.3293 -0.2948  0.7664
28533WAT    EPW15939   1.298   4.357   1.045  0.0225  0.0799  0.2955
28534WAT      O15940   3.469   6.013   8.383 -0.2464 -0.0891  0.0162
28534WAT     H115941   3.436   5.981   8.466 -2.0151  3.6037  0.9512
28534WAT     H215942   3.556   6.047   8.402 -0.9878  1.5601  0.7111
28534WAT    EPW15943   3.476   6.014   8.396 -0.5774  0.6154  0.2313
28535WAT      O15944   0.850   6.013   8.652  0.8465  0.0078 -0.7007
28535WAT     H115945   0.783   6.079   8.634 -0.0252 -0.8057 -0.5195
28535WAT     H215946   0.852   6.007   8.747  1.1970  0.0350 -0.7040
28535WAT    EPW15947   0.841   6.021   8.662  0.7778 -0.0958 -0.6771
28536WAT      O15948   1.882   6.171   5.121  0.5135 -0.1327 -0.0319
28536WAT     H115949   1.836   6.232   5.179  1.4308  0.2980  0.2619
28536WAT     H215950   1.946   6.225   5.075  0.7744 -0.7305 -0.3835
28536WAT    EPW15951   1.884   6.186   5.122  0.6689 -0.1545 -0.0396
28537WAT      O15952  -1.375   1.726   6.777 -0.0382  0.8649 -0.1630
28537WAT     H115953  -1.345   1.751   6.689  2.0050  0.7468  0.4392
28537WAT     H215954  -1.344   1.636   6.788 -1.1963  0.5090  0.2972
28537WAT    EPW15955  -1.367   1.717   6.767  0.0785  0.8024 -0.0226
28538WAT      O15956   2.649   9.487   6.017 -0.0620 -0.1973 -0.1281
28538WAT     H115957   2.562   9.521   5.996  0.2384  0.1186 -0.8761
28538WAT     H215958   2.633   9.401   6.054 -0.6260 -0.6482 -1.3758
28538WAT    EPW15959   2.636   9.480   6.019 -0.0968 -0.2151 -0.3912
28539WAT      O15960   6.731   6.049   1.706  0.5070  0.4360 -0.1365
28539WAT     H115961   6.803   6.030   1.645 -0.1409 -0.9680 -0.5036
28539WAT     H215962   6.693   6.131   1.673 -0.6508 -0.9417 -2.4660
28539WAT    EPW15963   6.735   6.057   1.693  0.2687  0.0691 -0.4922
28540WAT      O15964  -3.696   4.202   7.126 -0.5195 -0.0714 -0.0980
28540WAT     H115965  -3.610   4.239   7.148 -0.6340 -0.5476  1.2280
28540WAT     H215966  -3.749   4.277   7.102  0.2536  0.2307 -0.9316
28540WAT    EPW15967  -3.692   4.217   7.126 -0.4326 -0.0942 -0.0331
28541WAT      O15968   2.614   8.033   5.795  0.0653 -0.7228  1.0326
28541WAT     H115969   2.705   8.052   5.818 -0.0432  0.1352  0.7746
28541WAT     H215970   2.562   8.075   5.863 -0.1406 -1.7525  1.5407
28541WAT    EPW15971   2.619   8.041   5.807  0.0238 -0.7458  1.0657
28542WAT      O15972  -1.892   4.922   1.569 -0.1937  0.7809  0.1585
28542WAT     H115973  -1.963   4.959   1.516  0.6960  1.3995 -0.6348
28542WAT     H215974  -1.891   4.829   1.547 -1.1633  0.6319  0.6716
28542WAT    EPW15975  -1.902   4.915   1.559 -0.2043  0.8428  0.1215
28543WAT      O15976   6.499   4.529   4.605  0.4616 -0.2963 -0.8796
28543WAT     H115977   6.496   4.458   4.669 -1.6848  1.5563  1.2588
28543WAT     H215978   6.591   4.535   4.580  1.4078 -1.2455  1.9628
28543WAT    EPW15979   6.511   4.521   4.610  0.3033 -0.1771 -0.2227
28544WAT      O15980   1.574   7.417   2.395 -0.0767  0.4647 -0.2612
28544WAT     H115981   1.556   7.497   2.345  0.9633  0.1004 -1.2657
28544WAT     H215982   1.504   7.357   2.369  0.8812  0.0091 -1.9562
28544WAT    EPW15983   1.563   7.420   2.385  0.1868  0.3567 -0.6171
28545WAT      O15984   6.154   8.379   0.995 -0.1100 -0.4538 -0.2180
28545WAT     H115985   6.132   8.454   1.051  0.8409  0.5120 -1.1006
28545WAT     H215986   6.088   8.380   0.926  0.5610  0.2685 -0.8603
28545WAT    EPW15987   6.142   8.389   0.994  0.1037 -0.2313 -0.4191
28546WAT      O15988   1.391   6.059   8.544 -0.5148 -0.6555  0.3084
28546WAT     H115989   1.467   6.114   8.561 -0.3656 -1.1078  1.1392
28546WAT     H215990   1.416   6.005   8.469 -0.2872 -0.3055  0.1317
28546WAT    EPW15991   1.404   6.059   8.536 -0.4652 -0.6690  0.3948
28547WAT      O15992  -1.925   2.621   4.149 -0.5473 -0.3246  0.4384
28547WAT     H115993  -2.004   2.668   4.124 -1.7193 -0.2080  3.8749
28547WAT     H215994  -1.876   2.683   4.203  0.5878 -1.2762  0.5404
28547WAT    EPW15995  -1.929   2.635   4.152 -0.5522 -0.4348  0.9053
28548WAT      O15996   6.623   0.541   2.487  0.3830 -0.0042 -0.3413
28548WAT     H115997   6.693   0.576   2.542 -1.8037  0.7648  2.1497
28548WAT     H215998   6.669   0.497   2.415  3.3778  0.6566  1.0136
28548WAT    EPW15999   6.638   0.540   2.485  0.4895  0.1844  0.1659
28549WAT      O16000   2.419   9.164   1.740  0.2825  0.7450 -0.8855
28549WAT     H116001   2.494   9.163   1.680  1.0743 -0.8692  0.0571
28549WAT     H216002   2.448   9.217   1.814  0.9940 -0.8017  0.0025
28549WAT    EPW16003   2.433   9.171   1.742  0.4808  0.3276 -0.6441
28550WAT      O16004   4.584   3.431   5.989  0.0173  0.3934 -0.2158
28550WAT     H116005   4.603   3.352   6.039  0.1836 -0.7649 -2.0143
28550WAT     H216006   4.670   3.463   5.961 -0.1462 -0.0844 -1.3382
28550WAT    EPW16007   4.597   3.425   5.992  0.0179  0.1776 -0.6011
28551WAT      O16008   1.962   7.769   5.424  0.8663 -0.4207 -0.1218
28551WAT     H116009   1.931   7.679   5.436  0.4676 -0.3560 -0.5972
28551WAT     H216010   2.042   7.774   5.475  0.2497 -0.6912  0.9042
28551WAT    EPW16011   1.968   7.758   5.432  0.7324 -0.4480 -0.0494
28552WAT      O16012   0.447   7.594   8.722  0.2079 -0.6004 -0.1757
28552WAT     H116013   0.524   7.542   8.746  2.3220  1.5429 -1.7760
28552WAT     H216014   0.381   7.530   8.697  2.2606 -2.5261 -0.9593
28552WAT    EPW16015   0.449   7.579   8.722  0.7575 -0.5715 -0.4907
28553WAT      O16016  -1.759   7.019   6.886  0.7493 -0.0751 -0.2599
28553WAT     H116017  -1.778   7.112   6.896  0.4183 -0.2497  0.8753
28553WAT     H216018  -1.724   7.011   6.797  1.5002  1.2461 -0.1146
28553WAT    EPW16019  -1.757   7.030   6.876  0.8047  0.0761 -0.0911
28554WAT      O16020   2.879   0.430   6.230  0.4753 -0.3494 -0.5146
28554WAT     H116021   2.912   0.373   6.300 -0.1952  0.1495  0.2254
28554WAT     H216022   2.956   0.476   6.198  0.7510 -0.3848  0.0843
28554WAT    EPW16023   2.893   0.428   6.235  0.4232 -0.2882 -0.3378
28555WAT      O16024  -1.049   1.333   1.848  0.1847 -0.8499  0.6405
28555WAT     H116025  -1.114   1.316   1.781 -1.3374  1.8481  1.2866
28555WAT     H216026  -0.975   1.371   1.801  0.2519 -1.5006  0.2078
28555WAT    EPW16027  -1.048   1.335   1.833 -0.0072 -0.5798  0.6686
28556WAT      O16028   6.856   0.580   5.819  0.2841 -0.2141 -0.0368
28556WAT     H116029   6.844   0.569   5.725 -1.3841 -0.8249  0.2093
28556WAT     H216030   6.939   0.536   5.838 -0.7166 -2.6429 -0.8327
28556WAT    EPW16031   6.866   0.573   5.809 -0.0679 -0.6150 -0.1092
28557WAT      O16032   6.332   2.785   4.783  0.3029  0.0633 -0.4079
28557WAT     H116033   6.361   2.858   4.837 -0.5580  0.6799 -0.7626
28557WAT     H216034   6.413   2.737   4.763  0.5868 -0.5104  1.8413
28557WAT    EPW16035   6.347   2.789   4.787  0.2270  0.0689 -0.1578
28558WAT      O16036  -1.132   4.929   1.767 -0.0296 -0.1003 -0.4525
28558WAT     H116037  -1.088   4.943   1.683 -0.3510 -1.2851 -0.8433
28558WAT     H216038  -1.137   4.833   1.775  1.5204 -0.0766  1.7069
28558WAT    EPW16039  -1.127   4.918   1.757  0.1324 -0.2534 -0.2192
28559WAT      O16040   4.444   4.019   6.007  0.0544  0.5071  0.7183
28559WAT     H116041   4.495   4.023   6.087 -0.2422  1.0264  0.8901
28559WAT     H216042   4.414   4.109   5.993  1.9643  0.9342 -1.2092
28559WAT    EPW16043   4.446   4.031   6.015  0.2675  0.6318  0.4869
28560WAT      O16044   3.703   1.987   5.267 -0.2980  0.4745  0.0276
28560WAT     H116045   3.770   1.971   5.334 -2.8186 -0.5327  2.4991
28560WAT     H216046   3.656   2.065   5.298 -1.4150  0.0922 -0.6540
28560WAT    EPW16047   3.706   1.995   5.280 -0.7777  0.2913  0.2637
28561WAT      O16048   1.956   5.798   0.239  0.0909  0.2861  0.3354
28561WAT     H116049   1.972   5.848   0.320  1.0411  0.1635  0.2409
28561WAT     H216050   1.995   5.852   0.170 -0.4374  0.2401 -0.0047
28561WAT    EPW16051   1.964   5.812   0.241  0.1466  0.2639  0.2781
28562WAT      O16052  -2.564   6.472   0.643  0.6703 -0.5247 -0.3980
28562WAT     H116053  -2.637   6.426   0.684  1.1847  0.1910  1.4257
28562WAT     H216054  -2.588   6.479   0.551 -0.9414 -1.4503 -0.0754
28562WAT    EPW16055  -2.577   6.467   0.636  0.5256 -0.5524 -0.1149
28563WAT      O16056   2.071  10.066   2.645 -0.2389 -0.2753  0.3333
28563WAT     H116057   2.033  10.026   2.567  0.4531 -2.6118  1.1033
28563WAT     H216058   2.079   9.994   2.708 -0.5546  1.4658  2.5014
28563WAT    EPW16059   2.067  10.051   2.643 -0.1893 -0.3533  0.7207
28564WAT      O16060  -4.398   7.040   5.319  0.3639  0.5100 -0.1832
28564WAT     H116061  -4.394   7.076   5.407  1.8538  1.8973 -0.7714
28564WAT     H216062  -4.487   7.059   5.289  0.7736  2.8369 -0.0806
28564WAT    EPW16063  -4.409   7.047   5.326  0.6146  0.9999 -0.2470
28565WAT      O16064  -3.344  10.034   5.189  0.4151 -0.6059  0.0076
28565WAT     H116065  -3.390  10.006   5.267  0.9728 -0.5675  0.3550
28565WAT     H216066  -3.295  10.111   5.216 -0.0995 -0.0387 -0.6143
28565WAT    EPW16067  -3.344  10.040   5.203  0.4208 -0.5260 -0.0288
28566WAT      O16068   0.007   5.340   4.229 -0.0474 -0.1539 -0.3284
28566WAT     H116069  -0.020   5.350   4.320 -2.1003  0.9849 -1.0067
28566WAT     H216070   0.017   5.245   4.218  0.6438 -0.2835  1.1608
28566WAT    EPW16071   0.005   5.329   4.240 -0.2270 -0.0210 -0.2215
28567WAT      O16072  -3.349   9.910   8.171  0.2280 -0.0491  0.0246
28567WAT     H116073  -3.337   9.947   8.083 -1.1087  1.2009  0.3434
28567WAT     H216074  -3.271   9.855   8.184  1.1420  0.8496 -1.3763
28567WAT    EPW16075  -3.337   9.907   8.161  0.1723  0.2341 -0.1183
28568WAT      O16076   2.464   5.679   0.277 -0.3297  0.4055  0.9388
28568WAT     H116077   2.384   5.731   0.285 -0.1022  1.2468 -1.4599
28568WAT     H216078   2.534   5.745   0.273  0.2121 -0.1976  0.3546
28568WAT    EPW16079   2.463   5.695   0.277 -0.2283  0.4368  0.5453
28569WAT      O16080  -2.282   2.763   6.690 -0.8246 -0.1378  0.5301
28569WAT     H116081  -2.290   2.695   6.624 -0.0895 -0.3760  0.6757
28569WAT     H216082  -2.255   2.841   6.642 -0.9222 -0.1473  0.4610
28569WAT    EPW16083  -2.280   2.764   6.675 -0.7405 -0.1705  0.5403
28570WAT      O16084  -0.233   7.620   1.162 -0.7400  0.4413 -1.3118
28570WAT     H116085  -0.211   7.634   1.071  1.2518 -0.4018 -1.0034
28570WAT     H216086  -0.151   7.634   1.210 -2.0182  2.2753  0.5368
28570WAT    EPW16087  -0.219   7.624   1.157 -0.6459  0.5720 -1.0273
28571WAT      O16088   4.266   0.217   8.131  0.0828  0.0390 -0.7863
28571WAT     H116089   4.207   0.154   8.089  1.5646 -2.4700  0.6013
28571WAT     H216090   4.217   0.249   8.207  0.4739 -2.3298  0.5915
28571WAT    EPW16091   4.252   0.213   8.136  0.3297 -0.6044 -0.4215
28572WAT      O16092  -1.847   1.297   3.598  0.0656  0.0774  0.0077
28572WAT     H116093  -1.935   1.331   3.615  0.1719 -0.5127  2.0722
28572WAT     H216094  -1.827   1.325   3.509 -1.4180  1.9041  0.1887
28572WAT    EPW16095  -1.856   1.305   3.589 -0.1161  0.2406  0.3039
28573WAT      O16096   2.201   8.052   0.535  0.1472  0.2125  0.0471
28573WAT     H116097   2.119   8.009   0.559 -0.1785  0.9557  0.2645
28573WAT     H216098   2.182   8.145   0.535  0.8968  0.3803 -0.2710
28573WAT    EPW16099   2.188   8.058   0.538  0.2031  0.3328  0.0338
28574WAT      O16100   5.858   0.097   4.060 -0.3976 -0.0270 -0.0271
28574WAT     H116101   5.905   0.041   3.998  0.2254  0.5254 -0.0576
28574WAT     H216102   5.846   0.180   4.013 -4.2862 -1.0884 -1.3383
28574WAT    EPW16103   5.862   0.101   4.045 -0.8283 -0.0941 -0.2043
28575WAT      O16104   4.510   0.939   7.443  0.2575 -0.7569 -0.0970
28575WAT     H116105   4.521   1.024   7.485 -0.9309 -0.1511 -0.9792
28575WAT     H216106   4.432   0.948   7.388 -0.8490 -2.8796  0.9809
28575WAT    EPW16107   4.501   0.951   7.442 -0.0453 -0.9569 -0.0710
28576WAT      O16108  -0.015   1.778   1.211 -1.2549  0.0083  0.1609
28576WAT     H116109   0.024   1.700   1.171  3.1098  1.0960  1.7466
28576WAT     H216110   0.002   1.848   1.148 -1.6400  0.3202  0.4029
28576WAT    EPW16111  -0.007   1.777   1.197 -0.7300  0.1929  0.4019
28577WAT      O16112  -3.734   3.626   7.180  0.1066  0.4037 -0.0679
28577WAT     H116113  -3.640   3.608   7.182  0.5398  2.2614 -1.1062
28577WAT     H216114  -3.757   3.643   7.272  1.2584  1.9673 -0.0325
28577WAT    EPW16115  -3.724   3.626   7.193  0.3157  0.8550 -0.2000
28578WAT      O16116   0.013   0.816   4.979  0.1119 -0.2804 -0.5177
28578WAT     H116117  -0.049   0.883   4.952 -1.9328 -1.2816  1.3577
28578WAT     H216118  -0.023   0.734   4.944 -0.8137 -1.1431  2.2267
28578WAT    EPW16119  -0.000   0.814   4.971 -0.2799 -0.5262  0.0918
28579WAT      O16120   3.566   0.384   7.403  0.4263 -0.7023  0.5695
28579WAT     H116121   3.652   0.363   7.439  0.4280  0.9540  1.6651
28579WAT     H216122   3.509   0.315   7.437  1.0909 -1.1113  0.8845
28579WAT    EPW16123   3.570   0.372   7.412  0.5141 -0.5378  0.7555
28580WAT      O16124  -4.034   5.541   7.498  0.3449  0.1962  0.6670
28580WAT     H116125  -4.014   5.451   7.470  1.9521  0.6406  0.2570
28580WAT     H216126  -4.110   5.532   7.554  0.8281 -1.5169  1.1205
28580WAT    EPW16127  -4.041   5.528   7.501  0.6208  0.0286  0.6726
28581WAT      O16128   3.672   0.184   4.856 -0.4825 -0.1454  0.2661
28581WAT     H116129   3.603   0.133   4.813  0.2665  1.5337 -3.3093
28581WAT     H216130   3.752   0.133   4.843 -0.0050  0.9946 -1.9239
28581WAT    EPW16131   3.673   0.171   4.848 -0.3208  0.2264 -0.4942
28582WAT      O16132  -2.914   3.888   8.811 -0.0306 -0.2582  0.1635
28582WAT     H116133  -2.926   3.935   8.729  0.2363  3.5070  2.0892
28582WAT     H216134  -2.997   3.842   8.825 -0.8284  0.7338 -1.1959
28582WAT    EPW16135  -2.927   3.888   8.802 -0.1006  0.3692  0.2379
28583WAT      O16136   0.645   5.676   8.452 -0.5706  1.0162 -0.0361
28583WAT     H116137   0.685   5.763   8.455  1.0356  0.2934  0.8782
28583WAT     H216138   0.672   5.635   8.534  0.8719 -1.2544 -1.5423
28583WAT    EPW16139   0.653   5.682   8.463 -0.1685  0.6211 -0.1140
28584WAT      O16140  -6.230   7.572   6.015  0.3633  0.0718  0.3474
28584WAT     H116141  -6.198   7.509   6.080  0.5638 -0.0228  0.1609
28584WAT     H216142  -6.179   7.552   5.936  1.4456  1.3884  0.6732
28584WAT    EPW16143  -6.219   7.561   6.013  0.5326  0.2329  0.3657
28585WAT      O16144   1.148   5.329   5.901 -0.4182  0.1886  0.1194
28585WAT     H116145   1.071   5.385   5.888  0.0394  0.8912  0.3759
28585WAT     H216146   1.152   5.316   5.996  0.4615  1.1610  0.2329
28585WAT    EPW16147   1.138   5.335   5.912 -0.2418  0.4094  0.1683
28586WAT      O16148  -1.980   1.117   4.606  0.1030 -0.4745  0.3085
28586WAT     H116149  -1.978   1.153   4.694 -0.8720  0.6884 -0.1263
28586WAT     H216150  -1.897   1.145   4.567  0.4083 -0.7503  0.7493
28586WAT    EPW16151  -1.969   1.126   4.612  0.0147 -0.3574  0.3092
28587WAT      O16152   2.980   6.293   2.582  0.3259 -0.1577 -0.5958
28587WAT     H116153   3.043   6.355   2.546  3.2631 -3.1923 -1.1758
28587WAT     H216154   3.033   6.233   2.635 -2.3124 -2.0390  0.1206
28587WAT    EPW16155   2.995   6.293   2.584  0.3654 -0.8059 -0.5778
28588WAT      O16156   2.599   6.304   1.882  0.6122  0.1009 -0.0606
28588WAT     H116157   2.649   6.222   1.873  1.3373  0.3611  1.3813
28588WAT     H216158   2.538   6.302   1.808  2.2593 -0.5701 -1.4746
28588WAT    EPW16159   2.597   6.293   1.871  0.9251  0.0467 -0.0569
28589WAT      O16160  -0.004   5.222   0.806 -0.1461 -0.1667  0.1462
28589WAT     H116161   0.044   5.173   0.740  0.8060 -0.2760  0.8954
28589WAT     H216162  -0.085   5.172   0.820  0.3154 -0.9409  0.1155
28589WAT    EPW16163  -0.008   5.209   0.799  0.0403 -0.2832  0.2410
28590WAT      O16164  -1.962   9.077   3.754  0.6857 -0.1121  0.4416
28590WAT     H116165  -1.870   9.081   3.729  0.4827 -0.3176 -0.3451
28590WAT     H216166  -1.961   9.059   3.848  1.4378 -0.7535  0.3127
28590WAT    EPW16167  -1.950   9.075   3.763  0.7581 -0.2241  0.3208
28591WAT      O16168  -2.438   1.583   7.258 -0.1555 -0.4288 -0.3046
28591WAT     H116169  -2.471   1.506   7.213 -2.6156  2.1660 -3.5308
28591WAT     H216170  -2.495   1.654   7.228  1.6193  2.6223  2.7625
28591WAT    EPW16171  -2.450   1.582   7.248 -0.2458  0.3159 -0.3257
28592WAT      O16172  -6.512   5.422   8.169  0.0419 -0.5771  0.1428
28592WAT     H116173  -6.488   5.461   8.085  0.3339 -0.0614  0.4627
28592WAT     H216174  -6.523   5.329   8.150  1.6407 -0.7281 -0.1652
28592WAT    EPW16175  -6.510   5.415   8.156  0.2911 -0.5291  0.1445
28593WAT      O16176   0.700   3.670   2.652 -0.9521 -0.0507  0.5749
28593WAT     H116177   0.714   3.575   2.653 -0.5910 -0.0011  0.6279
28593WAT     H216178   0.753   3.700   2.578 -0.9770  0.1204  0.6282
28593WAT    EPW16179   0.709   3.661   2.643 -0.9078 -0.0216  0.5889
28594WAT      O16180  -1.561   6.717   1.677  0.0795 -0.2563 -0.1944
28594WAT     H116181  -1.595   6.798   1.640 -0.3433 -0.2632  0.1658
28594WAT     H216182  -1.523   6.742   1.761  1.2817 -0.1949 -0.7374
28594WAT    EPW16183  -1.561   6.731   1.683  0.1823 -0.2489 -0.2185
28595WAT      O16184   2.489   4.927   7.540  0.3818  0.1101 -0.4089
28595WAT     H116185   2.406   4.974   7.546  0.3662  0.4712 -2.7137
28595WAT     H216186   2.555   4.996   7.536  0.6138 -0.1330 -0.7732
28595WAT    EPW16187   2.487   4.943   7.541  0.4103  0.1259 -0.7610
28596WAT      O16188   2.606   6.648   6.497 -0.0803  0.0623 -0.5593
28596WAT     H116189   2.686   6.701   6.504 -0.5838  0.6827  0.7581
28596WAT     H216190   2.628   6.581   6.431  0.6402  1.7494 -2.1320
28596WAT    EPW16191   2.620   6.646   6.489 -0.0517  0.3667 -0.5929
28597WAT      O16192   5.077   4.178   6.028 -0.3874  0.5574 -0.2039
28597WAT     H116193   5.047   4.266   6.003  0.2509  0.5277 -1.1231
28597WAT     H216194   5.169   4.189   6.049 -0.7025  0.4043  1.3270
28597WAT    EPW16195   5.085   4.191   6.027 -0.3450  0.5333 -0.1233
28598WAT      O16196  -1.305   0.497   7.412  0.2595  0.0944  0.3254
28598WAT     H116197  -1.312   0.501   7.316 -0.2377 -0.1919  0.3435
28598WAT     H216198  -1.291   0.588   7.439  2.3162 -0.0401 -0.1448
28598WAT    EPW16199  -1.304   0.510   7.403  0.4652  0.0389  0.2658
28599WAT      O16200  -3.138   4.871   5.183 -0.2701 -0.3167 -0.2863
28599WAT     H116201  -3.171   4.867   5.272 -0.1159 -0.2840 -0.2277
28599WAT     H216202  -3.215   4.854   5.128 -0.6873  1.1333 -0.1959
28599WAT    EPW16203  -3.153   4.868   5.187 -0.3047 -0.1214 -0.2668
28600WAT      O16204   1.944   4.167   7.644  0.5642 -0.2011 -0.2617
28600WAT     H116205   2.019   4.221   7.618  0.4310 -0.1805 -0.6085
28600WAT     H216206   1.905   4.139   7.561 -0.4223  0.6323 -0.0944
28600WAT    EPW16207   1.949   4.170   7.630  0.4165 -0.0882 -0.2854
28601WAT      O16208  -0.650   4.217   4.402 -0.2990 -0.8280  0.2186
28601WAT     H116209  -0.555   4.207   4.399 -0.2609 -0.5448  0.4711
28601WAT     H216210  -0.670   4.233   4.494 -0.3771  1.1702 -0.0946
28601WAT    EPW16211  -0.640   4.218   4.414 -0.3042 -0.5271  0.2108
28602WAT      O16212  -3.827   4.515   8.585  0.5238 -0.2619 -0.1446
28602WAT     H116213  -3.760   4.447   8.592 -0.5663 -1.7558 -2.7349
28602WAT     H216214  -3.905   4.475   8.624 -0.5535 -1.2871 -3.0788
28602WAT    EPW16215  -3.829   4.501   8.591  0.2379 -0.5944 -0.8736
28603WAT      O16216  -1.947   1.634   5.641  0.1551 -0.2853  0.1318
28603WAT     H116217  -1.859   1.641   5.678 -0.2386 -0.0569  1.0553
28603WAT     H216218  -1.959   1.715   5.591  0.3134 -0.1135  0.3700
28603WAT    EPW16219  -1.937   1.646   5.640  0.1240 -0.2325  0.2849
28604WAT      O16220   0.731   5.850   4.274 -0.4466 -0.4323  0.5823
28604WAT     H116221   0.651   5.803   4.299 -1.2991  1.7476  2.2879
28604WAT     H216222   0.799   5.784   4.277 -1.6397 -1.6773  2.4890
28604WAT    EPW16223   0.729   5.835   4.278 -0.7164 -0.3090  1.0588
28605WAT      O16224  -4.594   8.083   6.190  0.6290 -0.0126 -0.4097
28605WAT     H116225  -4.505   8.067   6.160  0.8875 -1.3058  0.9131
28605WAT     H216226  -4.590   8.165   6.238  1.2164 -0.2977  0.0340
28605WAT    EPW16227  -4.582   8.091   6.192  0.7405 -0.2208 -0.1767
28606WAT      O16228  -2.914   6.701   1.613  0.2014  0.0820 -0.6705
28606WAT     H116229  -2.929   6.614   1.652 -1.0629 -0.0837 -1.4848
28606WAT     H216230  -2.996   6.748   1.627  1.0548  1.3666  0.2478
28606WAT    EPW16231  -2.927   6.695   1.620  0.1472  0.2296 -0.6568
28607WAT      O16232  -1.690  10.288   5.546  0.1017  0.0628  0.0628
28607WAT     H116233  -1.663  10.380   5.544  0.3490 -0.0171 -0.3946
28607WAT     H216234  -1.659  10.256   5.631  1.6303 -0.0763 -0.5175
28607WAT    EPW16235  -1.682  10.296   5.557  0.3359  0.0343 -0.0741
28608WAT      O16236   6.152   1.086   0.167  0.1409 -0.5537 -0.2954
28608WAT     H116237   6.238   1.050   0.188  0.3623  0.6140  0.9591
28608WAT     H216238   6.150   1.089   0.072  1.9304  0.3752 -0.3519
28608WAT    EPW16239   6.163   1.082   0.157  0.4060 -0.2772 -0.1374
28609WAT      O16240   4.048   3.783   3.720 -0.2431 -0.0573  0.2959
28609WAT     H116241   4.133   3.827   3.729 -0.5533  0.2948  1.6733
28609WAT     H216242   4.065   3.712   3.658  1.3047 -0.5878  1.2602
28609WAT    EPW16243   4.061   3.779   3.713 -0.0799 -0.0807  0.6046
28610WAT      O16244   2.439   5.068   4.888 -0.4943  0.2338  0.5775
28610WAT     H116245   2.367   5.027   4.937 -0.8312  2.6551  2.3094
28610WAT     H216246   2.505   5.000   4.881 -2.8851 -2.1004 -1.0933
28610WAT    EPW16247   2.438   5.054   4.894 -0.8541  0.2456  0.5856
28611WAT      O16248   4.914   1.752   0.622  0.1946  0.1402  0.1111
28611WAT     H116249   4.889   1.806   0.697  2.7681  3.2201 -1.0078
28611WAT     H216250   4.972   1.685   0.658  0.9868  1.2651  0.9871
28611WAT    EPW16251   4.918   1.750   0.636  0.6385  0.6948  0.0791
28612WAT      O16252  -2.180   7.088   5.359  0.4068  0.1066 -0.7591
28612WAT     H116253  -2.228   7.026   5.413 -0.2977  0.2201 -1.2391
28612WAT     H216254  -2.103   7.112   5.412 -0.5034  0.5861  0.4057
28612WAT    EPW16255  -2.176   7.083   5.373  0.1938  0.1848 -0.6688
28613WAT      O16256  -0.529   3.650   4.631  0.4141 -0.0993 -0.1318
28613WAT     H116257  -0.494   3.610   4.710 -0.8579 -1.2890 -0.1332
28613WAT     H216258  -0.489   3.737   4.628 -0.7388  0.6484  2.7208
28613WAT    EPW16259  -0.519   3.656   4.641  0.0942 -0.1576  0.2444
28614WAT      O16260   7.228   2.937   0.555  0.0086 -0.0144  0.0012
28614WAT     H116261   7.202   2.866   0.614 -1.6671  0.1633 -0.4728
28614WAT     H216262   7.296   2.898   0.500  0.2000 -0.7777  0.7553
28614WAT    EPW16263   7.233   2.922   0.555 -0.1872 -0.0916  0.0381
28615WAT      O16264   0.781   5.909   8.151  0.5806 -0.4379  0.1865
28615WAT     H116265   0.755   5.920   8.242  1.1854 -1.2805  0.4750
28615WAT     H216266   0.715   5.849   8.115 -0.5804  1.1175 -0.3845
28615WAT    EPW16267   0.769   5.902   8.158  0.5072 -0.3438  0.1493
28616WAT      O16268   5.917   3.125   5.303 -0.3163  0.3284 -0.3813
28616WAT     H116269   5.841   3.068   5.316  1.5343 -1.6990  2.8621
28616WAT     H216270   5.958   3.092   5.222  0.3137 -2.6717  1.0296
28616WAT    EPW16271   5.912   3.113   5.294  0.0107 -0.3346  0.2325
28617WAT      O16272   0.481   9.425   2.875  0.1277 -0.5969  0.0063
28617WAT     H116273   0.558   9.469   2.910 -0.6674 -1.0832  2.5908
28617WAT     H216274   0.471   9.460   2.787  1.1199  2.2991  0.9503
28617WAT    EPW16275   0.490   9.435   2.868  0.1537 -0.2789  0.4716
28618WAT      O16276   3.922   4.825   7.356  0.1923 -0.1922 -0.0590
28618WAT     H116277   3.969   4.802   7.276 -0.8321 -0.2203 -0.6662
28618WAT     H216278   3.841   4.867   7.325  0.0947  0.4040  0.9683
28618WAT    EPW16279   3.917   4.828   7.341  0.0443 -0.1171 -0.0038
28619WAT      O16280   3.573  10.016   0.858  0.1630 -0.0243 -0.4501
28619WAT     H116281   3.564  10.110   0.875  1.0337  0.1386 -0.8212
28619WAT     H216282   3.522   9.974   0.926  1.7888  0.6458  1.2689
28619WAT    EPW16283   3.565  10.023   0.869  0.4922  0.0854 -0.2723
28620WAT      O16284   0.946   2.381   8.548  0.1082 -0.1998  0.1706
28620WAT     H116285   0.955   2.289   8.571 -0.0738  0.3194  2.4846
28620WAT     H216286   0.853   2.401   8.564  0.4957  0.7707  1.3134
28620WAT    EPW16287   0.935   2.372   8.553  0.1353 -0.0035  0.6266
28621WAT      O16288   3.638   8.423   4.477 -0.4121 -0.0531 -0.5478
28621WAT     H116289   3.729   8.407   4.453 -0.3670  3.0903 -3.1601
28621WAT     H216290   3.638   8.512   4.512 -2.3822 -0.3801  0.4159
28621WAT    EPW16291   3.650   8.433   4.478 -0.6660  0.3185 -0.7651
28622WAT      O16292   3.085   7.909   4.321  0.0606 -0.2676  0.2056
28622WAT     H116293   3.114   7.924   4.412 -1.4659  3.2297  0.2764
28622WAT     H216294   3.149   7.957   4.268 -0.5868  0.0207 -0.3238
28622WAT    EPW16295   3.097   7.917   4.326 -0.2261  0.2317  0.1454
28623WAT      O16296   2.668   1.088   5.794 -0.0864  0.3136  0.4772
28623WAT     H116297   2.684   1.178   5.767  0.2038  0.7023  1.8796
28623WAT     H216298   2.621   1.049   5.720 -1.4266  1.9883  0.3907
28623WAT    EPW16299   2.664   1.094   5.780 -0.2249  0.5857  0.6506
28624WAT      O16300   5.485   1.383   2.403  0.5725  0.9472 -0.0293
28624WAT     H116301   5.495   1.378   2.308 -0.1861  3.3105 -0.3138
28624WAT     H216302   5.562   1.430   2.433  0.6277  0.5334  0.4947
28624WAT    EPW16303   5.496   1.389   2.394  0.4795  1.2044  0.0023
28625WAT      O16304   3.652   5.070   0.387 -0.2602  0.2168  0.3364
28625WAT     H116305   3.566   5.104   0.363 -0.5587 -0.9751 -0.3422
28625WAT     H216306   3.704   5.148   0.406 -1.1971  0.9944 -0.2076
28625WAT    EPW16307   3.647   5.085   0.387 -0.4232  0.1621  0.1752
28626WAT      O16308   2.174   3.811   6.319  0.2451 -0.2429  0.0576
28626WAT     H116309   2.191   3.802   6.413 -1.1428  0.3756  0.4069
28626WAT     H216310   2.210   3.896   6.296 -0.1137 -0.0383  0.2301
28626WAT    EPW16311   2.181   3.821   6.329  0.0147 -0.1343  0.1264
28627WAT      O16312   0.449   7.696   6.902 -0.2103  0.4911  0.2995
28627WAT     H116313   0.435   7.650   6.819 -0.1935 -1.0327  1.0984
28627WAT     H216314   0.430   7.787   6.883 -0.9637  0.0464 -1.1904
28627WAT    EPW16315   0.445   7.702   6.889 -0.3075  0.2315  0.2084
28628WAT      O16316  -4.008  10.231   7.249 -0.3408 -0.5835  1.1075
28628WAT     H116317  -4.061  10.307   7.223 -0.8135 -0.7291  1.6338
28628WAT     H216318  -3.978  10.194   7.166  0.0374  0.2774  0.8462
28628WAT    EPW16319  -4.011  10.236   7.235 -0.3533 -0.4892  1.1425
28629WAT      O16320  -5.911   7.764   7.859 -1.1937 -0.4414 -0.3698
28629WAT     H116321  -5.871   7.682   7.831  0.2179 -0.4428  1.4975
28629WAT     H216322  -5.853   7.832   7.825 -0.1188 -0.4077  1.3969
28629WAT    EPW16323  -5.898   7.762   7.851 -0.8655 -0.4373  0.1094
28630WAT      O16324   3.804   4.081   0.159  0.0768  0.2427 -0.0240
28630WAT     H116325   3.734   4.066   0.222  0.9929 -1.4875  0.6465
28630WAT     H216326   3.759   4.103   0.077 -1.2074 -0.0558  0.5861
28630WAT    EPW16327   3.789   4.082   0.156  0.0283 -0.0248  0.1449
28631WAT      O16328  -6.211   9.450   6.459 -0.0450  0.2331 -0.2279
28631WAT     H116329  -6.197   9.462   6.553  1.0314  1.6829 -0.5301
28631WAT     H216330  -6.178   9.531   6.420 -2.1731  0.4541 -1.7198
28631WAT    EPW16331  -6.205   9.462   6.466 -0.1836  0.4535 -0.4644
28632WAT      O16332   3.866   7.633   6.127 -0.6567  0.2687 -0.3552
28632WAT     H116333   3.895   7.605   6.040  3.5458  2.3777  0.0854
28632WAT     H216334   3.866   7.553   6.180  2.1758 -0.3820 -1.1482
28632WAT    EPW16335   3.870   7.619   6.123  0.2711  0.4613 -0.4017
28633WAT      O16336   2.331   7.598   0.471  0.1706 -0.0129  0.1352
28633WAT     H116337   2.279   7.656   0.416 -2.1049 -0.4387  1.6681
28633WAT     H216338   2.406   7.651   0.499 -0.4361  1.2974 -0.6436
28633WAT    EPW16339   2.334   7.613   0.468 -0.2095  0.1037  0.2346
28634WAT      O16340   4.160   6.959   1.308 -0.4339 -0.1468 -0.2771
28634WAT     H116341   4.073   6.919   1.319 -2.0131  2.9425 -0.2856
28634WAT     H216342   4.166   7.023   1.379  1.3896  0.4244 -0.8880
28634WAT    EPW16343   4.149   6.962   1.319 -0.4015  0.3362 -0.3588
28635WAT      O16344   3.121   8.270   3.792 -0.8321 -0.2889 -0.0646
28635WAT     H116345   3.145   8.340   3.731  1.2762 -1.8483 -1.1702
28635WAT     H216346   3.048   8.226   3.749  0.2384 -0.9950 -1.2627
28635WAT    EPW16347   3.115   8.274   3.778 -0.4128 -0.5875 -0.3685
28636WAT      O16348   6.455   6.396   3.586  0.3931 -0.1598  0.2733
28636WAT     H116349   6.426   6.431   3.501  0.7068 -1.4080 -0.3662
28636WAT     H216350   6.439   6.468   3.648  0.9747  1.0938 -0.9788
28636WAT    EPW16351   6.449   6.410   3.583  0.5112 -0.1590  0.0238
28637WAT      O16352  -5.035   9.821   8.703  0.1230  0.8866 -0.2347
28637WAT     H116353  -5.100   9.848   8.638 -1.3850 -1.7340  0.0488
28637WAT     H216354  -4.951   9.833   8.658 -0.7201  1.5211 -1.7365
28637WAT    EPW16355  -5.032   9.826   8.688 -0.1872  0.6247 -0.3958
28638WAT      O16356   0.126   0.702   7.946  0.3788  0.4695 -0.1675
28638WAT     H116357   0.187   0.631   7.925  2.4560  0.8125  3.6811
28638WAT     H216358   0.173   0.782   7.922 -0.0056  0.6439 -0.3364
28638WAT    EPW16359   0.141   0.703   7.940  0.6021  0.5377  0.3178
28639WAT      O16360   3.309   6.948   4.182 -0.0101  0.2107 -0.2883
28639WAT     H116361   3.395   6.968   4.219 -0.6232  0.7226  0.9104
28639WAT     H216362   3.265   7.033   4.178 -1.1870 -0.3077  1.0169
28639WAT    EPW16363   3.315   6.962   4.186 -0.2462  0.2098  0.0417
28640WAT      O16364   9.472   0.501   1.511  0.7221 -0.1427 -0.1012
28640WAT     H116365   9.382   0.470   1.521  1.2941 -2.0651 -0.4841
28640WAT     H216366   9.514   0.435   1.455  1.7112  2.0130 -2.1211
28640WAT    EPW16367   9.466   0.488   1.505  0.9279 -0.1120 -0.4181
28641WAT      O16368  -0.170   0.018   0.711  0.3913  0.2312 -0.1428
28641WAT     H116369  -0.108   0.055   0.774  0.8588  0.0623 -0.4941
28641WAT     H216370  -0.241  -0.016   0.764  0.8420 -0.0294  0.3062
28641WAT    EPW16371  -0.171   0.019   0.726  0.5124  0.1745 -0.1299
28642WAT      O16372   0.546   8.451   7.244 -0.6646  0.1242  0.1589
28642WAT     H116373   0.496   8.386   7.294  1.5257 -0.3111  1.9080
28642WAT     H216374   0.488   8.528   7.240 -2.1833 -0.9641  0.4737
28642WAT    EPW16375   0.532   8.453   7.250 -0.5760 -0.0768  0.4313
28643WAT      O16376   1.790   2.296   3.611 -0.0105 -0.2848  0.2794
28643WAT     H116377   1.784   2.257   3.698  1.5076  1.3479  1.1880
28643WAT     H216378   1.712   2.352   3.605 -0.0599 -0.3099  0.6484
28643WAT    EPW16379   1.779   2.298   3.622  0.1832 -0.0727  0.4479
28644WAT      O16380   2.639   8.482   0.859  1.0653 -0.4330  0.3169
28644WAT     H116381   2.544   8.487   0.873  1.1229  0.1539  0.5268
28644WAT     H216382   2.677   8.504   0.945  1.3853 -1.7708  0.5357
28644WAT    EPW16383   2.632   8.486   0.872  1.1152 -0.5322  0.3734
28645WAT      O16384  -1.474   6.961   5.641 -0.3573  0.3908  0.4807
28645WAT     H116385  -1.438   6.879   5.606  1.3476  0.9955  0.7120
28645WAT     H216386  -1.413   6.986   5.710  0.5839  3.0785 -1.1471
28645WAT    EPW16387  -1.461   6.953   5.645 -0.0083  0.8252  0.2966
28646WAT      O16388   0.250   3.785   6.820  0.4519 -0.0995  0.0758
28646WAT     H116389   0.296   3.730   6.884  0.8327  0.2370  0.0928
28646WAT     H216390   0.157   3.774   6.842  0.5867  0.1391  0.7872
28646WAT    EPW16391   0.244   3.776   6.831  0.5199 -0.0237  0.1719
28647WAT      O16392   2.754   5.532   8.499  0.2684 -0.8690  1.0036
28647WAT     H116393   2.824   5.513   8.437  1.2860  1.1572  1.4418
28647WAT     H216394   2.678   5.485   8.465 -0.0035  2.1921 -3.3665
28647WAT    EPW16395   2.753   5.523   8.487  0.3667 -0.1979  0.4849
28648WAT      O16396  -4.331   9.758   2.155  0.0889 -0.0426  0.3066
28648WAT     H116397  -4.394   9.763   2.226 -1.2397 -0.3902 -0.8100
28648WAT     H216398  -4.250   9.794   2.192 -0.7801  0.5270  1.7250
28648WAT    EPW16399  -4.328   9.763   2.169 -0.2007 -0.0138  0.3463
28649WAT      O16400   5.831   2.720   5.754 -0.0936  0.4312 -0.3701
28649WAT     H116401   5.776   2.649   5.786 -0.6921  1.4123  0.8326
28649WAT     H216402   5.800   2.736   5.664  0.1525 -0.9005 -0.7131
28649WAT    EPW16403   5.820   2.713   5.746 -0.1402  0.3849 -0.2568
28650WAT      O16404   0.887   5.557   8.328 -0.1632  0.5928  0.2151
28650WAT     H116405   0.911   5.634   8.277 -0.9552 -0.7820 -2.3663
28650WAT     H216406   0.793   5.565   8.341 -0.2852 -0.0505 -0.2581
28650WAT    EPW16407   0.878   5.569   8.323 -0.2837  0.3266 -0.1879
28651WAT      O16408   1.412   9.802   7.177 -0.1654 -0.6343 -0.4858
28651WAT     H116409   1.378   9.786   7.089  1.3684  2.3148 -1.7671
28651WAT     H216410   1.470   9.877   7.167  1.4830 -1.2859  2.7606
28651WAT    EPW16411   1.415   9.809   7.164  0.2543 -0.3314 -0.2265
28652WAT      O16412  -2.025   6.301   4.825 -0.5077  0.4346 -0.0365
28652WAT     H116413  -1.939   6.260   4.814 -0.5723  0.9177 -3.7295
28652WAT     H216414  -2.070   6.245   4.888  1.9763 -0.6810  0.8770
28652WAT    EPW16415  -2.019   6.288   4.832 -0.1886  0.3512 -0.4029
28653WAT      O16416   4.327   2.131   7.723 -0.4903 -0.2010 -0.3490
28653WAT     H116417   4.374   2.058   7.764  1.1698 -0.3956 -2.4066
28653WAT     H216418   4.371   2.209   7.756 -0.8372 -0.2139  0.1631
28653WAT    EPW16419   4.339   2.132   7.733 -0.3173 -0.2283 -0.5529
28654WAT      O16420  -1.573  10.167   1.164 -0.1074 -0.5544  0.9564
28654WAT     H116421  -1.645  10.215   1.123 -0.3325  1.0141  3.0361
28654WAT     H216422  -1.534  10.229   1.224  2.5987 -1.5897  0.4024
28654WAT    EPW16423  -1.578  10.181   1.166  0.2198 -0.4840  1.1577
28655WAT      O16424   5.458   7.088   4.588  0.1385 -0.3952  0.5137
28655WAT     H116425   5.402   7.147   4.638 -0.6518 -1.7074  1.2356
28655WAT     H216426   5.461   7.126   4.500  1.1513  1.6876  1.3662
28655WAT    EPW16427   5.451   7.101   4.583  0.1678 -0.2935  0.7212
28656WAT      O16428   2.774   6.815   2.436 -0.1000  0.0617 -0.3762
28656WAT     H116429   2.711   6.859   2.378  0.6940  0.5857 -0.8679
28656WAT     H216430   2.740   6.829   2.524 -0.9009 -0.0422 -0.6583
28656WAT    EPW16431   2.761   6.822   2.440 -0.1009  0.1171 -0.4783
28657WAT      O16432   5.750   0.926   7.364  0.0608  0.4566  0.3791
28657WAT     H116433   5.743   0.986   7.438 -0.0550  0.2789  0.5116
28657WAT     H216434   5.664   0.926   7.323  0.4867  1.5899 -0.5640
28657WAT    EPW16435   5.738   0.934   7.368  0.1018  0.5826  0.2720
28658WAT      O16436   5.252   8.835   1.668 -0.0208 -0.6489  0.2744
28658WAT     H116437   5.343   8.863   1.683  0.8759 -3.0999 -0.1360
28658WAT     H216438   5.200   8.914   1.685  2.2718  1.2512 -0.9156
28658WAT    EPW16439   5.258   8.849   1.673  0.3998 -0.7215  0.0634
28659WAT      O16440  -3.651  10.140   1.156 -0.0212 -0.1262  0.2075
28659WAT     H116441  -3.716  10.093   1.104  0.6942 -2.5356  1.3548
28659WAT     H216442  -3.581  10.076   1.171  2.0769  1.9993  0.0325
28659WAT    EPW16443  -3.650  10.125   1.151  0.3499 -0.1636  0.3358
28660WAT      O16444  -4.599   6.612   5.637  0.0584 -0.5412  0.4960
28660WAT     H116445  -4.542   6.607   5.561  1.2285  0.6420  1.2543
28660WAT     H216446  -4.559   6.553   5.701 -1.1397 -1.8381  0.0920
28660WAT    EPW16447  -4.586   6.604   5.635  0.0548 -0.5565  0.5426
28661WAT      O16448   4.562   1.801   2.385 -0.2970  0.2965  0.6511
28661WAT     H116449   4.651   1.835   2.385 -0.1567  0.2979 -3.0057
28661WAT     H216450   4.507   1.877   2.401  0.2261  1.5892 -2.8293
28661WAT    EPW16451   4.566   1.815   2.387 -0.2096  0.4671 -0.2902
28662WAT      O16452   1.845   4.366   7.107  0.6591 -0.0312 -0.1525
28662WAT     H116453   1.817   4.355   7.198 -2.6498 -0.6793 -1.1007
28662WAT     H216454   1.816   4.454   7.083  0.2771 -0.3553 -0.9276
28662WAT    EPW16455   1.838   4.376   7.116  0.1723 -0.1593 -0.3800
28663WAT      O16456  -6.766   8.736   6.935  0.4123 -0.4396 -0.2366
28663WAT     H116457  -6.713   8.781   7.000  0.7973  0.4126 -1.1171
28663WAT     H216458  -6.771   8.645   6.966  2.9986 -0.7430 -0.4981
28663WAT    EPW16459  -6.760   8.730   6.948  0.8042 -0.3672 -0.3874
28664WAT      O16460  -3.362   1.936   5.041 -0.2450 -0.5852 -0.1531
28664WAT     H116461  -3.361   1.885   4.960  1.1643 -2.8613  1.1702
28664WAT     H216462  -3.317   2.017   5.019  0.6598 -1.4062 -1.5125
28664WAT    EPW16463  -3.356   1.940   5.027  0.0602 -0.9937 -0.1578
28665WAT      O16464  -2.974   7.105   8.583 -0.3366 -0.9380 -0.4545
28665WAT     H116465  -2.900   7.054   8.616  1.8895  1.6614 -1.1046
28665WAT     H216466  -2.979   7.081   8.490  1.9332  1.2112 -1.2307
28665WAT    EPW16467  -2.965   7.095   8.575  0.2564 -0.3116 -0.6423
28666WAT      O16468  -2.264   8.650   0.186  0.3559 -0.2662  0.0386
28666WAT     H116469  -2.279   8.718   0.252 -0.0407 -0.0529 -0.2629
28666WAT     H216470  -2.169   8.642   0.181  0.3980  0.0541  0.2928
28666WAT    EPW16471  -2.253   8.658   0.194  0.3091 -0.1955  0.0324
28667WAT      O16472  -4.657   8.019   4.056 -0.1115  0.1929  0.1868
28667WAT     H116473  -4.579   8.064   4.087 -0.3282  0.3887  0.4499
28667WAT     H216474  -4.664   7.942   4.112  1.4663 -1.3569 -1.6127
28667WAT    EPW16475  -4.648   8.015   4.067  0.0682  0.0143 -0.0160
28668WAT      O16476   1.844   9.822   3.187 -0.0464 -0.2832 -0.3306
28668WAT     H116477   1.935   9.794   3.188  0.0653  0.0813  0.8923
28668WAT     H216478   1.802   9.774   3.258 -1.1805 -1.5369 -1.7639
28668WAT    EPW16479   1.850   9.812   3.196 -0.1813 -0.4005 -0.3583
28669WAT      O16480   3.408   2.893   6.967 -0.3846  0.4895 -0.1504
28669WAT     H116481   3.322   2.881   6.927 -1.0174 -0.0586  1.3242
28669WAT     H216482   3.469   2.858   6.902 -1.3935 -0.6536 -0.5314
28669WAT    EPW16483   3.405   2.887   6.953 -0.6011  0.2664 -0.0060
28670WAT      O16484  -1.988   8.734   8.165 -0.2039 -0.1683  0.1234
28670WAT     H116485  -1.986   8.787   8.085 -2.4012 -0.5291 -0.2417
28670WAT     H216486  -1.899   8.701   8.174  0.6835  1.7896 -0.8474
28670WAT    EPW16487  -1.976   8.737   8.155 -0.3766  0.0424 -0.0525
28671WAT      O16488  -3.039   7.908   8.933  0.2491 -0.1564  0.3755
28671WAT     H116489  -3.010   7.983   8.882 -0.2941 -0.1139  0.1159
28671WAT     H216490  -3.088   7.947   9.006  0.2449 -0.2431  0.4194
28671WAT    EPW16491  -3.042   7.923   8.936  0.1769 -0.1621  0.3471
28672WAT      O16492   1.734  10.032   5.906  0.5772 -0.1193  0.1741
28672WAT     H116493   1.704  10.031   5.815  0.3923 -0.3497  0.2350
28672WAT     H216494   1.777   9.947   5.918  1.7413  0.4244 -0.0678
28672WAT    EPW16495   1.736  10.020   5.896  0.7064 -0.0787  0.1502
28673WAT      O16496   2.220   8.725   4.078  0.2135 -0.5388  0.1593
28673WAT     H116497   2.301   8.761   4.115  1.6913 -1.3680 -2.0927
28673WAT     H216498   2.247   8.645   4.034 -0.9140  1.2777 -4.4069
28673WAT    EPW16499   2.234   8.719   4.077  0.2598 -0.4086 -0.7401
28674WAT      O16500   0.928   4.762   1.962  0.0737 -0.5935  0.3725
28674WAT     H116501   0.997   4.777   2.026  0.4805  4.2092 -0.8684
28674WAT     H216502   0.921   4.844   1.913 -3.9842 -2.0920 -2.0979
28674WAT    EPW16503   0.936   4.775   1.964 -0.4078 -0.1576 -0.1171
28675WAT      O16504  -0.736   3.775   2.803 -0.1729 -0.3627 -0.1876
28675WAT     H116505  -0.790   3.815   2.872  1.0518 -0.3991  0.8160
28675WAT     H216506  -0.726   3.684   2.831  0.1380 -0.4368 -0.5458
28675WAT    EPW16507  -0.742   3.768   2.816  0.0296 -0.3772 -0.1025
28676WAT      O16508   3.719   3.977   7.957 -0.7570  0.1877 -0.0262
28676WAT     H116509   3.764   3.895   7.937  0.8476  1.0012  0.0302
28676WAT     H216510   3.775   4.019   8.022 -2.2878  0.7094  1.0197
28676WAT    EPW16511   3.732   3.972   7.963 -0.7473  0.3638  0.1192
28677WAT      O16512   6.622   8.035   2.023  0.1616  0.4667  0.9059
28677WAT     H116513   6.704   8.034   1.975  0.2697 -0.0717  1.0963
28677WAT     H216514   6.595   7.944   2.027 -0.4665  0.6454  0.8151
28677WAT    EPW16515   6.629   8.023   2.018  0.0930  0.4191  0.9191
28678WAT      O16516  -2.527   9.668   0.451  0.1717  0.9021 -1.1160
28678WAT     H116517  -2.498   9.743   0.503 -2.7805  0.6291  1.1538
28678WAT     H216518  -2.591   9.705   0.389 -0.6649  0.4145 -0.5590
28678WAT    EPW16519  -2.532   9.683   0.450 -0.3281  0.8011 -0.7432
28679WAT      O16520   2.143   5.486   8.273  0.4961 -0.7873  0.1577
28679WAT     H116521   2.171   5.498   8.363 -0.1803  1.6376  0.1140
28679WAT     H216522   2.063   5.433   8.280  1.1356 -1.6712  0.8612
28679WAT    EPW16523   2.136   5.481   8.285  0.4911 -0.5839  0.2446
28680WAT      O16524   0.165   8.941   4.629  0.4559  0.9641 -0.0168
28680WAT     H116525   0.259   8.938   4.649  0.0813  1.9438  2.1992
28680WAT     H216526   0.147   8.858   4.584  1.9109 -0.4593  1.8681
28680WAT    EPW16527   0.175   8.929   4.626  0.5984  0.9060  0.5240
28681WAT      O16528  -3.506   5.221   7.291 -0.2851 -0.0968 -0.1854
28681WAT     H116529  -3.511   5.135   7.248  1.7256  0.7743 -2.3638
28681WAT     H216530  -3.414   5.230   7.314 -0.1086  2.1099 -1.4801
28681WAT    EPW16531  -3.495   5.211   7.288  0.0035  0.3090 -0.6435
28682WAT      O16532  -3.024   7.431   4.387 -0.5786  0.0650 -0.5795
28682WAT     H116533  -3.030   7.348   4.340  0.0432 -2.0695  2.7302
28682WAT     H216534  -2.934   7.460   4.373 -0.2016 -0.8866 -0.1894
28682WAT    EPW16535  -3.013   7.424   4.379 -0.4469 -0.3421 -0.0916
28683WAT      O16536   2.118   9.170   5.594  0.0129  0.2759 -0.1687
28683WAT     H116537   2.104   9.247   5.648 -0.2626 -0.0336  0.2008
28683WAT     H216538   2.146   9.102   5.655  0.9892  0.2796 -0.5912
28683WAT    EPW16539   2.120   9.171   5.609  0.1054  0.2356 -0.1760
28684WAT      O16540  -2.477   6.572   3.754 -0.4562 -0.6692 -0.0366
28684WAT     H116541  -2.560   6.602   3.793  1.2824  0.4097  3.1689
28684WAT     H216542  -2.503   6.533   3.671 -3.8239  2.7936 -0.9282
28684WAT    EPW16543  -2.492   6.571   3.748 -0.6711 -0.0703  0.2686
28685WAT      O16544   0.063   7.187   2.908  0.4990  0.2691 -0.7382
28685WAT     H116545   0.002   7.261   2.907  0.5264  0.3237 -2.5277
28685WAT     H216546   0.012   7.114   2.874  1.3099  0.2550 -2.0109
28685WAT    EPW16547   0.048   7.187   2.903  0.6096  0.2744 -1.1421
28686WAT      O16548   5.487   9.232   3.672 -0.3250 -0.0516 -0.1069
28686WAT     H116549   5.445   9.270   3.595  1.6836  2.8262  0.0515
28686WAT     H216550   5.462   9.289   3.744  1.1489 -0.2064  0.5740
28686WAT    EPW16551   5.479   9.245   3.671  0.1345  0.3076  0.0037
28687WAT      O16552   0.037   5.622   0.648  0.3256  0.0154  0.1612
28687WAT     H116553   0.090   5.695   0.618 -0.5453  0.6357  0.1147
28687WAT     H216554   0.098   5.568   0.700  0.9950  0.6995  0.0984
28687WAT    EPW16555   0.052   5.624   0.651  0.2990  0.1874  0.1468
28688WAT      O16556  -3.816   8.558   2.435  0.5433 -0.0019 -0.2178
28688WAT     H116557  -3.846   8.571   2.345  2.1855 -1.8572 -1.1283
28688WAT     H216558  -3.887   8.590   2.490 -0.9933  0.1299 -2.2027
28688WAT    EPW16559  -3.829   8.564   2.431  0.5573 -0.2294 -0.5997
28689WAT      O16560  -3.317   9.393   0.673 -0.2810  0.4276  0.3518
28689WAT     H116561  -3.293   9.300   0.677 -1.4193  0.1560  1.6672
28689WAT     H216562  -3.245   9.438   0.718  0.9964  0.3748 -1.5537
28689WAT    EPW16563  -3.304   9.387   0.680 -0.2626  0.3848  0.2739
28690WAT      O16564   7.208   0.272   6.023  0.3061  0.1965  0.2255
28690WAT     H116565   7.243   0.203   5.967 -0.0626 -0.7808  1.1529
28690WAT     H216566   7.121   0.240   6.049  0.6239  0.4189  1.6540
28690WAT    EPW16567   7.201   0.259   6.019  0.2995  0.0969  0.5364
28691WAT      O16568  -1.807   6.341   2.283  0.2701  0.4429  0.3276
28691WAT     H116569  -1.780   6.276   2.347  1.5247 -3.0291 -3.2931
28691WAT     H216570  -1.900   6.324   2.269  0.4321 -0.1419 -0.0874
28691WAT    EPW16571  -1.816   6.330   2.289  0.4570 -0.0923 -0.2047
28692WAT      O16572   4.844   8.055   4.199  0.5349 -0.0341 -0.2241
28692WAT     H116573   4.927   8.037   4.155  2.3909  1.5271  2.3500
28692WAT     H216574   4.790   8.098   4.132  2.5063  0.6270 -1.4668
28692WAT    EPW16575   4.847   8.058   4.184  1.0397  0.2589 -0.0486
28693WAT      O16576   3.361   4.963   4.125  0.7511  0.6172  0.7768
28693WAT     H116577   3.318   4.942   4.208 -0.3427  0.5987  0.2234
28693WAT     H216578   3.424   5.031   4.147 -0.6467  1.7843  1.3743
28693WAT    EPW16579   3.364   4.969   4.139  0.4224  0.7687  0.7825
28694WAT      O16580  -2.374   6.291   7.616  0.6055  0.3202 -0.9689
28694WAT     H116581  -2.434   6.233   7.569 -2.2774  2.7997 -0.7086
28694WAT     H216582  -2.330   6.234   7.679 -2.9961 -1.5514  0.1962
28694WAT    EPW16583  -2.376   6.276   7.618 -0.2496  0.4005 -0.7811
28695WAT      O16584   2.469   7.908   5.135  0.2037  0.3374  0.2101
28695WAT     H116585   2.516   7.825   5.127  0.3878  0.2087  2.1067
28695WAT     H216586   2.442   7.911   5.227 -1.3704  1.5518 -0.2524
28695WAT    EPW16587   2.472   7.897   5.146  0.0204  0.4807  0.3991
28696WAT      O16588  -0.091   6.930   2.835 -0.2997 -0.4846 -0.0219
28696WAT     H116589  -0.131   6.876   2.904 -0.7436  0.6270  0.6219
28696WAT     H216590  -0.106   6.880   2.755 -2.6720 -0.3350  0.2352
28696WAT    EPW16591  -0.098   6.916   2.834 -0.6712 -0.3181  0.0969
28697WAT      O16592   3.551   2.786   3.988 -0.4413 -0.1694  0.3961
28697WAT     H116593   3.485   2.759   4.052  0.3631  0.9038  1.7377
28697WAT     H216594   3.543   2.881   3.984 -0.7270 -0.2237 -1.4393
28697WAT    EPW16595   3.541   2.795   3.996 -0.3729 -0.0350  0.3308
28698WAT      O16596   0.525   4.751   3.492 -0.4910  0.2583 -0.5944
28698WAT     H116597   0.537   4.657   3.506 -0.4626 -0.0142 -2.1966
28698WAT     H216598   0.463   4.757   3.420  2.3306  1.3329 -3.1799
28698WAT    EPW16599   0.518   4.740   3.484 -0.1151  0.3641 -1.1468
28699WAT      O16600   5.375   3.878   2.525  0.4605  0.2496 -0.0616
28699WAT     H116601   5.400   3.811   2.462  0.7452  1.2884 -1.1086
28699WAT     H216602   5.280   3.885   2.516 -0.3500 -3.0487  3.2560
28699WAT    EPW16603   5.366   3.870   2.515  0.3912 -0.0484  0.2379
28700WAT      O16604   3.445   7.142   0.090 -0.1680 -0.1891 -0.6384
28700WAT     H116605   3.424   7.159  -0.001  0.8718 -1.4753 -1.1519
28700WAT     H216606   3.376   7.084   0.121  0.2806 -0.9757 -1.0734
28700WAT    EPW16607   3.433   7.137   0.082  0.0283 -0.4623 -0.7635
28701WAT      O16608  -5.528   6.489   8.556  0.1370 -0.0230  0.0351
28701WAT     H116609  -5.520   6.394   8.556 -0.0059 -0.0358  0.0382
28701WAT     H216610  -5.616   6.506   8.590 -0.8317  0.0216 -2.3223
28701WAT    EPW16611  -5.539   6.479   8.561 -0.0098 -0.0186 -0.2756
28702WAT      O16612   0.676   6.453   8.802 -0.1186 -0.2681 -0.6242
28702WAT     H116613   0.622   6.512   8.750 -1.1498 -1.0204 -0.4410
28702WAT     H216614   0.711   6.507   8.872 -1.0756  0.1319 -0.4427
28702WAT    EPW16615   0.674   6.468   8.804 -0.3808 -0.3145 -0.5760
28703WAT      O16616   5.181   8.545   2.221 -0.0805 -0.0110 -0.1591
28703WAT     H116617   5.223   8.459   2.232  0.2444  0.3287  1.4509
28703WAT     H216618   5.131   8.557   2.301  0.3395  1.5585 -0.1149
28703WAT    EPW16619   5.180   8.535   2.233  0.0176  0.2403  0.0590
28704WAT      O16620   2.778   0.499   2.827 -0.1107 -0.3869  0.2643
28704WAT     H116621   2.684   0.512   2.827  0.1356  1.8507 -0.3760
28704WAT     H216622   2.801   0.483   2.736  0.1655 -0.5807  0.3648
28704WAT    EPW16623   2.769   0.499   2.815 -0.0417 -0.1173  0.1930
28705WAT      O16624  -3.147   1.793   7.265  0.4591 -0.5274  0.2795
28705WAT     H116625  -3.106   1.868   7.307  0.1860 -0.2949  0.1322
28705WAT     H216626  -3.232   1.825   7.236 -0.2446 -1.2582  1.4452
28705WAT    EPW16627  -3.153   1.807   7.267  0.3301 -0.5931  0.4137
28706WAT      O16628   5.254   0.013   3.967 -0.3108 -0.1900  0.2099
28706WAT     H116629   5.271  -0.051   4.035  1.5496  1.1203  1.0752
28706WAT     H216630   5.304   0.090   3.994  0.8938  0.2507 -2.8355
28706WAT    EPW16631   5.263   0.015   3.979  0.0937  0.0410 -0.0776
28707WAT      O16632  -0.222   8.413   4.435  0.7268 -0.4758 -0.4163
28707WAT     H116633  -0.236   8.387   4.526 -1.3469 -0.0876 -0.5804
28707WAT     H216634  -0.307   8.446   4.406  0.9466 -1.8383 -2.9189
28707WAT    EPW16635  -0.235   8.414   4.443  0.4823 -0.6046 -0.7679
28708WAT      O16636   6.591   0.842   6.234 -0.2645 -0.5999  0.3841
28708WAT     H116637   6.627   0.753   6.233  0.0466 -0.5501  2.3285
28708WAT     H216638   6.556   0.852   6.322  1.1448  1.7365  0.7676
28708WAT    EPW16639   6.591   0.832   6.246 -0.0379 -0.2852  0.6912
28709WAT      O16640  -3.829   8.184   8.736  0.3127 -0.2078  0.3152
28709WAT     H116641  -3.837   8.129   8.658  0.4670  2.1741 -1.4903
28709WAT     H216642  -3.883   8.261   8.717  0.6785  0.6246  2.4040
28709WAT    EPW16643  -3.837   8.187   8.723  0.3812  0.2160  0.3529
28710WAT      O16644  -3.603   1.317   6.972  0.2181 -0.3480  0.0904
28710WAT     H116645  -3.591   1.257   7.046 -2.2370  0.0731  0.9281
28710WAT     H216646  -3.664   1.272   6.914  0.8803  0.0109 -0.9144
28710WAT    EPW16647  -3.609   1.303   6.974 -0.0184 -0.2451  0.0682
28711WAT      O16648   1.949  10.018   4.825  0.1046  0.0738 -0.1481
28711WAT     H116649   1.888  10.004   4.898  0.9015 -0.7769  0.3642
28711WAT     H216650   1.922  10.103   4.788 -0.0327  0.7459  1.4066
28711WAT    EPW16651   1.937  10.028   4.830  0.1916  0.0505  0.1247
28712WAT      O16652  -0.299   6.779   8.147 -0.1153  0.1412 -0.2829
28712WAT     H116653  -0.297   6.706   8.085  1.2064  0.2067 -0.3477
28712WAT     H216654  -0.223   6.833   8.124  0.5291  0.0745  1.4787
28712WAT    EPW16655  -0.288   6.776   8.136  0.1440  0.1409 -0.0587
28713WAT      O16656  -4.960   8.746   5.077 -0.2692  0.2450 -0.1484
28713WAT     H116657  -4.957   8.658   5.117 -1.7606 -0.5893 -1.7144
28713WAT     H216658  -5.050   8.775   5.093 -0.0730  1.0654 -0.5254
28713WAT    EPW16659  -4.972   8.738   5.084 -0.4401  0.2432 -0.4048
28714WAT      O16660  -1.971   8.162   6.892 -0.1219  0.2781  0.1085
28714WAT     H116661  -1.959   8.068   6.874  1.8334  0.5909 -0.3929
28714WAT     H216662  -2.066   8.171   6.904 -0.5717 -1.4552 -1.5387
28714WAT    EPW16663  -1.982   8.151   6.892  0.0767  0.0906 -0.1750
28715WAT      O16664  -4.735   6.731   4.893  0.7190 -0.6543 -0.7540
28715WAT     H116665  -4.820   6.705   4.855  1.4823 -1.6489 -1.8706
28715WAT     H216666  -4.702   6.651   4.934  0.0316  0.3465  1.9207
28715WAT    EPW16667  -4.742   6.717   4.893  0.7291 -0.6533 -0.5486
28716WAT      O16668   0.670  10.188   4.146  0.4178 -0.1448  0.1689
28716WAT     H116669   0.737  10.206   4.211  0.9556  0.6704 -0.5927
28716WAT     H216670   0.688  10.249   4.074 -0.7922 -0.2925 -0.2978
28716WAT    EPW16671   0.681  10.199   4.145  0.3291 -0.0567  0.0069
28717WAT      O16672  -2.381   7.716   8.229 -0.2687  0.0547 -0.3872
28717WAT     H116673  -2.357   7.732   8.320 -1.4026 -1.5607  0.2596
28717WAT     H216674  -2.403   7.623   8.226  0.7213 -0.1865 -2.5712
28717WAT    EPW16675  -2.381   7.706   8.240 -0.2877 -0.1903 -0.5898
28718WAT      O16676  -1.581  10.286   7.467 -0.8706 -0.0478 -0.0050
28718WAT     H116677  -1.658  10.230   7.454 -0.3609 -0.8350  0.2943
28718WAT     H216678  -1.614  10.357   7.522 -1.1233 -1.0330  1.1771
28718WAT    EPW16679  -1.596  10.288   7.473 -0.8367 -0.2813  0.1905
28719WAT      O16680   2.903   2.751   3.640  0.4849 -0.2900  0.2203
28719WAT     H116681   2.895   2.681   3.705 -1.1872 -1.9099 -1.6028
28719WAT     H216682   2.989   2.738   3.600  0.2924 -1.1641  0.0733
28719WAT    EPW16683   2.913   2.740   3.643  0.2389 -0.6189 -0.0397
28720WAT      O16684   1.180   2.182   7.142  0.7079 -0.1598  0.1684
28720WAT     H116685   1.175   2.110   7.080 -0.4509  1.7257 -2.1039
28720WAT     H216686   1.271   2.186   7.169  0.6231 -3.0438  1.2014
28720WAT    EPW16687   1.191   2.173   7.138  0.5439 -0.2916  0.0050
28721WAT      O16688   4.409   4.337   1.749 -0.7557 -0.0433  0.1456
28721WAT     H116689   4.489   4.285   1.744 -1.7442 -1.6594  0.5147
28721WAT     H216690   4.351   4.298   1.683 -2.5876 -1.4069  2.3915
28721WAT    EPW16691   4.412   4.325   1.740 -1.1277 -0.4363  0.4905
28722WAT      O16692  -0.727   7.055   0.092 -0.4939  0.3006  0.0131
28722WAT     H116693  -0.676   7.130   0.122 -0.3623  0.6763 -1.0820
28722WAT     H216694  -0.664   6.983   0.086 -0.4444  0.3235  0.2691
28722WAT    EPW16695  -0.712   7.055   0.095 -0.4700  0.3531 -0.0976
28723WAT      O16696  -1.609   8.413   0.855 -0.4721 -0.0069 -0.1313
28723WAT     H116697  -1.700   8.427   0.881 -0.7999 -3.5881  1.2538
28723WAT     H216698  -1.613   8.397   0.761 -1.4625 -1.1206  0.0811
28723WAT    EPW16699  -1.621   8.413   0.846 -0.6459 -0.6261  0.0794
28724WAT      O16700   4.476   8.930   3.251  0.0315 -0.3671  0.2988
28724WAT     H116701   4.385   8.949   3.226  0.7628  2.5642 -0.4878
28724WAT     H216702   4.524   8.930   3.168  0.8308 -1.6032  0.7327
28724WAT    EPW16703   4.470   8.932   3.237  0.2332 -0.1435  0.2522
28725WAT      O16704   3.472   4.058   7.867 -0.6711 -0.7061 -0.6978
28725WAT     H116705   3.482   4.134   7.810 -1.4719  0.2468  0.3806
28725WAT     H216706   3.557   4.050   7.911 -1.0930  0.6792  0.4680
28725WAT    EPW16707   3.485   4.067   7.865 -0.8323 -0.3974 -0.4020
28726WAT      O16708   1.157   0.308   2.988 -0.1834  0.3669 -0.1087
28726WAT     H116709   1.193   0.298   2.900  0.9380  0.5813  0.3168
28726WAT     H216710   1.063   0.290   2.977  0.1751 -1.0542 -1.0698
28726WAT    EPW16711   1.149   0.304   2.975  0.0118  0.2077 -0.1794
28727WAT      O16712  -0.528   2.794   6.395  0.2036  0.6136 -0.1216
28727WAT     H116713  -0.550   2.820   6.306  1.5628 -1.5143 -1.1599
28727WAT     H216714  -0.531   2.698   6.394 -0.5697  0.5317  2.3686
28727WAT    EPW16715  -0.531   2.785   6.383  0.2809  0.3221  0.0699
28728WAT      O16716   0.499   7.934   7.992 -0.5767  0.1331  0.1859
28728WAT     H116717   0.431   8.000   7.984 -2.1239 -1.4039  0.0467
28728WAT     H216718   0.452   7.850   7.987  1.5889 -1.0546 -2.5308
28728WAT    EPW16719   0.484   7.931   7.990 -0.4952 -0.2263 -0.1907
28729WAT      O16720  -6.085   9.150   7.622  0.6121  0.2819 -0.7965
28729WAT     H116721  -6.105   9.217   7.688  0.9435  0.4340 -0.8544
28729WAT     H216722  -6.134   9.178   7.544 -0.6305 -0.4506 -0.3120
28729WAT    EPW16723  -6.094   9.162   7.621  0.4919  0.2050 -0.7403
28730WAT      O16724   6.242   5.952   3.215 -0.5376 -0.5925  0.2176
28730WAT     H116725   6.150   5.965   3.194 -0.7974 -1.8626  0.4891
28730WAT     H216726   6.275   5.895   3.145  0.9823  2.6181 -1.9022
28730WAT    EPW16727   6.234   5.946   3.203 -0.3715 -0.3366 -0.0261
28731WAT      O16728  -2.147   2.506   8.858 -0.3367  0.6534  0.1608
28731WAT     H116729  -2.107   2.529   8.775  0.6640  0.1323  0.4770
28731WAT     H216730  -2.184   2.419   8.844  0.8566  0.0592  0.5740
28731WAT    EPW16731  -2.147   2.498   8.845 -0.0473  0.5063  0.2575
28732WAT      O16732   4.121   8.742   0.266  0.1598  0.4327  0.7832
28732WAT     H116733   4.091   8.811   0.206 -1.1583 -1.5440 -0.9472
28732WAT     H216734   4.211   8.766   0.287 -0.0293  2.2980 -0.3127
28732WAT    EPW16735   4.129   8.755   0.261 -0.0389  0.4182  0.4105
28733WAT      O16736   4.071   1.843   7.496 -0.7487  0.6927 -0.9850
28733WAT     H116737   4.026   1.764   7.524 -0.9669  0.5129 -1.8188
28733WAT     H216738   4.162   1.830   7.524 -1.1907  1.0580  0.6887
28733WAT    EPW16739   4.077   1.831   7.503 -0.8357  0.7172 -0.8743
28734WAT      O16740   2.096   3.339   5.017 -0.1037 -0.5447  0.3828
28734WAT     H116741   2.157   3.355   5.089  1.1308 -1.1911 -0.4763
28734WAT     H216742   2.057   3.424   5.000 -1.9014 -0.7140  3.0481
28734WAT    EPW16743   2.099   3.352   5.024 -0.1780 -0.6523  0.6208
28735WAT      O16744  -1.168   4.653   2.659  0.5794  0.6420 -0.0630
28735WAT     H116745  -1.214   4.723   2.704 -2.2479  0.0704 -1.7887
28735WAT     H216746  -1.187   4.574   2.710 -0.1147  0.4582 -0.5902
28735WAT    EPW16747  -1.176   4.652   2.672  0.1150  0.5422 -0.3601
28736WAT      O16748   2.028   7.258   0.456  0.0528 -0.6314  0.2299
28736WAT     H116749   1.971   7.302   0.520 -0.2524 -2.2402  1.0966
28736WAT     H216750   1.970   7.196   0.412  0.2595  0.4281 -1.6603
28736WAT    EPW16751   2.013   7.256   0.458  0.0398 -0.7038  0.0949
28737WAT      O16752   0.255   9.874   7.243  1.1289 -0.5912 -0.1098
28737WAT     H116753   0.305   9.923   7.177  2.0951  0.5028  1.3796
28737WAT     H216754   0.179   9.841   7.194  0.9576  1.5245 -1.4578
28737WAT    EPW16755   0.251   9.876   7.228  1.2337 -0.1678 -0.0911
28738WAT      O16756  -1.172   8.153   1.967  0.5283  0.0824  0.7303
28738WAT     H116757  -1.196   8.097   2.041  2.6185 -0.7439  0.8771
28738WAT     H216758  -1.238   8.221   1.965 -2.1902 -2.3743  0.5413
28738WAT    EPW16759  -1.184   8.154   1.977  0.4454 -0.3510  0.7248
28739WAT      O16760  -3.469   9.391   1.619  0.5099 -0.0215  0.2233
28739WAT     H116761  -3.436   9.302   1.602 -0.2585  0.0985 -2.1969
28739WAT     H216762  -3.545   9.378   1.676  0.9190 -0.8212  0.6098
28739WAT    EPW16763  -3.474   9.378   1.624  0.4625 -0.1111 -0.0449
28740WAT      O16764   2.651   4.413   3.798 -0.4754 -0.1831 -0.1615
28740WAT     H116765   2.642   4.430   3.892 -0.5172 -0.8616 -0.0327
28740WAT     H216766   2.561   4.402   3.767 -0.4349 -0.5813 -0.1500
28740WAT    EPW16767   2.638   4.414   3.806 -0.4754 -0.3250 -0.1431
28741WAT      O16768  -1.524   7.973   2.772 -0.0153 -0.2589  0.6537
28741WAT     H116769  -1.588   8.044   2.783 -0.4579 -0.6785  0.8029
28741WAT     H216770  -1.440   8.014   2.795  0.0602  0.8096 -1.3401
28741WAT    EPW16771  -1.522   7.988   2.777 -0.0637 -0.1733  0.4104
28742WAT      O16772   0.830   0.708   1.838 -0.1279 -0.0554 -0.2498
28742WAT     H116773   0.871   0.780   1.887  0.5505 -0.7672  0.2482
28742WAT     H216774   0.774   0.664   1.903 -1.3588  0.6208 -0.8071
28742WAT    EPW16775   0.828   0.712   1.853 -0.2008 -0.0601 -0.2576
28743WAT      O16776  -2.754   8.636   3.138 -0.0667  0.1182 -0.3052
28743WAT     H116777  -2.778   8.721   3.101  0.0794  0.6612  0.8049
28743WAT     H216778  -2.659   8.629   3.125  0.2304  0.9426  1.1539
28743WAT    EPW16779  -2.745   8.646   3.132 -0.0083  0.2985  0.0337
28744WAT      O16780   0.530   0.687   6.498  0.1418 -0.6104 -0.1122
28744WAT     H116781   0.454   0.638   6.468  0.9384 -1.6785 -0.4741
28744WAT     H216782   0.599   0.663   6.436  0.3559  1.7160 -0.8819
28744WAT    EPW16783   0.529   0.678   6.486  0.2751 -0.4444 -0.2615
28745WAT      O16784  -3.758   6.050   5.021  0.2284  0.5161 -0.1524
28745WAT     H116785  -3.825   5.985   5.002  1.3398 -0.7983  0.2971
28745WAT     H216786  -3.676   6.001   5.022  0.7175  0.9255  4.8140
28745WAT    EPW16787  -3.756   6.035   5.019  0.4395  0.3967  0.5620
28746WAT      O16788   0.980   6.916   3.919  0.4923  0.0755  0.2339
28746WAT     H116789   0.952   6.985   3.859  1.7871  0.8851  0.5319
28746WAT     H216790   0.904   6.858   3.926 -0.2152  0.8251 -0.9388
28746WAT    EPW16791   0.966   6.917   3.912  0.5697  0.2813  0.1185
28747WAT      O16792   3.369   9.502   1.295 -0.2782  0.0393  0.5623
28747WAT     H116793   3.379   9.551   1.376  2.3808 -2.6397  2.0547
28747WAT     H216794   3.369   9.410   1.322 -2.0507 -0.9559 -2.3064
28747WAT    EPW16795   3.370   9.496   1.309 -0.1613 -0.4449  0.3808
28748WAT      O16796  -2.409   0.241   7.418 -0.4745 -0.0150  0.3811
28748WAT     H116797  -2.474   0.178   7.449 -3.0581  2.0686 -0.3268
28748WAT     H216798  -2.395   0.218   7.326 -1.3625  0.3545  0.1408
28748WAT    EPW16799  -2.416   0.230   7.410 -0.9323  0.3085  0.2563
28749WAT      O16800  -2.273   9.111   3.406 -0.1600  0.4037 -0.2414
28749WAT     H116801  -2.338   9.134   3.340  0.0526  1.2029 -0.1731
28749WAT     H216802  -2.199   9.076   3.356  0.2969  1.6786 -0.5022
28749WAT    EPW16803  -2.272   9.109   3.391 -0.0718  0.6776 -0.2667
28750WAT      O16804  -0.823   7.899   1.340  0.5296  0.3961  0.7283
28750WAT     H116805  -0.870   7.957   1.400 -0.2257 -1.1809  1.7135
28750WAT     H216806  -0.793   7.826   1.395  4.3363  1.3532  0.1946
28750WAT    EPW16807  -0.825   7.897   1.355  0.9321  0.3145  0.7879
28751WAT      O16808  -1.085   8.633   1.122  0.3051  0.4110  0.1567
28751WAT     H116809  -1.058   8.678   1.042  0.5015 -0.4725 -0.2759
28751WAT     H216810  -1.153   8.573   1.094  0.1813  0.2919  0.7039
28751WAT    EPW16811  -1.090   8.631   1.108  0.3147  0.2789  0.1718
28752WAT      O16812   4.611   1.490   8.490 -0.7013  0.1747  0.1508
28752WAT     H116813   4.672   1.524   8.425 -0.7588 -0.9866 -0.5264
28752WAT     H216814   4.571   1.569   8.528  2.6124  1.1366  2.0929
28752WAT    EPW16815   4.614   1.505   8.487 -0.2718  0.1484  0.3176
28753WAT      O16816  -1.297   7.692   0.887 -0.5623  0.1104 -0.1217
28753WAT     H116817  -1.305   7.731   0.975 -0.4716 -0.5495  0.1813
28753WAT     H216818  -1.203   7.691   0.870 -0.6164  0.8470 -0.5104
28753WAT    EPW16819  -1.286   7.697   0.897 -0.5574  0.1202 -0.1330
28754WAT      O16820   1.649   8.486   1.006  0.5289  0.7115 -0.8902
28754WAT     H116821   1.665   8.478   1.100  0.2915 -0.1777 -0.9203
28754WAT     H216822   1.653   8.396   0.972  2.9136  1.1806 -2.1289
28754WAT    EPW16823   1.652   8.473   1.014  0.8121  0.6561 -1.0575
28755WAT      O16824   4.067   3.946   8.288  0.6030  0.1421 -0.6081
28755WAT     H116825   3.982   3.903   8.299 -0.2338  1.9756  0.7068
28755WAT     H216826   4.075   4.002   8.366  1.8838  1.8593 -1.9014
28755WAT    EPW16827   4.057   3.948   8.300  0.6614  0.6104 -0.6056
28756WAT      O16828  -6.987   9.070   6.522  0.7543 -0.1980  0.3679
28756WAT     H116829  -7.002   9.092   6.614 -0.2742 -1.3971  0.5176
28756WAT     H216830  -7.075   9.063   6.484  1.1709  0.8673 -0.8808
28756WAT    EPW16831  -7.001   9.072   6.529  0.6738 -0.2155  0.2229
28757WAT      O16832  -0.389   9.488   8.186  0.1424  0.3547 -0.3725
28757WAT     H116833  -0.462   9.468   8.127 -0.2776  1.5354 -0.2918
28757WAT     H216834  -0.312   9.453   8.142 -0.5633 -1.8106  0.0034
28757WAT    EPW16835  -0.389   9.481   8.172 -0.0061  0.2246 -0.3123
28758WAT      O16836   0.391   5.630   7.178 -0.2302 -0.3913  0.0429
28758WAT     H116837   0.377   5.723   7.159 -2.7663 -0.4992  1.0260
28758WAT     H216838   0.483   5.625   7.205 -0.0792  1.8554  0.1820
28758WAT    EPW16839   0.401   5.642   7.179 -0.5448 -0.1092  0.1910
28759WAT      O16840   2.058   7.072   0.645  0.0717  0.0227 -1.0262
28759WAT     H116841   2.078   7.113   0.729  0.9187  0.3465 -1.3685
28759WAT     H216842   2.075   7.141   0.580  1.9640 -0.9664 -1.6512
28759WAT    EPW16843   2.063   7.086   0.647  0.4330 -0.0648 -1.1538
28760WAT      O16844   2.344   9.293   1.380 -0.1469  0.0187  0.0645
28760WAT     H116845   2.331   9.354   1.452 -0.2430 -0.0358  0.0943
28760WAT     H216846   2.263   9.298   1.330 -0.1717 -0.1134  0.0906
28760WAT    EPW16847   2.331   9.301   1.383 -0.1628 -0.0057  0.0718
28761WAT      O16848   2.044   1.451   0.280  0.5211 -0.2943  0.3666
28761WAT     H116849   1.966   1.462   0.334  0.4584 -0.1663  0.2498
28761WAT     H216850   2.101   1.525   0.303 -0.0376  0.4901 -0.6543
28761WAT    EPW16851   2.042   1.462   0.290  0.4392 -0.1739  0.2166
28762WAT      O16852   0.974   4.215   3.131 -0.3837 -0.2405  0.2923
28762WAT     H116853   0.936   4.302   3.141  0.4772  0.1787  0.0263
28762WAT     H216854   1.004   4.191   3.219 -0.7482 -0.3315  0.3925
28762WAT    EPW16855   0.973   4.224   3.144 -0.3182 -0.1972  0.2704
28763WAT      O16856  -2.893   5.946   4.631 -0.4500 -0.1464  0.7648
28763WAT     H116857  -2.862   6.004   4.561  0.4418 -2.1922 -0.6146
28763WAT     H216858  -2.980   5.980   4.653 -2.1489 -1.1499 -3.4962
28763WAT    EPW16859  -2.900   5.958   4.625 -0.5563 -0.5486  0.0210
28764WAT      O16860  -0.111   3.560   6.036  0.0337  0.6686  0.1907
28764WAT     H116861  -0.050   3.570   6.109  0.6257 -0.3175 -0.1523
28764WAT     H216862  -0.084   3.479   5.993 -1.7399  0.0062  0.2406
28764WAT    EPW16863  -0.099   3.550   6.040 -0.1221  0.4512  0.1521
28765WAT      O16864   2.129   9.959   3.593  0.2532 -0.4058  0.1489
28765WAT     H116865   2.139   9.877   3.641 -1.0688 -0.4739  0.3399
28765WAT     H216866   2.122  10.026   3.660  1.6084 -0.0791 -0.0094
28765WAT    EPW16867   2.129   9.957   3.608  0.2576 -0.3715  0.1532
28766WAT      O16868   4.368   1.574   7.454  0.1030  0.4869 -0.0346
28766WAT     H116869   4.385   1.663   7.485 -1.2526  0.3848  1.1184
28766WAT     H216870   4.412   1.569   7.369 -0.5149  2.5443 -0.5293
28766WAT    EPW16871   4.376   1.585   7.447 -0.1574  0.7448  0.0522
28767WAT      O16872   3.609   9.766   0.211  0.1298 -0.2218  0.1687
28767WAT     H116873   3.647   9.730   0.131  0.9355  0.1939  0.3555
28767WAT     H216874   3.610   9.693   0.274 -0.8764 -0.6675 -0.2960
28767WAT    EPW16875   3.614   9.751   0.209  0.1032 -0.2255  0.1320
28768WAT      O16876   0.572   1.044   5.160  0.2461  0.2980  0.7976
28768WAT     H116877   0.623   0.965   5.173  1.9998  1.2991  0.3532
28768WAT     H216878   0.604   1.105   5.226 -1.2178  0.5948  1.2741
28768WAT    EPW16879   0.583   1.042   5.170  0.2843  0.4691  0.8018
28769WAT      O16880  -2.127   1.831   3.794 -0.2224 -0.1314  0.1301
28769WAT     H116881  -2.191   1.883   3.841  0.2048  0.9948 -0.4828
28769WAT     H216882  -2.083   1.894   3.736 -0.1610 -1.2990 -1.1444
28769WAT    EPW16883  -2.129   1.846   3.792 -0.1580 -0.1369 -0.1189
28770WAT      O16884   3.666   2.968   5.628 -0.0695  0.5938  0.3507
28770WAT     H116885   3.574   2.964   5.653  0.0774  0.8084  0.9376
28770WAT     H216886   3.700   2.881   5.650 -0.0298  0.6587  0.5489
28770WAT    EPW16887   3.659   2.956   5.634 -0.0448  0.6306  0.4542
28771WAT      O16888   2.364   6.855   4.423 -0.1710 -0.3011  0.3013
28771WAT     H116889   2.389   6.940   4.458  0.9941 -1.1867  1.7480
28771WAT     H216890   2.425   6.793   4.465 -0.4503 -1.7525 -1.3174
28771WAT    EPW16891   2.376   6.858   4.433 -0.0541 -0.6092  0.2787
28772WAT      O16892   6.306   0.813   6.059  0.1150 -0.5884 -0.1133
28772WAT     H116893   6.390   0.769   6.048  0.2834 -0.4614  0.6189
28772WAT     H216894   6.298   0.826   6.153  0.3095  1.3971 -0.3366
28772WAT    EPW16895   6.316   0.809   6.070  0.1628 -0.3098 -0.0460
28773WAT      O16896   4.461   1.271   3.054 -0.8078 -0.2172  0.3662
28773WAT     H116897   4.528   1.202   3.064 -0.8693 -0.3991 -0.4074
28773WAT     H216898   4.508   1.343   3.013 -0.5629  0.5088  1.8540
28773WAT    EPW16899   4.476   1.271   3.050 -0.7834 -0.1454  0.4604
28774WAT      O16900   7.924   0.210   4.103  0.1013 -0.3429 -0.6920
28774WAT     H116901   8.011   0.189   4.137  0.1054 -0.2351 -0.6329
28774WAT     H216902   7.865   0.153   4.152 -0.0963  1.1113  0.8813
28774WAT    EPW16903   7.928   0.200   4.114  0.0758 -0.1369 -0.4766
28775WAT      O16904  -3.308   5.237   8.525  0.0311 -0.1395  0.3588
28775WAT     H116905  -3.220   5.202   8.532 -0.2719 -1.0716 -0.3002
28775WAT     H216906  -3.366   5.162   8.541 -0.6375  0.3642  0.3682
28775WAT    EPW16907  -3.304   5.223   8.528 -0.0972 -0.1960  0.2732
28776WAT      O16908   5.308   3.063   3.931  0.4968  0.0872 -0.0955
28776WAT     H116909   5.309   2.969   3.951 -5.0034 -1.1982 -3.5514
28776WAT     H216910   5.343   3.068   3.842 -0.4284  1.0426 -0.4203
28776WAT    EPW16911   5.313   3.051   3.922 -0.3507  0.0437 -0.5940
28777WAT      O16912   3.386   2.761   6.569 -0.9469 -0.8466  0.5796
28777WAT     H116913   3.417   2.674   6.596 -0.5158 -1.1179 -0.6936
28777WAT     H216914   3.292   2.749   6.554 -1.6734 -0.1807  3.8305
28777WAT    EPW16915   3.378   2.748   6.571 -0.9859 -0.7945  0.8404
28778WAT      O16916   5.005   9.817   3.273  0.2623 -0.1091  0.0349
28778WAT     H116917   4.988   9.902   3.232  0.6858 -0.1967 -0.3285
28778WAT     H216918   4.945   9.814   3.347 -0.8618 -0.1414 -0.8405
28778WAT    EPW16919   4.995   9.828   3.277  0.1698 -0.1249 -0.1285
28779WAT      O16920   3.213   0.690   7.473 -0.1551 -0.4156 -0.5349
28779WAT     H116921   3.152   0.653   7.409  1.5148 -0.7318 -2.0443
28779WAT     H216922   3.182   0.780   7.486 -0.9847 -0.5881 -1.2017
28779WAT    EPW16923   3.201   0.697   7.466 -0.0443 -0.4801 -0.8221
28780WAT      O16924   1.634   2.805   4.452 -0.4401 -0.0196 -0.1090
28780WAT     H116925   1.689   2.880   4.428 -0.7910  0.4681  0.5728
28780WAT     H216926   1.637   2.748   4.375  1.9754 -0.5998  0.3286
28780WAT    EPW16927   1.641   2.807   4.439 -0.1678 -0.0318  0.0389
28781WAT      O16928   0.627   1.298   3.534  0.0015  0.8919  0.2599
28781WAT     H116929   0.706   1.243   3.533 -0.4392  0.2393 -1.6636
28781WAT     H216930   0.629   1.344   3.451 -1.3008  1.3975  0.4963
28781WAT    EPW16931   0.638   1.297   3.523 -0.2284  0.8726  0.0374
28782WAT      O16932  -2.551   0.589   4.765  0.3748  0.2072 -0.7525
28782WAT     H116933  -2.620   0.547   4.713 -0.3721 -1.0557  1.1229
28782WAT     H216934  -2.489   0.518   4.784 -2.4010 -1.2377  4.9859
28782WAT    EPW16935  -2.552   0.574   4.761 -0.0898 -0.1499  0.2518
28783WAT      O16936  -1.590   4.972   1.826 -0.4253  0.0789 -0.3761
28783WAT     H116937  -1.617   4.886   1.857 -1.5077  1.5200  3.1946
28783WAT     H216938  -1.501   4.983   1.858 -0.9404  0.9195  0.8617
28783WAT    EPW16939  -1.582   4.962   1.834 -0.6360  0.3798  0.2581
28784WAT      O16940  -3.450   7.405   8.608  0.4600  0.0350  0.1251
28784WAT     H116941  -3.498   7.343   8.663  1.8779  0.9029  2.4779
28784WAT     H216942  -3.360   7.373   8.609  0.4570 -0.2306 -2.2484
28784WAT    EPW16943  -3.444   7.392   8.616  0.6466  0.1142  0.1225
28785WAT      O16944   1.956   5.212   0.536 -0.1157  1.3624 -0.6351
28785WAT     H116945   1.979   5.286   0.593 -0.7619  0.2252  1.1810
28785WAT     H216946   2.036   5.196   0.485  0.9628  1.5871  0.9092
28785WAT    EPW16947   1.970   5.220   0.537 -0.0587  1.2422 -0.1919
28786WAT      O16948   9.381   3.182   0.478  0.4608 -0.3564 -0.0509
28786WAT     H116949   9.410   3.138   0.558  2.0509 -0.5073 -0.6794
28786WAT     H216950   9.413   3.271   0.487  1.1027 -0.5111 -0.7441
28786WAT    EPW16951   9.389   3.188   0.490  0.7548 -0.3967 -0.2252
28787WAT      O16952   4.408   4.927   7.261 -0.0237 -0.5817  0.3546
28787WAT     H116953   4.383   5.003   7.209  4.1511 -0.0728 -1.2806
28787WAT     H216954   4.462   4.963   7.331 -0.2439 -1.8423  1.1948
28787WAT    EPW16955   4.412   4.942   7.263  0.4978 -0.6809  0.2496
28788WAT      O16956   2.583   8.072   7.717 -0.4334  0.6924  0.2247
28788WAT     H116957   2.545   8.155   7.688  3.5470  2.0717 -1.8653
28788WAT     H216958   2.651   8.098   7.780  1.9166 -0.6935 -1.5769
28788WAT    EPW16959   2.587   8.086   7.722  0.4015  0.6914 -0.2885
28789WAT      O16960   5.263   5.509   4.287 -0.6552  0.6845  0.1079
28789WAT     H116961   5.298   5.469   4.208 -1.2996  0.1311  0.0921
28789WAT     H216962   5.297   5.454   4.359  0.2952  1.4479  0.2599
28789WAT    EPW16963   5.272   5.496   4.286 -0.6146  0.7122  0.1256
28790WAT      O16964  -1.041   3.584   0.871  0.6229 -0.5407 -0.0236
28790WAT     H116965  -0.980   3.529   0.920 -0.5196 -1.6001  0.2757
28790WAT     H216966  -1.126   3.571   0.915  0.0887  0.5627 -0.6676
28790WAT    EPW16967  -1.044   3.575   0.883  0.4017 -0.5349 -0.0691
28791WAT      O16968  -0.845   1.159   8.885  0.9167  0.0836  0.2849
28791WAT     H116969  -0.828   1.068   8.861 -1.0769  0.1036 -1.4342
28791WAT     H216970  -0.852   1.206   8.802 -0.6010  1.2948  1.0374
28791WAT    EPW16971  -0.844   1.153   8.871  0.4535  0.2460  0.1574
28792WAT      O16972   1.880   3.269   8.681  0.1315 -0.7296 -0.1019
28792WAT     H116973   1.844   3.252   8.594  0.7379 -1.0086 -0.3098
28792WAT     H216974   1.921   3.355   8.674 -1.4499  0.1165  0.4616
28792WAT    EPW16975   1.881   3.278   8.669  0.0029 -0.6547 -0.0548
28793WAT      O16976   2.789   5.131   0.466 -0.3086 -0.0749  0.2071
28793WAT     H116977   2.819   5.184   0.393 -0.7735  0.2303  0.2280
28793WAT     H216978   2.800   5.040   0.437  0.7184  0.0237  0.2669
28793WAT    EPW16979   2.794   5.126   0.453 -0.2345 -0.0217  0.2177
28794WAT      O16980  -1.576   7.696   5.297  0.5214 -0.3031 -0.2760
28794WAT     H116981  -1.493   7.742   5.293  0.5610 -0.3897 -0.4491
28794WAT     H216982  -1.639   7.761   5.329  0.1676  0.4537 -2.3682
28794WAT    EPW16983  -1.574   7.710   5.301  0.4800 -0.2146 -0.5746
28795WAT      O16984   6.086   2.225   2.721  0.0616 -0.0636 -0.1306
28795WAT     H116985   6.110   2.298   2.778 -0.3178  0.4428 -0.6147
28795WAT     H216986   6.168   2.201   2.678  0.3796 -0.5311  0.7082
28795WAT    EPW16987   6.100   2.231   2.723  0.0536 -0.0584 -0.0838
28796WAT      O16988   3.648   2.654   2.949 -0.1317 -0.4117  0.3459
28796WAT     H116989   3.636   2.712   2.874  0.9505 -1.1045 -0.3872
28796WAT     H216990   3.739   2.626   2.944  0.0845 -0.1997  2.1337
28796WAT    EPW16991   3.658   2.658   2.939  0.0395 -0.4752  0.4851
28797WAT      O16992   0.804   4.342   8.129  0.3672  0.3179 -0.6441
28797WAT     H116993   0.814   4.325   8.223  1.8503 -4.2285 -1.3689
28797WAT     H216994   0.746   4.272   8.098 -0.9254  2.2920 -3.0616
28797WAT    EPW16995   0.797   4.330   8.137  0.3923 -0.0215 -1.0581
28798WAT      O16996   0.985   9.656   2.258  0.3015 -0.8900 -0.4038
28798WAT     H116997   1.023   9.709   2.188 -0.5383 -1.0502 -1.0018
28798WAT     H216998   0.988   9.566   2.224 -1.1392 -0.8359 -0.7213
28798WAT    EPW16999   0.990   9.651   2.244  0.0007 -0.9041 -0.5245
28799WAT      O17000  -1.650   9.862   1.450  0.3730 -0.3007 -0.1723
28799WAT     H117001  -1.736   9.867   1.408  0.3488 -0.8799 -0.1948
28799WAT     H217002  -1.592   9.911   1.391  0.4234 -1.4524 -1.1213
28799WAT    EPW17003  -1.654   9.870   1.437  0.3765 -0.5293 -0.3005
28800WAT      O17004   5.911   2.951   6.079 -0.6577 -0.0055  0.1620
28800WAT     H117005   5.825   2.923   6.048  0.3013 -2.9908 -0.0522
28800WAT     H217006   5.953   2.988   6.001 -0.4544 -1.9106 -0.6782
28800WAT    EPW17007   5.905   2.952   6.064 -0.5045 -0.6505  0.0229
28801WAT      O17008   2.599   5.711   5.269 -0.2102  0.2758  0.4098
28801WAT     H117009   2.560   5.645   5.326 -0.3753  0.0932  0.0882
28801WAT     H217010   2.677   5.669   5.234  0.3611  0.6839  1.1518
28801WAT    EPW17011   2.604   5.697   5.272 -0.1566  0.3057  0.4652
28802WAT      O17012   3.340   0.026   2.999  0.2026 -0.3069 -0.1275
28802WAT     H117013   3.411   0.010   2.936  1.0162 -1.3020  0.9868
28802WAT     H217014   3.266  -0.023   2.964 -0.2221  1.4055 -1.7359
28802WAT    EPW17015   3.340   0.017   2.986  0.2539 -0.2123 -0.1926
28803WAT      O17016   4.323   4.641   4.630  0.0137 -0.2252 -0.8700
28803WAT     H117017   4.357   4.555   4.606  1.3856  0.1124 -0.2558
28803WAT     H217018   4.361   4.700   4.565  2.2733  0.4338  0.9027
28803WAT    EPW17019   4.332   4.638   4.618  0.4926 -0.0937 -0.5550
28804WAT      O17020  -0.691   4.516   7.377 -0.1639 -0.1156 -0.4591
28804WAT     H117021  -0.701   4.582   7.446  0.7055 -1.0433  0.6010
28804WAT     H217022  -0.771   4.521   7.326 -0.9367  0.4334  0.7749
28804WAT    EPW17023  -0.703   4.526   7.379 -0.1511 -0.1655 -0.1564
28805WAT      O17024   3.173   6.365   8.754  0.0281  0.3779 -0.6576
28805WAT     H117025   3.085   6.386   8.722 -0.1628  0.7660  0.0986
28805WAT     H217026   3.223   6.345   8.675 -0.9175 -0.5419 -1.0449
28805WAT    EPW17027   3.168   6.365   8.740 -0.1216  0.3078 -0.6089
28806WAT      O17028  -1.656   4.013   6.762 -0.4248  0.3663  0.4279
28806WAT     H117029  -1.562   4.027   6.757 -0.0109 -2.3478 -1.5144
28806WAT     H217030  -1.693   4.077   6.701  0.5219 -0.6809 -1.3221
28806WAT    EPW17031  -1.649   4.023   6.753 -0.2453 -0.1299 -0.0589
28807WAT      O17032  -0.217   0.704   6.881 -0.0832 -0.3217  0.1699
28807WAT     H117033  -0.178   0.642   6.944  2.5819  1.2173  0.1872
28807WAT     H217034  -0.253   0.774   6.935  0.8318  0.2434  0.0740
28807WAT    EPW17035  -0.216   0.705   6.897  0.3889 -0.0442  0.1595
28808WAT      O17036  -2.790   6.438   1.378  0.0191  0.0047 -0.4744
28808WAT     H117037  -2.855   6.400   1.319 -0.3792  1.9102 -1.3627
28808WAT     H217038  -2.771   6.369   1.442 -2.5743 -0.7655 -0.4205
28808WAT    EPW17039  -2.796   6.424   1.379 -0.3755  0.1545 -0.5844
28809WAT      O17040  -1.548   8.252   7.037 -0.0781 -0.3131 -0.0449
28809WAT     H117041  -1.545   8.190   6.965 -1.6773 -0.5827  0.0642
28809WAT     H217042  -1.457   8.266   7.062  0.5555  0.2575 -2.4843
28809WAT    EPW17043  -1.536   8.245   7.031 -0.2055 -0.2737 -0.3524
28810WAT      O17044   5.965   0.617   0.887  0.6980  0.5885  0.1348
28810WAT     H117045   5.996   0.661   0.966  2.0394  0.9222 -0.5399
28810WAT     H217046   5.958   0.688   0.822  0.1450  0.2386 -0.1955
28810WAT    EPW17047   5.968   0.632   0.889  0.8020  0.5864  0.0023
28811WAT      O17048  -2.874   0.986   4.830 -0.0541 -0.3782  0.3687
28811WAT     H117049  -2.905   0.897   4.849  2.3338 -1.3488  0.1575
28811WAT     H217050  -2.861   1.026   4.915  0.7701 -0.9955  0.5516
28811WAT    EPW17051  -2.876   0.979   4.844  0.3695 -0.5876  0.3650
28812WAT      O17052  -0.446   9.463   1.813  0.8147 -0.0467  0.1635
28812WAT     H117053  -0.417   9.552   1.837  3.1257 -0.2319 -1.5588
28812WAT     H217054  -0.530   9.476   1.770  0.3372  1.1116  1.3949
28812WAT    EPW17055  -0.453   9.477   1.810  1.0565  0.0815  0.0987
28813WAT      O17056  -2.291   9.454   2.691  0.8757  0.5044  0.6194
28813WAT     H117057  -2.309   9.371   2.646  1.8391 -1.7310  3.9525
28813WAT     H217058  -2.377   9.483   2.722  0.6959  0.0424  0.5651
28813WAT    EPW17059  -2.305   9.447   2.689  0.9789  0.1488  1.0519
28814WAT      O17060  -0.960   7.970   4.094  0.6758  0.5011  0.6652
28814WAT     H117061  -0.979   7.877   4.099  2.9325 -0.2245 -1.8821
28814WAT     H217062  -1.019   8.003   4.026  0.0327  0.9340  1.4123
28814WAT    EPW17063  -0.970   7.962   4.086  0.8886  0.4628  0.4277
28815WAT      O17064  -0.528   1.033   8.949  0.2087  0.2434 -0.3044
28815WAT     H117065  -0.595   1.011   8.884 -0.5297  2.5453 -0.4040
28815WAT     H217066  -0.462   0.964   8.939  0.3958  0.7304 -3.9204
28815WAT    EPW17067  -0.528   1.021   8.939  0.1360  0.6112 -0.7944
28816WAT      O17068  -0.035   0.431   3.131  0.2628  0.0804  0.1058
28816WAT     H117069   0.051   0.459   3.097 -0.0195 -2.7062 -3.5178
28816WAT     H217070  -0.014   0.369   3.201  1.1430  0.7892  0.4844
28816WAT    EPW17071  -0.021   0.426   3.135  0.3416 -0.1936 -0.3221
28817WAT      O17072   4.649   9.088   4.128 -0.3533 -0.0182  0.4438
28817WAT     H117073   4.630   9.057   4.216 -1.2675 -1.9234 -0.3575
28817WAT     H217074   4.707   9.163   4.141 -1.7485  0.7614  2.6915
28817WAT    EPW17075   4.654   9.094   4.141 -0.6578 -0.1669  0.6347
28818WAT      O17076   4.994   1.352   7.443 -0.6801  0.7187  0.4227
28818WAT     H117077   5.077   1.328   7.402 -0.2978 -0.9741  2.0615
28818WAT     H217078   5.015   1.364   7.536 -2.2769  0.0996  0.9019
28818WAT    EPW17079   5.007   1.351   7.450 -0.8399  0.4138  0.7019
28819WAT      O17080   4.375   4.916   4.185  0.2723 -0.4743  0.6065
28819WAT     H117081   4.462   4.937   4.219  0.8860 -1.9050  0.0049
28819WAT     H217082   4.317   4.921   4.261  0.5564  1.9839  0.7489
28819WAT    EPW17083   4.379   4.919   4.200  0.3908 -0.3390  0.5460
28820WAT      O17084   5.001   0.581   1.408 -0.3820  0.1072  0.0811
28820WAT     H117085   5.093   0.606   1.406  0.2395 -2.0608 -0.5050
28820WAT     H217086   4.969   0.616   1.492  0.8310  1.2542  0.1016
28820WAT    EPW17087   5.009   0.589   1.419 -0.1400 -0.0275  0.0065
28821WAT      O17088   6.645   5.785   1.430  0.3244 -0.5086 -0.4561
28821WAT     H117089   6.690   5.752   1.352  2.0691  2.1577 -0.6808
28821WAT     H217090   6.716   5.807   1.490 -0.8801  0.3746  0.6647
28821WAT    EPW17091   6.660   5.783   1.427  0.3958 -0.0405 -0.3378
28822WAT      O17092  -1.184   7.561   3.658 -0.0165  0.7115  0.0260
28822WAT     H117093  -1.168   7.635   3.716 -1.0988  0.5437  0.5715
28822WAT     H217094  -1.245   7.594   3.593 -1.1358  0.1119  0.7377
28822WAT    EPW17095  -1.190   7.575   3.657 -0.3070  0.6104  0.1919
28823WAT      O17096  -1.957   8.889   5.129  0.9197 -0.3016  0.0739
28823WAT     H117097  -1.941   8.796   5.116  1.7244  0.0220 -1.5081
28823WAT     H217098  -1.970   8.898   5.224  0.5801 -2.0403  0.2259
28823WAT    EPW17099  -1.956   8.878   5.140  0.9810 -0.4883 -0.1147
28824WAT      O17100   5.417   3.809   3.150 -1.1897  0.6821  0.1452
28824WAT     H117101   5.355   3.880   3.166 -0.2975  1.1326  1.7542
28824WAT     H217102   5.419   3.759   3.231  0.1778  0.3967 -0.0294
28824WAT    EPW17103   5.409   3.812   3.163 -0.8914  0.7039  0.3344
28825WAT      O17104   8.571   0.353   3.192  0.0966 -0.7126  0.9013
28825WAT     H117105   8.585   0.418   3.123  0.6444  0.1668  1.8077
28825WAT     H217106   8.601   0.271   3.153  1.0356 -0.1179  0.3066
28825WAT    EPW17107   8.577   0.351   3.178  0.2923 -0.5182  0.9425
28826WAT      O17108   7.243   4.741   2.199 -0.0362 -0.1778 -0.4341
28826WAT     H117109   7.330   4.701   2.206 -0.5311 -1.2267 -0.0214
28826WAT     H217110   7.222   4.736   2.106  0.2979 -0.0106 -0.5204
28826WAT    EPW17111   7.252   4.735   2.187 -0.0575 -0.2940 -0.3911
28827WAT      O17112  -5.348   8.206   4.524 -0.2005  1.0046 -0.3708
28827WAT     H117113  -5.396   8.228   4.444 -2.2750 -0.6719  0.3204
28827WAT     H217114  -5.269   8.162   4.493  0.2039  2.4547 -1.5175
28827WAT    EPW17115  -5.344   8.203   4.509 -0.4208  0.9747 -0.4308
28828WAT      O17116   2.455   8.319   7.680 -0.4858  0.0913  1.4084
28828WAT     H117117   2.394   8.253   7.713 -1.4312  2.1193  4.1349
28828WAT     H217118   2.464   8.381   7.752  2.4155  1.5631 -0.0469
28828WAT    EPW17119   2.448   8.318   7.694 -0.2278  0.5527  1.5759
28829WAT      O17120   3.469   2.126   8.376  0.1022 -0.2464 -0.7228
28829WAT     H117121   3.543   2.133   8.436  0.7846  0.0235 -1.5762
28829WAT     H217122   3.424   2.210   8.384  0.9391  0.3045 -1.5185
28829WAT    EPW17123   3.473   2.138   8.385  0.3026 -0.1382 -0.9403
28830WAT      O17124  -8.196   9.362   8.394  0.1669 -0.1420 -0.2428
28830WAT     H117125  -8.273   9.376   8.449  0.7651 -0.8174  0.7987
28830WAT     H217126  -8.208   9.422   8.320 -0.0202  1.7281  1.2488
28830WAT    EPW17127  -8.208   9.371   8.391  0.2213  0.0153  0.0916
28831WAT      O17128   6.462   4.814   0.204  0.3853  0.2089 -0.6785
28831WAT     H117129   6.551   4.826   0.237  0.5440 -2.2084 -0.0646
28831WAT     H217130   6.418   4.897   0.224  1.9043  0.6699  1.0029
28831WAT    EPW17131   6.468   4.827   0.211  0.6065 -0.0491 -0.3758
28832WAT      O17132  -3.593   9.386   6.472 -0.2441  0.6660 -0.2750
28832WAT     H117133  -3.526   9.450   6.448 -0.3957  1.8038  2.0659
28832WAT     H217134  -3.658   9.437   6.520 -1.3870 -0.9214 -0.0546
28832WAT    EPW17135  -3.593   9.401   6.475 -0.4148  0.6070  0.0627
28833WAT      O17136   5.516   6.267   1.074  0.2887  0.3069 -0.0245
28833WAT     H117137   5.480   6.352   1.050 -4.1000 -1.5028 -0.6982
28833WAT     H217138   5.522   6.219   0.991 -0.2496 -1.0135  0.6752
28833WAT    EPW17139   5.512   6.272   1.060 -0.3610 -0.1061 -0.0211
28834WAT      O17140   1.087   5.486   2.803  0.0104 -0.4465 -0.5658
28834WAT     H117141   1.106   5.567   2.850 -0.4676  0.4273 -1.8254
28834WAT     H217142   1.168   5.467   2.755  0.2076 -0.8619 -0.0747
28834WAT    EPW17143   1.100   5.494   2.803 -0.0266 -0.3860 -0.6672
28835WAT      O17144  -5.660   9.460   4.501 -0.1707 -0.0555 -0.1456
28835WAT     H117145  -5.636   9.401   4.430  2.0437  0.6704 -0.0835
28835WAT     H217146  -5.678   9.544   4.458 -2.4139 -0.4500 -0.1396
28835WAT    EPW17147  -5.659   9.464   4.486 -0.1745 -0.0119 -0.1366
28836WAT      O17148   6.115   6.594   3.692 -0.1775 -0.9314  0.6389
28836WAT     H117149   6.070   6.519   3.654  0.9780 -0.9440 -0.7753
28836WAT     H217150   6.184   6.556   3.746 -0.8468 -0.8863  1.5572
28836WAT    EPW17151   6.118   6.579   3.694 -0.1132 -0.9270  0.5735
28837WAT      O17152  -1.561   5.552   0.908  0.5535 -0.0550  0.5420
28837WAT     H117153  -1.655   5.571   0.910  0.4093 -0.2191 -1.6671
28837WAT     H217154  -1.525   5.605   0.979 -1.0390  1.1643  0.5218
28837WAT    EPW17155  -1.569   5.562   0.918  0.3244  0.0839  0.2479
28838WAT      O17156  -0.565   6.292   8.248  0.0145  0.7508  0.1846
28838WAT     H117157  -0.470   6.277   8.257 -0.1636  0.4782  1.9553
28838WAT     H217158  -0.595   6.310   8.337 -1.3618  2.4476 -0.5745
28838WAT    EPW17159  -0.556   6.292   8.261 -0.1905  0.9387  0.3181
28839WAT      O17160   0.346   1.532   1.602  0.4525 -0.3328  0.0119
28839WAT     H117161   0.409   1.496   1.539 -0.0077 -0.1714 -0.5561
28839WAT     H217162   0.347   1.626   1.585 -1.6783 -0.5369 -1.6962
28839WAT    EPW17163   0.355   1.540   1.591  0.1108 -0.3384 -0.2883
28840WAT      O17164   1.172   5.437   6.710  0.3910  0.9208 -0.0463
28840WAT     H117165   1.118   5.372   6.665  2.4556 -0.9560 -0.0139
28840WAT     H217166   1.174   5.512   6.651 -0.3749  0.1471 -1.0888
28840WAT    EPW17167   1.165   5.439   6.697  0.5623  0.5710 -0.1798
28841WAT      O17168   1.762   8.551   7.292  0.1007 -0.3109  0.4432
28841WAT     H117169   1.833   8.544   7.228 -0.1705 -0.3124  0.1367
28841WAT     H217170   1.761   8.466   7.336  0.5755 -0.1561  0.7567
28841WAT    EPW17171   1.771   8.539   7.289  0.1276 -0.2904  0.4439
28842WAT      O17172  -4.062   7.627   4.484  0.2329 -0.0526  0.0958
28842WAT     H117173  -3.988   7.633   4.544  0.6781  0.0475 -0.4497
28842WAT     H217174  -4.132   7.674   4.528 -0.4192 -2.5437  1.9239
28842WAT    EPW17175  -4.061   7.634   4.498  0.2058 -0.3679  0.2649
28843WAT      O17176  -0.522   1.441  -0.004 -0.1074 -0.4071 -0.3705
28843WAT     H117177  -0.483   1.527   0.011  0.2534 -0.7209  0.5356
28843WAT     H217178  -0.464   1.380   0.042 -0.1337 -1.1818 -1.3295
28843WAT    EPW17179  -0.509   1.444   0.004 -0.0629 -0.5507 -0.3775
28844WAT      O17180  -1.589   4.991   5.201 -0.1357 -0.1883  0.2754
28844WAT     H117181  -1.649   5.037   5.260 -0.3681 -2.8671  2.3172
28844WAT     H217182  -1.645   4.931   5.152  0.4270  0.0167 -0.6370
28844WAT    EPW17183  -1.604   4.989   5.202 -0.0921 -0.5145  0.4246
28845WAT      O17184   1.152   4.423   0.456 -0.1882  0.2091 -1.2525
28845WAT     H117185   1.188   4.472   0.530 -0.1349 -1.4417 -0.1083
28845WAT     H217186   1.228   4.401   0.403 -0.0049  0.0741 -0.9415
28845WAT    EPW17187   1.166   4.426   0.459 -0.1569 -0.0262 -1.0606
28846WAT      O17188   5.010   6.184   2.781 -0.1165  0.0706  0.6160
28846WAT     H117189   4.922   6.184   2.742 -1.0558  2.2241  2.5466
28846WAT     H217190   4.999   6.225   2.866  2.6324 -0.4978  1.3431
28846WAT    EPW17191   4.997   6.189   2.787  0.1223  0.2797  0.9665
28847WAT      O17192   0.004   3.688   5.158 -0.2884  0.0986  0.1241
28847WAT     H117193  -0.038   3.664   5.075 -0.8423  0.5493  0.2674
28847WAT     H217194  -0.062   3.740   5.204 -0.6341 -1.5785  1.6070
28847WAT    EPW17195  -0.010   3.692   5.153 -0.4071 -0.0631  0.3383
28848WAT      O17196   3.904   6.794   2.094 -0.2024 -0.3384 -0.1158
28848WAT     H117197   3.823   6.837   2.064  0.0751  0.4767  0.2709
28848WAT     H217198   3.878   6.749   2.175 -0.0256  0.8764  0.6376
28848WAT    EPW17199   3.890   6.794   2.101 -0.1425 -0.0706  0.0347
28849WAT      O17200   4.708   9.478   1.908 -0.7470 -0.3032  0.4125
28849WAT     H117201   4.721   9.573   1.919 -1.6731 -0.2365  1.0176
28849WAT     H217202   4.767   9.454   1.837 -1.7223  1.0309 -0.9035
28849WAT    EPW17203   4.718   9.488   1.900 -0.9980 -0.1183  0.3188
28850WAT      O17204   5.373   7.187   4.332 -0.5799  0.6360  0.1589
28850WAT     H117205   5.324   7.267   4.353 -1.7904  0.5019 -1.8870
28850WAT     H217206   5.446   7.217   4.277  0.1415  0.5316  1.0367
28850WAT    EPW17207   5.376   7.202   4.327 -0.6442  0.6046  0.0048
28851WAT      O17208   0.027   1.501   0.077  0.1512 -0.0141  0.2982
28851WAT     H117209   0.086   1.564   0.036  0.2485  0.7877  1.5871
28851WAT     H217210   0.070   1.478   0.159 -1.3114  0.6531  1.3120
28851WAT    EPW17211   0.040   1.507   0.083 -0.0289  0.1797  0.6019
28852WAT      O17212   5.595   0.659   6.228  0.0078 -0.1135  0.0937
28852WAT     H117213   5.554   0.582   6.189 -1.6881 -0.1202  1.7336
28852WAT     H217214   5.592   0.726   6.159  0.2793 -1.0949 -0.8970
28852WAT    EPW17215   5.589   0.658   6.214 -0.1800 -0.2438  0.1795
28853WAT      O17216  -3.108   8.684   1.077 -0.1502  0.2802 -0.5931
28853WAT     H117217  -3.146   8.755   1.130 -0.7523 -1.2242  1.0762
28853WAT     H217218  -3.043   8.643   1.135  1.3343  0.4247 -2.0979
28853WAT    EPW17219  -3.105   8.688   1.092 -0.0339  0.1011 -0.5714
28854WAT      O17220   6.584   8.911   0.609 -0.1630  0.3632  0.1160
28854WAT     H117221   6.642   8.949   0.675  4.3746  0.5330 -3.4633
28854WAT     H217222   6.613   8.820   0.602 -0.5002  0.3558 -1.5667
28854WAT    EPW17223   6.596   8.904   0.617  0.3912  0.3848 -0.5780
28855WAT      O17224   3.684   8.794   2.240 -0.2384  0.6329 -0.7063
28855WAT     H117225   3.715   8.715   2.197 -0.5284  0.5306 -0.7277
28855WAT     H217226   3.686   8.861   2.172 -0.5184  0.5149 -0.8279
28855WAT    EPW17227   3.689   8.793   2.226 -0.3135  0.6037 -0.7253
28856WAT      O17228  -2.933   0.837   6.146 -0.6677 -0.0332  0.5178
28856WAT     H117229  -2.842   0.861   6.166 -0.1108 -0.5467 -1.2258
28856WAT     H217230  -2.940   0.745   6.172 -0.0053 -0.6414 -1.3497
28856WAT    EPW17231  -2.922   0.828   6.152 -0.5070 -0.1811  0.0415
28857WAT      O17232  -0.765   0.936   2.356 -0.7130 -0.0627  1.1673
28857WAT     H117233  -0.860   0.927   2.369 -0.8549 -2.2902 -0.6562
28857WAT     H217234  -0.736   0.847   2.336  1.6252  0.7297  0.7914
28857WAT    EPW17235  -0.774   0.923   2.355 -0.4233 -0.2519  0.8773
28858WAT      O17236  -4.507   7.495   8.029  0.4814  0.2892 -0.3542
28858WAT     H117237  -4.427   7.454   8.064  1.9564  2.0752 -1.4347
28858WAT     H217238  -4.578   7.439   8.060  2.2008 -1.9013 -0.0981
28858WAT    EPW17239  -4.506   7.483   8.038  0.9027  0.2356 -0.4625
28859WAT      O17240  -1.640   9.340   5.874 -0.0435 -0.5706  0.3748
28859WAT     H117241  -1.546   9.327   5.867 -0.2269 -1.1248 -1.9596
28859WAT     H217242  -1.650   9.430   5.905  1.3195  0.7700 -2.6429
28859WAT    EPW17243  -1.629   9.350   5.877  0.1121 -0.4673 -0.3314
28860WAT      O17244   1.020   0.152   4.970  0.0006  0.4957 -0.1090
28860WAT     H117245   0.933   0.192   4.974 -0.6604 -0.6494 -1.8062
28860WAT     H217246   1.072   0.214   4.919 -0.1130  0.6878  0.0051
28860WAT    EPW17247   1.015   0.166   4.964 -0.1016  0.3700 -0.3178
28861WAT      O17248   1.458   0.322   6.516  0.5236 -1.4491  0.1962
28861WAT     H117249   1.487   0.297   6.428  0.7332  0.2242 -0.2449
28861WAT     H217250   1.364   0.341   6.506  1.2835  3.0443 -0.8393
28861WAT    EPW17251   1.449   0.322   6.503  0.6515 -0.6357  0.0014
28862WAT      O17252   5.093   7.168   0.298 -0.0143 -0.1696 -0.3407
28862WAT     H117253   5.027   7.099   0.289 -0.0031 -0.4187  1.1593
28862WAT     H217254   5.150   7.137   0.368  3.1151 -1.0560 -3.0590
28862WAT    EPW17255   5.092   7.155   0.306  0.4001 -0.3195 -0.5014
28863WAT      O17256   5.493   5.804   1.866 -0.0048  0.0125  0.0263
28863WAT     H117257   5.398   5.805   1.861 -0.0424  1.0691  0.6442
28863WAT     H217258   5.517   5.712   1.850 -1.0607 -0.1136 -0.9551
28863WAT    EPW17259   5.484   5.792   1.863 -0.1490  0.1354 -0.0216
28864WAT      O17260   4.278   5.721   0.245  0.2496  0.1128  0.8436
28864WAT     H117261   4.211   5.655   0.262  0.5844 -0.4092  0.2011
28864WAT     H217262   4.278   5.732   0.150  0.2384  1.0050  0.9380
28864WAT    EPW17263   4.269   5.714   0.235  0.2923  0.1614  0.7713
28865WAT      O17264  -3.750   7.422   7.489  0.3920  0.4771 -0.7236
28865WAT     H117265  -3.698   7.494   7.453  2.3655  0.6026  2.0254
28865WAT     H217266  -3.840   7.443   7.463  1.0735  3.1576 -1.2615
28865WAT    EPW17267  -3.755   7.434   7.481  0.7422  0.8471 -0.4320
28866WAT      O17268  -1.402   9.669   3.951 -0.3680  0.4004 -0.1847
28866WAT     H117269  -1.404   9.729   3.876  0.3373  2.7371  1.5437
28866WAT     H217270  -1.491   9.672   3.986 -0.8346 -1.0923 -1.1734
28866WAT    EPW17271  -1.414   9.678   3.945 -0.3365  0.5116 -0.0871
28867WAT      O17272   1.505   4.793   0.706  0.1707 -0.6298 -0.1677
28867WAT     H117273   1.480   4.862   0.767  0.6071  0.9200 -1.6837
28867WAT     H217274   1.478   4.824   0.620 -0.0199 -2.5563 -0.8665
28867WAT    EPW17275   1.498   4.806   0.703  0.2031 -0.6795 -0.4598
28868WAT      O17276  -3.698   1.704   5.908 -0.1918 -0.2700  0.3840
28868WAT     H117277  -3.616   1.732   5.868 -0.5932  1.6976  0.8212
28868WAT     H217278  -3.681   1.708   6.002 -0.7774  0.2298  0.4778
28868WAT    EPW17279  -3.685   1.709   5.915 -0.3219  0.0554  0.4539
28869WAT      O17280   6.194   0.735   2.219  0.2981 -0.0497  0.2187
28869WAT     H117281   6.271   0.740   2.276 -0.6108 -1.8225  1.7286
28869WAT     H217282   6.192   0.644   2.189 -0.6493  0.2311 -0.6323
28869WAT    EPW17283   6.204   0.723   2.223  0.0534 -0.2465  0.3057
28870WAT      O17284   1.710   0.212   6.128 -0.0917 -0.3331  0.6520
28870WAT     H117285   1.631   0.250   6.166  0.9888  1.9057  0.8218
28870WAT     H217286   1.678   0.137   6.078 -2.0905 -0.5647  2.1398
28870WAT    EPW17287   1.695   0.207   6.126 -0.2128 -0.0683  0.8707
28871WAT      O17288  -3.239   8.950   5.616 -0.5735  0.4758  0.0320
28871WAT     H117289  -3.175   8.895   5.572  1.4600  1.0168  2.0772
28871WAT     H217290  -3.300   8.889   5.657 -2.4360 -0.0388 -3.1549
28871WAT    EPW17291  -3.239   8.935   5.616 -0.5509  0.4792 -0.1187
28872WAT      O17292   0.008   4.233   0.332 -0.3798  0.1255 -0.0145
28872WAT     H117293  -0.035   4.247   0.248  2.0225 -0.6611 -1.4852
28872WAT     H217294  -0.012   4.143   0.355 -0.7112  0.2154  0.0483
28872WAT    EPW17295  -0.000   4.223   0.324 -0.1066  0.0336 -0.2002
28873WAT      O17296   6.423   1.784   5.219 -0.7042  0.1504  0.5865
28873WAT     H117297   6.507   1.769   5.263  0.0375  0.6795 -0.5765
28873WAT     H217298   6.429   1.874   5.186 -1.0950 -0.3188 -0.8209
28873WAT    EPW17299   6.435   1.794   5.220 -0.6583  0.1583  0.2475
28874WAT      O17300   1.866   1.966   0.164 -0.2770 -0.1007 -0.3876
28874WAT     H117301   1.860   1.994   0.073 -0.3161 -0.0242 -0.3618
28874WAT     H217302   1.800   1.897   0.172 -0.2141 -0.1665 -0.4390
28874WAT    EPW17303   1.856   1.960   0.153 -0.2739 -0.0993 -0.3910
28875WAT      O17304   1.035   6.862   0.498  0.2262  0.6528  0.2662
28875WAT     H117305   0.983   6.792   0.538 -0.3433  1.6628  1.3441
28875WAT     H217306   1.084   6.900   0.570 -0.8842  2.5668  0.0957
28875WAT    EPW17307   1.034   6.858   0.513  0.0046  1.0383  0.3859
28876WAT      O17308   7.622   1.433   3.730 -0.1419  0.2367  0.2631
28876WAT     H117309   7.538   1.456   3.770 -0.0051  4.8022 -1.5431
28876WAT     H217310   7.685   1.443   3.801 -0.6960  0.6473  0.7058
28876WAT    EPW17311   7.619   1.437   3.745 -0.1969  0.8931  0.0832
28877WAT      O17312  -0.520   2.139   1.994  0.3542  0.6638 -0.2171
28877WAT     H117313  -0.431   2.152   2.025  0.6975  0.8619 -1.2542
28877WAT     H217314  -0.553   2.227   1.975 -0.6756  0.7527  1.7357
28877WAT    EPW17315  -0.513   2.152   1.995  0.2636  0.7017 -0.0963
28878WAT      O17316   4.093   6.320   3.991 -0.1645 -0.2216 -0.0634
28878WAT     H117317   4.049   6.287   4.069 -2.6875 -0.2141 -1.3701
28878WAT     H217318   4.131   6.243   3.951 -2.0427 -0.8992 -0.6750
28878WAT    EPW17319   4.092   6.306   3.996 -0.7451 -0.3102 -0.3163
28879WAT      O17320  -4.866   7.186   6.969  0.0256 -0.7074 -0.3665
28879WAT     H117321  -4.928   7.212   7.037  2.7870  0.1908  2.0409
28879WAT     H217322  -4.914   7.196   6.887 -2.6326  0.9210  1.2480
28879WAT    EPW17323  -4.881   7.191   6.967  0.0391 -0.3741  0.1640
28880WAT      O17324   6.337   8.185   2.216 -0.0309  0.0554 -0.5776
28880WAT     H117325   6.314   8.167   2.125  2.1580  1.1858 -1.4308
28880WAT     H217326   6.352   8.098   2.254  2.2668 -0.4002 -2.2735
28880WAT    EPW17327   6.336   8.171   2.209  0.5608  0.1440 -0.9139
28881WAT      O17328   1.386   0.288   6.827  0.0504  0.4828  0.4752
28881WAT     H117329   1.467   0.266   6.873  0.3683  1.7053  0.5197
28881WAT     H217330   1.413   0.350   6.759 -0.7564  0.4109  0.0762
28881WAT    EPW17331   1.401   0.293   6.824 -0.0141  0.6346  0.4284
28882WAT      O17332   4.061   4.813   5.579 -0.2972 -0.6295  0.5371
28882WAT     H117333   4.016   4.803   5.663  6.0118 -0.8079  4.5584
28882WAT     H217334   4.048   4.904   5.555 -0.2777  0.1620  3.2114
28882WAT    EPW17335   4.053   4.823   5.587  0.5374 -0.5486  1.4203
28883WAT      O17336   4.519   4.748   7.603 -1.2389  0.2856  0.0860
28883WAT     H117337   4.460   4.812   7.564 -1.3064  0.7910  0.9962
28883WAT     H217338   4.469   4.667   7.604 -0.6222 -0.2106 -2.4996
28883WAT    EPW17339   4.505   4.746   7.598 -1.1666  0.2868 -0.1352
28884WAT      O17340   1.147  10.191   3.959 -0.7673 -0.0201  0.5689
28884WAT     H117341   1.142  10.215   4.052 -1.0102 -1.1375  0.8566
28884WAT     H217342   1.231  10.228   3.930 -2.1758  3.3872  0.2815
28884WAT    EPW17343   1.158  10.199   3.968 -0.9851  0.2818  0.5689
28885WAT      O17344   1.864   6.941   7.455  0.6107 -0.0497 -0.0025
28885WAT     H117345   1.821   7.024   7.435 -1.3113 -1.1840 -0.9299
28885WAT     H217346   1.798   6.891   7.503  0.2539 -2.3584 -2.5892
28885WAT    EPW17347   1.849   6.945   7.458  0.3102 -0.5040 -0.4659
28886WAT      O17348   4.504   0.698   0.687  0.2185  0.8556  0.7252
28886WAT     H117349   4.591   0.696   0.646  0.4511  0.2062  1.2244
28886WAT     H217350   4.457   0.626   0.645  0.4026  0.2958  1.4557
28886WAT    EPW17351   4.510   0.688   0.676  0.2735  0.6961  0.8874
28887WAT      O17352   4.494   1.979   7.892 -0.0208 -0.3020  0.2990
28887WAT     H117353   4.499   1.884   7.903 -1.2281 -0.5039 -0.7102
28887WAT     H217354   4.497   2.013   7.982 -1.1814 -1.3945  0.7882
28887WAT    EPW17355   4.495   1.971   7.905 -0.3331 -0.4728  0.2306
28888WAT      O17356  -3.259   1.335   6.413  0.2919  0.0124  0.2181
28888WAT     H117357  -3.220   1.387   6.343  1.0636 -1.8850 -0.8471
28888WAT     H217358  -3.341   1.302   6.376  0.5634 -0.7729  0.3066
28888WAT    EPW17359  -3.265   1.337   6.399  0.4295 -0.3414  0.0894
28889WAT      O17360  -1.809   5.614   8.283  1.0133  0.4786  0.1487
28889WAT     H117361  -1.903   5.629   8.297  1.1953  2.4773 -0.3933
28889WAT     H217362  -1.800   5.519   8.276 -1.1145  0.2822 -0.6457
28889WAT    EPW17363  -1.820   5.603   8.284  0.7566  0.7164 -0.0277
28890WAT      O17364   4.012   7.101   6.982  0.7256 -0.0477 -0.2982
28890WAT     H117365   3.974   7.067   7.063  1.3509 -0.1644 -0.0469
28890WAT     H217366   3.993   7.035   6.916 -0.8208  0.5887 -0.5216
28890WAT    EPW17367   4.005   7.088   6.984  0.6042  0.0210 -0.2947
28891WAT      O17368   0.760   1.935   0.497  0.6169 -0.5439 -0.2875
28891WAT     H117369   0.746   1.841   0.508  0.8670 -0.5395  0.0692
28891WAT     H217370   0.673   1.970   0.475  0.4255 -0.7863  0.0704
28891WAT    EPW17371   0.747   1.928   0.496  0.6247 -0.5752 -0.1932
28892WAT      O17372  -0.689  10.164   3.172 -0.0240 -0.0258 -0.1962
28892WAT     H117373  -0.766  10.141   3.121  0.0691 -0.6572 -0.0640
28892WAT     H217374  -0.618  10.169   3.108  0.3581 -2.0878 -0.0046
28892WAT    EPW17375  -0.690  10.162   3.157  0.0387 -0.3810 -0.1534
28893WAT      O17376   1.950   7.400   5.572  0.4626  0.0966  0.0068
28893WAT     H117377   1.904   7.443   5.500  0.5742 -1.1730 -0.8564
28893WAT     H217378   1.960   7.468   5.638  1.1933  1.5735 -1.5396
28893WAT    EPW17379   1.945   7.415   5.571  0.5738  0.1240 -0.3111
28894WAT      O17380  -3.109   2.202   6.297  0.2059  0.0942  0.1625
28894WAT     H117381  -3.057   2.272   6.336  0.6517 -0.1817  0.0633
28894WAT     H217382  -3.194   2.243   6.278  0.4599  0.6011  0.1192
28894WAT    EPW17383  -3.114   2.216   6.300  0.2983  0.1248  0.1438
28895WAT      O17384   3.958   3.138   8.676  0.0854  0.0791 -0.2420
28895WAT     H117385   3.953   3.225   8.716 -4.0843 -1.0348  2.2849
28895WAT     H217386   3.869   3.122   8.643  0.2227 -3.7820  0.8337
28895WAT    EPW17387   3.946   3.147   8.677 -0.4466 -0.5771  0.2332
28896WAT      O17388  -1.391   4.457   4.797 -0.3541 -0.0115  0.1060
28896WAT     H117389  -1.442   4.537   4.782 -0.2823  0.4568  2.1016
28896WAT     H217390  -1.370   4.425   4.709 -2.7984  0.5863 -0.7685
28896WAT    EPW17391  -1.395   4.463   4.783 -0.6670  0.1292  0.2539
28897WAT      O17392  -0.388   9.168   8.205 -0.5015 -0.0217 -0.4288
28897WAT     H117393  -0.412   9.131   8.120 -0.6324  0.3738 -0.5635
28897WAT     H217394  -0.443   9.245   8.214 -0.1059  0.2418 -0.2282
28897WAT    EPW17395  -0.398   9.173   8.195 -0.4666  0.0653 -0.4201
28898WAT      O17396  -1.180  10.059   7.479 -0.0115  0.1459  0.5308
28898WAT     H117397  -1.200   9.969   7.455 -0.4819  0.6916 -1.2842
28898WAT     H217398  -1.261  10.092   7.518 -1.5280  1.0904 -3.0056
28898WAT    EPW17399  -1.193  10.051   7.481 -0.2736  0.3424 -0.1750
28899WAT      O17400  -2.205   5.807   7.130  0.0137 -0.4215  0.4905
28899WAT     H117401  -2.243   5.822   7.043  2.7729 -1.8101 -1.1070
28899WAT     H217402  -2.132   5.868   7.134 -1.6400  1.5949  3.1100
28899WAT    EPW17403  -2.200   5.817   7.119  0.1595 -0.3386  0.6251
28900WAT      O17404   3.717   0.271   5.903  0.5359 -0.5369  0.7447
28900WAT     H117405   3.702   0.245   5.812 -0.2852 -2.2786  1.3456
28900WAT     H217406   3.763   0.198   5.942 -1.5615 -1.0611  2.4261
28900WAT    EPW17407   3.721   0.258   5.896  0.1510 -0.8357  1.0457
28901WAT      O17408   5.246   4.380   3.129 -0.3896 -0.6687 -0.3164
28901WAT     H117409   5.304   4.448   3.094 -0.2456  0.5224  2.0691
28901WAT     H217410   5.233   4.320   3.055  1.6910  0.4574 -1.7080
28901WAT    EPW17411   5.252   4.381   3.114 -0.0961 -0.3629 -0.1853
28902WAT      O17412  10.024   2.301   0.084 -0.0535 -0.6984 -0.2108
28902WAT     H117413   9.957   2.264   0.025  1.5517 -0.2602 -2.4485
28902WAT     H217414  10.107   2.283   0.039  1.4555 -1.7239  2.7217
28902WAT    EPW17415  10.026   2.294   0.070  0.3572 -0.7759 -0.1191
28903WAT      O17416   4.140   0.190   3.764 -0.0589 -0.0047  0.4587
28903WAT     H117417   4.198   0.260   3.793  2.2276 -2.2219  1.7027
28903WAT     H217418   4.075   0.181   3.834 -0.2195  0.6958  0.4011
28903WAT    EPW17419   4.139   0.198   3.777  0.2215 -0.2047  0.6151
28904WAT      O17420   4.813   5.228   2.400 -0.2002  0.0334  0.1396
28904WAT     H117421   4.788   5.200   2.489  1.0195 -2.3265 -0.1778
28904WAT     H217422   4.908   5.234   2.403  0.1140 -2.6453 -1.6156
28904WAT    EPW17423   4.822   5.225   2.412  0.0021 -0.6313 -0.1338
28905WAT      O17424  -3.116   8.882   1.281  0.4720  0.4420 -0.7097
28905WAT     H117425  -3.125   8.946   1.210  2.3692  1.0942 -0.4105
28905WAT     H217426  -3.035   8.906   1.325 -0.9626  0.4519  2.1143
28905WAT    EPW17427  -3.107   8.893   1.277  0.5330  0.5293 -0.2977
28906WAT      O17428   0.973   1.651   8.712  0.2567 -0.0959 -0.2190
28906WAT     H117429   1.057   1.691   8.687  1.1457 -1.5701  0.3008
28906WAT     H217430   0.913   1.725   8.719  1.4878  0.9884 -0.7111
28906WAT    EPW17431   0.977   1.666   8.710  0.5363 -0.1473 -0.2155
28907WAT      O17432  -3.625   5.584   7.234 -0.0342 -0.4327  0.4171
28907WAT     H117433  -3.693   5.633   7.187 -0.6481 -0.8473  0.8490
28907WAT     H217434  -3.591   5.522   7.170 -0.9965 -1.1232  0.5492
28907WAT    EPW17435  -3.630   5.582   7.220 -0.2421 -0.5784  0.4916
28908WAT      O17436   6.198   0.133   7.200  0.4929  0.3470 -0.1600
28908WAT     H117437   6.190   0.045   7.237  1.1039  0.7122  0.8853
28908WAT     H217438   6.287   0.136   7.165  1.2044  1.1907  1.6231
28908WAT    EPW17439   6.209   0.122   7.201  0.6671  0.5064  0.2129
28909WAT      O17440  -1.725   9.244   8.239  0.3342 -0.1782  0.3380
28909WAT     H117441  -1.806   9.240   8.289  0.3689  0.0469  0.4110
28909WAT     H217442  -1.737   9.317   8.179  0.2482 -0.5182 -0.0646
28909WAT    EPW17443  -1.737   9.253   8.238  0.3274 -0.1936  0.2942
28910WAT      O17444   0.292   2.954   7.626  0.7823  0.7451  1.1703
28910WAT     H117445   0.307   3.042   7.658 -1.6604  2.0968 -1.0535
28910WAT     H217446   0.376   2.909   7.640  2.2310  3.4986  1.9985
28910WAT    EPW17447   0.305   2.959   7.632  0.6512  1.2866  0.9863
28911WAT      O17448  -2.507   3.458   7.740  0.1763  0.1974 -0.4880
28911WAT     H117449  -2.526   3.364   7.747  2.5280 -0.2539  0.7980
28911WAT     H217450  -2.558   3.498   7.811 -1.4391  0.0504 -1.5137
28911WAT    EPW17451  -2.516   3.451   7.750  0.2733  0.1184 -0.4537
28912WAT      O17452   6.194   0.550   0.770 -0.1410 -0.0103 -0.0177
28912WAT     H117453   6.259   0.583   0.832  0.8481 -1.4941 -0.2241
28912WAT     H217454   6.111   0.583   0.804  0.3450 -0.8901  2.2158
28912WAT    EPW17455   6.192   0.559   0.783  0.0534 -0.3221  0.2497
28913WAT      O17456  -3.816  10.203   3.876  0.2423  0.2416 -1.3801
28913WAT     H117457  -3.858  10.289   3.874 -2.6293 -0.9967 -0.3614
28913WAT     H217458  -3.771  10.197   3.792 -3.8642  0.8148 -3.9393
28913WAT    EPW17459  -3.816  10.214   3.864 -0.6779  0.1535 -1.5832
28914WAT      O17460   4.582   0.606   3.582 -0.0394  0.1578  0.2263
28914WAT     H117461   4.494   0.643   3.578 -0.3903 -0.7502 -1.3183
28914WAT     H217462   4.629   0.650   3.512  1.4736  2.2717  2.4147
28914WAT    EPW17463   4.576   0.617   3.572  0.1137  0.3168  0.3111
28915WAT      O17464   4.712   4.664   4.025  0.0470  0.1722 -0.2766
28915WAT     H117465   4.770   4.672   4.101 -0.2556 -2.0291  0.2459
28915WAT     H217466   4.625   4.648   4.063  0.3284 -4.0772 -0.9020
28915WAT    EPW17467   4.708   4.663   4.040  0.0441 -0.6785 -0.2902
28916WAT      O17468   9.893   0.498   0.400 -0.3546  0.0361 -0.0292
28916WAT     H117469   9.887   0.446   0.320 -0.3229  1.2336 -0.8353
28916WAT     H217470   9.946   0.574   0.376  0.0330  0.1999  1.2547
28916WAT    EPW17471   9.899   0.501   0.386 -0.2995  0.2156  0.0338
28917WAT      O17472   2.440   1.557   1.749  0.4778  0.1086 -0.6082
28917WAT     H117473   2.500   1.629   1.728  1.2833 -0.6611 -0.9884
28917WAT     H217474   2.457   1.492   1.681  0.2906 -0.7604  0.1688
28917WAT    EPW17475   2.450   1.558   1.737  0.5594 -0.1076 -0.5559
28918WAT      O17476  -4.575   0.190   8.036 -0.4430  0.0894  0.0788
28918WAT     H117477  -4.525   0.222   8.111 -1.3086  1.0173  0.2742
28918WAT     H217478  -4.651   0.248   8.031 -0.0867  0.4745 -1.9001
28918WAT    EPW17479  -4.578   0.202   8.045 -0.5105  0.2626 -0.1559
28919WAT      O17480   1.489   7.585   4.828 -0.1565  0.0119  0.9756
28919WAT     H117481   1.453   7.527   4.761 -1.2142  0.7460  0.8828
28919WAT     H217482   1.489   7.531   4.908  1.7871 -1.1004  0.3013
28919WAT    EPW17483   1.484   7.570   4.830 -0.0396 -0.0379  0.8745
28920WAT      O17484   1.342   7.978   3.764 -0.0766  0.1698 -0.2269
28920WAT     H117485   1.429   7.995   3.728  1.7919  0.0617  3.6761
28920WAT     H217486   1.322   7.889   3.736  1.2136  0.0829 -0.9750
28920WAT    EPW17487   1.351   7.969   3.756  0.3400  0.1440  0.1893
28921WAT      O17488   4.889   5.691   1.602  0.4196 -0.3646 -0.4823
28921WAT     H117489   4.871   5.711   1.694  0.5982  0.2553 -0.5777
28921WAT     H217490   4.982   5.666   1.601  0.7593  0.8377 -0.6721
28921WAT    EPW17491   4.899   5.691   1.614  0.4883 -0.1242 -0.5199
28922WAT      O17492   4.901   9.677   2.985 -0.8766  0.3921  0.3064
28922WAT     H117493   4.868   9.721   2.906 -2.2452 -1.1123 -0.0234
28922WAT     H217494   4.824   9.632   3.020  0.0480 -0.1459  1.7082
28922WAT    EPW17495   4.886   9.677   2.979 -0.9353  0.1230  0.4479
28923WAT      O17496   1.354   7.436   4.607 -0.5553 -0.1638  0.2171
28923WAT     H117497   1.397   7.459   4.525  0.1878  1.0060  0.8970
28923WAT     H217498   1.281   7.498   4.614  1.7515  2.5624  2.3046
28923WAT    EPW17499   1.350   7.447   4.597 -0.1531  0.3500  0.5820
28924WAT      O17500   0.698   9.483   0.035 -0.2586 -0.0440  0.0874
28924WAT     H117501   0.665   9.426   0.103 -1.8569  0.1421 -0.4989
28924WAT     H217502   0.720   9.565   0.080 -0.7628 -0.1141  0.4620
28924WAT    EPW17503   0.697   9.486   0.050 -0.5359 -0.0286  0.0595
28925WAT      O17504   2.631   4.404   0.993  0.3199 -0.2321 -0.0339
28925WAT     H117505   2.678   4.479   1.028  3.0909 -1.4444 -0.8537
28925WAT     H217506   2.634   4.339   1.063  0.0025 -0.3934 -0.1666
28925WAT    EPW17507   2.638   4.405   1.006  0.6436 -0.4134 -0.1595
28926WAT      O17508   8.346   0.849   3.292 -0.0271  0.2630 -0.5030
28926WAT     H117509   8.325   0.923   3.236 -0.0661 -0.9720 -2.1853
28926WAT     H217510   8.427   0.813   3.255 -0.6812 -1.2845 -0.5210
28926WAT    EPW17511   8.354   0.854   3.280 -0.1187 -0.1040 -0.7273
28927WAT      O17512  -7.360   7.562   8.020 -0.1869  0.4042  0.9824
28927WAT     H117513  -7.268   7.560   7.996 -0.5260 -2.8957 -0.6646
28927WAT     H217514  -7.360   7.562   8.116  1.5485 -0.2782  1.0090
28927WAT    EPW17515  -7.348   7.562   8.030 -0.0029 -0.1211  0.7691
28928WAT      O17516   0.242   1.618   7.675 -0.1574  0.7347  0.2462
28928WAT     H117517   0.162   1.665   7.696 -0.4334  0.9785 -1.2200
28928WAT     H217518   0.243   1.614   7.579  0.4165 -1.2625  0.2861
28928WAT    EPW17519   0.232   1.623   7.665 -0.1181  0.5035  0.0582
28929WAT      O17520  -5.027   8.688   4.789  0.4492  0.5826  0.0922
28929WAT     H117521  -4.976   8.699   4.869 -1.1929  1.4503  1.0741
28929WAT     H217522  -5.085   8.764   4.786 -2.2184 -1.3121  0.1377
28929WAT    EPW17523  -5.028   8.699   4.799 -0.1194  0.4473  0.2277
28930WAT      O17524   5.990   0.932   2.629  0.2608 -0.0833 -0.1473
28930WAT     H117525   5.960   1.013   2.670 -2.6253 -1.4388  0.7065
28930WAT     H217526   6.035   0.886   2.700  0.7270  0.1891 -0.2623
28930WAT    EPW17527   5.992   0.937   2.644 -0.0587 -0.2261 -0.0498
28931WAT      O17528  -2.625   2.978   7.479 -0.1856 -0.4258  0.0081
28931WAT     H117529  -2.551   3.039   7.481 -0.0074 -0.6332 -0.1536
28931WAT     H217530  -2.647   2.963   7.571 -0.3029 -0.0313  0.0442
28931WAT    EPW17531  -2.618   2.984   7.492 -0.1775 -0.4011 -0.0086
28932WAT      O17532   3.758   0.154   6.578  0.4063  0.1177  0.1522
28932WAT     H117533   3.794   0.212   6.511 -3.4505 -0.0482 -2.3297
28932WAT     H217534   3.687   0.203   6.617  1.2364 -0.6056  2.8022
28932WAT    EPW17535   3.754   0.168   6.575  0.0070  0.0004  0.1743
28933WAT      O17536   2.568   4.164   1.239 -0.3485  0.1027 -0.1341
28933WAT     H117537   2.612   4.129   1.161 -2.6732 -1.2987 -0.9029
28933WAT     H217538   2.479   4.183   1.210 -0.6197  1.8239  1.6367
28933WAT    EPW17539   2.562   4.162   1.225 -0.6908  0.1447 -0.0020
28934WAT      O17540  -0.228   1.197   4.562  0.4958 -0.1510  0.2876
28934WAT     H117541  -0.298   1.243   4.516 -1.2679  0.0675  2.9611
28934WAT     H217542  -0.236   1.105   4.534 -1.2872 -0.2333  0.9523
28934WAT    EPW17543  -0.238   1.191   4.552  0.0280 -0.1330  0.7279
28935WAT      O17544   2.508   8.568   1.794  0.0715 -0.0857 -0.2210
28935WAT     H117545   2.516   8.473   1.802 -2.2009 -0.3823 -0.8601
28935WAT     H217546   2.564   8.590   1.720 -0.7805 -1.2137 -1.2477
28935WAT    EPW17547   2.517   8.558   1.785 -0.3406 -0.2737 -0.4407
28936WAT      O17548  -5.985   8.329   5.566 -0.5456  0.2087 -0.4197
28936WAT     H117549  -5.895   8.318   5.535 -0.7671 -0.2924 -0.9020
28936WAT     H217550  -5.977   8.340   5.661  0.1833  2.2475 -0.6740
28936WAT    EPW17551  -5.972   8.329   5.575 -0.4787  0.4110 -0.5169
28937WAT      O17552   5.980   4.762   0.587 -0.3050  0.4543 -0.6573
28937WAT     H117553   5.995   4.684   0.640 -1.0282  2.2985  2.5431
28937WAT     H217554   6.026   4.744   0.505  0.0842 -3.0174  0.1525
28937WAT    EPW17555   5.988   4.749   0.584 -0.3490  0.2398 -0.1284
28938WAT      O17556   0.994   9.301   1.178 -0.2035  0.5799 -0.9635
28938WAT     H117557   0.940   9.370   1.217 -1.1167 -0.0291 -1.1185
28938WAT     H217558   0.961   9.220   1.217  2.0703  0.3263  0.6468
28938WAT    EPW17559   0.982   9.300   1.188 -0.0240  0.4663 -0.7716
28939WAT      O17560   4.233   3.625   2.354  0.7392  0.2547  0.1500
28939WAT     H117561   4.304   3.675   2.396  0.1129  1.9852 -0.7398
28939WAT     H217562   4.245   3.642   2.261 -0.0662 -0.5134 -0.0995
28939WAT    EPW17563   4.244   3.634   2.348  0.5505  0.3817 -0.0002
28940WAT      O17564   1.098   9.473   4.199  0.1785 -0.2929  0.0272
28940WAT     H117565   1.169   9.430   4.246  0.6465  0.5720  0.1382
28940WAT     H217566   1.071   9.545   4.257 -0.4259 -0.2856 -0.2541
28940WAT    EPW17567   1.104   9.477   4.213  0.1606 -0.1779  0.0045
28941WAT      O17568  -7.438   9.127   8.114  0.0696  0.3482 -0.4833
28941WAT     H117569  -7.383   9.128   8.036 -0.5582 -0.6836 -0.9655
28941WAT     H217570  -7.391   9.073   8.177 -0.6465 -1.0748 -1.1215
28941WAT    EPW17571  -7.425   9.120   8.112 -0.1075  0.0243 -0.6313
28942WAT      O17572   3.913   2.298   7.794  0.9263 -0.9040  0.6235
28942WAT     H117573   3.954   2.249   7.723  1.6300 -1.2236  1.2400
28942WAT     H217574   3.910   2.237   7.867  2.6347  0.1947  1.6972
28942WAT    EPW17575   3.918   2.284   7.794  1.2445 -0.8013  0.8461
28943WAT      O17576   5.958   3.334   1.042  0.4485 -0.2642 -0.0287
28943WAT     H117577   5.927   3.293   0.961 -0.3979 -0.4798  0.3971
28943WAT     H217578   6.028   3.275   1.073  0.0538 -0.7520 -0.0525
28943WAT    EPW17579   5.963   3.321   1.036  0.2847 -0.3570  0.0243
28944WAT      O17580   0.107   5.246   4.852 -0.7096  0.1611  0.1984
28944WAT     H117581   0.032   5.187   4.855 -0.1375 -0.8098 -2.1860
28944WAT     H217582   0.175   5.203   4.903 -1.4065  0.5675  1.5248
28944WAT    EPW17583   0.106   5.233   4.859 -0.7260  0.0865  0.0589
28945WAT      O17584  -1.960   6.842   7.492 -0.2970 -0.3475 -0.2914
28945WAT     H117585  -2.027   6.857   7.559  0.2292 -0.4309  0.2708
28945WAT     H217586  -2.006   6.797   7.421 -0.5542 -1.6331  0.6554
28945WAT    EPW17587  -1.975   6.838   7.492 -0.2615 -0.5281 -0.0925
28946WAT      O17588   4.665   2.618   1.782 -0.2124 -0.2815 -0.6199
28946WAT     H117589   4.631   2.558   1.716  0.3558 -0.0059 -1.1763
28946WAT     H217590   4.620   2.593   1.863 -0.2024 -1.2548 -0.9013
28946WAT    EPW17591   4.654   2.607   1.784 -0.1361 -0.3735 -0.7305
28947WAT      O17592   5.272   0.954   4.894 -0.4193  0.6672 -0.1950
28947WAT     H117593   5.201   0.978   4.954  0.5042  1.6848  0.5433
28947WAT     H217594   5.347   0.936   4.952  0.8446  2.8443 -1.0464
28947WAT    EPW17595   5.273   0.955   4.910 -0.1307  1.0885 -0.2098
28948WAT      O17596  -2.259   8.162   7.388  0.4688  0.8767 -0.7040
28948WAT     H117597  -2.227   8.119   7.308  3.0608  0.4994  0.4139
28948WAT     H217598  -2.345   8.124   7.403  0.5332 -0.1160 -2.5358
28948WAT    EPW17599  -2.266   8.151   7.379  0.8192  0.6962 -0.7982
28949WAT      O17600   2.505   4.326   3.013  0.1799  0.4920  0.5685
28949WAT     H117601   2.527   4.254   3.072 -1.7925  1.2229  2.3362
28949WAT     H217602   2.572   4.392   3.029  1.0724 -0.2893  0.1284
28949WAT    EPW17603   2.517   4.325   3.023  0.0376  0.4854  0.7435
28950WAT      O17604  -4.446  10.354   8.314 -0.2260 -0.3689  0.4029
28950WAT     H117605  -4.378  10.410   8.274 -2.1652  2.8110  1.1774
28950WAT     H217606  -4.407  10.323   8.395  0.7339  0.4512  0.2818
28950WAT    EPW17607  -4.431  10.358   8.319 -0.3552  0.1587  0.4888
28951WAT      O17608  -1.716   1.694   5.266  0.1614  0.1575  0.4419
28951WAT     H117609  -1.741   1.607   5.297 -0.1724  0.3624  0.7606
28951WAT     H217610  -1.640   1.679   5.210  0.2383 -0.3171  0.6681
28951WAT    EPW17611  -1.709   1.680   5.263  0.1276  0.1220  0.5138
28952WAT      O17612   2.100   1.531   4.451  0.5306  0.3716  0.0650
28952WAT     H117613   2.121   1.616   4.413  2.2523  0.3995  0.9677
28952WAT     H217614   2.102   1.470   4.377 -0.9714  1.1133 -0.6295
28952WAT    EPW17615   2.103   1.534   4.436  0.5596  0.4731  0.0925
28953WAT      O17616   5.131   1.502   1.064  0.8312  0.2440  0.3058
28953WAT     H117617   5.067   1.553   1.115 -0.1272 -0.3214 -0.3004
28953WAT     H217618   5.163   1.437   1.126 -0.4471 -0.5447  0.1842
28953WAT    EPW17619   5.127   1.500   1.079  0.5364  0.0653  0.2098
28954WAT      O17620   3.920   9.193   2.182 -1.0421  0.5330  0.4675
28954WAT     H117621   3.980   9.121   2.159  0.4322  1.4101  1.4471
28954WAT     H217622   3.873   9.161   2.259 -1.9481 -0.1862 -0.3458
28954WAT    EPW17623   3.922   9.179   2.189 -0.9670  0.5541  0.4894
28955WAT      O17624  -4.691  10.328   1.869  0.1554  0.3154  0.4543
28955WAT     H117625  -4.625  10.292   1.810 -2.4630 -0.4954 -2.2649
28955WAT     H217626  -4.709  10.257   1.930 -0.3105 -0.6481 -0.7425
28955WAT    EPW17627  -4.685  10.314   1.869 -0.2515  0.0815 -0.0622
28956WAT      O17628  -3.407   9.477   8.418 -0.0894 -0.0417 -0.1087
28956WAT     H117629  -3.338   9.476   8.485 -1.7099 -1.0708  1.6401
28956WAT     H217630  -3.488   9.491   8.467 -1.1318  1.5643 -2.1470
28956WAT    EPW17631  -3.408   9.478   8.433 -0.4406  0.0343 -0.1469
28957WAT      O17632   0.126   1.648   8.514 -0.5332 -0.4061  0.0652
28957WAT     H117633   0.135   1.695   8.432 -0.2106 -1.0070 -0.2512
28957WAT     H217634   0.032   1.635   8.524 -0.4982 -1.9327 -1.1553
28957WAT    EPW17635   0.115   1.652   8.505 -0.4861 -0.6867 -0.1378
28958WAT      O17636   4.424   0.586   8.517  0.5607  0.0241 -0.1353
28958WAT     H117637   4.437   0.525   8.444 -1.5054 -0.7777  0.0886
28958WAT     H217638   4.329   0.589   8.529  0.8210 -0.1230  2.6979
28958WAT    EPW17639   4.413   0.578   8.509  0.3226 -0.1011  0.2680
28959WAT      O17640  -0.707   3.105   0.334 -0.6610 -0.1751  0.4872
28959WAT     H117641  -0.731   3.154   0.255  0.7217 -0.8881 -0.4162
28959WAT     H217642  -0.774   3.037   0.341 -1.8595  1.0083  1.0279
28959WAT    EPW17643  -0.719   3.103   0.324 -0.6367 -0.1129  0.4393
28960WAT      O17644   1.623   5.326   1.663 -0.4961 -0.1331 -0.2258
28960WAT     H117645   1.605   5.367   1.579  2.4849  0.2149 -0.8042
28960WAT     H217646   1.657   5.397   1.718  1.1512 -1.0295 -0.0112
28960WAT    EPW17647   1.625   5.341   1.659  0.1144 -0.2055 -0.2738
28961WAT      O17648   0.963   7.263   3.205 -0.3497 -0.0493 -0.5771
28961WAT     H117649   0.980   7.355   3.185 -1.7047  0.0384 -1.4452
28961WAT     H217650   1.048   7.219   3.193  0.0043  0.8628 -1.4966
28961WAT    EPW17651   0.977   7.269   3.201 -0.4817  0.0825 -0.8129
28962WAT      O17652  -2.407  10.167   6.857  0.2480 -0.6047 -0.2209
28962WAT     H117653  -2.479  10.114   6.892 -0.0411 -0.5552 -0.7308
28962WAT     H217654  -2.428  10.256   6.884  0.6233 -0.7156  0.4543
28962WAT    EPW17655  -2.419  10.172   6.866  0.2594 -0.6127 -0.1993
28963WAT      O17656   0.653   0.117   1.091  0.1545 -0.2836  0.2034
28963WAT     H117657   0.623   0.026   1.095 -0.5069 -0.0277  1.3090
28963WAT     H217658   0.591   0.159   1.032  1.1311 -0.7676 -1.2429
28963WAT    EPW17659   0.641   0.110   1.083  0.1961 -0.3137  0.1584
28964WAT      O17660   7.553   0.166   3.605  0.1055  0.6931  0.1867
28964WAT     H117661   7.531   0.259   3.613  0.2770  0.6396  1.6610
28964WAT     H217662   7.513   0.126   3.682  0.7497 -0.3128  0.0167
28964WAT    EPW17663   7.545   0.173   3.616  0.2131  0.5534  0.3587
28965WAT      O17664  -3.954   1.142   6.207  0.4140 -0.2382  0.0503
28965WAT     H117665  -3.974   1.164   6.298 -2.5533  0.9231 -0.7691
28965WAT     H217666  -3.968   1.047   6.201  2.0261 -0.5736  1.0631
28965WAT    EPW17667  -3.959   1.132   6.218  0.2352 -0.1293  0.0758
28966WAT      O17668   0.104   9.650   5.663 -0.2211  0.0260 -0.4333
28966WAT     H117669   0.064   9.723   5.615 -0.6992 -0.0069 -0.0861
28966WAT     H217670   0.031   9.602   5.700  0.0044 -1.4021 -1.7341
28966WAT    EPW17671   0.089   9.653   5.662 -0.2544 -0.1664 -0.5591
28967WAT      O17672  -3.247   5.295   4.018  0.4109  0.3423 -0.1521
28967WAT     H117673  -3.248   5.251   4.103  1.5423  1.0554  0.2411
28967WAT     H217674  -3.207   5.232   3.959  0.6190  0.2644  0.0728
28967WAT    EPW17675  -3.242   5.281   4.022  0.5875  0.4261 -0.0706
28968WAT      O17676   3.335   5.731   1.909 -0.0103  0.1488 -0.0304
28968WAT     H117677   3.348   5.703   1.819 -1.8785 -2.2744  0.3406
28968WAT     H217678   3.290   5.815   1.903  1.9124  1.1465 -1.2803
28968WAT    EPW17679   3.331   5.738   1.897 -0.0030 -0.0391 -0.1463
28969WAT      O17680   3.481   8.592   2.845 -0.3588  0.4298  0.2175
28969WAT     H117681   3.551   8.594   2.910 -1.1892  5.2095  1.3067
28969WAT     H217682   3.526   8.588   2.761  1.1462  1.3558  0.9509
28969WAT    EPW17683   3.496   8.592   2.842 -0.2698  1.1821  0.4579
28970WAT      O17684   4.427   2.555   5.731  0.2146  0.6964  0.0029
28970WAT     H117685   4.449   2.462   5.740  1.3365  0.9856  0.3483
28970WAT     H217686   4.379   2.576   5.811 -2.0488 -0.0933 -1.0355
28970WAT    EPW17687   4.423   2.545   5.742  0.0641  0.6304 -0.0887
28971WAT      O17688   0.021   2.532   4.195  0.5241 -0.0672 -0.2783
28971WAT     H117689   0.040   2.605   4.136  0.6611 -0.0670 -0.2348
28971WAT     H217690   0.010   2.573   4.281  0.6561 -0.1046 -0.2440
28971WAT    EPW17691   0.022   2.547   4.198  0.5596 -0.0720 -0.2680
28972WAT      O17692   3.836   5.937   0.911 -0.1600 -0.0480 -0.2533
28972WAT     H117693   3.816   5.861   0.965 -2.6953 -0.7167 -1.9500
28972WAT     H217694   3.920   5.917   0.871  0.0678 -1.1025  0.7052
28972WAT    EPW17695   3.844   5.924   0.913 -0.4643 -0.2754 -0.3507
28973WAT      O17696  -3.896   5.424   8.447 -0.4289  0.3502  0.1768
28973WAT     H117697  -3.801   5.432   8.456 -0.3150  0.0425 -0.6318
28973WAT     H217698  -3.908   5.345   8.395 -1.1187  0.5127  0.0829
28973WAT    EPW17699  -3.885   5.415   8.441 -0.5049  0.3312  0.0577
28974WAT      O17700   3.113   6.733   5.963  0.1883 -0.2465  0.0938
28974WAT     H117701   3.118   6.660   5.901 -1.5860 -0.6365  0.3616
28974WAT     H217702   3.183   6.793   5.935 -0.7841 -0.2160 -2.5669
28974WAT    EPW17703   3.123   6.732   5.951 -0.1739 -0.2940 -0.2217
28975WAT      O17704   3.887   7.312   3.376  0.0069 -0.4802  0.0970
28975WAT     H117705   3.810   7.331   3.324 -1.4058  0.0258  2.2330
28975WAT     H217706   3.912   7.396   3.415  0.0484 -1.0792  1.4349
28975WAT    EPW17707   3.880   7.326   3.374 -0.1739 -0.4923  0.5552
28976WAT      O17708  -5.001   9.540   5.004  0.2711  0.3073 -0.8585
28976WAT     H117709  -4.907   9.554   4.995  0.7410 -2.0209 -0.4195
28976WAT     H217710  -5.011   9.445   4.997 -2.0754  0.5061 -0.9939
28976WAT    EPW17711  -4.990   9.529   5.002  0.0236  0.0267 -0.8185
28977WAT      O17712   3.375   6.649   4.062  0.1566 -0.4527  0.2432
28977WAT     H117713   3.389   6.704   3.984  0.2020 -1.9179 -0.8314
28977WAT     H217714   3.316   6.700   4.117 -0.6308  0.2576 -1.1894
28977WAT    EPW17715   3.369   6.663   4.059  0.0588 -0.5522 -0.0875
28978WAT      O17716   5.544   3.598   0.424 -0.1917  0.6267 -0.1464
28978WAT     H117717   5.463   3.617   0.378 -0.7914  2.8610  1.6040
28978WAT     H217718   5.516   3.563   0.509  0.7820 -0.7946 -0.3727
28978WAT    EPW17719   5.530   3.596   0.429 -0.1423  0.7341  0.0546
28979WAT      O17720  -1.658   7.273   2.517 -0.6803 -0.1463  0.1723
28979WAT     H117721  -1.718   7.342   2.544 -0.9547 -0.6806  0.9728
28979WAT     H217722  -1.673   7.203   2.580  1.2218 -0.0621  0.7721
28979WAT    EPW17723  -1.668   7.273   2.529 -0.4656 -0.2055  0.3569
28980WAT      O17724  -0.101   1.728   0.763  0.0038  0.7676 -0.3271
28980WAT     H117725  -0.108   1.633   0.754 -1.0036  0.9891 -2.5840
28980WAT     H217726  -0.171   1.751   0.824  0.1057  0.1012  0.0537
28980WAT    EPW17727  -0.111   1.719   0.770 -0.1156  0.7089 -0.5745
28981WAT      O17728  -0.571   8.177   3.847  0.1040 -0.5717  0.2103
28981WAT     H117729  -0.524   8.246   3.802  3.0252 -0.7474  2.7109
28981WAT     H217730  -0.521   8.161   3.927 -2.7735 -2.7106  1.7858
28981WAT    EPW17731  -0.558   8.184   3.851  0.1097 -0.8764  0.7480
28982WAT      O17732   0.266   1.168   6.530 -0.0500  0.2020  0.1046
28982WAT     H117733   0.275   1.235   6.597  0.3545  1.3860 -1.0903
28982WAT     H217734   0.222   1.095   6.574  1.9606  0.1361  2.1754
28982WAT    EPW17735   0.262   1.167   6.545  0.2685  0.3495  0.2201
28983WAT      O17736   1.966   6.091   6.366 -0.0851 -0.7158  0.1461
28983WAT     H117737   1.921   6.037   6.301  0.6351 -1.7085  0.4427
28983WAT     H217738   2.051   6.110   6.327 -1.0338  1.9498 -0.8224
28983WAT    EPW17739   1.971   6.086   6.353 -0.1153 -0.4952  0.0572
28984WAT      O17740  -5.884   9.738   5.041 -0.6266  0.3201  0.3992
28984WAT     H117741  -5.933   9.699   5.114  2.1833  0.9114  2.7903
28984WAT     H217742  -5.856   9.823   5.075  1.9391  0.0345 -0.8099
28984WAT    EPW17743  -5.887   9.744   5.055  0.0825  0.3605  0.5553
28985WAT      O17744  -4.474   2.061   6.316  0.5009  0.1181  0.4428
28985WAT     H117745  -4.481   2.126   6.247 -2.4951 -1.3149 -0.7900
28985WAT     H217746  -4.551   2.076   6.371 -0.7674 -2.7403 -0.3535
28985WAT    EPW17747  -4.485   2.072   6.314 -0.0615 -0.4479  0.1752
28986WAT      O17748   5.447   3.565   0.715  0.2658 -0.0312  0.3891
28986WAT     H117749   5.359   3.572   0.751  0.4102  3.1700  0.4290
28986WAT     H217750   5.501   3.618   0.773  2.0676 -1.1383 -0.1896
28986WAT    EPW17751   5.443   3.573   0.727  0.5221  0.2451  0.3180
28987WAT      O17752  -0.414   3.866   5.612  1.0989  0.3138 -0.0005
28987WAT     H117753  -0.478   3.860   5.683  1.2276 -2.1803 -0.0196
28987WAT     H217754  -0.467   3.876   5.533  0.8113  0.1453  0.1678
28987WAT    EPW17755  -0.429   3.867   5.611  1.0779 -0.0373  0.0193
28988WAT      O17756   3.616   9.432   0.798 -0.1213 -0.1888  0.2715
28988WAT     H117757   3.709   9.417   0.814 -0.0632  0.6568  0.7266
28988WAT     H217758   3.573   9.407   0.879 -0.2690 -0.3119  0.1565
28988WAT    EPW17759   3.622   9.427   0.811 -0.1332 -0.0935  0.3163
28989WAT      O17760  -1.707   3.519   1.628  0.1414  0.6711 -1.1835
28989WAT     H117761  -1.776   3.453   1.616 -0.8880  1.1047  1.6797
28989WAT     H217762  -1.637   3.473   1.673  1.4464  0.4839 -3.2431
28989WAT    EPW17763  -1.707   3.504   1.632  0.1778  0.7036 -1.0775
28990WAT      O17764   3.454   1.482   0.853  1.0799 -0.2944 -0.3990
28990WAT     H117765   3.392   1.465   0.924  0.2452 -0.1913 -1.0948
28990WAT     H217766   3.524   1.533   0.894  1.7667 -2.1305  0.8793
28990WAT    EPW17767   3.455   1.486   0.868  1.0604 -0.5230 -0.3222
28991WAT      O17768  -3.632   6.482   6.398  0.5809  0.2189  0.5072
28991WAT     H117769  -3.689   6.499   6.473  0.7120 -1.0825  0.9243
28991WAT     H217770  -3.679   6.416   6.347  0.9904  0.3090 -0.0021
28991WAT    EPW17771  -3.646   6.476   6.401  0.6522  0.0591  0.4952
28992WAT      O17772   9.083   3.121   0.512 -0.2810 -0.3382  0.6949
28992WAT     H117773   9.169   3.162   0.521 -0.1901 -0.6004  1.0425
28992WAT     H217774   9.062   3.089   0.600 -1.3045  0.8348  0.9037
28992WAT    EPW17775   9.092   3.122   0.525 -0.4039 -0.2182  0.7683
28993WAT      O17776   1.095   2.615   0.396  0.3197 -0.4419  0.0884
28993WAT     H117777   1.073   2.541   0.340  1.3059 -0.3616 -0.4360
28993WAT     H217778   1.087   2.692   0.339 -2.4620  0.1213  1.0778
28993WAT    EPW17779   1.091   2.615   0.381  0.0829 -0.3570  0.1497
28994WAT      O17780   3.242   4.537   4.329  0.8557 -0.4546  0.2281
28994WAT     H117781   3.281   4.624   4.337  2.0870 -0.9275 -0.3288
28994WAT     H217782   3.237   4.522   4.234 -0.6590 -0.4404  0.2843
28994WAT    EPW17783   3.247   4.547   4.318  0.8184 -0.5150  0.1621
28995WAT      O17784  -7.199   5.944   8.642 -0.0617 -0.3795  0.2791
28995WAT     H117785  -7.260   6.016   8.626 -0.4592 -0.3107  1.9455
28995WAT     H217786  -7.254   5.871   8.669  0.5609  0.1316  3.3807
28995WAT    EPW17787  -7.214   5.944   8.644 -0.0322 -0.3030  0.9079
28996WAT      O17788  -2.688   1.512   5.533  0.3166 -0.0600  0.2559
28996WAT     H117789  -2.711   1.518   5.626  2.0274  1.5419  0.6468
28996WAT     H217790  -2.602   1.470   5.532  0.3379 -0.0075 -0.5806
28996WAT    EPW17791  -2.680   1.508   5.545  0.5450  0.1582  0.1972
28997WAT      O17792  -2.941   7.445   7.154  0.4107 -0.0706 -0.4117
28997WAT     H117793  -3.024   7.404   7.176  0.3064 -0.0999 -0.8428
28997WAT     H217794  -2.925   7.509   7.223 -0.2155  0.2873 -0.5942
28997WAT    EPW17795  -2.950   7.448   7.166  0.3144 -0.0274 -0.4926
28998WAT      O17796  -5.246   7.588   7.565 -0.6104 -0.6043 -0.5206
28998WAT     H117797  -5.230   7.595   7.659 -0.2756  1.3655 -0.6881
28998WAT     H217798  -5.210   7.669   7.528 -4.3612  0.6867 -1.8318
28998WAT    EPW17799  -5.239   7.600   7.572 -1.0610 -0.1743 -0.7157
28999WAT      O17800   9.364   0.037   0.885  0.1950  0.3929  0.4483
28999WAT     H117801   9.284   0.069   0.843  1.1049 -0.2569 -1.9522
28999WAT     H217802   9.409   0.116   0.914 -0.3055  0.9249 -0.1889
28999WAT    EPW17803   9.359   0.052   0.883  0.2489  0.3773  0.0477
29000WAT      O17804  -3.832  10.050   3.224  0.6353  0.0086  0.5395
29000WAT     H117805  -3.824  10.061   3.129 -0.3050  0.1146  0.4604
29000WAT     H217806  -3.808  10.135   3.261 -0.3504  0.4008  0.3073
29000WAT    EPW17807  -3.828  10.062   3.216  0.3812  0.0744  0.4985
29001WAT      O17808  -5.156   3.758   8.593 -0.2535  0.2673 -0.7356
29001WAT     H117809  -5.060   3.765   8.587 -0.1167 -1.2369 -0.6383
29001WAT     H217810  -5.180   3.825   8.657  0.6575  1.0800 -1.2016
29001WAT    EPW17811  -5.146   3.768   8.601 -0.1154  0.1762 -0.7839
29002WAT      O17812   0.252   2.163   8.462 -0.3070 -0.1395 -0.5948
29002WAT     H117813   0.214   2.136   8.545 -0.2249  0.3268 -0.4051
29002WAT     H217814   0.259   2.258   8.468 -0.4722 -0.0825 -1.2059
29002WAT    EPW17815   0.248   2.172   8.474 -0.3180 -0.0705 -0.6504
29003WAT      O17816  -2.712   5.309   5.294  0.6013  0.6811 -0.2089
29003WAT     H117817  -2.753   5.223   5.305  1.9083 -0.1178 -1.2893
29003WAT     H217818  -2.621   5.295   5.319  1.0605  1.4934 -1.3813
29003WAT    EPW17819  -2.705   5.295   5.299  0.8342  0.6828 -0.5059
29004WAT      O17820  -0.112   7.638   2.556  0.6400  1.0548 -0.1143
29004WAT     H117821  -0.027   7.662   2.594  1.5511 -0.8252 -0.7991
29004WAT     H217822  -0.140   7.561   2.606  0.7984 -0.1097 -1.7126
29004WAT    EPW17823  -0.104   7.631   2.567  0.7811  0.6533 -0.4154
29005WAT      O17824   0.288   7.981   2.716  0.1048 -0.0484  0.7373
29005WAT     H117825   0.369   8.017   2.681  0.5691 -2.8182 -1.3913
29005WAT     H217826   0.249   8.053   2.766  2.7212  2.0716 -0.0579
29005WAT    EPW17827   0.294   7.995   2.718  0.5112 -0.1342  0.3517
29006WAT      O17828  -6.586   7.509   6.911  0.5469  0.3259 -0.0887
29006WAT     H117829  -6.679   7.483   6.910  1.0948 -1.8623 -0.7045
29006WAT     H217830  -6.583   7.587   6.856 -0.7116 -0.5881 -1.5832
29006WAT    EPW17831  -6.598   7.516   6.903  0.4530 -0.0834 -0.3672
29007WAT      O17832   3.749   2.180   2.300 -0.0690 -0.9607  0.2200
29007WAT     H117833   3.684   2.158   2.367 -1.5083  2.3850  0.0875
29007WAT     H217834   3.724   2.127   2.224 -2.6737  0.1133  0.2109
29007WAT    EPW17835   3.737   2.170   2.299 -0.6022 -0.3777  0.2013
29008WAT      O17836  -6.430   9.437   8.982  0.2641  0.0332  0.7722
29008WAT     H117837  -6.412   9.519   9.028 -2.2644  0.3574  1.3688
29008WAT     H217838  -6.463   9.465   8.896  0.5553 -0.4121  0.5133
29008WAT    EPW17839  -6.432   9.452   8.976 -0.0310  0.0172  0.8168
29009WAT      O17840   0.044   6.923   8.584 -0.0357 -0.1171 -0.1380
29009WAT     H117841   0.048   6.830   8.562 -1.1394  0.2692 -2.2802
29009WAT     H217842  -0.046   6.937   8.615  0.0540  0.2610 -0.0399
29009WAT    EPW17843   0.032   6.913   8.585 -0.1694 -0.0162 -0.4082
29010WAT      O17844  -0.269   9.761   0.696  0.0542  0.0819  0.2710
29010WAT     H117845  -0.351   9.763   0.744 -1.0160 -1.2752 -1.3852
29010WAT     H217846  -0.263   9.846   0.653 -1.8808 -0.7264 -1.7343
29010WAT    EPW17847  -0.279   9.772   0.697 -0.3422 -0.2036 -0.2120
29011WAT      O17848  -3.884   9.615   3.453  1.0509  0.5597  1.0571
29011WAT     H117849  -3.880   9.521   3.472  2.0666 -0.0448 -1.7325
29011WAT     H217850  -3.885   9.620   3.357 -3.9275  3.2076  0.8860
29011WAT    EPW17851  -3.884   9.603   3.443  0.5282  0.8292  0.6666
29012WAT      O17852   3.362   2.878   2.507 -0.8404 -0.4123  0.4655
29012WAT     H117853   3.288   2.914   2.458 -2.1876 -1.1347  1.8839
29012WAT     H217854   3.373   2.938   2.581 -0.3085 -0.5663  0.5163
29012WAT    EPW17855   3.354   2.891   2.511 -0.9478 -0.5280  0.6592
29013WAT      O17856  -1.834   3.401   5.313  0.4313  0.4659  0.1067
29013WAT     H117857  -1.821   3.493   5.291  0.5935  0.0521 -1.6928
29013WAT     H217858  -1.750   3.359   5.291 -0.1897 -0.3758 -0.7433
29013WAT    EPW17859  -1.821   3.407   5.307  0.3708  0.3004 -0.2427
29014WAT      O17860  -4.574   5.825   8.560  0.3364 -0.1267 -0.1896
29014WAT     H117861  -4.591   5.774   8.481  0.1276  1.4107 -1.1763
29014WAT     H217862  -4.537   5.908   8.528 -0.5959  0.8886  1.2509
29014WAT    EPW17863  -4.571   5.829   8.546  0.1860  0.2098 -0.1302
29015WAT      O17864  -0.592   2.037   6.087  0.0497  0.0494 -0.3056
29015WAT     H117865  -0.552   2.107   6.036  1.0446  0.7946  1.4109
29015WAT     H217866  -0.557   2.048   6.175 -1.9721 -0.8680  0.6982
29015WAT    EPW17867  -0.582   2.048   6.092 -0.0857  0.0267  0.0532
29016WAT      O17868   7.962   1.859   2.800  0.4341  0.5080 -0.6893
29016WAT     H117869   7.975   1.842   2.894 -1.3225  0.5729 -0.4001
29016WAT     H217870   8.042   1.827   2.759  1.6318  1.2811  0.9110
29016WAT    EPW17871   7.974   1.853   2.807  0.3603  0.6186 -0.4401
29017WAT      O17872  -1.656   3.636   8.596  0.0497  0.5043  0.5991
29017WAT     H117873  -1.708   3.710   8.564  0.7786  0.6744 -0.2182
29017WAT     H217874  -1.653   3.648   8.691 -1.4576  0.4480  0.6894
29017WAT    EPW17875  -1.663   3.647   8.604 -0.0530  0.5192  0.5031
29018WAT      O17876  -0.357   1.031   7.387  0.0560  0.2096 -0.6329
29018WAT     H117877  -0.388   0.945   7.413  1.2308  0.0615  0.3747
29018WAT     H217878  -0.275   1.014   7.342  1.9536  0.9067  2.2743
29018WAT    EPW17879  -0.350   1.018   7.385  0.4612  0.2820 -0.1163
29019WAT      O17880  -2.984   8.243   0.734  0.1229  0.1844 -0.4484
29019WAT     H117881  -3.067   8.213   0.697 -0.1948 -0.1380  0.4938
29019WAT     H217882  -2.990   8.338   0.732  0.8631  0.2636 -2.8412
29019WAT    EPW17883  -2.995   8.251   0.729  0.1787  0.1526 -0.6398
29020WAT      O17884  -1.467   1.925   6.159 -0.0484 -0.3178  0.2461
29020WAT     H117885  -1.427   1.975   6.230  1.1172  3.6440 -2.7858
29020WAT     H217886  -1.548   1.972   6.140 -0.2627 -1.1772 -1.0889
29020WAT    EPW17887  -1.472   1.938   6.166  0.0771  0.0913 -0.3297
29021WAT      O17888   6.256   4.072   0.784 -0.1067  0.3571 -0.3809
29021WAT     H117889   6.351   4.083   0.784 -0.1535  1.0007 -1.6983
29021WAT     H217890   6.243   3.977   0.784  0.4681  0.2253  1.9558
29021WAT    EPW17891   6.267   4.061   0.784 -0.0372  0.4246 -0.2464
29022WAT      O17892   5.463   7.113   1.490 -0.7804  1.2234 -0.3212
29022WAT     H117893   5.453   7.208   1.485 -2.5816  1.0920 -0.0610
29022WAT     H217894   5.374   7.081   1.507 -0.3829 -0.5851 -1.4004
29022WAT    EPW17895   5.450   7.121   1.492 -0.9656  0.9673 -0.4293
29023WAT      O17896   1.044   8.705   7.225 -0.4679 -0.4608 -0.5159
29023WAT     H117897   0.963   8.690   7.274  0.2142 -1.4479  0.3738
29023WAT     H217898   1.054   8.626   7.171  0.6255 -1.0393  0.4839
29023WAT    EPW17899   1.035   8.692   7.225 -0.2338 -0.6671 -0.2668
29024WAT      O17900  -4.077   1.452   6.158 -0.2597  0.1331  0.1287
29024WAT     H117901  -4.110   1.404   6.082 -0.0273  0.7552 -0.3757
29024WAT     H217902  -4.036   1.530   6.121  1.9803 -0.6979  0.6987
29024WAT    EPW17903  -4.076   1.456   6.143  0.0663  0.1056  0.1371
29025WAT      O17904  -2.050   5.833   2.344 -0.3010  0.4053 -0.4057
29025WAT     H117905  -2.136   5.792   2.355  0.5415 -1.0672  1.0218
29025WAT     H217906  -2.034   5.878   2.427 -0.7198  2.8503 -1.5460
29025WAT    EPW17907  -2.059   5.834   2.356 -0.2452  0.5336 -0.3679
29026WAT      O17908  -4.450   1.957   8.614  0.4156 -0.0625 -0.1480
29026WAT     H117909  -4.453   2.053   8.618  0.4217 -0.0684  0.0217
29026WAT     H217910  -4.440   1.937   8.521 -2.2267  0.0374 -0.5112
29026WAT    EPW17911  -4.449   1.967   8.602  0.0677 -0.0501 -0.1736
29027WAT      O17912  -2.853  10.225   2.735  0.1110 -0.3746  0.2887
29027WAT     H117913  -2.884  10.246   2.823  1.8996  0.3627  0.7900
29027WAT     H217914  -2.771  10.178   2.749  1.5922  1.6454 -0.9307
29027WAT    EPW17915  -2.846  10.222   2.749  0.5424 -0.0114  0.1940
29028WAT      O17916  -5.505   3.739   8.185  0.2165 -0.0022  0.5591
29028WAT     H117917  -5.468   3.827   8.174 -0.5652  1.1145  4.9509
29028WAT     H217918  -5.431   3.686   8.217  0.1041 -0.3261  0.2964
29028WAT    EPW17919  -5.490   3.743   8.188  0.0985  0.1024  1.1039
29029WAT      O17920   4.637   8.933   1.517  0.2997  0.0447 -0.0890
29029WAT     H117921   4.581   8.963   1.588 -0.7515  0.4580 -1.0690
29029WAT     H217922   4.623   8.996   1.447 -0.7638 -1.7945 -1.6403
29029WAT    EPW17923   4.628   8.945   1.517  0.0207 -0.1431 -0.4228
29030WAT      O17924   8.867   2.979   1.517 -0.2969  0.1410 -0.2315
29030WAT     H117925   8.860   3.038   1.442  0.4987  0.9354  0.2920
29030WAT     H217926   8.777   2.962   1.543 -0.5417  1.0963 -0.4211
29030WAT    EPW17927   8.854   2.985   1.510 -0.2241  0.3718 -0.1874
29031WAT      O17928   2.540   1.423   1.522 -0.3188 -0.2380  0.0829
29031WAT     H117929   2.619   1.450   1.475 -1.5528  1.1756 -1.2905
29031WAT     H217930   2.468   1.445   1.463 -1.7636 -1.4557  1.3040
29031WAT    EPW17931   2.541   1.429   1.508 -0.6721 -0.2121  0.0628
29032WAT      O17932   3.854   2.768   1.815 -0.2177  0.5331 -0.3082
29032WAT     H117933   3.948   2.784   1.808 -0.1823  0.3164 -0.3283
29032WAT     H217934   3.822   2.842   1.868 -0.2911  1.4607 -1.5917
29032WAT    EPW17935   3.862   2.780   1.821 -0.2227  0.6268 -0.4801
29033WAT      O17936   8.036   3.291   0.347  0.4820 -0.1384  0.4004
29033WAT     H117937   7.982   3.345   0.403 -0.9875 -1.2447  0.1061
29033WAT     H217938   7.978   3.221   0.318  1.9982 -1.2232 -0.1512
29033WAT    EPW17939   8.022   3.289   0.351  0.4883 -0.4275  0.2888
29034WAT      O17940   0.151   1.595   7.386  0.3051 -0.1396  0.9285
29034WAT     H117941   0.092   1.603   7.312  0.8373  0.4979  0.5568
29034WAT     H217942   0.213   1.527   7.360 -0.9177 -1.6564  1.7958
29034WAT    EPW17943   0.152   1.587   7.373  0.2140 -0.2555  0.9937
29035WAT      O17944   1.599   5.993   6.016  0.4787 -0.7140 -0.3024
29035WAT     H117945   1.609   6.065   6.079  0.3287  1.4092 -2.5384
29035WAT     H217946   1.570   6.036   5.935  1.3826 -3.1927 -2.0711
29035WAT    EPW17947   1.596   6.008   6.014  0.5781 -0.7610 -0.8307
29036WAT      O17948  -3.069   6.713   7.368  0.0873 -0.1519  0.4135
29036WAT     H117949  -2.995   6.734   7.311  1.1546 -0.1976  1.7395
29036WAT     H217950  -3.139   6.686   7.308  0.9675  0.4031 -0.8943
29036WAT    EPW17951  -3.069   6.712   7.353  0.3443 -0.0846  0.4160
29037WAT      O17952   1.497   5.231   3.893  0.3882 -0.2892  0.3701
29037WAT     H117953   1.406   5.201   3.892  0.0028  0.5136 -2.8393
29037WAT     H217954   1.547   5.156   3.861  0.0145  0.7492 -3.1286
29037WAT    EPW17955   1.492   5.217   3.888  0.2881 -0.0465 -0.5147
29038WAT      O17956   3.114   2.885   1.851 -0.6111 -0.5739 -0.5883
29038WAT     H117957   3.090   2.950   1.917 -0.6806  0.3711 -1.5282
29038WAT     H217958   3.072   2.915   1.771 -2.5187 -2.9841 -0.5959
29038WAT    EPW17959   3.105   2.897   1.849 -0.8719 -0.7671 -0.7133
29039WAT      O17960   0.889   0.987   2.430 -0.6471  0.4226 -1.0630
29039WAT     H117961   0.912   1.057   2.491 -1.8539  1.1842 -1.4613
29039WAT     H217962   0.905   0.907   2.479  0.7317  0.9536 -0.5863
29039WAT    EPW17963   0.894   0.986   2.444 -0.6244  0.5931 -1.0526
29040WAT      O17964   0.697   2.384   8.716 -0.0012  0.4890 -0.3626
29040WAT     H117965   0.623   2.441   8.697  0.3851  0.2648 -2.9832
29040WAT     H217966   0.662   2.295   8.707  0.8973  0.3326 -3.9037
29040WAT    EPW17967   0.683   2.379   8.712  0.1683  0.4388 -1.1754
29041WAT      O17968  -3.611   1.667   5.294 -0.1779 -0.4746  0.3652
29041WAT     H117969  -3.640   1.757   5.277  2.2159  0.4471  0.8334
29041WAT     H217970  -3.522   1.664   5.261 -0.0709 -2.5735  0.7571
29041WAT    EPW17971  -3.603   1.679   5.288  0.1518 -0.6298  0.4787
29042WAT      O17972  -2.967   2.308   8.028 -0.2548 -0.6016  0.5750
29042WAT     H117973  -3.035   2.297   7.961  0.9323 -0.2525 -0.7292
29042WAT     H217974  -2.985   2.239   8.092 -1.1822 -1.2021 -0.3026
29042WAT    EPW17975  -2.978   2.297   8.028 -0.2207 -0.6347  0.2875
29043WAT      O17976   3.396   3.125   3.388 -0.5857  0.1865 -0.4352
29043WAT     H117977   3.334   3.182   3.434 -1.7314 -0.4888 -1.0997
29043WAT     H217978   3.345   3.087   3.316  0.4609 -0.7988 -0.6874
29043WAT    EPW17979   3.381   3.128   3.385 -0.5988 -0.0324 -0.5561
29044WAT      O17980   5.154   1.639   5.743  0.0817 -0.5090 -0.1775
29044WAT     H117981   5.140   1.703   5.673 -1.5854 -1.7958 -1.1252
29044WAT     H217982   5.090   1.663   5.810  0.3173 -0.4485  0.0269
29044WAT    EPW17983   5.143   1.650   5.743 -0.1073 -0.6708 -0.2756
29045WAT      O17984   3.206   6.422   3.224 -0.2027 -0.1591  0.7165
29045WAT     H117985   3.248   6.498   3.263 -1.0265  1.0338 -0.6266
29045WAT     H217986   3.114   6.448   3.213 -0.7048 -1.6791  1.0575
29045WAT    EPW17987   3.200   6.435   3.227 -0.3777 -0.2022  0.5844
29046WAT      O17988   5.709   3.595   4.448 -0.1005 -0.4304  0.0579
29046WAT     H117989   5.630   3.550   4.418  0.1850 -0.3849 -0.7706
29046WAT     H217990   5.682   3.686   4.457 -0.0604 -0.3597 -0.5300
29046WAT    EPW17991   5.695   3.601   4.445 -0.0575 -0.4151 -0.1287
29047WAT      O17992   4.894   3.018   2.600  0.3777 -0.3179 -0.0644
29047WAT     H117993   4.902   3.100   2.552 -1.7679 -0.1905 -0.3136
29047WAT     H217994   4.983   2.982   2.602  1.0018  1.0162 -1.6836
29047WAT    EPW17995   4.907   3.024   2.594  0.1771 -0.1252 -0.3109
29048WAT      O17996  -4.786   4.939   6.693 -0.0881 -0.3406  0.6594
29048WAT     H117997  -4.795   5.014   6.751  0.3753 -0.2338  0.5992
29048WAT     H217998  -4.864   4.886   6.709 -0.4563  0.1916  0.6442
29048WAT    EPW17999  -4.798   4.942   6.703 -0.0756 -0.2565  0.6497
29049WAT      O18000  -0.128   3.360   4.976  0.4283  0.0889 -0.2818
29049WAT     H118001  -0.161   3.273   4.953  1.5838 -0.2474 -0.7222
29049WAT     H218002  -0.169   3.419   4.913 -0.6560 -0.0625  0.2507
29049WAT    EPW18003  -0.138   3.356   4.965  0.4377  0.0246 -0.2697
29050WAT      O18004  -1.136   7.265   6.924  0.1569  0.3106  0.3024
29050WAT     H118005  -1.115   7.354   6.955 -1.6737  0.1236  2.3348
29050WAT     H218006  -1.226   7.272   6.892 -1.1017 -1.2665  3.0939
29050WAT    EPW18007  -1.145   7.278   6.924 -0.2506  0.0780  0.9384
29051WAT      O18008   2.000   3.304   0.315  0.5180  0.2940  0.0646
29051WAT     H118009   1.970   3.366   0.249  0.0240 -0.5282 -0.4961
29051WAT     H218010   1.924   3.289   0.370 -1.0983 -3.6725 -2.7845
29051WAT    EPW18011   1.986   3.311   0.313  0.2397 -0.3376 -0.3852
29052WAT      O18012  -2.056   7.265   0.771 -0.1463 -0.0727  0.1517
29052WAT     H118013  -2.086   7.264   0.681  0.6042  1.3167 -0.1489
29052WAT     H218014  -1.989   7.197   0.775  0.8355  0.8044 -0.7422
29052WAT    EPW18015  -2.051   7.256   0.760  0.0823  0.2260 -0.0058
29053WAT      O18016  -3.881   2.446   6.370  0.1119 -0.1524 -0.7546
29053WAT     H118017  -3.923   2.503   6.306 -0.6080  0.6006  0.3532
29053WAT     H218018  -3.805   2.496   6.401  0.1539 -0.2867 -0.6381
29053WAT    EPW18019  -3.876   2.460   6.366  0.0224 -0.0707 -0.5929
29054WAT      O18020   0.341   8.681   5.609 -0.2093 -0.2473  0.3726
29054WAT     H118021   0.425   8.634   5.611 -0.6788 -1.1107  2.0896
29054WAT     H218022   0.310   8.672   5.519  1.4615 -0.0230 -0.2601
29054WAT    EPW18023   0.348   8.674   5.598 -0.0508 -0.3314  0.5157
29055WAT      O18024  -2.514   2.194   4.822  0.4726  0.7888  0.0571
29055WAT     H118025  -2.507   2.262   4.755  0.1941  3.4054  2.5177
29055WAT     H218026  -2.609   2.182   4.833  0.5082  0.6999  0.2686
29055WAT    EPW18027  -2.526   2.201   4.814  0.4405  1.1222  0.4096
29056WAT      O18028   3.507   0.953   5.184 -0.1762  0.0656 -0.1943
29056WAT     H118029   3.450   1.019   5.145  0.6387 -0.8678 -3.1879
29056WAT     H218030   3.504   0.880   5.123  1.8284 -1.2190  1.1416
29056WAT    EPW18031   3.499   0.952   5.171  0.1957 -0.2269 -0.4129
29057WAT      O18032  -7.192   9.815   6.132  0.6908  0.1689 -0.5140
29057WAT     H118033  -7.202   9.721   6.148 -0.5352  0.6520  2.3281
29057WAT     H218034  -7.113   9.839   6.182  0.7860  0.7086 -0.9202
29057WAT    EPW18035  -7.183   9.806   6.141  0.5419  0.3037 -0.1926
29058WAT      O18036  -2.386   6.456   7.936  0.0772  0.3078  0.2755
29058WAT     H118037  -2.408   6.439   8.028 -1.5349 -0.4286 -0.1925
29058WAT     H218038  -2.291   6.461   7.934  0.1363  0.4619  2.0027
29058WAT    EPW18039  -2.377   6.455   7.948 -0.1277  0.2310  0.4416
29059WAT      O18040   3.266   8.415   4.617 -0.2731 -0.3911 -0.4292
29059WAT     H118041   3.212   8.404   4.695  0.7781 -2.3434  0.1017
29059WAT     H218042   3.288   8.508   4.615 -1.6140 -0.0238  0.6874
29059WAT    EPW18043   3.262   8.426   4.627 -0.3114 -0.6003 -0.2117
29060WAT      O18044   0.280   7.570   4.779  0.6063 -0.1318  0.7515
29060WAT     H118045   0.305   7.553   4.870 -3.8157 -0.7219  2.0912
29060WAT     H218046   0.302   7.662   4.765  0.3491  0.3039  2.8687
29060WAT    EPW18047   0.286   7.580   4.790 -0.0109 -0.1523  1.2076
29061WAT      O18048   4.582   1.351   8.810 -0.7982  0.4305 -0.1448
29061WAT     H118049   4.577   1.398   8.727  0.2200 -2.2735 -1.8723
29061WAT     H218050   4.500   1.303   8.816  0.3501 -1.8799 -1.3351
29061WAT    EPW18051   4.571   1.351   8.800 -0.5124 -0.2308 -0.5298
29062WAT      O18052   7.793   5.839   0.456 -0.1894  0.1677  0.4687
29062WAT     H118053   7.818   5.750   0.479 -1.3182 -0.9446 -2.1553
29062WAT     H218054   7.720   5.859   0.514 -1.0610 -1.3496 -0.0421
29062WAT    EPW18055   7.787   5.830   0.466 -0.4532 -0.1791  0.0552
29063WAT      O18056  -1.328   4.533   4.356 -0.2803 -0.4858  0.2133
29063WAT     H118057  -1.317   4.454   4.303  4.1682  1.0412 -1.6286
29063WAT     H218058  -1.304   4.604   4.297 -1.3474  2.0154  2.5870
29063WAT    EPW18059  -1.323   4.532   4.341  0.1658  0.0453  0.2835
29064WAT      O18060  -0.214   0.249   1.566 -0.1470 -0.4063 -0.1407
29064WAT     H118061  -0.171   0.250   1.481 -0.4722  0.8885 -0.3096
29064WAT     H218062  -0.145   0.268   1.629 -0.3682  1.3493 -0.3832
29064WAT    EPW18063  -0.200   0.252   1.563 -0.2191 -0.0040 -0.1950
29065WAT      O18064  -5.416   3.875   8.766  0.0739  0.1745 -0.6689
29065WAT     H118065  -5.460   3.892   8.850  0.4531 -1.4999 -0.0844
29065WAT     H218066  -5.381   3.786   8.775  1.0515  0.3594 -2.2178
29065WAT    EPW18067  -5.417   3.865   8.778  0.2530 -0.0219 -0.7958
29066WAT      O18068  -0.008   8.251   6.978 -0.0252  0.6315 -0.3309
29066WAT     H118069  -0.095   8.235   7.013  0.3857  1.9979  1.4246
29066WAT     H218070  -0.015   8.335   6.932  0.1841  0.3500 -0.8883
29066WAT    EPW18071  -0.020   8.260   6.977  0.0566  0.7749 -0.1729
29067WAT      O18072   1.366   3.726   4.562 -0.2882  0.4121 -0.1831
29067WAT     H118073   1.387   3.808   4.518  2.3064  0.5723  1.1407
29067WAT     H218074   1.437   3.667   4.536  0.5867  0.1141  2.5568
29067WAT    EPW18075   1.378   3.729   4.553  0.1693  0.3939  0.3529
29068WAT      O18076  -1.970   7.051   4.637  0.0766 -0.6910 -0.1006
29068WAT     H118077  -2.021   7.017   4.710  0.4869  1.1274  1.1185
29068WAT     H218078  -1.991   7.145   4.635  1.3205 -0.4077 -1.2694
29068WAT    EPW18079  -1.979   7.059   4.647  0.2947 -0.4139 -0.0942
29069WAT      O18080   0.840   5.311   1.912 -0.0101 -0.5236 -0.4105
29069WAT     H118081   0.786   5.296   1.835 -0.1313 -0.2166 -0.3888
29069WAT     H218082   0.781   5.356   1.974  0.0069 -0.9997 -0.0397
29069WAT    EPW18083   0.825   5.315   1.910 -0.0238 -0.5460 -0.3587
29070WAT      O18084  -5.868   8.899   8.920  0.1511 -0.7229  0.3132
29070WAT     H118085  -5.803   8.882   8.988 -1.1116  1.3125  2.1442
29070WAT     H218086  -5.867   8.994   8.908 -2.6811 -0.5375  0.7196
29070WAT    EPW18087  -5.860   8.909   8.927 -0.3889 -0.4296  0.6084
29071WAT      O18088   5.675   0.235   1.863  0.1587  0.8726  0.6511
29071WAT     H118089   5.753   0.212   1.813  1.5585  3.2353  1.5527
29071WAT     H218090   5.691   0.200   1.951 -1.7017 -2.1288 -0.0878
29071WAT    EPW18091   5.688   0.228   1.868  0.0980  0.7884  0.6725
29072WAT      O18092  -1.242   2.030   7.334  1.0313  0.0554  0.2604
29072WAT     H118093  -1.268   2.103   7.390  2.2397  1.7280 -1.2206
29072WAT     H218094  -1.286   2.048   7.251  0.0736 -1.8136  0.3143
29072WAT    EPW18095  -1.251   2.042   7.330  1.0644  0.0296  0.0722
29073WAT      O18096   7.912   1.477   3.622 -0.1629 -0.5090  0.6711
29073WAT     H118097   7.819   1.455   3.628 -0.6851  0.9408 -1.2093
29073WAT     H218098   7.950   1.406   3.571 -0.6880 -0.0133 -0.4287
29073WAT    EPW18099   7.904   1.465   3.616 -0.3009 -0.2525  0.2780
29074WAT      O18100  -5.983   7.691   5.655  0.2475  0.3452  0.7267
29074WAT     H118101  -5.952   7.708   5.566  0.6855 -0.1493  0.7761
29074WAT     H218102  -5.998   7.777   5.693  0.9941  0.5857  0.4928
29074WAT    EPW18103  -5.981   7.704   5.648  0.4039  0.3116  0.7024
29075WAT      O18104  -3.434   6.288   8.958 -0.3995 -0.4988 -0.0382
29075WAT     H118105  -3.413   6.195   8.965  2.1182  0.0240  0.0409
29075WAT     H218106  -3.435   6.306   8.864  0.6081 -0.3299 -0.0294
29075WAT    EPW18107  -3.432   6.278   8.947  0.0653 -0.4075 -0.0267
29076WAT      O18108  -6.750   8.142   6.565  0.0031 -0.0971  1.0615
29076WAT     H118109  -6.780   8.226   6.529  0.8269  1.3905  3.5736
29076WAT     H218110  -6.657   8.155   6.581  0.5012 -2.1114  0.0254
29076WAT    EPW18111  -6.742   8.155   6.562  0.1774 -0.1664  1.2562
29077WAT      O18112   5.976   2.195   3.333 -0.4416 -0.4621  0.0627
29077WAT     H118113   5.917   2.127   3.367 -0.7316 -0.8272 -1.1152
29077WAT     H218114   5.941   2.276   3.369 -2.1617 -0.5793 -1.1778
29077WAT    EPW18115   5.964   2.196   3.342 -0.7067 -0.5257 -0.2563
29078WAT      O18116  -2.132  10.184   5.687 -0.5445 -0.0947  0.3750
29078WAT     H118117  -2.089  10.266   5.709  2.0396 -1.4351  0.6222
29078WAT     H218118  -2.203  10.209   5.627  0.0022  2.3065  0.6594
29078WAT    EPW18119  -2.136  10.198   5.682 -0.1316  0.0453  0.4451
29079WAT      O18120  -4.343   7.042   8.807 -0.4708  0.3112  0.6259
29079WAT     H118121  -4.314   7.110   8.868 -1.7232  0.3194  1.2717
29079WAT     H218122  -4.439   7.043   8.815 -0.6217 -0.1887 -0.8253
29079WAT    EPW18123  -4.352   7.051   8.816 -0.6559  0.2463  0.5198
29080WAT      O18124   2.928   6.471   3.718  0.8415 -0.2652 -0.0748
29080WAT     H118125   2.883   6.423   3.787 -0.3047 -0.4643 -0.9297
29080WAT     H218126   2.901   6.428   3.637  1.9056  0.1594 -0.6820
29080WAT    EPW18127   2.919   6.459   3.716  0.8305 -0.2356 -0.2676
29081WAT      O18128   5.828   4.535   5.382  0.4038  0.0574  0.4042
29081WAT     H118129   5.814   4.603   5.316  0.7863 -0.3156 -0.0657
29081WAT     H218130   5.840   4.455   5.331  0.4355 -0.2807  0.9396
29081WAT    EPW18131   5.828   4.534   5.366  0.4585 -0.0362  0.4129
29082WAT      O18132   2.546   8.625   6.105 -0.1897 -0.0785  0.0314
29082WAT     H118133   2.629   8.577   6.100 -0.1882  0.0333 -1.3960
29082WAT     H218134   2.536   8.665   6.019 -2.1530 -0.7984 -0.1328
29082WAT    EPW18135   2.556   8.624   6.093 -0.4483 -0.1588 -0.1786
29083WAT      O18136   2.665   5.245   2.806 -0.5338  0.1377  0.5396
29083WAT     H118137   2.755   5.228   2.780 -0.1454 -1.6511  2.6689
29083WAT     H218138   2.614   5.176   2.763 -1.1890  1.9548 -1.7749
29083WAT    EPW18139   2.670   5.234   2.797 -0.5691  0.1411  0.5152
29084WAT      O18140   3.351   8.705   1.118  0.3687 -0.5068 -0.1493
29084WAT     H118141   3.348   8.776   1.183 -1.1271 -0.5393 -0.1526
29084WAT     H218142   3.293   8.638   1.154  2.8246 -2.4061  0.5576
29084WAT    EPW18143   3.343   8.705   1.131  0.4954 -0.7615 -0.0564
29085WAT      O18144   0.406   9.147   5.774 -0.3899  0.0196  0.0487
29085WAT     H118145   0.464   9.103   5.712 -0.2779 -2.7051  1.9339
29085WAT     H218146   0.346   9.079   5.803 -1.2932  1.5412  1.9389
29085WAT    EPW18147   0.405   9.132   5.769 -0.4943 -0.1392  0.5467
29086WAT      O18148   0.074   1.047   5.487 -0.5831 -0.4518 -0.4132
29086WAT     H118149   0.052   0.986   5.558  2.1065 -1.4953 -0.3730
29086WAT     H218150   0.048   1.000   5.407 -1.4784 -0.2496 -0.2560
29086WAT    EPW18151   0.067   1.032   5.486 -0.3465 -0.5627 -0.3872
29087WAT      O18152   4.528   9.670   1.308 -0.5098  0.0714 -0.4899
29087WAT     H118153   4.623   9.657   1.305 -0.2532  0.0039  3.2188
29087WAT     H218154   4.493   9.582   1.324 -0.3887  0.7226  5.3367
29087WAT    EPW18155   4.536   9.657   1.310 -0.4599  0.1483  0.7678
29088WAT      O18156   1.906   5.212   8.420  0.0539 -0.1995 -0.5468
29088WAT     H118157   1.993   5.177   8.434  0.4193  0.8210 -0.1604
29088WAT     H218158   1.897   5.218   8.325 -1.0529 -3.7657 -0.8214
29088WAT    EPW18159   1.916   5.209   8.409 -0.0439 -0.5352 -0.5322
29089WAT      O18160   2.618   2.071   6.667  0.0400 -0.3661  0.1645
29089WAT     H118161   2.659   1.985   6.682 -0.7261 -1.1794 -1.9579
29089WAT     H218162   2.659   2.128   6.732  1.4772 -2.0539  0.8536
29089WAT    EPW18163   2.629   2.067   6.677  0.1284 -0.6961 -0.0246
29090WAT      O18164  -4.180   8.848   7.753 -0.0142 -0.1889 -0.4729
29090WAT     H118165  -4.180   8.828   7.847 -3.0272  1.0034 -0.1069
29090WAT     H218166  -4.170   8.943   7.749 -1.3011 -0.0626 -1.2226
29090WAT    EPW18167  -4.179   8.858   7.765 -0.5815 -0.0153 -0.5236
29091WAT      O18168  -1.039  10.035   8.798 -0.9656 -0.3435 -0.0058
29091WAT     H118169  -0.947  10.028   8.770 -0.9941 -0.5762 -0.0447
29091WAT     H218170  -1.088  10.036   8.716 -0.8237  3.2255 -0.1893
29091WAT    EPW18171  -1.033  10.034   8.783 -0.9506  0.0963 -0.0348
29092WAT      O18172   3.574   1.050   3.522  0.5258  0.0784 -0.2195
29092WAT     H118173   3.522   1.131   3.516  1.3433  0.5032 -2.1331
29092WAT     H218174   3.655   1.069   3.474  2.8753 -0.3246  3.2298
29092WAT    EPW18175   3.578   1.063   3.515  0.9435  0.0813 -0.0169
29093WAT      O18176   2.424   4.382   1.517  0.3936  0.2519 -0.0316
29093WAT     H118177   2.396   4.429   1.438 -0.4143 -0.3392 -0.1068
29093WAT     H218178   2.420   4.447   1.586  0.1007  0.5147 -0.2927
29093WAT    EPW18179   2.420   4.397   1.516  0.2484  0.2086 -0.0759
29094WAT      O18180   5.656   0.450   2.942  0.4551 -0.3268  0.6215
29094WAT     H118181   5.656   0.446   3.038 -0.9186 -1.0659  0.6175
29094WAT     H218182   5.638   0.360   2.915 -0.3126  0.0888 -0.3064
29094WAT    EPW18183   5.653   0.437   2.951  0.1729 -0.3695  0.4987
29095WAT      O18184   3.781   1.758   7.840  0.3607 -0.0190  0.2393
29095WAT     H118185   3.802   1.850   7.825  0.6866 -0.1569 -0.1643
29095WAT     H218186   3.816   1.712   7.764 -4.5472  0.0956 -2.5383
29095WAT    EPW18187   3.788   1.764   7.828 -0.2437 -0.0221 -0.1802
29096WAT      O18188   4.373   3.091   4.926 -0.5304  0.0071  0.2389
29096WAT     H118189   4.385   3.181   4.954  0.8882 -0.4520  1.1956
29096WAT     H218190   4.279   3.076   4.934 -1.0228  1.7986 -1.3296
29096WAT    EPW18191   4.362   3.101   4.931 -0.4082  0.1829  0.1581
29097WAT      O18192   3.872   1.290   8.391 -0.2967  0.8169  0.2617
29097WAT     H118193   3.951   1.336   8.418  0.0305  0.2010  0.3713
29097WAT     H218194   3.889   1.265   8.300 -0.2996  0.5458  0.3353
29097WAT    EPW18195   3.884   1.293   8.383 -0.2539  0.6999  0.2856
29098WAT      O18196  -0.589   5.669   7.960  0.2546 -0.1523 -0.5264
29098WAT     H118197  -0.586   5.735   8.030 -0.4618  0.7685 -1.3395
29098WAT     H218198  -0.511   5.614   7.975  0.8199  0.8270  0.2154
29098WAT    EPW18199  -0.578   5.670   7.971  0.2347  0.0982 -0.5357
29099WAT      O18200   0.346   1.126   5.012 -0.0782 -0.3970 -0.0165
29099WAT     H118201   0.427   1.085   5.044  0.1779 -1.3010 -1.7324
29099WAT     H218202   0.318   1.183   5.084  0.7815 -1.8853  1.5525
29099WAT    EPW18203   0.353   1.128   5.026  0.0689 -0.7126 -0.0358
29100WAT      O18204  -0.280   2.397   6.667  0.2147  0.2286 -0.3153
29100WAT     H118205  -0.247   2.351   6.743  3.9067 -0.5705 -2.1825
29100WAT     H218206  -0.326   2.330   6.616  1.2961 -0.2532 -0.6814
29100WAT    EPW18207  -0.282   2.382   6.670  0.8443  0.0596 -0.6099
29101WAT      O18208   4.509   1.029   5.811  0.8565 -0.0490  0.2540
29101WAT     H118209   4.446   0.958   5.824  1.6840 -0.4871  2.0802
29101WAT     H218210   4.455   1.104   5.784 -0.3657 -0.5948  1.1121
29101WAT    EPW18211   4.493   1.029   5.809  0.8042 -0.1788  0.6080
29102WAT      O18212  -3.633   3.615   8.350 -0.5386  0.1800 -0.0393
29102WAT     H118213  -3.555   3.656   8.388  0.2205  0.0323 -1.3695
29102WAT     H218214  -3.623   3.522   8.371 -0.9104  0.2937  0.6899
29102WAT    EPW18215  -3.621   3.608   8.358 -0.4874  0.1755 -0.1187
29103WAT      O18216   2.997   8.771   1.372  0.0056 -0.4225  0.3575
29103WAT     H118217   2.942   8.746   1.447  2.0614  1.9131  2.8771
29103WAT     H218218   3.044   8.691   1.349  1.2738 -0.7230  3.4518
29103WAT    EPW18219   2.996   8.757   1.379  0.4439 -0.1540  1.0979
29104WAT      O18220   6.659   0.679   1.555  0.4978 -0.5893 -0.1365
29104WAT     H118221   6.617   0.745   1.499  3.4334 -0.3792 -2.3570
29104WAT     H218222   6.663   0.720   1.641 -3.5096 -0.5994  0.2490
29104WAT    EPW18223   6.654   0.693   1.559  0.3564 -0.5629 -0.3785
29105WAT      O18224  -0.949   3.095   4.731 -0.4885  0.0724  0.0111
29105WAT     H118225  -0.903   3.039   4.793  0.0960  1.0261  0.4763
29105WAT     H218226  -1.016   3.039   4.692  1.4725 -1.5541 -1.2045
29105WAT    EPW18227  -0.952   3.080   4.734 -0.1528 -0.0163 -0.0877
29106WAT      O18228   0.071   0.174   7.536 -0.0482 -1.0211 -0.2395
29106WAT     H118229   0.068   0.149   7.629 -2.5017 -2.4248 -0.5974
29106WAT     H218230   0.146   0.125   7.501  0.7571 -0.6717  0.9339
29106WAT    EPW18231   0.080   0.164   7.544 -0.2656 -1.1602 -0.1318
29107WAT      O18232  -2.982   7.589   5.237 -0.5143 -0.0617  0.0671
29107WAT     H118233  -2.961   7.551   5.151 -1.1817  2.4427 -1.3229
29107WAT     H218234  -3.019   7.517   5.287  0.3278 -1.7221 -1.5876
29107WAT    EPW18235  -2.984   7.575   5.232 -0.4913  0.0498 -0.3345
29108WAT      O18236   5.655   1.664   5.278 -0.4935  0.0173 -0.0585
29108WAT     H118237   5.653   1.654   5.373  0.2871 -0.3498 -0.0703
29108WAT     H218238   5.576   1.714   5.257  0.4141  2.0380  1.0335
29108WAT    EPW18239   5.644   1.670   5.288 -0.2708  0.2354  0.0839
29109WAT      O18240   2.761   0.032   8.843 -0.2353 -0.2242  0.1039
29109WAT     H118241   2.675   0.002   8.815  0.7195 -1.9931 -1.0850
29109WAT     H218242   2.779  -0.019   8.923 -0.5264  0.6030  0.7127
29109WAT    EPW18243   2.752   0.021   8.850 -0.1477 -0.3484  0.0277
29110WAT      O18244   0.018   8.701   0.613  0.0241 -0.1403 -0.0916
29110WAT     H118245  -0.057   8.720   0.669 -0.0601 -0.5191 -0.0769
29110WAT     H218246   0.062   8.627   0.654  0.5437  0.2307  0.0274
29110WAT    EPW18247   0.014   8.694   0.626  0.0816 -0.1411 -0.0739
29111WAT      O18248  -1.397   5.858   7.758 -0.4358  0.0688 -0.4200
29111WAT     H118249  -1.493   5.863   7.751 -0.7026 -1.8648  0.9813
29111WAT     H218250  -1.382   5.818   7.844  1.5833 -1.4474 -1.4069
29111WAT    EPW18251  -1.408   5.853   7.769 -0.2047 -0.3862 -0.3650
29112WAT      O18252   3.406   5.858   8.596 -0.4304  0.2188  0.7258
29112WAT     H118253   3.458   5.920   8.648  0.6158  0.6981 -0.7998
29112WAT     H218254   3.454   5.775   8.603  0.8249  0.7428 -0.9608
29112WAT    EPW18255   3.419   5.855   8.604 -0.1267  0.3512  0.3018
29113WAT      O18256   7.775   2.501   3.028 -0.0770  0.2836 -0.1643
29113WAT     H118257   7.817   2.446   2.961  0.6262  1.3886 -0.6643
29113WAT     H218258   7.748   2.579   2.980 -1.6787  0.0980  0.3991
29113WAT    EPW18259   7.777   2.504   3.013 -0.1955  0.4048 -0.1558
29114WAT      O18260   0.228   8.711   8.034 -0.6316 -0.3304  0.1406
29114WAT     H118261   0.290   8.783   8.024  1.1437 -1.7726  0.0943
29114WAT     H218262   0.220   8.699   8.129  1.6047 -2.0137  0.2103
29114WAT    EPW18263   0.235   8.719   8.045 -0.1025 -0.7424  0.1435
29115WAT      O18264   4.508   7.582   5.720  0.9535  0.1371  0.6634
29115WAT     H118265   4.585   7.561   5.668  1.1554  1.5087  0.3486
29115WAT     H218266   4.542   7.631   5.794  0.3002  2.2815 -0.3588
29115WAT    EPW18267   4.523   7.586   5.723  0.8941  0.6008  0.4869
29116WAT      O18268   1.406   3.338   7.924  0.5846  0.4168  0.0200
29116WAT     H118269   1.426   3.417   7.975  2.3453  0.3223 -0.4782
29116WAT     H218270   1.434   3.360   7.835  0.0520 -0.3867 -0.3525
29116WAT    EPW18271   1.412   3.351   7.919  0.7466  0.2984 -0.0949
29117WAT      O18272  -0.023   9.064   4.865  0.1674 -0.4060  0.4598
29117WAT     H118273   0.011   8.981   4.832 -1.8898 -1.2933  0.4736
29117WAT     H218274   0.012   9.130   4.804 -0.2924 -1.5788 -1.1331
29117WAT    EPW18275  -0.014   9.062   4.852 -0.1646 -0.6781  0.2515
29118WAT      O18276  -6.291   6.521   7.567 -0.2934  0.0317  0.1250
29118WAT     H118277  -6.267   6.567   7.487  1.3092  0.3504  0.7525
29118WAT     H218278  -6.386   6.531   7.573 -0.0514  3.0958  0.1208
29118WAT    EPW18279  -6.300   6.528   7.557 -0.0503  0.4780  0.2072
29119WAT      O18280   7.517   0.262   1.835 -0.3571  0.1820 -0.1508
29119WAT     H118281   7.563   0.179   1.827 -2.0984 -1.0512  1.5447
29119WAT     H218282   7.536   0.309   1.754  0.5312 -1.9559 -1.2410
29119WAT    EPW18283   7.525   0.257   1.823 -0.4697 -0.2626 -0.0709
29120WAT      O18284   7.218   8.227   0.332  0.4829  0.1038 -0.1662
29120WAT     H118285   7.193   8.136   0.349 -0.9923  0.1627 -1.7661
29120WAT     H218286   7.289   8.220   0.268 -0.4536  0.0916 -1.2155
29120WAT    EPW18287   7.224   8.214   0.326  0.1650  0.1097 -0.5156
29121WAT      O18288  -2.224   3.255   4.654  1.1051  0.0197  0.4506
29121WAT     H118289  -2.294   3.190   4.656  0.8942  0.2436  2.4192
29121WAT     H218290  -2.231   3.296   4.567 -1.6101  0.4664  0.7933
29121WAT    EPW18291  -2.234   3.252   4.643  0.7192  0.1081  0.7553
29122WAT      O18292   2.065   4.739   2.620 -0.2290 -0.1269 -0.2522
29122WAT     H118293   2.058   4.662   2.676  3.0878  0.5456  1.2852
29122WAT     H218294   1.992   4.795   2.648 -1.7893 -1.9794 -0.3635
29122WAT    EPW18295   2.054   4.736   2.631  0.0027 -0.2823 -0.0641
29123WAT      O18296   6.000   2.871   4.307 -0.0653 -0.1987  0.2887
29123WAT     H118297   6.076   2.874   4.248 -1.9927  0.6999 -2.3263
29123WAT     H218298   6.022   2.933   4.377  1.9478 -0.6571  0.1506
29123WAT    EPW18299   6.013   2.880   4.309 -0.0539 -0.1407 -0.0746
29124WAT      O18300   1.534   7.260   2.022  0.1015  0.0887  0.4791
29124WAT     H118301   1.567   7.330   2.079  1.4072  0.1348 -0.3072
29124WAT     H218302   1.573   7.277   1.937  1.2277 -2.0927  0.4690
29124WAT    EPW18303   1.543   7.271   2.019  0.4224 -0.1929  0.3741
29125WAT      O18304   4.012   8.394   3.189  0.3143 -0.0351 -0.7598
29125WAT     H118305   3.976   8.337   3.121 -0.6800 -0.7158  0.3031
29125WAT     H218306   3.954   8.380   3.264 -0.1484  2.6019 -0.5434
29125WAT    EPW18307   3.999   8.385   3.190  0.1221  0.2227 -0.5909
29126WAT      O18308  -3.708   5.532   3.357 -0.2909 -0.7814 -0.8065
29126WAT     H118309  -3.702   5.578   3.274  0.8337  1.8927  0.6307
29126WAT     H218310  -3.624   5.485   3.364  0.9928  1.4485  0.0375
29126WAT    EPW18311  -3.696   5.532   3.347  0.0268 -0.1345 -0.5057
29127WAT      O18312  -4.718   0.835   8.099 -0.4527  0.2247 -0.3895
29127WAT     H118313  -4.715   0.797   8.187 -2.9870 -1.8133 -1.0737
29127WAT     H218314  -4.634   0.880   8.090  0.6256 -0.9990  2.3927
29127WAT    EPW18315  -4.706   0.836   8.109 -0.6447 -0.2055 -0.1125
29128WAT      O18316  -5.413   6.486   5.307  0.0230  0.6444 -0.2637
29128WAT     H118317  -5.385   6.451   5.392  0.6851 -0.7886 -1.0453
29128WAT     H218318  -5.507   6.502   5.317 -0.5399 -2.2797 -0.1239
29128WAT    EPW18319  -5.421   6.483   5.320  0.0360  0.0699 -0.3483
29129WAT      O18320  -2.269  10.104   3.803  0.2051 -0.1503  0.9471
29129WAT     H118321  -2.235  10.146   3.724 -0.1535  0.3183  1.0326
29129WAT     H218322  -2.221  10.145   3.875  1.9414 -1.9686  0.8837
29129WAT    EPW18323  -2.258  10.115   3.802  0.3867 -0.3285  0.9501
29130WAT      O18324  -3.899   7.997   6.392  0.4883  0.0880 -0.2827
29130WAT     H118325  -3.934   7.925   6.338  0.7404 -0.4157  0.2195
29130WAT     H218326  -3.975   8.028   6.441  0.4336 -0.0158 -0.2997
29130WAT    EPW18327  -3.914   7.991   6.391  0.5143  0.0079 -0.2186
29131WAT      O18328  -0.629   5.126   2.758  0.0149 -0.3673  0.7735
29131WAT     H118329  -0.642   5.215   2.790 -2.4451  0.2717 -1.6873
29131WAT     H218330  -0.714   5.083   2.771  0.6672 -1.8583  0.3620
29131WAT    EPW18331  -0.642   5.132   2.764 -0.2236 -0.4797  0.3947
29132WAT      O18332  -2.790   7.053   2.529 -0.3933 -0.7108  0.0859
29132WAT     H118333  -2.831   6.971   2.503 -0.3739 -0.7440  0.1590
29132WAT     H218334  -2.863   7.110   2.553 -1.0471  1.2467 -5.1174
29132WAT    EPW18335  -2.805   7.050   2.528 -0.4771 -0.4570 -0.5908
29133WAT      O18336   5.379   7.189   3.046 -0.0547  0.0729  0.0450
29133WAT     H118337   5.423   7.107   3.066 -0.9970 -0.2607  0.7942
29133WAT     H218338   5.311   7.165   2.983 -0.2547  0.2989  0.1747
29133WAT    EPW18339   5.376   7.175   3.041 -0.2053  0.0587  0.1609
29134WAT      O18340  -2.228   7.982   5.221  0.7662  0.3255  0.0877
29134WAT     H118341  -2.271   8.002   5.138 -0.9874 -0.2523  0.8292
29134WAT     H218342  -2.241   7.888   5.233  1.8214  0.2211  0.5940
29134WAT    EPW18343  -2.235   7.972   5.212  0.6741  0.2356  0.2525
29135WAT      O18344   5.396   0.863   5.314 -0.1708  0.0261 -0.2113
29135WAT     H118345   5.355   0.811   5.384 -2.3892  1.7681 -0.0844
29135WAT     H218346   5.476   0.898   5.353 -0.5595 -0.3115  0.9280
29135WAT    EPW18347   5.401   0.861   5.328 -0.5147  0.2113 -0.0441
29136WAT      O18348   1.078   1.615   0.332 -0.5070  0.1255 -0.1358
29136WAT     H118349   1.073   1.579   0.421  2.2833 -1.4894 -0.4965
29136WAT     H218350   1.092   1.709   0.344  3.0437 -0.4413  1.4062
29136WAT    EPW18351   1.079   1.623   0.345  0.3294 -0.1623  0.0200
29137WAT      O18352   5.377   6.889   3.936 -0.4996  0.0557  0.1212
29137WAT     H118353   5.283   6.904   3.929 -0.5584 -0.8986 -1.7774
29137WAT     H218354   5.385   6.806   3.982 -0.5567  0.2975  0.5769
29137WAT    EPW18355   5.366   6.880   3.941 -0.5150 -0.0384 -0.0691
29138WAT      O18356  -5.441   8.020   8.572 -0.1310 -0.2731  0.2597
29138WAT     H118357  -5.447   7.969   8.491  2.6925  0.7044 -0.6750
29138WAT     H218358  -5.410   8.106   8.543 -1.8021  1.0455  2.1211
29138WAT    EPW18359  -5.438   8.025   8.558  0.0207  0.0300  0.3824
29139WAT      O18360   4.743   5.376   0.461  0.2932  0.0037 -0.3853
29139WAT     H118361   4.692   5.301   0.429  0.8692 -0.7854  0.4667
29139WAT     H218362   4.811   5.389   0.396  0.0309 -0.0401 -0.6706
29139WAT    EPW18363   4.745   5.367   0.448  0.3347 -0.1061 -0.3105
29140WAT      O18364   0.281   9.141   3.159 -0.3155  0.7467  0.0340
29140WAT     H118365   0.357   9.156   3.103 -0.0718  2.4271  0.7502
29140WAT     H218366   0.206   9.164   3.103 -0.2181  0.2451 -0.3031
29140WAT    EPW18367   0.281   9.146   3.144 -0.2705  0.9022  0.0840
29141WAT      O18368   3.890   3.922   7.511 -0.3469  0.2935 -0.0965
29141WAT     H118369   3.849   3.949   7.594  0.8352 -0.9225  0.9248
29141WAT     H218370   3.825   3.943   7.444 -0.7505  2.6961  0.9510
29141WAT    EPW18371   3.876   3.929   7.513 -0.2441  0.4500  0.1764
29142WAT      O18372   1.403   7.557   0.957  0.0237 -0.1912  0.7618
29142WAT     H118373   1.396   7.540   0.863 -1.1490  0.3467  0.7335
29142WAT     H218374   1.469   7.626   0.965 -0.5910  0.4595  0.2479
29142WAT    EPW18375   1.411   7.564   0.946 -0.2121 -0.0346  0.6903
29143WAT      O18376  -0.991   6.666   4.209 -0.6535  0.2632 -0.3770
29143WAT     H118377  -1.053   6.610   4.161  0.1903 -2.2502  1.2800
29143WAT     H218378  -0.906   6.647   4.168 -0.2945 -0.0369  0.4926
29143WAT    EPW18379  -0.988   6.656   4.197 -0.4949 -0.1080 -0.0436
29144WAT      O18380  -3.002   9.205   3.123  0.8986 -0.4256  0.3951
29144WAT     H118381  -2.942   9.170   3.058 -0.1124 -1.0139 -0.2537
29144WAT     H218382  -2.984   9.299   3.125  0.5345 -0.2892 -1.2075
29144WAT    EPW18383  -2.992   9.213   3.115  0.7172 -0.4854  0.0981
29145WAT      O18384   6.662   3.061   2.398 -0.2474 -0.2566  0.3564
29145WAT     H118385   6.637   2.971   2.416 -2.0176  0.3724  1.3515
29145WAT     H218386   6.579   3.109   2.395  0.6465  1.3631 -0.0663
29145WAT    EPW18387   6.648   3.056   2.400 -0.3629  0.0399  0.4320
29146WAT      O18388   4.755   6.024   0.632  0.7854  0.1124  0.4459
29146WAT     H118389   4.674   6.002   0.679  2.7054 -3.0733  2.7445
29146WAT     H218390   4.806   6.075   0.695  0.8609  1.6023 -0.7648
29146WAT    EPW18391   4.751   6.027   0.647  1.0486 -0.1113  0.5894
29147WAT      O18392  -0.036   7.532   6.972 -0.2473 -0.4047  0.3208
29147WAT     H118393  -0.064   7.451   7.013 -1.0404 -0.0298  0.5448
29147WAT     H218394   0.052   7.547   7.006 -0.2391 -0.9736  0.5611
29147WAT    EPW18395  -0.028   7.523   6.982 -0.3508 -0.4303  0.3822
29148WAT      O18396   4.477   3.533   7.753  0.6461 -0.3660 -0.4674
29148WAT     H118397   4.406   3.597   7.755  1.3845  0.5781 -2.1176
29148WAT     H218398   4.441   3.459   7.704  0.3490 -0.4880 -0.0690
29148WAT    EPW18399   4.463   3.532   7.747  0.7043 -0.2575 -0.6325
29149WAT      O18400  -3.512   8.401   4.774  0.2675  0.2355 -0.2648
29149WAT     H118401  -3.450   8.470   4.797  2.6030 -1.3274 -1.4573
29149WAT     H218402  -3.520   8.348   4.853  1.9066 -0.5439 -0.5853
29149WAT    EPW18403  -3.505   8.403   4.788  0.7918 -0.0734 -0.4644
29150WAT      O18404   0.943   7.937   6.584 -0.2074 -0.4321 -0.1785
29150WAT     H118405   0.852   7.940   6.613 -0.1458  0.7427 -0.0323
29150WAT     H218406   0.941   7.968   6.494  0.1646  0.7788  0.2063
29150WAT    EPW18407   0.931   7.942   6.576 -0.1502 -0.1175 -0.1082
29151WAT      O18408  -4.426   2.715   7.897 -0.5917 -0.8819 -0.1100
29151WAT     H118409  -4.513   2.678   7.913 -1.1543  0.1720 -0.6135
29151WAT     H218410  -4.428   2.799   7.942  0.2113 -0.8953 -0.0455
29151WAT    EPW18411  -4.438   2.721   7.905 -0.5600 -0.7447 -0.1681
29152WAT      O18412   5.207   4.125   0.615  0.2383  0.3834 -0.2054
29152WAT     H118413   5.274   4.192   0.631  0.5139  0.7027 -2.3969
29152WAT     H218414   5.176   4.143   0.526 -1.4931 -0.8775  0.0965
29152WAT    EPW18415   5.212   4.136   0.606  0.0465  0.2592 -0.4546
29153WAT      O18416   1.191   7.790   8.029 -0.0671  0.3988 -0.6597
29153WAT     H118417   1.242   7.744   8.096 -0.2752  0.6016 -0.3614
29153WAT     H218418   1.255   7.814   7.963  0.0438 -0.3413 -0.8276
29153WAT    EPW18419   1.206   7.787   8.029 -0.0799  0.3281 -0.6428
29154WAT      O18420  -0.958   0.972   8.282 -0.1724 -0.5176  0.1214
29154WAT     H118421  -1.053   0.957   8.289 -0.4058 -0.5478 -2.3446
29154WAT     H218422  -0.920   0.886   8.298 -0.5636 -0.5680  0.8416
29154WAT    EPW18423  -0.966   0.959   8.285 -0.2548 -0.5282 -0.1087
29155WAT      O18424  -3.348   0.402   7.653  0.1372 -0.6763 -0.1414
29155WAT     H118425  -3.349   0.389   7.559 -0.2822  0.4189 -0.2947
29155WAT     H218426  -3.409   0.474   7.669  1.2557  0.1100  0.8180
29155WAT    EPW18427  -3.356   0.409   7.643  0.2294 -0.4282 -0.0350
29156WAT      O18428  -3.016   7.943   1.270  0.3994  0.5024  0.3138
29156WAT     H118429  -3.107   7.936   1.301  1.7920 -0.0231  4.9769
29156WAT     H218430  -3.013   8.026   1.224 -2.7816 -0.3372 -1.7417
29156WAT    EPW18431  -3.028   7.953   1.268  0.1636  0.3223  0.6577
29157WAT      O18432   0.403   5.318   7.418  0.3247  0.0161  0.3339
29157WAT     H118433   0.333   5.381   7.400 -1.9023 -2.4822 -0.5309
29157WAT     H218434   0.364   5.256   7.480  1.2362 -2.2033 -1.1611
29157WAT    EPW18435   0.388   5.318   7.423  0.1512 -0.6061  0.0226
29158WAT      O18436   1.247   0.290   7.227  0.3457 -0.2551  0.0878
29158WAT     H118437   1.270   0.355   7.162 -0.1310  0.5255  0.6874
29158WAT     H218438   1.319   0.227   7.225  0.4267 -0.1336 -1.0376
29158WAT    EPW18439   1.259   0.290   7.218  0.2936 -0.1361  0.0186
29159WAT      O18440   4.380   1.359   8.433 -0.1194 -0.2274  0.3702
29159WAT     H118441   4.380   1.321   8.345  0.3321  1.0464 -0.2044
29159WAT     H218442   4.470   1.389   8.445 -0.4785  0.6908  0.7933
29159WAT    EPW18443   4.392   1.358   8.423 -0.1073  0.0617  0.3505
29160WAT      O18444  -2.952   8.683   4.534 -0.1161 -0.0993 -0.4228
29160WAT     H118445  -3.030   8.738   4.533  1.1949  1.8842 -2.1171
29160WAT     H218446  -2.972   8.613   4.472 -0.0773  1.2180 -2.0066
29160WAT    EPW18447  -2.965   8.681   4.525  0.0620  0.3362 -0.8552
29161WAT      O18448   3.522   1.576   7.129 -0.6196  0.2652  0.0331
29161WAT     H118449   3.578   1.606   7.057 -1.9845 -1.9927 -2.1011
29161WAT     H218450   3.480   1.496   7.097 -1.6897 -0.6239  3.1895
29161WAT    EPW18451   3.524   1.570   7.115 -0.9408 -0.1499  0.1678
29162WAT      O18452   1.644   1.935   1.334  0.4522 -0.3662  1.5490
29162WAT     H118453   1.731   1.942   1.295  0.0021  1.8134  0.7571
29162WAT     H218454   1.606   1.856   1.295  1.7894 -0.9248  1.3411
29162WAT    EPW18455   1.650   1.926   1.324  0.5692 -0.1523  1.4172
29163WAT      O18456   1.786   1.193   8.799 -0.8923  0.0962  0.2534
29163WAT     H118457   1.881   1.184   8.797 -0.8493  0.3801  0.9250
29163WAT     H218458   1.771   1.287   8.814 -1.2699 -0.0277  0.6831
29163WAT    EPW18459   1.796   1.205   8.801 -0.9364  0.1173  0.3986
29164WAT      O18460   2.800   7.639   2.504 -0.0175  0.1616 -0.8243
29164WAT     H118461   2.795   7.583   2.426  3.3420 -0.0058 -1.0656
29164WAT     H218462   2.801   7.728   2.470 -1.9682  0.3073 -0.6494
29164WAT    EPW18463   2.799   7.643   2.489  0.1683  0.1588 -0.8330
29165WAT      O18464  -2.004   8.746   0.856  0.1425  0.5521 -0.0715
29165WAT     H118465  -2.050   8.808   0.799 -0.6148 -0.5289 -0.6539
29165WAT     H218466  -2.073   8.710   0.913  0.2521 -1.0111 -0.8873
29165WAT    EPW18467  -2.019   8.750   0.856  0.0571  0.2031 -0.2559
29166WAT      O18468   4.964   1.047   8.763  0.0087  0.3964  0.3029
29166WAT     H118469   4.937   1.065   8.673 -0.2396 -0.5043  0.1922
29166WAT     H218470   4.910   0.972   8.790 -0.3211  1.0053  1.3937
29166WAT    EPW18471   4.953   1.039   8.754 -0.0672  0.3580  0.4325
29167WAT      O18472  -4.693   3.997   5.850  0.6928  0.0737  0.2714
29167WAT     H118473  -4.618   3.947   5.819  1.3465  0.9240  0.4508
29167WAT     H218474  -4.656   4.068   5.902 -0.3121 -0.3354  1.5989
29167WAT    EPW18475  -4.679   4.000   5.853  0.6464  0.1321  0.4702
29168WAT      O18476   0.801   3.753   6.972  0.2006 -0.0757  0.4408
29168WAT     H118477   0.856   3.802   7.034 -0.5866 -0.0226  1.1105
29168WAT     H218478   0.771   3.818   6.910 -0.6760  0.2755  1.2106
29168WAT    EPW18479   0.804   3.768   6.972 -0.0189 -0.0224  0.6306
29169WAT      O18480  -1.417   0.243   8.973 -0.0185  0.7268 -0.1637
29169WAT     H118481  -1.467   0.320   8.946  1.0668  1.2299 -0.8154
29169WAT     H218482  -1.416   0.187   8.895 -0.4032  0.2644  0.1593
29169WAT    EPW18483  -1.424   0.246   8.959  0.0739  0.7322 -0.2074
29170WAT      O18484  -3.821   0.030   6.705 -0.4917 -0.5349 -0.0089
29170WAT     H118485  -3.849   0.063   6.619  0.2351  3.3684  1.0610
29170WAT     H218486  -3.844   0.100   6.766  0.7062 -2.3680  2.7311
29170WAT    EPW18487  -3.828   0.044   6.702 -0.2378 -0.2619  0.4938
29171WAT      O18488   2.372   4.983   0.771  0.5237  0.1544 -0.2474
29171WAT     H118489   2.445   5.037   0.738  0.0286 -0.3460 -2.2973
29171WAT     H218490   2.294   5.038   0.758  0.1565 -0.5859 -1.2794
29171WAT    EPW18491   2.372   4.998   0.765  0.4100 -0.0093 -0.6539
29172WAT      O18492   0.972   4.149   6.398 -0.4396  0.1041  0.5769
29172WAT     H118493   1.052   4.201   6.388 -1.9111  2.5941  0.6684
29172WAT     H218494   0.961   4.106   6.313 -1.1706  3.2268 -1.0833
29172WAT    EPW18495   0.981   4.150   6.385 -0.7301  0.8445  0.3700
29173WAT      O18496   0.065   1.731   4.561  0.7614 -0.1334 -0.3097
29173WAT     H118497   0.102   1.644   4.580  0.5769 -0.3003 -0.7092
29173WAT     H218498   0.079   1.742   4.467  0.5156  0.1439 -0.3122
29173WAT    EPW18499   0.072   1.721   4.551  0.7047 -0.1189 -0.3626
29174WAT      O18500  -3.979   4.320   6.305 -0.0266  0.3856  0.1408
29174WAT     H118501  -3.999   4.384   6.373 -1.1979 -0.9770  1.1283
29174WAT     H218502  -3.951   4.242   6.352  0.5382 -0.1443 -1.0072
29174WAT    EPW18503  -3.978   4.318   6.320 -0.1066  0.1361  0.1194
29175WAT      O18504   0.792   2.261   4.866  0.5066  0.5231  0.7521
29175WAT     H118505   0.773   2.325   4.797 -1.4086 -1.0572 -0.2796
29175WAT     H218506   0.802   2.314   4.946 -0.5254  2.1462 -0.1465
29175WAT    EPW18507   0.791   2.276   4.868  0.1179  0.5288  0.4978
29176WAT      O18508   2.242   6.684   5.801  0.1989  0.4482  0.1167
29176WAT     H118509   2.324   6.732   5.789  0.1847  0.1795 -1.2671
29176WAT     H218510   2.185   6.716   5.731 -0.0029 -1.1571 -0.4906
29176WAT    EPW18511   2.245   6.694   5.790  0.1704  0.2012 -0.1462
29177WAT      O18512   0.372   6.098   3.937  0.1103 -0.5955 -0.4605
29177WAT     H118513   0.412   6.013   3.953  1.4456  0.2480  0.9959
29177WAT     H218514   0.310   6.110   4.009  0.7940  0.1316  0.0311
29177WAT    EPW18515   0.369   6.089   3.949  0.3766 -0.3884 -0.2036
29178WAT      O18516  -0.970   0.605   7.072 -0.5309 -0.6840 -0.9962
29178WAT     H118517  -0.991   0.686   7.118  0.1836 -1.6857  1.1993
29178WAT     H218518  -1.036   0.543   7.101  0.6517 -1.6650 -0.3033
29178WAT    EPW18519  -0.981   0.608   7.082 -0.2807 -0.9455 -0.6151
29179WAT      O18520  -3.364   8.933   7.721  0.2853  0.2388 -0.0054
29179WAT     H118521  -3.424   8.971   7.785 -0.3783  2.6444 -1.9358
29179WAT     H218522  -3.379   8.838   7.729 -5.7086  0.5892 -1.9488
29179WAT    EPW18523  -3.374   8.925   7.731 -0.5928  0.6022 -0.5164
29180WAT      O18524  -0.912   9.610   8.810  0.2697  0.1202 -0.2757
29180WAT     H118525  -0.875   9.537   8.860  0.2449  0.7995  0.7652
29180WAT     H218526  -0.904   9.686   8.868 -0.7941  0.7153 -0.8660
29180WAT    EPW18527  -0.906   9.610   8.824  0.1261  0.2885 -0.2165
29181WAT      O18528  -0.371   7.541   8.738 -0.4451  0.6199  0.0416
29181WAT     H118529  -0.425   7.464   8.755  0.3217  0.1849  0.6065
29181WAT     H218530  -0.282   7.506   8.731 -0.4278  1.0716 -2.8272
29181WAT    EPW18531  -0.366   7.526   8.739 -0.3417  0.6220 -0.2623
29182WAT      O18532   4.105   9.974   4.624 -0.3292 -0.8315  0.1616
29182WAT     H118533   4.150   9.892   4.646  2.3853 -0.2546 -2.4417
29182WAT     H218534   4.033   9.947   4.568 -1.0256 -1.5577  1.3652
29182WAT    EPW18535   4.102   9.959   4.619 -0.0632 -0.8512 -0.0231
29183WAT      O18536  -0.033   0.483   1.696  0.4855 -0.3682 -0.5946
29183WAT     H118537   0.017   0.565   1.690 -2.5527  1.6899 -0.1206
29183WAT     H218538  -0.098   0.500   1.764 -0.5906 -3.0176 -0.8715
29183WAT    EPW18539  -0.035   0.496   1.704 -0.0571 -0.4462 -0.5686
29184WAT      O18540   1.786   8.310   7.452 -0.0741 -0.1053  0.2565
29184WAT     H118541   1.836   8.347   7.525 -2.6477 -1.5182  2.9445
29184WAT     H218542   1.825   8.224   7.438 -1.6983 -1.3445  2.5739
29184WAT    EPW18543   1.798   8.304   7.460 -0.6277 -0.4554  0.9167
29185WAT      O18544   5.662   9.933   0.218 -0.1167  0.1643 -0.0419
29185WAT     H118545   5.576   9.902   0.189  0.1417 -1.0422  0.4222
29185WAT     H218546   5.645  10.021   0.252 -1.3731 -0.4194  0.9481
29185WAT    EPW18547   5.649   9.941   0.219 -0.2482 -0.0720  0.1499
29186WAT      O18548   3.558   3.191   8.362  0.0313  0.2159 -0.0678
29186WAT     H118549   3.475   3.210   8.405 -0.0996 -0.3836 -0.0463
29186WAT     H218550   3.585   3.274   8.323 -0.2164  0.5911  0.5417
29186WAT    EPW18551   3.551   3.205   8.362 -0.0186  0.1863  0.0157
29187WAT      O18552   7.259   0.518   0.191  0.6857  0.1352 -0.5286
29187WAT     H118553   7.269   0.503   0.285  2.8426  2.0336 -0.3875
29187WAT     H218554   7.236   0.610   0.184 -1.4417 -0.4227 -1.8355
29187WAT    EPW18555   7.257   0.528   0.203  0.6895  0.3120 -0.6824
29188WAT      O18556   3.827   0.278   0.109  0.2288 -0.3693 -0.1976
29188WAT     H118557   3.832   0.359   0.059 -0.6223 -0.5432 -0.5865
29188WAT     H218558   3.735   0.252   0.103  0.3004 -0.8695  0.7057
29188WAT    EPW18559   3.816   0.285   0.102  0.1259 -0.4582 -0.1297
29189WAT      O18560   0.966   8.880   3.948  0.2484 -0.0713 -0.0443
29189WAT     H118561   0.881   8.871   3.991  1.3923 -2.5545  1.9796
29189WAT     H218562   1.006   8.794   3.957  3.8936  1.5587  1.0818
29189WAT    EPW18563   0.960   8.867   3.955  0.8800 -0.1836  0.3712
29190WAT      O18564  -0.326   6.990   2.395  0.6246 -0.5856  0.4392
29190WAT     H118565  -0.275   6.981   2.315  1.8246 -0.5440  1.1573
29190WAT     H218566  -0.279   7.058   2.445  0.4808 -1.2933  1.5736
29190WAT    EPW18567  -0.313   6.998   2.391  0.7639 -0.6733  0.6835
29191WAT      O18568   2.542   4.261   4.825  0.2765 -0.1686  0.1512
29191WAT     H118569   2.521   4.168   4.820  0.4364 -0.1659 -3.9047
29191WAT     H218570   2.638   4.264   4.817  0.1775  0.3154 -1.1109
29191WAT    EPW18571   2.552   4.249   4.823  0.2846 -0.1044 -0.5500
29192WAT      O18572   8.420   4.910   0.398 -0.1742 -0.6261  0.4732
29192WAT     H118573   8.386   4.828   0.434 -1.4822  0.2644  1.3613
29192WAT     H218574   8.425   4.969   0.474 -1.1030  0.6942 -0.4590
29192WAT    EPW18575   8.416   4.907   0.413 -0.4697 -0.3345  0.4674
29193WAT      O18576   2.882   8.953   1.638 -0.2610  0.8893  0.1632
29193WAT     H118577   2.807   9.010   1.625  0.9611  2.7574  0.9000
29193WAT     H218578   2.928   8.990   1.713  1.9891  0.5117 -0.9335
29193WAT    EPW18579   2.878   8.965   1.646  0.1969  1.0858  0.1158
29194WAT      O18580  -3.572   6.951   7.531  0.3971  0.6626 -0.0571
29194WAT     H118581  -3.579   6.906   7.615  3.3996  0.3814  0.1533
29194WAT     H218582  -3.518   6.893   7.477  0.2963  1.8069 -1.4416
29194WAT    EPW18583  -3.565   6.938   7.535  0.7799  0.7765 -0.2122
29195WAT      O18584  -0.633   2.675   3.352 -0.1822  0.6972  0.4649
29195WAT     H118585  -0.626   2.750   3.412 -1.5933  1.9936 -0.9049
29195WAT     H218586  -0.645   2.600   3.410  1.4747  1.4568  1.8999
29195WAT    EPW18587  -0.634   2.675   3.368 -0.1498  0.9683  0.4735
29196WAT      O18588  -1.555   0.681   5.437 -0.0151  0.5038  0.0187
29196WAT     H118589  -1.546   0.655   5.529  1.5674 -0.4626 -0.3682
29196WAT     H218590  -1.648   0.666   5.417 -0.4013  0.8025  1.4581
29196WAT    EPW18591  -1.566   0.675   5.447  0.1427  0.4158  0.1576
29197WAT      O18592  -3.003   7.965   6.675  0.0887  0.5902  0.4835
29197WAT     H118593  -3.013   8.059   6.689 -0.8632  0.7282 -0.9219
29197WAT     H218594  -2.919   7.955   6.631 -0.2553  0.9138 -0.2723
29197WAT    EPW18595  -2.994   7.976   6.671 -0.0823  0.6511  0.1984
29198WAT      O18596   4.027   2.404   5.444 -0.5550  0.3116 -0.0303
29198WAT     H118597   4.101   2.429   5.499 -1.3084 -1.3208  1.8307
29198WAT     H218598   3.972   2.350   5.501 -1.6109 -1.1166 -2.2897
29198WAT    EPW18599   4.029   2.400   5.459 -0.7935 -0.0921 -0.0827
29199WAT      O18600  -7.746  10.028   8.623  0.2325 -0.3630  0.4049
29199WAT     H118601  -7.803   9.952   8.632  0.5946 -0.5385  1.3035
29199WAT     H218602  -7.690  10.026   8.700 -0.1514  1.1607  0.7636
29199WAT    EPW18603  -7.746  10.018   8.634  0.2296 -0.1850  0.5703
29200WAT      O18604   4.978   1.965   5.772 -0.5446 -0.6580  0.2464
29200WAT     H118605   4.955   2.039   5.829 -0.2837  0.2479 -0.7833
29200WAT     H218606   4.895   1.918   5.760 -0.7730 -0.3817  0.7023
29200WAT    EPW18607   4.964   1.969   5.778 -0.5403 -0.5021  0.1707
29201WAT      O18608   7.805   6.500   1.336  0.3411 -0.0389  0.1214
29201WAT     H118609   7.822   6.423   1.282  1.2447 -1.4944  2.3281
29201WAT     H218610   7.834   6.474   1.424 -1.9681  1.8112  1.5570
29201WAT    EPW18611   7.811   6.486   1.341  0.1557  0.0134  0.6018
29202WAT      O18612   2.289   8.451   3.994 -0.3412 -0.0935  0.4589
29202WAT     H118613   2.248   8.383   3.940  1.2970  0.3356 -1.4489
29202WAT     H218614   2.359   8.406   4.041 -1.3104 -0.3200  1.7387
29202WAT    EPW18615   2.293   8.436   3.993 -0.2528 -0.0668  0.3760
29203WAT      O18616   4.319   2.289   4.259 -0.3046  0.2462 -0.3811
29203WAT     H118617   4.240   2.337   4.282  1.2502  3.7536 -1.5980
29203WAT     H218618   4.304   2.260   4.169  0.0360  1.7140 -0.9474
29203WAT    EPW18619   4.307   2.292   4.250 -0.0548  0.9024 -0.6163
29204WAT      O18620  -3.227   9.236   1.884 -0.1070 -1.1008  0.4838
29204WAT     H118621  -3.256   9.204   1.799 -1.1757  0.9316  0.0203
29204WAT     H218622  -3.289   9.197   1.946 -2.7430  1.4640 -0.2831
29204WAT    EPW18623  -3.239   9.226   1.881 -0.5957 -0.4945  0.3216
29205WAT      O18624   0.566   7.191   4.890  0.0324  0.0965  0.2356
29205WAT     H118625   0.572   7.102   4.854  0.9040 -1.1279  3.0511
29205WAT     H218626   0.596   7.248   4.820 -0.9537 -1.7723 -1.8175
29205WAT    EPW18627   0.571   7.187   4.876  0.0173 -0.3114  0.3362
29206WAT      O18628   6.793   0.031   5.250  0.5526 -0.0044  0.4548
29206WAT     H118629   6.863   0.096   5.245  1.3687 -0.8343  0.8923
29206WAT     H218630   6.820  -0.029   5.319  1.4832 -2.7429 -2.0590
29206WAT    EPW18631   6.806   0.032   5.258  0.7832 -0.4750  0.1807
29207WAT      O18632   0.578   3.135   7.540 -0.0701  0.1929  0.0027
29207WAT     H118633   0.638   3.062   7.524 -2.7775 -2.0109 -0.8990
29207WAT     H218634   0.573   3.141   7.636  0.4789 -0.5896  0.0895
29207WAT    EPW18635   0.585   3.126   7.551 -0.3548 -0.2010 -0.1047
29208WAT      O18636  -4.327   1.745   8.115 -0.7578  0.0474 -0.6592
29208WAT     H118637  -4.392   1.805   8.078  0.4507  1.4964 -0.4882
29208WAT     H218638  -4.366   1.658   8.102 -3.2715  0.9102  0.4856
29208WAT    EPW18639  -4.341   1.741   8.108 -0.9301  0.3523 -0.4859
29209WAT      O18640   2.159   1.160   6.553 -0.7559  0.0007 -0.3175
29209WAT     H118641   2.064   1.148   6.560 -0.8879 -1.6665 -3.3012
29209WAT     H218642   2.169   1.245   6.511 -0.9029  0.3173  0.2825
29209WAT    EPW18643   2.147   1.169   6.548 -0.7927 -0.1774 -0.6320
29210WAT      O18644   4.874   5.626   3.713  0.0793  1.2553 -0.5963
29210WAT     H118645   4.809   5.579   3.660 -1.3550  1.7940  0.6170
29210WAT     H218646   4.931   5.558   3.747  1.2134  0.9049 -2.9675
29210WAT    EPW18647   4.873   5.611   3.711  0.0398  1.2801 -0.7490
29211WAT      O18648   4.042   4.128   2.960  0.3608 -0.1869  0.5055
29211WAT     H118649   4.049   4.189   3.033 -1.0002  1.9384 -1.0012
29211WAT     H218650   3.948   4.110   2.954  0.7689 -2.9289  1.2099
29211WAT    EPW18651   4.030   4.134   2.969  0.2351 -0.2682  0.3997
29212WAT      O18652  -5.360   4.855   8.496  0.6144  0.2898  0.7217
29212WAT     H118653  -5.377   4.767   8.529 -1.0423 -0.4460 -1.7704
29212WAT     H218654  -5.320   4.842   8.410 -0.4053  1.9183 -0.0605
29212WAT    EPW18655  -5.357   4.842   8.489  0.2615  0.4075  0.2894
29213WAT      O18656   3.378   5.901   3.304 -0.3975 -0.0752  0.2075
29213WAT     H118657   3.420   5.818   3.328  1.4817  1.0619  1.1829
29213WAT     H218658   3.291   5.897   3.343  0.6130 -0.5709  2.6326
29213WAT    EPW18659   3.372   5.890   3.313 -0.0162  0.0093  0.6559
29214WAT      O18660   2.552   6.697   8.846  0.8042 -0.5271 -0.0898
29214WAT     H118661   2.620   6.724   8.784  2.0916 -0.3724  1.3341
29214WAT     H218662   2.499   6.634   8.797  2.3212 -1.1022 -1.0628
29214WAT    EPW18663   2.554   6.692   8.831  1.1741 -0.5827 -0.0300
29215WAT      O18664   0.437   4.189   5.657 -0.2342  0.1656  0.0825
29215WAT     H118665   0.409   4.106   5.618 -1.3896 -0.0433  1.2607
29215WAT     H218666   0.355   4.236   5.674  0.3922  1.6028 -0.6044
29215WAT    EPW18667   0.422   4.184   5.654 -0.3040  0.3276  0.1473
29216WAT      O18668   5.953   2.430   3.528  0.2933 -0.5662  0.9479
29216WAT     H118669   6.021   2.488   3.493  0.6832 -1.2023  0.6352
29216WAT     H218670   5.886   2.489   3.562  0.1224  0.0688 -0.4493
29216WAT    EPW18671   5.953   2.445   3.528  0.3221 -0.5664  0.7223
29217WAT      O18672  -0.265   3.125   6.364  0.8610  0.0854  0.4898
29217WAT     H118673  -0.305   3.146   6.448  1.3934 -3.6557  1.8763
29217WAT     H218674  -0.171   3.135   6.378  0.8824  1.0783 -0.2408
29217WAT    EPW18675  -0.258   3.129   6.377  0.9341 -0.2770  0.5763
29218WAT      O18676   5.404   3.667   1.705 -0.0571  0.0412  0.0041
29218WAT     H118677   5.459   3.694   1.632 -1.2415  2.4276 -0.0748
29218WAT     H218678   5.460   3.679   1.782  0.5700 -0.6873 -0.3229
29218WAT    EPW18679   5.419   3.672   1.706 -0.1307  0.2600 -0.0494
29219WAT      O18680   5.777   1.422   0.620  0.1668  0.6887  0.4126
29219WAT     H118681   5.756   1.513   0.638 -1.0459  0.8573 -1.5325
29219WAT     H218682   5.697   1.374   0.642  0.5407  0.1921  0.7086
29219WAT    EPW18683   5.764   1.427   0.625  0.0560  0.6455  0.1951
29220WAT      O18684   7.714   0.529   1.992  0.3528  0.4059 -0.0826
29220WAT     H118685   7.718   0.458   2.055  0.7723  1.3037  0.9264
29220WAT     H218686   7.763   0.497   1.916  1.8314  0.1801  0.9296
29220WAT    EPW18687   7.721   0.516   1.990  0.6032  0.4945  0.1840
29221WAT      O18688   0.257   0.221   5.070 -0.4843  0.6295 -0.1014
29221WAT     H118689   0.238   0.242   4.979  0.9201  2.6122  0.0082
29221WAT     H218690   0.325   0.154   5.065  1.5434  2.6299 -0.5979
29221WAT    EPW18691   0.263   0.215   5.058 -0.0316  1.1548 -0.1523
29222WAT      O18692   1.615   7.331   1.694  0.1158  0.0269 -0.2194
29222WAT     H118693   1.700   7.360   1.661 -0.3754 -0.0303 -1.5756
29222WAT     H218694   1.596   7.250   1.646  0.5480 -1.5351  2.0754
29222WAT    EPW18695   1.624   7.324   1.683  0.1080 -0.1864 -0.0956
29223WAT      O18696  -4.788   9.447   6.623 -0.1855 -0.0643 -0.7131
29223WAT     H118697  -4.806   9.378   6.559 -3.2265  1.3682 -1.5932
29223WAT     H218698  -4.862   9.445   6.683  1.5524  0.0367  1.5555
29223WAT    EPW18699  -4.800   9.438   6.622 -0.3574  0.1378 -0.5300
29224WAT      O18700  -5.084  10.227   2.789  0.0891  0.3740 -0.0150
29224WAT     H118701  -5.140  10.151   2.777  0.8143 -0.5939  2.1270
29224WAT     H218702  -5.102  10.257   2.878  1.5690  1.1922  0.0575
29224WAT    EPW18703  -5.094  10.221   2.799  0.3800  0.3543  0.2770
29225WAT      O18704  -4.187   7.085   6.120  0.1452  0.1309  0.0719
29225WAT     H118705  -4.121   7.152   6.102 -0.7170  0.5425 -1.7682
29225WAT     H218706  -4.235   7.118   6.196  1.6278  0.1020  1.0804
29225WAT    EPW18707  -4.185   7.098   6.128  0.2272  0.1812 -0.0377
29226WAT      O18708   6.643   4.013   2.912 -0.0736  0.4582 -0.6859
29226WAT     H118709   6.642   4.087   2.852 -0.8356  1.3720  0.4259
29226WAT     H218710   6.621   4.050   2.998  2.7872 -0.5017  0.5695
29226WAT    EPW18711   6.640   4.027   2.916  0.2031  0.4520 -0.3737
29227WAT      O18712   0.082   6.039   5.174  0.4355 -1.1275  0.4940
29227WAT     H118713   0.025   6.025   5.098 -0.7442  0.3431  1.0450
29227WAT     H218714   0.045   5.984   5.242 -1.3460  0.8927  1.2894
29227WAT    EPW18715   0.070   6.030   5.173  0.0449 -0.6671  0.6716
29228WAT      O18716  -4.301   9.305   4.636 -0.2007 -0.2272  0.6581
29228WAT     H118717  -4.211   9.271   4.634 -0.8500 -2.0279 -1.0132
29228WAT     H218718  -4.343   9.256   4.707 -1.2443 -3.5829 -1.9883
29228WAT    EPW18719  -4.294   9.294   4.646 -0.4239 -0.9074  0.0887
29229WAT      O18720   1.319   4.481   2.777  0.2586 -0.1301 -0.2554
29229WAT     H118721   1.404   4.464   2.735  1.2002  1.1671  1.0208
29229WAT     H218722   1.342   4.518   2.862 -1.6038  0.4412  0.0342
29229WAT    EPW18723   1.333   4.484   2.782  0.1372  0.1161 -0.0489
29230WAT      O18724   3.370   7.777   4.721  0.2808  0.0192  0.4682
29230WAT     H118725   3.359   7.736   4.807  1.4403  0.9571  1.0902
29230WAT     H218726   3.283   7.811   4.700 -0.3490 -1.3975  0.6135
29230WAT    EPW18727   3.357   7.776   4.729  0.3507 -0.0439  0.5693
29231WAT      O18728   1.769   5.196   2.212 -0.6584  0.3233 -0.0707
29231WAT     H118729   1.743   5.214   2.122 -1.3064  0.1295  0.0786
29231WAT     H218730   1.695   5.150   2.250  0.3928 -1.4316 -0.0249
29231WAT    EPW18731   1.756   5.193   2.205 -0.6052  0.0663 -0.0449
29232WAT      O18732   4.129   1.920   2.284 -0.0806  0.2126  0.1090
29232WAT     H118733   4.126   1.940   2.190  1.8442 -2.5778 -0.6552
29232WAT     H218734   4.058   1.857   2.297 -0.8834  1.2036  0.7875
29232WAT    EPW18735   4.119   1.914   2.273  0.0675 -0.0246  0.0979
29233WAT      O18736  -4.134   7.227   5.826  0.4890  0.2233 -0.5238
29233WAT     H118737  -4.072   7.154   5.819  0.1166  0.0490 -5.0488
29233WAT     H218738  -4.154   7.250   5.736 -4.0013  2.1046  0.6656
29233WAT    EPW18739  -4.129   7.220   5.813 -0.1523  0.4482 -0.9637
29234WAT      O18740  -6.385   4.754   7.856  0.0917  0.5560 -0.0903
29234WAT     H118741  -6.370   4.843   7.824  1.5371 -0.2000 -1.6831
29234WAT     H218742  -6.445   4.716   7.792  0.8826 -0.1553 -0.4180
29234WAT    EPW18743  -6.391   4.761   7.843  0.3867  0.3624 -0.3438
29235WAT      O18744  -0.029   2.108   2.346 -0.0006 -0.2882  0.5192
29235WAT     H118745   0.038   2.058   2.394 -0.1639 -1.3767 -0.3451
29235WAT     H218746  -0.079   2.152   2.414 -0.3300 -1.9298  1.3941
29235WAT    EPW18747  -0.027   2.107   2.361 -0.0656 -0.6483  0.5207
29236WAT      O18748   3.605   6.057   3.274  0.1320  0.1507  0.8027
29236WAT     H118749   3.647   6.099   3.349 -0.9318  1.5552  0.6415
29236WAT     H218750   3.541   5.997   3.312  1.2675 -0.9967  1.0176
29236WAT    EPW18751   3.602   6.054   3.288  0.1414  0.1845  0.8098
29237WAT      O18752  -4.447   4.471   8.659  0.0046 -0.4348  0.1627
29237WAT     H118753  -4.415   4.456   8.748  0.3855  0.6304  0.2100
29237WAT     H218754  -4.540   4.491   8.671  0.5111  1.9191  0.5650
29237WAT    EPW18755  -4.455   4.472   8.672  0.1216  0.0162  0.2222
29238WAT      O18756   2.007   1.836   5.856  0.2822  0.2739  0.3590
29238WAT     H118757   1.923   1.789   5.856  1.8509 -2.8166 -0.8113
29238WAT     H218758   1.994   1.905   5.791 -0.0001 -3.3599 -4.0081
29238WAT    EPW18759   1.994   1.839   5.847  0.4519 -0.6130 -0.3712
29239WAT      O18760  -2.262   8.489   7.403  0.3748 -0.2914 -0.1157
29239WAT     H118761  -2.263   8.519   7.494 -0.3651  0.8328 -0.4747
29239WAT     H218762  -2.270   8.394   7.408 -2.4485 -0.0687  0.9244
29239WAT    EPW18763  -2.263   8.480   7.416 -0.0951 -0.1140 -0.0260
29240WAT      O18764   3.160   8.268   4.095 -0.8236  0.4560  0.1882
29240WAT     H118765   3.155   8.284   4.189 -2.5041 -0.0725  0.2224
29240WAT     H218766   3.124   8.347   4.055  1.7596  1.5468 -0.1413
29240WAT    EPW18767   3.154   8.280   4.102 -0.7044  0.5302  0.1495
29241WAT      O18768   2.174   9.116   7.856 -0.4213  0.3043  0.3077
29241WAT     H118769   2.213   9.152   7.776  1.8513  0.3825  1.3681
29241WAT     H218770   2.166   9.023   7.840  1.8226  0.0062  0.5932
29241WAT    EPW18771   2.178   9.109   7.844  0.1745  0.2751  0.4854
29242WAT      O18772  -2.323   6.912   0.041  0.6113  0.2417 -0.6483
29242WAT     H118773  -2.302   6.995   0.083  0.5635 -1.0050  2.0920
29242WAT     H218774  -2.419   6.907   0.045  0.6968 -0.9421  1.5253
29242WAT    EPW18775  -2.333   6.922   0.047  0.6164 -0.0789 -0.0002
29243WAT      O18776   7.339   6.846   1.067  1.0008  0.1299  0.0709
29243WAT     H118777   7.276   6.918   1.061  0.5370 -0.3873 -2.1520
29243WAT     H218778   7.351   6.818   0.977  3.2937 -0.7834  0.5971
29243WAT    EPW18779   7.333   6.852   1.054  1.2419 -0.0589 -0.1529
29244WAT      O18780  -3.440  10.053   4.483 -0.2732 -0.2282  0.1719
29244WAT     H118781  -3.407   9.981   4.536 -1.0606 -1.0361 -0.3957
29244WAT     H218782  -3.378  10.124   4.498  0.0333 -0.7320  1.4316
29244WAT    EPW18783  -3.428  10.053   4.492 -0.3366 -0.4010  0.2632
29245WAT      O18784  -2.204   2.048   5.901 -0.7340 -0.2601 -0.2928
29245WAT     H118785  -2.202   2.036   5.806 -1.5438  2.6282 -0.7867
29245WAT     H218786  -2.112   2.053   5.927 -0.5095 -0.6729 -0.9894
29245WAT    EPW18787  -2.191   2.047   5.892 -0.8112  0.0664 -0.4499
29246WAT      O18788   8.741   1.076   0.599 -0.9901 -0.4225  0.1775
29246WAT     H118789   8.722   1.163   0.634  0.3215 -1.1118  2.8676
29246WAT     H218790   8.793   1.033   0.667  0.2854 -2.5702 -1.9595
29246WAT    EPW18791   8.745   1.082   0.612 -0.6490 -0.7967  0.2504
29247WAT      O18792  -1.019   5.818   4.927  0.2183  0.4234  0.1685
29247WAT     H118793  -1.086   5.752   4.908  2.3344 -2.0732  0.8577
29247WAT     H218794  -1.043   5.852   5.013  0.3339 -1.2156  0.8962
29247WAT    EPW18795  -1.031   5.814   4.936  0.5127 -0.1221  0.3555
29248WAT      O18796   6.953   0.200   6.126 -0.4005 -0.5666 -0.4475
29248WAT     H118797   6.946   0.124   6.183  0.0042 -0.1183  0.2190
29248WAT     H218798   6.885   0.259   6.157  0.9110  0.4002  0.7335
29248WAT    EPW18799   6.944   0.198   6.138 -0.1740 -0.3800 -0.2038
29249WAT      O18800  -1.730   8.254   2.339  0.2448 -0.2510  0.1284
29249WAT     H118801  -1.742   8.326   2.276  1.3301 -0.1149  0.0486
29249WAT     H218802  -1.792   8.187   2.311  0.5707 -0.1091 -0.9786
29249WAT    EPW18803  -1.740   8.255   2.327  0.4309 -0.2141 -0.0280
29250WAT      O18804  -4.537   6.303   5.550  0.7028  0.3917  0.6624
29250WAT     H118805  -4.457   6.353   5.562 -0.9472  3.3790  0.1150
29250WAT     H218806  -4.536   6.277   5.458  2.3387 -2.2178  1.3092
29250WAT    EPW18807  -4.526   6.306   5.540  0.7010  0.4416  0.6754
29251WAT      O18808   1.893   9.838   8.609 -0.1913 -0.0741 -0.4552
29251WAT     H118809   1.925   9.908   8.666  1.5015 -1.7561  0.7846
29251WAT     H218810   1.834   9.787   8.665 -1.6069  0.4245 -1.4183
29251WAT    EPW18811   1.889   9.841   8.624 -0.1547 -0.2298 -0.4187
29252WAT      O18812   2.882   9.381   6.266 -0.4424 -0.2158  0.0174
29252WAT     H118813   2.788   9.368   6.280 -0.1497 -2.2019  0.3437
29252WAT     H218814   2.917   9.399   6.353 -0.4319 -0.1257 -0.0059
29252WAT    EPW18815   2.874   9.382   6.279 -0.4025 -0.4659  0.0572
29253WAT      O18816   1.811   3.874   7.949 -0.5092  0.3912 -0.0938
29253WAT     H118817   1.896   3.898   7.912 -0.0376  1.3358  1.4978
29253WAT     H218818   1.756   3.856   7.873  1.0086  0.0931 -1.1648
29253WAT    EPW18819   1.815   3.875   7.934 -0.2468  0.4765 -0.0250
29254WAT      O18820  -2.580   8.589   4.663  0.3927  0.3479 -0.1789
29254WAT     H118821  -2.662   8.624   4.695  0.2901 -0.2202  0.1960
29254WAT     H218822  -2.593   8.578   4.569  0.9568  2.7440 -0.5979
29254WAT    EPW18823  -2.592   8.592   4.655  0.4535  0.5889 -0.1848
29255WAT      O18824   7.829   0.163   0.560 -0.2960  0.6695  0.3979
29255WAT     H118825   7.739   0.172   0.590 -1.5481  2.9433 -3.3599
29255WAT     H218826   7.838   0.070   0.538 -1.4170  0.2822  1.4685
29255WAT    EPW18827   7.819   0.152   0.561 -0.6089  0.9184  0.0435
29256WAT      O18828   3.033   8.023   6.562 -0.5677 -0.2178  0.4241
29256WAT     H118829   3.090   7.975   6.503 -1.2046  2.8319 -3.0132
29256WAT     H218830   2.946   7.983   6.550 -1.0253  1.3634 -2.1324
29256WAT    EPW18831   3.029   8.011   6.553 -0.7120  0.3934 -0.3664
29257WAT      O18832   0.670   9.049   7.947 -0.3451 -0.0726  0.1356
29257WAT     H118833   0.764   9.053   7.965  0.4024 -0.0040 -3.2586
29257WAT     H218834   0.630   9.098   8.019  2.4578  2.5319  0.0969
29257WAT    EPW18835   0.677   9.056   7.959  0.1232  0.2804 -0.3171
29258WAT      O18836  -1.923   8.980   2.839 -0.4900 -0.3677 -0.2963
29258WAT     H118837  -1.962   9.048   2.894  1.0116  0.1464  0.1624
29258WAT     H218838  -1.829   8.990   2.850 -0.2068 -1.8784 -1.0218
29258WAT    EPW18839  -1.916   8.991   2.847 -0.2546 -0.4992 -0.3315
29259WAT      O18840   4.573   1.895   3.330  0.2751 -0.0640 -0.1881
29259WAT     H118841   4.651   1.877   3.279  0.5249 -1.2401  0.5748
29259WAT     H218842   4.605   1.942   3.408 -0.2618  3.0826 -1.7020
29259WAT    EPW18843   4.587   1.899   3.334  0.2372  0.1959 -0.2872
29260WAT      O18844   3.761   9.152   2.402  0.7336  0.1664 -0.3614
29260WAT     H118845   3.674   9.119   2.380  0.7793  0.7148 -1.4444
29260WAT     H218846   3.795   9.089   2.465 -0.3137 -0.2347 -0.1709
29260WAT    EPW18847   3.754   9.139   2.407  0.6015  0.1860 -0.4792
29261WAT      O18848   6.692   7.598   0.310  0.3355 -0.7451 -0.1155
29261WAT     H118849   6.629   7.627   0.244 -1.9840  0.4636  2.4233
29261WAT     H218850   6.734   7.679   0.339 -0.4399 -0.8648  1.4812
29261WAT    EPW18851   6.689   7.612   0.305 -0.0730 -0.6015  0.4299
29262WAT      O18852  -4.461   0.566   7.570  0.2213  0.3938 -0.2592
29262WAT     H118853  -4.416   0.484   7.551 -1.1400 -0.4882  0.2116
29262WAT     H218854  -4.469   0.609   7.485 -2.6512 -1.8552 -1.2883
29262WAT    EPW18855  -4.456   0.561   7.556 -0.3374 -0.0191 -0.3328
29263WAT      O18856   6.016   2.655   2.480 -0.0440  0.6816  0.0160
29263WAT     H118857   5.984   2.659   2.570  0.0327 -0.5780  0.1146
29263WAT     H218858   5.947   2.695   2.428  0.1645  1.9641  0.6803
29263WAT    EPW18859   6.003   2.661   2.485 -0.0062  0.6846  0.1166
29264WAT      O18860  -0.897   5.621   7.998 -0.1512 -0.6826  0.7481
29264WAT     H118861  -0.911   5.625   8.092  0.4635 -2.1120  0.9154
29264WAT     H218862  -0.802   5.626   7.987 -0.2627  0.6645  0.1054
29264WAT    EPW18863  -0.886   5.623   8.009 -0.0849 -0.6936  0.6852
29265WAT      O18864   4.894   6.759   0.359  0.1018  0.4740 -0.4453
29265WAT     H118865   4.970   6.743   0.304  0.2065  0.4341 -0.2891
29265WAT     H218866   4.928   6.809   0.433  0.2115 -0.5791  0.2490
29265WAT    EPW18867   4.908   6.763   0.361  0.1302  0.3297 -0.3331
29266WAT      O18868   5.327   3.893   5.885 -0.1224  0.0302 -0.4250
29266WAT     H118869   5.383   3.818   5.863  1.8084  1.0420  0.7481
29266WAT     H218870   5.245   3.853   5.914 -0.1423 -1.5125 -2.4007
29266WAT    EPW18871   5.324   3.878   5.886  0.1297 -0.0398 -0.5307
29267WAT      O18872   5.312   7.719   0.892 -0.5204  0.1620 -0.6656
29267WAT     H118873   5.318   7.790   0.956  3.0458  0.1566 -0.8395
29267WAT     H218874   5.248   7.751   0.827 -0.7314  2.1850  0.4494
29267WAT    EPW18875   5.304   7.733   0.892 -0.0780  0.4280 -0.5415
29268WAT      O18876  -7.147   5.243   8.679  0.6026 -0.2872  0.3494
29268WAT     H118877  -7.141   5.186   8.603 -2.0799 -3.4808  2.2605
29268WAT     H218878  -7.062   5.233   8.723  1.7898  0.7902 -1.5754
29268WAT    EPW18879  -7.135   5.234   8.675  0.4052 -0.5665  0.3476
29269WAT      O18880   3.987   5.819   7.392  0.2841 -0.3928 -0.1420
29269WAT     H118881   3.958   5.909   7.378 -1.6036 -1.1123 -1.1572
29269WAT     H218882   4.082   5.823   7.375  0.4001  1.5289  0.6660
29269WAT    EPW18883   3.996   5.831   7.388  0.0503 -0.2341 -0.1690
29270WAT      O18884   1.119   9.834   5.365  0.3502  0.9458 -0.0942
29270WAT     H118885   1.046   9.849   5.306  2.2928 -2.8211 -4.0367
29270WAT     H218886   1.079   9.794   5.443 -1.8932 -0.1499 -1.7169
29270WAT    EPW18887   1.104   9.830   5.368  0.3104  0.3047 -0.8280
29271WAT      O18888   3.851   5.885   1.305  0.7018  0.4684 -0.1906
29271WAT     H118889   3.789   5.847   1.367  0.5179  3.7070  1.8324
29271WAT     H218890   3.874   5.813   1.246 -4.8106 -1.0600 -1.0331
29271WAT    EPW18891   3.846   5.871   1.305 -0.0496  0.6940 -0.0350
29272WAT      O18892   0.742   5.424   7.583  0.3032 -0.1865 -0.1595
29272WAT     H118893   0.817   5.366   7.595  2.0926  2.2477  1.3179
29272WAT     H218894   0.747   5.485   7.656  0.3166  3.6526 -3.0504
29272WAT    EPW18895   0.753   5.424   7.594  0.5410  0.6409 -0.3459
29273WAT      O18896   0.569   4.273   5.228 -0.4759 -0.4527 -0.1005
29273WAT     H118897   0.574   4.205   5.162 -2.0038 -1.5660  0.8655
29273WAT     H218898   0.499   4.331   5.198 -0.1609 -0.1122 -0.1902
29273WAT    EPW18899   0.561   4.272   5.216 -0.6359 -0.5546  0.0150
29274WAT      O18900  -5.274   7.129   4.692  0.0128 -0.0930  0.2279
29274WAT     H118901  -5.261   7.035   4.702  1.5314 -0.1132 -1.3619
29274WAT     H218902  -5.350   7.137   4.635  0.4590 -0.4061 -0.4221
29274WAT    EPW18903  -5.282   7.118   4.686  0.2718 -0.1371 -0.0675
29275WAT      O18904  -1.628   6.276   3.278 -0.2263 -0.1382 -0.1011
29275WAT     H118905  -1.573   6.295   3.354  0.5571 -2.1127 -0.1270
29275WAT     H218906  -1.578   6.308   3.203 -0.4952  0.7647  0.0785
29275WAT    EPW18907  -1.614   6.283   3.279 -0.1584 -0.2794 -0.0808
29276WAT      O18908  -1.365   5.445   7.011  0.0304 -0.3931 -0.1951
29276WAT     H118909  -1.421   5.464   7.087  1.9372  1.4939  0.8208
29276WAT     H218910  -1.419   5.387   6.956 -2.2131 -0.1140  1.5627
29276WAT    EPW18911  -1.380   5.440   7.014 -0.0141 -0.1073  0.1707
29277WAT      O18912  -0.756   8.561   7.102  0.5292 -0.0883  0.1976
29277WAT     H118913  -0.692   8.632   7.109  1.7380 -1.2390  1.3211
29277WAT     H218914  -0.841   8.605   7.108  1.2153  1.3667 -0.2988
29277WAT    EPW18915  -0.759   8.576   7.104  0.7791 -0.0482  0.2801
29278WAT      O18916  -1.179   4.912   6.497 -0.1275 -0.2503  0.5012
29278WAT     H118917  -1.205   4.959   6.417  0.6744 -1.1593 -0.3140
29278WAT     H218918  -1.083   4.908   6.492 -0.0381 -0.0271  1.6971
29278WAT    EPW18919  -1.170   4.918   6.486 -0.0099 -0.3407  0.5515
29279WAT      O18920  -0.120   7.743   6.840 -0.1779  0.0403  0.2931
29279WAT     H118921  -0.074   7.682   6.897 -1.7000 -1.2262  0.2199
29279WAT     H218922  -0.137   7.693   6.760  0.7508  1.3755 -0.7921
29279WAT    EPW18923  -0.116   7.729   6.837 -0.2562  0.0494  0.1404
29280WAT      O18924  -0.237   5.702   1.476 -0.2160 -0.1715  0.2146
29280WAT     H118925  -0.327   5.671   1.471 -0.5017  0.2879  1.9628
29280WAT     H218926  -0.244   5.796   1.494  0.5866 -0.2712  1.1677
29280WAT    EPW18927  -0.250   5.710   1.478 -0.1478 -0.1242  0.5708
29281WAT      O18928   0.522   6.296   7.801  0.1116  0.0791  0.0075
29281WAT     H118929   0.436   6.294   7.760  0.7110  1.0939 -1.3985
29281WAT     H218930   0.578   6.245   7.742  0.7311  0.4809  0.2370
29281WAT    EPW18931   0.518   6.289   7.788  0.2723  0.2661 -0.1476
29282WAT      O18932  -7.171  10.087   7.256 -0.0080  0.7387  0.8097
29282WAT     H118933  -7.136  10.170   7.224 -0.6559  1.3529  1.6713
29282WAT     H218934  -7.145  10.084   7.348  0.9406 -0.5259  0.5334
29282WAT    EPW18935  -7.163  10.097   7.264  0.0317  0.6533  0.8869
29283WAT      O18936   2.728   9.029   2.936 -0.3764 -0.4664 -0.6514
29283WAT     H118937   2.678   9.089   2.880 -2.2720 -1.9444 -0.6187
29283WAT     H218938   2.741   9.078   3.017 -1.0789  0.2500 -0.9541
29283WAT    EPW18939   2.723   9.044   2.939 -0.7191 -0.5665 -0.6869
29284WAT      O18940   0.630   2.478   5.360 -0.4811  0.0391  0.0313
29284WAT     H118941   0.668   2.565   5.346 -0.8010  0.1911  0.0928
29284WAT     H218942   0.588   2.484   5.446  0.2864 -0.4626  0.4500
29284WAT    EPW18943   0.629   2.490   5.370 -0.4220 -0.0070  0.0944
29285WAT      O18944   5.442   5.011   3.254  0.0155  0.6409  0.5362
29285WAT     H118945   5.351   5.026   3.228 -0.1526 -1.3254 -0.1338
29285WAT     H218946   5.438   4.996   3.348 -0.4893 -0.2698  0.3817
29285WAT    EPW18947   5.429   5.011   3.263 -0.0732  0.2618  0.4275
29286WAT      O18948  -0.863   2.972   5.975 -0.4717  1.2490  0.0303
29286WAT     H118949  -0.890   2.891   6.020  0.6134  0.7791 -0.1322
29286WAT     H218950  -0.778   2.993   6.014 -0.3302  1.8113 -0.5769
29286WAT    EPW18951  -0.856   2.964   5.986 -0.3099  1.2611 -0.0713
29287WAT      O18952   1.032  10.298   4.937  0.7938  0.2647  0.5037
29287WAT     H118953   1.112  10.262   4.976  0.5048 -0.1653  0.6986
29287WAT     H218954   0.962  10.274   4.998  0.1435 -1.5293 -0.8703
29287WAT    EPW18955   1.034  10.290   4.950  0.6700 -0.0286  0.3483
29288WAT      O18956  -3.623   2.588   4.811  0.3478 -0.1290 -0.3114
29288WAT     H118957  -3.527   2.590   4.815  0.5320  1.8894 -2.9524
29288WAT     H218958  -3.643   2.579   4.718 -1.9918  2.1318 -0.1522
29288WAT    EPW18959  -3.613   2.587   4.799  0.0635  0.4354 -0.6387
29289WAT      O18960   5.943   7.518   2.342  0.0920 -0.0592 -0.1578
29289WAT     H118961   5.903   7.604   2.350 -0.0341 -0.1734  0.5592
29289WAT     H218962   6.025   7.525   2.391  0.0943 -0.3358 -0.1158
29289WAT    EPW18963   5.949   7.530   2.350  0.0758 -0.1109 -0.0577
29290WAT      O18964   2.737   1.469   5.948 -0.2809  0.1264  0.8276
29290WAT     H118965   2.723   1.564   5.947 -1.8593 -0.0651 -0.9043
29290WAT     H218966   2.825   1.457   5.914 -1.0140  0.9368 -1.5926
29290WAT    EPW18967   2.747   1.480   5.944 -0.5858  0.2081  0.2799
29291WAT      O18968   6.284   8.076   1.060  0.6639 -0.5496  0.4076
29291WAT     H118969   6.208   8.133   1.051  1.7680  0.9935  0.4075
29291WAT     H218970   6.251   7.988   1.042 -0.7616  0.2716 -1.2218
29291WAT    EPW18971   6.270   8.072   1.057  0.6216 -0.2375  0.1926
29292WAT      O18972   5.002   3.414   0.762 -0.4164  0.3804 -0.4613
29292WAT     H118973   5.082   3.384   0.804  0.7822 -0.2370 -3.0267
29292WAT     H218974   4.987   3.353   0.690 -2.9940  0.7205 -0.3184
29292WAT    EPW18975   5.010   3.402   0.758 -0.5982  0.3439 -0.7808
29293WAT      O18976  -7.252   8.876   7.016 -0.2641 -0.7115 -0.0088
29293WAT     H118977  -7.168   8.835   7.037 -0.0037 -0.9374 -1.4093
29293WAT     H218978  -7.298   8.879   7.100  1.4235  0.1062  0.9407
29293WAT    EPW18979  -7.247   8.871   7.030 -0.0072 -0.6332 -0.0682
29294WAT      O18980  -1.311  10.285   0.096 -0.3225 -0.6591  0.1033
29294WAT     H118981  -1.218  10.270   0.084 -0.4226 -1.8841  0.6642
29294WAT     H218982  -1.318  10.379   0.114  1.0671 -0.8610  2.1213
29294WAT    EPW18983  -1.300  10.295   0.097 -0.1525 -0.8473  0.4434
29295WAT      O18984   3.092   4.414   8.282 -0.1296  0.0905 -0.5798
29295WAT     H118985   3.142   4.494   8.298 -4.3737  2.5163  2.9597
29295WAT     H218986   3.094   4.367   8.366 -1.2976 -1.1728 -1.2190
29295WAT    EPW18987   3.099   4.418   8.295 -0.8434  0.2439 -0.1969
29296WAT      O18988   8.598   2.665   1.342 -0.0699  0.3702 -0.2917
29296WAT     H118989   8.552   2.694   1.421  0.5222  2.2936 -0.6052
29296WAT     H218990   8.565   2.722   1.273  1.0659  0.2429 -0.9661
29296WAT    EPW18991   8.588   2.676   1.343  0.1578  0.6070 -0.4221
29297WAT      O18992   5.526   2.692   3.204  0.2932  0.2876 -0.2836
29297WAT     H118993   5.530   2.770   3.149  1.2363 -1.0094 -2.1392
29297WAT     H218994   5.539   2.726   3.293 -1.7906  2.4988 -0.7105
29297WAT    EPW18995   5.529   2.707   3.209  0.1426  0.4082 -0.5845
29298WAT      O18996   6.146   5.414   1.052 -0.5024 -0.2388  0.3739
29298WAT     H118997   6.138   5.375   0.965 -0.1439 -1.7908  1.0104
29298WAT     H218998   6.235   5.391   1.080 -1.0286 -0.7897  1.6267
29298WAT    EPW18999   6.157   5.406   1.044 -0.5245 -0.5162  0.6231
29299WAT      O19000   3.773   4.536   5.518 -0.0590  0.1349  0.1293
29299WAT     H119001   3.737   4.502   5.436  0.2308 -3.0250  1.2042
29299WAT     H219002   3.766   4.464   5.580  3.7351  0.8960  1.7291
29299WAT    EPW19003   3.767   4.522   5.515  0.4797 -0.1814  0.4818
29300WAT      O19004  -5.576   7.089   7.345  0.4245  0.9481 -0.0127
29300WAT     H119005  -5.486   7.091   7.376  0.8662 -0.6236 -1.0414
29300WAT     H219006  -5.620   7.158   7.394  1.1603 -0.9184  3.6375
29300WAT    EPW19007  -5.570   7.098   7.355  0.5798  0.4947  0.3331
29301WAT      O19008   2.129   8.805   7.915 -0.0446  0.6182 -0.3798
29301WAT     H119009   2.147   8.779   7.825 -1.1794  1.5466 -0.9018
29301WAT     H219010   2.033   8.809   7.920 -0.0163  0.1297  1.0031
29301WAT    EPW19011   2.119   8.802   7.904 -0.1905  0.6762 -0.2661
29302WAT      O19012   8.915   1.012   0.400 -0.8419  0.0673  0.4718
29302WAT     H119013   8.845   1.012   0.465 -0.0806  1.1520  1.3293
29302WAT     H219014   8.871   0.992   0.318 -1.6619 -2.5648  1.4320
29302WAT    EPW19015   8.900   1.009   0.398 -0.8492 -0.1369  0.7115
29303WAT      O19016   0.924   7.903   8.163 -0.1778 -0.9467 -0.0030
29303WAT     H119017   0.917   7.831   8.100 -0.4591 -0.9117 -0.0169
29303WAT     H219018   1.015   7.931   8.158 -0.1907 -0.9615 -0.3750
29303WAT    EPW19019   0.935   7.897   8.154 -0.2166 -0.9441 -0.0534
29304WAT      O19020   5.444   1.825   3.961  0.4539 -0.8892  0.2443
29304WAT     H119021   5.465   1.879   4.037 -0.7926 -1.0369  0.7141
29304WAT     H219022   5.522   1.831   3.906  1.2031 -0.4003  1.3062
29304WAT    EPW19023   5.457   1.833   3.964  0.3881 -0.8441  0.4463
29305WAT      O19024   4.999   2.757   5.148 -0.1113 -0.7201  0.4121
29305WAT     H119025   5.028   2.669   5.123  0.1228 -0.9074  1.3139
29305WAT     H219026   4.929   2.777   5.085 -0.6370 -1.8360  0.6103
29305WAT    EPW19027   4.993   2.748   5.136 -0.1497 -0.8919  0.5572
29306WAT      O19028   5.516   1.730   4.894 -0.0009 -0.1377  0.0874
29306WAT     H119029   5.480   1.768   4.815 -1.0408 -0.7284  0.2609
29306WAT     H219030   5.557   1.648   4.865 -0.2046 -0.2543  0.1274
29306WAT    EPW19031   5.517   1.724   4.880 -0.1650 -0.2309  0.1156
29307WAT      O19032  -7.742  10.235   6.783  0.1530 -0.0298 -0.3052
29307WAT     H119033  -7.698  10.319   6.765 -1.9085  0.7154 -2.4035
29307WAT     H219034  -7.720  10.180   6.708  0.4867 -0.9621  0.4603
29307WAT    EPW19035  -7.733  10.239   6.770 -0.0751 -0.0539 -0.4809
29308WAT      O19036  -1.682   7.878   4.598  0.3629 -0.6297  0.5858
29308WAT     H119037  -1.595   7.838   4.588  0.1756 -1.3240  1.6824
29308WAT     H219038  -1.669   7.969   4.569  1.5931 -0.5695  1.2475
29308WAT    EPW19039  -1.668   7.885   4.593  0.5004 -0.7133  0.8175
29309WAT      O19040   2.696   7.274   8.139 -0.3292 -0.8890  0.2160
29309WAT     H119041   2.672   7.253   8.229  3.1369 -2.9992  0.8368
29309WAT     H219042   2.783   7.313   8.146  0.2527 -1.5827 -2.2359
29309WAT    EPW19043   2.704   7.277   8.152  0.2047 -1.2588 -0.0257
29310WAT      O19044   2.753   8.492   1.178  0.4065  0.5047  0.7006
29310WAT     H119045   2.844   8.506   1.152  1.9474 -2.6769  3.5571
29310WAT     H219046   2.757   8.467   1.270 -3.5544  1.2768  1.2987
29310WAT    EPW19047   2.765   8.490   1.186  0.0874  0.1869  1.1563
29311WAT      O19048   1.665   4.681   6.202 -0.0431  0.1321 -0.4132
29311WAT     H119049   1.689   4.617   6.269  1.9969 -0.8012 -1.9230
29311WAT     H219050   1.639   4.759   6.251  2.7384 -0.0207  1.5150
29311WAT    EPW19051   1.664   4.683   6.217  0.5928 -0.0110 -0.3579
29312WAT      O19052  -4.705   8.954   4.514  0.1802 -0.4985 -0.6078
29312WAT     H119053  -4.713   8.955   4.609 -0.2537 -1.3607 -0.6237
29312WAT     H219054  -4.711   9.046   4.488 -0.5803 -0.3323  0.1239
29312WAT    EPW19055  -4.707   8.966   4.523  0.0224 -0.5898 -0.5133
29313WAT      O19056   2.750   0.959   3.770 -0.6081  0.5275 -0.0975
29313WAT     H119057   2.679   0.949   3.706 -0.1237 -0.7246 -0.4737
29313WAT     H219058   2.772   1.052   3.768 -0.2038  0.4257 -2.1968
29313WAT    EPW19059   2.743   0.970   3.761 -0.4909  0.3489 -0.4240
29314WAT      O19060  -7.073   5.834   8.395  0.5430 -0.4017 -0.7394
29314WAT     H119061  -7.149   5.861   8.343 -1.0890 -2.2155  0.5255
29314WAT     H219062  -7.085   5.880   8.478  1.7238  0.5076 -1.0565
29314WAT    EPW19063  -7.085   5.843   8.399  0.4833 -0.5212 -0.6146
29315WAT      O19064  -4.970   6.296   6.437 -0.4808 -0.0115  0.3118
29315WAT     H119065  -4.902   6.302   6.504  1.0870 -2.3817 -0.9200
29315WAT     H219066  -4.957   6.373   6.382 -0.0599  0.5542  1.1800
29315WAT    EPW19067  -4.959   6.307   6.439 -0.2186 -0.2496  0.2639
29316WAT      O19068  -2.756   6.761   4.989  0.1285 -0.5976 -0.4955
29316WAT     H119069  -2.826   6.826   4.991 -0.7278 -1.4581  1.8764
29316WAT     H219070  -2.676   6.813   4.991 -0.5186  0.5613  2.7912
29316WAT    EPW19071  -2.755   6.777   4.990 -0.0699 -0.5584  0.2511
29317WAT      O19072  -3.286   9.731   6.899 -0.7158 -0.7782  0.9300
29317WAT     H119073  -3.260   9.737   6.807 -3.1225 -0.0773  0.2417
29317WAT     H219074  -3.212   9.685   6.941  0.2820 -1.4582 -1.3817
29317WAT    EPW19075  -3.273   9.726   6.892 -0.9017 -0.7753  0.5343
29318WAT      O19076  -0.313   3.468   4.812 -0.0417 -0.6411 -0.5379
29318WAT     H119077  -0.262   3.464   4.731  1.6097 -0.4387  0.4465
29318WAT     H219078  -0.290   3.552   4.851 -0.3884 -0.9742  0.4229
29318WAT    EPW19079  -0.304   3.479   4.806  0.1304 -0.6584 -0.2813
29319WAT      O19080   5.424   3.909   2.794  0.3071 -0.2677 -0.3653
29319WAT     H119081   5.398   3.900   2.703  0.5707 -0.5845 -0.4108
29319WAT     H219082   5.516   3.884   2.796  0.4279  0.1654 -0.0860
29319WAT    EPW19083   5.432   3.905   2.783  0.3579 -0.2522 -0.3344
29320WAT      O19084   1.421   9.662   8.082 -0.1355  0.0986 -0.3070
29320WAT     H119085   1.366   9.635   8.156  0.5138 -0.2825  0.0406
29320WAT     H219086   1.390   9.750   8.061 -1.1423 -0.2551 -0.3693
29320WAT    EPW19087   1.410   9.670   8.089 -0.1826  0.0019 -0.2694
29321WAT      O19088   5.703   3.339   6.424  0.0567  0.1774  0.1219
29321WAT     H119089   5.712   3.271   6.491  0.4060  0.8177  0.7499
29321WAT     H219090   5.719   3.294   6.341  0.1947 -0.5181  0.5175
29321WAT    EPW19091   5.707   3.324   6.422  0.1209  0.1701  0.2573
29322WAT      O19092   1.645   1.742   4.989 -0.5784  1.0994  0.7083
29322WAT     H119093   1.586   1.695   5.048 -0.9589  2.2347  1.2523
29322WAT     H219094   1.718   1.769   5.045 -0.9684  2.2303  0.6919
29322WAT    EPW19095   1.647   1.739   5.004 -0.6800  1.3983  0.7780
29323WAT      O19096  -4.832  10.237   3.167 -0.1123  0.3920  0.7755
29323WAT     H119097  -4.801  10.151   3.139  1.7785  1.1726  0.3036
29323WAT     H219098  -4.920  10.244   3.131 -0.0155 -1.0456  0.2099
29323WAT    EPW19099  -4.840  10.226   3.159  0.1500  0.3057  0.6386
29324WAT      O19100   8.964   0.909   1.091  0.6496  0.0503 -0.8635
29324WAT     H119101   9.035   0.845   1.102  0.6264  0.0686 -0.5957
29324WAT     H219102   9.007   0.994   1.095  0.7184  0.0511 -1.5071
29324WAT    EPW19103   8.979   0.911   1.093  0.6557  0.0528 -0.9130
29325WAT      O19104   1.793   8.673   3.396 -0.2066 -0.4461  0.0873
29325WAT     H119105   1.807   8.763   3.366  3.7418 -1.1605 -0.8088
29325WAT     H219106   1.736   8.634   3.330 -3.6203  1.7361  1.4878
29325WAT    EPW19107   1.787   8.680   3.383 -0.1361 -0.2522  0.1538
29326WAT      O19108  -0.621   5.846   3.053 -0.4070  0.4870  0.2828
29326WAT     H119109  -0.591   5.921   3.002  0.0208  0.6446  0.7548
29326WAT     H219110  -0.588   5.770   3.006 -0.6184  0.6065 -0.0567
29326WAT    EPW19111  -0.613   5.846   3.040 -0.3785  0.5233  0.3002
29327WAT      O19112   3.688   0.595   2.772  0.1146 -0.5683  0.0915
29327WAT     H119113   3.717   0.615   2.861 -0.3367 -0.4159  0.2056
29327WAT     H219114   3.753   0.532   2.740  0.1134 -0.8523  0.6335
29327WAT    EPW19115   3.700   0.589   2.779  0.0550 -0.5857  0.1780
29328WAT      O19116   7.130   1.539   4.279 -0.5987  0.3636  0.3031
29328WAT     H119117   7.220   1.566   4.260  0.5837 -1.3936  2.7845
29328WAT     H219118   7.098   1.502   4.197  2.2053 -2.0047  0.1303
29328WAT    EPW19119   7.138   1.538   4.266 -0.0732 -0.1805  0.6075
29329WAT      O19120   3.996   5.597   4.458 -0.3383 -0.1040 -0.2468
29329WAT     H119121   3.963   5.512   4.431  0.7270 -0.0332 -1.9087
29329WAT     H219122   3.959   5.658   4.394 -1.2476  0.7477  1.0377
29329WAT    EPW19123   3.987   5.594   4.446 -0.3177  0.0176 -0.2968
29330WAT      O19124   2.721   6.576   1.658  0.0196  0.2343  0.2610
29330WAT     H119125   2.711   6.615   1.571  0.1155  1.3194  0.7260
29330WAT     H219126   2.640   6.527   1.672 -0.0164  0.0970 -0.4099
29330WAT    EPW19127   2.709   6.574   1.648  0.0277  0.3593  0.2338
29331WAT      O19128  -1.550   7.723   1.986 -0.4992  0.4836  0.3119
29331WAT     H119129  -1.558   7.645   2.040  1.1366 -0.5065 -0.7543
29331WAT     H219130  -1.520   7.791   2.046  1.4845 -0.6384  0.7010
29331WAT    EPW19131  -1.547   7.722   2.001 -0.0218  0.2050  0.2227
29332WAT      O19132  -2.331   4.000   8.012 -0.0325 -0.3406 -0.0785
29332WAT     H119133  -2.390   3.968   7.943 -1.3015 -2.4750  1.8434
29332WAT     H219134  -2.290   3.920   8.047 -1.3919  0.2796  3.2824
29332WAT    EPW19135  -2.333   3.985   8.007 -0.3791 -0.5404  0.6185
29333WAT      O19136  -3.177   8.771   8.409 -0.4435 -0.3053 -0.0036
29333WAT     H119137  -3.256   8.731   8.372 -0.3641 -0.8894  0.4509
29333WAT     H219138  -3.104   8.723   8.368 -0.3489 -0.6885  0.5953
29333WAT    EPW19139  -3.177   8.759   8.399 -0.4207 -0.4330  0.1349
29334WAT      O19140   2.817   0.369   1.508 -0.1869 -0.3303  0.0634
29334WAT     H119141   2.747   0.387   1.571 -0.6177 -0.2480 -0.4418
29334WAT     H219142   2.861   0.453   1.497 -0.8373 -0.0717 -0.6269
29334WAT    EPW19143   2.814   0.383   1.515 -0.3296 -0.2854 -0.0944
29335WAT      O19144  -2.258   5.695   1.569 -0.0224 -0.0063 -0.8365
29335WAT     H119145  -2.219   5.609   1.552 -2.5378 -1.2962 -0.4728
29335WAT     H219146  -2.268   5.699   1.664  0.5745  0.9639 -0.7934
29335WAT    EPW19147  -2.254   5.684   1.579 -0.2755 -0.0484 -0.7828
29336WAT      O19148  -0.680   7.991   6.275  0.0101  0.2266  0.9212
29336WAT     H119149  -0.609   7.928   6.264  0.7574  0.9939  1.1887
29336WAT     H219150  -0.686   8.035   6.190 -1.7546 -1.4215  0.1288
29336WAT    EPW19151  -0.672   7.989   6.262 -0.1241  0.1104  0.8519
29337WAT      O19152  -0.461   6.737   1.332  0.3831  0.4672  0.5587
29337WAT     H119153  -0.392   6.803   1.328 -0.9704  1.8777 -1.2739
29337WAT     H219154  -0.541   6.785   1.310 -0.7746 -1.6334 -0.0852
29337WAT    EPW19155  -0.463   6.752   1.329  0.0519  0.3760  0.2320
29338WAT      O19156   3.399   8.698   0.164  0.1613  0.0594 -0.0176
29338WAT     H119157   3.325   8.662   0.214  0.3273 -0.3546 -0.0632
29338WAT     H219158   3.466   8.630   0.169  1.6460  1.5415  2.4579
29338WAT    EPW19159   3.398   8.684   0.171  0.3790  0.2003  0.3029
29339WAT      O19160  -0.788   5.333   4.120 -0.1507 -0.0710  0.2912
29339WAT     H119161  -0.701   5.353   4.085 -0.0463 -1.1151 -0.0901
29339WAT     H219162  -0.771   5.290   4.204 -0.2881 -0.3623  0.1725
29339WAT    EPW19163  -0.775   5.330   4.127 -0.1551 -0.2470  0.2251
29340WAT      O19164   9.660   2.231   0.641  0.4004  0.1629 -0.1122
29340WAT     H119165   9.587   2.182   0.602  0.9970 -1.8681  1.1883
29340WAT     H219166   9.617   2.303   0.687 -0.5099  0.9383 -2.0645
29340WAT    EPW19167   9.645   2.234   0.642  0.3591 -0.0027 -0.1982
29341WAT      O19168   3.153   5.854   0.752 -0.4519  0.0729 -0.6420
29341WAT     H119169   3.177   5.787   0.815  3.0150  3.7508  2.5672
29341WAT     H219170   3.085   5.906   0.796  0.5458  1.5169 -0.7138
29341WAT    EPW19171   3.147   5.852   0.766  0.1370  0.7484 -0.2282
29342WAT      O19172   4.308   3.516   5.403  0.1556  0.1704 -0.1753
29342WAT     H119173   4.251   3.565   5.344  0.8937 -0.1806 -1.1986
29342WAT     H219174   4.321   3.575   5.478  0.7478  1.4145 -1.2273
29342WAT    EPW19175   4.302   3.531   5.405  0.3312  0.2881 -0.4492
29343WAT      O19176   6.754   3.838   1.054  0.0647 -0.1993 -0.5788
29343WAT     H119177   6.824   3.903   1.064  0.4909 -0.8390  0.9037
29343WAT     H219178   6.781   3.785   0.978  0.3915  0.5090 -0.9626
29343WAT    EPW19179   6.767   3.839   1.045  0.1640 -0.1903 -0.4339
29344WAT      O19180  -3.569   2.976   5.278 -0.1441 -0.1357  0.3511
29344WAT     H119181  -3.642   2.963   5.339  0.0389 -0.4326  0.5107
29344WAT     H219182  -3.610   2.973   5.192 -0.2465 -0.9094  0.4136
29344WAT    EPW19183  -3.584   2.974   5.275 -0.1335 -0.2770  0.3803
29345WAT      O19184   6.251   1.518   4.090 -0.5427  0.0813 -0.4240
29345WAT     H119185   6.304   1.589   4.125 -0.8715  0.0679  0.1258
29345WAT     H219186   6.303   1.480   4.020  0.1018  0.1643  0.0079
29345WAT    EPW19187   6.265   1.522   4.086 -0.5012  0.0904 -0.2947
29346WAT      O19188   0.281   6.651   1.455  0.0562  0.6010 -0.2434
29346WAT     H119189   0.350   6.608   1.506 -1.4822  0.3350  1.7096
29346WAT     H219190   0.216   6.582   1.440 -0.6611  1.3018 -0.4250
29346WAT    EPW19191   0.282   6.636   1.459 -0.2413  0.6583 -0.0098
29347WAT      O19192  -2.668   9.858   8.540 -0.0898  0.5700 -0.9861
29347WAT     H119193  -2.682   9.768   8.509 -1.7728  0.2415  0.5549
29347WAT     H219194  -2.701   9.857   8.630 -0.6146  2.8650 -1.1027
29347WAT    EPW19195  -2.674   9.846   8.548 -0.3810  0.8297 -0.7982
29348WAT      O19196  -0.670   6.560   5.479 -0.3647  0.1647  0.6627
29348WAT     H119197  -0.692   6.466   5.485  0.0565  0.0330  0.1875
29348WAT     H219198  -0.599   6.572   5.541 -0.8027  0.2899  1.1424
29348WAT    EPW19199  -0.664   6.549   5.488 -0.3669  0.1638  0.6635
29349WAT      O19200  -5.459   5.830   8.606 -0.4416 -0.3788 -0.4475
29349WAT     H119201  -5.421   5.773   8.539 -0.0672  0.2974 -0.8251
29349WAT     H219202  -5.548   5.796   8.618 -1.7388  1.4054 -3.7028
29349WAT    EPW19203  -5.466   5.818   8.599 -0.5634 -0.0541 -0.9270
29350WAT      O19204   5.216   2.182   2.922  0.0088  0.2410 -0.1402
29350WAT     H119205   5.310   2.165   2.918  0.0176 -0.3497  1.6669
29350WAT     H219206   5.189   2.191   2.831  1.5556 -1.0321 -0.7637
29350WAT    EPW19207   5.225   2.181   2.910  0.2139 -0.0048  0.0160
29351WAT      O19208  -1.014   5.303   0.908  0.0483 -0.2103 -0.1354
29351WAT     H119209  -0.928   5.265   0.886  0.0841 -1.4803  1.9908
29351WAT     H219210  -1.045   5.251   0.982 -2.6623  0.1273 -0.9244
29351WAT    EPW19211  -1.006   5.291   0.915 -0.3045 -0.3333  0.0409
29352WAT      O19212  -0.647   8.226   8.668  0.0650 -0.6781  0.5655
29352WAT     H119213  -0.730   8.253   8.630  1.0429  0.4394 -0.8959
29352WAT     H219214  -0.669   8.154   8.727 -2.1637  0.7353  1.5706
29352WAT    EPW19215  -0.661   8.220   8.671 -0.1000 -0.3443  0.5054
29353WAT      O19216   2.080   6.671   2.972 -0.4588  0.7827 -0.0504
29353WAT     H119217   2.047   6.734   3.036 -0.5815  1.7210 -1.0133
29353WAT     H219218   2.142   6.617   3.022 -0.3583  1.6561  0.8040
29353WAT    EPW19219   2.084   6.672   2.987 -0.4617  1.0219 -0.0647
29354WAT      O19220  -1.104   5.592   6.971 -0.0587  0.0181  0.1881
29354WAT     H119221  -1.177   5.531   6.981  0.7306 -1.3221 -1.5262
29354WAT     H219222  -1.111   5.623   6.881  3.4336 -3.0359 -1.4052
29354WAT    EPW19223  -1.114   5.588   6.960  0.5060 -0.5612 -0.2480
29355WAT      O19224   2.526   1.973   3.873  0.0038  0.3302  0.1841
29355WAT     H119225   2.519   2.061   3.910  0.6859 -0.4485  2.2847
29355WAT     H219226   2.599   1.933   3.920 -0.2647 -1.3564 -0.7667
29355WAT    EPW19227   2.535   1.980   3.884  0.0583  0.0051  0.3358
29356WAT      O19228   3.808   0.044   6.834  0.0808  0.1575  0.7361
29356WAT     H119229   3.770   0.098   6.903  1.3122  0.7792  0.9478
29356WAT     H219230   3.794   0.094   6.754  0.2178  0.2596  0.7759
29356WAT    EPW19231   3.801   0.058   6.833  0.2613  0.2530  0.7694
29357WAT      O19232   2.444   6.555   6.034 -0.5217  0.5216  0.1372
29357WAT     H119233   2.474   6.464   6.043 -1.5787  0.1746  0.2966
29357WAT     H219234   2.365   6.559   6.087 -0.9534  1.3154 -0.5493
29357WAT    EPW19235   2.438   6.544   6.043 -0.7181  0.5805  0.0677
29358WAT      O19236   1.028   3.462   2.854 -0.2694  0.1218  0.0959
29358WAT     H119237   1.033   3.545   2.901  1.2583 -1.0296  2.1146
29358WAT     H219238   0.987   3.402   2.916  1.8580 -1.4575  0.1014
29358WAT    EPW19239   1.024   3.465   2.868  0.2127 -0.2384  0.3629
29359WAT      O19240   0.581   0.845   2.571 -0.6804  0.0008 -0.9297
29359WAT     H119241   0.539   0.778   2.625 -1.2427  1.4382  0.5030
29359WAT     H219242   0.664   0.806   2.545 -0.9875 -1.2553 -0.1202
29359WAT    EPW19243   0.587   0.831   2.575 -0.7951  0.0247 -0.6341
29360WAT      O19244   0.760   7.052   3.630  0.3723 -0.2108 -0.3797
29360WAT     H119245   0.670   7.048   3.663  0.1753 -0.4632 -0.9330
29360WAT     H219246   0.750   7.085   3.541  0.8838  0.3432 -0.2380
29360WAT    EPW19247   0.747   7.056   3.623  0.4137 -0.1709 -0.4339
29361WAT      O19248   4.983   8.396   2.896  0.4687  0.2843 -0.0082
29361WAT     H119249   4.954   8.432   2.980 -3.2143 -1.2713 -0.4413
29361WAT     H219250   5.010   8.306   2.917 -2.4232 -0.8187 -0.6591
29361WAT    EPW19251   4.983   8.389   2.910 -0.3984 -0.0663 -0.1512
29362WAT      O19252   3.623   4.828   8.401  0.0870 -0.3715  0.1538
29362WAT     H119253   3.651   4.742   8.369  1.9493 -0.0942  0.8879
29362WAT     H219254   3.596   4.813   8.491  0.3992 -0.2016  0.2774
29362WAT    EPW19255   3.623   4.814   8.409  0.3737 -0.3126  0.2670
29363WAT      O19256   0.408   7.501   8.093 -0.6020  0.0978  0.6083
29363WAT     H119257   0.383   7.424   8.144 -0.0172 -0.6838 -0.2734
29363WAT     H219258   0.501   7.512   8.110  0.1047 -1.4020 -1.8246
29363WAT    EPW19259   0.417   7.492   8.102 -0.4317 -0.2031  0.1712
29364WAT      O19260  -1.091   3.058   8.088  0.4771 -0.5621 -0.3671
29364WAT     H119261  -1.043   2.983   8.123  1.0100  0.2308  0.6526
29364WAT     H219262  -1.177   3.022   8.064  0.9156 -1.6066 -0.4516
29364WAT    EPW19263  -1.096   3.043   8.089  0.6052 -0.5953 -0.2437
29365WAT      O19264   3.180   7.082   3.699 -0.4581 -0.1826 -0.3909
29365WAT     H119265   3.155   7.001   3.655  3.4073 -1.8733  0.1433
29365WAT     H219266   3.235   7.128   3.636 -3.0041  2.4874 -0.8974
29365WAT    EPW19267   3.184   7.078   3.685 -0.2841 -0.0534 -0.3872
29366WAT      O19268   1.156   9.147   2.190 -0.0972  0.8710  0.3779
29366WAT     H119269   1.072   9.166   2.149  0.2163  3.2054  0.6560
29366WAT     H219270   1.154   9.194   2.273  0.4646 -1.2890  1.6941
29366WAT    EPW19271   1.145   9.156   2.195  0.0182  0.8941  0.5881
29367WAT      O19272   6.352   1.009   0.483 -0.6489 -0.2370 -0.6046
29367WAT     H119273   6.305   1.029   0.564  2.5802  2.1600  0.8943
29367WAT     H219274   6.372   0.916   0.490 -0.7616 -0.1631  1.2210
29367WAT    EPW19275   6.348   0.999   0.495 -0.2379  0.0889 -0.1661
29368WAT      O19276  -0.796   0.608   3.391  0.6218  0.1718  0.0273
29368WAT     H119277  -0.701   0.619   3.400  0.7487  0.4041 -1.4654
29368WAT     H219278  -0.831   0.697   3.399  0.4649  0.0387  1.0175
29368WAT    EPW19279  -0.788   0.622   3.393  0.6179  0.1848 -0.0390
29369WAT      O19280  -0.471   2.988   4.186  0.1238 -0.1853  0.3015
29369WAT     H119281  -0.428   3.054   4.241  1.6105 -0.1925 -0.8009
29369WAT     H219282  -0.463   2.907   4.236 -0.6143  0.2107  1.1029
29369WAT    EPW19283  -0.464   2.986   4.200  0.2225 -0.1339  0.2618
29370WAT      O19284   3.401   7.112   5.229  0.3925  0.4297  0.1059
29370WAT     H119285   3.440   7.086   5.145 -1.4895  1.2307 -1.0726
29370WAT     H219286   3.379   7.204   5.217 -0.5166  0.3725  1.2334
29370WAT    EPW19287   3.403   7.120   5.216  0.0243  0.5276  0.0992
29371WAT      O19288   5.832   1.176   2.703  0.1414 -0.6328 -0.0573
29371WAT     H119289   5.756   1.158   2.649  0.9726 -2.2914 -0.7521
29371WAT     H219290   5.851   1.269   2.689 -1.3798 -0.3417 -0.3130
29371WAT    EPW19291   5.824   1.186   2.694  0.0503 -0.8131 -0.1826
29372WAT      O19292  -0.631   2.501   8.571 -0.1249  0.2384 -0.3580
29372WAT     H119293  -0.714   2.466   8.538 -0.3938  1.2012 -0.7241
29372WAT     H219294  -0.655   2.583   8.613  0.4667 -0.1132  0.7145
29372WAT    EPW19295  -0.645   2.507   8.572 -0.0823  0.3189 -0.2651
29373WAT      O19296  -2.283   0.857   3.938 -1.0517  0.5728 -0.3375
29373WAT     H119297  -2.234   0.808   3.872 -2.2423  1.1357 -1.7082
29373WAT     H219298  -2.260   0.816   4.021 -1.9962 -2.3774 -1.3868
29373WAT    EPW19299  -2.274   0.845   3.940 -1.3334  0.2579 -0.6566
29374WAT      O19300   5.288   6.865   0.074 -0.1184 -0.2239  0.1747
29374WAT     H119301   5.294   6.954   0.041 -0.8034 -0.6732 -1.2337
29374WAT     H219302   5.312   6.872   0.167 -0.3183  1.4345  0.1265
29374WAT    EPW19303   5.292   6.878   0.082 -0.2351 -0.0644 -0.0174
29375WAT      O19304   6.991   2.815   0.978 -0.2508  1.0706 -0.0784
29375WAT     H119305   7.072   2.777   0.944 -0.1360 -2.6539  3.4791
29375WAT     H219306   6.948   2.854   0.902  3.3071  0.2624 -2.7447
29375WAT    EPW19307   6.996   2.815   0.964  0.2334  0.4728  0.0391
29376WAT      O19308   0.384   2.799   6.525  0.0439 -0.0323 -0.2493
29376WAT     H119309   0.296   2.832   6.538  0.2189  0.6475 -0.7474
29376WAT     H219310   0.385   2.768   6.434  1.3209  3.3117 -1.5301
29376WAT    EPW19311   0.373   2.799   6.515  0.2354  0.4984 -0.4840
29377WAT      O19312   0.381   7.963   5.794 -0.1197  0.0299 -0.5028
29377WAT     H119313   0.358   8.045   5.750 -1.6483  0.1562  0.4493
29377WAT     H219314   0.393   7.988   5.886  1.4607 -0.4870 -0.5405
29377WAT    EPW19315   0.380   7.977   5.801 -0.1128 -0.0215 -0.3822
29378WAT      O19316   1.498   6.363   6.457 -0.3463 -0.5374 -0.0255
29378WAT     H119317   1.592   6.344   6.453 -0.1064 -1.0133  4.1206
29378WAT     H219318   1.483   6.425   6.386  2.9895 -0.7950 -1.1114
29378WAT    EPW19319   1.508   6.368   6.447  0.1253 -0.6342  0.3781
29379WAT      O19320   3.700   6.929   3.023  0.5405  0.6464 -0.5742
29379WAT     H119321   3.673   6.959   2.936 -1.3706 -1.2176 -0.6899
29379WAT     H219322   3.646   6.853   3.041  0.3735  1.3362  2.5579
29379WAT    EPW19323   3.689   6.923   3.014  0.2663  0.4916 -0.1763
29380WAT      O19324   4.856   2.412   0.842 -0.0344 -0.4271 -0.2454
29380WAT     H119325   4.791   2.416   0.911 -2.1058 -3.0778 -1.8516
29380WAT     H219326   4.827   2.476   0.777 -0.6158 -1.0179 -0.5821
29380WAT    EPW19327   4.844   2.421   0.843 -0.3841 -0.8547 -0.5017
29381WAT      O19328   0.554   1.563   6.514  0.2999 -0.2271  0.0115
29381WAT     H119329   0.473   1.595   6.474 -0.0672  0.6309  1.3636
29381WAT     H219330   0.562   1.614   6.595  4.0350  2.2544 -1.6588
29381WAT    EPW19331   0.544   1.574   6.520  0.7442  0.2133 -0.0305
29382WAT      O19332  -4.212   4.720   6.840  0.4894  0.1784  0.2513
29382WAT     H119333  -4.218   4.629   6.867  0.1561  0.0495 -0.2459
29382WAT     H219334  -4.291   4.761   6.877  1.3290  0.5909  1.6625
29382WAT    EPW19335  -4.223   4.714   6.849  0.5562  0.2160  0.3719
29383WAT      O19336   3.590   4.373   4.796  0.1424 -0.4644  0.5767
29383WAT     H119337   3.539   4.453   4.785  0.8699  0.0255  0.7465
29383WAT     H219338   3.576   4.349   4.888 -0.1606 -0.5964  0.4981
29383WAT    EPW19339   3.581   4.380   4.807  0.1984 -0.4172  0.5889
29384WAT      O19340   0.431   5.737   2.715 -0.5251 -0.4064  0.0953
29384WAT     H119341   0.496   5.668   2.726 -1.3988 -1.2255  0.2360
29384WAT     H219342   0.474   5.816   2.747  0.0865 -1.1068  1.0450
29384WAT    EPW19343   0.445   5.738   2.721 -0.5597 -0.6070  0.2390
29385WAT      O19344  -2.050  10.124   4.903  0.4513 -0.1336  0.1641
29385WAT     H119345  -2.029  10.213   4.931  1.5419 -0.5624  0.7328
29385WAT     H219346  -1.994  10.068   4.956 -1.3129 -1.2687  0.8953
29385WAT    EPW19347  -2.040  10.129   4.913  0.3624 -0.3395  0.3357
29386WAT      O19348  -0.994   0.930   6.100 -0.1010  0.2489 -0.4834
29386WAT     H119349  -0.909   0.885   6.106 -0.3250 -0.1853 -0.4758
29386WAT     H219350  -1.035   0.892   6.023 -1.0199 -0.8470  0.5068
29386WAT    EPW19351  -0.988   0.919   6.091 -0.2518  0.0471 -0.3517
29387WAT      O19352   2.417   1.303   6.908  0.7703 -0.2284  0.4131
29387WAT     H119353   2.419   1.398   6.898  0.0030  0.0150  2.1093
29387WAT     H219354   2.471   1.286   6.985  1.7295 -1.2825 -0.4630
29387WAT    EPW19355   2.424   1.313   6.917  0.7957 -0.3353  0.5214
29388WAT      O19356  -3.101   7.646   4.889  0.1595 -0.4737 -0.0587
29388WAT     H119357  -3.099   7.570   4.831  0.5256 -0.1998 -0.4052
29388WAT     H219358  -3.131   7.610   4.973 -0.0838 -0.9244 -0.3277
29388WAT    EPW19359  -3.105   7.631   4.893  0.1757 -0.4969 -0.1400
29389WAT      O19360   1.670   4.401   6.353 -0.0240  0.1362  0.5781
29389WAT     H119361   1.609   4.360   6.291  0.0306 -1.9136  1.8049
29389WAT     H219362   1.737   4.335   6.368  3.0455  2.5222 -1.2317
29389WAT    EPW19363   1.671   4.387   6.346  0.3880  0.1805  0.5012
29390WAT      O19364  -6.236  10.155   5.041  0.7181  0.6782 -1.0015
29390WAT     H119365  -6.184  10.228   5.074 -0.6633  1.2895 -0.1012
29390WAT     H219366  -6.186  10.122   4.966  3.1422  0.2575  0.7085
29390WAT    EPW19367  -6.223  10.160   5.035  0.8557  0.7033 -0.6571
29391WAT      O19368  -2.153   7.454   2.361  0.3053 -0.3035  0.4461
29391WAT     H119369  -2.122   7.535   2.320  0.6286 -0.3661  0.5679
29391WAT     H219370  -2.249   7.460   2.355  0.3442 -0.4895 -0.6715
29391WAT    EPW19371  -2.162   7.465   2.355  0.3531 -0.3362  0.3147
29392WAT      O19372  -2.427   3.243   5.607  0.4069 -0.4431 -0.1001
29392WAT     H119373  -2.520   3.266   5.609  0.9542  2.2302 -1.0353
29392WAT     H219374  -2.401   3.255   5.516  1.8841 -0.0371  0.3389
29392WAT    EPW19375  -2.436   3.248   5.595  0.6739 -0.0370 -0.1657
29393WAT      O19376   0.343   5.662   4.169  0.1506  0.0473 -0.7780
29393WAT     H119377   0.326   5.739   4.115  0.8129  1.1203  0.4702
29393WAT     H219378   0.380   5.698   4.250 -2.6920 -1.3040  1.2692
29393WAT    EPW19379   0.346   5.677   4.173 -0.1370  0.0105 -0.3433
29394WAT      O19380   1.814   2.424   7.783 -0.1704 -0.2692 -0.6633
29394WAT     H119381   1.793   2.469   7.865 -0.2535 -0.6909 -0.4496
29394WAT     H219382   1.777   2.336   7.794  1.1313 -0.8164 -0.5465
29394WAT    EPW19383   1.806   2.418   7.795 -0.0097 -0.3970 -0.6196
29395WAT      O19384   4.642   7.878   4.199 -0.0330 -0.5672  0.3093
29395WAT     H119385   4.573   7.943   4.185  0.4417 -0.5342 -2.2739
29395WAT     H219386   4.719   7.930   4.221 -0.1808 -0.4183  0.4845
29395WAT    EPW19387   4.643   7.893   4.200  0.0100 -0.5431 -0.0083
29396WAT      O19388  -4.873   7.942   4.360 -0.3669 -0.3447  0.5101
29396WAT     H119389  -4.860   8.031   4.394 -1.1137 -0.0922  0.1575
29396WAT     H219390  -4.834   7.885   4.426  2.6316  0.3294 -0.5361
29396WAT    EPW19391  -4.866   7.947   4.373 -0.0699 -0.2224  0.3257
29397WAT      O19392   1.468   4.504   7.026 -0.5919  0.9074 -0.4913
29397WAT     H119393   1.546   4.556   7.045 -0.5858  0.9688 -0.6839
29397WAT     H219394   1.463   4.441   7.098  0.4570 -0.0484 -1.2220
29397WAT    EPW19395   1.478   4.503   7.038 -0.4527  0.7894 -0.6130
29398WAT      O19396   0.743   9.825   1.483 -0.2994 -0.1578  0.1875
29398WAT     H119397   0.692   9.905   1.495  0.3173  0.1634  0.7185
29398WAT     H219398   0.782   9.834   1.396 -0.4517 -0.0060  0.1350
29398WAT    EPW19399   0.741   9.836   1.473 -0.2381 -0.0949  0.2506
29399WAT      O19400  -1.849   5.567   8.697  0.1180  0.3076  0.6694
29399WAT     H119401  -1.906   5.534   8.766 -1.1211 -0.3437 -0.6100
29399WAT     H219402  -1.837   5.660   8.717 -1.9454  0.6118  0.6270
29399WAT    EPW19403  -1.855   5.575   8.708 -0.3176  0.2618  0.4950
29400WAT      O19404   3.722   2.276   5.840  0.1537 -0.2417 -0.1468
29400WAT     H119405   3.672   2.333   5.898  2.6085  1.2612  0.6391
29400WAT     H219406   3.681   2.190   5.850 -1.8698  0.7700  0.8488
29400WAT    EPW19407   3.710   2.272   5.849  0.2105  0.0900  0.0880
29401WAT      O19408   8.860   3.497   0.398  0.7194 -0.7121 -0.1476
29401WAT     H119409   8.915   3.490   0.319  2.8195 -0.7885  1.2411
29401WAT     H219410   8.779   3.537   0.366  1.2436 -1.3094 -2.4506
29401WAT    EPW19411   8.857   3.501   0.383  1.0657 -0.8010 -0.2682
29402WAT      O19412   4.249   0.983   7.732  0.0286 -0.1284  0.2074
29402WAT     H119413   4.268   0.912   7.671  0.6100  1.0804 -1.0788
29402WAT     H219414   4.171   0.955   7.779 -1.5922 -0.3095 -2.4270
29402WAT    EPW19415   4.241   0.970   7.730 -0.1082  0.0071 -0.3097
29403WAT      O19416   4.437   1.472   0.093  0.1772  0.5945  0.5601
29403WAT     H119417   4.353   1.494   0.052  0.0893 -2.4726 -1.2123
29403WAT     H219418   4.416   1.462   0.186 -0.8140  2.3791  0.5760
29403WAT    EPW19419   4.423   1.473   0.100  0.0350  0.4253  0.3284
29404WAT      O19420   3.648   9.061   3.880 -0.4341 -0.2021  0.3179
29404WAT     H119421   3.671   9.141   3.832  0.6746  0.1984  1.4629
29404WAT     H219422   3.723   9.003   3.867 -0.9893 -0.8489 -0.0391
29404WAT    EPW19423   3.661   9.064   3.872 -0.3611 -0.2346  0.4219
29405WAT      O19424   3.927   1.191   2.434 -0.4837  0.1336  0.0814
29405WAT     H119425   3.863   1.120   2.426 -0.4017  0.2584 -2.0466
29405WAT     H219426   3.874   1.269   2.450 -0.6061 -0.2660  1.8670
29405WAT    EPW19427   3.912   1.192   2.435 -0.4890  0.0973  0.0362
29406WAT      O19428   2.404   5.413   0.217  0.2503  0.4080 -0.4276
29406WAT     H119429   2.412   5.500   0.256  1.9757  0.4915 -0.8805
29406WAT     H219430   2.327   5.420   0.161 -1.4803  0.6826  1.8374
29406WAT    EPW19431   2.395   5.426   0.215  0.2496  0.4551 -0.1886
29407WAT      O19432   2.658   2.764   7.795  0.0889  0.4659  0.7164
29407WAT     H119433   2.663   2.820   7.873 -0.5449 -0.2991  1.3251
29407WAT     H219434   2.674   2.676   7.828  0.9645  0.2551 -0.2130
29407WAT    EPW19435   2.661   2.760   7.810  0.1209  0.3372  0.6740
29408WAT      O19436  -0.862   2.764   1.293 -0.2058  0.2656 -0.5300
29408WAT     H119437  -0.938   2.788   1.347 -0.5388  0.3701 -1.0401
29408WAT     H219438  -0.789   2.761   1.355 -0.6982 -0.2373  0.0460
29408WAT    EPW19439  -0.862   2.767   1.308 -0.3147  0.2130 -0.5213
29409WAT      O19440  -0.850   0.777   8.961 -0.6925 -0.0959 -0.3461
29409WAT     H119441  -0.811   0.691   8.977 -0.5506  0.0222 -0.0566
29409WAT     H219442  -0.936   0.758   8.924 -0.2030 -0.3667 -1.4064
29409WAT    EPW19443  -0.856   0.763   8.958 -0.6093 -0.1161 -0.4477
29410WAT      O19444   3.565   7.595   4.145  0.6853 -0.6746 -0.7622
29410WAT     H119445   3.514   7.583   4.225  0.8182  0.0987 -0.5518
29410WAT     H219446   3.519   7.543   4.079  0.7942 -1.6337 -0.0952
29410WAT    EPW19447   3.552   7.587   4.147  0.7173 -0.6990 -0.6464
29411WAT      O19448   1.914   0.828   1.153 -0.1559 -0.1226 -0.0432
29411WAT     H119449   1.872   0.901   1.198 -1.8803 -0.9257 -0.3036
29411WAT     H219450   2.006   0.855   1.147 -1.1493  3.5099 -2.8629
29411WAT    EPW19451   1.921   0.841   1.158 -0.5144  0.2505 -0.4494
29412WAT      O19452   6.885   0.224   4.849 -0.2294 -0.3022 -0.2419
29412WAT     H119453   6.824   0.172   4.901 -0.5900  0.6893  0.3505
29412WAT     H219454   6.837   0.304   4.827  1.1870  1.0145  1.1986
29412WAT    EPW19455   6.871   0.228   4.853 -0.0904  0.0023  0.0265
29413WAT      O19456   3.100   4.426   0.184  0.0145  0.6899 -0.3766
29413WAT     H119457   3.158   4.355   0.213 -4.9277 -2.8227  2.2947
29413WAT     H219458   3.114   4.496   0.247  0.3796 -0.6625  1.1063
29413WAT    EPW19459   3.110   4.426   0.196 -0.5891  0.0484  0.1713
29414WAT      O19460   4.662   6.281   2.807 -0.0960  0.2627 -0.2724
29414WAT     H119461   4.620   6.272   2.893  0.5940 -0.2283  0.0263
29414WAT     H219462   4.592   6.263   2.744 -0.0944 -1.8384  0.2291
29414WAT    EPW19463   4.647   6.277   2.810 -0.0048 -0.0792 -0.1669
29415WAT      O19464  -5.683   8.899   6.250  0.9961 -0.4454  0.2640
29415WAT     H119465  -5.736   8.932   6.177  2.7661  0.5258 -0.6387
29415WAT     H219466  -5.652   8.814   6.220  1.5796 -0.1248 -0.0419
29415WAT    EPW19467  -5.686   8.892   6.237  1.3065 -0.2751  0.1047
29416WAT      O19468   5.824   5.504   2.052 -0.5730 -0.5503  0.1700
29416WAT     H119469   5.811   5.574   2.116  1.2939 -0.3009  0.3345
29416WAT     H219470   5.876   5.438   2.099 -2.4829 -2.1992  0.0947
29416WAT    EPW19471   5.829   5.504   2.066 -0.5789 -0.7348  0.1817
29417WAT      O19472  -2.878   7.339   7.597  0.4170 -0.5012 -0.0250
29417WAT     H119473  -2.937   7.291   7.655 -0.8591  1.3569  0.2909
29417WAT     H219474  -2.888   7.295   7.512 -2.2728  0.3223 -0.2388
29417WAT    EPW19475  -2.887   7.327   7.593 -0.1061 -0.1476 -0.0117
29418WAT      O19476  -2.099   4.090   4.233 -0.1667  0.3763  0.3086
29418WAT     H119477  -2.129   4.082   4.324  0.7956  1.6401  0.7723
29418WAT     H219478  -2.075   4.183   4.225  0.1065  0.1958 -1.1381
29418WAT    EPW19479  -2.100   4.101   4.244 -0.0037  0.5193  0.1791
29419WAT      O19480   3.270   7.061   7.706  0.0526  0.6102  0.1754
29419WAT     H119481   3.360   7.032   7.687  1.1733  3.3124  0.8834
29419WAT     H219482   3.250   7.021   7.791  0.8104  0.4179  0.2747
29419WAT    EPW19483   3.280   7.052   7.715  0.3004  0.9413  0.2818
29420WAT      O19484  -5.891   4.482   7.616 -0.7172  0.1416  0.4434
29420WAT     H119485  -5.927   4.537   7.685 -0.6017 -0.5016  1.0202
29420WAT     H219486  -5.967   4.457   7.563 -1.2365 -1.5388  1.8790
29420WAT    EPW19487  -5.906   4.486   7.618 -0.7703 -0.1650  0.7088
29421WAT      O19488  -0.310   8.838   1.133 -0.3020 -0.7828 -0.2542
29421WAT     H119489  -0.323   8.760   1.188 -0.6894  1.1822  2.6596
29421WAT     H219490  -0.216   8.855   1.138 -0.5794  0.5183  1.6066
29421WAT    EPW19491  -0.300   8.830   1.141 -0.3897 -0.3524  0.3755
29422WAT      O19492   5.182   5.024   2.335 -0.5175  0.0769  0.3007
29422WAT     H119493   5.105   4.967   2.333 -0.5599  0.1412 -0.3681
29422WAT     H219494   5.182   5.062   2.422 -1.1478 -0.0607  0.3658
29422WAT    EPW19495   5.172   5.022   2.346 -0.6063  0.0675  0.2210
29423WAT      O19496   0.362   2.283   3.058 -0.6330  0.2062  0.6302
29423WAT     H119497   0.297   2.341   3.018  0.4005 -0.5638 -2.4819
29423WAT     H219498   0.427   2.342   3.096 -2.5096  0.9772  2.9140
29423WAT    EPW19499   0.362   2.298   3.058 -0.7442  0.2064  0.5209
29424WAT      O19500   5.823   3.835   1.143  0.0658  1.0180  0.0909
29424WAT     H119501   5.753   3.786   1.101 -0.5258  1.3569  0.6553
29424WAT     H219502   5.790   3.925   1.148  1.4547  1.6825 -1.6504
29424WAT    EPW19503   5.809   3.840   1.138  0.1709  1.1504 -0.0644
29425WAT      O19504  -2.595   1.889   7.948 -0.3071 -0.1604  0.6216
29425WAT     H119505  -2.628   1.942   8.021  0.4636  2.5584 -0.8409
29425WAT     H219506  -2.672   1.872   7.894 -0.4264  0.4533  0.5814
29425WAT    EPW19507  -2.609   1.894   7.950 -0.2211  0.2791  0.4237
29426WAT      O19508   0.582   4.820   2.725  0.5246  0.0937 -0.0170
29426WAT     H119509   0.532   4.794   2.648 -0.9912  0.9188  0.6516
29426WAT     H219510   0.532   4.785   2.799  0.1559  2.1052  0.7433
29426WAT    EPW19511   0.569   4.812   2.725  0.2761  0.4678  0.1714
29427WAT      O19512  -3.600   2.827   7.207 -0.1035  0.1498 -1.0603
29427WAT     H119513  -3.605   2.866   7.294  1.9640 -0.2965 -0.6716
29427WAT     H219514  -3.663   2.876   7.155  0.5873  2.3338  0.0054
29427WAT    EPW19515  -3.609   2.839   7.212  0.2602  0.3790 -0.8683
29428WAT      O19516  -3.729   6.663   7.097 -0.0825  0.2535 -0.5322
29428WAT     H119517  -3.767   6.589   7.145  1.4806 -0.0522  0.2866
29428WAT     H219518  -3.755   6.648   7.006 -1.9943  0.1298 -0.0085
29428WAT    EPW19519  -3.738   6.651   7.091 -0.1285  0.1969 -0.3550
29429WAT      O19520   1.326   0.918   0.110 -0.6394  0.3664 -0.1751
29429WAT     H119521   1.282   0.954   0.187  0.1401 -2.6199  1.8542
29429WAT     H219522   1.357   0.832   0.138  1.4574 -0.0642 -3.2660
29429WAT    EPW19523   1.324   0.911   0.124 -0.2600 -0.0843 -0.3151
29430WAT      O19524  -2.659   6.615   1.900 -0.2801  0.5276 -0.4371
29430WAT     H119525  -2.632   6.616   1.809  0.5059 -2.0509 -0.3067
29430WAT     H219526  -2.703   6.699   1.913  0.2385  1.2677 -2.9549
29430WAT    EPW19527  -2.661   6.626   1.890 -0.1080  0.2851 -0.7519
29431WAT      O19528  -3.794   9.149   2.300 -0.1966  0.0317 -0.6358
29431WAT     H119529  -3.811   9.192   2.384  2.2130  0.2073 -0.1684
29431WAT     H219530  -3.862   9.082   2.293 -1.2919  0.9361  0.7673
29431WAT    EPW19531  -3.806   9.146   2.310 -0.0232  0.1736 -0.3891
29432WAT      O19532   1.157   3.691   0.696 -0.7915 -0.4586 -0.5527
29432WAT     H119533   1.095   3.631   0.653 -0.1153 -1.0118 -0.7738
29432WAT     H219534   1.241   3.672   0.654 -0.2423 -0.5477  0.5630
29432WAT    EPW19535   1.160   3.680   0.685 -0.6299 -0.5434 -0.4347
29433WAT      O19536   4.556   0.215   5.804 -0.1249  0.4619  0.0392
29433WAT     H119537   4.631   0.248   5.754 -0.1768  0.0389 -0.3153
29433WAT     H219538   4.506   0.294   5.826  0.5672  0.7784  0.5180
29433WAT    EPW19539   4.559   0.230   5.801 -0.0403  0.4478  0.0558
29434WAT      O19540   6.699   1.444   5.844 -0.3947  0.1503  0.0876
29434WAT     H119541   6.730   1.362   5.884 -0.2783 -0.5605 -1.3793
29434WAT     H219542   6.768   1.467   5.781 -0.3410  1.4937  0.6133
29434WAT    EPW19543   6.712   1.436   5.841 -0.3724  0.2337 -0.0367
29435WAT      O19544  -1.445   8.101   4.847  0.0616 -0.0160 -0.2282
29435WAT     H119545  -1.414   8.119   4.936 -1.4446 -1.6453  0.6864
29435WAT     H219546  -1.478   8.011   4.850  0.7538 -0.4268 -2.6888
29435WAT    EPW19547  -1.446   8.092   4.859 -0.0458 -0.2851 -0.4323
29436WAT      O19548   1.721   0.865   5.651  0.4767 -0.2783 -0.0022
29436WAT     H119549   1.664   0.803   5.697  0.5238 -1.2463 -1.1871
29436WAT     H219550   1.756   0.814   5.578  0.1244  1.2906 -1.3121
29436WAT    EPW19551   1.718   0.850   5.648  0.4365 -0.1990 -0.3314
29437WAT      O19552  -0.275   5.306   7.542  0.4218 -0.3161 -0.0299
29437WAT     H119553  -0.193   5.347   7.516  0.1325  0.6144  0.4791
29437WAT     H219554  -0.253   5.256   7.621  0.3328  0.6370  0.6154
29437WAT    EPW19555  -0.261   5.305   7.549  0.3719 -0.0677  0.1223
29438WAT      O19556  -1.152   7.824   5.499  0.3769 -0.0452 -0.0433
29438WAT     H119557  -1.076   7.875   5.527  0.8347  0.4602 -2.0045
29438WAT     H219558  -1.122   7.733   5.502  0.6539  0.0578  0.3503
29438WAT    EPW19559  -1.138   7.819   5.503  0.4738  0.0350 -0.2499
29439WAT      O19560   7.610   5.503   1.789 -0.3535  0.1893 -0.0540
29439WAT     H119561   7.622   5.410   1.804 -0.0123  0.0282 -1.2904
29439WAT     H219562   7.631   5.544   1.874  1.8395 -0.6534 -0.1427
29439WAT    EPW19563   7.614   5.496   1.802 -0.0191  0.0565 -0.2288
29440WAT      O19564   4.029   6.669   3.885  0.2941 -0.4678 -0.0297
29440WAT     H119565   3.987   6.701   3.965  1.8977  2.8860 -0.3596
29440WAT     H219566   3.983   6.714   3.815  0.2614 -1.7724 -0.8669
29440WAT    EPW19567   4.017   6.680   3.887  0.5014 -0.1976 -0.1836
29441WAT      O19568  -3.275   1.722   6.962  0.3283  0.0398 -0.3367
29441WAT     H119569  -3.327   1.657   6.914 -2.3646  1.2906  0.6834
29441WAT     H219570  -3.282   1.801   6.908 -3.6762  1.7969  2.3103
29441WAT    EPW19571  -3.283   1.724   6.948 -0.5550  0.4365  0.1469
29442WAT      O19572   2.066   0.562   2.083 -0.7374  0.1260  0.5835
29442WAT     H119573   2.120   0.540   2.159 -0.1105  2.0839  0.7735
29442WAT     H219574   2.085   0.654   2.066  0.0596 -0.5132 -2.7385
29442WAT    EPW19575   2.075   0.571   2.091 -0.5496  0.2999  0.1704
29443WAT      O19576   1.028   1.692   6.815  0.0131  0.0492  0.0813
29443WAT     H119577   1.003   1.752   6.745 -1.7027 -1.5679 -0.8172
29443WAT     H219578   1.115   1.661   6.791  0.0580  0.6362 -0.5376
29443WAT    EPW19579   1.036   1.695   6.803 -0.2073 -0.0866 -0.1190
29444WAT      O19580   1.329   1.852   7.225  0.3420 -1.2002 -0.0312
29444WAT     H119581   1.404   1.911   7.222  1.3085 -2.3690  0.3286
29444WAT     H219582   1.322   1.817   7.136 -1.1264  0.4825 -0.6326
29444WAT    EPW19583   1.338   1.855   7.213  0.2759 -1.1324 -0.0632
29445WAT      O19584  -5.692   5.055   6.653  0.0152 -0.2507  0.4772
29445WAT     H119585  -5.658   4.999   6.582 -0.3363  0.9503 -0.6825
29445WAT     H219586  -5.774   5.089   6.618  1.1467  2.5261  0.3044
29445WAT    EPW19587  -5.698   5.052   6.639  0.1180  0.2739  0.3014
29446WAT      O19588   1.242   8.944   5.935  0.6308  0.9182 -0.0603
29446WAT     H119589   1.224   8.897   5.853 -0.4689  1.2506 -0.0188
29446WAT     H219590   1.310   8.891   5.977  1.1357  0.6764 -1.1242
29446WAT    EPW19591   1.249   8.931   5.930  0.5524  0.9298 -0.1953
29447WAT      O19592  -2.099   2.663   7.416  0.0742 -0.1437 -0.4600
29447WAT     H119593  -2.051   2.644   7.336  0.5478  1.1048 -0.4902
29447WAT     H219594  -2.060   2.605   7.482  0.8093 -0.0067 -0.7645
29447WAT    EPW19595  -2.087   2.653   7.414  0.2337  0.0390 -0.5043
29448WAT      O19596   5.796   4.500   3.782  0.0927  0.0597  0.5666
29448WAT     H119597   5.761   4.430   3.727 -1.1522  2.1172 -1.4226
29448WAT     H219598   5.721   4.557   3.799  1.1490  1.1538  1.7722
29448WAT    EPW19599   5.782   4.498   3.777  0.0677  0.4754  0.4632
29449WAT      O19600  -1.585   2.920   1.580 -0.3871 -0.0571  0.3011
29449WAT     H119601  -1.659   2.916   1.519  0.2255 -3.8813 -0.4446
29449WAT     H219602  -1.508   2.915   1.525  0.3154  0.3149  1.2314
29449WAT    EPW19603  -1.585   2.919   1.565 -0.2136 -0.5126  0.3254
29450WAT      O19604  -0.699   0.029   2.193 -0.7717 -0.4490 -0.6492
29450WAT     H119605  -0.627  -0.023   2.228 -0.2476  1.2950  0.9949
29450WAT     H219606  -0.678   0.040   2.100  0.1442 -1.4455 -0.5784
29450WAT    EPW19607  -0.687   0.024   2.185 -0.5818 -0.3504 -0.4231
29451WAT      O19608  -6.006   9.970   6.962 -0.0465 -0.1053  0.0563
29451WAT     H119609  -6.009   9.939   7.053  1.0867 -0.7393 -0.1019
29451WAT     H219610  -5.982   9.893   6.911  0.1432  0.4306 -0.6895
29451WAT    EPW19611  -6.003   9.956   6.967  0.1280 -0.1183 -0.0629
29452WAT      O19612   6.806   1.948   4.671  0.0588  0.0320 -0.6315
29452WAT     H119613   6.724   1.997   4.667  1.1864  2.0788  0.2821
29452WAT     H219614   6.852   1.971   4.590  0.3361  0.0037 -0.4842
29452WAT    EPW19615   6.801   1.957   4.660  0.2441  0.2982 -0.4916
29453WAT      O19616   0.824   7.596   0.308 -0.2274  0.0653  0.4721
29453WAT     H119617   0.825   7.569   0.216 -2.1770  0.8180  0.1937
29453WAT     H219618   0.889   7.539   0.350  1.4400  0.3685 -1.5231
29453WAT    EPW19619   0.833   7.585   0.302 -0.2646  0.2046  0.1722
29454WAT      O19620   4.382   2.018   2.122 -0.2463  0.0462  0.1362
29454WAT     H119621   4.353   1.962   2.051  2.2229 -0.3200 -0.6897
29454WAT     H219622   4.306   2.024   2.181 -1.3805 -2.1204 -0.9818
29454WAT    EPW19623   4.368   2.012   2.121 -0.0703 -0.2879 -0.1202
29455WAT      O19624   5.603   1.298   4.476 -0.1026 -0.3876  0.4191
29455WAT     H119625   5.578   1.245   4.552  1.5778 -1.0907  0.5152
29455WAT     H219626   5.573   1.248   4.400 -0.7442 -0.2445  0.5706
29455WAT    EPW19627   5.596   1.285   4.476  0.0346 -0.4614  0.4518
29456WAT      O19628   3.840   7.061   6.362  0.0104  0.0365 -0.1951
29456WAT     H119629   3.781   7.100   6.426 -2.8439  2.3260 -3.7980
29456WAT     H219630   3.807   6.972   6.349  0.2484 -0.2400  1.0149
29456WAT    EPW19631   3.828   7.054   6.368 -0.3347  0.3018 -0.5107
29457WAT      O19632   4.096   1.363   0.788 -0.3060 -0.0941  0.3056
29457WAT     H119633   4.091   1.290   0.849  1.5762  0.8394  1.6928
29457WAT     H219634   4.106   1.440   0.844  2.5894  0.6967 -1.1126
29457WAT    EPW19635   4.097   1.364   0.803  0.3242  0.1333  0.3015
29458WAT      O19636  -2.573   5.437   8.615 -0.1568 -0.0308 -0.4003
29458WAT     H119637  -2.527   5.468   8.693 -3.2295  0.1037  1.5054
29458WAT     H219638  -2.528   5.355   8.592  2.8000  1.4697 -0.5058
29458WAT    EPW19639  -2.561   5.430   8.622 -0.1720  0.1850 -0.1626
29459WAT      O19640  -0.671   3.014   8.352 -0.1443 -0.7547  0.3732
29459WAT     H119641  -0.703   3.053   8.270 -0.4245  1.9318  1.6288
29459WAT     H219642  -0.687   2.920   8.342 -1.0687 -0.4124 -2.2404
29459WAT    EPW19643  -0.677   3.007   8.340 -0.3032 -0.3552  0.1945
29460WAT      O19644  -0.731   7.635   4.246  0.1849  0.4860 -0.2321
29460WAT     H119645  -0.729   7.559   4.304 -0.9160 -0.8267 -1.8331
29460WAT     H219646  -0.646   7.677   4.259  0.4112 -0.4073  1.4490
29460WAT    EPW19647  -0.719   7.630   4.256  0.0695  0.1950 -0.2215
29461WAT      O19648  -4.312   0.368   7.867  0.0501  0.0095 -0.2308
29461WAT     H119649  -4.347   0.280   7.852  2.2692 -1.3048  1.6120
29461WAT     H219650  -4.289   0.369   7.960  2.6125  1.5270 -0.7691
29461WAT    EPW19651  -4.313   0.357   7.877  0.6809  0.0363 -0.0587
29462WAT      O19652   4.651   7.272   1.251 -0.3464 -0.3987 -0.5644
29462WAT     H119653   4.645   7.199   1.188 -1.6337  0.3531 -1.3462
29462WAT     H219654   4.580   7.331   1.226  0.4145  0.9294  0.3281
29462WAT    EPW19655   4.641   7.270   1.239 -0.4158 -0.1245 -0.5498
29463WAT      O19656  -5.121   4.352   6.936  0.0801 -0.4326  0.4602
29463WAT     H119657  -5.050   4.416   6.935  0.8091 -1.2205  0.3097
29463WAT     H219658  -5.156   4.353   6.847  1.1773 -1.3957 -0.0117
29463WAT    EPW19659  -5.116   4.361   6.924  0.3209 -0.6635  0.3781
29464WAT      O19660   3.365   9.132   6.696 -0.3580  0.1311 -0.2052
29464WAT     H119661   3.445   9.159   6.650  0.2838 -0.5123  0.5179
29464WAT     H219662   3.391   9.058   6.750 -1.2525  0.4527  0.7104
29464WAT    EPW19663   3.379   9.126   6.697 -0.3914  0.0887  0.0110
29465WAT      O19664  -2.404   2.503   7.518  0.0486 -0.3882  0.6446
29465WAT     H119665  -2.369   2.586   7.552  1.4464 -0.2190 -1.0863
29465WAT     H219666  -2.498   2.519   7.508  0.2221  0.8163  0.7956
29465WAT    EPW19667  -2.412   2.516   7.521  0.2558 -0.2071  0.4363
29466WAT      O19668   7.030   0.954   2.565 -0.2338  0.2983 -0.7164
29466WAT     H119669   7.028   0.871   2.518 -0.0677 -0.4968  0.6098
29466WAT     H219670   6.946   0.959   2.610 -0.1298  0.7146 -0.5594
29466WAT    EPW19671   7.019   0.944   2.565 -0.1981  0.2484 -0.5208
29467WAT      O19672   0.845   4.854   4.335  0.1770 -0.0729  0.2893
29467WAT     H119673   0.921   4.905   4.362 -0.7673  2.2518 -1.1560
29467WAT     H219674   0.867   4.822   4.248 -0.7925  1.4586 -0.5711
29467WAT    EPW19675   0.858   4.857   4.327 -0.0754  0.4358 -0.0150
29468WAT      O19676  -4.843   7.733   6.767  0.5944  0.0764  0.4985
29468WAT     H119677  -4.849   7.810   6.823  0.1691 -0.3650  1.0764
29468WAT     H219678  -4.933   7.717   6.738  0.4566 -0.9135  1.3851
29468WAT    EPW19679  -4.856   7.741   6.771  0.5202 -0.1123  0.6917
29469WAT      O19680   7.337   6.211   1.206 -0.4175 -0.5689  0.2231
29469WAT     H119681   7.387   6.256   1.274 -0.4952 -2.6261  1.7191
29469WAT     H219682   7.266   6.271   1.184  0.5281  0.8037  0.7932
29469WAT    EPW19683   7.335   6.225   1.212 -0.3030 -0.6592  0.4956
29470WAT      O19684  -3.480   2.464   5.176 -0.1171 -0.8562  0.4983
29470WAT     H119685  -3.440   2.436   5.258  0.1585  2.0846  1.5112
29470WAT     H219686  -3.554   2.519   5.203  1.0086  1.6352 -1.0642
29470WAT    EPW19687  -3.484   2.468   5.190  0.0677 -0.1398  0.4258
29471WAT      O19688   1.521   7.794   5.600  0.2851 -0.0569 -0.1032
29471WAT     H119689   1.593   7.853   5.576  0.9580 -0.7523  0.1877
29471WAT     H219690   1.442   7.844   5.577  0.7424  1.9734  2.2913
29471WAT    EPW19691   1.520   7.809   5.594  0.4342  0.1192  0.2511
29472WAT      O19692   7.365   1.467   5.085 -0.6308 -0.5034 -0.3350
29472WAT     H119693   7.280   1.484   5.043  0.1753  0.8321 -1.5152
29472WAT     H219694   7.378   1.542   5.143 -0.3312 -0.7866 -0.0347
29472WAT    EPW19695   7.355   1.479   5.087 -0.4851 -0.3646 -0.4511
29473WAT      O19696  -1.772   2.348   5.534 -0.1049 -0.2232 -0.2232
29473WAT     H119697  -1.834   2.276   5.537 -1.5555  0.9738 -0.0093
29473WAT     H219698  -1.801   2.401   5.460 -1.1427  1.8198  1.5137
29473WAT    EPW19699  -1.784   2.346   5.525 -0.4331  0.2041  0.0341
29474WAT      O19700   3.640   5.446   3.157  0.3898  0.1142 -0.4068
29474WAT     H119701   3.697   5.499   3.100 -0.0926  0.7594 -0.2957
29474WAT     H219702   3.647   5.488   3.242 -1.7519  1.4076 -0.8019
29474WAT    EPW19703   3.649   5.458   3.160  0.0436  0.3700 -0.4443
29475WAT      O19704  -1.219   2.133   4.343  0.0276 -0.0653  0.5806
29475WAT     H119705  -1.159   2.107   4.413  2.4752  1.0210 -0.9629
29475WAT     H219706  -1.255   2.051   4.310 -1.0853 -0.6106  2.9226
29475WAT    EPW19707  -1.216   2.119   4.348  0.2037  0.0060  0.6859
29476WAT      O19708  -1.657   3.664   8.906 -0.6286  1.0106 -0.3956
29476WAT     H119709  -1.688   3.578   8.934 -0.9109  1.0134 -0.6849
29476WAT     H219710  -1.566   3.668   8.934 -0.3484  0.2619 -1.1665
29476WAT    EPW19711  -1.649   3.653   8.914 -0.6289  0.9121 -0.5355
29477WAT      O19712   8.254   0.881   0.373 -0.0364 -0.1790  0.1833
29477WAT     H119713   8.341   0.877   0.413  0.0683 -0.8098 -0.0929
29477WAT     H219714   8.194   0.886   0.448  0.2732  1.7557  0.3691
29477WAT    EPW19715   8.257   0.881   0.389  0.0181 -0.0070  0.1714
29478WAT      O19716   5.019   2.491   6.217  0.9403  0.9217  0.8985
29478WAT     H119717   5.076   2.566   6.207 -0.6198  2.2117  1.2748
29478WAT     H219718   5.003   2.460   6.128 -0.9144  3.0378  0.4235
29478WAT    EPW19719   5.024   2.497   6.204  0.4897  1.3710  0.8855
29479WAT      O19720   9.532   1.185   1.113  0.5843  0.1966  0.7976
29479WAT     H119721   9.466   1.196   1.044  0.9214 -1.7399  0.1047
29479WAT     H219722   9.586   1.264   1.105 -0.2542  0.7199 -0.1608
29479WAT    EPW19723   9.530   1.197   1.103  0.5183  0.0103  0.5799
29480WAT      O19724   3.583   3.050   3.195 -0.1322 -0.2765  1.0560
29480WAT     H119725   3.568   3.084   3.284  0.3231  1.9915  0.3219
29480WAT     H219726   3.672   3.078   3.174  0.1499 -1.7040  0.2311
29480WAT    EPW19727   3.593   3.058   3.204 -0.0349 -0.1657  0.8503
29481WAT      O19728  -0.570   1.223   7.379 -0.3353 -0.3635 -0.2472
29481WAT     H119729  -0.549   1.303   7.426  1.4218  1.6510 -3.9501
29481WAT     H219730  -0.504   1.159   7.409 -1.6983 -0.5394  2.6702
29481WAT    EPW19731  -0.558   1.225   7.389 -0.2833 -0.1210 -0.3505
29482WAT      O19732  -0.675   2.371   4.132  0.2246  0.2410  0.6620
29482WAT     H119733  -0.665   2.460   4.097 -0.1020  0.3977  0.9700
29482WAT     H219734  -0.769   2.362   4.147 -0.2167 -1.2125 -2.1904
29482WAT    EPW19735  -0.686   2.382   4.129  0.1234  0.0700  0.3264
29483WAT      O19736   3.515  10.154   4.913 -0.0576  0.1703 -0.4976
29483WAT     H119737   3.437  10.173   4.965 -1.3043 -4.1520 -0.3420
29483WAT     H219738   3.588  10.165   4.974 -1.0313 -0.1699  0.7763
29483WAT    EPW19739   3.514  10.158   4.928 -0.3505 -0.4449 -0.3092
29484WAT      O19740   1.710   7.816   6.368  0.0833 -0.2147  0.4167
29484WAT     H119741   1.691   7.791   6.278  1.3632  1.0052 -0.2177
29484WAT     H219742   1.735   7.735   6.411 -0.9755 -0.8836 -0.1845
29484WAT    EPW19743   1.711   7.802   6.362  0.1124 -0.1419  0.2539
29485WAT      O19744   1.453   9.293   6.798  0.0612  0.3386 -0.3260
29485WAT     H119745   1.462   9.237   6.875  1.9261  4.2062  2.6264
29485WAT     H219746   1.363   9.325   6.802  0.2652  0.8296  0.5420
29485WAT    EPW19747   1.442   9.290   6.808  0.3340  0.9131  0.1779
29486WAT      O19748   8.327   3.906   1.332 -0.9077 -0.3783  0.5222
29486WAT     H119749   8.420   3.930   1.330 -0.3485 -2.3878 -0.0050
29486WAT     H219750   8.282   3.982   1.294  0.5975  0.2838 -0.0130
29486WAT    EPW19751   8.334   3.919   1.327 -0.6356 -0.5561  0.3821
29487WAT      O19752  -6.727   9.747   6.607  0.0082  0.2183  0.5091
29487WAT     H119753  -6.797   9.692   6.571 -1.3741  0.8927  2.0286
29487WAT     H219754  -6.769   9.832   6.622  1.9954  1.6927 -1.4865
29487WAT    EPW19755  -6.742   9.751   6.604  0.0882  0.5016  0.4463
29488WAT      O19756  -0.832   9.201   5.694  0.6703  0.5759 -0.0312
29488WAT     H119757  -0.794   9.119   5.724  0.0867 -0.0681 -1.0024
29488WAT     H219758  -0.910   9.175   5.645  1.3946  1.5699 -1.8321
29488WAT    EPW19759  -0.837   9.187   5.691  0.6889  0.6223 -0.3967
29489WAT      O19760   1.305   3.655   5.152  0.0268 -0.4340  0.4712
29489WAT     H119761   1.225   3.706   5.166  2.0523  2.6708  1.7312
29489WAT     H219762   1.321   3.660   5.058  0.3761  1.7344  0.6059
29489WAT    EPW19763   1.296   3.662   5.141  0.3401  0.2614  0.6552
29490WAT      O19764   4.083   8.799   0.976 -0.3731 -0.0696 -0.2760
29490WAT     H119765   4.010   8.751   1.017 -1.4563 -1.8418 -3.8785
29490WAT     H219766   4.053   8.815   0.887  1.7110  3.7574 -0.4872
29490WAT    EPW19767   4.069   8.795   0.970 -0.2410  0.2012 -0.7790
29491WAT      O19768  -6.519   5.967   8.161 -0.7229 -0.4537 -0.0240
29491WAT     H119769  -6.424   5.965   8.153 -0.6401 -0.2242  0.8981
29491WAT     H219770  -6.540   5.898   8.223 -1.1062 -0.0640  0.2864
29491WAT    EPW19771  -6.509   5.958   8.168 -0.7625 -0.3722  0.1388
29492WAT      O19772   2.881   5.327   7.407  0.1919  0.2936 -0.1669
29492WAT     H119773   2.972   5.343   7.381  0.9105  1.2813  2.5850
29492WAT     H219774   2.873   5.370   7.492 -2.9145  0.2999 -0.3606
29492WAT    EPW19775   2.892   5.334   7.415 -0.1230  0.4249  0.1705
29493WAT      O19776   2.503   4.009   7.466  1.0020  0.1159  0.1082
29493WAT     H119777   2.462   3.938   7.516 -1.5993  1.2126 -0.2636
29493WAT     H219778   2.595   4.007   7.492  1.0962 -3.4045  0.0360
29493WAT    EPW19779   2.509   3.999   7.476  0.6713 -0.2037  0.0496
29494WAT      O19780  -1.776   1.394   5.188 -0.2286  0.8765 -0.6431
29494WAT     H119781  -1.819   1.317   5.150 -0.1301 -0.1468  1.1517
29494WAT     H219782  -1.688   1.363   5.210 -0.7128  0.9135  1.6546
29494WAT    EPW19783  -1.770   1.380   5.186 -0.2794  0.7465 -0.1032
29495WAT      O19784  -1.443   8.306   1.163 -0.1814 -0.3086  0.3223
29495WAT     H119785  -1.443   8.222   1.208 -2.5377 -0.3312  0.4158
29495WAT     H219786  -1.535   8.329   1.155  0.2423  0.8686 -2.3487
29495WAT    EPW19787  -1.455   8.298   1.168 -0.4364 -0.1564 -0.0176
29496WAT      O19788  -2.584   3.844   6.330 -0.2310  0.9567  0.0672
29496WAT     H119789  -2.640   3.801   6.394  0.3438  1.9140  1.2695
29496WAT     H219790  -2.495   3.825   6.360  0.0595  0.8313 -0.8607
29496WAT    EPW19791  -2.579   3.836   6.343 -0.1168  1.0666  0.1035
29497WAT      O19792   0.546   2.962   2.462  0.3567 -0.4061 -0.1374
29497WAT     H119793   0.594   3.042   2.487  1.1300 -0.2740 -1.9088
29497WAT     H219794   0.614   2.902   2.432 -0.1744 -1.9157  1.4820
29497WAT    EPW19795   0.562   2.965   2.461  0.3886 -0.5877 -0.1574
29498WAT      O19796  -3.767   7.626   8.576 -0.2940 -0.5195 -0.7640
29498WAT     H119797  -3.828   7.592   8.511 -0.1319 -0.3167 -1.0248
29498WAT     H219798  -3.689   7.571   8.567 -1.0010 -1.8793  0.7035
29498WAT    EPW19799  -3.765   7.614   8.566 -0.3659 -0.6719 -0.6046
29499WAT      O19800  -2.938   1.421   5.775  0.1340 -0.0737  0.3375
29499WAT     H119801  -3.014   1.458   5.730  0.6127  0.1680 -0.2820
29499WAT     H219802  -2.926   1.335   5.735  0.8180  0.3109 -0.3229
29499WAT    EPW19803  -2.947   1.414   5.764  0.2873  0.0089  0.1686
29500WAT      O19804   4.673   1.340   3.801 -0.4102  0.2472 -0.1813
29500WAT     H119805   4.610   1.401   3.764 -2.1006 -0.4657  1.3686
29500WAT     H219806   4.634   1.312   3.884  0.5774 -2.4697 -0.5261
29500WAT    EPW19807   4.659   1.344   3.807 -0.5031 -0.2052 -0.0223
29501WAT      O19808   1.056   0.295   0.885  0.3091 -0.1946 -0.4273
29501WAT     H119809   0.994   0.248   0.940  1.6843 -1.9009 -0.2284
29501WAT     H219810   1.123   0.327   0.946  1.6056 -1.7035 -0.9842
29501WAT    EPW19811   1.057   0.293   0.900  0.6615 -0.6187 -0.4745
29502WAT      O19812   1.148   8.859   5.663 -0.3168  0.8946  0.2034
29502WAT     H119813   1.053   8.844   5.662 -0.3329  0.8779 -1.4523
29502WAT     H219814   1.183   8.793   5.602  0.6970  1.2507  0.3771
29502WAT    EPW19815   1.140   8.848   5.654 -0.1853  0.9398  0.0081
29503WAT      O19816  -6.864   9.261   8.535  0.0800 -0.3369  0.2339
29503WAT     H119817  -6.921   9.271   8.611 -0.8694  0.0585 -0.5167
29503WAT     H219818  -6.832   9.350   8.517 -0.7895 -0.1898 -0.6495
29503WAT    EPW19819  -6.867   9.274   8.542 -0.1600 -0.2656  0.0181
29504WAT      O19820   4.342   6.697   5.951 -0.3780 -0.2873 -0.1631
29504WAT     H119821   4.402   6.662   6.017 -1.3556 -1.1613  0.2810
29504WAT     H219822   4.387   6.775   5.917  0.8944 -0.7897  0.3167
29504WAT    EPW19823   4.356   6.703   5.955 -0.3393 -0.4690 -0.0410
29505WAT      O19824   8.422   0.704   0.126 -0.3191  0.3424  0.2301
29505WAT     H119825   8.346   0.658   0.090 -2.4169  2.1974  1.9807
29505WAT     H219826   8.396   0.796   0.126  1.1485  0.8385  2.6788
29505WAT    EPW19827   8.409   0.710   0.121 -0.4025  0.6525  0.7839
29506WAT      O19828   4.072   8.405   5.601  0.0534  0.3006 -0.1353
29506WAT     H119829   4.152   8.387   5.551  0.6646 -1.2722  1.3295
29506WAT     H219830   4.104   8.426   5.689 -1.0320  2.4805 -0.2028
29506WAT    EPW19831   4.087   8.405   5.606 -0.0091  0.3805  0.0489
29507WAT      O19832   0.898   3.471   4.641 -0.7868  0.2512 -0.1321
29507WAT     H119833   0.914   3.535   4.571 -1.6375  1.6215  0.8690
29507WAT     H219834   0.908   3.522   4.722  0.2637 -1.3093  0.7691
29507WAT    EPW19835   0.902   3.486   4.643 -0.7605  0.2260  0.1187
29508WAT      O19836   0.102   1.978   7.407  0.1590 -0.2766 -0.5570
29508WAT     H119837   0.040   1.956   7.477  0.5881  0.6388  0.1241
29508WAT     H219838   0.188   1.971   7.448  0.5175 -1.2692 -1.4294
29508WAT    EPW19839   0.105   1.974   7.421  0.2629 -0.2868 -0.5822
29509WAT      O19840   1.392   2.710   8.598 -0.1718  0.4319 -0.9223
29509WAT     H119841   1.415   2.709   8.691  0.0541  0.7260 -0.9732
29509WAT     H219842   1.325   2.643   8.589  0.6492 -0.4294 -0.7698
29509WAT    EPW19843   1.386   2.701   8.609 -0.0337  0.3570 -0.9089
29510WAT      O19844   3.911   6.768   0.604 -0.2631 -0.3298 -0.8467
29510WAT     H119845   3.940   6.694   0.551  2.6651 -0.1420  0.3065
29510WAT     H219846   3.930   6.742   0.694  3.5375  2.6960 -0.5097
29510WAT    EPW19847   3.917   6.755   0.609  0.6244  0.0939 -0.6501
29511WAT      O19848  -1.367   9.565   7.512 -0.3402  0.1825 -0.2235
29511WAT     H119849  -1.358   9.568   7.607 -2.9289 -0.2193  0.1001
29511WAT     H219850  -1.431   9.495   7.497  0.9845 -0.6427 -2.3604
29511WAT    EPW19851  -1.374   9.556   7.523 -0.5069  0.0205 -0.4625
29512WAT      O19852   1.207   1.154   5.357 -0.2043  0.5220 -0.3330
29512WAT     H119853   1.170   1.073   5.391 -1.1514 -0.1416 -2.7091
29512WAT     H219854   1.132   1.213   5.348  0.1644  0.9935 -0.3900
29512WAT    EPW19855   1.192   1.151   5.360 -0.2806  0.4966 -0.6537
29513WAT      O19856  -1.096   9.968   3.284 -0.2057  0.4521 -0.2472
29513WAT     H119857  -1.147   9.890   3.307  0.6112 -0.4832 -1.4928
29513WAT     H219858  -1.162  10.033   3.258 -0.8300 -0.3031 -0.5810
29513WAT    EPW19859  -1.111   9.966   3.283 -0.1803  0.2289 -0.4556
29514WAT      O19860  -1.206   3.625   5.079  0.1145 -0.0255  0.4603
29514WAT     H119861  -1.166   3.540   5.062 -1.3961 -0.2490 -2.5402
29514WAT     H219862  -1.214   3.629   5.175  1.1912 -2.7492  0.7412
29514WAT    EPW19863  -1.202   3.615   5.089  0.0573 -0.4143  0.1016
29515WAT      O19864  -3.653   7.289   2.951  0.2348  0.4350  0.4207
29515WAT     H119865  -3.721   7.238   2.907  0.1833  0.7503  0.1361
29515WAT     H219866  -3.579   7.229   2.959  0.6636  0.7340 -1.1455
29515WAT    EPW19867  -3.652   7.274   2.946  0.2847  0.5159  0.1765
29516WAT      O19868   0.378   2.665   0.718 -0.3966  0.4124  0.3668
29516WAT     H119869   0.300   2.685   0.666  0.2774  2.1877 -0.0603
29516WAT     H219870   0.361   2.580   0.757 -2.6384  0.8499  0.4438
29516WAT    EPW19871   0.366   2.657   0.717 -0.6034  0.7043  0.3206
29517WAT      O19872  -1.903   8.547   3.287  1.0772 -0.4879 -0.4651
29517WAT     H119873  -1.837   8.513   3.348  2.4850 -0.6405 -1.9889
29517WAT     H219874  -1.904   8.482   3.216 -0.9481 -0.6242 -0.3533
29517WAT    EPW19875  -1.894   8.534   3.286  0.9958 -0.5260 -0.6514
29518WAT      O19876   0.310   7.178   0.736  0.1905 -0.1816  0.5361
29518WAT     H119877   0.360   7.134   0.667  1.4361  0.6915  0.8576
29518WAT     H219878   0.341   7.138   0.817  0.1513  0.1596  0.7201
29518WAT    EPW19879   0.321   7.167   0.738  0.3496 -0.0215  0.6028
29519WAT      O19880  -4.020   0.657   7.965  0.1172  0.1517  0.1225
29519WAT     H119881  -4.004   0.748   7.990  0.8378  0.4000 -1.1844
29519WAT     H219882  -3.934   0.615   7.972 -0.0113 -0.1843 -0.2874
29519WAT    EPW19883  -4.006   0.664   7.970  0.1953  0.1401 -0.1040
29520WAT      O19884   2.615   0.726   8.350  0.0794  0.0546 -0.3461
29520WAT     H119885   2.534   0.698   8.392  1.4688 -1.0133  1.7944
29520WAT     H219886   2.636   0.654   8.289  0.3320 -0.5338  0.4239
29520WAT    EPW19887   2.607   0.713   8.347  0.2960 -0.1638  0.0377
29521WAT      O19888   0.176   0.347   7.205 -0.2333 -0.2432 -0.1046
29521WAT     H119889   0.084   0.340   7.229 -0.4757  2.1022 -0.1715
29521WAT     H219890   0.174   0.375   7.113  0.5553  0.0862 -0.0235
29521WAT    EPW19891   0.164   0.349   7.196 -0.1613  0.1096 -0.1028
29522WAT      O19892   0.089   6.265   8.586 -0.3142  0.1798  0.0339
29522WAT     H119893   0.157   6.255   8.652 -0.5700  1.5122  0.5235
29522WAT     H219894   0.014   6.302   8.633 -0.3667  1.5348 -1.0384
29522WAT    EPW19895   0.088   6.269   8.601 -0.3548  0.5343 -0.0429
29523WAT      O19896   1.356   5.606   5.143 -1.0228  0.0594  0.2764
29523WAT     H119897   1.413   5.605   5.220  1.0904  2.6742 -1.0803
29523WAT     H219898   1.322   5.696   5.141 -2.3731 -0.4566 -0.9308
29523WAT    EPW19899   1.359   5.618   5.153 -0.9221  0.3362 -0.0620
29524WAT      O19900   7.837   3.772   0.899  0.0921  0.6413 -0.2532
29524WAT     H119901   7.855   3.864   0.918  1.0236  0.0426  2.0409
29524WAT     H219902   7.916   3.741   0.854 -0.1318  0.8839 -0.8277
29524WAT    EPW19903   7.850   3.780   0.895  0.1855  0.5944 -0.0264
29525WAT      O19904  -3.126   3.894   7.098  0.1525  0.1744 -0.3031
29525WAT     H119905  -3.072   3.816   7.106  0.6443  0.7175  3.0565
29525WAT     H219906  -3.072   3.956   7.048  1.3483 -0.3423  0.3277
29525WAT    EPW19907  -3.112   3.892   7.092  0.3750  0.1780  0.2229
29526WAT      O19908   5.606   0.504   2.616 -0.1492  0.3518 -0.3488
29526WAT     H119909   5.632   0.530   2.704  0.5975  1.2851 -0.8275
29526WAT     H219910   5.549   0.575   2.586 -2.4023 -1.1153  0.2523
29526WAT    EPW19911   5.602   0.517   2.623 -0.3481  0.2814 -0.3327
29527WAT      O19912   0.720   1.045   4.624  0.1158 -0.1896  0.6756
29527WAT     H119913   0.677   1.020   4.706  0.9129  2.1532  1.8929
29527WAT     H219914   0.681   1.130   4.602  1.2869  0.1127 -0.3164
29527WAT    EPW19915   0.709   1.053   4.632  0.3754  0.1593  0.7055
29528WAT      O19916   4.453   2.445   8.686 -0.0397 -0.0184  0.0658
29528WAT     H119917   4.487   2.358   8.709 -0.5702 -0.1938  0.1835
29528WAT     H219918   4.499   2.504   8.746  1.0082 -0.1028 -0.6213
29528WAT    EPW19919   4.464   2.441   8.697  0.0286 -0.0526 -0.0091
29529WAT      O19920   4.026   1.657   4.895 -0.5927 -0.3947  0.7685
29529WAT     H119921   4.043   1.713   4.819  1.0208 -0.1132  1.2943
29529WAT     H219922   4.065   1.573   4.871  0.6346 -0.0789  1.5601
29529WAT    EPW19923   4.033   1.653   4.882 -0.2182 -0.3160  0.9422
29530WAT      O19924  -2.326   1.243   6.475 -0.4952  0.2394  0.8104
29530WAT     H119925  -2.233   1.248   6.452 -0.7969  0.4635 -0.4279
29530WAT     H219926  -2.331   1.172   6.539  0.3891 -0.3951  0.1945
29530WAT    EPW19927  -2.314   1.235   6.481 -0.4184  0.1853  0.5658
29531WAT      O19928  -1.520   5.718   0.072 -0.3522 -0.0534 -0.4405
29531WAT     H119929  -1.468   5.774   0.130 -1.6439  1.3299 -0.5580
29531WAT     H219930  -1.535   5.639   0.123 -1.8965  1.3200  1.3943
29531WAT    EPW19931  -1.515   5.715   0.086 -0.7263  0.3099 -0.2140
29532WAT      O19932  -3.786   6.474   8.094  0.0921 -0.3036 -0.5102
29532WAT     H119933  -3.764   6.432   8.177 -2.9142 -0.8978  0.1327
29532WAT     H219934  -3.704   6.513   8.064  1.5765 -1.1463  2.0880
29532WAT    EPW19935  -3.773   6.474   8.101 -0.1086 -0.4930 -0.0830
29533WAT      O19936   0.514   7.135   2.699  0.4370  0.2809 -0.4758
29533WAT     H119937   0.577   7.114   2.630  2.6295  0.5440  1.3237
29533WAT     H219938   0.558   7.108   2.780 -2.2026 -0.4063  0.8153
29533WAT    EPW19939   0.528   7.129   2.700  0.3781  0.2251 -0.0682
29534WAT      O19940  -3.983   8.640   1.624  0.3592  0.5007  0.3906
29534WAT     H119941  -3.979   8.628   1.529 -1.5103 -2.0714  0.5102
29534WAT     H219942  -3.974   8.734   1.637  3.6686  0.7098 -2.0557
29534WAT    EPW19943  -3.981   8.651   1.613  0.5492  0.1893  0.0837
29535WAT      O19944  -5.674   7.708   8.382 -0.7921  0.0793  0.1400
29535WAT     H119945  -5.606   7.641   8.385  0.9553  1.7510  0.3552
29535WAT     H219946  -5.724   7.689   8.303 -0.6435 -1.7059  0.4422
29535WAT    EPW19947  -5.672   7.697   8.372 -0.5422  0.0641  0.2079
29536WAT      O19948   0.469   9.429   7.599 -0.7364 -0.1276  0.3439
29536WAT     H119949   0.544   9.411   7.656 -1.0573  0.2545  0.9069
29536WAT     H219950   0.456   9.348   7.550 -1.5092 -1.0912  2.0438
29536WAT    EPW19951   0.478   9.416   7.600 -0.8807 -0.2046  0.6423
29537WAT      O19952  -1.955   6.577   4.382  0.1485  0.1390  0.1209
29537WAT     H119953  -2.031   6.572   4.323  0.1407 -1.2781  0.2069
29537WAT     H219954  -1.917   6.489   4.378  0.8385  0.3699  1.3293
29537WAT    EPW19955  -1.960   6.565   4.374  0.2385 -0.0174  0.2916
29538WAT      O19956  -0.692   2.886   2.169  0.2415  0.2550 -0.0702
29538WAT     H119957  -0.744   2.904   2.091  0.1765 -0.1490 -0.1236
29538WAT     H219958  -0.658   2.797   2.155  0.5458  0.3289  0.1845
29538WAT    EPW19959  -0.694   2.876   2.157  0.2730  0.2115 -0.0436
29539WAT      O19960   1.946   6.354   3.843  0.3312 -0.0321 -0.6656
29539WAT     H119961   2.000   6.276   3.843  1.5365  0.7081 -3.0158
29539WAT     H219962   1.987   6.413   3.906 -0.5901 -1.2180  1.1182
29539WAT    EPW19963   1.958   6.352   3.851  0.3687 -0.0911 -0.7404
29540WAT      O19964  -0.929  10.316   3.731 -0.6822  0.4870  0.1584
29540WAT     H119965  -0.837  10.319   3.706 -1.1062  3.6968 -1.5539
29540WAT     H219966  -0.941  10.228   3.768  3.4765  0.5828  2.3493
29540WAT    EPW19967  -0.919  10.305   3.732 -0.1897  0.9232  0.2214
29541WAT      O19968   0.731   2.757   5.731 -0.3270 -0.0184  0.3173
29541WAT     H119969   0.713   2.794   5.818  1.1739  1.6883 -0.0318
29541WAT     H219970   0.648   2.767   5.684 -1.2316 -1.1675  1.5790
29541WAT    EPW19971   0.717   2.763   5.736 -0.2484  0.0552  0.4377
29542WAT      O19972   5.460   8.247   1.440  0.4992 -0.2544 -0.2258
29542WAT     H119973   5.447   8.340   1.461 -2.4402 -0.6778  0.2226
29542WAT     H219974   5.555   8.238   1.430  1.1181  2.2650  2.1563
29542WAT    EPW19975   5.471   8.258   1.442  0.1934  0.0219  0.1475
29543WAT      O19976   2.957   1.860   8.187 -0.2100 -0.3008  0.7370
29543WAT     H119977   2.950   1.878   8.281 -1.7700  0.2495  0.5406
29543WAT     H219978   2.970   1.945   8.146 -0.4969 -0.4226  0.3810
29543WAT    EPW19979   2.957   1.873   8.194 -0.4536 -0.2443  0.6642
29544WAT      O19980   0.047   4.741   1.163 -0.3048 -0.3843  0.8753
29544WAT     H119981   0.119   4.687   1.196  1.2111  1.7008  1.1848
29544WAT     H219982  -0.025   4.679   1.149  1.1476 -2.3681  1.6973
29544WAT    EPW19983   0.047   4.726   1.165  0.0867 -0.3710  1.0246
29545WAT      O19984   2.739   9.249   2.228 -0.3228  0.0294  0.4891
29545WAT     H119985   2.671   9.204   2.280  1.8587 -1.4082  2.2953
29545WAT     H219986   2.753   9.332   2.273 -1.0010  0.4332 -0.0233
29545WAT    EPW19987   2.732   9.254   2.241 -0.1246 -0.1073  0.6597
29546WAT      O19988  -2.326   8.597   6.330 -0.4501  0.5888 -0.0819
29546WAT     H119989  -2.417   8.629   6.331 -0.3791  0.8484 -0.9817
29546WAT     H219990  -2.334   8.504   6.307 -0.6449 -0.0767  2.3756
29546WAT    EPW19991  -2.339   8.589   6.327 -0.4665  0.5355  0.1237
29547WAT      O19992  -5.562   6.724   8.891 -0.0652 -0.2162 -0.3759
29547WAT     H119993  -5.639   6.697   8.941  0.8068 -1.0573  0.5784
29547WAT     H219994  -5.496   6.742   8.958  0.7488 -0.0847 -1.1918
29547WAT    EPW19995  -5.563   6.723   8.907  0.1571 -0.3097 -0.3576
29548WAT      O19996  -0.038   6.746   2.254 -0.1502 -0.2983 -0.0332
29548WAT     H119997   0.025   6.675   2.266  0.2521 -0.7490 -3.5766
29548WAT     H219998   0.015   6.819   2.219 -1.2611 -0.0621 -1.3094
29548WAT    EPW19999  -0.023   6.746   2.251 -0.2436 -0.3266 -0.6689
29549WAT      O20000  -2.022  10.185   4.181 -0.4725  0.2256 -0.4450
29549WAT     H120001  -1.941  10.233   4.197  0.3849 -1.3711  0.1840
29549WAT     H220002  -1.998  10.093   4.192 -2.3553 -0.2876 -0.3276
29549WAT    EPW20003  -2.008  10.179   4.184 -0.6078 -0.0525 -0.3464
29550WAT      O20004   4.002   6.425   4.514  0.6661  0.4636 -0.5535
29550WAT     H120005   4.087   6.449   4.477 -0.2562  1.8584 -1.9097
29550WAT     H220006   4.000   6.464   4.601  1.1613  0.9718 -0.7714
29550WAT    EPW20007   4.013   6.433   4.520  0.6099  0.7148 -0.7610
29551WAT      O20008  -0.774   8.484   4.866  0.0243 -0.0654 -0.1430
29551WAT     H120009  -0.833   8.542   4.818  0.5312  1.0085  0.5042
29551WAT     H220010  -0.706   8.461   4.803  0.7832  1.4761  0.0704
29551WAT    EPW20011  -0.773   8.489   4.852  0.1913  0.2794 -0.0296
29552WAT      O20012   3.262   0.287   5.799 -0.1987 -0.5940 -0.2058
29552WAT     H120013   3.323   0.342   5.849 -1.0928  1.4278 -1.2160
29552WAT     H220014   3.178   0.299   5.842 -0.4167 -1.1779 -0.4629
29552WAT    EPW20015   3.259   0.296   5.811 -0.3453 -0.4044 -0.3731
29553WAT      O20016   5.598   8.572   0.490  0.7275 -0.2146  0.2533
29553WAT     H120017   5.646   8.650   0.462 -2.3725  0.8692 -2.8270
29553WAT     H220018   5.508   8.602   0.505 -0.4663 -3.0407 -0.4060
29553WAT    EPW20019   5.592   8.586   0.488  0.1612 -0.4439 -0.2400
29554WAT      O20020   1.976   1.114   8.325 -0.2130 -0.3930 -0.1280
29554WAT     H120021   2.035   1.173   8.279 -0.6211 -1.1890 -1.7707
29554WAT     H220022   1.914   1.171   8.370  1.8747  0.4630  1.8227
29554WAT    EPW20023   1.975   1.129   8.325  0.0085 -0.3850 -0.0873
29555WAT      O20024  -1.726   2.550   3.638 -0.0894  0.5208  0.5419
29555WAT     H120025  -1.714   2.495   3.715  0.6622  0.0030  0.0760
29555WAT     H220026  -1.670   2.510   3.571  0.2347  1.6810  0.0922
29555WAT    EPW20027  -1.717   2.537   3.639  0.0525  0.6056  0.4210
29556WAT      O20028  -5.939   4.648   8.000  0.0778  0.2136 -0.1512
29556WAT     H120029  -5.860   4.599   8.022  0.6281  1.5842  1.0750
29556WAT     H220030  -5.955   4.703   8.076 -2.3315 -0.3282 -0.1895
29556WAT    EPW20031  -5.931   4.648   8.013 -0.1671  0.3228  0.0052
29557WAT      O20032   3.096   1.377   7.595  0.3555 -0.3941  0.0813
29557WAT     H120033   3.042   1.374   7.674  3.6452 -0.7508  2.5075
29557WAT     H220034   3.079   1.293   7.551  0.4891 -1.4564  1.9508
29557WAT    EPW20035   3.087   1.365   7.600  0.8069 -0.5812  0.6478
29558WAT      O20036  -6.189   6.041   7.668 -0.3857 -0.2500  0.2180
29558WAT     H120037  -6.279   6.072   7.670 -0.1956  0.3303 -0.1184
29558WAT     H220038  -6.139   6.113   7.630 -0.2781 -1.8178 -2.9627
29558WAT    EPW20039  -6.194   6.054   7.663 -0.3462 -0.3803 -0.2458
29559WAT      O20040   0.921   0.611   8.008 -0.2190  0.0779 -0.0926
29559WAT     H120041   0.957   0.699   8.002 -1.6255  0.9698  2.7513
29559WAT     H220042   0.869   0.601   7.928  4.1786 -0.4477 -3.2581
29559WAT    EPW20043   0.919   0.621   7.997  0.1755  0.1262 -0.1352
29560WAT      O20044   3.142   8.538   3.701 -0.1323 -0.0072  0.0805
29560WAT     H120045   3.217   8.582   3.740 -0.3303  0.7164 -0.3312
29560WAT     H220046   3.134   8.577   3.614  0.1963 -1.4671 -0.6318
29560WAT    EPW20047   3.151   8.549   3.695 -0.1152 -0.1040 -0.0678
29561WAT      O20048  -1.367   6.818   2.970 -0.3715  0.4918  0.4108
29561WAT     H120049  -1.432   6.873   2.925 -1.7631  0.3406  2.0940
29561WAT     H220050  -1.358   6.741   2.915  0.7665  1.8488 -1.4273
29561WAT    EPW20051  -1.375   6.815   2.957 -0.4049  0.6509  0.3904
29562WAT      O20052  -0.066   3.505   1.253  0.6656 -0.6752  0.0364
29562WAT     H120053  -0.127   3.471   1.319  0.4950 -0.4126  0.0164
29562WAT     H220054  -0.017   3.574   1.298 -0.0828  0.1344 -0.3562
29562WAT    EPW20055  -0.068   3.510   1.267  0.5444 -0.5338 -0.0180
29563WAT      O20056  -0.345   8.200   7.725 -0.1910 -0.1347 -0.3086
29563WAT     H120057  -0.269   8.210   7.782 -1.0792  0.7593  0.7741
29563WAT     H220058  -0.393   8.126   7.763  0.7118 -1.4932 -1.7042
29563WAT    EPW20059  -0.341   8.191   7.738 -0.1891 -0.1960 -0.3498
29564WAT      O20060  -4.694   6.461   6.121 -0.3553  0.2267 -0.4352
29564WAT     H120061  -4.729   6.457   6.210  1.6515  0.7567  0.4238
29564WAT     H220062  -4.626   6.528   6.125 -0.3082  0.3536 -2.4152
29564WAT    EPW20063  -4.690   6.469   6.133 -0.0844  0.3130 -0.5829
29565WAT      O20064   6.805   9.660   0.819 -0.5056  0.4911  0.5268
29565WAT     H120065   6.847   9.738   0.784 -1.1462  0.6192  0.0273
29565WAT     H220066   6.730   9.694   0.869 -2.2702  0.1418 -1.7107
29565WAT    EPW20067   6.800   9.675   0.821 -0.8228  0.4616  0.1658
29566WAT      O20068  -3.710   1.721   7.982 -0.1140  0.5685 -0.1262
29566WAT     H120069  -3.752   1.729   7.896  1.7029  2.8045 -0.9229
29566WAT     H220070  -3.618   1.702   7.962 -0.5743 -4.9278  1.5551
29566WAT    EPW20071  -3.703   1.720   7.968  0.0648  0.1385 -0.0098
29567WAT      O20072   1.787   9.428   3.383 -0.6740 -0.1879 -0.2635
29567WAT     H120073   1.785   9.517   3.419  1.3459 -0.6786  1.2512
29567WAT     H220074   1.810   9.373   3.458 -0.4117 -1.8052 -1.4922
29567WAT    EPW20075   1.790   9.433   3.398 -0.3729 -0.4659 -0.2258
29568WAT      O20076   3.088   0.211   1.878  0.2902 -0.2751 -0.2395
29568WAT     H120077   3.145   0.222   1.954 -2.1170  0.7414  1.5636
29568WAT     H220078   3.036   0.133   1.898  1.4696 -1.6576 -2.2081
29568WAT    EPW20079   3.089   0.202   1.890  0.1283 -0.3234 -0.2614
29569WAT      O20080  -2.657   8.574   8.059  0.6282 -0.3963  0.0421
29569WAT     H120081  -2.683   8.499   8.112 -0.2089 -0.0686  0.1138
29569WAT     H220082  -2.740   8.611   8.027  1.0108  0.6325  0.1936
29569WAT    EPW20083  -2.671   8.569   8.061  0.5683 -0.2174  0.0715
29570WAT      O20084  -2.430   8.710   7.307  0.5807  0.9063  0.6438
29570WAT     H120085  -2.369   8.637   7.319  2.5650  2.1683 -0.9412
29570WAT     H220086  -2.495   8.676   7.246  0.9249  0.1722  0.6685
29570WAT    EPW20087  -2.430   8.696   7.300  0.8879  0.9756  0.4382
29571WAT      O20088   4.699   2.258   8.428 -0.4271 -0.4815  0.2195
29571WAT     H120089   4.672   2.310   8.352  2.4649 -2.2787 -2.3103
29571WAT     H220090   4.621   2.209   8.453 -1.7543  1.0172 -0.8650
29571WAT    EPW20091   4.685   2.258   8.421 -0.2208 -0.5208 -0.2570
29572WAT      O20092  -0.640   9.133   8.901  0.4307  0.0672  0.4071
29572WAT     H120093  -0.591   9.215   8.909 -0.5397  0.5982  1.1498
29572WAT     H220094  -0.698   9.132   8.977 -0.8261 -0.4494 -0.5123
29572WAT    EPW20095  -0.641   9.144   8.912  0.1369  0.0691  0.3839
29573WAT      O20096   5.979   0.691   6.689  0.0095 -1.2440  0.2685
29573WAT     H120097   5.921   0.680   6.764  0.5497 -2.0314  0.5779
29573WAT     H220098   6.004   0.602   6.663  1.4280 -0.9226  0.4257
29573WAT    EPW20099   5.975   0.678   6.695  0.2677 -1.3055  0.3300
29574WAT      O20100   3.891   7.864   6.407 -0.1283 -0.4118 -0.2054
29574WAT     H120101   3.915   7.936   6.349  0.0835 -0.3307 -0.0173
29574WAT     H220102   3.815   7.824   6.365 -1.3047  0.9492  0.5358
29574WAT    EPW20103   3.884   7.868   6.394 -0.2556 -0.2215 -0.0830
29575WAT      O20104   4.160   7.749   3.501 -0.1972  0.0933  0.4594
29575WAT     H120105   4.141   7.784   3.414  1.6741 -0.4207 -0.2215
29575WAT     H220106   4.134   7.657   3.496 -0.4478  0.1588  0.5689
29575WAT    EPW20107   4.154   7.741   3.489  0.0167  0.0341  0.3841
29576WAT      O20108  -1.271   3.381   8.236 -0.5669  0.6520 -0.3272
29576WAT     H120109  -1.217   3.316   8.281  0.0782  1.3885 -0.0179
29576WAT     H220110  -1.351   3.386   8.289 -0.7766 -0.1278 -0.5480
29576WAT    EPW20111  -1.274   3.373   8.249 -0.5095  0.6464 -0.3157
29577WAT      O20112  -4.040   4.054   5.091  0.2258 -0.3102 -0.9700
29577WAT     H120113  -4.083   4.065   5.176 -0.1046 -1.6684 -0.9315
29577WAT     H220114  -4.046   4.140   5.050  0.6227  0.4354  0.4796
29577WAT    EPW20115  -4.047   4.067   5.097  0.2348 -0.3910 -0.7737
29578WAT      O20116   2.834   1.586   1.862  1.3769 -0.5745 -0.6026
29578WAT     H120117   2.871   1.650   1.802 -2.3161  2.2040 -0.2415
29578WAT     H220118   2.815   1.510   1.807  1.1271  0.6191 -2.2315
29578WAT    EPW20119   2.837   1.584   1.847  0.8569 -0.0506 -0.7698
29579WAT      O20120  -0.094   6.987   8.233 -0.0856  0.3838  0.7113
29579WAT     H120121  -0.067   6.954   8.148  0.1904 -0.2998  1.0575
29579WAT     H220122  -0.122   7.077   8.216 -0.5351  0.0866 -0.1917
29579WAT    EPW20123  -0.094   6.994   8.219 -0.1085  0.2544  0.6380
29580WAT      O20124   5.054   7.755   2.780 -0.9540 -0.1000  0.1236
29580WAT     H120125   5.057   7.849   2.762  0.8722 -0.2023 -0.3366
29580WAT     H220126   4.965   7.739   2.812 -0.4509  2.3105  3.1645
29580WAT    EPW20127   5.043   7.765   2.782 -0.6468  0.2043  0.4638
29581WAT      O20128   0.660  10.020   2.727  0.7817 -0.0744  0.0068
29581WAT     H120129   0.699   9.946   2.775 -0.7117  0.2729  1.8599
29581WAT     H220130   0.609  10.067   2.793  1.7765  2.7311 -1.0877
29581WAT    EPW20131   0.659  10.016   2.742  0.7159  0.3414  0.1069
29582WAT      O20132   5.445   2.202   4.137 -0.1483 -0.1984 -0.1158
29582WAT     H120133   5.457   2.283   4.186 -1.9951  0.7235 -1.0774
29582WAT     H220134   5.371   2.220   4.078  1.0265 -1.7237 -2.1981
29582WAT    EPW20135   5.437   2.215   4.136 -0.2370 -0.2780 -0.5174
29583WAT      O20136  -0.756   1.651   4.767  0.1236  0.2923 -0.1353
29583WAT     H120137  -0.735   1.620   4.855  3.7947  3.0970  0.2480
29583WAT     H220138  -0.699   1.600   4.709  1.3792  1.7141 -0.2219
29583WAT    EPW20139  -0.746   1.640   4.771  0.7734  0.8498 -0.0963
29584WAT      O20140  -0.221   2.779   1.071  0.1537 -0.7203  0.0837
29584WAT     H120141  -0.298   2.733   1.104  0.6095 -2.0344 -0.5899
29584WAT     H220142  -0.254   2.835   1.000 -0.4018 -0.0296  0.8724
29584WAT    EPW20143  -0.235   2.780   1.066  0.1406 -0.8025  0.0989
29585WAT      O20144  -1.163   3.261   2.746 -0.3552  0.3958  0.4666
29585WAT     H120145  -1.070   3.258   2.725 -0.1497  2.2277  0.9746
29585WAT     H220146  -1.184   3.172   2.776  0.3557 -1.0853 -2.9822
29585WAT    EPW20147  -1.154   3.249   2.747 -0.2344  0.4420  0.0787
29586WAT      O20148  -1.490   1.148   5.067  0.3045  0.1786  0.3044
29586WAT     H120149  -1.553   1.093   5.021  1.6361  0.5845 -2.1315
29586WAT     H220150  -1.536   1.174   5.147 -1.3187 -2.2853  0.3037
29586WAT    EPW20151  -1.505   1.144   5.072  0.2661 -0.0929 -0.0167
29587WAT      O20152   4.853   5.333   3.242  0.1209 -0.6815 -0.1974
29587WAT     H120153   4.917   5.358   3.176 -0.8919 -2.2811 -1.8676
29587WAT     H220154   4.881   5.246   3.271  0.1493 -0.2974  1.0158
29587WAT    EPW20155   4.865   5.324   3.237 -0.0091 -0.8419 -0.2576
29588WAT      O20156   1.159   6.482   8.765  0.4247  0.8634 -1.0479
29588WAT     H120157   1.181   6.439   8.848 -1.6438  2.3800  0.3955
29588WAT     H220158   1.205   6.431   8.699 -1.0556 -2.9773  0.5851
29588WAT    EPW20159   1.168   6.470   8.767 -0.0434  0.5567 -0.6418
29589WAT      O20160  -3.675   7.711   5.977 -0.2145  0.1131 -0.4310
29589WAT     H120161  -3.684   7.794   5.930 -0.6058  0.7483  0.7299
29589WAT     H220162  -3.761   7.670   5.969 -1.0046  1.2361  1.5305
29589WAT    EPW20163  -3.687   7.717   5.970 -0.3703  0.3450 -0.0193
29590WAT      O20164   0.024   0.473   3.541 -0.2116 -0.5824  0.0463
29590WAT     H120165  -0.064   0.506   3.521 -0.6852 -2.3238 -0.9958
29590WAT     H220166   0.015   0.430   3.626  0.1326  0.9356  0.8693
29590WAT    EPW20167   0.011   0.471   3.550 -0.2287 -0.6119  0.0173
29591WAT      O20168  -5.170   6.329   8.784  0.6641 -0.0370  0.0208
29591WAT     H120169  -5.166   6.321   8.689 -2.8315 -1.7563 -0.1606
29591WAT     H220170  -5.204   6.418   8.799  1.1069  0.1948 -0.3427
29591WAT    EPW20171  -5.174   6.340   8.774  0.2615 -0.2332 -0.0510
29592WAT      O20172   7.601   3.141   1.106  0.1426  0.4956  0.3942
29592WAT     H120173   7.583   3.224   1.063 -1.5178 -0.1030 -0.1438
29592WAT     H220174   7.517   3.115   1.145  0.2165 -1.6101 -0.7029
29592WAT    EPW20175   7.588   3.148   1.105 -0.0665  0.1390  0.1785
29593WAT      O20176  -4.104   4.725   7.585  0.5480 -0.5991  0.4398
29593WAT     H120177  -4.038   4.657   7.567  1.4679  0.2595  0.4610
29593WAT     H220178  -4.054   4.795   7.626 -0.2573  0.3842 -0.2217
29593WAT    EPW20179  -4.089   4.725   7.588  0.5634 -0.3562  0.3555
29594WAT      O20180  -0.628   2.171   1.297  0.3143 -0.0247  0.2853
29594WAT     H120181  -0.660   2.244   1.244  1.2897 -0.4278 -0.8884
29594WAT     H220182  -0.680   2.096   1.268  0.2551 -0.0747  0.5201
29594WAT    EPW20183  -0.639   2.171   1.286  0.4352 -0.0845  0.1615
29595WAT      O20184   2.403   7.241   2.489  0.4629  0.0682 -0.0423
29595WAT     H120185   2.469   7.174   2.475 -0.0229 -0.4176 -0.0232
29595WAT     H220186   2.452   7.315   2.526  0.7817 -0.8125  1.3847
29595WAT    EPW20187   2.418   7.242   2.492  0.4410 -0.1121  0.1484
29596WAT      O20188   5.960   7.384   3.818 -0.8631  0.7203 -0.6269
29596WAT     H120189   6.035   7.435   3.789 -0.7172  0.8206 -0.0908
29596WAT     H220190   5.988   7.346   3.901 -1.7787  1.6221  0.1126
29596WAT    EPW20191   5.974   7.385   3.825 -0.9646  0.8523 -0.4586
29597WAT      O20192   5.278   1.135   0.479  0.6700  0.3741  0.4981
29597WAT     H120193   5.264   1.043   0.458  2.0811 -0.6576  3.5667
29597WAT     H220194   5.236   1.182   0.407  0.6038 -2.6230 -1.6269
29597WAT    EPW20195   5.271   1.129   0.467  0.8471 -0.1573  0.6226
29598WAT      O20196   6.788   1.793   5.619  0.1967 -0.7589 -1.1047
29598WAT     H120197   6.797   1.748   5.703  2.2537 -1.8326 -1.8472
29598WAT     H220198   6.845   1.869   5.627  0.9280 -1.2289 -1.7409
29598WAT    EPW20199   6.797   1.797   5.631  0.5643 -0.9626 -1.2867
29599WAT      O20200   2.626   0.230   6.195 -0.1997 -0.3464 -0.1338
29599WAT     H120201   2.634   0.318   6.232 -1.1052 -0.8070  1.2250
29599WAT     H220202   2.547   0.234   6.141 -2.4799 -1.1860  2.8168
29599WAT    EPW20203   2.616   0.242   6.193 -0.6200 -0.5179  0.4346
29600WAT      O20204  -5.565   9.865   5.506 -0.0820  0.7525 -0.1580
29600WAT     H120205  -5.620   9.943   5.497 -2.2617 -0.8205 -1.4782
29600WAT     H220206  -5.627   9.792   5.503  1.7682 -1.0600  1.8664
29600WAT    EPW20207  -5.581   9.866   5.505 -0.1254  0.3057 -0.0651
29601WAT      O20208  -5.101   9.991   3.114 -0.5652  0.8668  1.0975
29601WAT     H120209  -5.171   9.938   3.152 -0.9479 -2.2323 -3.2237
29601WAT     H220210  -5.020   9.945   3.137 -0.6729 -0.0553 -0.2432
29601WAT    EPW20211  -5.100   9.978   3.122 -0.6299  0.3366  0.3507
29602WAT      O20212  -5.681   8.031   5.144  0.2726  0.3588 -0.5273
29602WAT     H120213  -5.726   8.111   5.118  0.0694 -0.2535 -2.1891
29602WAT     H220214  -5.636   8.002   5.065 -0.4890 -1.6891 -0.2757
29602WAT    EPW20215  -5.681   8.038   5.131  0.1452  0.0081 -0.7133
29603WAT      O20216   3.967   2.084   2.428 -0.3791  0.4450  0.7240
29603WAT     H120217   4.026   2.029   2.376 -0.5742 -0.2596  1.2323
29603WAT     H220218   3.893   2.101   2.370  0.5058  1.7210 -0.0853
29603WAT    EPW20219   3.965   2.079   2.413 -0.2882  0.5202  0.6843
29604WAT      O20220   1.169   1.361   2.158  0.3148  0.1771 -0.0395
29604WAT     H120221   1.092   1.392   2.205 -1.4474 -0.9560 -2.0253
29604WAT     H220222   1.161   1.265   2.160 -0.0449  0.0710 -2.8460
29604WAT    EPW20223   1.158   1.352   2.165  0.0349  0.0136 -0.6716
29605WAT      O20224   5.750   3.055   2.414  0.1533 -0.5662 -0.1679
29605WAT     H120225   5.806   2.979   2.396  1.0802  0.0182  0.1517
29605WAT     H220226   5.744   3.058   2.510 -0.9717 -0.9957 -0.2130
29605WAT    EPW20227   5.757   3.045   2.425  0.1273 -0.5459 -0.1316
29606WAT      O20228   0.271   3.220   7.751 -0.0502  0.3457  0.3740
29606WAT     H120229   0.286   3.297   7.698  0.9189  0.9858  1.5445
29606WAT     H220230   0.176   3.207   7.747  0.0353  0.1032 -1.8280
29606WAT    EPW20231   0.260   3.228   7.744  0.0889  0.3982  0.2379
29607WAT      O20232   2.674   4.020   0.990  0.1893  0.9223 -0.0182
29607WAT     H120233   2.653   3.934   1.027  2.6104  0.2034 -0.1537
29607WAT     H220234   2.620   4.026   0.912  0.4224 -0.7814 -0.3490
29607WAT    EPW20235   2.664   4.010   0.985  0.5393  0.6027 -0.0797
29608WAT      O20236   4.962   4.186   0.140  0.1432 -0.0345 -0.2855
29608WAT     H120237   4.994   4.144   0.060 -3.9081  0.0719 -2.2281
29608WAT     H220238   4.896   4.126   0.174 -0.0862  1.1484  1.5015
29608WAT    EPW20239   4.958   4.173   0.134 -0.4215  0.1354 -0.3060
29609WAT      O20240   4.548   0.962   1.801 -0.1931 -0.1553  0.3324
29609WAT     H120241   4.461   0.960   1.840 -1.1572  2.0761 -1.4533
29609WAT     H220242   4.579   1.052   1.815  1.5405 -0.7012  0.3196
29609WAT    EPW20243   4.541   0.974   1.808 -0.0916  0.0670  0.0952
29610WAT      O20244   1.441   0.453   5.718  1.0780  0.1615  0.1008
29610WAT     H120245   1.477   0.377   5.673 -0.7001 -1.7208  1.6746
29610WAT     H220246   1.350   0.431   5.735  1.2369  1.3361  3.2646
29610WAT    EPW20247   1.434   0.440   5.715  0.8645  0.0681  0.7257
29611WAT      O20248   1.902   6.155   1.124  0.0419  0.1833 -0.3061
29611WAT     H120249   1.941   6.243   1.122  2.2298 -0.6360  1.5857
29611WAT     H220250   1.935   6.117   1.206 -0.7753 -2.4355 -1.1217
29611WAT    EPW20251   1.912   6.162   1.135  0.2227 -0.2701 -0.1642
29612WAT      O20252  -4.490   3.891   5.503 -0.2926 -0.4002 -0.1768
29612WAT     H120253  -4.468   3.807   5.463 -0.0085 -0.2738 -0.2873
29612WAT     H220254  -4.416   3.948   5.481 -0.3569 -0.1988  0.1271
29612WAT    EPW20255  -4.477   3.887   5.495 -0.2635 -0.3569 -0.1512
29613WAT      O20256   0.823   9.118   5.825 -0.1105  0.1012  0.3637
29613WAT     H120257   0.765   9.086   5.893  1.3415  0.3279  1.7792
29613WAT     H220258   0.766   9.160   5.761 -1.4764  0.4079  1.7469
29613WAT    EPW20259   0.808   9.119   5.826 -0.0992  0.1712  0.7327
29614WAT      O20260   2.389   9.767   8.304 -0.0562  0.6350 -0.1168
29614WAT     H120261   2.298   9.792   8.287 -0.4962 -0.5711  0.3958
29614WAT     H220262   2.402   9.788   8.397 -0.8941 -2.2761  0.7370
29614WAT    EPW20263   2.379   9.773   8.314 -0.2248  0.0920  0.0629
29615WAT      O20264   0.509   3.853   1.477 -0.2723  0.4165 -0.4231
29615WAT     H120265   0.498   3.777   1.535  1.4502 -0.6860 -1.4331
29615WAT     H220266   0.522   3.927   1.537 -0.2155 -0.4019  0.6022
29615WAT    EPW20267   0.509   3.853   1.493 -0.0376  0.1632 -0.4210
29616WAT      O20268  -0.650   2.589   4.915 -0.0548 -1.1676 -0.8593
29616WAT     H120269  -0.656   2.605   4.821  4.0056 -0.4572 -1.1841
29616WAT     H220270  -0.632   2.495   4.921  0.4515 -1.0754 -0.8808
29616WAT    EPW20271  -0.649   2.578   4.903  0.5475 -1.0617 -0.9048
29617WAT      O20272   8.114   1.982   0.556  0.5092  0.1473 -0.0081
29617WAT     H120273   8.103   1.939   0.641  0.4025  0.5273  0.1685
29617WAT     H220274   8.088   2.073   0.571  1.3674  0.4292 -0.2300
29617WAT    EPW20275   8.109   1.988   0.569  0.6084  0.2347 -0.0141
29618WAT      O20276   7.201   9.028   0.121 -0.6237  0.4858  0.0173
29618WAT     H120277   7.251   8.960   0.076 -1.7656 -0.5232  0.2185
29618WAT     H220278   7.264   9.069   0.181  0.1738 -0.1336 -0.3894
29618WAT    EPW20279   7.216   9.024   0.123 -0.6692  0.2713 -0.0098
29619WAT      O20280  -0.162   2.179   7.777 -0.2909 -0.8384 -0.8909
29619WAT     H120281  -0.251   2.187   7.741 -0.6660 -0.4464  0.0878
29619WAT     H220282  -0.107   2.228   7.717 -1.1605  1.3085 -0.0545
29619WAT    EPW20283  -0.167   2.186   7.765 -0.4551 -0.5037 -0.6514
29620WAT      O20284   2.016   7.790   8.666 -0.3119  0.0178 -0.3726
29620WAT     H120285   1.993   7.881   8.683 -0.5136 -0.1787  0.4244
29620WAT     H220286   2.110   7.785   8.683 -0.6450 -0.3547  1.5534
29620WAT    EPW20287   2.025   7.801   8.670 -0.3825 -0.0572 -0.0138
29621WAT      O20288   0.903   8.528   5.382  0.4635 -0.3156 -0.3763
29621WAT     H120289   0.818   8.498   5.350  0.4091  0.1263 -0.6515
29621WAT     H220290   0.907   8.620   5.356  0.1897  0.2242  1.3264
29621WAT    EPW20291   0.892   8.536   5.375  0.4202 -0.1855 -0.1881
29622WAT      O20292   0.108   0.253   6.780 -0.3071 -0.4135 -0.0085
29622WAT     H120293   0.028   0.302   6.795  0.1922 -0.0474  1.5785
29622WAT     H220294   0.101   0.223   6.689 -0.3985  2.9792 -1.2609
29622WAT    EPW20295   0.097   0.255   6.770 -0.2533  0.0822  0.0358
29623WAT      O20296   2.229   8.957   5.128 -0.0432 -0.0493  0.1816
29623WAT     H120297   2.164   8.990   5.190 -0.6312 -0.1755 -0.3597
29623WAT     H220298   2.180   8.942   5.048  0.8550  0.8316 -0.5539
29623WAT    EPW20299   2.214   8.959   5.126 -0.0023  0.0501  0.0131
29624WAT      O20300   2.192   7.674   0.932  0.3154 -0.4351 -0.0724
29624WAT     H120301   2.228   7.756   0.900  1.8755 -0.8893  0.4373
29624WAT     H220302   2.178   7.621   0.854 -0.3932  0.1888 -0.3738
29624WAT    EPW20303   2.195   7.678   0.918  0.4277 -0.4127 -0.0449
29625WAT      O20304  -2.299   8.005   5.847 -0.1000 -0.0391 -0.2472
29625WAT     H120305  -2.209   7.974   5.861 -0.1457 -0.4512 -0.8451
29625WAT     H220306  -2.316   8.062   5.922  0.3486 -0.6527  0.3287
29625WAT    EPW20307  -2.289   8.009   5.859 -0.0468 -0.1745 -0.2501
29626WAT      O20308  -2.161   8.605   0.601  0.2757 -0.0508  0.2408
29626WAT     H120309  -2.093   8.567   0.545  0.9111  1.1987  0.1471
29626WAT     H220310  -2.190   8.532   0.656  1.4390 -0.6877  0.0344
29626WAT    EPW20311  -2.156   8.590   0.601  0.5130  0.0300  0.2013
29627WAT      O20312  -1.169   6.592   4.554  0.3032  0.1232 -0.8903
29627WAT     H120313  -1.230   6.663   4.576  0.5106  0.6282 -1.9091
29627WAT     H220314  -1.085   6.636   4.542  0.8886 -0.5639  0.4617
29627WAT    EPW20315  -1.166   6.607   4.556  0.4077  0.0994 -0.8464
29628WAT      O20316  -0.971   3.941   0.061 -0.5880  0.3924 -0.9131
29628WAT     H120317  -0.912   3.865   0.058 -0.7820 -0.0641  2.6165
29628WAT     H220318  -0.939   3.993   0.134 -2.7781  1.7132 -0.8175
29628WAT    EPW20319  -0.959   3.938   0.070 -0.9024  0.5063 -0.4350
29629WAT      O20320   5.915   2.160   3.685 -0.3356  0.3665 -0.1257
29629WAT     H120321   5.859   2.112   3.624  2.1032 -3.1188  0.0964
29629WAT     H220322   5.947   2.235   3.634 -0.9153 -0.6157 -2.0296
29629WAT    EPW20323   5.912   2.164   3.670 -0.0904 -0.2227 -0.3475
29630WAT      O20324   1.479   6.017   2.976  0.0133  0.9307 -0.5082
29630WAT     H120325   1.412   6.049   2.915 -1.5726  1.8697  1.6229
29630WAT     H220326   1.513   6.095   3.018  0.8912  0.2791  0.0323
29630WAT    EPW20327   1.475   6.031   2.973 -0.0801  0.9687 -0.1558
29631WAT      O20328   0.294   9.054   7.050  0.0772 -1.1851  0.1782
29631WAT     H120329   0.337   9.126   7.005 -1.7299  0.2097  0.5602
29631WAT     H220330   0.342   8.976   7.022  0.7774 -0.0737 -1.9113
29631WAT    EPW20331   0.306   9.053   7.041 -0.0688 -0.8545 -0.0472
29632WAT      O20332   0.470   9.514   3.975  0.3775 -0.2430  0.2915
29632WAT     H120333   0.452   9.422   3.956  1.3042 -0.8828  2.2626
29632WAT     H220334   0.454   9.523   4.069 -0.5405  1.8485 -0.0086
29632WAT    EPW20335   0.466   9.503   3.985  0.3787 -0.0515  0.5119
29633WAT      O20336  -7.841   8.059   8.663  0.6907 -0.2494  0.2867
29633WAT     H120337  -7.771   8.001   8.692  0.4488  0.5200  2.6210
29633WAT     H220338  -7.921   8.020   8.700  0.4100  1.0016  1.0498
29633WAT    EPW20339  -7.842   8.046   8.671  0.6218  0.0167  0.6952
29634WAT      O20340   2.902   2.136   0.884  0.3393  0.1835 -0.0726
29634WAT     H120341   2.943   2.139   0.798 -0.1471  0.7567 -0.2963
29634WAT     H220342   2.975   2.137   0.946  0.8652 -3.3151 -0.4349
29634WAT    EPW20343   2.917   2.137   0.881  0.3445 -0.2023 -0.1499
29635WAT      O20344   1.058   5.853   7.679  0.3514  0.0246 -0.4425
29635WAT     H120345   1.098   5.769   7.700 -1.5415 -0.7669  0.2426
29635WAT     H220346   1.087   5.912   7.748 -0.0383 -0.6592  0.3177
29635WAT    EPW20347   1.067   5.850   7.691  0.0503 -0.1700 -0.2520
29636WAT      O20348   5.557   6.572   1.576 -0.2228  0.1369  0.0097
29636WAT     H120349   5.570   6.667   1.579  1.4721 -0.0426 -0.4687
29636WAT     H220350   5.617   6.538   1.642 -2.0682 -0.5488  1.4386
29636WAT    EPW20351   5.567   6.580   1.585 -0.2425  0.0226  0.1351
29637WAT      O20352   6.342   8.791   0.443  0.2554  0.0083 -0.5271
29637WAT     H120353   6.409   8.782   0.511 -1.2880 -1.5509  0.8954
29637WAT     H220354   6.366   8.726   0.378 -1.4810 -2.9192  1.5189
29637WAT    EPW20355   6.354   8.781   0.444 -0.1774 -0.5832 -0.0696
29638WAT      O20356  -2.718   9.192   7.309  0.1607  0.0298 -0.2639
29638WAT     H120357  -2.759   9.257   7.366 -0.5556 -0.2075 -0.5026
29638WAT     H220358  -2.628   9.223   7.298  0.6031 -0.4268  1.7765
29638WAT    EPW20359  -2.711   9.205   7.315  0.1246 -0.0610 -0.0262
29639WAT      O20360   4.570   2.185   5.106  0.0454 -0.1315 -0.3671
29639WAT     H120361   4.492   2.171   5.159  0.8538 -1.3176  0.5839
29639WAT     H220362   4.569   2.112   5.043  1.3451 -1.3298  0.9139
29639WAT    EPW20363   4.560   2.173   5.104  0.3235 -0.4460 -0.0727
29640WAT      O20364   8.217   0.098   2.245  0.3431 -0.8774  0.1384
29640WAT     H120365   8.235   0.031   2.178  2.4944  0.3750 -0.6299
29640WAT     H220366   8.290   0.090   2.306  0.7176  0.8245 -0.0449
29640WAT    EPW20367   8.229   0.088   2.244  0.6762 -0.4878  0.0129
29641WAT      O20368   4.473   9.117   4.999 -0.1648 -0.4852 -0.0203
29641WAT     H120369   4.524   9.124   5.080 -0.8232 -0.6336  0.4137
29641WAT     H220370   4.497   9.195   4.949  0.7373 -0.7146  0.0257
29641WAT    EPW20371   4.483   9.128   5.003 -0.1328 -0.5350  0.0429
29642WAT      O20372   3.790   4.540   7.671 -0.6722 -0.1126  0.0683
29642WAT     H120373   3.776   4.445   7.672 -1.5427  0.0067  0.1673
29642WAT     H220374   3.743   4.570   7.593  0.5181  0.1142 -0.5914
29642WAT    EPW20375   3.782   4.532   7.661 -0.6301 -0.0670 -0.0055
29643WAT      O20376  -7.446  10.356   8.408 -0.0794  0.0696  1.0165
29643WAT     H120377  -7.534  10.371   8.442 -1.3882  0.9019 -2.2854
29643WAT     H220378  -7.398  10.314   8.480 -2.4413  1.6712  3.7152
29643WAT    EPW20379  -7.451  10.353   8.422 -0.5634  0.3910  0.9370
29644WAT      O20380   1.081   6.603   3.479 -0.1308  0.3316 -0.7947
29644WAT     H120381   1.022   6.616   3.405 -1.4829  0.1031  0.1978
29644WAT     H220382   1.072   6.510   3.501 -1.7136  0.8725  1.1810
29644WAT    EPW20383   1.072   6.592   3.473 -0.5178  0.3729 -0.4033
29645WAT      O20384   2.557   2.394   5.517  0.6132 -0.1430  0.5266
29645WAT     H120385   2.559   2.481   5.557 -0.9728 -0.5607  1.5976
29645WAT     H220386   2.509   2.407   5.435  2.3027  0.3707 -0.4322
29645WAT    EPW20387   2.551   2.408   5.512  0.6268 -0.1303  0.5414
29646WAT      O20388  -4.955   5.109   7.442 -0.4630 -0.7381 -0.2147
29646WAT     H120389  -5.020   5.118   7.512 -0.9055  1.5357 -0.8525
29646WAT     H220390  -4.942   5.014   7.434 -3.4060 -1.2630  0.1922
29646WAT    EPW20391  -4.962   5.097   7.450 -0.9096 -0.5074 -0.2451
29647WAT      O20392   6.033   6.808   2.214  0.0553  0.4343  0.1575
29647WAT     H120393   6.111   6.763   2.181 -0.4649 -1.4722  1.3612
29647WAT     H220394   5.979   6.822   2.136  0.5379 -0.4440 -0.3590
29647WAT    EPW20395   6.036   6.804   2.199  0.0503  0.0670  0.2481
29648WAT      O20396  -2.104   5.843   5.948 -0.3671 -0.0992  0.5114
29648WAT     H120397  -2.043   5.847   5.874 -1.0302  0.1251 -0.0280
29648WAT     H220398  -2.156   5.764   5.932 -1.9832  1.1169 -0.4328
29648WAT    EPW20399  -2.103   5.833   5.936 -0.6677  0.0906  0.3157
29649WAT      O20400  -0.856   0.085   3.817 -0.2095  0.0381  0.5197
29649WAT     H120401  -0.885   0.176   3.824 -0.3325  0.1161 -0.7583
29649WAT     H220402  -0.911   0.038   3.880 -2.6595  0.3190 -1.2336
29649WAT    EPW20403  -0.867   0.090   3.826 -0.5488  0.0854  0.1200
29650WAT      O20404  -5.006   6.680   4.950  0.3286 -0.2054  0.1149
29650WAT     H120405  -5.010   6.618   5.024  0.5596 -0.3394  0.0142
29650WAT     H220406  -5.058   6.638   4.881  0.2981 -0.1825  0.1240
29650WAT    EPW20407  -5.014   6.666   4.951  0.3550 -0.2201  0.1028
29651WAT      O20408   5.150   5.039   0.478 -0.5582 -0.1344  0.0579
29651WAT     H120409   5.236   5.000   0.459 -0.4027  0.4471 -0.4366
29651WAT     H220410   5.095   5.010   0.406 -0.9101 -0.8753  0.6031
29651WAT    EPW20411   5.154   5.030   0.466 -0.5844 -0.1554  0.0646
29652WAT      O20412   2.591   1.763   1.647 -0.1618 -0.4920  0.8665
29652WAT     H120413   2.559   1.842   1.604  0.6414  0.4979  2.0127
29652WAT     H220414   2.677   1.747   1.607 -1.1978 -2.0865 -0.8997
29652WAT    EPW20415   2.598   1.771   1.636 -0.1924 -0.5717  0.7848
29653WAT      O20416  -0.403   2.014   6.323 -0.4928 -0.1113  0.4359
29653WAT     H120417  -0.311   2.004   6.301 -0.3094  3.3469 -0.9091
29653WAT     H220418  -0.404   2.080   6.393 -1.9828  1.0225 -0.5962
29653WAT    EPW20419  -0.391   2.022   6.330 -0.6651  0.4945  0.1223
29654WAT      O20420  -1.398   1.333   8.014  0.0105  0.2955 -0.7510
29654WAT     H120421  -1.336   1.317   8.085  2.2978 -1.6317 -2.9749
29654WAT     H220422  -1.458   1.258   8.017  0.5853 -0.1964 -1.2732
29654WAT    EPW20423  -1.398   1.321   8.024  0.3880 -0.0235 -1.1129
29655WAT      O20424  -3.016   9.222   0.347  0.3922  0.6357  0.2380
29655WAT     H120425  -3.008   9.142   0.399  0.5300 -0.5974 -1.5922
29655WAT     H220426  -2.971   9.202   0.265  2.4093  3.3603  0.5147
29655WAT    EPW20427  -3.009   9.209   0.343  0.6764  0.8326  0.0331
29656WAT      O20428  -0.913   5.052   1.918  0.3859  0.5248  0.4345
29656WAT     H120429  -0.850   4.984   1.943  1.6527  1.7000  0.5974
29656WAT     H220430  -0.985   5.004   1.877  0.5308 -1.0280  1.8677
29656WAT    EPW20431  -0.914   5.037   1.916  0.5721  0.4749  0.6450
29657WAT      O20432   0.478   8.995   7.583  0.5251  0.0812 -0.1739
29657WAT     H120433   0.432   8.914   7.562  2.0063 -0.3826 -1.8627
29657WAT     H220434   0.410   9.052   7.619 -0.9697 -1.1907 -0.8404
29657WAT    EPW20435   0.463   8.992   7.585  0.5233 -0.1473 -0.4847
29658WAT      O20436   5.437   0.899   0.049  1.0203  0.1849  0.1347
29658WAT     H120437   5.362   0.957   0.067  0.7777  0.1943 -0.8623
29658WAT     H220438   5.421   0.822   0.103  2.1197  1.6127  2.6970
29658WAT    EPW20439   5.425   0.897   0.058  1.1332  0.3745  0.3411
29659WAT      O20440   6.638   1.380   4.470 -0.7111 -0.2318  0.1645
29659WAT     H120441   6.606   1.402   4.557 -1.5011  0.7120 -0.3515
29659WAT     H220442   6.615   1.288   4.459  1.6297 -1.1376  1.9051
29659WAT    EPW20443   6.631   1.371   4.480 -0.5064 -0.2268  0.3257
29660WAT      O20444   5.428  10.049   0.704  0.7580  0.3448  0.5546
29660WAT     H120445   5.354  10.020   0.650  0.1144  0.8991  1.1092
29660WAT     H220446   5.464  10.124   0.657  0.4772  0.5518  0.6641
29660WAT    EPW20447   5.423  10.055   0.691  0.6361  0.4454  0.6422
29661WAT      O20448   1.834   5.912   2.589  0.1798 -0.5061 -0.7082
29661WAT     H120449   1.874   5.960   2.517  1.4517 -0.1699  0.1870
29661WAT     H220450   1.894   5.838   2.606 -0.0732 -0.5583  0.0201
29661WAT    EPW20451   1.847   5.908   2.582  0.3142 -0.4687 -0.4941
29662WAT      O20452  -2.993   6.525   2.726  0.6545 -0.5678 -0.0223
29662WAT     H120453  -3.069   6.479   2.690  0.4948  0.2143 -0.7148
29662WAT     H220454  -2.941   6.549   2.649 -1.0950  3.6827 -0.1376
29662WAT    EPW20455  -2.996   6.522   2.711  0.4027  0.0961 -0.1289
29663WAT      O20456  -2.035   7.894   8.502  0.3265 -0.3680 -0.0258
29663WAT     H120457  -2.007   7.929   8.418 -2.0204  2.2527  0.1369
29663WAT     H220458  -1.966   7.920   8.564 -0.4511  2.5284 -0.2619
29663WAT    EPW20459  -2.022   7.902   8.499 -0.0856  0.3598 -0.0358
29664WAT      O20460   0.181   4.050   8.085  0.5263 -0.3176  0.0634
29664WAT     H120461   0.276   4.042   8.091  0.5182 -2.6616 -1.6956
29664WAT     H220462   0.148   3.999   8.158  0.5901  0.2681  0.5105
29664WAT    EPW20463   0.189   4.042   8.095  0.5336 -0.5496 -0.1097
29665WAT      O20464   5.673   2.288   5.628  0.7664  0.3450  0.4026
29665WAT     H120465   5.655   2.357   5.564 -4.5672 -1.3971 -0.5460
29665WAT     H220466   5.681   2.208   5.575 -0.7378 -0.7080  1.6589
29665WAT    EPW20467   5.672   2.286   5.612 -0.1354 -0.0236  0.4432
29666WAT      O20468  -0.048   1.331   3.338  0.1044  0.2816 -0.6206
29666WAT     H120469  -0.088   1.244   3.335 -0.6205  0.6313 -2.4968
29666WAT     H220470  -0.016   1.345   3.249  1.5874  1.3319  0.0400
29666WAT    EPW20471  -0.049   1.322   3.326  0.2044  0.4663 -0.7809
29667WAT      O20472   6.169   3.178   3.397 -0.9970 -1.0168  0.3512
29667WAT     H120473   6.156   3.230   3.318 -0.3032 -2.3958 -0.6991
29667WAT     H220474   6.192   3.243   3.464  2.1095 -0.1074 -1.4065
29667WAT    EPW20475   6.170   3.194   3.395 -0.4957 -1.0787 -0.0192
29668WAT      O20476  -1.466   3.366   1.704  0.3385  0.3412  0.3498
29668WAT     H120477  -1.412   3.324   1.637  0.5334 -0.4628  0.9873
29668WAT     H220478  -1.445   3.318   1.785  0.7458  1.8186  1.1664
29668WAT    EPW20479  -1.456   3.354   1.706  0.4179  0.4300  0.5416
29669WAT      O20480  -4.348   9.311   8.171 -0.4151 -0.1833  0.4888
29669WAT     H120481  -4.362   9.321   8.077 -1.3015 -0.2784  0.6015
29669WAT     H220482  -4.436   9.306   8.208 -0.1145  1.3236  1.4877
29669WAT    EPW20483  -4.362   9.311   8.163 -0.4923  0.0029  0.6356
29670WAT      O20484   2.168   8.644   8.673  0.3273 -0.4408  0.0642
29670WAT     H120485   2.242   8.689   8.633  0.0530 -0.9639 -1.0829
29670WAT     H220486   2.119   8.713   8.718  2.0261 -0.2489  1.7003
29670WAT    EPW20487   2.171   8.659   8.674  0.5152 -0.4845  0.1287
29671WAT      O20488   1.110   5.039   6.002  0.2574  0.1443 -0.1700
29671WAT     H120489   1.045   5.107   6.015 -2.6199 -2.3056 -0.5407
29671WAT     H220490   1.124   5.037   5.907  0.3468  0.2493 -0.1584
29671WAT    EPW20491   1.103   5.048   5.991 -0.1103 -0.1650 -0.2174
29672WAT      O20492   5.967   5.331   2.213 -0.3117 -0.2683  0.3009
29672WAT     H120493   6.054   5.312   2.179 -0.8570 -0.7979 -0.8724
29672WAT     H220494   5.955   5.269   2.284 -0.1395 -0.9450 -0.2500
29672WAT    EPW20495   5.977   5.320   2.218 -0.3610 -0.4275  0.0736
29673WAT      O20496  -0.498   5.356   0.712  0.4900  0.2079 -0.2074
29673WAT     H120497  -0.452   5.298   0.773  0.0073 -1.0707 -1.0080
29673WAT     H220498  -0.438   5.365   0.638  0.4993  0.6185 -0.1505
29673WAT    EPW20499  -0.484   5.350   0.710  0.4275  0.0932 -0.3056
29674WAT      O20500   7.421   4.241   0.304  0.4599  0.0477  0.3479
29674WAT     H120501   7.503   4.225   0.351 -1.2222 -0.0942  3.5658
29674WAT     H220502   7.416   4.172   0.238  2.5078 -0.4405  0.6550
29674WAT    EPW20503   7.431   4.230   0.302  0.5081 -0.0353  0.8128
29675WAT      O20504   3.497   7.655   6.939  0.0347 -0.5299 -0.1385
29675WAT     H120505   3.473   7.713   7.012 -1.3560  1.1722 -1.8210
29675WAT     H220506   3.419   7.600   6.927  0.9020 -1.9995  0.6771
29675WAT    EPW20507   3.483   7.655   6.947 -0.0343 -0.4992 -0.2530
29676WAT      O20508   5.603   5.447   4.531 -0.0430  0.3335  0.5526
29676WAT     H120509   5.661   5.408   4.596  0.0658  0.4273  0.5121
29676WAT     H220510   5.661   5.483   4.465 -0.1435  0.4837  0.5430
29676WAT    EPW20511   5.618   5.447   4.531 -0.0420  0.3660  0.5460
29677WAT      O20512  -4.231   7.448   8.126  0.3631 -0.3840 -0.1707
29677WAT     H120513  -4.169   7.376   8.113  0.8206  0.2478 -1.8100
29677WAT     H220514  -4.195   7.520   8.073 -1.4727  0.1841 -0.7198
29677WAT    EPW20515  -4.218   7.448   8.117  0.1814 -0.2255 -0.4592
29678WAT      O20516  -2.029   3.608   7.263 -0.3242  0.0591 -0.1037
29678WAT     H120517  -1.980   3.669   7.318 -0.5731 -0.1892  0.4024
29678WAT     H220518  -1.987   3.614   7.177 -0.6996  1.3713 -0.2233
29678WAT    EPW20519  -2.017   3.617   7.259 -0.4065  0.1994 -0.0529
29679WAT      O20520  -1.364   7.589   6.743 -0.0810 -0.0109  0.2717
29679WAT     H120521  -1.393   7.674   6.777 -0.4976 -0.1456  0.2624
29679WAT     H220522  -1.323   7.609   6.659  0.6408  0.2845  0.6859
29679WAT    EPW20523  -1.362   7.603   6.736 -0.0407  0.0103  0.3252
29680WAT      O20524  -4.043   4.056   5.543  0.7520  0.6322  0.6628
29680WAT     H120525  -3.967   4.094   5.499 -0.5073  1.0992 -1.2207
29680WAT     H220526  -4.049   4.103   5.626  1.6032  1.6748  0.1550
29680WAT    EPW20527  -4.034   4.067   5.548  0.6981  0.8311  0.3476
29681WAT      O20528  -3.308   5.581   4.430  0.1885 -0.4423  0.1946
29681WAT     H120529  -3.224   5.627   4.424  0.7326 -1.0353  2.3947
29681WAT     H220530  -3.326   5.575   4.524 -2.3329 -0.3539 -0.1955
29681WAT    EPW20531  -3.300   5.586   4.442 -0.0722 -0.5088  0.4332
29682WAT      O20532  -0.206   2.370   4.082  0.2788 -0.6514 -0.5491
29682WAT     H120533  -0.180   2.361   3.990  1.3587  1.6482 -0.5686
29682WAT     H220534  -0.143   2.434   4.117 -2.5982  1.7417  0.6687
29682WAT    EPW20535  -0.194   2.377   4.075  0.0418 -0.0324 -0.3910
29683WAT      O20536   0.191   1.220   5.843  0.2655 -0.3644  0.0270
29683WAT     H120537   0.172   1.254   5.930 -0.8227 -0.4901 -0.1417
29683WAT     H220538   0.208   1.299   5.790 -2.6883  0.0900 -0.4683
29683WAT    EPW20539   0.191   1.235   5.847 -0.2676 -0.3210 -0.0606
29684WAT      O20540   6.291   1.179   3.487  0.1464 -0.2958 -0.2319
29684WAT     H120541   6.326   1.142   3.568  1.3803 -0.5839 -0.8895
29684WAT     H220542   6.364   1.226   3.448 -1.2083  2.4950  0.3148
29684WAT    EPW20543   6.305   1.181   3.493  0.1304  0.0343 -0.2465
29685WAT      O20544  -1.116   6.492   3.985  0.1767  0.3422  0.2562
29685WAT     H120545  -1.090   6.572   3.937  0.7000  1.6675  2.6099
29685WAT     H220546  -1.207   6.507   4.008  0.6206  0.9083  1.7911
29685WAT    EPW20547  -1.124   6.505   3.981  0.3043  0.5918  0.7691
29686WAT      O20548  -1.488   1.775   8.902 -0.1481 -0.2310  0.5053
29686WAT     H120549  -1.442   1.809   8.978  2.0468  1.0273 -1.2875
29686WAT     H220550  -1.493   1.848   8.841 -3.9589 -0.4941  0.2058
29686WAT    EPW20551  -1.483   1.789   8.904 -0.3613 -0.0998  0.2294
29687WAT      O20552  -3.735   9.069   4.138  0.0937 -0.4522  0.9332
29687WAT     H120553  -3.664   9.015   4.172  2.3033  1.3323 -0.5270
29687WAT     H220554  -3.749   9.037   4.049  1.0998  0.9380  0.2225
29687WAT    EPW20555  -3.727   9.058   4.131  0.5177 -0.0339  0.6468
29688WAT      O20556   4.187   2.366   8.846  0.3422  0.1774  0.0005
29688WAT     H120557   4.210   2.398   8.758  2.6366 -0.6781  0.1997
29688WAT     H220558   4.251   2.408   8.904  0.3549 -1.0539  0.9197
29688WAT    EPW20559   4.199   2.376   8.842  0.6464 -0.0978  0.1483
29689WAT      O20560   1.968   8.927   2.725 -0.0444  0.2004  0.2471
29689WAT     H120561   1.957   8.964   2.637 -0.8984  3.5841  1.6554
29689WAT     H220562   1.952   9.000   2.784 -0.7291 -2.2425  3.3018
29689WAT    EPW20563   1.965   8.941   2.721 -0.2474  0.3247  0.8357
29690WAT      O20564   7.642   0.568   4.649 -0.2816 -0.7284 -0.2947
29690WAT     H120565   7.664   0.516   4.726 -1.3310  0.6382  0.9800
29690WAT     H220566   7.550   0.550   4.633 -1.3928  2.4252  1.6706
29690WAT    EPW20567   7.633   0.559   4.657 -0.5665 -0.1322  0.1328
29691WAT      O20568  -1.370   5.096   1.419 -0.2714 -0.4308 -0.7309
29691WAT     H120569  -1.401   5.144   1.342  0.7712  0.1144 -0.8194
29691WAT     H220570  -1.281   5.126   1.433 -0.0003 -1.4661 -0.0602
29691WAT    EPW20571  -1.363   5.106   1.411 -0.0981 -0.4954 -0.6541
29692WAT      O20572  -1.586   1.304   2.108 -0.8729 -0.8129 -0.4087
29692WAT     H120573  -1.650   1.375   2.105 -0.1247 -0.1060 -0.0169
29692WAT     H220574  -1.524   1.330   2.176  0.2734 -1.0811 -1.3152
29692WAT    EPW20575  -1.586   1.317   2.116 -0.6230 -0.7550 -0.4766
29693WAT      O20576   1.876   1.270   8.013  0.4936 -0.4527 -0.1647
29693WAT     H120577   1.871   1.218   7.933 -0.5645 -0.9472  0.2100
29693WAT     H220578   1.813   1.230   8.072  0.4288  0.6084  0.5178
29693WAT    EPW20579   1.867   1.258   8.010  0.3455 -0.3780 -0.0248
29694WAT      O20580  -1.873   9.329   7.626  0.2092  0.7797  0.2012
29694WAT     H120581  -1.849   9.309   7.717 -0.6835  0.1061  0.3060
29694WAT     H220582  -1.796   9.374   7.590  0.7936  0.5444  1.1187
29694WAT    EPW20583  -1.860   9.332   7.633  0.1685  0.6599  0.3362
29695WAT      O20584   6.290   7.443   1.114  0.2610 -0.5618  0.0529
29695WAT     H120585   6.308   7.384   1.040  0.1466 -1.1444  0.4800
29695WAT     H220586   6.344   7.408   1.185 -0.0820 -0.3615  0.4113
29695WAT    EPW20587   6.300   7.430   1.114  0.2005 -0.6123  0.1565
29696WAT      O20588  -3.864   1.705   6.922  0.0778 -0.1055 -0.7526
29696WAT     H120589  -3.868   1.724   6.828 -2.7292  0.4625 -0.6087
29696WAT     H220590  -3.850   1.791   6.963  1.0358 -0.3160 -0.6219
29696WAT    EPW20591  -3.863   1.719   6.915 -0.1661 -0.0584 -0.7164
29697WAT      O20592  -3.933   3.220   5.588 -0.4756 -0.9219  0.5413
29697WAT     H120593  -4.020   3.259   5.577 -0.9148 -2.2303 -0.8666
29697WAT     H220594  -3.885   3.247   5.510  0.5974  0.2093  1.5414
29697WAT    EPW20595  -3.938   3.229   5.576 -0.3921 -0.9453  0.4878
29698WAT      O20596   0.611   3.948   4.552  0.0695  0.1928  0.3976
29698WAT     H120597   0.526   3.991   4.565  0.0330  0.0924  0.4917
29698WAT     H220598   0.671   3.994   4.612  0.0830  0.2665  0.3280
29698WAT    EPW20599   0.608   3.960   4.562  0.0665  0.1892  0.4010
29699WAT      O20600   5.004   8.468   0.813 -0.2470  0.2900  0.4245
29699WAT     H120601   5.034   8.498   0.727  1.0841  0.0414  0.7787
29699WAT     H220602   4.912   8.444   0.800  0.0767 -0.2158 -1.0423
29699WAT    EPW20603   4.996   8.469   0.800 -0.0286  0.1903  0.2778
29700WAT      O20604   2.158   6.608   2.368  0.1921 -0.3696 -0.0496
29700WAT     H120605   2.146   6.513   2.364 -1.9077 -0.2109  1.0318
29700WAT     H220606   2.117   6.640   2.287 -0.1903 -0.3117  0.1653
29700WAT    EPW20607   2.151   6.600   2.357 -0.1353 -0.3409  0.1214
29701WAT      O20608  -1.686   9.339   4.082 -0.9148  0.1927 -0.3120
29701WAT     H120609  -1.714   9.324   3.992  1.2585  0.8951 -1.1740
29701WAT     H220610  -1.761   9.383   4.123 -2.9819 -2.4947 -0.9379
29701WAT    EPW20611  -1.700   9.343   4.076 -0.9009 -0.0687 -0.5083
29702WAT      O20612   0.522   5.862   1.513  0.3555  0.0913 -0.0269
29702WAT     H120613   0.611   5.872   1.478 -0.5037  1.2655 -2.0644
29702WAT     H220614   0.486   5.951   1.512 -0.1347  0.0286  2.9865
29702WAT    EPW20615   0.529   5.875   1.508  0.1775  0.2379  0.1019
29703WAT      O20616   1.119   6.254   2.474  0.2667 -0.0226 -0.0286
29703WAT     H120617   1.167   6.172   2.485  0.5022 -0.0313 -0.9847
29703WAT     H220618   1.081   6.247   2.386 -0.4436  0.5179  0.2275
29703WAT    EPW20619   1.120   6.242   2.463  0.2041  0.0474 -0.1209
29704WAT      O20620   2.348   4.070   4.499  0.1879 -0.1114  0.9281
29704WAT     H120621   2.437   4.060   4.533  0.1940  0.3391  1.0552
29704WAT     H220622   2.319   4.155   4.534 -0.7599 -0.8279  1.9376
29704WAT    EPW20623   2.356   4.080   4.508  0.0637 -0.1464  1.0779
29705WAT      O20624  -5.362   4.936   7.521 -0.0808 -0.1110 -0.3533
29705WAT     H120625  -5.440   4.979   7.557  0.6738  0.5382  0.5697
29705WAT     H220626  -5.354   4.855   7.571 -1.0350 -0.9596 -1.5295
29705WAT    EPW20627  -5.371   4.931   7.533 -0.1070 -0.1376 -0.3867
29706WAT      O20628   2.510   4.082   5.690  0.4148  0.1777 -0.4389
29706WAT     H120629   2.457   4.136   5.748 -1.4499 -0.3088 -1.5992
29706WAT     H220630   2.446   4.035   5.636  1.9823  1.2849 -3.5388
29706WAT    EPW20631   2.495   4.083   5.690  0.3756  0.2594 -1.0009
29707WAT      O20632  -0.557   0.474   6.941  0.0154 -0.0941  0.9056
29707WAT     H120633  -0.485   0.488   6.879  0.7325 -1.8385  1.3111
29707WAT     H220634  -0.530   0.521   7.020  0.2058  0.1236  0.7143
29707WAT    EPW20635  -0.544   0.482   6.943  0.1351 -0.2955  0.9336
29708WAT      O20636  -4.748  10.027   5.936  0.1804  0.1442  0.4283
29708WAT     H120637  -4.730  10.037   5.842 -0.2862 -0.5660  0.2564
29708WAT     H220638  -4.663  10.043   5.978  0.2696  1.0354 -0.0701
29708WAT    EPW20639  -4.734  10.030   5.929  0.1304  0.1683  0.3400
29709WAT      O20640   5.507   1.002   6.218  0.3133  0.5396 -0.8540
29709WAT     H120641   5.476   0.962   6.137  0.5705  1.0820 -1.2303
29709WAT     H220642   5.428   1.037   6.258 -0.2623 -2.1397  0.5567
29709WAT    EPW20643   5.492   1.002   6.212  0.2713  0.2578 -0.7174
29710WAT      O20644   2.174   6.180   2.883 -0.4468  0.1252 -1.1472
29710WAT     H120645   2.103   6.148   2.827 -2.1420  1.7367 -0.0268
29710WAT     H220646   2.130   6.227   2.953  1.7445  0.8477 -0.1684
29710WAT    EPW20647   2.159   6.182   2.885 -0.3814  0.4330 -0.8703
29711WAT      O20648  -1.707   2.507   1.528  0.5655  0.1089 -0.2014
29711WAT     H120649  -1.649   2.494   1.603  0.2633 -1.8283 -0.2592
29711WAT     H220650  -1.647   2.512   1.453  0.7448 -1.9710 -0.2713
29711WAT    EPW20651  -1.691   2.506   1.528  0.5493 -0.4210 -0.2182
29712WAT      O20652  -3.819   9.162   7.066  0.3560  0.5777 -0.4598
29712WAT     H120653  -3.745   9.122   7.111 -1.0142 -1.3542  0.2144
29712WAT     H220654  -3.890   9.099   7.076 -1.4963  2.4939 -0.7854
29712WAT    EPW20655  -3.819   9.149   7.073 -0.0689  0.5755 -0.4137
29713WAT      O20656   3.426   2.834   5.480  0.6491  0.1403  0.6096
29713WAT     H120657   3.394   2.862   5.566 -1.1928  1.8608 -0.5370
29713WAT     H220658   3.473   2.910   5.446 -0.8510  0.4690 -0.8890
29713WAT    EPW20659   3.428   2.848   5.487  0.2083  0.4107  0.2608
29714WAT      O20660  -3.050   4.211   4.379 -0.4183 -0.4942 -0.0242
29714WAT     H120661  -3.029   4.305   4.375 -2.0310  0.0314  2.0160
29714WAT     H220662  -3.141   4.207   4.349 -0.6433 -1.2573  0.7304
29714WAT    EPW20663  -3.059   4.223   4.374 -0.6605 -0.5252  0.3443
29715WAT      O20664   5.718   4.158   4.619 -0.2555 -0.3827  0.6557
29715WAT     H120665   5.653   4.150   4.688  0.1455  1.5595  1.3192
29715WAT     H220666   5.682   4.224   4.559 -0.9201 -2.5057 -1.4399
29715WAT    EPW20667   5.705   4.165   4.620 -0.2902 -0.4065  0.4668
29716WAT      O20668   1.813   7.283   7.708  0.0947  0.5128  0.1231
29716WAT     H120669   1.774   7.287   7.621  0.8712  0.4770 -0.2372
29716WAT     H220670   1.905   7.307   7.694 -0.0326  1.6626  1.1146
29716WAT    EPW20671   1.820   7.287   7.695  0.1803  0.6597  0.2062
29717WAT      O20672   1.509   6.036   7.714 -0.5161  1.1061 -0.0773
29717WAT     H120673   1.579   6.097   7.692 -0.3093  0.7465 -0.4305
29717WAT     H220674   1.429   6.088   7.707 -0.3458  1.3200 -0.4494
29717WAT    EPW20675   1.508   6.051   7.710 -0.4664  1.0870 -0.1729
29718WAT      O20676   7.640   4.950   1.479  0.1387 -0.2421  0.8363
29718WAT     H120677   7.664   5.043   1.478 -2.0912  0.5730 -3.4589
29718WAT     H220678   7.719   4.904   1.450  0.3533  0.7552 -0.2222
29718WAT    EPW20679   7.653   4.956   1.475 -0.1271 -0.0031  0.1302
29719WAT      O20680  -2.391   7.396   6.326  0.7103 -0.7784  0.1173
29719WAT     H120681  -2.305   7.423   6.294  0.4884  0.5931  0.6003
29719WAT     H220682  -2.393   7.427   6.417 -0.7459  0.2940 -0.2571
29719WAT    EPW20683  -2.379   7.403   6.334  0.4891 -0.4561  0.1316
29720WAT      O20684   4.018   6.541   0.084 -0.3213 -0.2443  0.7061
29720WAT     H120685   3.935   6.513   0.046  0.0564 -0.7450  0.2217
29720WAT     H220686   4.046   6.467   0.139 -1.8444  1.2311  3.7023
29720WAT    EPW20687   4.011   6.527   0.086 -0.4723 -0.1156  1.0374
29721WAT      O20688  -4.658   3.553   7.678 -0.6159 -1.0736  0.2862
29721WAT     H120689  -4.640   3.459   7.678 -0.0922 -0.9835 -0.8401
29721WAT     H220690  -4.689   3.571   7.589 -0.1730 -0.0769  0.3268
29721WAT    EPW20691  -4.660   3.543   7.666 -0.4885 -0.9303  0.1431
29722WAT      O20692  -3.063   4.837   4.355 -0.6812 -0.6308 -0.0480
29722WAT     H120693  -3.077   4.908   4.417 -0.9387 -1.5245  0.9422
29722WAT     H220694  -2.967   4.829   4.349 -0.6241  0.3341 -0.8321
29722WAT    EPW20695  -3.052   4.845   4.362 -0.7075 -0.6216 -0.0207
29723WAT      O20696   5.699   6.111   2.489  0.3235  0.2390  0.1709
29723WAT     H120697   5.705   6.206   2.477 -3.7132  0.9255  1.8752
29723WAT     H220698   5.753   6.093   2.566 -0.3012  1.5467  0.9556
29723WAT    EPW20699   5.707   6.122   2.497 -0.2913  0.5019  0.4991
29724WAT      O20700   2.568   2.313   5.865 -0.1261 -0.5228 -0.6535
29724WAT     H120701   2.558   2.404   5.836  3.2262  0.2652  0.2886
29724WAT     H220702   2.510   2.307   5.942 -2.1060  0.0440 -2.0088
29724WAT    EPW20703   2.559   2.324   5.871  0.0548 -0.3440 -0.7081
29725WAT      O20704   3.350   4.459   1.200  0.1143  0.1407 -0.8694
29725WAT     H120705   3.340   4.493   1.289  0.0995 -1.2706 -0.3050
29725WAT     H220706   3.261   4.455   1.166  0.1571  1.0998 -1.1328
29725WAT    EPW20707   3.337   4.463   1.207  0.1180  0.0811 -0.8296
29726WAT      O20708  -5.301  10.050   3.630  0.6791  0.7798 -0.0622
29726WAT     H120709  -5.349   9.970   3.610  2.1793  0.2639 -1.9209
29726WAT     H220710  -5.294  10.096   3.547  2.3717  1.3810  0.3595
29726WAT    EPW20711  -5.306  10.045   3.617  1.1001  0.7911 -0.2518
29727WAT      O20712   4.996   0.345   3.677 -0.9931  0.1533 -1.0027
29727WAT     H120713   5.088   0.331   3.698 -1.2447  0.2451  0.2460
29727WAT     H220714   4.969   0.417   3.735 -2.3802 -1.3043  0.2543
29727WAT    EPW20715   5.005   0.353   3.688 -1.2090 -0.0268 -0.6721
29728WAT      O20716   2.248   4.419   5.995 -0.5198 -0.1492  0.4315
29728WAT     H120717   2.295   4.495   5.961 -2.3906  0.5473 -0.7002
29728WAT     H220718   2.156   4.442   5.988 -1.1004 -1.9090  1.5798
29728WAT    EPW20719   2.242   4.432   5.990 -0.8432 -0.2892  0.4337
29729WAT      O20720  -5.786   7.058   8.073  0.7570  0.5251  0.5179
29729WAT     H120721  -5.761   6.965   8.069 -0.2388  0.2571  0.1656
29729WAT     H220722  -5.712   7.104   8.034  0.9602 -0.1951  0.0169
29729WAT    EPW20723  -5.773   7.052   8.067  0.6526  0.3948  0.4053
29730WAT      O20724   8.438   6.458   0.039 -0.1593 -0.1329  0.8248
29730WAT     H120725   8.369   6.478  -0.024  0.8377 -1.6844 -0.8405
29730WAT     H220726   8.520   6.475  -0.008  0.6215 -0.2748  2.0791
29730WAT    EPW20727   8.440   6.463   0.025  0.0751 -0.3563  0.7710
29731WAT      O20728   2.107   2.838   1.167  0.3489 -0.6878  0.6949
29731WAT     H120729   2.040   2.773   1.142  0.0417 -0.3410  0.6047
29731WAT     H220730   2.160   2.849   1.088  0.6148 -1.0827  0.8151
29731WAT    EPW20731   2.105   2.831   1.153  0.3436 -0.6942  0.6989
29732WAT      O20732   3.722   8.210   2.167 -0.0026 -0.2687  0.5780
29732WAT     H120733   3.722   8.305   2.162 -0.2274 -0.3115 -0.6169
29732WAT     H220734   3.780   8.190   2.241 -0.6727  0.7987  1.4178
29732WAT    EPW20735   3.730   8.220   2.176 -0.1206 -0.1335  0.5312
29733WAT      O20736   2.800   1.241   3.632  0.1565  0.7476  0.1833
29733WAT     H120737   2.749   1.319   3.654 -0.4907  0.3484  0.0954
29733WAT     H220738   2.773   1.219   3.543  1.4836  1.3275 -0.3893
29733WAT    EPW20739   2.790   1.249   3.623  0.2462  0.7714  0.0962
29734WAT      O20740  -6.334   8.310   7.261  0.1595  0.3056  0.4308
29734WAT     H120741  -6.352   8.248   7.190  1.2544  1.7273 -1.1642
29734WAT     H220742  -6.297   8.256   7.331 -1.2683 -1.1851  0.0854
29734WAT    EPW20743  -6.332   8.295   7.261  0.1156  0.2961  0.1750
29735WAT      O20744  -0.146   2.198   1.693  0.0767 -0.0507  0.1516
29735WAT     H120745  -0.086   2.264   1.658  0.4603  0.2046  1.2517
29735WAT     H220746  -0.218   2.249   1.730 -0.0717 -0.2992  0.2055
29735WAT    EPW20747  -0.148   2.214   1.693  0.1077 -0.0497  0.3038
29736WAT      O20748  -1.353   1.993   1.473  0.4433 -0.2615  0.4915
29736WAT     H120749  -1.327   1.967   1.385 -0.9548 -1.6429  0.4374
29736WAT     H220750  -1.332   2.086   1.479 -0.5423  0.1574 -1.7477
29736WAT    EPW20751  -1.347   2.001   1.462  0.1289 -0.3885  0.1891
29737WAT      O20752   0.195   6.757   7.671 -0.1867 -0.2215  0.0745
29737WAT     H120753   0.246   6.798   7.601 -1.0965 -1.7108 -1.5395
29737WAT     H220754   0.260   6.709   7.723  0.7764  2.4325  1.5211
29737WAT    EPW20755   0.210   6.756   7.669 -0.1797 -0.0679  0.0522
29738WAT      O20756   2.317   7.424   1.878  0.4687 -0.3005  0.6173
29738WAT     H120757   2.387   7.478   1.916 -0.6272  0.3201  1.8078
29738WAT     H220758   2.244   7.432   1.939 -0.8865 -0.4309 -0.9178
29738WAT    EPW20759   2.317   7.432   1.891  0.1454 -0.2360  0.5718
29739WAT      O20760  -4.011   9.749   4.625  0.1045  0.1630 -0.0292
29739WAT     H120761  -4.007   9.653   4.627  3.0756  0.1997  0.5396
29739WAT     H220762  -3.977   9.773   4.539  0.7300  0.7177  0.3668
29739WAT    EPW20763  -4.006   9.739   4.614  0.5791  0.2413  0.0980
29740WAT      O20764   2.155   7.201   1.253  0.6957  0.2609 -0.5938
29740WAT     H120765   2.242   7.169   1.277  1.6870  3.0389 -0.1235
29740WAT     H220766   2.139   7.273   1.313 -1.5176  0.4860 -1.3653
29740WAT    EPW20767   2.164   7.206   1.264  0.5345  0.6571 -0.6335
29741WAT      O20768  -2.066   5.926   8.060  0.2385 -0.1004 -0.4003
29741WAT     H120769  -2.140   5.877   8.024 -0.2362  0.2744  0.0607
29741WAT     H220770  -2.032   5.869   8.129  2.6042 -1.9134 -2.8470
29741WAT    EPW20771  -2.071   5.912   8.064  0.4879 -0.2902 -0.6618
29742WAT      O20772  -5.032   2.839   7.067 -0.0061 -0.2916 -0.0776
29742WAT     H120773  -5.126   2.857   7.075  0.2454  0.6914  0.8395
29742WAT     H220774  -5.019   2.823   6.974 -0.9441  0.3750 -0.3366
29742WAT    EPW20775  -5.043   2.839   7.056 -0.0968 -0.0740  0.0093
29743WAT      O20776   3.229   3.745   7.679  0.3824  0.3550  0.1368
29743WAT     H120777   3.236   3.784   7.592  1.6685  0.5323  0.3088
29743WAT     H220778   3.240   3.651   7.664  0.3318  0.3577  0.0814
29743WAT    EPW20779   3.231   3.737   7.666  0.5453  0.3787  0.1521
29744WAT      O20780  -1.582   8.899   3.222  0.1343  0.4624 -0.5228
29744WAT     H120781  -1.500   8.949   3.219  0.4074 -0.0000 -1.6982
29744WAT     H220782  -1.571   8.838   3.295  1.0075  0.1585 -0.8949
29744WAT    EPW20783  -1.570   8.897   3.231  0.2855  0.3610 -0.7268
29745WAT      O20784   4.303   4.454   7.895  0.5116  0.4879 -0.2384
29745WAT     H120785   4.311   4.535   7.946 -2.4329  0.5643  0.2602
29745WAT     H220786   4.287   4.484   7.805  0.9840  0.4209 -0.3468
29745WAT    EPW20787   4.302   4.469   7.890  0.1857  0.4890 -0.1867
29746WAT      O20788  -0.161   5.602   7.215 -0.2189 -0.2865 -0.0478
29746WAT     H120789  -0.177   5.530   7.155  1.0976 -0.3241 -0.3868
29746WAT     H220790  -0.247   5.639   7.232 -0.6533 -0.4155 -1.7919
29746WAT    EPW20791  -0.174   5.598   7.209 -0.1026 -0.3085 -0.3226
29747WAT      O20792   0.629   6.179   3.807  1.0733 -0.0834  0.6053
29747WAT     H120793   0.557   6.129   3.845  2.7755 -2.0264  1.4772
29747WAT     H220794   0.608   6.186   3.714 -1.3091  1.4461  1.1645
29747WAT    EPW20795   0.617   6.174   3.800  0.9835 -0.1380  0.7941
29748WAT      O20796   0.655   1.128   6.047 -0.5949  0.2821  0.7391
29748WAT     H120797   0.600   1.123   5.969  0.6579 -2.0372 -0.0687
29748WAT     H220798   0.740   1.095   6.020  0.3735  0.9721  2.6989
29748WAT    EPW20799   0.659   1.123   6.033 -0.3019  0.0671  0.8910
29749WAT      O20800   2.649   7.158   6.029  0.1773 -0.1194  0.1667
29749WAT     H120801   2.687   7.244   6.048  0.7859 -0.4295  0.4008
29749WAT     H220802   2.559   7.176   6.002  1.1157  0.8578 -2.6513
29749WAT    EPW20803   2.642   7.172   6.028  0.3814 -0.0315 -0.1743
29750WAT      O20804  -0.985   7.648   2.549  0.0695  0.2853 -0.2898
29750WAT     H120805  -1.028   7.579   2.599 -1.9429  0.9169 -1.0515
29750WAT     H220806  -0.892   7.631   2.560  0.0007  1.7449  5.6737
29750WAT    EPW20807  -0.978   7.637   2.557 -0.2050  0.5612  0.3963
29751WAT      O20808  -2.558   0.387   5.327 -0.5070  0.8197  0.6796
29751WAT     H120809  -2.481   0.443   5.333  0.3930 -0.2933 -0.0334
29751WAT     H220810  -2.554   0.350   5.239 -1.2222 -0.1540  1.0393
29751WAT    EPW20811  -2.548   0.390   5.316 -0.4827  0.5444  0.6330
29752WAT      O20812  -0.001   8.320   8.113 -0.1677 -0.3128 -0.2459
29752WAT     H120813   0.073   8.316   8.174  3.1219 -0.8958 -3.8747
29752WAT     H220814  -0.067   8.262   8.152  2.6693 -2.5719  1.6222
29752WAT    EPW20815   0.000   8.312   8.126  0.6404 -0.6876 -0.4778
29753WAT      O20816   4.680   0.166   7.982 -0.6240 -0.0227  0.0708
29753WAT     H120817   4.767   0.143   7.949  0.0343  1.0669  0.9997
29753WAT     H220818   4.669   0.112   8.060 -1.5724 -1.4979 -1.0093
29753WAT    EPW20819   4.690   0.156   7.988 -0.6621 -0.0735  0.0508
29754WAT      O20820   3.618   1.347   1.686  0.8842  0.2780  0.4100
29754WAT     H120821   3.636   1.441   1.685 -0.3425  0.5387 -1.0615
29754WAT     H220822   3.609   1.326   1.779 -0.8230  2.0561  0.7156
29754WAT    EPW20823   3.619   1.357   1.698  0.4972  0.5469  0.2562
29755WAT      O20824  -5.525   9.250   8.518  0.1862  0.2146  0.1031
29755WAT     H120825  -5.534   9.240   8.613 -5.0091 -0.0574 -0.1203
29755WAT     H220826  -5.500   9.163   8.488 -2.0942 -0.8880  1.1040
29755WAT    EPW20827  -5.523   9.237   8.527 -0.7999  0.0334  0.2060
29756WAT      O20828   5.699   6.405   0.237 -0.1083  0.6563  0.3784
29756WAT     H120829   5.663   6.429   0.322  0.8071  1.4465  0.5645
29756WAT     H220830   5.790   6.382   0.256 -0.6258 -2.0240  0.0493
29756WAT    EPW20831   5.707   6.405   0.250 -0.0558  0.4072  0.3595
29757WAT      O20832   0.197   2.332   8.701  0.1962  0.1740  0.6843
29757WAT     H120833   0.157   2.254   8.739  2.0470 -0.7714  0.7997
29757WAT     H220834   0.124   2.378   8.659 -0.8478 -2.0143 -0.0668
29757WAT    EPW20835   0.182   2.328   8.700  0.3026 -0.2394  0.6003
29758WAT      O20836  -1.539   3.574   6.837  0.0688  0.4791 -0.2719
29758WAT     H120837  -1.539   3.603   6.745  0.7729  2.2379  0.2424
29758WAT     H220838  -1.464   3.514   6.843  1.6564  2.3705 -0.2986
29758WAT    EPW20839  -1.529   3.570   6.825  0.3711  0.9606 -0.2074
29759WAT      O20840   2.501   6.927   7.413  0.0587  0.3297  0.0995
29759WAT     H120841   2.434   6.859   7.408 -0.6172  1.0360 -0.8944
29759WAT     H220842   2.570   6.889   7.467 -1.3565 -0.2381  1.5960
29759WAT    EPW20843   2.501   6.913   7.420 -0.2172  0.3479  0.1657
29760WAT      O20844   6.588   1.191   1.827  0.5574  0.1597 -0.0184
29760WAT     H120845   6.589   1.168   1.920 -2.4547  2.4536  0.7464
29760WAT     H220846   6.549   1.114   1.784 -0.8748  0.1999  1.1159
29760WAT    EPW20847   6.583   1.178   1.834 -0.0288  0.4676  0.2321
29761WAT      O20848  -2.142   7.598   8.632 -0.1966  0.0280 -0.2474
29761WAT     H120849  -2.167   7.519   8.585 -0.1383  0.4064 -0.9207
29761WAT     H220850  -2.102   7.566   8.713 -0.5816 -0.6202 -0.3079
29761WAT    EPW20851  -2.140   7.584   8.637 -0.2396 -0.0074 -0.3438
29762WAT      O20852  -2.853   0.555   6.872  0.3578  0.2994 -0.2664
29762WAT     H120853  -2.929   0.544   6.930 -1.2513  0.1923 -2.2483
29762WAT     H220854  -2.884   0.521   6.788  3.4052 -1.9154 -0.6504
29762WAT    EPW20855  -2.867   0.549   6.869  0.5475 -0.0069 -0.5784
29763WAT      O20856  -1.047   6.985   1.519 -0.3057  0.5412  0.2860
29763WAT     H120857  -0.979   7.010   1.456 -0.2737  1.4516  0.6685
29763WAT     H220858  -1.040   7.050   1.589 -2.2386  1.2836 -0.1548
29763WAT    EPW20859  -1.037   6.997   1.520 -0.5564  0.7591  0.2783
29764WAT      O20860   4.160   1.919   4.371 -0.0526  0.6887  0.7089
29764WAT     H120861   4.218   1.964   4.432  0.7678 -1.7077  1.8231
29764WAT     H220862   4.205   1.837   4.351 -0.9734  0.7610 -2.0496
29764WAT    EPW20863   4.174   1.914   4.377 -0.0658  0.3822  0.4919
29765WAT      O20864  -2.824   2.388   5.305 -0.2198 -0.2466 -0.4789
29765WAT     H120865  -2.800   2.334   5.230 -0.8068  0.1099 -0.9380
29765WAT     H220866  -2.741   2.422   5.339  0.0609 -0.5489 -0.8590
29765WAT    EPW20867  -2.810   2.385   5.300 -0.2602 -0.2395 -0.5896
29766WAT      O20868   6.450   4.953   2.326 -0.0481  0.0472 -0.0577
29766WAT     H120869   6.538   4.915   2.332 -0.3772 -0.5539  1.2873
29766WAT     H220870   6.408   4.903   2.256 -1.1292 -3.6628  2.8918
29766WAT    EPW20871   6.456   4.941   2.317 -0.2341 -0.5212  0.5087
29767WAT      O20872  -2.032   9.825   6.801 -0.5914  0.2141 -0.4429
29767WAT     H120873  -2.002   9.786   6.719 -1.8764  0.6016 -1.1265
29767WAT     H220874  -1.980   9.782   6.869  1.1828  0.5885 -1.5187
29767WAT    EPW20875  -2.022   9.814   6.799 -0.5268  0.3147 -0.6750
29768WAT      O20876   0.147   8.742   5.339 -0.8202 -0.2543  0.4243
29768WAT     H120877   0.082   8.811   5.329  0.4561  1.5601  3.2353
29768WAT     H220878   0.200   8.746   5.259  0.1285  3.1840  1.0548
29768WAT    EPW20879   0.146   8.752   5.327 -0.5267  0.4387  0.8783
29769WAT      O20880   4.069   4.592   4.466  0.3146 -0.2721 -0.4500
29769WAT     H120881   3.979   4.585   4.496 -0.0213 -0.0502 -1.3629
29769WAT     H220882   4.116   4.522   4.511 -0.4186 -0.6857 -0.3283
29769WAT    EPW20883   4.064   4.582   4.476  0.1736 -0.2975 -0.5543
29770WAT      O20884   0.389   9.843   4.149 -0.3628 -0.3044 -0.7580
29770WAT     H120885   0.460   9.853   4.085 -1.9877 -2.1874 -3.0075
29770WAT     H220886   0.364   9.933   4.169 -0.7897  0.4535 -4.0577
29770WAT    EPW20887   0.395   9.857   4.143 -0.6334 -0.4530 -1.4896
29771WAT      O20888   1.677   7.421   3.813  0.5297  0.2821 -0.9130
29771WAT     H120889   1.746   7.357   3.828 -1.3130 -1.8369 -1.0086
29771WAT     H220890   1.609   7.373   3.766 -1.2460  2.1237 -0.3736
29771WAT    EPW20891   1.677   7.406   3.809  0.0525  0.2456 -0.8545
29772WAT      O20892   3.443   8.240   7.075 -0.1291 -0.8045  0.4032
29772WAT     H120893   3.459   8.324   7.118  0.8190 -0.6314 -0.2540
29772WAT     H220894   3.487   8.176   7.131  0.0992 -0.7225  0.3188
29772WAT    EPW20895   3.451   8.242   7.088  0.0260 -0.7715  0.3054
29773WAT      O20896   4.311   7.141   2.864 -0.1763  0.3284 -0.1967
29773WAT     H120897   4.323   7.215   2.923  0.4526  0.6777 -0.7492
29773WAT     H220898   4.216   7.133   2.854 -0.3658 -0.3826  1.6479
29773WAT    EPW20899   4.300   7.150   2.870 -0.1185  0.2809 -0.0262
29774WAT      O20900   1.147  10.004   4.360  0.1106  0.2307 -0.3055
29774WAT     H120901   1.201  10.033   4.433  0.4704 -1.1389 -0.0018
29774WAT     H220902   1.066   9.975   4.400  0.6832 -1.4549 -0.3185
29774WAT    EPW20903   1.144  10.004   4.375  0.2337 -0.1721 -0.2670
29775WAT      O20904  -4.167   2.877   8.398 -0.9550 -0.0275 -0.1114
29775WAT     H120905  -4.095   2.816   8.380 -1.3074 -0.1740 -1.1116
29775WAT     H220906  -4.221   2.831   8.462 -1.2194 -0.7907 -0.8556
29775WAT    EPW20907  -4.164   2.863   8.404 -1.0366 -0.1475 -0.3419
29776WAT      O20908   7.441   7.937   1.003  0.0528 -0.2927  0.7876
29776WAT     H120909   7.460   7.967   1.092 -0.7592 -0.3003  0.9764
29776WAT     H220910   7.353   7.899   1.010 -0.9171  1.6103 -0.4618
29776WAT    EPW20911   7.432   7.936   1.016 -0.1822 -0.0427  0.6477
29777WAT      O20912  -0.099   2.768   8.037 -0.2880  0.4937 -0.0110
29777WAT     H120913  -0.124   2.721   8.117  0.7919  4.1953  2.7879
29777WAT     H220914  -0.167   2.834   8.026 -0.0360  0.4941 -1.7975
29777WAT    EPW20915  -0.111   2.771   8.046 -0.1124  0.9820  0.1225
29778WAT      O20916   2.089   0.469   1.676  0.1676 -0.9837 -0.9089
29778WAT     H120917   2.027   0.537   1.702  0.5554  0.0238 -2.4696
29778WAT     H220918   2.175   0.506   1.696  0.3411 -1.8590  0.0739
29778WAT    EPW20919   2.092   0.483   1.682  0.2416 -0.9663 -0.9852
29779WAT      O20920   2.810   5.954   6.703 -0.0879  0.1172  0.0922
29779WAT     H120921   2.721   5.988   6.691 -0.0797  0.0165 -0.2475
29779WAT     H220922   2.798   5.859   6.707 -0.0743  0.1378  0.7288
29779WAT    EPW20923   2.797   5.946   6.702 -0.0849  0.1066  0.1314
29780WAT      O20924   3.711   8.861   5.961 -0.6691  1.3197  0.3061
29780WAT     H120925   3.638   8.871   5.899 -0.8474 -0.2366  0.2435
29780WAT     H220926   3.712   8.944   6.009 -3.3926  0.8806  1.2842
29780WAT    EPW20927   3.702   8.873   5.959 -1.0518  1.0562  0.4270
29781WAT      O20928   4.338   7.586   3.678  0.4426 -0.0495  0.1225
29781WAT     H120929   4.383   7.536   3.611  2.7070 -1.2118  2.3574
29781WAT     H220930   4.408   7.626   3.729 -1.2217  1.8055  1.1031
29781WAT    EPW20931   4.353   7.585   3.676  0.5217  0.0420  0.5467
29782WAT      O20932   1.890   0.646   7.034 -0.2620 -0.1664  0.3491
29782WAT     H120933   1.843   0.643   7.117  2.8690  3.8781  2.6750
29782WAT     H220934   1.973   0.602   7.053  0.5350  0.9116 -0.5270
29782WAT    EPW20935   1.895   0.640   7.048  0.2561  0.5092  0.5403
29783WAT      O20936   4.037   3.717   2.961 -0.0534 -0.2533 -0.2179
29783WAT     H120937   4.093   3.795   2.957 -0.4090 -0.0046 -0.3179
29783WAT     H220938   4.086   3.657   3.017  0.9072 -0.5249 -1.3106
29783WAT    EPW20939   4.051   3.720   2.968  0.0265 -0.2564 -0.3753
29784WAT      O20940   0.182   0.350   0.593  0.0771  0.0300 -0.3353
29784WAT     H120941   0.266   0.349   0.546  1.0137 -1.9020  1.1976
29784WAT     H220942   0.205   0.383   0.680 -0.4075 -1.8991  0.5737
29784WAT    EPW20943   0.196   0.354   0.599  0.1367 -0.4793 -0.0132
29785WAT      O20944  -7.963   8.075   8.409  0.2167 -0.0700 -0.1456
29785WAT     H120945  -7.916   8.021   8.472 -1.8831 -0.5764  1.0988
29785WAT     H220946  -7.895   8.116   8.356  2.0349 -0.4740  1.7593
29785WAT    EPW20947  -7.948   8.074   8.410  0.1795 -0.1898  0.2694
29786WAT      O20948  -6.007  10.191   6.626  0.0798  0.1994  0.1775
29786WAT     H120949  -5.950  10.115   6.611  0.4328  0.3548  0.6991
29786WAT     H220950  -6.034  10.183   6.717 -0.6585  0.1821 -0.0425
29786WAT    EPW20951  -6.003  10.180   6.636  0.0288  0.2179  0.2174
29787WAT      O20952  -1.962   4.640   1.539  0.3176 -0.1655 -0.0713
29787WAT     H120953  -1.958   4.574   1.470 -1.5109 -0.8399  0.4126
29787WAT     H220954  -2.030   4.609   1.598 -0.1749  1.8483  0.5099
29787WAT    EPW20955  -1.971   4.627   1.538  0.0114  0.0112  0.0692
29788WAT      O20956  -2.861   8.985   4.021  0.0994 -0.0990  0.2594
29788WAT     H120957  -2.790   9.043   3.993  0.9519 -0.7509  0.9854
29788WAT     H220958  -2.934   9.043   4.039  1.6218  1.1085  3.2828
29788WAT    EPW20959  -2.861   9.000   4.020  0.4127 -0.0253  0.7539
29789WAT      O20960   0.900   8.224   2.900 -0.6932 -0.3015 -0.2579
29789WAT     H120961   0.912   8.316   2.878  2.3720 -0.6642 -0.5282
29789WAT     H220962   0.985   8.184   2.883 -1.6540 -3.0162  0.7737
29789WAT    EPW20963   0.913   8.231   2.895 -0.4157 -0.7071 -0.1574
29790WAT      O20964   0.458   2.154   8.040 -0.0846  1.1127  0.2765
29790WAT     H120965   0.413   2.157   8.124  0.4221  0.5951  0.5727
29790WAT     H220966   0.401   2.102   7.983 -0.4146  1.4412  0.3052
29790WAT    EPW20967   0.445   2.148   8.044 -0.0613  1.0877  0.3195
29791WAT      O20968  -3.913   8.473   2.881  0.3916 -0.0467 -0.2003
29791WAT     H120969  -3.952   8.400   2.833  1.1616  0.9794 -2.5488
29791WAT     H220970  -3.986   8.511   2.930 -0.5142 -1.0268 -0.7356
29791WAT    EPW20971  -3.928   8.468   2.881  0.3737 -0.0405 -0.5808
29792WAT      O20972  -4.498   4.706   5.825 -0.2245 -0.0126  0.4798
29792WAT     H120973  -4.434   4.766   5.788 -0.4911  0.0147  0.0580
29792WAT     H220974  -4.581   4.753   5.819 -0.3667 -0.2532  0.5480
29792WAT    EPW20975  -4.501   4.720   5.820 -0.2785 -0.0408  0.4332
29793WAT      O20976   4.183   6.842   7.156  0.3921  0.1044  0.4185
29793WAT     H120977   4.168   6.766   7.099  1.2155  1.3254 -1.5447
29793WAT     H220978   4.268   6.824   7.197  0.1132 -0.4787  0.7547
29793WAT    EPW20979   4.192   6.829   7.154  0.4637  0.1886  0.2038
29794WAT      O20980  -1.500   7.075   3.706  0.2997 -0.2817  0.3731
29794WAT     H120981  -1.545   7.113   3.783  0.8305 -0.3851  0.7372
29794WAT     H220982  -1.567   7.074   3.638 -0.2761 -0.4824  0.9301
29794WAT    EPW20983  -1.515   7.080   3.707  0.2938 -0.3216  0.4946
29795WAT      O20984  -2.472   4.672   2.222 -0.3776  0.2124  0.5551
29795WAT     H120985  -2.454   4.580   2.203 -1.7475 -0.2595  1.4348
29795WAT     H220986  -2.466   4.715   2.137 -1.3965 -0.9821 -0.1645
29795WAT    EPW20987  -2.469   4.665   2.209 -0.6927 -0.0074  0.5763
29796WAT      O20988   5.272   5.170   2.613  1.1962  1.0669  0.2757
29796WAT     H120989   5.351   5.201   2.657  1.1684 -0.0587  1.1416
29796WAT     H220990   5.201   5.220   2.652  1.4131  1.7049 -0.1317
29796WAT    EPW20991   5.273   5.181   2.624  1.2212  1.0026  0.3362
29797WAT      O20992  -0.396   3.905   4.560 -0.2903 -0.5463  0.0478
29797WAT     H120993  -0.459   3.949   4.616  1.0974 -0.7496  1.8408
29797WAT     H220994  -0.418   3.935   4.471 -0.4016  2.5165  1.0057
29797WAT    EPW20995  -0.407   3.915   4.555 -0.1220 -0.1692  0.4108
29798WAT      O20996   1.649   2.664   1.803  0.3961  0.3801  0.3010
29798WAT     H120997   1.600   2.623   1.874 -0.8935  0.6519 -0.4089
29798WAT     H220998   1.587   2.670   1.730 -0.0318  4.8911  0.7693
29798WAT    EPW20999   1.634   2.659   1.802  0.1696  1.0109  0.2692
29799WAT      O21000  -1.379   1.608   5.769 -0.7757 -0.1130  1.1431
29799WAT     H121001  -1.373   1.615   5.864 -1.3782  1.0692  1.1167
29799WAT     H221002  -1.355   1.695   5.737  0.5294 -0.8174  0.1415
29799WAT    EPW21003  -1.375   1.620   5.778 -0.6830 -0.0500  1.0073
29800WAT      O21004   6.689   4.843   0.688  0.1359  0.0061 -0.2039
29800WAT     H121005   6.637   4.782   0.739  1.6602 -2.4593 -1.4240
29800WAT     H221006   6.780   4.818   0.706  0.7578  0.2528 -2.6219
29800WAT    EPW21007   6.694   4.832   0.697  0.4191 -0.2863 -0.6838
29801WAT      O21008   0.447   8.257   7.467 -0.3211 -0.4239 -0.0638
29801WAT     H121009   0.388   8.187   7.491  0.3971 -0.9807  0.1224
29801WAT     H221010   0.511   8.261   7.538 -1.2097  1.4560  0.7155
29801WAT    EPW21011   0.448   8.248   7.480 -0.3435 -0.2494  0.0634
29802WAT      O21012   3.646   2.998   2.905 -0.6452  0.0793  0.0713
29802WAT     H121013   3.698   2.984   2.826 -0.0526  1.2780  0.2287
29802WAT     H221014   3.706   3.040   2.967 -1.3709  0.0479  0.8201
29802WAT    EPW21015   3.661   3.002   2.903 -0.6627  0.2332  0.1907
29803WAT      O21016  -5.714   8.825   8.092 -0.4462 -0.2912 -0.2728
29803WAT     H121017  -5.719   8.731   8.079 -3.6419  0.0508 -2.7420
29803WAT     H221018  -5.722   8.836   8.187 -2.4913 -2.5030 -0.0855
29803WAT    EPW21019  -5.716   8.814   8.103 -1.1375 -0.5379 -0.5736
29804WAT      O21020  -1.990   3.219   8.327 -0.2173  0.0206  0.5004
29804WAT     H121021  -1.938   3.141   8.308 -2.0926 -1.5189  1.2951
29804WAT     H221022  -1.993   3.267   8.244 -3.2987 -3.4846 -1.7521
29804WAT    EPW21023  -1.984   3.215   8.313 -0.8711 -0.6448  0.3080
29805WAT      O21024   0.522   7.446   2.694 -0.2350 -0.2298  0.1458
29805WAT     H121025   0.490   7.366   2.734 -0.7314 -0.4914 -0.7447
29805WAT     H221026   0.449   7.507   2.699  0.2970  0.3349  1.2486
29805WAT    EPW21027   0.508   7.444   2.700 -0.2303 -0.1895  0.1738
29806WAT      O21028   4.982   2.682   3.518  0.4509 -0.0347 -0.0940
29806WAT     H121029   5.013   2.610   3.573  1.4590  1.9212  2.0474
29806WAT     H221030   4.956   2.640   3.436 -0.6440 -3.0335  1.6573
29806WAT    EPW21031   4.983   2.667   3.514  0.4396 -0.1723  0.4194
29807WAT      O21032   0.684   3.823   4.111  0.3787  0.1140 -0.1833
29807WAT     H121033   0.696   3.744   4.059  1.7862  0.3751 -0.2935
29807WAT     H221034   0.645   3.792   4.193 -1.5671 -0.3367 -1.2070
29807WAT    EPW21035   0.681   3.808   4.115  0.3077  0.0889 -0.3328
29808WAT      O21036  -1.016   6.473   2.929  0.2526  0.3388  0.6324
29808WAT     H121037  -1.045   6.383   2.944  0.1269  0.4052  0.7922
29808WAT     H221038  -1.048   6.522   3.005 -0.1719  0.6295  0.2797
29808WAT    EPW21039  -1.024   6.468   2.941  0.1801  0.3858  0.6070
29809WAT      O21040   8.149   0.501   3.939  0.3512  0.6240  0.2819
29809WAT     H121041   8.214   0.443   3.977  0.2215 -0.0463 -0.4961
29809WAT     H221042   8.162   0.494   3.845 -0.6100  0.7521  0.1253
29809WAT    EPW21043   8.159   0.493   3.932  0.2069  0.5525  0.1587
29810WAT      O21044   5.487   4.157   2.063 -0.5120  0.2187  0.1411
29810WAT     H121045   5.442   4.240   2.049  0.5057  0.3986 -2.9752
29810WAT     H221046   5.447   4.097   2.000  1.6254 -0.3775 -0.7579
29810WAT    EPW21047   5.476   4.160   2.052 -0.0961  0.1638 -0.3885
29811WAT      O21048   2.868   1.316   2.286  0.7118 -0.8001  0.6336
29811WAT     H121049   2.822   1.387   2.331  0.0754 -1.6432  1.3322
29811WAT     H221050   2.888   1.352   2.199  0.7285  0.3578  1.0995
29811WAT    EPW21051   2.864   1.330   2.281  0.6301 -0.7585  0.7871
29812WAT      O21052  -4.927   5.926   6.466  0.1348  0.2188  0.6122
29812WAT     H121053  -4.894   5.980   6.538  0.6225  0.6358  0.0762
29812WAT     H221054  -4.897   5.970   6.387 -1.1064  0.2268  0.1260
29812WAT    EPW21055  -4.919   5.939   6.465  0.0355  0.2749  0.4776
29813WAT      O21056   1.911   9.776   3.929  0.2204  0.6386 -0.0794
29813WAT     H121057   1.902   9.840   4.000  1.2677  1.0667 -0.3177
29813WAT     H221058   1.906   9.828   3.849  0.2570  0.3120 -0.2940
29813WAT    EPW21059   1.909   9.791   3.928  0.3633  0.6518 -0.1391
29814WAT      O21060   2.271   0.717   6.202 -0.2056 -0.4772 -0.1417
29814WAT     H121061   2.309   0.804   6.186 -0.6380  0.0071  1.3091
29814WAT     H221062   2.326   0.657   6.153  0.7073  0.5199 -0.3614
29814WAT    EPW21063   2.283   0.721   6.194 -0.1423 -0.2818  0.0207
29815WAT      O21064   0.051   8.138   0.579 -0.2874 -0.7371  0.2822
29815WAT     H121065   0.132   8.139   0.630 -0.9116  1.7182  1.3363
29815WAT     H221066  -0.019   8.128   0.644 -1.1368  3.0852  0.1882
29815WAT    EPW21067   0.052   8.137   0.594 -0.4817  0.0906  0.4088
29816WAT      O21068  -2.539   8.972   8.815 -0.1848 -0.2526  0.5996
29816WAT     H121069  -2.594   8.916   8.762  0.3676 -0.6708  0.4564
29816WAT     H221070  -2.576   9.060   8.804 -1.8735 -0.7598  1.8990
29816WAT    EPW21071  -2.551   8.977   8.807 -0.3346 -0.3748  0.7520
29817WAT      O21072  -3.801   8.465   8.287  0.3036 -0.4684 -0.0066
29817WAT     H121073  -3.803   8.558   8.309  2.9719 -0.0704 -1.1498
29817WAT     H221074  -3.722   8.432   8.329 -0.7312 -2.3556  0.5991
29817WAT    EPW21075  -3.791   8.473   8.296  0.5190 -0.6647 -0.0772
29818WAT      O21076   7.046   6.954   0.713 -0.1636 -0.1216  0.1551
29818WAT     H121077   6.965   6.983   0.755  0.7986  1.6534  0.8872
29818WAT     H221078   7.073   6.878   0.763 -1.3844 -0.7694 -0.1342
29818WAT    EPW21079   7.039   6.948   0.725 -0.1976  0.0269  0.2135
29819WAT      O21080  -5.028   6.674   5.258 -0.3232  0.3640 -0.1580
29819WAT     H121081  -4.975   6.601   5.288 -0.2005 -0.1834 -1.6187
29819WAT     H221082  -4.990   6.751   5.300 -1.3402 -0.5078  2.5600
29819WAT    EPW21083  -5.016   6.675   5.267 -0.4413  0.1767  0.0079
29820WAT      O21084   1.973   1.426   4.121 -0.6067 -0.1220  0.5310
29820WAT     H121085   1.886   1.459   4.097 -1.0309 -0.2862  1.7618
29820WAT     H221086   2.033   1.496   4.096 -0.8700 -0.6825 -1.9147
29820WAT    EPW21087   1.969   1.440   4.115 -0.6973 -0.2176  0.3707
29821WAT      O21088   6.619   5.096   0.261 -1.1413 -0.1858  0.3680
29821WAT     H121089   6.525   5.080   0.268 -0.8302 -1.5630  2.1490
29821WAT     H221090   6.658   5.039   0.327  0.7960  1.8611  1.1143
29821WAT    EPW21091   6.611   5.086   0.270 -0.8445 -0.0975  0.7014
29822WAT      O21092   0.617   8.051   0.530  0.2119 -0.3528 -0.3704
29822WAT     H121093   0.620   8.144   0.554 -1.3449 -0.5061  0.5857
29822WAT     H221094   0.682   8.009   0.587  2.0332  0.3087 -1.8648
29822WAT    EPW21095   0.626   8.058   0.541  0.2468 -0.2856 -0.4414
29823WAT      O21096   7.708   2.327   3.761  0.1064  0.1287 -0.0911
29823WAT     H121097   7.738   2.403   3.811 -1.9609  3.5212 -3.5026
29823WAT     H221098   7.615   2.343   3.747 -1.0398 -4.3432  0.8480
29823WAT    EPW21099   7.700   2.339   3.766 -0.3176 -0.0136 -0.4171
29824WAT      O21100   0.095   0.348   5.751 -0.2395 -0.4318  0.1879
29824WAT     H121101   0.024   0.303   5.705  0.4910  0.3406 -1.7921
29824WAT     H221102   0.078   0.330   5.844 -2.3627 -1.2025 -0.2859
29824WAT    EPW21103   0.084   0.340   5.757 -0.4232 -0.4316 -0.1357
29825WAT      O21104   7.617   6.420   0.555  0.5831 -0.7545 -0.4198
29825WAT     H121105   7.583   6.368   0.627  0.8679  0.2334  0.4458
29825WAT     H221106   7.664   6.492   0.597  2.7780 -1.4246 -1.5741
29825WAT    EPW21107   7.619   6.422   0.570  0.9098 -0.7126 -0.4579
29826WAT      O21108   1.110   8.720   6.286  0.5110  0.1987  0.1748
29826WAT     H121109   1.166   8.778   6.337  0.6079  0.4017 -0.1616
29826WAT     H221110   1.080   8.654   6.349  0.1297  0.8029  0.6285
29826WAT    EPW21111   1.113   8.719   6.301  0.4734  0.3047  0.1903
29827WAT      O21112   6.502   1.344   5.079 -0.3275  0.3089  0.8089
29827WAT     H121113   6.553   1.268   5.108 -1.6430 -1.0696 -0.2826
29827WAT     H221114   6.423   1.342   5.132 -1.1477 -0.1611 -0.3663
29827WAT    EPW21115   6.499   1.334   5.090 -0.6092  0.0651  0.5100
29828WAT      O21116   3.836   2.013   7.532  0.2481 -0.9834  0.2747
29828WAT     H121117   3.761   2.025   7.590 -0.5433  1.3742 -1.1323
29828WAT     H221118   3.904   1.978   7.589 -0.6260  0.7740  2.5475
29828WAT    EPW21119   3.835   2.010   7.548  0.0284 -0.4406  0.3889
29829WAT      O21120   4.934   2.343   7.395 -0.0147  0.0241 -0.1090
29829WAT     H121121   4.913   2.416   7.337 -1.8223 -0.1120  0.3093
29829WAT     H221122   4.902   2.265   7.350  0.2748 -0.3131  0.2491
29829WAT    EPW21123   4.927   2.342   7.382 -0.2151 -0.0384 -0.0067
29830WAT      O21124  -7.243  10.307   7.714  1.0742  0.3097  0.5080
29830WAT     H121125  -7.279  10.367   7.780  0.8321 -0.5772  1.1938
29830WAT     H221126  -7.273  10.220   7.741  1.9596 -0.2029 -0.1108
29830WAT    EPW21127  -7.252  10.304   7.726  1.1592  0.1254  0.5169
29831WAT      O21128   5.313   6.562   1.194 -0.0150 -0.1191  0.1254
29831WAT     H121129   5.249   6.492   1.182  0.1673 -0.4668  1.0511
29831WAT     H221130   5.356   6.571   1.109 -0.7469 -0.4233 -0.2807
29831WAT    EPW21131   5.310   6.554   1.181 -0.0875 -0.2053  0.1940
29832WAT      O21132   0.435   3.417   1.512 -0.3708 -0.1157  0.1314
29832WAT     H121133   0.507   3.379   1.460  0.1195 -2.2052  2.1700
29832WAT     H221134   0.359   3.411   1.454  0.7120  0.4793 -1.4260
29832WAT    EPW21135   0.435   3.411   1.497 -0.1633 -0.3128  0.1948
29833WAT      O21136   4.893   4.425   5.799 -0.1637  0.9699  0.2020
29833WAT     H121137   4.925   4.478   5.725  0.3737  1.4141  0.7456
29833WAT     H221138   4.898   4.335   5.767 -1.0210  1.2302 -0.7078
29833WAT    EPW21139   4.898   4.420   5.785 -0.2058  1.0629  0.1538
29834WAT      O21140  -1.304   4.257   4.262  0.0180 -0.1898 -0.2852
29834WAT     H121141  -1.254   4.215   4.192 -0.9400 -2.5833  0.3774
29834WAT     H221142  -1.318   4.188   4.326 -1.2393  1.3011  1.1300
29834WAT    EPW21143  -1.299   4.243   4.261 -0.2741 -0.3088 -0.0112
29835WAT      O21144   5.074   8.947   0.650  0.0126 -0.2131 -0.3395
29835WAT     H121145   4.999   8.908   0.695  0.6799  0.9592  1.9142
29835WAT     H221146   5.065   8.917   0.559 -1.8481 -2.0228  0.3588
29835WAT    EPW21147   5.063   8.938   0.644 -0.1447 -0.2971  0.0499
29836WAT      O21148   2.542   8.331   7.151  0.4892  0.9139 -1.0255
29836WAT     H121149   2.449   8.309   7.152  0.6449  0.1201 -2.0152
29836WAT     H221150   2.550   8.405   7.211  0.0106 -2.0378  3.0336
29836WAT    EPW21151   2.531   8.338   7.159  0.4467  0.4196 -0.6206
29837WAT      O21152  -0.381   2.534   2.997 -0.5964  0.4170  0.2380
29837WAT     H121153  -0.402   2.612   2.946 -0.4884 -0.0040 -0.4725
29837WAT     H221154  -0.437   2.466   2.961  1.3971 -0.5706 -1.2446
29837WAT    EPW21155  -0.391   2.535   2.985 -0.3192  0.2313 -0.0513
29838WAT      O21156   5.945   9.515   1.780 -0.1532 -0.7080 -0.3286
29838WAT     H121157   6.016   9.471   1.827 -0.2726 -0.0722  0.4676
29838WAT     H221158   5.865   9.473   1.813 -0.1376 -2.3692 -2.2082
29838WAT    EPW21159   5.944   9.504   1.790 -0.1669 -0.8430 -0.4715
29839WAT      O21160  -3.822   9.757   5.665  0.1620  0.0677  0.1266
29839WAT     H121161  -3.886   9.686   5.656  1.0930 -0.9952  1.3616
29839WAT     H221162  -3.800   9.781   5.575 -0.5482 -0.8679 -0.3201
29839WAT    EPW21163  -3.828   9.750   5.652  0.1911 -0.1960  0.2306
29840WAT      O21164   2.367   6.459   6.308  0.1311  1.0515 -0.4530
29840WAT     H121165   2.461   6.447   6.294  0.4388 -0.4628  2.1366
29840WAT     H221166   2.344   6.392   6.372 -2.2508  2.7948  0.6878
29840WAT    EPW21167   2.377   6.449   6.315 -0.1425  1.0819  0.0391
29841WAT      O21168   2.952   5.979   4.086 -0.6156 -0.1392  0.6062
29841WAT     H121169   2.965   6.030   4.166 -0.7114  1.1578 -0.1869
29841WAT     H221170   2.876   6.019   4.044 -0.1469 -0.3637 -0.4702
29841WAT    EPW21171   2.944   5.991   4.091 -0.5666  0.0024  0.3598
29842WAT      O21172   4.827   3.683   3.521 -0.2205  0.1376  0.0557
29842WAT     H121173   4.900   3.622   3.535 -0.3169  0.0888  0.3481
29842WAT     H221174   4.749   3.629   3.534 -0.3098  0.1610 -0.3787
29842WAT    EPW21175   4.827   3.667   3.525 -0.2451  0.1343  0.0370
29843WAT      O21176  -0.840   3.828   4.445 -0.3182  0.4861 -0.2221
29843WAT     H121177  -0.843   3.805   4.538  0.2929 -1.0977 -0.5617
29843WAT     H221178  -0.872   3.750   4.400  1.1671  0.5097 -1.4146
29843WAT    EPW21179  -0.844   3.815   4.452 -0.0417  0.2803 -0.4244
29844WAT      O21180   2.206   5.441   5.097 -0.4781 -0.2809  0.2820
29844WAT     H121181   2.298   5.428   5.078 -0.1308 -0.7517  2.0901
29844WAT     H221182   2.183   5.368   5.155 -1.5025  0.8094  1.3032
29844WAT    EPW21183   2.215   5.429   5.103 -0.5673 -0.1993  0.6552
29845WAT      O21184  -3.484   9.711   0.408  1.0325  0.6801 -0.3218
29845WAT     H121185  -3.539   9.699   0.486  1.6507  0.8466  0.1552
29845WAT     H221186  -3.541   9.755   0.345  0.2029 -0.3983 -0.3529
29845WAT    EPW21187  -3.499   9.715   0.410  1.0047  0.5598 -0.2630
29846WAT      O21188  -0.447   4.451   2.370  0.2978  0.5368  0.2023
29846WAT     H121189  -0.399   4.505   2.433  1.1019 -1.9876  1.8932
29846WAT     H221190  -0.528   4.427   2.415 -0.7333  1.4414 -1.0864
29846WAT    EPW21191  -0.451   4.455   2.384  0.2678  0.3233  0.2553
29847WAT      O21192   3.091   1.538   1.599 -0.1327  0.6544 -0.4744
29847WAT     H121193   3.007   1.575   1.628  0.1281 -0.4610  1.9435
29847WAT     H221194   3.115   1.475   1.667  2.7234  0.9773 -1.0347
29847WAT    EPW21195   3.083   1.535   1.612  0.2785  0.5499 -0.2294
29848WAT      O21196  -0.038   5.266   2.635 -0.2678  0.9626 -0.2173
29848WAT     H121197  -0.038   5.228   2.723  2.4427  1.8791  0.2762
29848WAT     H221198  -0.011   5.194   2.578 -2.6473  0.1924 -0.4761
29848WAT    EPW21199  -0.035   5.251   2.639 -0.2242  0.9820 -0.1864
29849WAT      O21200  -0.185   1.588   3.483 -0.4473  0.0421  0.5314
29849WAT     H121201  -0.125   1.533   3.432 -0.5025  1.0016 -0.6081
29849WAT     H221202  -0.149   1.587   3.571  0.6256 -0.2955  0.1051
29849WAT    EPW21203  -0.172   1.580   3.488 -0.3131  0.1241  0.3250
29850WAT      O21204   9.477   0.180   1.849  0.1138  0.5688 -0.3088
29850WAT     H121205   9.554   0.208   1.898 -0.2233  0.9907 -0.0207
29850WAT     H221206   9.403   0.216   1.897 -0.2099  1.2673 -1.3060
29850WAT    EPW21207   9.477   0.188   1.862  0.0262  0.7166 -0.4023
29851WAT      O21208  -0.068   0.226   5.579  0.8287  0.2852  0.1048
29851WAT     H121209  -0.000   0.165   5.548 -0.2695 -0.0660 -1.7972
29851WAT     H221210  -0.095   0.274   5.500 -0.6847  0.8507  0.9201
29851WAT    EPW21211  -0.063   0.224   5.564  0.4843  0.3135 -0.0384
29852WAT      O21212   2.275   0.683   2.743  0.2628  0.0349 -0.2507
29852WAT     H121213   2.231   0.756   2.700 -0.4341 -0.4868 -0.4309
29852WAT     H221214   2.209   0.645   2.800  0.7066 -0.2860  0.0571
29852WAT    EPW21215   2.261   0.688   2.745  0.2294 -0.0762 -0.2339
29853WAT      O21216  -0.826   4.496   5.340 -0.3247 -0.5709 -0.0296
29853WAT     H121217  -0.880   4.575   5.340  1.1001  0.4511  0.2621
29853WAT     H221218  -0.772   4.505   5.419 -0.2890 -1.9424  0.1114
29853WAT    EPW21219  -0.826   4.508   5.351 -0.1321 -0.6170  0.0274
29854WAT      O21220  -1.322   8.081   1.290  0.0519  1.0130  0.2034
29854WAT     H121221  -1.390   8.096   1.356  1.0351 -0.0632  1.5417
29854WAT     H221222  -1.255   8.147   1.311  1.8065 -1.2840  2.4389
29854WAT    EPW21223  -1.322   8.092   1.302  0.4131  0.5679  0.6747
29855WAT      O21224  -6.601   8.692   7.585 -0.8880  0.6649  0.5391
29855WAT     H121225  -6.605   8.643   7.667  0.0293  0.6695  0.5916
29855WAT     H221226  -6.540   8.643   7.531 -0.3066  1.4965  0.4234
29855WAT    EPW21227  -6.594   8.679   7.589 -0.6905  0.7749  0.5307
29856WAT      O21228  -5.373   6.191   7.792  0.6832  0.3913  0.1895
29856WAT     H121229  -5.277   6.194   7.785  0.7924 -2.8293 -2.4790
29856WAT     H221230  -5.403   6.273   7.753  2.4621 -0.6251 -3.8757
29856WAT    EPW21231  -5.364   6.202   7.786  0.9322 -0.1674 -0.6986
29857WAT      O21232   1.106   3.576   1.569  0.0849  0.0862  1.1164
29857WAT     H121233   1.023   3.609   1.534 -1.2079 -2.1368  1.8987
29857WAT     H221234   1.149   3.653   1.605  0.0458  1.9594 -2.3760
29857WAT    EPW21235   1.101   3.590   1.569 -0.0907  0.0401  0.7590
29858WAT      O21236  -4.105   1.786   6.643  0.0375 -0.0127  0.6547
29858WAT     H121237  -4.149   1.789   6.728  0.3414 -0.3615  0.8278
29858WAT     H221238  -4.026   1.838   6.655  0.0952 -0.0863  0.5945
29858WAT    EPW21239  -4.101   1.793   6.656  0.0854 -0.0684  0.6695
29859WAT      O21240   4.842   3.935   3.552  1.2556 -0.5224 -0.0590
29859WAT     H121241   4.828   3.961   3.643 -1.3627  0.1052 -0.5810
29859WAT     H221242   4.823   3.841   3.550  2.7210 -0.8651  0.2472
29859WAT    EPW21243   4.838   3.926   3.564  1.1034 -0.4848 -0.0875
29860WAT      O21244  -7.231   7.763   7.659  0.1045 -0.0401  0.0780
29860WAT     H121245  -7.281   7.800   7.732 -0.3509 -1.2823  0.4140
29860WAT     H221246  -7.139   7.775   7.685 -0.0503 -0.8034  1.0482
29860WAT    EPW21247  -7.225   7.769   7.672  0.0241 -0.3045  0.2503
29861WAT      O21248  -5.039   9.248   8.836 -0.5290 -0.6849 -0.1330
29861WAT     H121249  -4.981   9.179   8.802 -0.9341 -1.1374  0.0703
29861WAT     H221250  -5.096   9.269   8.762 -0.0079 -0.1305 -0.3791
29861WAT    EPW21251  -5.039   9.241   8.822 -0.5136 -0.6714 -0.1388
29862WAT      O21252  -1.214   8.245   6.387  0.1810 -0.1868 -0.5175
29862WAT     H121253  -1.297   8.215   6.351  0.0238 -0.6059  0.1862
29862WAT     H221254  -1.237   8.319   6.443  0.4751  0.7516 -1.5918
29862WAT    EPW21255  -1.228   8.251   6.390  0.1991 -0.1183 -0.5665
29863WAT      O21256   1.524   3.091   2.780  0.1146 -0.4870  0.0496
29863WAT     H121257   1.558   3.100   2.692  2.0282  3.0510  0.9798
29863WAT     H221258   1.465   3.166   2.791  0.9491 -0.0659  2.1504
29863WAT    EPW21259   1.521   3.102   2.770  0.4771  0.0352  0.4494
29864WAT      O21260   2.335   1.075   4.304  0.9708  0.5903  0.3269
29864WAT     H121261   2.404   1.010   4.320  1.7501  1.1079 -0.7856
29864WAT     H221262   2.325   1.076   4.209 -1.1288 -0.0146  0.4996
29864WAT    EPW21263   2.343   1.066   4.293  0.7967  0.5788  0.2029
29865WAT      O21264   1.345   6.019   6.640 -0.2365 -0.5036 -0.3217
29865WAT     H121265   1.348   6.072   6.719  1.9092 -1.7652  0.5465
29865WAT     H221266   1.252   6.002   6.625 -0.9876  2.8936 -0.3173
29865WAT    EPW21267   1.334   6.024   6.648 -0.0526 -0.2217 -0.2067
29866WAT      O21268  -4.650   9.803   3.447 -0.3373  0.2833  0.6466
29866WAT     H121269  -4.653   9.793   3.542  1.0375 -0.9653  0.5900
29866WAT     H221270  -4.593   9.878   3.433 -1.2722  1.0517  0.7947
29866WAT    EPW21271  -4.643   9.811   3.458 -0.2792  0.2198  0.6586
29867WAT      O21272  -3.100   4.430   2.516  0.5860  0.1172 -0.2912
29867WAT     H121273  -3.083   4.400   2.605 -1.1259  0.2201  0.1231
29867WAT     H221274  -3.035   4.386   2.462  0.3756 -1.5595  0.7510
29867WAT    EPW21275  -3.089   4.421   2.521  0.3325 -0.0906 -0.0991
29868WAT      O21276   2.008   9.453   2.959  0.4734  0.5724 -0.3756
29868WAT     H121277   2.000   9.415   3.047  3.4709  2.2860  0.7781
29868WAT     H221278   1.947   9.527   2.959  2.8490  2.7075  1.6662
29868WAT    EPW21279   1.999   9.458   2.970  1.1821  1.0800  0.0458
29869WAT      O21280   7.018   7.404   1.889 -0.4461 -0.7469  0.0992
29869WAT     H121281   6.983   7.490   1.870 -1.3890 -1.0907  0.2468
29869WAT     H221282   6.973   7.345   1.829  0.3110 -1.1191 -0.1154
29869WAT    EPW21283   7.008   7.408   1.879 -0.4706 -0.8414  0.0904
29870WAT      O21284   1.072   2.462   8.208  0.4100  0.2270 -0.5012
29870WAT     H121285   1.037   2.419   8.286  0.6437 -1.2424 -1.1603
29870WAT     H221286   1.153   2.414   8.189  1.0763  1.4636 -0.8567
29870WAT    EPW21287   1.078   2.450   8.216  0.5287  0.1963 -0.6351
29871WAT      O21288   5.172   7.335   4.969  0.1974  0.2479 -0.6046
29871WAT     H121289   5.171   7.322   5.063  0.7067  1.5366 -0.3960
29871WAT     H221290   5.098   7.285   4.936  0.0665 -0.2709  0.4714
29871WAT    EPW21291   5.162   7.327   4.977  0.2475  0.3495 -0.4351
29872WAT      O21292  -1.339   2.218   3.724  0.1394 -0.4162  0.7560
29872WAT     H121293  -1.394   2.146   3.753 -0.7111  0.1183  0.4882
29872WAT     H221294  -1.348   2.284   3.793 -0.0076 -0.0970  0.4315
29872WAT    EPW21295  -1.347   2.217   3.737  0.0079 -0.3036  0.6778
29873WAT      O21296   3.951   6.205   5.717  0.0534  0.0336 -0.1915
29873WAT     H121297   3.960   6.225   5.623  0.9000 -1.6155 -0.5100
29873WAT     H221298   3.860   6.176   5.726 -0.3215  1.1359 -0.2902
29873WAT    EPW21299   3.940   6.204   5.706  0.1156 -0.0384 -0.2468
29874WAT      O21300  -0.614   1.569   4.547 -0.1816  0.1034 -0.0241
29874WAT     H121301  -0.620   1.500   4.481  0.9335 -1.7217  1.6440
29874WAT     H221302  -0.588   1.647   4.498  3.6130 -1.8335 -1.5241
29874WAT    EPW21303  -0.611   1.570   4.532  0.4659 -0.3928 -0.0019
29875WAT      O21304  -0.645   0.755   1.962  0.1697  0.5741  0.5156
29875WAT     H121305  -0.574   0.697   1.990 -1.6438 -2.2224 -0.2913
29875WAT     H221306  -0.617   0.786   1.875  1.4347  1.5289  1.2163
29875WAT    EPW21307  -0.632   0.752   1.954  0.0973  0.3312  0.5016
29876WAT      O21308   3.772   6.307   4.004 -0.0680  0.0573  0.1670
29876WAT     H121309   3.730   6.365   4.068 -1.3965 -1.4402  0.7312
29876WAT     H221310   3.863   6.337   4.000 -0.1761  0.7902  2.0802
29876WAT    EPW21311   3.778   6.318   4.012 -0.2576 -0.0434  0.4940
29877WAT      O21312   0.809   7.467   0.845 -1.4314 -0.2683 -0.3384
29877WAT     H121313   0.808   7.525   0.922 -2.1244 -2.1423  1.1308
29877WAT     H221314   0.719   7.470   0.812 -0.4221  3.5111 -3.5931
29877WAT    EPW21315   0.797   7.475   0.851 -1.3897 -0.0172 -0.5739
29878WAT      O21316   1.939   2.605   0.108 -0.1482  0.4269  0.2492
29878WAT     H121317   1.937   2.617   0.203  0.9738 -0.5715  0.4265
29878WAT     H221318   1.923   2.693   0.073  0.8733  1.1145  1.3914
29878WAT    EPW21319   1.937   2.618   0.116  0.1345  0.3860  0.4233
29879WAT      O21320  -2.316   0.072   7.798  0.0561 -0.2560  0.7485
29879WAT     H121321  -2.252   0.027   7.853 -1.9205 -0.9646  2.6058
29879WAT     H221322  -2.350   0.003   7.739  1.0683  0.1569 -0.3569
29879WAT    EPW21323  -2.312   0.057   7.797 -0.0712 -0.2950  0.8476
29880WAT      O21324  -1.333   3.296   6.957 -0.4309  0.4478  0.1746
29880WAT     H121325  -1.295   3.210   6.974 -0.6377 -0.2738 -2.5895
29880WAT     H221326  -1.399   3.307   7.026  0.5037 -0.9799  1.3721
29880WAT    EPW21327  -1.337   3.286   6.969 -0.3349  0.1643 -0.0322
29881WAT      O21328   0.988   1.309   5.313  0.0319 -0.7490 -0.4336
29881WAT     H121329   0.929   1.332   5.242  1.3362 -2.8071 -2.3322
29881WAT     H221330   0.932   1.267   5.378 -0.6915 -3.0585 -2.3721
29881WAT    EPW21331   0.973   1.306   5.312  0.1085 -1.3251 -0.9396
29882WAT      O21332   2.637   7.100   6.841  0.0504  0.8943 -0.1403
29882WAT     H121333   2.673   7.083   6.928  0.3013 -4.3026 -0.9378
29882WAT     H221334   2.542   7.102   6.854  0.1117  0.9366  0.3257
29882WAT    EPW21335   2.629   7.098   6.854  0.0917  0.2143 -0.1841
29883WAT      O21336  -6.717   7.670   8.420 -0.3489  0.1242  0.5745
29883WAT     H121337  -6.736   7.695   8.329  0.1913 -1.1024  0.1103
29883WAT     H221338  -6.698   7.753   8.464 -1.8351  0.8803 -0.1156
29883WAT    EPW21339  -6.717   7.684   8.414 -0.4735  0.0622  0.4220
29884WAT      O21340   5.646   4.897   4.338 -0.5616  0.3191 -1.3484
29884WAT     H121341   5.695   4.850   4.270  0.6727  0.6198 -0.6866
29884WAT     H221342   5.712   4.926   4.400 -1.7196 -0.5188  0.3666
29884WAT    EPW21343   5.661   4.895   4.337 -0.5515  0.2482 -1.0350
29885WAT      O21344  -0.602   1.415   3.255  0.0447  0.0249 -0.5629
29885WAT     H121345  -0.681   1.398   3.202 -0.4693 -1.4263  0.6092
29885WAT     H221346  -0.621   1.374   3.339  0.9015  2.1787  0.7300
29885WAT    EPW21347  -0.615   1.407   3.259  0.0899  0.1176 -0.2378
29886WAT      O21348   4.006   1.331   6.748  0.2070  0.1971 -0.2446
29886WAT     H121349   4.023   1.281   6.668  0.0432  1.2535 -0.9534
29886WAT     H221350   3.929   1.383   6.729  0.0069  0.2738  0.7043
29886WAT    EPW21351   3.998   1.331   6.735  0.1590  0.3465 -0.2129
29887WAT      O21352   1.620   5.910   0.802  0.7145  1.1248 -0.6257
29887WAT     H121353   1.668   5.863   0.870  0.6363  0.4617 -1.0101
29887WAT     H221354   1.686   5.933   0.737  0.3447 -1.1276 -1.8973
29887WAT    EPW21355   1.635   5.907   0.802  0.6555  0.7403 -0.8442
29888WAT      O21356   0.151   0.809   4.443  0.2294 -0.1805 -0.2849
29888WAT     H121357   0.233   0.776   4.480 -0.2393 -3.8896 -2.1485
29888WAT     H221358   0.083   0.769   4.497 -0.3511 -1.7668 -2.0704
29888WAT    EPW21359   0.153   0.799   4.455  0.0911 -0.8789 -0.7660
29889WAT      O21360   5.357   4.577   4.653  0.4393  0.8902 -0.1805
29889WAT     H121361   5.377   4.661   4.695  0.9620  2.4078 -3.2097
29889WAT     H221362   5.269   4.588   4.617  0.1512 -0.2230  0.1446
29889WAT    EPW21363   5.348   4.589   4.654  0.4702  0.9432 -0.5374
29890WAT      O21364   7.735   1.539   3.209 -0.3759  0.7464 -0.1871
29890WAT     H121365   7.650   1.584   3.210 -0.5110  0.5654  2.4704
29890WAT     H221366   7.798   1.609   3.190 -0.9914  1.0655 -1.1719
29890WAT    EPW21367   7.732   1.554   3.207 -0.4747  0.7646  0.0336
29891WAT      O21368   0.488   9.584   2.088 -0.0426  0.7380 -0.3756
29891WAT     H121369   0.461   9.674   2.070  0.5874  0.7735 -1.2079
29891WAT     H221370   0.522   9.587   2.177  0.2088  1.3814 -0.4890
29891WAT    EPW21371   0.489   9.596   2.097  0.0737  0.8273 -0.5003
29892WAT      O21372  -6.798   7.960   8.508  0.2003 -0.0523  0.1491
29892WAT     H121373  -6.883   7.924   8.483 -0.0775  1.1192 -0.7084
29892WAT     H221374  -6.820   8.038   8.559  0.7817 -0.9871  1.8921
29892WAT    EPW21375  -6.812   7.966   8.511  0.2403 -0.0210  0.2661
29893WAT      O21376   3.737   7.720   0.281  0.0408 -0.1054 -0.8562
29893WAT     H121377   3.752   7.765   0.364  1.3725  2.0556 -2.1576
29893WAT     H221378   3.819   7.732   0.232 -1.1376 -0.1449 -2.9629
29893WAT    EPW21379   3.750   7.727   0.285  0.0610  0.1743 -1.3057
29894WAT      O21380   4.104   5.788   1.058  0.5379  0.0503 -0.2436
29894WAT     H121381   4.106   5.695   1.037 -0.7876 -0.0565  0.0125
29894WAT     H221382   4.113   5.832   0.973 -0.8370 -0.3480 -0.6274
29894WAT    EPW21383   4.105   5.781   1.044  0.1817 -0.0165 -0.2604
29895WAT      O21384   7.651   2.292   2.338 -0.3598 -0.1543 -0.0667
29895WAT     H121385   7.675   2.355   2.406  2.0821 -2.3496  1.2682
29895WAT     H221386   7.588   2.339   2.284  0.3065  2.9441  1.5995
29895WAT    EPW21387   7.646   2.307   2.340  0.0501 -0.0353  0.3291
29896WAT      O21388  -2.122   6.369   1.734 -0.4888  0.2769  0.3887
29896WAT     H121389  -2.173   6.421   1.672 -4.0585 -1.1864  1.8115
29896WAT     H221390  -2.103   6.430   1.805 -1.8050  0.5032  0.5789
29896WAT    EPW21391  -2.127   6.384   1.735 -1.1333  0.1137  0.6015
29897WAT      O21392   2.236  10.228   4.259 -0.5541  0.2831 -0.4398
29897WAT     H121393   2.259  10.254   4.348 -0.6512 -1.2650  0.0645
29897WAT     H221394   2.179  10.152   4.270 -1.8133  0.9781 -1.7940
29897WAT    EPW21395   2.231  10.221   4.272 -0.7329  0.1707 -0.5519
29898WAT      O21396   5.194   2.635   5.714 -0.9917 -0.5850 -0.1111
29898WAT     H121397   5.251   2.621   5.790 -0.5278 -1.3895 -0.5925
29898WAT     H221398   5.157   2.722   5.728 -1.4157 -0.9730  1.3585
29898WAT    EPW21399   5.197   2.645   5.726 -0.9866 -0.7422  0.0193
29899WAT      O21400  -1.262   2.199   7.878  0.0258  0.6417 -0.0225
29899WAT     H121401  -1.205   2.131   7.842  0.7664  2.0389 -1.6290
29899WAT     H221402  -1.334   2.205   7.816 -0.1888  1.1410  0.2728
29899WAT    EPW21403  -1.264   2.191   7.865  0.0952  0.8918 -0.1957
29900WAT      O21404   3.835   5.808   2.814  0.1222  0.6687 -0.6608
29900WAT     H121405   3.847   5.856   2.732 -1.2569  0.7687 -0.8276
29900WAT     H221406   3.857   5.872   2.882  1.3264  0.5684 -0.9360
29900WAT    EPW21407   3.839   5.823   2.812  0.0993  0.6688 -0.7192
29901WAT      O21408  -1.090   5.509   3.581  0.0331 -0.2073 -0.2450
29901WAT     H121409  -1.164   5.546   3.629 -0.1131  0.0892 -0.6895
29901WAT     H221410  -1.030   5.583   3.569 -0.3215 -0.0603 -1.2537
29901WAT    EPW21411  -1.092   5.524   3.585 -0.0330 -0.1488 -0.4367
29902WAT      O21412  -2.006   3.086   4.567 -0.2033  0.0841  0.2817
29902WAT     H121413  -2.053   3.169   4.576 -0.4664 -0.0446  0.1435
29902WAT     H221414  -1.923   3.100   4.612 -0.6640  0.0855  1.1572
29902WAT    EPW21415  -2.001   3.099   4.574 -0.2987  0.0672  0.3788
29903WAT      O21416   1.225   4.528   6.700 -0.0407  0.1951 -0.2017
29903WAT     H121417   1.155   4.500   6.640 -1.0040  3.6939 -0.9555
29903WAT     H221418   1.303   4.483   6.668 -1.3612 -1.5374 -1.2058
29903WAT    EPW21419   1.226   4.518   6.688 -0.3420  0.4280 -0.4337
29904WAT      O21420  -0.442   9.220   1.940 -0.5877 -0.5150 -0.4356
29904WAT     H121421  -0.374   9.170   1.896  0.1458  0.2812 -0.2486
29904WAT     H221422  -0.450   9.300   1.888  0.4059  0.5106  0.9040
29904WAT    EPW21423  -0.434   9.224   1.928 -0.3599 -0.2747 -0.2342
29905WAT      O21424   1.740   6.336   5.286  0.5904 -0.7155 -0.1021
29905WAT     H121425   1.646   6.356   5.285  1.2804  3.5687  0.0949
29905WAT     H221426   1.761   6.326   5.379  0.1140 -4.0123 -0.2235
29905WAT    EPW21427   1.731   6.337   5.298  0.6186 -0.5853 -0.0920
29906WAT      O21428  -3.648  10.195   0.179 -0.6392  0.1193  0.9811
29906WAT     H121429  -3.592  10.118   0.172 -0.9970 -0.4700  3.6012
29906WAT     H221430  -3.661  10.223   0.089 -1.8873 -3.8978 -0.3226
29906WAT    EPW21431  -3.642  10.189   0.166 -0.8510 -0.4878  1.1547
29907WAT      O21432   2.135   1.088   2.965 -0.0815 -0.2604  0.3820
29907WAT     H121433   2.144   1.170   2.915  1.3485 -0.9702 -0.5784
29907WAT     H221434   2.206   1.091   3.028 -0.9161 -0.1151  1.3424
29907WAT    EPW21435   2.145   1.099   2.966 -0.0029 -0.3349  0.3819
29908WAT      O21436   2.732   7.950   6.536  0.4524  0.0956 -0.8665
29908WAT     H121437   2.738   7.942   6.631 -1.5665  3.3467 -0.2981
29908WAT     H221438   2.699   7.865   6.507 -3.1175  0.2467  1.9449
29908WAT    EPW21439   2.728   7.938   6.545 -0.2848  0.5443 -0.4206
29909WAT      O21440   6.769   0.767   4.243  0.0684  0.2132 -0.8407
29909WAT     H121441   6.757   0.771   4.148  1.1390 -0.8887 -1.0444
29909WAT     H221442   6.696   0.818   4.278 -1.5617 -1.0746 -2.1909
29909WAT    EPW21443   6.757   0.774   4.235 -0.0055 -0.1020 -1.0457
29910WAT      O21444   4.578   8.815   0.542 -0.2844 -0.1675  0.0849
29910WAT     H121445   4.668   8.802   0.571 -0.2823  2.4154  1.5778
29910WAT     H221446   4.524   8.788   0.617 -0.8292 -2.0524 -0.9300
29910WAT    EPW21447   4.583   8.810   0.556 -0.3560 -0.0753  0.1479
29911WAT      O21448   4.159   4.163   7.816  0.5754  0.2372 -0.5383
29911WAT     H121449   4.073   4.184   7.779  0.5660 -0.4148 -0.8975
29911WAT     H221450   4.188   4.245   7.855  0.0967  0.6507 -1.0237
29911WAT    EPW21451   4.151   4.177   7.816  0.5112  0.2058 -0.6497
29912WAT      O21452   0.599   4.950   1.005  0.0711  0.6320  0.1104
29912WAT     H121453   0.605   5.040   0.972  0.0358 -0.3634 -2.8572
29912WAT     H221454   0.583   4.961   1.099  1.8442  3.6931  0.1963
29912WAT    EPW21455   0.598   4.964   1.013  0.3003  0.9043 -0.2697
29913WAT      O21456   6.463   2.887   5.240 -0.3346 -0.6912 -0.0301
29913WAT     H121457   6.444   2.806   5.191 -3.2315 -0.0500 -0.1593
29913WAT     H221458   6.430   2.869   5.328 -1.7799  0.5583 -0.2702
29913WAT    EPW21459   6.456   2.874   5.245 -0.9074 -0.4419 -0.0787
29914WAT      O21460  -1.144   8.889   8.075  0.2523  0.1921  0.4309
29914WAT     H121461  -1.117   8.869   7.985  2.7570 -0.5581  1.2698
29914WAT     H221462  -1.150   8.985   8.077  0.2367  0.2199 -0.5096
29914WAT    EPW21463  -1.142   8.899   8.063  0.5806  0.0973  0.4172
29915WAT      O21464   2.546   1.060   8.903 -0.0005  0.1235 -0.1593
29915WAT     H121465   2.502   1.103   8.829  1.3642  1.4902 -0.2127
29915WAT     H221466   2.478   1.054   8.971 -1.0301 -0.3754 -1.2056
29915WAT    EPW21467   2.531   1.065   8.902  0.0436  0.2380 -0.3047
29916WAT      O21468   2.665   0.116   3.102  0.0601 -0.4324  0.0199
29916WAT     H121469   2.597   0.182   3.098 -0.5909 -1.1493 -1.6157
29916WAT     H221470   2.654   0.074   3.187 -3.8014 -2.7814 -1.3981
29916WAT    EPW21471   2.655   0.119   3.113 -0.5351 -0.8368 -0.3829
29917WAT      O21472   8.735   0.174   2.783  0.3834 -0.0329 -0.7417
29917WAT     H121473   8.704   0.257   2.749 -0.3522  0.3556  0.7985
29917WAT     H221474   8.828   0.171   2.759  0.0475  0.4773 -2.1850
29917WAT    EPW21475   8.743   0.184   2.776  0.2418  0.0856 -0.7288
29918WAT      O21476   3.660   8.849   6.349  0.3283 -0.3594 -0.2587
29918WAT     H121477   3.733   8.790   6.368  0.3140  0.1527  1.5311
29918WAT     H221478   3.582   8.799   6.372  0.2563 -0.0032  0.2699
29918WAT    EPW21479   3.659   8.835   6.354  0.3170 -0.2446  0.0470
29919WAT      O21480  -0.764   1.239   5.115  0.2006  0.5914  1.1250
29919WAT     H121481  -0.809   1.200   5.040  1.2886 -0.4575  0.9837
29919WAT     H221482  -0.828   1.299   5.153 -0.8498  0.1054  0.1779
29919WAT    EPW21483  -0.779   1.241   5.110  0.2055  0.3890  0.9816
29920WAT      O21484  -1.136   9.771   0.483  0.5299  0.0643  0.5221
29920WAT     H121485  -1.154   9.789   0.575 -1.3107 -2.3571  0.7451
29920WAT     H221486  -1.064   9.829   0.461 -0.3194  2.2060  2.8952
29920WAT    EPW21487  -1.129   9.781   0.492  0.1751  0.0277  0.8645
29921WAT      O21488   5.454   2.769   3.913 -0.0354 -0.5422 -0.2745
29921WAT     H121489   5.449   2.808   4.000  3.3438 -2.9305  1.2402
29921WAT     H221490   5.522   2.820   3.868 -1.5608  0.4952 -1.4810
29921WAT    EPW21491   5.463   2.781   3.918  0.2093 -0.7204 -0.2339
29922WAT      O21492   5.439   4.988   1.161 -0.1226  0.1625 -0.0138
29922WAT     H121493   5.495   4.977   1.238  0.1054 -0.3654 -0.2485
29922WAT     H221494   5.444   4.903   1.116 -2.0382 -0.3012  0.5726
29922WAT    EPW21495   5.447   4.975   1.165 -0.3452  0.0319  0.0326
29923WAT      O21496   4.892   7.640   4.715 -0.0996  0.3299 -0.6402
29923WAT     H121497   4.823   7.579   4.687 -0.4798  0.7970 -0.7489
29923WAT     H221498   4.889   7.710   4.650  0.2081  0.5552 -0.4139
29923WAT    EPW21499   4.882   7.641   4.703 -0.1092  0.4213 -0.6249
29924WAT      O21500   3.280   4.821   3.154 -0.2452  0.2886 -0.0628
29924WAT     H121501   3.245   4.752   3.210 -1.1880  0.1898 -0.7353
29924WAT     H221502   3.374   4.819   3.168 -0.1495 -1.7344 -0.7128
29924WAT    EPW21503   3.288   4.812   3.163 -0.3570  0.0088 -0.2372
29925WAT      O21504   1.092   7.848   8.482  0.1332 -0.2909  0.1488
29925WAT     H121505   1.089   7.819   8.574 -0.6196  0.6086  0.4194
29925WAT     H221506   1.029   7.792   8.437 -2.6303  1.8932  0.9914
29925WAT    EPW21507   1.083   7.837   8.488 -0.3306  0.1159  0.2956
29926WAT      O21508   2.843   4.463   8.860 -0.2136  0.5138  0.1879
29926WAT     H121509   2.777   4.414   8.813 -0.9060  1.6512 -0.0709
29926WAT     H221510   2.926   4.425   8.832 -0.7243 -3.0708  2.8738
29926WAT    EPW21511   2.846   4.452   8.851 -0.3723  0.1910  0.5078
29927WAT      O21512   3.334   5.174   3.487 -0.1935  0.0698  0.3704
29927WAT     H121513   3.301   5.153   3.400  1.0446 -1.1605  0.1653
29927WAT     H221514   3.315   5.267   3.498  0.0898  0.3718 -1.4237
29927WAT    EPW21515   3.327   5.183   3.477  0.0072 -0.0527  0.1067
29928WAT      O21516  -1.675   7.919   1.412  0.2203 -0.1401  0.2659
29928WAT     H121517  -1.599   7.971   1.441 -0.4691  0.4075  1.1466
29928WAT     H221518  -1.642   7.829   1.409  0.4648 -0.1801  2.4037
29928WAT    EPW21519  -1.661   7.914   1.415  0.1617 -0.0732  0.6640
29929WAT      O21520  -0.188   9.336   4.535  0.4111 -0.7265  0.6179
29929WAT     H121521  -0.230   9.254   4.510  0.6422 -1.0390  1.2336
29929WAT     H221522  -0.227   9.358   4.619 -0.1463  0.1618  0.1378
29929WAT    EPW21523  -0.199   9.328   4.542  0.3681 -0.6504  0.6359
29930WAT      O21524  -2.798   7.407   4.883  0.3537  0.2336 -0.7386
29930WAT     H121525  -2.777   7.317   4.910  2.3003  0.5283 -1.1750
29930WAT     H221526  -2.894   7.410   4.887  0.2750 -1.5613  0.2245
29930WAT    EPW21527  -2.808   7.395   4.887  0.6002  0.0358 -0.6690
29931WAT      O21528  -2.033   7.085   5.840 -0.5120  0.3364  0.2909
29931WAT     H121529  -2.121   7.115   5.817 -2.5940 -0.8090  5.4727
29931WAT     H221530  -2.015   7.014   5.778 -1.7987  2.4310 -2.7300
29931WAT    EPW21531  -2.042   7.080   5.828 -0.9564  0.4613  0.5758
29932WAT      O21532   2.996   0.579   6.794 -0.2734 -1.0870 -0.0146
29932WAT     H121533   3.064   0.543   6.737  0.3775 -0.2186  0.1762
29932WAT     H221534   2.950   0.642   6.739 -0.2764 -0.9542  0.1412
29932WAT    EPW21535   2.999   0.583   6.779 -0.1880 -0.9549  0.0310
29933WAT      O21536  -6.970   7.652   8.730  0.1491 -0.8998 -0.6671
29933WAT     H121537  -7.033   7.604   8.677  1.5366 -0.7512 -2.5344
29933WAT     H221538  -6.889   7.602   8.723  0.4171 -0.8436  1.3140
29933WAT    EPW21539  -6.967   7.639   8.722  0.3672 -0.8729 -0.6523
29934WAT      O21540   0.444   4.400   6.907 -0.8305 -0.2521  0.3886
29934WAT     H121541   0.414   4.460   6.840  0.1600 -0.3962 -0.2171
29934WAT     H221542   0.470   4.456   6.980  1.2697  0.2279 -0.6300
29934WAT    EPW21543   0.444   4.415   6.908 -0.4229 -0.2079  0.1745
29935WAT      O21544   0.834  10.027   0.201 -0.6746  0.1833  0.6539
29935WAT     H121545   0.799  10.051   0.287 -1.9083 -0.1014  0.2457
29935WAT     H221546   0.861   9.936   0.211 -1.3710 -0.0366  0.5842
29935WAT    EPW21547   0.833  10.018   0.214 -0.9292  0.1168  0.5909
29936WAT      O21548   4.160   2.206   3.668 -0.5878 -0.6038 -0.2063
29936WAT     H121549   4.116   2.289   3.687  1.4906  0.8857 -1.5086
29936WAT     H221550   4.112   2.141   3.720 -2.8293  1.2340  0.1969
29936WAT    EPW21551   4.148   2.208   3.677 -0.6092 -0.1651 -0.3250
29937WAT      O21552  -6.458   9.376   6.650  0.2845  0.3289 -0.5599
29937WAT     H121553  -6.499   9.459   6.678 -0.7087  0.5320 -2.4277
29937WAT     H221554  -6.532   9.316   6.640  0.7820 -0.2128 -1.0205
29937WAT    EPW21555  -6.473   9.379   6.652  0.2193  0.2847 -0.8671
29938WAT      O21556  -2.479   9.266   7.927  1.0280  0.0864  0.5063
29938WAT     H121557  -2.568   9.268   7.961 -0.5830 -1.0959 -3.1613
29938WAT     H221558  -2.461   9.356   7.899 -0.4340 -0.2496 -1.7498
29938WAT    EPW21559  -2.488   9.278   7.928  0.6226 -0.1140 -0.2749
29939WAT      O21560  -6.985   9.335   6.115  0.0117 -0.4641 -0.1094
29939WAT     H121561  -6.994   9.429   6.132 -2.8959 -0.3618 -1.6648
29939WAT     H221562  -7.002   9.294   6.200 -0.8907  0.3672  0.1237
29939WAT    EPW21563  -6.988   9.342   6.129 -0.4907 -0.3414 -0.2837
29940WAT      O21564  -3.384   2.341   6.279  0.3124  0.1727 -0.3964
29940WAT     H121565  -3.435   2.407   6.232  0.1440  0.3850  0.0770
29940WAT     H221566  -3.346   2.389   6.353 -2.4906 -0.8985  1.9218
29940WAT    EPW21567  -3.386   2.356   6.283 -0.0795  0.0595 -0.0281
29941WAT      O21568   0.011   3.594   8.179  0.1741 -0.0307 -0.5606
29941WAT     H121569   0.056   3.576   8.097  0.1524  0.0744 -0.5955
29941WAT     H221570   0.079   3.628   8.237  0.0184  0.7544 -0.8213
29941WAT    EPW21571   0.026   3.596   8.176  0.1507  0.0867 -0.5994
29942WAT      O21572   0.124   8.713   4.474 -0.4779  0.2269  0.0646
29942WAT     H121573   0.173   8.752   4.401 -1.9340  2.2245  0.0383
29942WAT     H221574   0.033   8.735   4.454 -1.0692 -0.6688  1.6590
29942WAT    EPW21575   0.118   8.721   4.462 -0.7479  0.3724  0.2713
29943WAT      O21576  -0.614   6.993   1.010  0.3262 -0.5350 -0.1193
29943WAT     H121577  -0.660   6.976   1.092  0.6443 -0.2605  0.1225
29943WAT     H221578  -0.528   6.953   1.022 -0.4392 -2.6420 -1.2645
29943WAT    EPW21579  -0.608   6.986   1.022  0.2672 -0.7768 -0.2385
29944WAT      O21580   2.525   1.135   7.492  0.2023 -0.4790 -0.0171
29944WAT     H121581   2.471   1.123   7.414 -0.1642  0.2075  0.1276
29944WAT     H221582   2.551   1.227   7.490 -0.0375 -0.3872  0.8190
29944WAT    EPW21583   2.522   1.146   7.481  0.1223 -0.3763  0.1123
29945WAT      O21584  -0.686   5.450   7.593  0.6527  0.1967  0.0492
29945WAT     H121585  -0.777   5.454   7.564  0.3275  2.8715  1.1021
29945WAT     H221586  -0.689   5.397   7.673 -0.0254  0.4462  0.1965
29945WAT    EPW21587  -0.699   5.444   7.600  0.5204  0.5825  0.2072
29946WAT      O21588   1.274   2.275   2.617  0.2079 -0.2146 -0.3756
29946WAT     H121589   1.194   2.308   2.576 -0.6909 -0.8466  0.7659
29946WAT     H221590   1.317   2.353   2.652  0.1699  0.1487 -1.1245
29946WAT    EPW21591   1.269   2.290   2.617  0.0843 -0.2501 -0.3239
29947WAT      O21592   4.427   7.950   0.861 -0.2312 -0.9208  0.0263
29947WAT     H121593   4.492   7.989   0.802  0.1256 -0.8436  0.4680
29947WAT     H221594   4.364   8.020   0.875  0.7285 -0.2747  1.3038
29947WAT    EPW21595   4.427   7.964   0.855 -0.0575 -0.8254  0.2530
29948WAT      O21596  -1.387   5.541   6.240  0.1070  0.3300  0.3093
29948WAT     H121597  -1.476   5.517   6.265  0.2663  0.7652  1.3758
29948WAT     H221598  -1.381   5.635   6.259  0.6962  0.3713 -0.0345
29948WAT    EPW21599  -1.398   5.550   6.246  0.2057  0.3927  0.4048
29949WAT      O21600  -0.978   5.659   2.103  0.0729 -1.0565  0.4292
29949WAT     H121601  -0.951   5.622   2.187 -2.2412 -0.7627  1.3944
29949WAT     H221602  -1.055   5.608   2.078 -0.9308  0.6292 -0.0878
29949WAT    EPW21603  -0.985   5.648   2.111 -0.3647 -0.7954  0.4883
29950WAT      O21604   2.382   0.006   5.568  0.0292  0.1100 -0.5845
29950WAT     H121605   2.449  -0.035   5.622 -2.5877 -2.1785  1.2229
29950WAT     H221606   2.393   0.100   5.583  0.7699 -0.3531  2.2897
29950WAT    EPW21607   2.392   0.013   5.577 -0.2183 -0.2529  0.0329
29951WAT      O21608  -5.177   5.490   7.862  0.7952  0.2076  0.5408
29951WAT     H121609  -5.128   5.538   7.929 -0.1007  2.1110 -0.0834
29951WAT     H221610  -5.264   5.530   7.864 -0.0010 -1.4322 -0.0393
29951WAT    EPW21611  -5.182   5.502   7.871  0.5722  0.2425  0.3819
29952WAT      O21612   3.059   0.889   4.813 -0.0154 -0.1085  0.2477
29952WAT     H121613   3.007   0.967   4.834 -0.9084 -0.0284 -1.9405
29952WAT     H221614   2.995   0.818   4.814  0.0583 -0.2259 -1.1480
29952WAT    EPW21615   3.043   0.890   4.816 -0.1234 -0.1134 -0.2251
29953WAT      O21616  -4.392   3.742   7.059  0.1461  0.9672  0.4440
29953WAT     H121617  -4.307   3.785   7.053  0.7656 -0.2745 -0.0730
29953WAT     H221618  -4.436   3.785   7.132  0.7335  2.4431 -0.0465
29953WAT    EPW21619  -4.387   3.753   7.068  0.3052  0.9980  0.3109
29954WAT      O21620  -5.114   5.194   7.223 -0.8913 -0.4892 -0.4409
29954WAT     H121621  -5.071   5.204   7.307  0.8646 -0.6306 -1.2806
29954WAT     H221622  -5.184   5.131   7.239 -2.1029  1.2036  1.3999
29954WAT    EPW21623  -5.117   5.187   7.236 -0.8194 -0.2847 -0.3088
29955WAT      O21624  -3.246   8.583   3.846 -0.2172 -0.5868  0.1640
29955WAT     H121625  -3.274   8.667   3.809 -2.4139  0.4196  3.5843
29955WAT     H221626  -3.326   8.531   3.849 -0.2520 -0.5281  3.3645
29955WAT    EPW21627  -3.260   8.587   3.842 -0.5115 -0.4463  1.0372
29956WAT      O21628  -0.099   7.151   7.561 -0.1561 -0.2993  0.0095
29956WAT     H121629  -0.188   7.120   7.546  0.0050 -0.4424 -0.7294
29956WAT     H221630  -0.080   7.128   7.652 -1.0059  0.0888  0.2885
29956WAT    EPW21631  -0.108   7.144   7.571 -0.2470 -0.2668 -0.0513
29957WAT      O21632  -5.281   3.386   8.535  0.4255 -0.2328  0.7434
29957WAT     H121633  -5.207   3.357   8.483  0.4004  2.6244 -1.1082
29957WAT     H221634  -5.333   3.439   8.475 -0.2315  2.3149  3.3245
29957WAT    EPW21635  -5.278   3.389   8.520  0.3357  0.4799  0.8397
29958WAT      O21636  -3.803   8.302   7.057  0.6206 -0.2087  0.1029
29958WAT     H121637  -3.858   8.360   7.110  0.8563 -0.8061  1.0258
29958WAT     H221638  -3.770   8.237   7.119  1.6428 -0.3941 -0.6183
29958WAT    EPW21639  -3.806   8.301   7.072  0.7864 -0.3123  0.1297
29959WAT      O21640   1.208   0.639   7.430  0.0702 -0.1637  0.4973
29959WAT     H121641   1.116   0.637   7.456 -0.7438 -3.4715 -1.9767
29959WAT     H221642   1.244   0.555   7.460  1.8384  0.3520 -0.0433
29959WAT    EPW21643   1.201   0.628   7.437  0.1960 -0.5320  0.0997
29960WAT      O21644  -0.692   2.331   2.236  0.5945  0.0156  0.1104
29960WAT     H121645  -0.712   2.328   2.330  0.9796 -0.1865  0.1903
29960WAT     H221646  -0.675   2.239   2.213  2.1158  0.2357  0.2105
29960WAT    EPW21647  -0.692   2.318   2.245  0.8459  0.0180  0.1341
29961WAT      O21648   3.691   7.707   1.990  0.4157  0.4571 -0.1664
29961WAT     H121649   3.764   7.681   2.046  0.3047  1.2022  0.3456
29961WAT     H221650   3.619   7.723   2.050  0.3310  1.4092 -0.4902
29961WAT    EPW21651   3.691   7.706   2.005  0.3898  0.6812 -0.1415
29962WAT      O21652   3.241   8.592   5.431 -0.6677 -0.1556  0.2837
29962WAT     H121653   3.241   8.539   5.510 -0.2903  0.1778  0.5147
29962WAT     H221654   3.168   8.560   5.379 -1.4601  0.2069  1.1564
29962WAT    EPW21655   3.232   8.581   5.435 -0.7224 -0.0639  0.4294
29963WAT      O21656   5.845   1.099   6.661  0.2686  0.1088 -0.0903
29963WAT     H121657   5.898   1.032   6.704  0.0451  1.3053  2.1995
29963WAT     H221658   5.754   1.070   6.673  0.2417 -0.5734 -1.6426
29963WAT    EPW21659   5.840   1.087   6.668  0.2353  0.1765  0.0072
29964WAT      O21660  -1.982   0.798   8.142  0.0896 -0.0685  0.1508
29964WAT     H121661  -2.024   0.716   8.169  1.3320 -1.0171 -0.6661
29964WAT     H221662  -2.033   0.866   8.185 -0.9563 -1.2699  0.8963
29964WAT    EPW21663  -1.994   0.796   8.151  0.1156 -0.3521  0.1411
29965WAT      O21664   4.183   5.560   3.949 -0.4152  0.4917 -0.3636
29965WAT     H121665   4.277   5.581   3.949 -0.3208  0.2525  1.9493
29965WAT     H221666   4.142   5.635   3.905  0.7773  0.9048 -0.8178
29965WAT    EPW21667   4.190   5.572   3.943 -0.2456  0.5147 -0.1186
29966WAT      O21668   1.189   8.192   6.313 -0.4878 -0.1152  0.2065
29966WAT     H121669   1.234   8.123   6.362 -0.3796 -0.7440 -0.7333
29966WAT     H221670   1.255   8.261   6.303 -0.9026  0.5996  2.0200
29966WAT    EPW21671   1.203   8.192   6.318 -0.5283 -0.1035  0.3219
29967WAT      O21672   1.572   5.166   8.056  0.1004 -0.0417 -0.4503
29967WAT     H121673   1.611   5.085   8.091  0.0377  0.2028  0.1879
29967WAT     H221674   1.502   5.135   7.999  0.0749 -0.4417 -0.2101
29967WAT    EPW21675   1.568   5.151   8.053  0.0888 -0.0622 -0.3343
29968WAT      O21676  -3.357   6.997   6.243  1.0515  0.4217  0.2797
29968WAT     H121677  -3.446   7.002   6.279 -0.0988 -1.4542 -2.0188
29968WAT     H221678  -3.303   6.969   6.317  0.1833  3.3918  2.2352
29968WAT    EPW21679  -3.362   6.994   6.258  0.7854  0.5660  0.2346
29969WAT      O21680  -1.205   0.552   8.784  0.0296 -0.4643 -0.5013
29969WAT     H121681  -1.146   0.492   8.830 -0.8940 -0.9233  0.1269
29969WAT     H221682  -1.174   0.639   8.808  2.1922 -0.6175 -2.4508
29969WAT    EPW21683  -1.193   0.555   8.793  0.1930 -0.5450 -0.6752
29970WAT      O21684  -0.513   0.196   6.121 -0.7525  0.2754  0.5990
29970WAT     H121685  -0.590   0.253   6.123 -0.6046  0.7382 -2.2873
29970WAT     H221686  -0.458   0.232   6.051  0.0885 -2.4276 -0.2729
29970WAT    EPW21687  -0.516   0.208   6.112 -0.6221 -0.0201  0.1032
29971WAT      O21688   6.825   0.422   0.208 -0.2059 -0.0894 -0.3456
29971WAT     H121689   6.764   0.408   0.280 -1.6670  2.1694 -1.0147
29971WAT     H221690   6.871   0.503   0.232 -1.5200  1.3562 -2.3404
29971WAT    EPW21691   6.823   0.431   0.221 -0.5720  0.3992 -0.6969
29972WAT      O21692   6.436   5.373   0.777 -0.3864 -0.2856 -0.4729
29972WAT     H121693   6.413   5.281   0.791 -2.0246  0.3424  1.4457
29972WAT     H221694   6.367   5.406   0.719  0.0892 -0.2213 -1.0056
29972WAT    EPW21695   6.424   5.365   0.771 -0.5398 -0.1941 -0.2901
29973WAT      O21696  -1.183   8.348   0.360 -0.1108 -0.4385  0.2824
29973WAT     H121697  -1.240   8.318   0.289 -0.4248  2.2074 -0.7324
29973WAT     H221698  -1.131   8.272   0.384 -0.5774 -1.6432 -2.2389
29973WAT    EPW21699  -1.184   8.334   0.354 -0.2137 -0.2484 -0.1840
29974WAT      O21700  -1.439   3.393   0.424 -0.1373  0.1438  0.9017
29974WAT     H121701  -1.417   3.327   0.358 -0.2400  0.7113  0.2898
29974WAT     H221702  -1.443   3.475   0.375  1.4937  0.8682  1.9136
29974WAT    EPW21703  -1.437   3.395   0.409  0.0643  0.3142  0.9544
29975WAT      O21704   4.526   8.454   2.606  0.1806  0.0449  0.0037
29975WAT     H121705   4.528   8.516   2.679  1.1920  0.0408 -0.0052
29975WAT     H221706   4.555   8.371   2.645 -0.4589 -0.2538 -0.1443
29975WAT    EPW21707   4.530   8.451   2.621  0.2298  0.0048 -0.0170
29976WAT      O21708   5.641   2.862   4.677  0.0043 -0.3575  0.0592
29976WAT     H121709   5.730   2.871   4.710  0.4556 -0.3096 -1.1099
29976WAT     H221710   5.587   2.908   4.741  0.8227 -0.2875  0.7236
29976WAT    EPW21711   5.645   2.869   4.690  0.1719 -0.3420 -0.0074
29977WAT      O21712   1.302   2.200   8.699  0.1628  0.5779 -0.6748
29977WAT     H121713   1.371   2.237   8.753  0.3857  1.1145 -1.3141
29977WAT     H221714   1.292   2.262   8.627  0.0952 -0.2820 -1.4208
29977WAT    EPW21715   1.310   2.213   8.697  0.1832  0.5352 -0.8574
29978WAT      O21716   0.805   8.409   7.509  0.2481  0.2867  0.2465
29978WAT     H121717   0.789   8.503   7.500  1.2036  0.4202 -0.2029
29978WAT     H221718   0.749   8.369   7.443  1.5016  0.7258 -1.1627
29978WAT    EPW21719   0.796   8.416   7.499  0.5395  0.3624  0.0014
29979WAT      O21720   8.104   1.538   2.457 -0.6447 -0.1021 -0.3873
29979WAT     H121721   8.047   1.591   2.402  0.6878  0.3898 -1.3677
29979WAT     H221722   8.143   1.474   2.396  0.3083 -0.0212  0.1224
29979WAT    EPW21723   8.102   1.536   2.441 -0.3433 -0.0265 -0.4494
29980WAT      O21724  -2.723  10.020   5.238 -0.2611 -0.2655 -0.4084
29980WAT     H121725  -2.705   9.927   5.230 -3.2856 -1.0426  0.6175
29980WAT     H221726  -2.723  10.052   5.148 -1.5644 -1.8052 -1.0028
29980WAT    EPW21727  -2.721  10.012   5.225 -0.8320 -0.5708 -0.3514
29981WAT      O21728   7.998   6.625   0.554  0.0273 -0.4328 -0.1964
29981WAT     H121729   8.034   6.604   0.468 -1.3911 -0.2446 -0.8657
29981WAT     H221730   8.018   6.718   0.566  0.9202 -0.6410  0.0566
29981WAT    EPW21731   8.006   6.635   0.545 -0.0420 -0.4356 -0.2513
29982WAT      O21732   2.777   8.645   4.030  0.2687 -0.5811  0.3317
29982WAT     H121733   2.754   8.659   4.122  0.3229  1.7484  0.0632
29982WAT     H221734   2.726   8.569   4.004  0.8206 -1.7669  2.4634
29982WAT    EPW21735   2.767   8.637   4.039  0.3486 -0.4301  0.5774
29983WAT      O21736   5.976   7.157   2.546  0.8780  0.0384 -0.2763
29983WAT     H121737   5.953   7.070   2.515 -0.1275  1.9811 -6.0939
29983WAT     H221738   5.896   7.190   2.586  0.3161 -0.5984 -0.8686
29983WAT    EPW21739   5.963   7.150   2.547  0.6711  0.2105 -1.1218
29984WAT      O21740   0.714   9.138   0.708  0.2780 -0.1294 -1.1551
29984WAT     H121741   0.746   9.189   0.634 -1.0444 -0.3535 -1.9186
29984WAT     H221742   0.662   9.200   0.759  1.7356  0.1957 -0.0126
29984WAT    EPW21743   0.711   9.153   0.705  0.2958 -0.1163 -1.1051
29985WAT      O21744   4.288   3.278   1.430  0.4908  0.4839 -0.3929
29985WAT     H121745   4.250   3.191   1.439  1.0666  0.2770  0.0995
29985WAT     H221746   4.241   3.332   1.494 -1.4353  1.1075 -2.2100
29985WAT    EPW21747   4.277   3.274   1.440  0.3128  0.5388 -0.5676
29986WAT      O21748   5.337   5.810   4.982 -0.3291  0.4315  0.0611
29986WAT     H121749   5.289   5.881   4.941  1.3134  1.8658  0.4982
29986WAT     H221750   5.270   5.757   5.026 -2.1984 -1.1420 -4.1504
29986WAT    EPW21751   5.322   5.812   4.982 -0.3591  0.4132 -0.4368
29987WAT      O21752  -0.838   6.299   5.163 -0.7315  0.0997  0.4756
29987WAT     H121753  -0.752   6.339   5.148 -1.1778  0.3224 -1.8871
29987WAT     H221754  -0.900   6.363   5.128 -1.6782 -1.1186 -0.1168
29987WAT    EPW21755  -0.835   6.313   5.157 -0.9152 -0.0317  0.0858
29988WAT      O21756   7.648   8.683   0.393 -0.0277  0.0756  0.2467
29988WAT     H121757   7.724   8.733   0.364  0.7389 -1.3644 -0.3100
29988WAT     H221758   7.580   8.749   0.408  0.7873  1.2342 -0.9504
29988WAT    EPW21759   7.649   8.698   0.391  0.1810  0.0381  0.0154
29989WAT      O21760   3.653   6.670   1.162  0.1767  0.2001  0.7324
29989WAT     H121761   3.576   6.641   1.210  0.4388  1.4716  1.9851
29989WAT     H221762   3.668   6.759   1.192  0.5076  0.9903 -1.5488
29989WAT    EPW21763   3.645   6.678   1.172  0.2550  0.4721  0.5968
29990WAT      O21764   1.643   9.267   8.302  0.0692 -0.4399  0.1975
29990WAT     H121765   1.717   9.213   8.275 -0.0874  0.1199 -1.4749
29990WAT     H221766   1.575   9.250   8.236 -1.3514 -1.0021  1.7236
29990WAT    EPW21767   1.644   9.258   8.290 -0.1389 -0.4406  0.1783
29991WAT      O21768   1.715   9.701   3.412  0.0363 -0.2041  0.2839
29991WAT     H121769   1.757   9.756   3.478 -0.4387  2.8394 -1.7233
29991WAT     H221770   1.623   9.701   3.436  0.2369 -1.6879  1.2225
29991WAT    EPW21771   1.709   9.708   3.424  0.0001  0.0019  0.1429
29992WAT      O21772   5.173   2.843   0.701 -0.3655  0.3366  0.6385
29992WAT     H121773   5.138   2.892   0.627 -0.0361  1.6893  1.3427
29992WAT     H221774   5.221   2.770   0.661 -0.1896  1.0378 -0.4677
29992WAT    EPW21775   5.175   2.839   0.686 -0.2987  0.6075  0.5855
29993WAT      O21776   1.662   5.814   1.626  0.0729 -0.5173  0.1322
29993WAT     H121777   1.609   5.814   1.546 -0.0730 -2.6817  0.1698
29993WAT     H221778   1.606   5.856   1.692 -1.3305 -2.0714 -0.0094
29993WAT    EPW21779   1.648   5.820   1.624 -0.1314 -1.0078  0.1186
29994WAT      O21780   6.067   8.948   1.394 -0.5491  0.1530  1.1250
29994WAT     H121781   5.981   8.946   1.351  0.3382 -2.9392 -0.8514
29994WAT     H221782   6.070   8.866   1.444  2.3324 -1.6631 -1.6013
29994WAT    EPW21783   6.056   8.937   1.395 -0.0520 -0.4945  0.5048
29995WAT      O21784  -0.315   7.714   3.957 -0.5845  0.2520 -0.3581
29995WAT     H121785  -0.349   7.788   3.906 -1.9371 -1.0640 -1.4606
29995WAT     H221786  -0.304   7.749   4.045 -0.4558  1.9655 -1.0053
29995WAT    EPW21787  -0.318   7.728   3.962 -0.7460  0.3045 -0.5889
29996WAT      O21788   1.208   4.386   5.934  0.1209  0.0765 -0.2835
29996WAT     H121789   1.212   4.328   6.010  0.1647 -0.0205 -0.3599
29996WAT     H221790   1.175   4.469   5.970 -1.8408 -0.5534 -0.4970
29996WAT    EPW21791   1.204   4.389   5.949 -0.1320 -0.0193 -0.3214
29997WAT      O21792   4.945   1.837   3.736 -0.5959  0.2083 -0.5529
29997WAT     H121793   5.038   1.826   3.757 -1.0403  1.5602  2.8679
29997WAT     H221794   4.917   1.751   3.706  1.3429 -0.7755  0.2310
29997WAT    EPW21795   4.954   1.824   3.735 -0.3986  0.2569  0.0018
29998WAT      O21796  -4.178  10.171   8.127 -1.3334 -0.0018 -0.2319
29998WAT     H121797  -4.156  10.079   8.145 -0.4670  0.1652 -0.4043
29998WAT     H221798  -4.227  10.168   8.044 -2.6856 -0.4553  0.5437
29998WAT    EPW21799  -4.182  10.158   8.118 -1.3976 -0.0396 -0.1526
29999WAT      O21800   5.573   3.328   0.797  0.5072  0.6626 -0.5217
29999WAT     H121801   5.527   3.245   0.783  1.7239 -0.3259  0.9520
29999WAT     H221802   5.505   3.395   0.791 -0.5617 -0.4622 -1.4304
29999WAT    EPW21803   5.558   3.326   0.794  0.5269  0.3839 -0.4472
30000WAT      O21804  -3.279   3.661   6.623  0.1555  0.4978 -0.2192
30000WAT     H121805  -3.204   3.630   6.573 -0.0255 -1.8105  0.8391
30000WAT     H221806  -3.242   3.727   6.683  0.9812  0.6990 -0.9301
30000WAT    EPW21807  -3.264   3.666   6.624  0.2404  0.2199 -0.1736
30001WAT      O21808   1.013   3.121   8.642  0.1378  0.6237  0.0846
30001WAT     H121809   1.085   3.073   8.684 -0.4626  0.9740  1.5506
30001WAT     H221810   0.966   3.054   8.592 -1.3223 -0.6420  2.9287
30001WAT    EPW21811   1.017   3.106   8.641 -0.1340  0.5031  0.6528
30002WAT      O21812  -0.175   0.110   6.305 -0.0456  0.4472  0.2614
30002WAT     H121813  -0.195   0.158   6.225  0.0201 -1.5598 -1.0464
30002WAT     H221814  -0.261   0.080   6.336 -0.1127  1.5772  1.2093
30002WAT    EPW21815  -0.189   0.112   6.298 -0.0458  0.3315  0.2139
30003WAT      O21816  -1.819   6.625   7.214 -0.8386 -0.7570  0.2076
30003WAT     H121817  -1.776   6.674   7.284 -1.1626  2.5031 -1.6721
30003WAT     H221818  -1.796   6.533   7.231 -0.9611 -0.2024  4.5192
30003WAT    EPW21819  -1.811   6.619   7.226 -0.8975 -0.2537  0.5283
30004WAT      O21820   0.492   8.653   8.436  0.6446  0.1209 -0.6481
30004WAT     H121821   0.481   8.592   8.508 -2.1446 -0.0530 -1.1215
30004WAT     H221822   0.567   8.619   8.387 -0.2266 -2.3934 -0.3619
30004WAT    EPW21823   0.501   8.640   8.439  0.1618 -0.2337 -0.6728
30005WAT      O21824   1.474   7.502   4.356  0.4154  0.0758  0.4323
30005WAT     H121825   1.379   7.497   4.342  0.2072  0.9504  1.4283
30005WAT     H221826   1.506   7.414   4.335  0.0494  0.8035 -4.3181
30005WAT    EPW21827   1.465   7.490   4.351  0.3396  0.2871 -0.0629
30006WAT      O21828   4.613   1.488   5.045  0.2875  0.0561 -0.0824
30006WAT     H121829   4.565   1.492   4.962  0.4725  1.3323 -0.1445
30006WAT     H221830   4.686   1.548   5.033 -0.3736  1.2207  1.4340
30006WAT    EPW21831   4.616   1.496   5.033  0.2248  0.3781  0.1094
30007WAT      O21832  -5.757  10.084   5.520  0.4396  0.0497  0.1246
30007WAT     H121833  -5.825  10.042   5.573  0.2365  3.9080  3.4287
30007WAT     H221834  -5.801  10.103   5.437 -2.5786  1.9936  1.9574
30007WAT    EPW21835  -5.772  10.081   5.516  0.0148  0.8149  0.8020
30008WAT      O21836   0.896   8.795   5.916  0.3824  0.2397 -0.1755
30008WAT     H121837   0.962   8.736   5.881  0.9935 -0.3872  1.8497
30008WAT     H221838   0.944   8.848   5.980 -1.1858 -0.8782  2.0441
30008WAT    EPW21839   0.911   8.794   5.920  0.2562  0.0095  0.3843
30009WAT      O21840   2.368   4.761   2.935  0.4779 -0.2980 -0.0714
30009WAT     H121841   2.367   4.848   2.975  1.8115 -0.0259 -0.5954
30009WAT     H221842   2.359   4.778   2.841 -0.4264 -0.8109 -0.0909
30009WAT    EPW21843   2.367   4.775   2.928  0.5347 -0.3297 -0.1431
30010WAT      O21844   8.321   3.433   1.511  0.2588 -0.2627  0.4009
30010WAT     H121845   8.260   3.367   1.476 -1.0854  0.5855  1.0622
30010WAT     H221846   8.264   3.502   1.546  1.5601 -0.0714  2.3115
30010WAT    EPW21847   8.305   3.433   1.511  0.2532 -0.1255  0.7401
30011WAT      O21848   6.627   4.579   2.344 -0.3810  0.0903 -0.6541
30011WAT     H121849   6.650   4.668   2.368 -0.9299  0.1397 -0.2889
30011WAT     H221850   6.687   4.524   2.395  0.7493  0.2658 -1.7648
30011WAT    EPW21851   6.638   4.583   2.354 -0.3042  0.1199 -0.7526
30012WAT      O21852   1.021   5.609   7.401 -0.4534  0.0025 -0.0104
30012WAT     H121853   0.990   5.600   7.310 -0.5872 -0.8887  0.1139
30012WAT     H221854   0.994   5.527   7.443  1.3206 -0.4316  0.3319
30012WAT    EPW21855   1.013   5.597   7.394 -0.2370 -0.1724  0.0513
30013WAT      O21856   1.242   9.544   5.139  0.3739 -0.8490 -0.0685
30013WAT     H121857   1.294   9.560   5.217  0.7927  2.6966 -0.8805
30013WAT     H221858   1.306   9.543   5.067 -0.3516  1.4639 -0.8519
30013WAT    EPW21859   1.257   9.546   5.140  0.3334 -0.0763 -0.2787
30014WAT      O21860  -2.934   5.908   8.131 -0.2172  0.2525 -0.0442
30014WAT     H121861  -2.972   5.846   8.193  0.9474  0.7383  1.2111
30014WAT     H221862  -2.853   5.937   8.173  1.0945 -0.0820 -2.2191
30014WAT    EPW21863  -2.928   5.904   8.145  0.1093  0.2725 -0.1655
30015WAT      O21864   1.956   0.932   5.583  0.0392  0.0331 -0.5065
30015WAT     H121865   1.876   0.923   5.634  1.4180  2.5088  2.4270
30015WAT     H221866   1.964   0.851   5.533 -2.6606 -1.5481  1.4660
30015WAT    EPW21867   1.947   0.920   5.583 -0.1349  0.1511  0.1404
30016WAT      O21868   0.213   9.046   1.319  0.2732  0.3981  0.5704
30016WAT     H121869   0.260   9.098   1.383  1.1494  2.1808 -1.4202
30016WAT     H221870   0.281   8.994   1.275 -0.3919 -1.2865  1.4205
30016WAT    EPW21871   0.228   9.046   1.321  0.3011  0.4110  0.4200
30017WAT      O21872   3.338   3.676   2.228 -0.4814  0.3363  0.6239
30017WAT     H121873   3.431   3.694   2.223  0.1748 -2.4629  0.9844
30017WAT     H221874   3.331   3.580   2.223 -3.4728  0.5089 -1.2118
30017WAT    EPW21875   3.349   3.666   2.227 -0.7894 -0.0101  0.4294
30018WAT      O21876   3.950   3.549   1.878  0.1049 -0.7569 -0.5467
30018WAT     H121877   3.929   3.471   1.828  1.5961 -0.8608 -1.0561
30018WAT     H221878   3.978   3.516   1.964 -3.1060 -0.5523  0.7161
30018WAT    EPW21879   3.951   3.534   1.883 -0.1220 -0.7436 -0.4474
30019WAT      O21880   4.827   0.086   7.042  0.2736  0.3142  1.1232
30019WAT     H121881   4.803   0.177   7.059  1.9881  0.7866  1.1928
30019WAT     H221882   4.788   0.067   6.956  2.4951  2.1873 -0.4355
30019WAT    EPW21883   4.819   0.095   7.033  0.7930  0.6235  0.9267
30020WAT      O21884   2.102   4.258   4.514 -0.0819  0.0830  0.1690
30020WAT     H121885   2.114   4.223   4.426 -1.2256  0.1850 -0.0474
30020WAT     H221886   2.016   4.226   4.541 -0.8273  2.0689  0.2679
30020WAT    EPW21887   2.092   4.249   4.506 -0.3310  0.3583  0.1533
30021WAT      O21888   2.677   2.702   7.501 -0.7125  0.3882 -0.2437
30021WAT     H121889   2.714   2.752   7.429 -1.3888  0.8800 -0.2563
30021WAT     H221890   2.677   2.762   7.575 -3.6770  1.2505 -0.8234
30021WAT    EPW21891   2.682   2.716   7.502 -1.1927  0.5668 -0.3216
30022WAT      O21892   1.030   6.841   1.675 -0.7136 -0.6728 -0.4245
30022WAT     H121893   1.064   6.871   1.759 -1.0799  0.8692 -0.7859
30022WAT     H221894   0.972   6.768   1.697  1.8965 -2.6972  0.3044
30022WAT    EPW21895   1.027   6.836   1.689 -0.4176 -0.7365 -0.3760
30023WAT      O21896   1.104   5.305   0.941 -0.1974 -0.0931 -0.4414
30023WAT     H121897   1.021   5.263   0.914  1.4171 -2.8061 -1.6373
30023WAT     H221898   1.137   5.346   0.861 -0.0406  0.3686 -0.1421
30023WAT    EPW21899   1.097   5.305   0.927  0.0362 -0.3901 -0.5597
30024WAT      O21900   1.163   5.427   0.698  0.7217 -0.4613 -0.2226
30024WAT     H121901   1.089   5.385   0.654  0.5511  1.3328 -1.7712
30024WAT     H221902   1.239   5.374   0.674 -0.0169 -2.5816  1.7278
30024WAT    EPW21903   1.163   5.414   0.689  0.6018 -0.5045 -0.1696
30025WAT      O21904   4.377   7.682   4.470  1.0128  0.2914 -0.1632
30025WAT     H121905   4.445   7.672   4.403 -0.5043 -0.3632 -1.6725
30025WAT     H221906   4.358   7.593   4.498 -1.4614  0.0761 -2.1707
30025WAT    EPW21907   4.384   7.669   4.464  0.4864  0.1764 -0.6270
30026WAT      O21908   3.593   1.481   7.832 -0.2093 -0.0752  0.4305
30026WAT     H121909   3.510   1.441   7.857 -0.8839 -0.1537 -1.7240
30026WAT     H221910   3.583   1.574   7.856 -1.6478  0.2762 -1.3193
30026WAT    EPW21911   3.581   1.488   7.839 -0.4879 -0.0392 -0.0844
30027WAT      O21912   6.356   1.939   3.872  0.0145  0.0980  0.0270
30027WAT     H121913   6.344   1.857   3.825  4.9418 -1.9852  1.7532
30027WAT     H221914   6.376   2.003   3.803 -1.1766 -0.7699 -1.1677
30027WAT    EPW21915   6.357   1.937   3.857  0.5074 -0.2912  0.0972
30028WAT      O21916   3.133   6.119   7.827  0.3033 -0.2462 -0.5379
30028WAT     H121917   3.216   6.077   7.805  0.6814 -0.1506  0.6181
30028WAT     H221918   3.068   6.072   7.774  1.1229 -0.0767 -1.7365
30028WAT    EPW21919   3.135   6.107   7.817  0.4613 -0.2112 -0.5436
30029WAT      O21920  -0.150   2.626   4.711 -0.3980 -0.2475  0.3704
30029WAT     H121921  -0.196   2.611   4.794 -1.0165 -0.0250  0.0795
30029WAT     H221922  -0.140   2.538   4.673 -1.5393 -0.2180 -0.0490
30029WAT    EPW21923  -0.155   2.612   4.717 -0.6301 -0.2142  0.2768
30030WAT      O21924   3.360   4.025   2.454 -0.3871 -0.1873  0.3309
30030WAT     H121925   3.325   4.068   2.377  1.1527 -1.5961 -1.2586
30030WAT     H221926   3.372   4.095   2.518 -0.3273  1.2786 -1.2346
30030WAT    EPW21927   3.357   4.040   2.452 -0.1762 -0.1798 -0.0852
30031WAT      O21928  -4.022   9.035   5.391 -0.3520  0.3306 -0.4969
30031WAT     H121929  -3.992   9.118   5.355  1.5390 -1.0807 -2.4390
30031WAT     H221930  -3.967   9.020   5.467 -0.7474  0.8687 -0.0978
30031WAT    EPW21931  -4.011   9.044   5.396 -0.1545  0.2155 -0.7002
30032WAT      O21932  -3.342   9.666   8.661 -0.1835  0.1898 -0.0425
30032WAT     H121933  -3.296   9.741   8.624 -0.9353  2.0209  2.4274
30032WAT     H221934  -3.273   9.614   8.703  0.1156  0.6357  0.0228
30032WAT    EPW21935  -3.327   9.669   8.662 -0.2432  0.4902  0.2913
30033WAT      O21936   5.349   2.342   1.672  0.2278 -0.2986  0.2726
30033WAT     H121937   5.306   2.404   1.730  0.7914  0.9818 -0.6206
30033WAT     H221938   5.427   2.313   1.720  0.0570 -0.1740  0.6218
30033WAT    EPW21939   5.354   2.346   1.686  0.2797 -0.1132  0.2009
30034WAT      O21940   2.346   8.174   2.258  0.6796 -0.0241  0.8499
30034WAT     H121941   2.324   8.265   2.239  0.2450 -0.6131 -2.0389
30034WAT     H221942   2.442   8.173   2.263  0.6748  0.6155  1.1134
30034WAT    EPW21943   2.356   8.186   2.256  0.6217 -0.0176  0.5037
30035WAT      O21944   4.911   2.247   1.786 -0.5100  0.3461  0.0047
30035WAT     H121945   4.902   2.152   1.796 -1.8132  0.5050  0.6085
30035WAT     H221946   4.969   2.258   1.711  0.3680 -0.9232  0.4620
30035WAT    EPW21947   4.917   2.236   1.777 -0.5662  0.1997  0.1446
30036WAT      O21948   0.680   8.995   8.942  0.6249 -0.5991 -0.1315
30036WAT     H121949   0.673   8.923   9.004 -0.2449 -1.3105 -1.0215
30036WAT     H221950   0.597   8.993   8.893  0.3946  1.2693  0.1046
30036WAT    EPW21951   0.668   8.985   8.944  0.4798 -0.4468 -0.2174
30037WAT      O21952   4.509   2.076   8.225  0.5130 -0.0180 -0.2103
30037WAT     H121953   4.496   2.092   8.319  2.0379  2.1354 -0.3017
30037WAT     H221954   4.570   2.003   8.221 -1.9092 -2.2504  0.3398
30037WAT    EPW21955   4.515   2.068   8.237  0.3948 -0.0285 -0.1497
30038WAT      O21956   3.225   7.705   3.961  0.6028  0.3627 -0.1160
30038WAT     H121957   3.256   7.756   4.036 -0.0952  0.7218 -0.0673
30038WAT     H221958   3.278   7.736   3.888 -1.1346  2.6564 -0.5222
30038WAT    EPW21959   3.236   7.716   3.961  0.2816  0.7126 -0.1632
30039WAT      O21960  -3.606   6.340   6.980  0.0221  0.1526 -0.5601
30039WAT     H121961  -3.646   6.358   6.894  1.3125  1.5624 -0.9091
30039WAT     H221962  -3.677   6.302   7.032 -1.3127  1.0474 -1.6616
30039WAT    EPW21963  -3.621   6.337   6.975  0.0162  0.4563 -0.7515
30040WAT      O21964   6.520   0.401   6.047  0.1463  0.1561 -0.3964
30040WAT     H121965   6.444   0.434   6.094  0.2542  0.2577 -0.2895
30040WAT     H221966   6.486   0.332   5.989 -0.0207  0.1848 -0.3317
30040WAT    EPW21967   6.506   0.396   6.045  0.1385  0.1733 -0.3738
30041WAT      O21968   5.231   0.410   6.574  0.3318  0.4141 -0.2801
30041WAT     H121969   5.223   0.353   6.497 -1.8078  1.0687 -0.5957
30041WAT     H221970   5.143   0.444   6.588  0.9191  1.2114  1.8019
30041WAT    EPW21971   5.219   0.407   6.565  0.1271  0.6056 -0.0472
30042WAT      O21972   8.627   1.556   0.792 -0.1102 -0.3682  0.1115
30042WAT     H121973   8.625   1.466   0.759  2.5176 -0.3150 -0.4307
30042WAT     H221974   8.595   1.550   0.882 -1.0712 -1.6310 -0.2903
30042WAT    EPW21975   8.623   1.543   0.799  0.1097 -0.5277 -0.0130
30043WAT      O21976   4.837   0.937   7.067 -0.0350  0.1169  0.0445
30043WAT     H121977   4.857   1.030   7.079  1.1725 -0.1309  0.1082
30043WAT     H221978   4.918   0.900   7.033 -0.7443 -0.7819 -0.7172
30043WAT    EPW21979   4.850   0.944   7.064  0.0305 -0.0343 -0.0477
30044WAT      O21980   9.838   1.096   1.004 -0.6810  0.4335  0.1785
30044WAT     H121981   9.893   1.157   1.053 -1.9438  1.9530 -0.2015
30044WAT     H221982   9.880   1.089   0.918 -1.2770  1.9431 -0.2652
30044WAT    EPW21983   9.851   1.103   0.999 -0.9260  0.8330  0.0699
30045WAT      O21984   0.303   5.232   0.922 -0.3368 -0.1817 -0.0072
30045WAT     H121985   0.232   5.294   0.936  0.1042  0.2438  0.3559
30045WAT     H221986   0.261   5.157   0.879 -0.6392  0.8977 -1.6627
30045WAT    EPW21987   0.288   5.230   0.918 -0.3185  0.0169 -0.1777
30046WAT      O21988  -6.888   8.958   8.924  0.4543 -0.6453 -0.1946
30046WAT     H121989  -6.886   9.053   8.936  0.8498 -0.8876  2.0463
30046WAT     H221990  -6.979   8.934   8.938  0.5262 -0.6956  0.1913
30046WAT    EPW21991  -6.899   8.968   8.928  0.5159 -0.6838  0.1521
30047WAT      O21992  -5.546   5.733   5.841 -0.2856  0.3583  0.1874
30047WAT     H121993  -5.499   5.770   5.766 -1.7969  2.7740  0.3284
30047WAT     H221994  -5.628   5.701   5.804 -0.7859  1.0241  0.6913
30047WAT    EPW21995  -5.550   5.733   5.826 -0.5510  0.7646  0.2725
30048WAT      O21996   0.325   0.014   2.277  0.2643  0.4326  0.1361
30048WAT     H121997   0.331   0.102   2.313  1.8918  0.7120 -0.7332
30048WAT     H221998   0.400  -0.033   2.316  1.3976  0.4236 -1.9146
30048WAT    EPW21999   0.336   0.019   2.287  0.6284  0.4682 -0.2490
30049WAT      O22000   4.937   4.321   6.367  0.4046  0.0179  0.2474
30049WAT     H122001   4.921   4.359   6.281 -0.2562 -1.8215 -0.4908
30049WAT     H222002   5.033   4.319   6.374  0.5181  3.2606  1.0597
30049WAT    EPW22003   4.948   4.325   6.356  0.3326  0.2029  0.2573
30050WAT      O22004   0.205   2.299   6.430 -0.0383  0.2744 -0.0889
30050WAT     H122005   0.202   2.319   6.337 -0.3382 -2.0529 -0.6364
30050WAT     H222006   0.219   2.383   6.472  0.0112  1.3936 -2.2218
30050WAT    EPW22007   0.206   2.312   6.424 -0.0713  0.1150 -0.4423
30051WAT      O22008  -5.601   8.592   8.897 -0.0230  0.2681  0.2554
30051WAT     H122009  -5.579   8.670   8.846 -0.4017  1.0163  1.1996
30051WAT     H222010  -5.613   8.523   8.832 -3.7476  1.9036 -1.0548
30051WAT    EPW22011  -5.600   8.594   8.882 -0.5643  0.5822  0.2074
30052WAT      O22012  -0.583   9.407   2.934  0.3104 -0.1737 -0.3474
30052WAT     H122013  -0.508   9.359   2.968 -2.9919 -4.8830  1.3140
30052WAT     H222014  -0.626   9.345   2.874 -5.2007 -0.4603  3.1631
30052WAT    EPW22015  -0.579   9.392   2.930 -0.8520 -0.8326  0.3349
30053WAT      O22016  -0.915   0.276   8.086  0.1430 -0.2004 -0.2600
30053WAT     H122017  -0.860   0.201   8.062  1.6401  1.1851 -1.3596
30053WAT     H222018  -0.875   0.310   8.166  0.7868  0.6752 -0.9363
30053WAT    EPW22019  -0.903   0.270   8.093  0.4254  0.0978 -0.4940
30054WAT      O22020   0.536   1.252   4.513 -0.2602  0.2991  0.3099
30054WAT     H122021   0.503   1.226   4.599 -1.6581  1.6234  0.2076
30054WAT     H222022   0.511   1.180   4.455  1.4664 -1.0335  1.0997
30054WAT    EPW22023   0.528   1.239   4.516 -0.2169  0.2980  0.4005
30055WAT      O22024   9.257   0.183   2.024  0.0354 -0.1592 -0.0384
30055WAT     H122025   9.266   0.150   2.113 -0.4632 -3.4582 -1.0607
30055WAT     H222026   9.232   0.106   1.972 -0.0551  1.6776 -2.9861
30055WAT    EPW22027   9.255   0.168   2.029 -0.0424 -0.3521 -0.5621
30056WAT      O22028  -1.809   2.301   4.967  0.9458 -0.3293  0.3983
30056WAT     H122029  -1.795   2.270   5.057 -2.1048 -2.7806  0.1758
30056WAT     H222030  -1.901   2.325   4.964  1.0797  0.0911 -1.9959
30056WAT    EPW22031  -1.819   2.300   4.978  0.5611 -0.5971  0.0532
30057WAT      O22032  -1.455   0.466   2.513  0.4849  0.0256 -1.0104
30057WAT     H122033  -1.375   0.476   2.564  1.6718 -0.0097 -2.7766
30057WAT     H222034  -1.507   0.543   2.534  1.4056  0.5402 -0.5708
30057WAT    EPW22035  -1.451   0.477   2.522  0.7630  0.0889 -1.1853
30058WAT      O22036   1.503   6.450   7.123  0.1745 -0.3115  0.4294
30058WAT     H122037   1.582   6.467   7.072  0.5547 -0.9493  0.7939
30058WAT     H222038   1.489   6.356   7.115 -1.0570 -0.0860 -0.3564
30058WAT    EPW22039   1.511   6.440   7.116  0.0622 -0.3660  0.3738
30059WAT      O22040  -3.545   9.446   8.114 -0.4522  0.1828 -0.0505
30059WAT     H122041  -3.506   9.373   8.164 -2.1901 -0.8583 -0.1316
30059WAT     H222042  -3.554   9.516   8.179  1.1292  0.3329  0.0600
30059WAT    EPW22043  -3.541   9.445   8.129 -0.4728  0.0653 -0.0467
30060WAT      O22044  -1.279  10.071   4.940 -0.3077 -0.2038 -0.2256
30060WAT     H122045  -1.283  10.166   4.924  1.9706  0.2085  1.2347
30060WAT     H222046  -1.348  10.054   5.004  0.0415  0.7171  0.4200
30060WAT    EPW22047  -1.289  10.082   4.946  0.0388 -0.0277  0.0522
30061WAT      O22048  -3.792   7.149   3.930  0.0107 -0.6250 -0.1336
30061WAT     H122049  -3.779   7.132   3.836  1.4184  2.7507 -0.7027
30061WAT     H222050  -3.709   7.185   3.960 -1.0356  0.2791  1.9209
30061WAT    EPW22051  -3.779   7.152   3.921  0.0584 -0.0603  0.0623
30062WAT      O22052   2.478   4.843   6.029 -0.2360  0.8655 -0.1914
30062WAT     H122053   2.431   4.790   6.094  0.3435  1.5162  0.7836
30062WAT     H222054   2.445   4.931   6.042  0.1360  1.0596 -0.5460
30062WAT    EPW22055   2.467   4.847   6.039 -0.1105  0.9770 -0.1097
30063WAT      O22056  -4.988   3.554   8.807 -0.1880  0.8105 -0.0268
30063WAT     H122057  -4.894   3.552   8.788  0.1336  1.1949  1.4188
30063WAT     H222058  -5.003   3.642   8.841 -0.6301  0.0431  1.8581
30063WAT    EPW22059  -4.977   3.565   8.809 -0.2041  0.7601  0.4125
30064WAT      O22060   5.324   5.424   5.424  0.0083  0.2365  0.6257
30064WAT     H122061   5.268   5.501   5.433  1.5592  1.1799  3.7721
30064WAT     H222062   5.266   5.350   5.442 -1.2208  0.6916 -1.1571
30064WAT    EPW22063   5.309   5.424   5.428  0.0508  0.4210  0.8054
30065WAT      O22064   3.479   9.195   0.183  0.3621 -0.0920 -0.4356
30065WAT     H122065   3.428   9.171   0.260 -0.8031 -0.3788 -1.2638
30065WAT     H222066   3.566   9.159   0.199  0.8603  1.8304  1.7713
30065WAT    EPW22067   3.484   9.187   0.195  0.2741  0.1240 -0.2538
30066WAT      O22068   3.726   0.058   8.084 -0.3480 -0.0052  0.0848
30066WAT     H122069   3.718   0.071   7.990  0.9682 -1.8951 -0.3390
30066WAT     H222070   3.639   0.030   8.113 -0.5663 -0.1554 -0.6989
30066WAT    EPW22071   3.714   0.056   8.076 -0.2033 -0.2743 -0.0744
30067WAT      O22072   0.830   3.943   7.914 -0.2626 -0.5650  0.5880
30067WAT     H122073   0.886   3.987   7.978  0.5301 -1.1714  0.3203
30067WAT     H222074   0.844   3.850   7.928 -1.5793 -0.7493  0.8311
30067WAT    EPW22075   0.839   3.937   7.924 -0.3317 -0.6692  0.5848
30068WAT      O22076   3.679   7.008   4.499 -0.0847  0.2685  0.2440
30068WAT     H122077   3.740   6.935   4.485  2.5701  1.8430  2.4743
30068WAT     H222078   3.715   7.054   4.575 -1.7151  3.8382 -0.9617
30068WAT    EPW22079   3.692   7.004   4.507  0.0504  0.9470  0.3788
30069WAT      O22080   3.594   5.270   7.916 -0.2591  0.5222 -0.0721
30069WAT     H122081   3.539   5.347   7.922 -0.4469  0.3008  1.3581
30069WAT     H222082   3.672   5.292   7.967 -0.3112 -0.2188  0.3405
30069WAT    EPW22083   3.597   5.283   7.923 -0.2908  0.3951  0.1709
30070WAT      O22084   1.804   3.300   0.788  0.1922 -0.0992  0.1927
30070WAT     H122085   1.769   3.389   0.787 -0.8786 -0.2778 -4.7265
30070WAT     H222086   1.733   3.247   0.825 -0.5766  0.7225 -0.0789
30070WAT    EPW22087   1.790   3.305   0.793 -0.0505 -0.0144 -0.4919
30071WAT      O22088   2.398   0.222   2.800  0.3475  0.3123 -0.5134
30071WAT     H122089   2.348   0.292   2.758 -0.6995 -0.7328 -1.0601
30071WAT     H222090   2.436   0.173   2.728 -1.0267 -1.1782 -0.2720
30071WAT    EPW22091   2.396   0.225   2.785  0.0281 -0.0221 -0.5536
30072WAT      O22092  -4.846   8.927   5.841  0.3790 -0.2767  0.4680
30072WAT     H122093  -4.869   8.834   5.842 -0.0975 -0.1676 -0.0565
30072WAT     H222094  -4.750   8.928   5.836  0.4462 -0.7332  1.3918
30072WAT    EPW22095  -4.836   8.915   5.840  0.3252 -0.3223  0.5207
30073WAT      O22096   0.281   1.436   3.327 -0.2575 -0.8188 -0.4869
30073WAT     H122097   0.207   1.493   3.347  0.3924  0.2143 -0.9628
30073WAT     H222098   0.309   1.462   3.239  1.8723  0.1477  0.4203
30073WAT    EPW22099   0.275   1.447   3.318  0.1091 -0.5551 -0.4301
30074WAT      O22100   1.649   4.652   8.758 -0.5818 -0.3633  0.3162
30074WAT     H122101   1.596   4.614   8.689  1.7554  0.0077 -1.8374
30074WAT     H222102   1.586   4.675   8.826 -2.9304 -1.3887 -1.3480
30074WAT    EPW22103   1.634   4.650   8.758 -0.5833 -0.4494 -0.1874
30075WAT      O22104   0.198   0.956   8.210 -0.2410  0.2264  0.4493
30075WAT     H122105   0.283   0.998   8.221  0.0523 -0.5543  1.4138
30075WAT     H222106   0.218   0.862   8.206 -0.9076  0.1208 -1.1897
30075WAT    EPW22107   0.212   0.949   8.211 -0.2902  0.1095  0.3605
30076WAT      O22108  -3.127   1.122   6.543  0.3819 -0.3227  0.1774
30076WAT     H122109  -3.149   1.215   6.551  2.2551  0.3835 -1.7565
30076WAT     H222110  -3.119   1.108   6.449 -0.9730 -2.7764  0.3687
30076WAT    EPW22111  -3.129   1.133   6.531  0.4503 -0.5531 -0.0527
30077WAT      O22112   3.233   5.051   4.397  0.0373 -0.7205 -0.6082
30077WAT     H122113   3.298   5.053   4.467  1.8522  1.0968 -2.1804
30077WAT     H222114   3.205   5.142   4.387 -0.4802 -0.9896 -1.9474
30077WAT    EPW22115   3.238   5.064   4.405  0.2085 -0.5162 -0.9923
30078WAT      O22116   0.349   0.693   3.243 -0.4659  0.1903 -0.2685
30078WAT     H122117   0.441   0.677   3.221 -1.2883 -0.7668 -3.5125
30078WAT     H222118   0.342   0.671   3.336  2.3739 -0.6151 -0.1633
30078WAT    EPW22119   0.360   0.688   3.252 -0.1998 -0.0422 -0.6825
30079WAT      O22120  -1.970   5.879   1.928  0.6225 -0.3401 -0.6162
30079WAT     H122121  -1.940   5.911   1.843  2.0164 -1.1530 -0.4793
30079WAT     H222122  -1.957   5.952   1.988 -0.0536  0.1300 -1.0396
30079WAT    EPW22123  -1.964   5.893   1.925  0.7172 -0.3853 -0.6540
30080WAT      O22124   4.855   6.892   4.794  0.1724 -0.3220 -0.3973
30080WAT     H122125   4.893   6.948   4.726  0.3055 -0.6800 -0.6198
30080WAT     H222126   4.914   6.900   4.868  0.3785 -0.4396 -0.5486
30080WAT    EPW22127   4.868   6.901   4.795  0.2170 -0.3846 -0.4468
30081WAT      O22128   4.797   9.688   1.226 -0.2057 -0.5298  0.1755
30081WAT     H122129   4.859   9.617   1.245 -0.0671 -0.2511  0.7962
30081WAT     H222130   4.853   9.764   1.209 -0.3410  0.4435  3.5117
30081WAT    EPW22131   4.813   9.688   1.226 -0.2053 -0.3643  0.6974
30082WAT      O22132   4.692   8.421   3.726 -0.4435 -0.2967 -1.2886
30082WAT     H122133   4.712   8.498   3.778 -1.6287  0.3427 -1.7226
30082WAT     H222134   4.767   8.364   3.737 -0.7448 -0.3071  1.3152
30082WAT    EPW22135   4.704   8.424   3.734 -0.6394 -0.2136 -1.0024
30083WAT      O22136   6.026   5.835   0.257  0.2366 -0.6921 -0.1876
30083WAT     H122137   6.096   5.865   0.314 -1.8853  2.7894  0.9627
30083WAT     H222138   6.067   5.825   0.171  2.1326  1.4436  0.3780
30083WAT    EPW22139   6.040   5.838   0.253  0.2069  0.0486  0.0387
30084WAT      O22140   2.062   5.670   8.065 -0.0168  0.1244  0.0822
30084WAT     H122141   2.084   5.632   8.151 -1.6670 -0.7600  0.1559
30084WAT     H222142   2.076   5.764   8.076  1.4730 -0.1466  0.7725
30084WAT    EPW22143   2.067   5.677   8.078 -0.0380 -0.0279  0.1826
30085WAT      O22144   3.970   8.601   3.816  0.4210  0.1609 -0.0088
30085WAT     H122145   3.976   8.656   3.737  0.9209  0.6495  0.3648
30085WAT     H222146   4.035   8.638   3.876 -0.2174  0.0226  0.7786
30085WAT    EPW22147   3.979   8.614   3.813  0.4027  0.2074  0.1444
30086WAT      O22148   1.474   4.022   2.948  0.0700  0.6579  0.3960
30086WAT     H122149   1.463   4.014   2.853  0.8373 -1.4817  0.4488
30086WAT     H222150   1.420   3.952   2.985  2.7930 -1.0983  1.2939
30086WAT    EPW22151   1.465   4.012   2.940  0.5304  0.1440  0.5213
30087WAT      O22152  -6.330   7.034   6.490  0.4407  0.1962 -0.2668
30087WAT     H122153  -6.342   6.980   6.567 -0.8369  1.4730  0.4671
30087WAT     H222154  -6.387   6.995   6.423  1.5739 -0.9277 -0.6205
30087WAT    EPW22155  -6.339   7.022   6.491  0.4215  0.2165 -0.2165
30088WAT      O22156   0.802   5.863   3.572  0.5695  0.3242  0.2391
30088WAT     H122157   0.724   5.836   3.620  1.7015  1.1083  2.6852
30088WAT     H222158   0.769   5.911   3.496 -1.3019  0.2187  0.9553
30088WAT    EPW22159   0.788   5.865   3.568  0.4720  0.4137  0.6562
30089WAT      O22160  -3.767   7.235   7.968 -0.3489  0.1687 -0.4165
30089WAT     H122161  -3.763   7.181   8.047 -1.7047 -2.3451 -1.9497
30089WAT     H222162  -3.675   7.250   7.945  0.0538  0.1293  1.0870
30089WAT    EPW22163  -3.754   7.230   7.975 -0.4746 -0.1683 -0.4203
30090WAT      O22164  -4.347   9.434   2.526 -0.2833  1.0225  0.8790
30090WAT     H122165  -4.375   9.525   2.516  0.0391  1.0819  0.4803
30090WAT     H222166  -4.396   9.402   2.602  0.7668  2.0114  2.0225
30090WAT    EPW22167  -4.357   9.442   2.535 -0.1023  1.1606  0.9773
30091WAT      O22168   4.106   6.470   5.755 -0.2684  0.1750 -0.0746
30091WAT     H122169   4.025   6.422   5.736 -0.0378  0.6261 -2.4330
30091WAT     H222170   4.096   6.554   5.711  1.5148  0.2234 -0.4733
30091WAT    EPW22171   4.094   6.474   5.747 -0.0029  0.2408 -0.4382
30092WAT      O22172  -1.877   9.568   4.996 -0.1353 -0.5078 -0.2285
30092WAT     H122173  -1.861   9.484   5.037  1.1990 -1.2508 -2.1241
30092WAT     H222174  -1.962   9.559   4.954 -0.1125 -0.8370 -0.2054
30092WAT    EPW22175  -1.886   9.556   4.996  0.0437 -0.6490 -0.4754
30093WAT      O22176   0.372   5.489   6.667 -0.0780  0.2090 -0.8436
30093WAT     H122177   0.380   5.584   6.660 -1.6070  0.5528  1.0825
30093WAT     H222178   0.403   5.469   6.755  2.7051 -1.4847 -2.0738
30093WAT    EPW22179   0.377   5.499   6.678  0.0874  0.0308 -0.7517
30094WAT      O22180   4.353   9.444   1.272  0.4151 -0.5776 -0.2977
30094WAT     H122181   4.364   9.373   1.336 -0.4786 -0.4034  0.0632
30094WAT     H222182   4.359   9.401   1.187  2.5345 -0.6800 -0.1389
30094WAT    EPW22183   4.355   9.429   1.269  0.5767 -0.5679 -0.2291
30095WAT      O22184  -2.174   6.083   5.568  0.4478 -0.4802  0.7202
30095WAT     H122185  -2.169   6.016   5.500  0.6339 -0.6900  0.9385
30095WAT     H222186  -2.234   6.148   5.533  0.8946 -0.3612  0.1568
30095WAT    EPW22187  -2.181   6.083   5.554  0.5313 -0.4921  0.6747
30096WAT      O22188   5.478   2.824   4.398 -0.2432 -0.0479  0.1501
30096WAT     H122189   5.440   2.881   4.465 -1.9383  0.5129 -1.2038
30096WAT     H222190   5.405   2.768   4.370  0.2346  0.1425 -1.6180
30096WAT    EPW22191   5.463   2.824   4.403 -0.4036  0.0511 -0.2618
30097WAT      O22192   5.095   0.849   4.250  0.7841  0.2841 -0.3209
30097WAT     H122193   5.143   0.793   4.311  1.2776  0.0919 -0.8747
30097WAT     H222194   5.035   0.788   4.206 -0.7908  0.7050  1.1484
30097WAT    EPW22195   5.093   0.833   4.252  0.6416  0.3143 -0.2003
30098WAT      O22196   3.117   1.743   8.883 -0.0848 -0.3511  0.1268
30098WAT     H122197   3.111   1.711   8.973 -0.3470 -1.8458 -0.3868
30098WAT     H222198   3.079   1.831   8.886 -1.7812 -1.0748  1.1562
30098WAT    EPW22199   3.111   1.751   8.895 -0.3432 -0.6437  0.1950
30099WAT      O22200  -1.702   2.871   4.548  1.4562 -0.5282 -0.1965
30099WAT     H122201  -1.732   2.956   4.582 -0.5454 -0.9255 -0.8445
30099WAT     H222202  -1.716   2.877   4.454  0.3478 -1.9067 -0.1492
30099WAT    EPW22203  -1.707   2.883   4.540  1.0460 -0.7625 -0.2759
30100WAT      O22204   1.091   2.113   3.579 -0.6352 -0.0626  0.1983
30100WAT     H122205   1.115   2.196   3.536 -1.8131 -0.4395 -1.2760
30100WAT     H222206   1.170   2.088   3.627  0.5724  0.7095 -1.2596
30100WAT    EPW22207   1.105   2.121   3.579 -0.6313 -0.0104 -0.1885
30101WAT      O22208   3.417   7.611   7.607  0.0785 -0.3154  0.1594
30101WAT     H122209   3.460   7.612   7.521 -0.8171  0.0769 -0.2975
30101WAT     H222210   3.371   7.527   7.610  0.0360 -0.2900  0.2175
30101WAT    EPW22211   3.417   7.600   7.596 -0.0452 -0.2601  0.1066
30102WAT      O22212  -6.667   9.173   5.808  0.4538  0.6637  0.1232
30102WAT     H122213  -6.599   9.107   5.822  2.0077  1.7212 -1.9253
30102WAT     H222214  -6.678   9.214   5.894  0.5594 -1.1799  1.0743
30102WAT    EPW22215  -6.659   9.170   5.821  0.6726  0.5603 -0.0215
30103WAT      O22216  -2.626   5.684   1.819  0.2954  0.2637  0.6035
30103WAT     H122217  -2.670   5.629   1.883 -1.7529  1.1491  0.0342
30103WAT     H222218  -2.692   5.702   1.752  2.4892 -1.1241 -2.1476
30103WAT    EPW22219  -2.641   5.679   1.819  0.3145  0.1976  0.1655
30104WAT      O22220  -4.916   6.743   8.475  0.3011  0.3139 -0.2623
30104WAT     H122221  -4.881   6.668   8.523 -1.3114 -0.0110  0.4754
30104WAT     H222222  -4.851   6.812   8.489  0.1382  0.1005  2.0479
30104WAT    EPW22223  -4.902   6.742   8.483  0.0668  0.2427  0.1402
30105WAT      O22224  -2.822   4.222   4.160  0.3275  0.5193  0.0381
30105WAT     H122225  -2.755   4.209   4.092 -0.3747  1.1872 -0.8095
30105WAT     H222226  -2.888   4.277   4.118 -1.1670 -0.7868  0.5683
30105WAT    EPW22227  -2.821   4.227   4.145  0.0378  0.4351 -0.0038
30106WAT      O22228   4.882   2.375   5.950  0.4593 -0.5332  0.1755
30106WAT     H122229   4.798   2.336   5.926  0.9051  0.0005 -2.6123
30106WAT     H222230   4.927   2.306   5.999 -0.2850 -2.1507 -1.2989
30106WAT    EPW22231   4.877   2.361   5.953  0.4199 -0.6762 -0.3867
30107WAT      O22232   4.664   7.025   6.029  0.1488  1.2213  0.2726
30107WAT     H122233   4.740   6.981   5.992 -0.9386  1.2965 -2.3404
30107WAT     H222234   4.589   6.985   5.983 -1.2260  2.5492  1.2466
30107WAT    EPW22235   4.664   7.014   6.018 -0.1760  1.4064  0.0565
30108WAT      O22236   0.245   8.365   1.133 -0.4206  0.6531  0.2418
30108WAT     H122237   0.179   8.430   1.109  0.8650  1.1677 -2.2374
30108WAT     H222238   0.213   8.327   1.214 -3.5561  1.1584 -0.6267
30108WAT    EPW22239   0.232   8.368   1.140 -0.6646  0.7873 -0.1998
30109WAT      O22240   2.215   9.671   7.864 -0.9011 -0.1721  0.3327
30109WAT     H122241   2.147   9.675   7.931 -2.3090 -1.6225 -0.9371
30109WAT     H222242   2.198   9.746   7.807  0.1154  0.8886  1.3696
30109WAT    EPW22243   2.204   9.681   7.865 -0.9526 -0.2236  0.3021
30110WAT      O22244   4.395   8.478   0.154 -0.1884  0.4806 -0.5551
30110WAT     H122245   4.455   8.414   0.192 -1.6614 -0.0032  1.1187
30110WAT     H222246   4.397   8.552   0.214 -1.2033  0.4672 -0.4824
30110WAT    EPW22247   4.403   8.479   0.166 -0.5167  0.4148 -0.3247
30111WAT      O22248   5.600   8.563   1.382 -0.3157 -0.1909  0.6899
30111WAT     H122249   5.556   8.627   1.438 -0.5407 -1.8867  2.5581
30111WAT     H222250   5.677   8.536   1.432  0.8579 -0.0062 -0.9248
30111WAT    EPW22251   5.604   8.568   1.396 -0.1905 -0.3901  0.7234
30112WAT      O22252  -0.376   5.895   8.635  0.0577 -0.8492 -0.3041
30112WAT     H122253  -0.438   5.825   8.653 -0.3880 -0.0979  1.1919
30112WAT     H222254  -0.342   5.920   8.721 -0.8064  1.6806 -0.6421
30112WAT    EPW22255  -0.380   5.889   8.649 -0.1151 -0.4165 -0.1512
30113WAT      O22256  -5.955   9.891   8.315 -0.4032  0.0538  0.1873
30113WAT     H122257  -5.933   9.837   8.392  3.3384  0.0773 -0.6457
30113WAT     H222258  -5.950   9.830   8.242 -3.0270  0.2257 -0.1961
30113WAT    EPW22259  -5.951   9.876   8.316 -0.2556  0.0796  0.0262
30114WAT      O22260   0.514   9.808   5.355  0.1232 -0.6036  0.0853
30114WAT     H122261   0.420   9.798   5.337 -0.2866  0.6665  1.2992
30114WAT     H222262   0.541   9.880   5.297 -0.1564  0.4181  1.1808
30114WAT    EPW22263   0.505   9.816   5.345  0.0322 -0.3009  0.3898
30115WAT      O22264   3.824   0.980   3.400  0.3165 -0.0278 -0.5015
30115WAT     H122265   3.878   0.952   3.474  0.3335  2.5726  0.5538
30115WAT     H222266   3.822   0.904   3.342  1.4732 -1.6711  1.4903
30115WAT    EPW22267   3.831   0.966   3.402  0.4714  0.0985 -0.0997
30116WAT      O22268   0.682   8.114   3.364 -0.1306  0.2678  0.5351
30116WAT     H122269   0.653   8.051   3.299 -0.4812  1.5086 -0.5644
30116WAT     H222270   0.764   8.149   3.330  0.9004 -0.7091  1.9182
30116WAT    EPW22271   0.689   8.111   3.351 -0.0409  0.3023  0.5726
30117WAT      O22272   4.888   3.728   7.588  0.0280 -0.9144 -0.4744
30117WAT     H122273   4.936   3.794   7.637  0.1388 -0.8391 -0.6863
30117WAT     H222274   4.855   3.774   7.511 -1.9854 -0.4746  0.5799
30117WAT    EPW22275   4.890   3.743   7.584 -0.2232 -0.8465 -0.3631
30118WAT      O22276   3.662   6.508   8.199 -0.0372 -0.4317 -0.5143
30118WAT     H122277   3.668   6.599   8.171 -2.5390 -0.6627 -2.1230
30118WAT     H222278   3.591   6.471   8.146  0.5522 -3.1911  0.4463
30118WAT    EPW22279   3.653   6.515   8.188 -0.2894 -0.8259 -0.5994
30119WAT      O22280   0.239   5.901   3.294 -0.1809 -0.3159  0.4869
30119WAT     H122281   0.210   5.828   3.240  2.1951 -0.1375 -1.1904
30119WAT     H222282   0.333   5.887   3.305 -0.1705  0.9430  2.6250
30119WAT    EPW22283   0.248   5.890   3.288  0.1339 -0.1264  0.5476
30120WAT      O22284   3.516   3.058   8.741  0.1583 -0.0299 -0.4985
30120WAT     H122285   3.466   2.984   8.704  0.4244 -0.9265  0.8830
30120WAT     H222286   3.452   3.106   8.793  0.1146  0.4285 -0.9623
30120WAT    EPW22287   3.501   3.054   8.743  0.1875 -0.0877 -0.3772
30121WAT      O22288  -2.042   5.372   1.838  0.4617  0.5371 -0.5184
30121WAT     H122289  -1.991   5.440   1.882  0.9509 -1.9770  3.2360
30121WAT     H222290  -1.977   5.306   1.813 -0.4611 -0.8525  0.6163
30121WAT    EPW22291  -2.027   5.373   1.841  0.4044  0.0222  0.1265
30122WAT      O22292   2.395  10.117   5.411  0.2560  0.0042  0.4047
30122WAT     H122293   2.465  10.074   5.461  0.8234  0.2831 -0.1364
30122WAT     H222294   2.333  10.047   5.391 -0.0649 -0.0784  1.6366
30122WAT    EPW22295   2.396  10.102   5.415  0.2884  0.0296  0.4959
30123WAT      O22296   6.252   0.219   1.833  0.0898  0.5035  0.1078
30123WAT     H122297   6.176   0.275   1.823  0.5364  0.7369 -2.9507
30123WAT     H222298   6.217   0.130   1.832 -0.2508  0.6335  0.3591
30123WAT    EPW22299   6.237   0.215   1.832  0.1037  0.5514 -0.2625
30124WAT      O22300   3.123   4.881   5.015  0.5491  0.2513 -0.0872
30124WAT     H122301   3.109   4.836   4.932  0.2151  3.5822 -2.0438
30124WAT     H222302   3.199   4.838   5.054 -0.3551 -2.5614 -1.1624
30124WAT    EPW22303   3.131   4.870   5.009  0.3858  0.3195 -0.4873
30125WAT      O22304   0.414   3.645   8.351  0.7739 -0.1039 -0.0181
30125WAT     H122305   0.469   3.612   8.422 -1.0076 -2.6709  0.2908
30125WAT     H222306   0.366   3.718   8.389  0.6726 -0.7373  1.1045
30125WAT    EPW22307   0.415   3.650   8.365  0.5256 -0.5261  0.1707
30126WAT      O22308   2.852   4.923   8.490  0.1283 -0.0070 -0.6045
30126WAT     H122309   2.893   4.944   8.406  1.0306  0.3105 -0.0931
30126WAT     H222310   2.802   4.843   8.473  1.1232 -0.5200 -1.1839
30126WAT    EPW22311   2.851   4.915   8.476  0.3784 -0.0327 -0.6137
30127WAT      O22312   3.542   1.716   5.754  0.1393 -0.2018  0.1665
30127WAT     H122313   3.572   1.762   5.675 -0.2431  0.9987  0.7081
30127WAT     H222314   3.498   1.638   5.720  2.5253 -1.2758 -0.7174
30127WAT    EPW22315   3.541   1.712   5.739  0.4035 -0.1851  0.1211
30128WAT      O22316   3.056   1.788   7.721 -0.2051 -0.3858  0.2028
30128WAT     H122317   3.097   1.874   7.710  0.6122 -0.7402  0.3771
30128WAT     H222318   2.977   1.792   7.668 -0.5003  0.6858  0.6949
30128WAT    EPW22319   3.051   1.799   7.713 -0.1364 -0.2912  0.2906
30129WAT      O22320  -3.068   2.971   8.791 -0.2355 -0.9927  0.7753
30129WAT     H122321  -3.021   2.898   8.830 -1.8927 -3.7151 -1.8797
30129WAT     H222322  -3.018   2.993   8.713 -0.9992 -0.9578  0.2825
30129WAT    EPW22323  -3.056   2.964   8.786 -0.5548 -1.3471  0.3600
30130WAT      O22324   0.178   4.318   7.385  0.4193  0.2922  0.7975
30130WAT     H122325   0.203   4.403   7.349  1.1660 -0.7572 -1.3403
30130WAT     H222326   0.237   4.256   7.343 -2.3233 -1.7016 -0.3918
30130WAT    EPW22327   0.189   4.321   7.375  0.1561 -0.1094  0.3588
30131WAT      O22328   3.522   2.974   7.424  0.0713  0.0796 -0.6822
30131WAT     H122329   3.571   3.040   7.472 -1.0644 -0.6308  1.6151
30131WAT     H222330   3.546   2.988   7.332  1.5471  2.1979 -0.0516
30131WAT    EPW22331   3.532   2.984   7.418  0.1161  0.2654 -0.2961
30132WAT      O22332   5.731   5.899   0.854  0.3159 -0.3588  0.1042
30132WAT     H122333   5.716   5.860   0.940 -0.3630  0.4576  0.3650
30132WAT     H222334   5.819   5.868   0.830 -0.2536 -2.1800  0.1998
30132WAT    EPW22335   5.741   5.890   0.862  0.1512 -0.4914  0.1512
30133WAT      O22336   1.466   6.640   5.131  0.0788  0.7925  0.0684
30133WAT     H122337   1.381   6.654   5.090 -0.2881 -0.2074  0.4576
30133WAT     H222338   1.450   6.571   5.195  0.9158  1.4497  1.0150
30133WAT    EPW22339   1.453   6.633   5.134  0.1408  0.7472  0.2446
30134WAT      O22340  -1.048   8.915   6.710  0.6731  0.0174 -0.1765
30134WAT     H122341  -1.071   8.990   6.655  3.2867  0.5458 -0.6812
30134WAT     H222342  -1.020   8.954   6.793  2.4582 -0.2887 -0.5841
30134WAT    EPW22343  -1.047   8.930   6.714  1.2533  0.0467 -0.2971
30135WAT      O22344   6.232   9.441   1.322 -0.1920  0.1482  0.0653
30135WAT     H122345   6.257   9.354   1.293 -0.2255  0.3971 -0.7149
30135WAT     H222346   6.149   9.459   1.279 -0.4585  0.3514  0.6485
30135WAT    EPW22347   6.225   9.432   1.313 -0.2315  0.2079  0.0393
30136WAT      O22348   1.782   8.474   3.145 -0.1464  0.2815 -0.5533
30136WAT     H122349   1.795   8.428   3.062 -1.7535 -0.4184 -0.4567
30136WAT     H222350   1.706   8.531   3.129 -1.2369 -0.7349  0.7383
30136WAT    EPW22351   1.774   8.476   3.132 -0.5022  0.0548 -0.3703
30137WAT      O22352  -1.686   4.521   0.561 -0.6636  0.7360 -0.1721
30137WAT     H122353  -1.660   4.429   0.560  0.5705  1.0633 -1.1416
30137WAT     H222354  -1.603   4.569   0.555 -1.1132  1.9800  2.2464
30137WAT    EPW22355  -1.672   4.515   0.560 -0.5601  0.9434  0.0190
30138WAT      O22356   7.152   2.234   4.166  0.2117  0.3985 -0.3561
30138WAT     H122357   7.173   2.200   4.254 -2.4369  1.4025  0.7675
30138WAT     H222358   7.201   2.317   4.161 -0.3174  0.7978  0.6029
30138WAT    EPW22359   7.161   2.241   4.177 -0.2074  0.5835 -0.0813
30139WAT      O22360  -4.164   9.700   7.548 -0.9694 -0.0225 -0.5417
30139WAT     H122361  -4.110   9.766   7.590  3.1660 -1.5367 -2.9245
30139WAT     H222362  -4.237   9.686   7.609 -0.1753  4.0596  1.6885
30139WAT    EPW22363  -4.167   9.707   7.561 -0.3192  0.3161 -0.5617
30140WAT      O22364   3.630   2.472   6.054  0.9493  0.8560 -0.3628
30140WAT     H122365   3.618   2.567   6.052  0.9624  0.8596 -0.2554
30140WAT     H222366   3.574   2.442   6.126 -1.5624  0.4208 -2.3630
30140WAT    EPW22367   3.621   2.480   6.063  0.6198  0.7991 -0.6123
30141WAT      O22368  -5.388   4.748   6.591  0.2741 -0.4456  0.2782
30141WAT     H122369  -5.351   4.810   6.654 -0.5237  0.4005 -0.0818
30141WAT     H222370  -5.469   4.718   6.632 -0.2544  0.1184 -0.3378
30141WAT    EPW22371  -5.394   4.752   6.605  0.0992 -0.2596  0.1497
30142WAT      O22372   3.390   0.981   1.869  0.1368 -0.1938  1.1153
30142WAT     H122373   3.378   1.065   1.824 -1.4047 -1.7623 -1.7076
30142WAT     H222374   3.378   1.002   1.962 -2.0287  2.4265  0.3841
30142WAT    EPW22375   3.387   0.995   1.875 -0.3521 -0.0551  0.6465
30143WAT      O22376   1.486   7.088   0.896 -0.1360 -0.4814  0.8861
30143WAT     H122377   1.446   7.157   0.948 -1.3098 -1.0879  0.8313
30143WAT     H222378   1.580   7.104   0.901 -0.4155  1.9314 -0.2781
30143WAT    EPW22379   1.493   7.099   0.903 -0.3276 -0.2432  0.7254
30144WAT      O22380  -6.074   7.819   6.067 -0.2113 -0.3005 -0.2200
30144WAT     H122381  -6.123   7.737   6.063  3.1089 -2.6194  1.3895
30144WAT     H222382  -6.083   7.849   6.158 -1.8618  1.5795 -0.9221
30144WAT    EPW22383  -6.081   7.812   6.078  0.0088 -0.3583 -0.1004
30145WAT      O22384   2.587   9.278   6.215 -0.4269 -0.9911 -0.7622
30145WAT     H122385   2.531   9.237   6.149 -4.6206  0.4671  1.5446
30145WAT     H222386   2.602   9.209   6.280 -1.3537 -0.8657 -0.3992
30145WAT    EPW22387   2.582   9.263   6.215 -1.1022 -0.7825 -0.4101
30146WAT      O22388   3.359   3.477   4.956  0.4046 -0.1069 -0.0056
30146WAT     H122389   3.367   3.413   4.885  0.5458 -0.6538  0.4984
30146WAT     H222390   3.280   3.451   5.004  2.0754 -1.8144  2.0451
30146WAT    EPW22391   3.350   3.466   4.953  0.6435 -0.4042  0.3314
30147WAT      O22392   8.736   0.800   1.914  0.0762 -0.3422  0.1885
30147WAT     H122393   8.727   0.895   1.927 -1.7633 -0.5526  0.7316
30147WAT     H222394   8.830   0.787   1.899  0.2461  1.6720 -0.8863
30147WAT    EPW22395   8.747   0.811   1.914 -0.1440 -0.1042  0.1184
30148WAT      O22396   0.310   0.569   6.370  1.4020 -0.1675  0.5411
30148WAT     H122397   0.284   0.478   6.383 -0.7069  0.2974  0.0028
30148WAT     H222398   0.351   0.571   6.284  2.2094 -0.7372  0.9064
30148WAT    EPW22399   0.312   0.558   6.360  1.2303 -0.1814  0.5183
30149WAT      O22400   2.099   3.014   3.093  0.4352  0.1411 -0.0793
30149WAT     H122401   2.014   2.980   3.065 -0.9525  1.7146  1.9593
30149WAT     H222402   2.110   2.983   3.182  0.3599  2.6421  0.8919
30149WAT    EPW22403   2.089   3.006   3.101  0.2421  0.6784  0.3176
30150WAT      O22404   0.948   6.711   6.724  0.5384 -0.1745 -0.0353
30150WAT     H122405   0.965   6.619   6.745  0.2131 -0.3603 -0.5625
30150WAT     H222406   1.033   6.753   6.730  1.2524 -1.0719 -2.6124
30150WAT    EPW22407   0.962   6.704   6.728  0.5896 -0.3173 -0.4447
30151WAT      O22408  -6.581   3.645   8.906  0.1565 -0.6657 -0.2677
30151WAT     H122409  -6.530   3.723   8.885  0.7665 -0.7116  0.9294
30151WAT     H222410  -6.516   3.575   8.912 -0.2086 -0.9864  0.0029
30151WAT    EPW22411  -6.566   3.646   8.904  0.1886 -0.7141 -0.0739
30152WAT      O22412   4.174   6.461   3.535  0.1939  0.4235  0.0933
30152WAT     H122413   4.092   6.442   3.581  0.1537 -0.9374 -0.5114
30152WAT     H222414   4.164   6.420   3.450  0.8436  1.7053 -0.6414
30152WAT    EPW22415   4.162   6.453   3.530  0.2744  0.4132 -0.0833
30153WAT      O22416   3.978   6.602   6.230 -0.3491  0.3378  0.1748
30153WAT     H122417   4.029   6.590   6.150 -0.2945  2.3346 -0.1358
30153WAT     H222418   3.960   6.513   6.261  4.5372 -0.5987  1.1301
30153WAT    EPW22419   3.983   6.588   6.224  0.3026  0.4776  0.2599
30154WAT      O22420   0.666   0.335   2.760 -0.6557 -0.2986 -0.0520
30154WAT     H122421   0.720   0.309   2.686  0.8253  1.7873  0.2046
30154WAT     H222422   0.640   0.425   2.740 -0.5815  0.1537  1.7329
30154WAT    EPW22423   0.670   0.343   2.748 -0.4506  0.0362  0.2173
30155WAT      O22424   1.780   5.978   5.286  0.8172 -0.0162 -0.3187
30155WAT     H122425   1.750   5.902   5.237 -0.7404  1.2166 -1.3486
30155WAT     H222426   1.815   6.038   5.220  1.4204  0.4586  0.4018
30155WAT    EPW22427   1.781   5.976   5.271  0.6914  0.2089 -0.3595
30156WAT      O22428   4.604   2.554   6.746  0.4761  0.0905  0.0985
30156WAT     H122429   4.689   2.575   6.784  0.0378 -0.6013  1.5384
30156WAT     H222430   4.580   2.470   6.786 -0.3972 -0.2692 -1.1171
30156WAT    EPW22431   4.612   2.545   6.757  0.3030 -0.0482  0.1280
30157WAT      O22432   0.218   2.418   6.172 -0.1319  0.1472 -0.2583
30157WAT     H122433   0.276   2.372   6.111  0.4065  0.0254  0.3220
30157WAT     H222434   0.257   2.505   6.181 -1.9458  1.2809 -2.4576
30157WAT    EPW22435   0.231   2.423   6.165 -0.3001  0.2806 -0.4718
30158WAT      O22436   7.161   6.837   1.526 -0.0228 -0.1245  0.6692
30158WAT     H122437   7.153   6.755   1.574 -0.1163 -0.0270  0.8216
30158WAT     H222438   7.246   6.832   1.484 -0.1835 -0.4552  0.3853
30158WAT    EPW22439   7.171   6.825   1.527 -0.0565 -0.1552  0.6519
30159WAT      O22440  -2.391   1.395   5.472 -0.5393 -0.8914 -0.2079
30159WAT     H122441  -2.431   1.311   5.496 -2.6305  0.0491 -0.1932
30159WAT     H222442  -2.317   1.404   5.532 -0.5731 -2.4761  0.1213
30159WAT    EPW22443  -2.386   1.385   5.483 -0.8196 -0.9763 -0.1626
30160WAT      O22444   0.675   3.150   7.799 -0.0625  0.1004 -0.4668
30160WAT     H122445   0.723   3.226   7.767 -0.1692 -0.4626 -2.0396
30160WAT     H222446   0.725   3.075   7.767 -0.2401 -0.5034  0.6214
30160WAT    EPW22447   0.688   3.150   7.791 -0.1000 -0.0534 -0.5307
30161WAT      O22448  -3.254   0.761   8.977 -0.0247  0.0355 -0.2983
30161WAT     H122449  -3.240   0.853   8.955  1.6365 -0.8306 -3.5346
30161WAT     H222450  -3.307   0.727   8.906 -2.7869 -1.1179  2.0977
30161WAT    EPW22451  -3.259   0.769   8.965 -0.1699 -0.2310 -0.4092
30162WAT      O22452   3.474  10.084   0.521  0.0012  0.1189  0.4410
30162WAT     H122453   3.548  10.027   0.502 -1.4112 -0.7686 -3.3308
30162WAT     H222454   3.510  10.155   0.574  2.9549 -1.5396  0.8082
30162WAT    EPW22455   3.488  10.086   0.526  0.2044 -0.2170 -0.0080
30163WAT      O22456   1.433   5.693   3.864  0.6426  0.0900 -0.6705
30163WAT     H122457   1.481   5.610   3.858 -1.9272 -1.5423  0.1755
30163WAT     H222458   1.357   5.681   3.808 -0.5987  1.2788  0.6789
30163WAT    EPW22459   1.429   5.680   3.856  0.1400  0.0315 -0.3810
30164WAT      O22460   3.078   0.933   8.789  0.8641 -0.2845  0.4267
30164WAT     H122461   3.086   1.007   8.849 -0.5790  2.2837 -2.2835
30164WAT     H222462   2.999   0.887   8.819  0.5346  0.5563  0.9113
30164WAT    EPW22463   3.069   0.937   8.801  0.6303  0.1651  0.1330
30165WAT      O22464   4.652   8.147   0.652  0.2065 -0.2113 -0.1539
30165WAT     H122465   4.684   8.095   0.726 -0.4629 -1.3698 -0.6567
30165WAT     H222466   4.641   8.084   0.581 -4.1275 -0.1820  0.2526
30165WAT    EPW22467   4.655   8.132   0.653 -0.4532 -0.3600 -0.1666
30166WAT      O22468   0.522   7.484   4.631 -0.5000 -0.1527  0.1318
30166WAT     H122469   0.440   7.526   4.653  0.7424  2.6108 -0.1158
30166WAT     H222470   0.501   7.427   4.557 -2.8410 -2.4193  2.3289
30166WAT    EPW22471   0.509   7.482   4.624 -0.6450 -0.0873  0.3891
30167WAT      O22472   2.056   9.025   8.660 -0.2329  0.3615  0.2175
30167WAT     H122473   2.144   9.057   8.679  0.1667 -1.2531  1.3476
30167WAT     H222474   1.997   9.085   8.706  0.3440  0.8070  0.3803
30167WAT    EPW22475   2.060   9.037   8.669 -0.1042  0.2074  0.3877
30168WAT      O22476   3.672   0.748   4.335 -0.1637 -0.1166 -0.0062
30168WAT     H122477   3.659   0.842   4.347  1.2605  0.0081  0.6935
30168WAT     H222478   3.589   0.717   4.298 -0.3396  1.5518 -1.0970
30168WAT    EPW22479   3.659   0.756   4.332  0.0008  0.1199 -0.0577
30169WAT      O22480  -1.757   2.472   2.380  0.0719  0.5313  0.4876
30169WAT     H122481  -1.698   2.547   2.370  0.1136  0.5387  0.7931
30169WAT     H222482  -1.790   2.456   2.291  0.6591  0.4246  0.2791
30169WAT    EPW22483  -1.753   2.479   2.367  0.1548  0.5182  0.5003
30170WAT      O22484  -0.485   6.650   2.105 -0.6661  0.0871  0.0134
30170WAT     H122485  -0.506   6.633   2.014 -0.3528  0.2771 -0.0979
30170WAT     H222486  -0.547   6.598   2.155 -2.1782  1.5395 -0.2790
30170WAT    EPW22487  -0.496   6.641   2.100 -0.8242  0.3037 -0.0398
30171WAT      O22488   1.119   0.565   0.427 -0.3522  0.0855 -0.3098
30171WAT     H122489   1.132   0.630   0.357  0.6377 -0.5416 -0.7364
30171WAT     H222490   1.180   0.591   0.496 -0.4898  0.0368 -0.1695
30171WAT    EPW22491   1.129   0.577   0.427 -0.2398 -0.0036 -0.3475
30172WAT      O22492   7.343   0.723   2.326  0.0839  0.5771  0.3927
30172WAT     H122493   7.391   0.804   2.308  1.0578 -0.3295 -1.3308
30172WAT     H222494   7.366   0.702   2.417  2.7966  0.3201 -0.2620
30172WAT    EPW22495   7.352   0.731   2.336  0.5703  0.4236  0.0790
30173WAT      O22496   3.203   6.270   0.823  0.4709  0.6925 -0.1942
30173WAT     H122497   3.125   6.280   0.877 -0.3260  0.1800 -1.2287
30173WAT     H222498   3.194   6.336   0.755 -1.6161 -2.4073 -3.2533
30173WAT    EPW22499   3.192   6.280   0.822  0.0904  0.2160 -0.7341
30174WAT      O22500   6.128   2.144   5.429  0.6929  0.3482 -0.0726
30174WAT     H122501   6.212   2.111   5.462  1.5389  0.1517 -2.2806
30174WAT     H222502   6.114   2.096   5.347 -2.0295 -0.2342  0.6444
30174WAT    EPW22503   6.137   2.133   5.423  0.4454  0.2455 -0.2692
30175WAT      O22504   6.016   3.112   3.684  0.2113 -0.4027 -0.7051
30175WAT     H122505   6.053   3.035   3.641 -0.0135 -0.7065 -0.3676
30175WAT     H222506   6.065   3.119   3.766 -1.0725 -1.3780  0.1972
30175WAT    EPW22507   6.027   3.103   3.689  0.0124 -0.5715 -0.5416
30176WAT      O22508  -5.281   5.071   5.751 -0.1977 -0.2052 -0.0012
30176WAT     H122509  -5.262   4.991   5.799  1.0873 -0.8400 -1.4845
30176WAT     H222510  -5.313   5.041   5.666 -2.0875  0.8833  0.2619
30176WAT    EPW22511  -5.283   5.057   5.746 -0.2775 -0.1454 -0.1621
30177WAT      O22512   3.651   9.481   0.392  0.1701  0.3612 -0.4017
30177WAT     H122513   3.590   9.469   0.464 -1.6319  0.8294 -1.7707
30177WAT     H222514   3.611   9.436   0.318  1.0492  1.3982 -1.5686
30177WAT    EPW22515   3.638   9.474   0.392  0.0483  0.5598 -0.7361
30178WAT      O22516  -2.936   7.155   6.819  0.0215 -0.2016  0.0064
30178WAT     H122517  -2.974   7.194   6.898 -1.3291  0.3158 -0.8653
30178WAT     H222518  -2.866   7.216   6.794 -0.1861  0.1473  0.2624
30178WAT    EPW22519  -2.932   7.168   6.826 -0.1841 -0.0875 -0.0746
30179WAT      O22520  -1.064   7.109   7.167  0.6299  0.4435 -0.0973
30179WAT     H122521  -0.990   7.083   7.113  0.2395 -0.7535 -0.0699
30179WAT     H222522  -1.121   7.159   7.108  0.6991  0.0131 -0.5376
30179WAT    EPW22523  -1.062   7.112   7.152  0.5875  0.2289 -0.1516
30180WAT      O22524  -1.818   7.899   8.098  1.0671 -0.0730  0.0542
30180WAT     H122525  -1.794   7.814   8.135  0.3308 -1.7287 -2.9002
30180WAT     H222526  -1.760   7.909   8.022 -1.1333  0.3188 -1.6899
30180WAT    EPW22527  -1.807   7.889   8.093  0.6798 -0.2398 -0.5655
30181WAT      O22528  -4.665   1.735   8.432  0.1875  0.0026 -0.0446
30181WAT     H122529  -4.692   1.798   8.499  2.3834  1.1378 -0.1187
30181WAT     H222530  -4.744   1.685   8.413 -0.0981 -2.2276  5.2402
30181WAT    EPW22531  -4.679   1.737   8.438  0.4394 -0.1419  0.6433
30182WAT      O22532  -0.339   1.348   4.347  0.7388  0.0294  0.3914
30182WAT     H122533  -0.323   1.442   4.340 -0.1566  0.1649  0.0654
30182WAT     H222534  -0.366   1.322   4.259 -1.2805 -0.0788  1.0021
30182WAT    EPW22535  -0.340   1.357   4.335  0.3544  0.0330  0.4289
30183WAT      O22536  -2.992   8.416   8.218 -0.1385  0.0328  0.3778
30183WAT     H122537  -3.029   8.372   8.141  0.6335 -0.9548  0.5484
30183WAT     H222538  -3.040   8.377   8.292 -0.6926  0.7864  0.4250
30183WAT    EPW22539  -3.003   8.405   8.218 -0.1098  0.0014  0.4063
30184WAT      O22540   3.384   2.470   4.455  0.1909  0.2569  0.0555
30184WAT     H122541   3.337   2.388   4.447 -0.4611  0.7604 -1.7845
30184WAT     H222542   3.329   2.525   4.511 -0.1305 -0.0199  0.0096
30184WAT    EPW22543   3.371   2.467   4.462  0.0625  0.2867 -0.1934
30185WAT      O22544   4.979   7.755   3.377 -0.0474  0.0831  0.0149
30185WAT     H122545   4.924   7.760   3.299 -1.4949 -1.8279  0.8139
30185WAT     H222546   4.978   7.662   3.401  3.1203  0.0439  0.4272
30185WAT    EPW22547   4.972   7.743   3.370  0.1798 -0.1740  0.1746
30186WAT      O22548  -5.674   7.184   6.829  0.7463 -0.3405 -0.4617
30186WAT     H122549  -5.596   7.131   6.812  1.7332  1.2584 -1.0802
30186WAT     H222550  -5.733   7.124   6.875  2.9069 -1.2063  1.4108
30186WAT    EPW22551  -5.671   7.169   6.833  1.1613 -0.2437 -0.2961
30187WAT      O22552   6.603   0.331   3.930  0.1373  0.5133  0.6292
30187WAT     H122553   6.679   0.324   3.988 -1.8753 -2.0359  3.2398
30187WAT     H222554   6.622   0.270   3.858  1.4337  1.5708  0.0224
30187WAT    EPW22555   6.616   0.322   3.928  0.0429  0.3166  0.8935
30188WAT      O22556  -2.097   3.806   1.407 -1.4643  0.2919 -0.0642
30188WAT     H122557  -2.057   3.875   1.355  0.4631  1.8180  3.1085
30188WAT     H222558  -2.049   3.727   1.383 -0.9733  0.8384 -0.9304
30188WAT    EPW22559  -2.086   3.805   1.397 -1.1454  0.5652  0.2401
30189WAT      O22560  -3.699   3.331   8.547 -0.0433 -0.5579  0.1247
30189WAT     H122561  -3.655   3.311   8.630 -0.0551 -1.7759 -0.1376
30189WAT     H222562  -3.768   3.393   8.571  0.0872 -0.7357  1.0003
30189WAT    EPW22563  -3.702   3.336   8.561 -0.0277 -0.7420  0.2055
30190WAT      O22564  -2.747   9.742   2.696  0.1617  0.3438 -0.2466
30190WAT     H122565  -2.788   9.659   2.674  2.9433 -0.5556 -2.6688
30190WAT     H222566  -2.783   9.804   2.632  0.8636  0.0634 -0.9339
30190WAT    EPW22567  -2.757   9.740   2.684  0.6212  0.1884 -0.6568
30191WAT      O22568   6.419   0.136   2.036  0.2921  0.1696 -0.1325
30191WAT     H122569   6.476   0.078   1.985  0.6663  1.4364 -1.2016
30191WAT     H222570   6.341   0.147   1.982 -0.1905 -0.0949  0.5009
30191WAT    EPW22571   6.417   0.130   2.022  0.2778  0.3018 -0.1899
30192WAT      O22572   7.009   7.072   1.506  0.1353  0.2569  0.4796
30192WAT     H122573   7.057   6.990   1.511 -1.6777 -0.8333  0.8407
30192WAT     H222574   7.003   7.090   1.412 -0.9966 -1.0218  0.2708
30192WAT    EPW22575   7.014   7.064   1.494 -0.2532 -0.0556  0.4997
30193WAT      O22576   7.521   0.511   5.335  0.8119 -0.5829  0.1794
30193WAT     H122577   7.484   0.423   5.332 -0.4356 -0.1291  1.0582
30193WAT     H222578   7.446   0.568   5.315  1.4430  0.3010  0.2949
30193WAT    EPW22579   7.506   0.507   5.332  0.7305 -0.4064  0.3104
30194WAT      O22580  -0.520   1.241   6.344 -0.6010 -0.2429  0.7346
30194WAT     H122581  -0.534   1.329   6.310  2.0588  0.3756  1.0820
30194WAT     H222582  -0.494   1.190   6.267 -0.5107 -0.3197  0.8160
30194WAT    EPW22583  -0.519   1.246   6.329 -0.2382 -0.1714  0.7911
30195WAT      O22584   2.283   3.063   1.421  0.1622 -0.3912  0.8432
30195WAT     H122585   2.224   3.085   1.348 -0.2310  1.4807  1.6627
30195WAT     H222586   2.360   3.026   1.378 -0.0819  0.6101 -0.5565
30195WAT    EPW22587   2.285   3.061   1.405  0.0782 -0.0123  0.7667
30196WAT      O22588  -2.959   9.939   3.095 -0.3164 -0.2672 -0.1648
30196WAT     H122589  -3.006   9.879   3.037 -0.2469  0.1773 -0.6887
30196WAT     H222590  -2.950   9.890   3.177  0.1267 -1.1380 -0.7157
30196WAT    EPW22591  -2.964   9.925   3.098 -0.2488 -0.3233 -0.3065
30197WAT      O22592   3.224   2.585   0.006  0.5232  0.0008  0.2962
30197WAT     H122593   3.293   2.553  -0.051 -1.3255 -1.3166 -1.3756
30197WAT     H222594   3.237   2.536   0.088  2.7520  1.3488  0.8252
30197WAT    EPW22595   3.235   2.574   0.009  0.5732  0.0048  0.1454
30198WAT      O22596   0.808   5.473   6.726 -0.3219 -0.0365  0.2121
30198WAT     H122597   0.875   5.405   6.720 -0.1432  0.1906 -0.5017
30198WAT     H222598   0.788   5.480   6.819  0.0869 -0.6488  0.3493
30198WAT    EPW22599   0.814   5.465   6.737 -0.2444 -0.0875  0.1359
30199WAT      O22600  -0.991   7.141   3.769  0.1538 -0.0323  0.1597
30199WAT     H122601  -0.947   7.135   3.685 -1.6664 -1.3830 -0.7573
30199WAT     H222602  -0.921   7.127   3.833  1.4549  0.3518 -1.1241
30199WAT    EPW22603  -0.976   7.138   3.767  0.0853 -0.1597 -0.1305
30200WAT      O22604  -0.625   7.952   2.171 -0.3109 -0.2057 -0.1004
30200WAT     H122605  -0.678   7.902   2.233 -0.1914 -1.7047 -1.1498
30200WAT     H222606  -0.621   8.040   2.208 -2.8680 -0.2386  0.4109
30200WAT    EPW22607  -0.631   7.957   2.184 -0.6324 -0.4077 -0.1714
30201WAT      O22608   1.177   4.394   4.605 -0.4803  0.0951 -0.3185
30201WAT     H122609   1.167   4.445   4.685  0.9976  2.6969 -1.6736
30201WAT     H222610   1.088   4.380   4.573 -1.0210 -0.0993  1.2173
30201WAT    EPW22611   1.164   4.399   4.611 -0.3567  0.4127 -0.2944
30202WAT      O22612   6.128   1.121   1.978 -0.4460  0.1681  0.0690
30202WAT     H122613   6.190   1.173   1.928 -1.7240  2.9962  1.1901
30202WAT     H222614   6.048   1.122   1.925 -0.1793 -1.7195 -0.4279
30202WAT    EPW22615   6.125   1.128   1.964 -0.5791  0.2921  0.1513
30203WAT      O22616  -3.520   0.574   6.689  0.0847 -0.9768 -0.6115
30203WAT     H122617  -3.542   0.662   6.720 -0.2371 -0.6587 -1.6632
30203WAT     H222618  -3.569   0.515   6.746 -1.3446 -0.3827 -1.1713
30203WAT    EPW22619  -3.529   0.578   6.700 -0.1463 -0.8565 -0.8240
30204WAT      O22620  -2.494   3.016   8.055 -0.3625  0.6286  0.5434
30204WAT     H122621  -2.493   3.014   8.151 -1.9706  1.7574  0.6245
30204WAT     H222622  -2.558   3.084   8.033 -0.3401  0.0998 -1.3367
30204WAT    EPW22623  -2.502   3.025   8.065 -0.5717  0.7077  0.3061
30205WAT      O22624  -2.113   8.474   4.228  0.6385  0.0156 -0.0910
30205WAT     H122625  -2.085   8.419   4.301  0.9836  0.8889  0.4463
30205WAT     H222626  -2.208   8.461   4.224  0.7802 -1.0901 -0.3803
30205WAT    EPW22627  -2.122   8.465   4.237  0.7029 -0.0153 -0.0582
30206WAT      O22628   7.358   5.396   2.697  0.0535 -0.1937  0.3252
30206WAT     H122629   7.332   5.309   2.669 -0.5946 -0.2320  1.0186
30206WAT     H222630   7.320   5.406   2.784  2.9266 -0.5196  1.7403
30206WAT    EPW22631   7.350   5.386   2.705  0.3469 -0.2420  0.6033
30207WAT      O22632   5.127   7.311   5.227  0.8844  0.3412 -0.1310
30207WAT     H122633   5.212   7.310   5.270  0.5622 -1.9327  0.5821
30207WAT     H222634   5.065   7.334   5.296  0.3323 -3.5915  0.9252
30207WAT    EPW22635   5.130   7.314   5.242  0.7691 -0.4776  0.1025
30208WAT      O22636   3.467   6.172   1.800 -0.2346  0.6583 -0.5984
30208WAT     H122637   3.453   6.255   1.755  0.7737  0.3542 -1.4862
30208WAT     H222638   3.437   6.189   1.890  0.3755  2.1202 -0.6432
30208WAT    EPW22639   3.461   6.186   1.806 -0.0211  0.8111 -0.7215
30209WAT      O22640   2.765   2.369   0.086 -0.2464 -0.7683 -0.1545
30209WAT     H122641   2.728   2.349   0.173 -3.4950 -0.9190 -1.4215
30209WAT     H222642   2.742   2.461   0.072  1.7324 -0.2529 -0.2483
30209WAT    EPW22643   2.757   2.379   0.096 -0.4139 -0.7201 -0.3340
30210WAT      O22644   0.446   1.361   8.736 -0.7732  0.2642 -0.6160
30210WAT     H122645   0.485   1.408   8.810  1.2836 -0.2185 -1.3067
30210WAT     H222646   0.358   1.396   8.729  0.0891  2.7742 -0.0242
30210WAT    EPW22647   0.440   1.372   8.745 -0.3882  0.5317 -0.6289
30211WAT      O22648  -2.611   6.519   1.645  0.6793  0.0455  0.2893
30211WAT     H122649  -2.598   6.425   1.661 -1.8741 -1.1815 -3.3649
30211WAT     H222650  -2.535   6.545   1.592  0.7020 -0.3225  0.1407
30211WAT    EPW22651  -2.599   6.510   1.640  0.3456 -0.1647 -0.2123
30212WAT      O22652   0.681   4.976   1.869 -0.4914  0.1828 -0.1254
30212WAT     H122653   0.767   4.990   1.908  0.3010 -2.0497 -0.9387
30212WAT     H222654   0.677   4.882   1.851 -3.5459  0.0005  0.8699
30212WAT    EPW22655   0.692   4.966   1.872 -0.7898 -0.1357 -0.1014
30213WAT      O22656   2.345   5.337   2.991  0.3817 -0.3147 -1.0574
30213WAT     H122657   2.250   5.325   2.983  0.4840 -0.7790 -1.7020
30213WAT     H222658   2.362   5.419   2.944  0.1457  0.4756  0.1891
30213WAT    EPW22659   2.335   5.346   2.983  0.3642 -0.2716 -0.9780
30214WAT      O22660  -0.593   9.371   8.032 -0.1372  0.0788 -0.5146
30214WAT     H122661  -0.681   9.342   8.056 -1.1624  1.0389 -2.8922
30214WAT     H222662  -0.606   9.443   7.971  2.3248  3.6463  2.7360
30214WAT    EPW22663  -0.606   9.376   8.027  0.0524  0.6757 -0.3996
30215WAT      O22664  -1.261   8.459   1.934  0.2901  0.1586  0.6880
30215WAT     H122665  -1.322   8.527   1.907  2.2367  1.7314 -0.0114
30215WAT     H222666  -1.186   8.470   1.876  0.8931 -2.2985  0.8812
30215WAT    EPW22667  -1.259   8.469   1.923  0.6264  0.0415  0.6213
30216WAT      O22668   7.422   2.726   3.011 -0.4351 -0.5960  0.0381
30216WAT     H122669   7.458   2.700   3.095 -2.2722  0.7480  1.3335
30216WAT     H222670   7.481   2.794   2.979 -0.5397 -0.0097  1.0304
30216WAT    EPW22671   7.434   2.732   3.018 -0.6912 -0.3414  0.3399
30217WAT      O22672   0.509   7.391   0.833 -0.1508  0.4896 -0.5874
30217WAT     H122673   0.511   7.404   0.739  0.9420 -1.1929 -0.8390
30217WAT     H222674   0.415   7.391   0.855 -0.4217  0.7014 -1.6861
30217WAT    EPW22675   0.497   7.393   0.824 -0.0424  0.2956 -0.7655
30218WAT      O22676   5.509   0.288   0.202 -0.0111 -0.0930 -0.4098
30218WAT     H122677   5.483   0.375   0.234 -0.9823 -0.0707 -1.2117
30218WAT     H222678   5.571   0.306   0.132 -0.3153 -0.0258 -0.6681
30218WAT    EPW22679   5.513   0.302   0.197 -0.1793 -0.0813 -0.5496
30219WAT      O22680   0.408   2.121   6.430  0.2592  0.0811  0.1095
30219WAT     H122681   0.370   2.037   6.457  0.0541  0.2436  0.3311
30219WAT     H222682   0.337   2.184   6.441  0.7477  0.4879  1.0921
30219WAT    EPW22683   0.393   2.118   6.435  0.2966  0.1562  0.2685
30220WAT      O22684  -0.985   1.737   6.832  0.2094 -0.4555  0.5943
30220WAT     H122685  -1.070   1.741   6.876 -0.3010 -1.4395 -0.2272
30220WAT     H222686  -0.931   1.801   6.877 -0.8651 -0.0613  1.3717
30220WAT    EPW22687  -0.989   1.746   6.843  0.0004 -0.5333  0.5887
30221WAT      O22688  -3.369   0.361   7.366  0.0058 -0.4746  0.3348
30221WAT     H122689  -3.363   0.438   7.310  1.5670  0.3107  1.4983
30221WAT     H222690  -3.400   0.291   7.308  1.2000  0.3844 -1.4269
30221WAT    EPW22691  -3.372   0.362   7.351  0.3692 -0.2577  0.2558
30222WAT      O22692  -0.508   2.117   3.792 -0.2821 -0.5159  0.6252
30222WAT     H122693  -0.549   2.133   3.708  0.3423 -0.5418  0.3122
30222WAT     H222694  -0.435   2.178   3.796  1.0674 -2.0234  0.1648
30222WAT    EPW22695  -0.504   2.127   3.782 -0.0218 -0.7181  0.5232
30223WAT      O22696  -0.071   0.153   0.923  0.1973 -0.3574  0.3004
30223WAT     H122697  -0.075   0.147   1.018 -2.0297 -1.9198  0.1868
30223WAT     H222698  -0.151   0.199   0.898 -2.0066 -4.2971 -0.9114
30223WAT    EPW22699  -0.082   0.158   0.932 -0.3871 -1.0831  0.1256
30224WAT      O22700   3.617   2.101   6.388  0.3014  0.4276 -0.1309
30224WAT     H122701   3.707   2.127   6.408  0.4537 -0.7206  0.7752
30224WAT     H222702   3.594   2.040   6.458 -0.8130 -0.1289 -0.9639
30224WAT    EPW22703   3.625   2.097   6.400  0.1745  0.2028 -0.1214
30225WAT      O22704   2.803   2.959   6.698  0.7132 -0.3445  0.4092
30225WAT     H122705   2.877   2.898   6.691  1.9236  1.1269 -0.1463
30225WAT     H222706   2.745   2.919   6.763  1.2564 -2.2739 -0.2249
30225WAT    EPW22707   2.805   2.946   6.706  0.9445 -0.4048  0.2525
30226WAT      O22708  -3.536   3.624   6.617  0.0091 -0.3002  0.5367
30226WAT     H122709  -3.443   3.645   6.617  0.2171 -1.1783  0.4057
30226WAT     H222710  -3.542   3.542   6.568 -1.1372  1.0226 -1.6927
30226WAT    EPW22711  -3.525   3.616   6.611 -0.1148 -0.2416  0.2253
30227WAT      O22712   3.847   2.126   1.539 -0.3041  1.0550  0.5592
30227WAT     H122713   3.851   2.036   1.573 -1.0811  1.0859  0.7356
30227WAT     H222714   3.938   2.155   1.539 -0.3130  1.3111  3.2838
30227WAT    EPW22715   3.860   2.118   1.543 -0.4077  1.0929  0.9419
30228WAT      O22716   2.028   0.783   3.951  0.2505  0.6098  0.2038
30228WAT     H122717   1.947   0.818   3.988 -0.4385 -1.8788  1.2915
30228WAT     H222718   2.086   0.772   4.027  1.2975  1.5154 -0.4361
30228WAT    EPW22719   2.025   0.786   3.966  0.2977  0.4010  0.2629
30229WAT      O22720  -3.282   9.242   1.349  0.3285  0.0272  0.1772
30229WAT     H122721  -3.326   9.201   1.424  1.9261 -1.0050  0.6024
30229WAT     H222722  -3.304   9.186   1.275  0.9411 -0.5124  0.3959
30229WAT    EPW22723  -3.291   9.229   1.349  0.6200 -0.1802  0.2621
30230WAT      O22724  -5.668   9.507   6.046 -0.0097  0.1861  0.1351
30230WAT     H122725  -5.757   9.535   6.022 -0.3561 -0.7221  0.3021
30230WAT     H222726  -5.678   9.467   6.132  0.4465 -0.4479 -0.0970
30230WAT    EPW22727  -5.681   9.505   6.054  0.0048 -0.0176  0.1264
30231WAT      O22728  -1.591   5.864   4.141  0.0908  0.2684 -0.2490
30231WAT     H122729  -1.639   5.921   4.201 -0.0813  1.9053 -1.8397
30231WAT     H222730  -1.528   5.922   4.098  1.9800 -1.3683  0.1446
30231WAT    EPW22731  -1.589   5.879   4.143  0.3172  0.2685 -0.4070
30232WAT      O22732   3.111   4.262   3.360 -0.2191 -0.0628  0.3615
30232WAT     H122733   3.097   4.168   3.372  1.6883 -0.6512 -1.4870
30232WAT     H222734   3.044   4.303   3.415 -3.6685 -2.4673 -1.6516
30232WAT    EPW22735   3.100   4.255   3.369 -0.4224 -0.4575 -0.1478
30233WAT      O22736  -1.246   2.506   4.683  0.0336 -0.4440  0.7580
30233WAT     H122737  -1.258   2.507   4.588  0.0164 -1.5898  0.7289
30233WAT     H222738  -1.179   2.439   4.697 -1.1863 -1.5033  1.6676
30233WAT    EPW22739  -1.239   2.497   4.672 -0.1295 -0.7348  0.8740
30234WAT      O22740   4.014   1.382   2.113 -0.1718 -0.1962 -0.0331
30234WAT     H122741   4.046   1.368   2.023 -0.7140 -0.5903 -0.1691
30234WAT     H222742   4.020   1.476   2.126 -0.7943 -0.0488 -0.7573
30234WAT    EPW22743   4.019   1.392   2.103 -0.3252 -0.2288 -0.1466
30235WAT      O22744   2.337   6.010   5.680  0.4949 -0.8168  0.7639
30235WAT     H122745   2.250   6.050   5.684  1.4801  1.3565  1.8779
30235WAT     H222746   2.323   5.920   5.711 -1.2589 -0.3383  1.4638
30235WAT    EPW22747   2.324   6.003   5.685  0.3935 -0.4671  1.0033
30236WAT      O22748  -0.836   9.172   2.099 -0.5664 -0.1129  0.1117
30236WAT     H122749  -0.859   9.242   2.159  3.0241  2.2619 -0.9277
30236WAT     H222750  -0.835   9.214   2.013  1.9211 -1.2722 -0.5269
30236WAT    EPW22751  -0.839   9.187   2.095  0.2353  0.0472 -0.1096
30237WAT      O22752  -1.945   4.027   2.256 -0.0353  0.3981  0.1582
30237WAT     H122753  -2.012   3.965   2.228  1.2536 -2.4570  2.8506
30237WAT     H222754  -1.989   4.084   2.319 -0.5758  0.4156 -0.2284
30237WAT    EPW22755  -1.960   4.027   2.260  0.0633  0.0236  0.4623
30238WAT      O22756  -1.506   9.327   3.047 -0.5708 -0.0226 -0.0911
30238WAT     H122757  -1.584   9.307   2.995 -1.5506 -0.2696  1.3894
30238WAT     H222758  -1.467   9.241   3.065 -1.1715 -0.1090  0.9117
30238WAT    EPW22759  -1.511   9.313   3.043 -0.7793 -0.0668  0.2364
30239WAT      O22760   1.188   5.591   6.487  0.2398 -0.5913  0.2305
30239WAT     H122761   1.177   5.582   6.392 -1.6889 -2.3821  0.5475
30239WAT     H222762   1.158   5.680   6.506 -2.1877 -1.1469 -0.5675
30239WAT    EPW22763   1.182   5.602   6.477 -0.3348 -0.9007  0.1671
30240WAT      O22764   4.919   2.732   2.827 -0.0318  0.4909  0.6980
30240WAT     H122765   4.827   2.753   2.810 -0.0898 -0.1526  0.1799
30240WAT     H222766   4.965   2.814   2.815 -0.3042  0.4389 -0.8473
30240WAT    EPW22767   4.913   2.746   2.823 -0.0756  0.3992  0.4258
30241WAT      O22768   6.400  10.073   1.537  0.5231 -0.1783 -0.0549
30241WAT     H122769   6.336  10.005   1.559 -0.8142  1.8546  2.8956
30241WAT     H222770   6.481  10.043   1.578  0.1263 -0.3576  0.6121
30241WAT    EPW22771   6.402  10.060   1.546  0.2944  0.0663  0.4222
30242WAT      O22772   3.862   5.342   2.043 -0.2050  0.2414 -0.0978
30242WAT     H122773   3.897   5.255   2.026  1.8097  0.2727  3.0438
30242WAT     H222774   3.939   5.395   2.064 -1.6926  1.4919  2.8509
30242WAT    EPW22775   3.877   5.338   2.044 -0.1355  0.4103  0.7055
30243WAT      O22776   0.421   9.162   1.542  0.0600  0.2255  0.3597
30243WAT     H122777   0.399   9.149   1.635 -0.3586  0.9519  0.3657
30243WAT     H222778   0.510   9.128   1.534 -0.4013 -1.1588  0.7182
30243WAT    EPW22779   0.430   9.156   1.553 -0.0560  0.1388  0.4078
30244WAT      O22780   5.719   9.253   2.932  0.6013 -0.3263  0.6130
30244WAT     H122781   5.800   9.242   2.883 -0.3440  0.1230 -1.1167
30244WAT     H222782   5.746   9.251   3.024  2.5632 -0.1141  0.0762
30244WAT    EPW22783   5.733   9.251   2.938  0.7353 -0.2389  0.3140
30245WAT      O22784  -1.520   8.726   8.212  0.5862 -0.4334  0.6821
30245WAT     H122785  -1.523   8.822   8.219 -1.4306 -0.3503 -0.5554
30245WAT     H222786  -1.532   8.709   8.118 -2.4423 -1.9110  1.2279
30245WAT    EPW22787  -1.522   8.736   8.200 -0.0793 -0.6170  0.5908
30246WAT      O22788  -0.078   7.261   7.130 -0.1989 -0.3167  0.5299
30246WAT     H122789  -0.141   7.300   7.192  0.6600 -0.1870  1.3408
30246WAT     H222790  -0.016   7.215   7.186 -2.1824 -4.5987 -0.4031
30246WAT    EPW22791  -0.078   7.260   7.146 -0.3472 -0.8643  0.5138
30247WAT      O22792  -3.681   6.655   5.238 -0.3714  0.1055  0.2255
30247WAT     H122793  -3.701   6.731   5.182  0.7129  1.1794  1.2505
30247WAT     H222794  -3.589   6.665   5.262 -0.9697  0.1477  2.8496
30247WAT    EPW22795  -3.672   6.666   5.234 -0.3072  0.2527  0.7067
30248WAT      O22796   8.156   3.816   1.758  0.3999  0.0741 -0.5181
30248WAT     H122797   8.227   3.783   1.812  1.8100  0.3225 -2.1301
30248WAT     H222798   8.172   3.777   1.672 -1.7923 -0.3635 -0.7879
30248WAT    EPW22799   8.167   3.807   1.754  0.2966  0.0492 -0.7663
30249WAT      O22800   6.550   0.203   0.033 -0.5318  0.3314  0.3772
30249WAT     H122801   6.631   0.239  -0.002 -1.0692  1.1076 -0.1044
30249WAT     H222802   6.533   0.126  -0.021 -0.2820  0.3551  0.2618
30249WAT    EPW22803   6.558   0.198   0.021 -0.5697  0.4370  0.2980
30250WAT      O22804   2.049   6.105   6.647  0.2470  0.4780 -0.1994
30250WAT     H122805   2.008   6.098   6.561  0.4624 -1.1273 -0.2001
30250WAT     H222806   1.986   6.064   6.707  0.4586  0.8474  0.2852
30250WAT    EPW22807   2.035   6.098   6.644  0.3035  0.3150 -0.1357
30251WAT      O22808   7.330   5.607   2.330 -0.1832  0.0195 -0.2677
30251WAT     H122809   7.383   5.532   2.355  2.0581  1.1926 -1.1870
30251WAT     H222810   7.290   5.636   2.412  0.3339 -1.1075  0.4087
30251WAT    EPW22811   7.332   5.601   2.345  0.1807  0.0253 -0.2997
30252WAT      O22812   7.125   4.528   1.242 -0.7088 -0.8508 -0.2347
30252WAT     H122813   7.094   4.514   1.332 -3.7254 -0.5521 -1.0905
30252WAT     H222814   7.135   4.623   1.235  1.8470 -1.0138  0.3831
30252WAT    EPW22815   7.122   4.539   1.253 -0.7696 -0.8328 -0.2661
30253WAT      O22816   5.257   4.588   2.567 -0.0198  0.2105 -0.3021
30253WAT     H122817   5.320   4.618   2.633  1.7311  2.0487 -2.6264
30253WAT     H222818   5.291   4.503   2.538 -0.5301 -0.3736  0.7359
30253WAT    EPW22819   5.270   4.580   2.572  0.1438  0.3757 -0.4718
30254WAT      O22820   4.072   3.934   6.097 -0.0159 -0.0934 -1.1062
30254WAT     H122821   4.084   4.027   6.078  2.0222 -0.0493  0.1039
30254WAT     H222822   4.071   3.929   6.192  1.4668 -1.4529 -1.1197
30254WAT    EPW22823   4.074   3.946   6.107  0.4485 -0.2669 -0.9484
30255WAT      O22824   7.836   1.029   0.468  0.1031 -0.1795 -0.2339
30255WAT     H122825   7.925   1.007   0.494  0.7135 -0.0918 -2.1159
30255WAT     H222826   7.816   1.109   0.515  1.8307  0.9712 -1.3480
30255WAT    EPW22827   7.845   1.037   0.478  0.4115 -0.0162 -0.6290
30256WAT      O22828   3.819   7.481   0.802  0.3534 -0.0733 -0.3839
30256WAT     H122829   3.875   7.407   0.825  0.8798  0.3295 -0.3239
30256WAT     H222830   3.753   7.483   0.871  0.2341 -0.5896 -0.4827
30256WAT    EPW22831   3.818   7.472   0.814  0.4070 -0.0882 -0.3890
30257WAT      O22832   2.041   8.613   2.264 -0.2779  0.2249  0.2852
30257WAT     H122833   2.092   8.659   2.198 -0.8160  2.4403  1.3213
30257WAT     H222834   1.964   8.668   2.278 -2.1717 -2.1902 -0.0430
30257WAT    EPW22835   2.038   8.626   2.257 -0.5987  0.1988  0.3786
30258WAT      O22836  -0.882   7.963   0.746  0.0560 -0.4133 -0.0252
30258WAT     H122837  -0.828   8.023   0.798  4.3417 -2.3174 -1.8011
30258WAT     H222838  -0.925   8.020   0.682  1.0604  1.1191  0.5914
30258WAT    EPW22839  -0.880   7.979   0.744  0.7538 -0.4623 -0.1781
30259WAT      O22840  -3.537   8.097   4.565 -0.4538  0.6677 -0.6082
30259WAT     H122841  -3.470   8.163   4.547  0.4619 -0.0267  0.1151
30259WAT     H222842  -3.570   8.119   4.651 -0.3635  0.3737 -0.4959
30259WAT    EPW22843  -3.532   8.109   4.574 -0.3211  0.5374 -0.4978
30260WAT      O22844   1.063   3.413   3.948 -0.2575  0.8723 -0.1074
30260WAT     H122845   1.098   3.426   3.860 -0.3128 -0.2693 -0.3130
30260WAT     H222846   1.111   3.337   3.981 -0.5858  0.9966  0.6629
30260WAT    EPW22847   1.074   3.405   3.941 -0.3082  0.7381 -0.0329
30261WAT      O22848   5.094   2.746   1.588 -0.6157  0.4033 -0.0024
30261WAT     H122849   5.040   2.823   1.570 -2.5147 -0.7386  0.5748
30261WAT     H222850   5.134   2.724   1.503 -1.4241  0.9958 -0.5479
30261WAT    EPW22851   5.092   2.754   1.574 -0.9730  0.3308  0.0017
30262WAT      O22852   3.622   7.530   2.375  0.7023  0.1935 -0.9944
30262WAT     H122853   3.594   7.445   2.342  2.2049 -1.1516  0.9932
30262WAT     H222854   3.701   7.512   2.426 -1.2924  1.9818  3.2265
30262WAT    EPW22855   3.628   7.517   2.378  0.6374  0.2520 -0.1755
30263WAT      O22856  -1.304   6.645   3.456 -0.0560 -0.4863 -0.2717
30263WAT     H122857  -1.337   6.672   3.371 -0.0231 -0.6900 -0.3501
30263WAT     H222858  -1.296   6.727   3.506  2.6684  0.0579 -1.4038
30263WAT    EPW22859  -1.307   6.660   3.452  0.3077 -0.4416 -0.4312
30264WAT      O22860   7.847   7.745   0.191  0.9663 -0.6657  0.4501
30264WAT     H122861   7.769   7.739   0.136  0.4626 -0.2612  1.1020
30264WAT     H222862   7.826   7.694   0.269  2.7742 -3.7692 -0.8980
30264WAT    EPW22863   7.834   7.737   0.194  1.1382 -1.0216  0.3583
30265WAT      O22864   0.374   0.818   8.686  0.2992 -0.1721 -0.1955
30265WAT     H122865   0.447   0.877   8.669  0.1042  0.3456  0.6864
30265WAT     H222866   0.322   0.863   8.752 -0.4544 -0.8408 -0.3145
30265WAT    EPW22867   0.377   0.832   8.692  0.1741 -0.1920 -0.0949
30266WAT      O22868   3.832   5.881   6.892  0.0810  0.3305 -0.2293
30266WAT     H122869   3.789   5.836   6.819  0.5612  0.4479 -0.5926
30266WAT     H222870   3.856   5.967   6.856  3.3365 -0.7749 -1.0417
30266WAT    EPW22871   3.829   5.887   6.877  0.5738  0.2000 -0.3843
30267WAT      O22872  -0.177   8.357   8.598  0.8136  0.0137 -0.2119
30267WAT     H122873  -0.235   8.281   8.593 -0.6294  1.1420 -1.2159
30267WAT     H222874  -0.157   8.365   8.691  2.0422 -2.3168 -0.1959
30267WAT    EPW22875  -0.182   8.348   8.610  0.7854 -0.1450 -0.3424
30268WAT      O22876  -2.945   1.390   4.424  0.1636 -0.6577 -0.0618
30268WAT     H122877  -2.972   1.355   4.338  0.6767 -2.5193  0.4963
30268WAT     H222878  -2.867   1.441   4.405 -0.8861  0.6801 -0.9831
30268WAT    EPW22879  -2.939   1.392   4.410  0.0927 -0.7268 -0.1094
30269WAT      O22880   2.051   6.617   2.658  0.1738 -0.3148 -0.3408
30269WAT     H122881   2.122   6.573   2.611 -0.6355 -1.0143 -0.9389
30269WAT     H222882   2.078   6.614   2.749  1.3845  0.3257 -0.6642
30269WAT    EPW22883   2.064   6.610   2.664  0.2267 -0.3226 -0.4622
30270WAT      O22884   0.374   7.992   1.293  0.0128  0.3507 -0.9083
30270WAT     H122885   0.446   7.950   1.246 -0.5386 -0.6921 -0.8547
30270WAT     H222886   0.367   7.943   1.375 -1.5928 -0.4337 -1.4705
30270WAT    EPW22887   0.382   7.980   1.297 -0.2717  0.1097 -0.9753
30271WAT      O22888   1.641   4.920   2.018  0.5399 -0.3670  0.2615
30271WAT     H122889   1.597   4.978   1.956 -0.0996  0.3097  1.3116
30271WAT     H222890   1.653   4.838   1.970 -0.3258 -0.0031 -0.6089
30271WAT    EPW22891   1.636   4.917   2.004  0.3414 -0.2298  0.2851
30272WAT      O22892  -0.349   4.685   4.662 -0.2717  0.0546 -0.2194
30272WAT     H122893  -0.354   4.590   4.650 -0.7171  0.2350 -1.6440
30272WAT     H222894  -0.284   4.697   4.731  0.5974 -1.2447 -0.7690
30272WAT    EPW22895  -0.341   4.674   4.670 -0.2158 -0.0930 -0.4799
30273WAT      O22896   2.660   3.232   2.702  0.1076  0.2667 -0.5981
30273WAT     H122897   2.738   3.285   2.684 -0.9437  1.3635 -2.2699
30273WAT     H222898   2.599   3.293   2.742  0.3796 -0.8149  1.5999
30273WAT    EPW22899   2.662   3.247   2.705  0.0049  0.2688 -0.5287
30274WAT      O22900  -2.603   3.400   8.558  0.4485  0.1292  0.1414
30274WAT     H122901  -2.508   3.386   8.562  0.5354  0.8118  0.7562
30274WAT     H222902  -2.613   3.495   8.555 -0.1807  0.0350 -1.7473
30274WAT    EPW22903  -2.592   3.411   8.558  0.3769  0.2068 -0.0267
30275WAT      O22904   0.936   8.298   5.935  0.6318 -0.2588 -0.1174
30275WAT     H122905   1.011   8.333   5.984  0.3299 -0.7584  0.7089
30275WAT     H222906   0.955   8.205   5.926 -1.0211 -0.9239  2.2917
30275WAT    EPW22907   0.948   8.291   5.941  0.3740 -0.4125  0.3092
30276WAT      O22908   3.122   7.991   4.002  0.1640 -0.4275 -0.6029
30276WAT     H122909   3.130   8.084   4.026  0.7280 -0.4871 -0.5478
30276WAT     H222910   3.049   7.959   4.055  0.5075 -0.2169  0.0092
30276WAT    EPW22911   3.114   7.999   4.012  0.2836 -0.4072 -0.5147
30277WAT      O22912   6.246   4.219   0.339  0.1469 -0.0478  0.3883
30277WAT     H122913   6.205   4.188   0.259 -0.3686  0.8003  0.3106
30277WAT     H222914   6.327   4.169   0.345 -1.1555 -2.2586  0.8942
30277WAT    EPW22915   6.251   4.208   0.330 -0.0927 -0.2277  0.4448
30278WAT      O22916  -1.673   5.077   8.532  0.2408 -0.0901  0.2255
30278WAT     H122917  -1.614   5.139   8.489  1.1935 -1.1333 -0.0273
30278WAT     H222918  -1.718   5.033   8.459 -0.9445  0.7573  0.4178
30278WAT    EPW22919  -1.671   5.079   8.516  0.2102 -0.1159  0.2174
30279WAT      O22920  -1.020   2.132   7.261 -0.7010 -0.6016  0.8381
30279WAT     H122921  -1.102   2.095   7.293  0.4423 -3.5601  0.6855
30279WAT     H222922  -0.957   2.114   7.330  0.0686  0.6074  0.4799
30279WAT    EPW22923  -1.022   2.124   7.274 -0.4486 -0.8323  0.7708
30280WAT      O22924  -1.157   4.120   6.461 -0.6439 -0.0236 -0.5913
30280WAT     H122925  -1.121   4.032   6.449  2.5511  1.0979 -0.2429
30280WAT     H222926  -1.117   4.172   6.390 -0.0233  1.7321  0.9541
30280WAT    EPW22927  -1.147   4.115   6.450 -0.1407  0.3557 -0.3417
30281WAT      O22928  -1.558   2.539   4.304  0.4262  0.2498  0.2759
30281WAT     H122929  -1.591   2.629   4.314 -0.3339 -0.0719  0.7760
30281WAT     H222930  -1.612   2.487   4.363 -0.2864 -0.8035 -1.2263
30281WAT    EPW22931  -1.570   2.544   4.313  0.2320  0.0684  0.1438
30282WAT      O22932   4.204   3.877   5.836 -0.2973  0.1894 -1.0705
30282WAT     H122933   4.174   3.858   5.925 -0.0250  0.0123 -1.0131
30282WAT     H222934   4.298   3.858   5.839  0.0562  1.8112 -0.9250
30282WAT    EPW22935   4.213   3.872   5.848 -0.2148  0.3799 -1.0438
30283WAT      O22936   7.560   1.751   1.676 -0.4966  0.0310  0.5487
30283WAT     H122937   7.512   1.680   1.635 -0.3706  0.2268  0.0606
30283WAT     H222938   7.501   1.783   1.745 -0.7364 -0.2462  0.4716
30283WAT    EPW22939   7.546   1.746   1.680 -0.5116  0.0203  0.4742
30284WAT      O22940  -2.952   9.671   5.044 -0.6883 -0.6974  0.5795
30284WAT     H122941  -2.926   9.656   5.135  1.4021  1.5811  0.4716
30284WAT     H222942  -2.875   9.711   5.004 -2.0485 -0.3017 -1.8393
30284WAT    EPW22943  -2.938   9.674   5.051 -0.5921 -0.3448  0.2460
30285WAT      O22944   8.145   0.074   3.598  0.3337  0.2920 -0.0275
30285WAT     H122945   8.072   0.031   3.554 -1.2180  1.0096  1.6957
30285WAT     H222946   8.167   0.148   3.542  1.1173 -1.0306 -1.5559
30285WAT    EPW22947   8.139   0.078   3.585  0.2327  0.2122 -0.0018
30286WAT      O22948  -2.063   6.392   5.131  0.5622 -0.0413 -0.0453
30286WAT     H122949  -2.094   6.449   5.060 -0.5852 -1.2575 -0.5842
30286WAT     H222950  -2.116   6.417   5.206  2.3635  1.8338  0.6873
30286WAT    EPW22951  -2.074   6.402   5.131  0.6485  0.0458 -0.0198
30287WAT      O22952   4.470   2.226   1.277 -0.4206  0.8909  0.6730
30287WAT     H122953   4.381   2.229   1.242 -0.6702  0.5904  1.2589
30287WAT     H222954   4.496   2.134   1.270 -0.6285  0.7502  1.6337
30287WAT    EPW22955   4.462   2.214   1.272 -0.4809  0.8327  0.8770
30288WAT      O22956   4.366   0.732   4.185 -0.4893 -0.0199  0.0085
30288WAT     H122957   4.446   0.752   4.135  1.0441  0.2897  2.4162
30288WAT     H222958   4.378   0.642   4.214 -1.2103 -0.0893  0.1068
30288WAT    EPW22959   4.378   0.723   4.182 -0.3819  0.0118  0.3388
30289WAT      O22960   0.214   9.989   4.981  0.5382  0.1492  0.6582
30289WAT     H122961   0.266   9.957   5.055 -0.8715  0.4680  1.8253
30289WAT     H222962   0.234  10.082   4.976  1.8083 -0.1481 -0.3822
30289WAT    EPW22963   0.224   9.997   4.990  0.5198  0.1521  0.6750
30290WAT      O22964   0.604   8.446   1.409  0.1943  0.5946  0.4141
30290WAT     H122965   0.676   8.504   1.433  1.2950 -0.5084 -0.1090
30290WAT     H222966   0.527   8.502   1.411  1.4234  2.5445 -1.8407
30290WAT    EPW22967   0.604   8.461   1.413  0.5016  0.7062  0.0477
30291WAT      O22968   1.798   7.568   8.938  0.0861  0.2635  0.1754
30291WAT     H122969   1.860   7.621   8.988  0.1660 -1.3931  1.9399
30291WAT     H222970   1.749   7.519   9.004 -0.8229 -0.9370 -1.3137
30291WAT    EPW22971   1.800   7.568   8.954 -0.0229 -0.1132  0.2118
30292WAT      O22972  -6.260   7.749   7.913  0.6159 -0.4782 -0.7026
30292WAT     H122973  -6.346   7.720   7.945  1.4714 -1.0745  1.2565
30292WAT     H222974  -6.198   7.712   7.976  2.1582  1.6706 -0.8534
30292WAT    EPW22975  -6.263   7.740   7.926  0.9320 -0.2735 -0.4640
30293WAT      O22976  -5.668   2.097   8.440 -0.0843  0.3820  0.8357
30293WAT     H122977  -5.620   2.052   8.371 -0.2759  1.4319 -0.0112
30293WAT     H222978  -5.747   2.130   8.396 -1.7477 -1.5012  2.2273
30293WAT    EPW22979  -5.672   2.096   8.425 -0.3290  0.2720  0.9074
30294WAT      O22980   7.187   4.017   1.000  0.6586 -0.2523 -1.0637
30294WAT     H122981   7.183   3.924   0.979 -1.3583 -0.8548  1.4155
30294WAT     H222982   7.248   4.023   1.074 -0.6488  0.0456  0.0353
30294WAT    EPW22983   7.194   4.006   1.007  0.2203 -0.2923 -0.5918
30295WAT      O22984   4.996   3.949   1.958  0.0322  0.1894  0.0931
30295WAT     H122985   5.025   4.033   1.994 -0.0749 -0.7489  2.6012
30295WAT     H222986   5.039   3.884   2.013  0.5684 -1.4654 -2.1438
30295WAT    EPW22987   5.006   3.952   1.970  0.0887 -0.1525  0.1289
30296WAT      O22988   2.206   4.517   5.587 -0.1686 -0.7537  0.6262
30296WAT     H122989   2.223   4.558   5.672 -0.4917 -0.1162  0.3912
30296WAT     H222990   2.116   4.541   5.566  0.0727 -0.4611 -0.1349
30296WAT    EPW22991   2.196   4.526   5.595 -0.1793 -0.6309  0.4950
30297WAT      O22992   2.995   1.177   5.139  0.2780  0.1063  0.3100
30297WAT     H122993   3.078   1.201   5.099  0.2022 -0.9267 -0.5258
30297WAT     H222994   3.014   1.168   5.232  0.7830  1.2210  0.3214
30297WAT    EPW22995   3.008   1.179   5.146  0.3346  0.1170  0.2012
30298WAT      O22996  -0.729   8.377   1.958 -0.3650 -0.2914  0.4347
30298WAT     H122997  -0.812   8.338   1.985 -0.3421  0.8181  2.2683
30298WAT     H222998  -0.754   8.439   1.889 -0.9046 -0.7296  0.2225
30298WAT    EPW22999  -0.744   8.380   1.953 -0.4331 -0.2027  0.6486
30299WAT      O23000   7.661   4.361   1.295 -0.2770  0.3564 -0.8234
30299WAT     H123001   7.637   4.295   1.230 -0.0842  0.2497 -0.7853
30299WAT     H223002   7.731   4.320   1.346 -1.0840  0.0521  0.0778
30299WAT    EPW23003   7.667   4.347   1.293 -0.3581  0.3021 -0.6996
30300WAT      O23004  -4.605   9.868   5.195 -0.9075  0.3506 -0.5287
30300WAT     H123005  -4.585   9.855   5.102  0.5810 -0.2308 -0.1704
30300WAT     H223006  -4.522   9.849   5.239 -2.1090 -1.4825  1.0915
30300WAT    EPW23007  -4.591   9.864   5.188 -0.8695  0.0319 -0.2675
30301WAT      O23008  -4.562   8.191   4.580  0.0692  0.4034 -0.2783
30301WAT     H123009  -4.468   8.180   4.570 -0.0775 -0.6758 -0.5403
30301WAT     H223010  -4.575   8.204   4.674  0.3306 -1.0773 -0.0163
30301WAT    EPW23011  -4.551   8.192   4.591  0.0844  0.0658 -0.2782
30302WAT      O23012  -1.132  10.301   8.278  0.0166 -0.1174  0.7844
30302WAT     H123013  -1.134  10.365   8.207  1.5107  0.4354  1.2233
30302WAT     H223014  -1.055  10.247   8.260  1.9396  1.5711  3.2373
30302WAT    EPW23015  -1.122  10.302   8.266  0.4674  0.1779  1.1659
30303WAT      O23016  -3.675   1.755   6.548  0.4212 -0.5464  0.6911
30303WAT     H123017  -3.592   1.786   6.512 -1.4394  0.0614 -3.6982
30303WAT     H223018  -3.651   1.676   6.597  3.4844 -1.0483 -1.2990
30303WAT    EPW23019  -3.661   1.749   6.550  0.5798 -0.5324 -0.1502
30304WAT      O23020  -3.362   6.699   8.762 -0.2882 -0.1688  0.1208
30304WAT     H123021  -3.394   6.765   8.700 -1.2067 -0.4341  0.2998
30304WAT     H223022  -3.275   6.729   8.786 -0.7435  1.0487  0.2959
30304WAT    EPW23023  -3.355   6.712   8.757 -0.4694 -0.0434  0.1674
30305WAT      O23024   2.985   2.912   7.116  0.3115 -0.3481  0.2472
30305WAT     H123025   2.977   2.859   7.036  1.0904  0.6447 -0.5214
30305WAT     H223026   3.077   2.936   7.119 -0.1641  1.6379  0.1121
30305WAT    EPW23027   2.996   2.908   7.106  0.3515  0.0448  0.1280
30306WAT      O23028  -3.275   1.421   6.889  0.1557  0.4369 -0.4900
30306WAT     H123029  -3.201   1.412   6.948  0.1299  1.9450 -0.1908
30306WAT     H223030  -3.290   1.332   6.856  1.9776  0.0667 -0.4362
30306WAT    EPW23031  -3.267   1.408   6.892  0.3926  0.5870 -0.4437
30307WAT      O23032   1.717   4.606   0.387 -0.0534 -0.8454  0.5696
30307WAT     H123033   1.752   4.674   0.444 -0.2074 -0.9213  0.7559
30307WAT     H223034   1.713   4.647   0.300 -0.5697 -0.4677  0.7693
30307WAT    EPW23035   1.721   4.620   0.383 -0.1418 -0.8054  0.6205
30308WAT      O23036   0.426   3.253   6.488  0.0075  0.1734  0.5115
30308WAT     H123037   0.417   3.336   6.440  2.3403 -1.4785 -3.2439
30308WAT     H223038   0.513   3.258   6.527 -0.2263 -0.1561  1.0771
30308WAT    EPW23039   0.436   3.265   6.487  0.2843 -0.0879  0.0908
30309WAT      O23040  -1.803   5.293   5.596  0.3116  0.3793 -0.4905
30309WAT     H123041  -1.884   5.275   5.645 -0.5026  3.4319 -0.4961
30309WAT     H223042  -1.734   5.287   5.661 -0.6627  3.5548  1.0481
30309WAT    EPW23043  -1.805   5.290   5.611  0.0757  1.2009 -0.2882
30310WAT      O23044  -7.109   7.062   8.338  0.0237 -0.0351  0.0295
30310WAT     H123045  -7.138   7.104   8.257 -3.8315 -0.2693  1.0698
30310WAT     H223046  -7.045   7.123   8.375  1.1775  0.5142 -2.6385
30310WAT    EPW23047  -7.105   7.076   8.332 -0.3328  0.0062 -0.1850
30311WAT      O23048   1.999   1.383   7.585 -0.0604  0.3041 -0.0655
30311WAT     H123049   2.048   1.315   7.632  0.2292 -0.0500 -0.8553
30311WAT     H223050   1.908   1.371   7.613  0.1492  0.3052  0.6338
30311WAT    EPW23051   1.993   1.372   7.595  0.0055  0.2576 -0.0772
30312WAT      O23052  -6.967   9.300   8.115 -0.5498 -0.3874 -0.8067
30312WAT     H123053  -6.954   9.359   8.189  0.4802 -1.6549  0.0744
30312WAT     H223054  -6.888   9.313   8.061 -0.4969 -0.6977 -0.8022
30312WAT    EPW23055  -6.955   9.310   8.117 -0.4070 -0.5956 -0.6905
30313WAT      O23056  -1.571   8.442   3.991  0.3698 -0.2478  0.3398
30313WAT     H123057  -1.500   8.490   3.947 -0.2358  1.2196  0.9047
30313WAT     H223058  -1.626   8.511   4.029 -1.3559 -1.3483 -0.0764
30313WAT    EPW23059  -1.569   8.458   3.990  0.0623 -0.1998  0.3594
30314WAT      O23060   3.714   1.346   2.526 -0.4776 -0.3813  1.1835
30314WAT     H123061   3.666   1.355   2.608 -0.2375 -0.9667  1.3924
30314WAT     H223062   3.647   1.349   2.458 -0.5824  1.2998  1.3019
30314WAT    EPW23063   3.699   1.348   2.528 -0.4598 -0.2368  1.2267
30315WAT      O23064  -0.811   4.709   6.723  0.1293  0.1596 -0.1141
30315WAT     H123065  -0.831   4.788   6.672  1.7007  0.2907 -0.6098
30315WAT     H223066  -0.851   4.724   6.808  0.0494  1.3108 -0.3379
30315WAT    EPW23067  -0.819   4.721   6.727  0.3261  0.3288 -0.2089
30316WAT      O23068  -4.567   8.501   3.881  0.3851  0.1357  0.1653
30316WAT     H123069  -4.637   8.565   3.888  0.8464  0.6471  0.1281
30316WAT     H223070  -4.488   8.548   3.908  0.8217 -0.2528 -0.4119
30316WAT    EPW23071  -4.566   8.516   3.886  0.5035  0.1516  0.0843
30317WAT      O23072   2.947   7.329   2.075  0.4578 -0.1814 -0.5717
30317WAT     H123073   2.885   7.268   2.035 -1.2576  1.1364 -0.0513
30317WAT     H223074   2.978   7.382   2.002  0.6028 -0.5145 -0.7574
30317WAT    EPW23075   2.943   7.328   2.060  0.2508 -0.0515 -0.5275
30318WAT      O23076   5.768   3.166   3.449 -0.8233  0.1290 -0.3280
30318WAT     H123077   5.696   3.228   3.435 -0.8366  0.2793  0.3566
30318WAT     H223078   5.770   3.153   3.544 -0.2264 -0.2148 -0.3820
30318WAT    EPW23079   5.758   3.172   3.460 -0.7465  0.1035 -0.2447
30319WAT      O23080   1.775  10.066   6.866 -0.4528 -0.0500  0.2458
30319WAT     H123081   1.810  10.128   6.801 -0.9878 -2.8823 -3.0292
30319WAT     H223082   1.685  10.095   6.881 -1.4519 -1.0543 -2.9646
30319WAT    EPW23083   1.768  10.078   6.859 -0.6551 -0.5560 -0.6094
30320WAT      O23084   5.945   1.673   2.068 -0.8703 -0.0473 -0.0587
30320WAT     H123085   5.929   1.702   2.158 -1.3323 -1.2108  0.2474
30320WAT     H223086   5.923   1.750   2.014  0.7441  1.1300  0.8725
30320WAT    EPW23087   5.940   1.687   2.073 -0.7184 -0.0455  0.1044
30321WAT      O23088  -0.334   0.125   6.752  0.4288  0.1615  0.5068
30321WAT     H123089  -0.295   0.038   6.755 -1.5876 -0.7662  3.1411
30321WAT     H223090  -0.387   0.125   6.672  1.1733 -0.6520 -0.0052
30321WAT    EPW23091  -0.336   0.114   6.742  0.2610 -0.0681  0.7868
30322WAT      O23092   3.998   3.558   4.216 -0.1979  0.3014 -0.5378
30322WAT     H123093   3.948   3.638   4.204 -1.0433  0.0924  1.2805
30322WAT     H223094   4.089   3.588   4.227 -0.5368  1.0251  0.3553
30322WAT    EPW23095   4.004   3.572   4.216 -0.3543  0.3693 -0.1802
30323WAT      O23096  -3.052  10.155   3.241  0.3596  0.2879 -0.0220
30323WAT     H123097  -3.011  10.092   3.182 -2.6058 -1.4456 -0.4491
30323WAT     H223098  -3.144  10.159   3.211 -1.1897 -0.2790  4.0594
30323WAT    EPW23099  -3.059  10.147   3.229 -0.2359 -0.0153  0.4600
30324WAT      O23100   0.836   1.996   6.426 -0.3035 -0.1090 -0.6193
30324WAT     H123101   0.767   2.058   6.449  2.7634  3.5121 -0.1169
30324WAT     H223102   0.876   1.974   6.510 -0.1233 -1.2748 -0.9952
30324WAT    EPW23103   0.832   2.001   6.440  0.1247  0.2148 -0.6027
30325WAT      O23104   4.891   7.506   5.319 -0.4415 -0.8586  0.1693
30325WAT     H123105   4.928   7.594   5.317  2.8604 -2.1138  0.2058
30325WAT     H223106   4.881   7.481   5.227 -0.9335 -0.6557  0.1622
30325WAT    EPW23107   4.894   7.514   5.307 -0.0710 -0.9973  0.1733
30326WAT      O23108  -3.682   9.767   6.453 -0.4164 -0.1768  0.0041
30326WAT     H123109  -3.723   9.691   6.494 -2.3270 -1.0634 -3.1474
30326WAT     H223110  -3.742   9.839   6.472  0.3056  0.1123  1.2514
30326WAT    EPW23111  -3.695   9.766   6.461 -0.5732 -0.2556 -0.2472
30327WAT      O23112  -1.322   4.340   3.159  0.2799 -0.8090  0.1215
30327WAT     H123113  -1.403   4.382   3.188  2.3099  2.9240  0.9581
30327WAT     H223114  -1.273   4.323   3.239  0.7414 -2.2330 -0.4275
30327WAT    EPW23115  -1.326   4.343   3.173  0.6086 -0.5045  0.1593
30328WAT      O23116   2.901   3.535   3.351  0.7735 -0.3019 -0.4065
30328WAT     H123117   2.846   3.578   3.417 -0.4521 -1.6174 -0.5330
30328WAT     H223118   2.990   3.563   3.373  0.3571 -0.3993  1.5843
30328WAT    EPW23119   2.906   3.544   3.363  0.5569 -0.4883 -0.1606
30329WAT      O23120   3.910   4.868   8.767  0.2184 -0.3340 -0.1767
30329WAT     H123121   3.922   4.855   8.672  0.5446  0.2752 -0.2220
30329WAT     H223122   3.853   4.944   8.773  1.4459  0.5916  0.1298
30329WAT    EPW23123   3.904   4.876   8.755  0.4232 -0.1316 -0.1426
30330WAT      O23124   2.570   8.676   7.486  0.0995  0.4579 -0.7834
30330WAT     H123125   2.502   8.612   7.463 -0.4723  1.2299 -1.2914
30330WAT     H223126   2.648   8.644   7.440  0.2666 -0.7690  0.2897
30330WAT    EPW23127   2.571   8.663   7.477  0.0461  0.3977 -0.7088
30331WAT      O23128  -1.655   8.529   0.304 -0.1830  0.2804  0.3425
30331WAT     H123129  -1.720   8.502   0.239  0.9232 -0.4524 -0.5204
30331WAT     H223130  -1.654   8.457   0.367  0.2468 -0.0286 -0.0097
30331WAT    EPW23131  -1.663   8.516   0.304  0.0197  0.1431  0.1823
30332WAT      O23132  -1.457   4.112   4.835 -0.0064 -0.3621 -0.6388
30332WAT     H123133  -1.386   4.166   4.799 -1.2921  2.3329  0.5503
30332WAT     H223134  -1.529   4.174   4.849 -2.1525 -2.7184 -0.5250
30332WAT    EPW23135  -1.457   4.127   4.832 -0.4591 -0.3173 -0.4671
30333WAT      O23136   0.888   6.944   3.212  0.3030  0.1125 -0.3230
30333WAT     H123137   0.834   7.004   3.264  2.0890  1.9707 -0.4761
30333WAT     H223138   0.846   6.942   3.126 -1.0906 -0.7637  0.3407
30333WAT    EPW23139   0.875   6.951   3.208  0.3548  0.2422 -0.2556
30334WAT      O23140  -1.919   2.692   4.595 -0.2426 -0.7400 -0.0568
30334WAT     H123141  -1.875   2.773   4.569  1.2274 -2.0843 -2.0755
30334WAT     H223142  -1.899   2.684   4.689  0.1987  0.8458  0.0162
30334WAT    EPW23143  -1.910   2.702   4.604  0.0095 -0.7082 -0.3133
30335WAT      O23144   4.297   7.512   2.154  0.6145  0.7778  0.2399
30335WAT     H123145   4.331   7.428   2.123 -1.4436  0.9401 -3.0771
30335WAT     H223146   4.343   7.577   2.102 -3.1954  1.0612 -3.3517
30335WAT    EPW23147   4.307   7.509   2.143 -0.1595  0.8368 -0.6714
30336WAT      O23148   2.909   6.419   1.930  0.5489 -1.4540  0.6366
30336WAT     H123149   2.815   6.428   1.913  0.4632 -0.9319  1.3417
30336WAT     H223150   2.914   6.379   2.017  0.9802 -1.0338  0.8091
30336WAT    EPW23151   2.897   6.415   1.939  0.5945 -1.3294  0.7523
30337WAT      O23152  -3.468   3.737   8.014 -0.8581  0.8607 -0.4472
30337WAT     H123153  -3.542   3.685   7.980 -1.0197 -1.8493  3.3640
30337WAT     H223154  -3.501   3.776   8.095  1.9303 -1.2116  1.9171
30337WAT    EPW23155  -3.482   3.735   8.020 -0.5116  0.2300  0.3672
30338WAT      O23156  -2.360   4.028   8.667 -0.1064 -0.2611 -0.7655
30338WAT     H123157  -2.408   3.965   8.722 -2.4131  2.0410  0.0811
30338WAT     H223158  -2.339   4.100   8.727  0.8474  0.6026 -2.0915
30338WAT    EPW23159  -2.364   4.029   8.682 -0.2848  0.1564 -0.8287
30339WAT      O23160  -2.080   7.903   0.087 -0.5889  0.0898 -0.2150
30339WAT     H123161  -2.061   7.949   0.006 -0.5330  1.3028  0.4603
30339WAT     H223162  -2.127   7.967   0.140 -3.7587 -1.7328 -0.5770
30339WAT    EPW23163  -2.084   7.917   0.083 -0.9997  0.0095 -0.1737
30340WAT      O23164  -4.740   8.613   2.887 -0.3136 -0.3297  0.2205
30340WAT     H123165  -4.670   8.672   2.915 -0.1153 -1.0308  1.2609
30340WAT     H223166  -4.778   8.655   2.810  1.2118  0.0920 -0.3357
30340WAT    EPW23167  -4.735   8.626   2.880 -0.0861 -0.3662  0.2843
30341WAT      O23168   0.523   6.677   6.282 -0.4258  0.6816  0.3936
30341WAT     H123169   0.450   6.719   6.328 -0.0713  0.5554  1.0921
30341WAT     H223170   0.587   6.747   6.271 -0.7265  0.8383 -0.3892
30341WAT    EPW23171   0.522   6.692   6.287 -0.4187  0.6857  0.3822
30342WAT      O23172   4.783   4.014   3.271 -0.4428 -0.0843 -0.3396
30342WAT     H123173   4.798   4.009   3.366 -0.6230  0.2742 -0.2902
30342WAT     H223174   4.850   4.075   3.240  0.8470 -1.6210 -0.7300
30342WAT    EPW23175   4.794   4.021   3.280 -0.2964 -0.2396 -0.3846
30343WAT      O23176   5.342   2.551   3.717 -0.0910 -0.2693 -0.0209
30343WAT     H123177   5.383   2.601   3.787  1.5257 -1.8101  0.2083
30343WAT     H223178   5.259   2.521   3.755  1.1577 -1.8377  1.6254
30343WAT    EPW23179   5.336   2.554   3.731  0.2868 -0.6794  0.2264
30344WAT      O23180  -1.089   9.830   8.474  0.1552  0.3244  0.1877
30344WAT     H123181  -1.177   9.791   8.478 -0.6933  2.2165  1.2374
30344WAT     H223182  -1.104   9.924   8.481  2.2671  0.7059  0.1665
30344WAT    EPW23183  -1.103   9.837   8.476  0.3218  0.6247  0.3233
30345WAT      O23184   1.014   3.328   8.822 -0.1513 -0.2308 -0.2360
30345WAT     H123185   1.085   3.291   8.874  0.5690  1.1270 -0.2171
30345WAT     H223186   1.011   3.274   8.744  1.2256 -0.0255 -0.4520
30345WAT    EPW23187   1.023   3.316   8.819  0.1253 -0.0246 -0.2623
30346WAT      O23188   1.654   9.874   6.511 -0.1739  0.0332 -0.3694
30346WAT     H123189   1.568   9.841   6.486 -0.0179 -0.1487 -0.6700
30346WAT     H223190   1.712   9.798   6.507  0.3453  0.4687 -1.7968
30346WAT    EPW23191   1.651   9.860   6.508 -0.0848  0.0663 -0.5975
30347WAT      O23192   1.750   5.630   8.965  0.8461 -0.2963 -0.1182
30347WAT     H123193   1.803   5.706   8.988  1.4578 -0.8332  0.2691
30347WAT     H223194   1.793   5.592   8.888  1.0075 -0.7162  0.1761
30347WAT    EPW23195   1.762   5.635   8.958  0.9480 -0.4227 -0.0281
30348WAT      O23196   2.888   2.588   6.557  0.0888 -0.6867 -0.1060
30348WAT     H123197   2.864   2.663   6.502 -0.9324 -1.4309 -0.7071
30348WAT     H223198   2.874   2.512   6.500  2.6545 -1.2697 -0.0562
30348WAT    EPW23199   2.883   2.588   6.542  0.2925 -0.8618 -0.1788
30349WAT      O23200  -1.101   6.404   3.390 -0.2577 -0.3419  0.0091
30349WAT     H123201  -1.139   6.398   3.302 -1.0335 -2.5214  0.4321
30349WAT     H223202  -1.165   6.454   3.440  0.0862  0.7271 -0.5875
30349WAT    EPW23203  -1.115   6.409   3.385 -0.3147 -0.4883 -0.0138
30350WAT      O23204   1.955   2.318   8.699 -0.3916 -0.2046 -0.3468
30350WAT     H123205   1.934   2.330   8.606  0.3580 -1.5503 -0.7081
30350WAT     H223206   2.027   2.379   8.715 -0.3508 -0.1592 -0.7069
30350WAT    EPW23207   1.962   2.328   8.689 -0.2874 -0.3761 -0.4416
30351WAT      O23208   1.206   2.724   0.831 -0.0354 -0.3564 -0.1925
30351WAT     H123209   1.169   2.765   0.909 -1.0098 -1.0620 -0.2586
30351WAT     H223210   1.194   2.789   0.762 -1.4169 -0.6436 -0.2625
30351WAT    EPW23211   1.199   2.738   0.832 -0.3461 -0.4874 -0.2104
30352WAT      O23212   0.665   3.166   8.177  0.1018 -0.5336 -0.2988
30352WAT     H123213   0.664   3.143   8.270  0.7118 -1.9932 -0.6292
30352WAT     H223214   0.592   3.227   8.167  0.7646  0.6113  1.3561
30352WAT    EPW23215   0.655   3.171   8.188  0.2697 -0.5751 -0.1240
30353WAT      O23216   0.306   4.923   1.392  0.9715 -0.1477  0.2925
30353WAT     H123217   0.300   5.018   1.401 -0.6853 -0.2108  0.2807
30353WAT     H223218   0.226   4.899   1.343  1.9585 -1.4245 -0.7704
30353WAT    EPW23219   0.294   4.932   1.386  0.8832 -0.3242  0.1507
30354WAT      O23220  -0.458   8.198   5.066 -0.3431 -0.1516  0.1603
30354WAT     H123221  -0.516   8.157   5.129  0.4090  2.0983  2.4716
30354WAT     H223222  -0.468   8.292   5.080  1.7845  0.3797 -1.2881
30354WAT    EPW23223  -0.467   8.205   5.076  0.0367  0.2155  0.2742
30355WAT      O23224  -2.562   7.120   7.747 -0.2865 -1.2057 -0.2187
30355WAT     H123225  -2.594   7.033   7.725 -1.2669 -0.6112 -1.2183
30355WAT     H223226  -2.467   7.114   7.734 -0.2530 -2.2927  0.3809
30355WAT    EPW23227  -2.554   7.107   7.743 -0.4114 -1.2705 -0.2713
30356WAT      O23228   2.351  10.358   3.642 -0.9677  0.4898  0.3327
30356WAT     H123229   2.267  10.333   3.681 -2.4258  3.8725 -0.2553
30356WAT     H223230   2.336  10.351   3.547 -0.5183  0.8134  0.2340
30356WAT    EPW23231   2.338  10.354   3.634 -1.1007  0.9789  0.2421
30357WAT      O23232  -5.160   1.327   7.778  0.3409  0.0610 -0.3327
30357WAT     H123233  -5.206   1.384   7.716 -0.4011 -1.7125 -1.4707
30357WAT     H223234  -5.230   1.276   7.820  0.9966 -0.0877  0.6096
30357WAT    EPW23235  -5.176   1.328   7.776  0.3295 -0.1926 -0.3586
30358WAT      O23236   1.866   6.698   5.332 -0.4490 -0.0790 -0.3833
30358WAT     H123237   1.906   6.699   5.419  2.5518 -1.0143 -1.6300
30358WAT     H223238   1.826   6.612   5.325  1.1243 -0.8145 -0.6359
30358WAT    EPW23239   1.866   6.687   5.342  0.1543 -0.2995 -0.5810
30359WAT      O23240  -7.519  10.061   8.281 -0.3676  0.1668 -0.9132
30359WAT     H123241  -7.586  10.073   8.348  0.9124  0.1860  0.3875
30359WAT     H223242  -7.554   9.991   8.225 -1.6300  0.4334 -0.4856
30359WAT    EPW23243  -7.533  10.053   8.282 -0.3650  0.2041 -0.6857
30360WAT      O23244   0.623   2.563   8.413 -0.1097  0.0974  0.3101
30360WAT     H123245   0.544   2.597   8.371  1.2132  1.5309 -1.1483
30360WAT     H223246   0.691   2.626   8.390  2.0498 -2.4051 -0.6475
30360WAT    EPW23247   0.622   2.576   8.405  0.3496 -0.0435 -0.0081
30361WAT      O23248   4.616   8.675   5.064  0.6686  0.2015  0.0582
30361WAT     H123249   4.614   8.609   4.995 -1.8293  0.1444  0.0907
30361WAT     H223250   4.614   8.625   5.145  1.3459  0.2977  0.1376
30361WAT    EPW23251   4.615   8.660   5.065  0.4287  0.2065  0.0730
30362WAT      O23252   6.432   4.000   3.524 -0.7157  0.7107  0.1002
30362WAT     H123253   6.464   4.089   3.542 -0.3754  1.0143 -1.8076
30362WAT     H223254   6.354   4.013   3.470 -0.1567 -0.1570 -0.9482
30362WAT    EPW23255   6.426   4.014   3.519 -0.5972  0.6361 -0.2897
30363WAT      O23256  -1.860   6.009   6.818  0.1732 -0.4428 -0.4318
30363WAT     H123257  -1.939   6.046   6.778  0.4709  0.1657 -0.4663
30363WAT     H223258  -1.891   5.929   6.861  0.1531 -2.2759 -3.5433
30363WAT    EPW23259  -1.875   6.003   6.819  0.2099 -0.6044 -0.8466
30364WAT      O23260  -0.092   1.146   6.175  0.2682  0.8245 -0.2030
30364WAT     H123261  -0.072   1.067   6.124 -0.7505 -0.4394  1.2644
30364WAT     H223262  -0.019   1.205   6.157  0.9906 -0.3844 -1.4594
30364WAT    EPW23263  -0.080   1.143   6.166  0.2292  0.4983 -0.1752
30365WAT      O23264   7.782   2.453   2.524  0.3304  0.4847 -0.7532
30365WAT     H123265   7.773   2.548   2.517 -0.0871  0.8591  2.8150
30365WAT     H223266   7.750   2.433   2.612 -0.4954 -3.1214 -1.7109
30365WAT    EPW23267   7.777   2.463   2.535  0.1664  0.0585 -0.4089
30366WAT      O23268   2.890   4.780   1.716  0.0241  0.4277  0.0697
30366WAT     H123269   2.859   4.696   1.680  0.2528  0.2695  0.2403
30366WAT     H223270   2.855   4.782   1.805 -1.3884  1.2758 -0.4699
30366WAT    EPW23271   2.881   4.769   1.723 -0.1320  0.5186  0.0211
30367WAT      O23272  -1.507   9.448   1.197  0.3561  0.8994 -0.4089
30367WAT     H123273  -1.538   9.405   1.117 -1.0347  2.0507 -0.5485
30367WAT     H223274  -1.430   9.497   1.169  2.8009 -2.3793  0.0354
30367WAT    EPW23275  -1.501   9.449   1.183  0.4952  0.6189 -0.3687
30368WAT      O23276  -3.531   5.178   6.442  0.0005  0.2445  0.2242
30368WAT     H123277  -3.458   5.124   6.471 -1.5087 -0.9435  2.0747
30368WAT     H223278  -3.538   5.160   6.348  1.6320 -0.1347  0.1489
30368WAT    EPW23279  -3.523   5.168   6.433  0.0167  0.0377  0.4582
30369WAT      O23280   6.258   3.384   0.520 -0.6359  0.1431 -0.3456
30369WAT     H123281   6.167   3.372   0.549 -0.4171 -2.2614 -0.4481
30369WAT     H223282   6.258   3.354   0.429  0.0077  1.5191 -0.8330
30369WAT    EPW23283   6.246   3.378   0.512 -0.5221  0.0075 -0.4234
30370WAT      O23284   6.089   3.573   2.336 -0.5077 -0.1686 -0.0916
30370WAT     H123285   6.050   3.536   2.416 -0.9461  1.2613  0.3855
30370WAT     H223286   6.020   3.566   2.271 -1.3825  1.7351  0.5727
30370WAT    EPW23287   6.075   3.567   2.338 -0.6809  0.2710  0.0589
30371WAT      O23288   5.528   0.494   4.375  0.7076 -0.3846 -0.0066
30371WAT     H123289   5.584   0.417   4.367  2.7046  1.1855 -3.5098
30371WAT     H223290   5.504   0.516   4.285 -1.7560  1.7817  1.0268
30371WAT    EPW23291   5.532   0.487   4.362  0.6464  0.1082 -0.3321
30372WAT      O23292   0.435   7.998   0.857  0.6079 -0.4407  0.1067
30372WAT     H123293   0.367   7.980   0.921  1.3637 -0.9953  0.7737
30372WAT     H223294   0.390   8.041   0.785 -0.2499  0.2716  1.0394
30372WAT    EPW23295   0.420   8.001   0.856  0.5945 -0.4201  0.3177
30373WAT      O23296  -1.137   2.662   4.926  0.1503  0.5296 -0.4107
30373WAT     H123297  -1.141   2.690   5.018 -0.7304 -3.1211  0.8353
30373WAT     H223298  -1.222   2.685   4.891 -1.2096 -1.7356  1.0806
30373WAT    EPW23299  -1.148   2.669   4.934 -0.1452 -0.2507 -0.0496
30374WAT      O23300  -2.469   5.935   2.286  0.3666  0.0507 -0.0508
30374WAT     H123301  -2.475   6.004   2.353  0.5758 -2.0790  2.3038
30374WAT     H223302  -2.560   5.907   2.272  0.1277  1.5710 -1.9813
30374WAT    EPW23303  -2.482   5.940   2.293  0.3626 -0.0298  0.0051
30375WAT      O23304   4.361   3.432   3.929  0.4061  0.1688 -0.0699
30375WAT     H123305   4.312   3.514   3.930  0.2710  0.0868  0.4211
30375WAT     H223306   4.442   3.453   3.882 -0.5869  0.0077 -1.9380
30375WAT    EPW23307   4.365   3.446   3.923  0.2575  0.1367 -0.2515
30376WAT      O23308   3.940   7.683   4.541  0.1317 -0.4908 -0.5363
30376WAT     H123309   4.006   7.681   4.611 -0.6537 -0.7908  0.2098
30376WAT     H223310   3.991   7.669   4.460  0.9334 -1.1568  0.0633
30376WAT    EPW23311   3.956   7.681   4.539  0.1340 -0.6182 -0.3586
30377WAT      O23312   0.529   6.943   6.869 -0.6635 -0.0062 -0.2312
30377WAT     H123313   0.588   7.016   6.887 -0.3325 -0.2225 -0.4167
30377WAT     H223314   0.467   6.978   6.804 -0.3192  0.0228 -0.5496
30377WAT    EPW23315   0.528   6.957   6.863 -0.5744 -0.0308 -0.2975
30378WAT      O23316  -6.380   8.632   7.887 -0.2771 -0.1909  0.0855
30378WAT     H123317  -6.337   8.592   7.812  2.6400  3.6883 -0.6040
30378WAT     H223318  -6.355   8.578   7.962  1.3744 -1.0552 -1.0488
30378WAT    EPW23319  -6.371   8.620   7.887  0.3254  0.2065 -0.1552
30379WAT      O23320   0.011   8.923   3.972  0.2085  0.7925 -0.1621
30379WAT     H123321   0.001   9.011   4.009  1.8563  0.3017  1.6162
30379WAT     H223322   0.058   8.937   3.890  2.6808  1.4650  1.2649
30379WAT    EPW23323   0.015   8.936   3.966  0.7519  0.8163  0.2607
30380WAT      O23324  -3.071   3.359   6.337  0.8800 -0.1954  0.1744
30380WAT     H123325  -3.063   3.310   6.419  1.4130  2.2269  1.6511
30380WAT     H223326  -2.988   3.344   6.291  0.3535 -2.0324 -0.2820
30380WAT    EPW23327  -3.059   3.350   6.341  0.8808 -0.1183  0.3090
30381WAT      O23328   0.673   3.816   7.321 -0.7159 -0.3537  0.4615
30381WAT     H123329   0.591   3.799   7.273  0.3479 -0.5705 -1.3980
30381WAT     H223330   0.646   3.863   7.399 -2.8366 -2.3543  1.0440
30381WAT    EPW23331   0.658   3.820   7.325 -0.8553 -0.6462  0.2930
30382WAT      O23332   0.691   8.062   8.127  0.4969 -0.2473 -0.0540
30382WAT     H123333   0.623   8.008   8.088  0.5079  0.0956 -0.5552
30382WAT     H223334   0.773   8.019   8.103  0.4844 -0.3364  0.0587
30382WAT    EPW23335   0.693   8.049   8.119  0.4967 -0.2136 -0.1054
30383WAT      O23336   3.012   0.367   5.362  0.3890  0.1605 -0.7350
30383WAT     H123337   3.085   0.312   5.390 -0.7868 -1.7455 -1.2336
30383WAT     H223338   3.052   0.449   5.337  2.0298  0.2994  1.9205
30383WAT    EPW23339   3.027   0.370   5.363  0.4503 -0.0725 -0.4504
30384WAT      O23340   5.646   1.777   1.728  0.8231 -0.5353 -0.7549
30384WAT     H123341   5.624   1.727   1.807 -0.6445  1.9209  0.4997
30384WAT     H223342   5.576   1.756   1.667 -0.9184  1.3334  0.4715
30384WAT    EPW23343   5.634   1.768   1.731  0.3998  0.0352 -0.4277
30385WAT      O23344  -5.811   8.013   5.405  0.4695  0.1438  0.4038
30385WAT     H123345  -5.782   8.005   5.314 -1.9974  0.3618 -0.4831
30385WAT     H223346  -5.751   7.958   5.454  1.8634  0.0061 -1.3480
30385WAT    EPW23347  -5.799   8.005   5.399  0.3278  0.1545  0.0558
30386WAT      O23348  -1.573   9.678   7.351  0.7706  0.3417 -0.2842
30386WAT     H123349  -1.582   9.769   7.380 -1.4267  0.4299 -1.0777
30386WAT     H223350  -1.495   9.646   7.397  0.6378  2.1216  1.2990
30386WAT    EPW23351  -1.564   9.686   7.361  0.4633  0.5879 -0.1802
30387WAT      O23352   1.388   3.202   6.548  0.2049 -0.3026  0.3805
30387WAT     H123353   1.447   3.265   6.589  0.3986 -1.0487  1.2976
30387WAT     H223354   1.301   3.237   6.563  0.3743  0.7249 -0.8392
30387WAT    EPW23355   1.385   3.215   6.555  0.2528 -0.2655  0.3405
30388WAT      O23356  -5.461   7.317   6.668 -0.0257  0.2998 -0.1562
30388WAT     H123357  -5.399   7.284   6.733 -0.4724 -0.9544 -0.3378
30388WAT     H223358  -5.417   7.301   6.584 -0.3972 -0.1644 -0.2631
30388WAT    EPW23359  -5.447   7.310   6.665 -0.1335  0.0732 -0.1941
30389WAT      O23360   6.500   0.512   0.261 -0.3455  0.4132  0.2385
30389WAT     H123361   6.474   0.424   0.234 -2.2245  0.6379  1.1009
30389WAT     H223362   6.505   0.507   0.357  1.7852  0.7067  0.1789
30389WAT    EPW23363   6.497   0.500   0.270 -0.3123  0.4815  0.3444
30390WAT      O23364   4.595   5.155   3.486  0.6205  0.5011  0.1315
30390WAT     H123365   4.551   5.236   3.461 -2.6150 -1.8242 -2.7454
30390WAT     H223366   4.531   5.109   3.541  0.4729 -1.7671 -1.7508
30390WAT    EPW23367   4.580   5.160   3.490  0.1743 -0.1047 -0.4961
30391WAT      O23368  -0.143   5.658   1.764  0.4006  0.2073  0.3156
30391WAT     H123369  -0.111   5.569   1.750 -0.3072  0.2268 -1.7588
30391WAT     H223370  -0.197   5.677   1.687 -3.2673  0.7815  2.7501
30391WAT    EPW23371  -0.146   5.649   1.752 -0.1765  0.2856  0.3631
30392WAT      O23372   1.871   8.890   8.999  0.0943  0.6696  0.0548
30392WAT     H123373   1.850   8.825   8.932  1.7194  0.2257 -0.0682
30392WAT     H223374   1.965   8.906   8.988  0.3357  0.7988  2.0487
30392WAT    EPW23375   1.881   8.884   8.989  0.3409  0.6280  0.3016
30393WAT      O23376  -8.101   8.578   8.438  0.0725 -0.3586  0.0090
30393WAT     H123377  -8.148   8.646   8.389  1.0332 -0.6708 -1.3911
30393WAT     H223378  -8.074   8.621   8.519 -2.7499 -0.2107  0.9911
30393WAT    EPW23379  -8.104   8.593   8.442 -0.1731 -0.3805 -0.0458
30394WAT      O23380  -0.980   4.178   5.350 -0.3573  0.3299 -0.0918
30394WAT     H123381  -0.886   4.185   5.333  0.0092  0.3000  1.7329
30394WAT     H223382  -1.020   4.239   5.289  0.9947  1.5752  0.2108
30394WAT    EPW23383  -0.972   4.187   5.340 -0.1306  0.4904  0.1888
30395WAT      O23384  -1.338   7.983   0.836 -0.5310  0.0898 -0.2067
30395WAT     H123385  -1.305   8.006   0.923 -0.2205  2.4566 -0.8978
30395WAT     H223386  -1.335   7.887   0.834  0.0651  0.0084  2.1376
30395WAT    EPW23387  -1.334   7.973   0.847 -0.4115  0.3912  0.0114
30396WAT      O23388  -2.886   7.960   2.168  0.2776 -0.3402  0.2299
30396WAT     H123389  -2.926   8.047   2.180 -1.6332 -1.0051 -0.9724
30396WAT     H223390  -2.929   7.905   2.233 -0.1450 -0.8775 -0.4950
30396WAT    EPW23391  -2.897   7.964   2.179 -0.0302 -0.4988 -0.0244
30397WAT      O23392   2.064   0.875   4.412 -0.4467  0.0991  0.2182
30397WAT     H123393   2.134   0.814   4.388  0.2004  1.0924 -0.5197
30397WAT     H223394   2.105   0.961   4.409 -1.8908  0.7974 -1.0722
30397WAT    EPW23395   2.079   0.878   4.408 -0.5519  0.3222 -0.0494
30398WAT      O23396   1.345   7.047   4.923 -0.8578 -0.6574  0.2315
30398WAT     H123397   1.332   7.113   4.854 -0.5482 -0.1751  0.6314
30398WAT     H223398   1.262   7.047   4.971 -1.1677 -1.1733 -0.2808
30398WAT    EPW23399   1.332   7.056   4.920 -0.8578 -0.6618  0.2167
30399WAT      O23400  -0.827   2.307   3.869  0.7492 -0.3154 -0.3596
30399WAT     H123401  -0.784   2.383   3.830  0.6088  0.7760  1.5101
30399WAT     H223402  -0.781   2.292   3.951 -1.6370  0.2005  1.1828
30399WAT    EPW23403  -0.815   2.315   3.875  0.4160 -0.1034  0.0905
30400WAT      O23404   4.779   9.243   1.690 -0.7769 -0.5137 -0.9601
30400WAT     H123405   4.683   9.236   1.689 -0.7931 -0.6885  0.5088
30400WAT     H223406   4.806   9.199   1.609 -1.8723 -1.5904 -0.7842
30400WAT    EPW23407   4.770   9.236   1.679 -0.9234 -0.6785 -0.7432
30401WAT      O23408  -3.350   7.752   6.760  0.0663 -0.4893  0.2926
30401WAT     H123409  -3.308   7.795   6.685  0.8857  0.6474  1.3670
30401WAT     H223410  -3.384   7.670   6.724 -2.7668  1.5316 -2.1901
30401WAT    EPW23411  -3.349   7.747   6.745 -0.1993 -0.0727  0.1066
30402WAT      O23412   9.230   3.407   0.794 -0.7089 -0.0415 -0.1398
30402WAT     H123413   9.207   3.388   0.703  3.0886 -0.6529 -1.1515
30402WAT     H223414   9.236   3.321   0.835  1.4018 -0.1118 -0.4811
30402WAT    EPW23415   9.228   3.393   0.787  0.0701 -0.1314 -0.3183
30403WAT      O23416   1.942   2.735   5.905 -0.4418  0.1510 -0.1024
30403WAT     H123417   1.867   2.777   5.863  0.0798  1.4460  0.2148
30403WAT     H223418   1.983   2.805   5.957  0.3067 -0.8240  0.6518
30403WAT    EPW23419   1.937   2.750   5.906 -0.2743  0.1931  0.0391
30404WAT      O23420   2.019   6.807   0.108  0.0370 -0.4013 -0.0494
30404WAT     H123421   2.080   6.827   0.179 -0.7545  1.1211  0.2439
30404WAT     H223422   2.069   6.824   0.028 -0.1140  1.2995  0.1881
30404WAT    EPW23423   2.034   6.812   0.106 -0.0873  0.0238  0.0206
30405WAT      O23424  -1.837   4.361   2.741  0.0162  0.3243  0.3069
30405WAT     H123425  -1.928   4.334   2.753 -0.1433  1.0364  0.7601
30405WAT     H223426  -1.785   4.291   2.782 -0.3138 -0.1641 -0.1002
30405WAT    EPW23427  -1.842   4.348   2.748 -0.0483  0.3538  0.3129
30406WAT      O23428  -5.925   6.998   7.552  0.5010 -0.1552 -0.3103
30406WAT     H123429  -6.015   6.967   7.564  0.7749 -0.6414  0.6332
30406WAT     H223430  -5.880   6.925   7.510  0.7794 -0.4555  0.4960
30406WAT    EPW23431  -5.931   6.984   7.548  0.5739 -0.2589 -0.0796
30407WAT      O23432   1.235   5.377   3.679 -0.2409 -0.3807 -0.3494
30407WAT     H123433   1.225   5.316   3.752 -3.1171  1.6865  1.1478
30407WAT     H223434   1.316   5.350   3.637  0.6500 -2.7445  2.5527
30407WAT    EPW23435   1.244   5.365   3.683 -0.5028 -0.4199  0.2308
30408WAT      O23436   0.976   5.713   6.710  0.3218 -0.2163 -0.0274
30408WAT     H123437   1.022   5.705   6.793  0.3346  0.1266 -0.0004
30408WAT     H223438   0.923   5.634   6.704  0.0223 -0.0610  0.4917
30408WAT    EPW23439   0.975   5.702   6.720  0.2840 -0.1507  0.0446
30409WAT      O23440   4.628   4.137   4.061  0.2150  0.1301 -0.4110
30409WAT     H123441   4.615   4.204   3.994  1.0443  0.0028 -0.7157
30409WAT     H223442   4.634   4.055   4.011  1.7078  0.1328 -0.2860
30409WAT    EPW23443   4.627   4.135   4.045  0.5212  0.1137 -0.4346
30410WAT      O23444  -3.613   0.423   6.897  0.8059 -0.3301  0.2696
30410WAT     H123445  -3.525   0.388   6.884  1.6410  2.0869 -1.1195
30410WAT     H223446  -3.610   0.464   6.983  1.1824  0.0989  0.0556
30410WAT    EPW23447  -3.601   0.424   6.907  0.9657  0.0452  0.0582
30411WAT      O23448   0.959   5.862   0.320 -0.0108 -0.4007 -0.3074
30411WAT     H123449   0.871   5.900   0.321 -0.0115 -0.4005  0.7283
30411WAT     H223450   0.983   5.860   0.227 -1.4008 -1.0843 -0.6816
30411WAT    EPW23451   0.950   5.867   0.308 -0.1943 -0.4907 -0.2202
30412WAT      O23452   3.605   6.478   6.510 -0.0570  0.6084  0.1952
30412WAT     H123453   3.650   6.411   6.561 -0.9849 -1.2482 -1.3248
30412WAT     H223454   3.647   6.560   6.537  2.0952 -0.6896  1.0922
30412WAT    EPW23455   3.617   6.480   6.520  0.1045  0.1924  0.1130
30413WAT      O23456   4.535   6.977   2.873 -0.3082  0.3884  0.0207
30413WAT     H123457   4.556   7.062   2.912  1.1789  0.7412 -1.4314
30413WAT     H223458   4.447   6.988   2.837 -0.6926  0.8470  1.0726
30413WAT    EPW23459   4.526   6.990   2.873 -0.1628  0.4954 -0.0321
30414WAT      O23460   2.224   1.794   2.707 -0.3367 -0.0356  0.3456
30414WAT     H123461   2.179   1.868   2.750 -0.4238 -1.1505  2.3038
30414WAT     H223462   2.312   1.795   2.745  0.9598  1.2892 -2.4450
30414WAT    EPW23463   2.229   1.804   2.718 -0.1771 -0.0079  0.2358
30415WAT      O23464   3.136   8.534   5.109  0.3648  0.9605 -0.1632
30415WAT     H123465   3.220   8.496   5.134  0.0843 -0.5891 -1.4125
30415WAT     H223466   3.151   8.628   5.108  1.1312  0.9469  2.9226
30415WAT    EPW23467   3.149   8.541   5.112  0.4288  0.7544  0.0789
30416WAT      O23468  -2.148   9.131   1.658  0.9338 -0.0887  0.2405
30416WAT     H123469  -2.091   9.207   1.671  3.7144 -2.0317  0.4296
30416WAT     H223470  -2.161   9.096   1.746 -1.7097  0.9992  0.3525
30416WAT    EPW23471  -2.142   9.136   1.671  0.9520 -0.2012  0.2803
30417WAT      O23472  -4.532   0.989   7.262  0.1797 -0.0158 -0.9333
30417WAT     H123473  -4.601   1.051   7.240  0.0198  0.1211 -0.0583
30417WAT     H223474  -4.486   1.028   7.336 -0.1966 -1.1418 -0.0775
30417WAT    EPW23475  -4.535   1.002   7.269  0.1092 -0.1463 -0.7052
30418WAT      O23476   3.685   6.781   7.848 -0.4662  0.0774  0.0702
30418WAT     H123477   3.751   6.816   7.788 -0.2812 -1.2089 -0.5292
30418WAT     H223478   3.707   6.818   7.933 -1.0617  2.3823 -0.7085
30418WAT    EPW23479   3.697   6.790   7.851 -0.5203  0.2117 -0.1113
30419WAT      O23480  -0.593   9.055   5.263  0.1171 -0.5303 -0.1151
30419WAT     H123481  -0.568   8.965   5.285  0.1367 -0.8154 -1.2399
30419WAT     H223482  -0.558   9.069   5.175 -0.9521  0.1586 -0.4560
30419WAT    EPW23483  -0.585   9.045   5.254 -0.0213 -0.4768 -0.3083
30420WAT      O23484   7.064   7.979   0.354 -0.3373  0.1008  0.0798
30420WAT     H123485   7.010   7.981   0.433  0.5197 -1.4496  0.7547
30420WAT     H223486   7.134   7.917   0.374  1.2317  1.4178 -1.0726
30420WAT    EPW23487   7.066   7.971   0.367 -0.0174  0.0701  0.0168
30421WAT      O23488   4.866   5.083   3.849 -0.7738 -0.4633  0.1412
30421WAT     H123489   4.878   5.117   3.760  0.8700 -0.5589  0.2984
30421WAT     H223490   4.774   5.099   3.869 -0.6361  1.6493 -0.7264
30421WAT    EPW23491   4.856   5.089   3.840 -0.5388 -0.1972  0.0477
30422WAT      O23492   3.440   8.668   6.464  0.0936  0.7175 -0.2673
30422WAT     H123493   3.471   8.654   6.554  1.4437  2.7652 -0.3526
30422WAT     H223494   3.364   8.725   6.474 -0.6905 -0.2842 -0.3673
30422WAT    EPW23495   3.434   8.673   6.477  0.1682  0.8559 -0.2918
30423WAT      O23496   2.362  -0.016   7.747  0.0432  0.7226  0.6863
30423WAT     H123497   2.385   0.062   7.798 -1.2599  2.5682 -1.3737
30423WAT     H223498   2.397   0.001   7.660 -0.1481 -1.0807  0.2276
30423WAT    EPW23499   2.370  -0.003   7.742 -0.1539  0.7281  0.3543
30424WAT      O23500  -1.049   4.456   2.362 -0.7331  0.8828 -0.9305
30424WAT     H123501  -1.067   4.433   2.271  0.7402 -0.9564 -0.8278
30424WAT     H223502  -1.132   4.443   2.407 -1.3563  1.3387 -1.9053
30424WAT    EPW23503  -1.062   4.451   2.356 -0.6210  0.7005 -1.0456
30425WAT      O23504   0.604   0.998   0.586 -0.0906  0.0638 -0.3924
30425WAT     H123505   0.610   1.018   0.680 -1.2033  0.9466 -0.4876
30425WAT     H223506   0.688   0.956   0.565  0.2067 -0.0661  0.9728
30425WAT    EPW23507   0.616   0.995   0.596 -0.1982  0.1631 -0.2249
30426WAT      O23508  -3.766   2.765   8.856 -0.1187  0.7481 -0.1967
30426WAT     H123509  -3.686   2.786   8.904 -1.3072 -0.5351  2.5866
30426WAT     H223510  -3.823   2.726   8.922 -2.5921  0.4870 -2.3528
30426WAT    EPW23511  -3.763   2.762   8.871 -0.6015  0.5443 -0.1140
30427WAT      O23512  -6.207   2.401   8.882 -0.0119  0.5541  0.0342
30427WAT     H123513  -6.168   2.433   8.963 -0.4735  2.3810 -0.4225
30427WAT     H223514  -6.133   2.385   8.824  0.3125 -0.6390  0.7302
30427WAT    EPW23515  -6.192   2.403   8.885 -0.0298  0.6378  0.0653
30428WAT      O23516   3.729   8.186   0.179 -0.4113 -0.6886  0.3146
30428WAT     H123517   3.703   8.180   0.087  0.2867 -0.5484  0.1040
30428WAT     H223518   3.802   8.248   0.180 -0.3162 -0.7982  0.9446
30428WAT    EPW23519   3.735   8.194   0.167 -0.3066 -0.6843  0.3700
30429WAT      O23520  -0.473   2.675   7.956 -0.2549  0.5178  0.4351
30429WAT     H123521  -0.534   2.677   7.883 -0.0250  1.3167  0.2576
30429WAT     H223522  -0.387   2.659   7.916 -0.3278 -0.6431  0.6852
30429WAT    EPW23523  -0.470   2.673   7.941 -0.2342  0.4700  0.4447
30430WAT      O23524  -3.986   7.982   5.994 -0.1784 -0.0719  0.9517
30430WAT     H123525  -3.906   7.955   5.948 -0.9579 -1.3306  0.2849
30430WAT     H223526  -3.954   8.037   6.066  1.1085  1.4401 -0.6893
30430WAT    EPW23527  -3.971   7.986   5.998 -0.1115 -0.0384  0.6475
30431WAT      O23528   1.683   9.961   5.352  0.3474 -0.3314  0.1388
30431WAT     H123529   1.697   9.984   5.260  0.1866 -1.9644 -0.3166
30431WAT     H223530   1.588   9.952   5.360  0.2858  0.6406  0.6993
30431WAT    EPW23531   1.672   9.963   5.341  0.3181 -0.4182  0.1526
30432WAT      O23532   0.567   0.656   6.788  0.2049 -0.0130 -0.6000
30432WAT     H123533   0.656   0.632   6.816 -0.1031  0.2383  0.6754
30432WAT     H223534   0.579   0.696   6.702  1.1991 -0.9744 -0.9246
30432WAT    EPW23535   0.581   0.658   6.781  0.2954 -0.1067 -0.4747
30433WAT      O23536   2.718   1.547   2.297 -0.2037 -0.4882  0.6151
30433WAT     H123537   2.777   1.616   2.266  0.9466 -2.2737 -1.3831
30433WAT     H223538   2.631   1.574   2.266  0.2946 -0.1459 -0.5092
30433WAT    EPW23539   2.714   1.560   2.289  0.0137 -0.6786  0.2033
30434WAT      O23540  -0.306   0.568   7.980  0.1810  0.2476 -0.2997
30434WAT     H123541  -0.273   0.567   8.070  0.4910  0.5006 -0.4083
30434WAT     H223542  -0.257   0.498   7.937 -1.2057 -1.0504  0.1516
30434WAT    EPW23543  -0.295   0.559   7.986  0.0390  0.1098 -0.2546
30435WAT      O23544  -0.272   6.025   0.302 -0.1800 -0.0637 -0.9705
30435WAT     H123545  -0.327   6.004   0.227  0.0402 -1.4094 -0.7718
30435WAT     H223546  -0.184   6.038   0.265 -0.0304 -0.9324 -0.9260
30435WAT    EPW23547  -0.267   6.024   0.287 -0.1312 -0.3560 -0.9384
30436WAT      O23548  -1.417   1.303   1.876 -0.5834  0.5223 -0.3970
30436WAT     H123549  -1.453   1.308   1.965 -0.2380  0.9041 -0.2741
30436WAT     H223550  -1.352   1.374   1.873 -1.1047  0.9772 -1.1878
30436WAT    EPW23551  -1.413   1.313   1.888 -0.6066  0.6326 -0.4851
30437WAT      O23552   0.805   5.726   6.004 -0.0194 -0.3722  0.2733
30437WAT     H123553   0.752   5.737   6.083  0.3882  1.2853  0.3564
30437WAT     H223554   0.878   5.787   6.015  0.1616 -0.2590 -1.2997
30437WAT    EPW23555   0.808   5.735   6.016  0.0582 -0.1388  0.0768
30438WAT      O23556  -4.087   0.535   8.538 -0.3111 -0.2184  0.3637
30438WAT     H123557  -4.181   0.525   8.523 -0.0848 -0.5013 -0.9854
30438WAT     H223558  -4.080   0.560   8.631 -1.6509 -0.9688  0.6951
30438WAT    EPW23559  -4.099   0.537   8.549 -0.4578 -0.3547  0.2294
30439WAT      O23560   2.130   3.817   2.878 -0.9375  0.6930  0.1737
30439WAT     H123561   2.182   3.771   2.813 -1.8336  1.5937 -1.2227
30439WAT     H223562   2.195   3.857   2.936 -0.1332 -0.7988  0.3697
30439WAT    EPW23563   2.146   3.816   2.877 -0.9496  0.6151  0.0154
30440WAT      O23564   6.289   2.001   4.355 -0.1197 -0.1022  0.0636
30440WAT     H123565   6.208   1.992   4.406 -0.6463 -3.2660 -1.1142
30440WAT     H223566   6.345   2.057   4.409 -1.5593 -1.2216  2.9326
30440WAT    EPW23567   6.286   2.008   4.369 -0.3791 -0.6670  0.2866
30441WAT      O23568   5.811   0.217   3.162  0.4541 -0.2459  0.9570
30441WAT     H123569   5.811   0.185   3.072  0.8394  1.9533  0.0858
30441WAT     H223570   5.761   0.299   3.158 -0.4625 -0.6621  2.9898
30441WAT    EPW23571   5.805   0.224   3.149  0.3843 -0.0107  1.1103
30442WAT      O23572  -4.674   9.141   7.586 -0.0939 -1.0216 -0.1235
30442WAT     H123573  -4.737   9.213   7.586 -0.0112 -0.8973 -1.7073
30442WAT     H223574  -4.682   9.103   7.498 -0.6981 -3.4482  0.9152
30442WAT    EPW23575  -4.683   9.145   7.574 -0.1626 -1.3251 -0.1955
30443WAT      O23576   5.168   1.120   4.210  0.0081 -0.8466 -0.7458
30443WAT     H123577   5.129   1.037   4.236 -1.1810 -0.6000 -1.6785
30443WAT     H223578   5.176   1.170   4.291 -1.8585 -0.8116 -0.5510
30443WAT    EPW23579   5.164   1.115   4.224 -0.3948 -0.8094 -0.8430
30444WAT      O23580  -0.383   7.144   0.460  0.2397  0.5351  0.4140
30444WAT     H123581  -0.328   7.072   0.428  0.8697  1.4098 -0.5465
30444WAT     H223582  -0.325   7.220   0.462 -0.8124  1.3918 -0.2156
30444WAT    EPW23583  -0.368   7.144   0.456  0.1840  0.7634  0.2043
30445WAT      O23584  -3.547  10.316   2.117  0.3027 -0.7736 -0.4794
30445WAT     H123585  -3.537  10.222   2.104  0.3582 -0.5363 -2.4856
30445WAT     H223586  -3.474  10.340   2.174 -0.0859 -2.0177  0.5893
30445WAT    EPW23587  -3.536  10.307   2.123  0.2588 -0.9065 -0.6031
30446WAT      O23588   1.482   0.208   8.181  0.1731 -0.4024  0.7662
30446WAT     H123589   1.505   0.294   8.145  2.2348 -1.0136  0.5297
30446WAT     H223590   1.519   0.145   8.120  0.8479 -1.4649  2.2077
30446WAT    EPW23591   1.490   0.211   8.169  0.5340 -0.6231  0.9255
30447WAT      O23592   2.962   0.684   3.157  0.3437  0.2612 -0.5036
30447WAT     H123593   2.892   0.632   3.195  1.3137 -0.4603  0.3352
30447WAT     H223594   3.037   0.671   3.215  1.6271 -0.1919 -2.1632
30447WAT    EPW23595   2.963   0.675   3.169  0.6410  0.1063 -0.6119
30448WAT      O23596  -0.906   8.472   8.814 -0.4662 -0.0672 -0.5595
30448WAT     H123597  -0.814   8.499   8.815  1.0885 -4.4913 -0.2571
30448WAT     H223598  -0.922   8.445   8.723 -0.7782 -1.0998 -0.2162
30448WAT    EPW23599  -0.896   8.472   8.802 -0.3023 -0.7873 -0.4745
30449WAT      O23600   6.049   2.011   2.082  0.1208 -0.0134 -0.4362
30449WAT     H123601   6.027   1.944   2.018  1.0970 -1.3521  0.5652
30449WAT     H223602   6.025   1.973   2.166 -0.0777  1.2453  0.1088
30449WAT    EPW23603   6.043   1.997   2.085  0.2234 -0.0239 -0.2322
30450WAT      O23604   7.188   1.026   3.924 -0.1758 -0.1304  0.1379
30450WAT     H123605   7.229   0.979   3.852 -1.7955 -1.0133 -0.2411
30450WAT     H223606   7.262   1.053   3.979  1.0586  0.1357 -1.5606
30450WAT    EPW23607   7.203   1.024   3.922 -0.2265 -0.2118 -0.1361
30451WAT      O23608   3.973   0.200   8.141 -0.6355 -0.4044 -0.6963
30451WAT     H123609   3.942   0.203   8.232  0.8654 -3.5873  0.0620
30451WAT     H223610   3.901   0.160   8.093 -1.5349  1.5178 -1.0452
30451WAT    EPW23611   3.959   0.195   8.147 -0.5562 -0.5707 -0.6423
30452WAT      O23612   1.690   8.150   5.597 -0.4012 -0.3196  0.1338
30452WAT     H123613   1.599   8.165   5.573 -0.4374  1.7831  1.3733
30452WAT     H223614   1.723   8.091   5.529 -2.6062 -0.9933 -0.4411
30452WAT    EPW23615   1.682   8.144   5.585 -0.6968 -0.1311  0.2215
30453WAT      O23616  -0.880   6.705   8.189  0.1904 -0.0658 -0.2137
30453WAT     H123617  -0.828   6.627   8.168  1.5873 -0.0319  2.6701
30453WAT     H223618  -0.874   6.759   8.110  3.2439 -0.7909 -0.6261
30453WAT    EPW23619  -0.872   6.702   8.176  0.7774 -0.1569  0.1116
30454WAT      O23620  -0.235   8.835   0.494  0.1158 -0.3826  0.5285
30454WAT     H123621  -0.151   8.849   0.450 -0.6232  2.1856 -0.2728
30454WAT     H223622  -0.211   8.802   0.581  2.0635  1.2603  0.7044
30454WAT    EPW23623  -0.221   8.833   0.500  0.2752  0.1731  0.4460
30455WAT      O23624   0.056   9.455   6.868  0.6918  0.3263 -0.2977
30455WAT     H123625   0.152   9.451   6.863  0.8705 -2.8463  2.4619
30455WAT     H223626   0.026   9.385   6.811  0.1017  0.2610  0.0924
30455WAT    EPW23627   0.065   9.446   6.860  0.6375 -0.1006  0.1178
30456WAT      O23628   3.488   0.048   3.240 -1.0258 -0.2544  0.3718
30456WAT     H123629   3.440   0.061   3.159  1.0447  0.6087 -0.7828
30456WAT     H223630   3.564  -0.004   3.216  0.5070  1.3939  1.3614
30456WAT    EPW23631   3.491   0.043   3.226 -0.5504  0.0768  0.3501
30457WAT      O23632   7.067   2.049   2.883 -0.6670  0.2120 -0.4291
30457WAT     H123633   6.995   1.989   2.904  0.8115 -1.3527  0.3549
30457WAT     H223634   7.025   2.119   2.833 -2.5639 -1.1940 -0.9366
30457WAT    EPW23635   7.052   2.050   2.879 -0.7219 -0.1798 -0.3927
30458WAT      O23636   2.783   2.733   0.720  0.3796  0.7047  0.0120
30458WAT     H123637   2.761   2.811   0.771  0.9505  0.6130  0.4156
30458WAT     H223638   2.822   2.768   0.639 -1.2368  0.8659 -0.7284
30458WAT    EPW23639   2.785   2.748   0.716  0.2418  0.7139 -0.0325
30459WAT      O23640  -1.850   2.194   4.275  0.3221 -0.4530 -0.2144
30459WAT     H123641  -1.875   2.276   4.317  3.1170  0.6544 -0.4845
30459WAT     H223642  -1.929   2.166   4.227 -1.2562  1.0487  1.3758
30459WAT    EPW23643  -1.864   2.201   4.274  0.4826 -0.1088 -0.0401
30460WAT      O23644   6.513   2.339   5.359 -0.5078  0.2269  0.3622
30460WAT     H123645   6.589   2.342   5.416 -2.0154 -2.2714  2.7596
30460WAT     H223646   6.541   2.288   5.283 -0.0246 -1.7002  1.7693
30460WAT    EPW23647   6.527   2.333   5.357 -0.6428 -0.3568  0.8643
30461WAT      O23648   1.384   7.466   8.771 -0.4317  0.1574  0.5871
30461WAT     H123649   1.390   7.559   8.793 -1.2783 -0.1808  2.4982
30461WAT     H223650   1.472   7.432   8.782  0.4809  1.1332 -2.5935
30461WAT    EPW23651   1.396   7.474   8.775 -0.4230  0.2415  0.4196
30462WAT      O23652   5.136   6.656   4.326 -0.0204 -0.5052 -0.0508
30462WAT     H123653   5.216   6.648   4.274  0.2034 -1.1040  0.3772
30462WAT     H223654   5.155   6.609   4.407 -0.4095  0.2870  0.5237
30462WAT    EPW23655   5.149   6.649   4.330 -0.0420 -0.4797  0.0815
30463WAT      O23656  -0.617   8.789   7.102 -0.0828  0.4135  0.0241
30463WAT     H123657  -0.532   8.778   7.060 -0.0333 -2.6095  0.7121
30463WAT     H223658  -0.597   8.792   7.196 -0.7566 -2.2269  0.3306
30463WAT    EPW23659  -0.603   8.788   7.109 -0.1651 -0.3338  0.1554
30464WAT      O23660   0.804   7.031   7.585  0.0790 -0.4654  0.2943
30464WAT     H123661   0.851   6.970   7.527  1.3269 -0.7386  1.5438
30464WAT     H223662   0.869   7.098   7.607 -0.5545 -0.0475  0.9079
30464WAT    EPW23663   0.819   7.032   7.580  0.1601 -0.4461  0.5400
30465WAT      O23664   3.122   1.137   3.540 -0.3854  0.2369  0.0981
30465WAT     H123665   3.027   1.143   3.553 -1.3132 -0.9553 -4.3866
30465WAT     H223666   3.146   1.053   3.579 -1.8445 -0.8166 -1.1361
30465WAT    EPW23667   3.112   1.127   3.547 -0.7002 -0.0593 -0.6562
30466WAT      O23668   1.989   3.700   2.175 -0.2024  0.2562  0.5701
30466WAT     H123669   1.910   3.741   2.139  0.5193 -0.1798 -1.6445
30466WAT     H223670   2.005   3.746   2.257 -1.9966  1.2457  0.4119
30466WAT    EPW23671   1.981   3.711   2.181 -0.3439  0.3293  0.2571
30467WAT      O23672  -1.967   0.239   7.347  0.1980  0.5558 -0.7686
30467WAT     H123673  -2.025   0.195   7.409  0.6059 -1.4652 -1.7341
30467WAT     H223674  -1.879   0.222   7.381  0.4227 -0.5705 -1.8505
30467WAT    EPW23675  -1.963   0.231   7.360  0.2814  0.1407 -1.0388
30468WAT      O23676   2.866   0.120   6.072  0.3332 -0.7275 -0.5012
30468WAT     H123677   2.907   0.190   6.022 -1.9980 -1.0108 -3.0081
30468WAT     H223678   2.894   0.136   6.163  0.0636  3.3383 -0.9629
30468WAT    EPW23679   2.875   0.131   6.078 -0.0099 -0.2286 -0.8929
30469WAT      O23680   3.966   1.264   6.109 -0.2874 -1.0269 -0.6715
30469WAT     H123681   3.999   1.177   6.134  2.1817  0.3959  1.5573
30469WAT     H223682   4.044   1.318   6.103 -1.9210  2.0496  2.4373
30469WAT    EPW23683   3.980   1.260   6.112 -0.1770 -0.4335  0.0324
30470WAT      O23684   2.573   6.419   2.461 -0.3231 -0.4406 -0.2618
30470WAT     H123685   2.617   6.472   2.394  0.2308 -0.9252 -0.2847
30470WAT     H223686   2.495   6.470   2.484  1.3758  1.5641  1.4040
30470WAT    EPW23687   2.568   6.433   2.455 -0.0260 -0.2401 -0.0452
30471WAT      O23688   7.697   1.235   4.013 -0.4365 -0.8763 -0.0619
30471WAT     H123689   7.730   1.325   4.004 -1.3840 -0.4321  0.6561
30471WAT     H223690   7.658   1.216   3.928 -0.6376 -0.4305 -0.0753
30471WAT    EPW23691   7.696   1.245   4.001 -0.5879 -0.7589  0.0312
30472WAT      O23692  -3.330   5.734   6.207  0.3273 -0.1582 -0.3517
30472WAT     H123693  -3.370   5.656   6.246  1.4612 -0.8167 -0.4638
30472WAT     H223694  -3.295   5.782   6.282 -3.1842  2.0302  0.1454
30472WAT    EPW23695  -3.331   5.730   6.222  0.0138  0.0434 -0.3009
30473WAT      O23696  -2.866   0.764   5.091 -0.5096 -0.3493  0.3085
30473WAT     H123697  -2.773   0.744   5.105 -0.8311 -0.5987  2.3573
30473WAT     H223698  -2.872   0.859   5.105 -0.8702 -0.6313  2.2309
30473WAT    EPW23699  -2.854   0.774   5.094 -0.5995 -0.4194  0.8323
30474WAT      O23700  -0.313   4.247   8.009  0.0697  0.2776  0.1208
30474WAT     H123701  -0.366   4.199   8.074  1.3464 -0.4460  0.6759
30474WAT     H223702  -0.254   4.180   7.973 -0.9836  0.5499 -2.2211
30474WAT    EPW23703  -0.312   4.232   8.013  0.0992  0.2182 -0.1154
30475WAT      O23704   5.229   3.627   6.282 -0.0512 -0.1339 -0.3954
30475WAT     H123705   5.263   3.673   6.359 -1.2394 -0.7570  0.5486
30475WAT     H223706   5.293   3.558   6.266  0.5352  0.3958 -0.3579
30475WAT    EPW23707   5.242   3.624   6.290 -0.1304 -0.1462 -0.2661
30476WAT      O23708  -3.113   7.352   5.039  0.3277  0.2506 -0.3894
30476WAT     H123709  -3.046   7.284   5.052 -0.0001  0.0229  0.1317
30476WAT     H223710  -3.156   7.360   5.124 -0.2268  0.4879 -0.6891
30476WAT    EPW23711  -3.110   7.344   5.052  0.2112  0.2520 -0.3605
30477WAT      O23712   4.175   9.420   4.021 -0.3795 -0.3071 -0.1913
30477WAT     H123713   4.139   9.390   3.938  1.0630 -0.7914 -0.6537
30477WAT     H223714   4.099   9.421   4.080 -0.9997 -2.2173 -0.8818
30477WAT    EPW23715   4.160   9.416   4.018 -0.2711 -0.6227 -0.3431
30478WAT      O23716  -2.625   1.150   7.136 -0.0091 -0.3271 -0.1774
30478WAT     H123717  -2.643   1.226   7.191 -1.3899  0.8269 -2.0624
30478WAT     H223718  -2.607   1.187   7.049  2.0906 -2.0535 -0.5606
30478WAT    EPW23719  -2.625   1.165   7.132  0.0858 -0.4026 -0.4766
30479WAT      O23720   6.131   4.762   3.124 -0.1220 -0.7135  0.0121
30479WAT     H123721   6.202   4.715   3.169 -0.8939  0.0077  2.0831
30479WAT     H223722   6.141   4.853   3.152 -1.0661 -0.3660 -0.7321
30479WAT    EPW23723   6.142   4.767   3.134 -0.3481 -0.5724  0.1870
30480WAT      O23724   0.660   1.589   5.495  1.1140 -0.1851  0.1289
30480WAT     H123725   0.754   1.574   5.508  1.0844 -0.7454 -0.2955
30480WAT     H223726   0.618   1.538   5.564  1.0964 -0.4606 -0.0840
30480WAT    EPW23727   0.667   1.580   5.506  1.1078 -0.2954  0.0448
30481WAT      O23728   4.631   2.005   5.603  0.4609 -0.0793 -0.2105
30481WAT     H123729   4.558   2.012   5.542  0.4272 -4.7633 -1.0865
30481WAT     H223730   4.706   1.980   5.548  1.9512  1.3535  1.0589
30481WAT    EPW23731   4.632   2.002   5.588  0.6530 -0.5081 -0.1585
30482WAT      O23732   1.150   9.565   1.497 -0.3671  0.0258  0.1327
30482WAT     H123733   1.130   9.629   1.565  1.4496  1.7241 -0.8421
30482WAT     H223734   1.149   9.616   1.415  1.8060 -1.0184 -0.6042
30482WAT    EPW23735   1.147   9.580   1.495  0.1591  0.1121 -0.0930
30483WAT      O23736  -6.632   4.672   8.932 -0.4905  0.0206  0.6257
30483WAT     H123737  -6.589   4.754   8.907 -1.4100  1.0645  2.2627
30483WAT     H223738  -6.663   4.636   8.850  0.9134  0.7271 -0.2638
30483WAT    EPW23739  -6.630   4.678   8.918 -0.4270  0.2513  0.7243
30484WAT      O23740   2.718   6.364   6.615  0.0943 -0.2510 -0.1773
30484WAT     H123741   2.805   6.364   6.654 -0.0698 -1.4038  0.2171
30484WAT     H223742   2.670   6.431   6.663  0.9512  0.9039 -0.8790
30484WAT    EPW23743   2.723   6.373   6.626  0.1857 -0.2508 -0.2179
30485WAT      O23744  -1.999   8.893   1.442 -0.0427 -0.5234  0.3386
30485WAT     H123745  -1.935   8.963   1.457  2.8479 -2.9187  0.0273
30485WAT     H223746  -2.049   8.923   1.366  1.6924  0.8211 -0.3472
30485WAT    EPW23747  -1.997   8.906   1.434  0.5674 -0.6623  0.2071
30486WAT      O23748  -1.906   6.388   0.812  0.6673  0.0706 -0.0900
30486WAT     H123749  -1.862   6.421   0.734  1.6056  2.4600  1.3428
30486WAT     H223750  -1.836   6.346   0.863  0.7824  1.4442  0.9305
30486WAT    EPW23751  -1.891   6.387   0.808  0.8062  0.5670  0.2336
30487WAT      O23752  -0.405   2.433   7.760 -0.5100 -0.6843 -0.0945
30487WAT     H123753  -0.416   2.475   7.674 -1.7400 -0.7394  0.0177
30487WAT     H223754  -0.329   2.477   7.798 -1.5420  1.2327 -0.1299
30487WAT    EPW23755  -0.396   2.445   7.753 -0.8083 -0.4387 -0.0842
30488WAT      O23756   3.294   9.589   6.234  0.5600 -0.3052  1.3179
30488WAT     H123757   3.334   9.654   6.177 -0.0008  1.8137  3.2423
30488WAT     H223758   3.201   9.591   6.210  0.3556  0.4477  2.1710
30488WAT    EPW23759   3.287   9.598   6.223  0.4591  0.0734  1.6842
30489WAT      O23760   1.730   3.913   0.374  0.8327  0.0157  0.5959
30489WAT     H123761   1.680   3.919   0.455  0.7585 -1.4383  0.6827
30489WAT     H223762   1.778   3.830   0.381 -1.1482 -1.4942 -1.8705
30489WAT    EPW23763   1.729   3.903   0.385  0.5617 -0.3753  0.2820
30490WAT      O23764   6.554   1.454   4.101 -0.2635  0.0828  0.2841
30490WAT     H123765   6.621   1.396   4.138 -0.1935 -0.8242 -1.2115
30490WAT     H223766   6.602   1.508   4.038 -0.6644  0.5599  0.3818
30490WAT    EPW23767   6.569   1.453   4.098 -0.3073  0.0261  0.0999
30491WAT      O23768   1.144   7.241   3.611  0.5121  0.4600  0.2211
30491WAT     H123769   1.074   7.307   3.602 -1.0332 -1.3181 -1.9779
30491WAT     H223770   1.101   7.158   3.589  3.0561 -0.9000  0.0680
30491WAT    EPW23771   1.129   7.239   3.607  0.6438  0.0463 -0.0892
30492WAT      O23772  -3.426   1.731   5.841 -0.2002  0.2003 -0.2797
30492WAT     H123773  -3.446   1.641   5.815 -1.3152  0.9573 -2.2513
30492WAT     H223774  -3.330   1.734   5.846 -0.1635 -1.6751  2.2846
30492WAT    EPW23775  -3.416   1.719   5.838 -0.3424  0.0528 -0.2017
30493WAT      O23776  -5.139   8.693   6.367  0.1057 -0.2657 -0.4571
30493WAT     H123777  -5.070   8.629   6.352  1.5405  1.2690 -0.6749
30493WAT     H223778  -5.152   8.735   6.281 -4.0400 -3.1684 -1.5819
30493WAT    EPW23779  -5.132   8.690   6.353 -0.2520 -0.4458 -0.6340
30494WAT      O23780  -1.911   0.301   4.997 -0.8253  0.3022  0.0648
30494WAT     H123781  -1.895   0.238   5.068 -0.5681  0.8620  0.5018
30494WAT     H223782  -2.005   0.292   4.979 -0.8436 -0.0144  0.3032
30494WAT    EPW23783  -1.922   0.291   5.004 -0.7938  0.3342  0.1540
30495WAT      O23784  -4.072  10.255   5.180 -0.0450 -0.0488 -0.4549
30495WAT     H123785  -4.139  10.227   5.117  0.9019 -1.9960 -0.6859
30495WAT     H223786  -3.990  10.247   5.132  0.3941  2.6896 -0.2949
30495WAT    EPW23787  -4.070  10.250   5.165  0.1376  0.0553 -0.4644
30496WAT      O23788   1.718   3.383   8.283 -0.1722  0.8944 -0.2698
30496WAT     H123789   1.658   3.309   8.291 -0.2610  0.5730 -2.9899
30496WAT     H223790   1.718   3.423   8.370 -5.3017  1.6721 -0.3322
30496WAT    EPW23791   1.710   3.379   8.296 -0.8605  0.9546 -0.6366
30497WAT      O23792   6.332   3.556   2.134  0.1872  0.1399 -0.0935
30497WAT     H123793   6.419   3.570   2.170  0.0705 -0.4099  0.4110
30497WAT     H223794   6.273   3.576   2.207 -0.0763 -0.3410 -0.1742
30497WAT    EPW23795   6.335   3.561   2.149  0.1371  0.0038 -0.0376
30498WAT      O23796   7.774   4.961   2.276  0.7201 -0.7322  0.9046
30498WAT     H123797   7.704   4.945   2.213 -0.3258  1.2363  1.5019
30498WAT     H223798   7.849   4.912   2.241 -0.1828 -0.7357 -1.1712
30498WAT    EPW23799   7.775   4.952   2.263  0.4630 -0.4730  0.7097
30499WAT      O23800   1.958   0.404   7.680  0.0167 -0.6597  0.1429
30499WAT     H123801   1.865   0.389   7.663  0.0871 -0.8110 -0.1152
30499WAT     H223802   1.997   0.316   7.680  0.4792 -0.4888 -1.6366
30499WAT    EPW23803   1.951   0.390   7.678  0.0870 -0.6571 -0.1259
30500WAT      O23804  -4.767   7.530   7.536  0.6018  0.1326  0.2307
30500WAT     H123805  -4.828   7.545   7.609  0.3648  2.1231 -0.3321
30500WAT     H223806  -4.688   7.577   7.561  2.3727 -3.1236  1.3496
30500WAT    EPW23807  -4.765   7.538   7.549  0.8039 -0.0346  0.3040
30501WAT      O23808  -0.705   8.705   0.073 -0.7877  0.0496 -0.1103
30501WAT     H123809  -0.743   8.782   0.115  0.1267  0.9280 -0.8394
30501WAT     H223810  -0.738   8.707  -0.017  1.1331  1.0148 -0.8579
30501WAT    EPW23811  -0.714   8.716   0.067 -0.4137  0.2928 -0.3050
30502WAT      O23812  -6.165   6.851   7.639  0.7534 -0.1941 -0.2541
30502WAT     H123813  -6.126   6.770   7.670 -1.1972 -0.7684  0.8962
30502WAT     H223814  -6.171   6.906   7.717  0.5832  0.4228 -0.6921
30502WAT    EPW23815  -6.161   6.848   7.654  0.4735 -0.1886 -0.1600
30503WAT      O23816  -1.409   4.143   7.707  0.3844 -0.4044  0.2118
30503WAT     H123817  -1.393   4.218   7.764  0.9580 -0.0732 -0.3694
30503WAT     H223818  -1.478   4.093   7.752  0.9419 -0.2513  1.2782
30503WAT    EPW23819  -1.416   4.146   7.721  0.5336 -0.3405  0.2756
30504WAT      O23820  -6.116   7.873   6.347  0.0686  0.1776  1.1754
30504WAT     H123821  -6.062   7.905   6.419 -0.5202 -0.4893  1.9363
30504WAT     H223822  -6.133   7.781   6.369 -0.4474  0.0728  0.3824
30504WAT    EPW23823  -6.111   7.865   6.360 -0.0770  0.0756  1.1714
30505WAT      O23824   4.002   0.888   7.804  0.0213 -0.2634 -0.8138
30505WAT     H123825   3.990   0.880   7.709 -1.2519 -1.2573 -0.5964
30505WAT     H223826   3.955   0.813   7.840  1.2509 -0.3992  0.5664
30505WAT    EPW23827   3.994   0.877   7.796  0.0156 -0.4124 -0.6032
30506WAT      O23828   1.373   1.944   1.821  0.0047 -0.4038  0.3648
30506WAT     H123829   1.461   1.957   1.784  0.3138 -2.4832  0.2976
30506WAT     H223830   1.354   1.852   1.807 -2.3342  0.0574  0.1508
30506WAT    EPW23831   1.382   1.934   1.814 -0.2630 -0.6172  0.3278
30507WAT      O23832   5.016   4.709   3.005 -0.4266 -0.5716  0.4154
30507WAT     H123833   5.037   4.801   2.991 -2.2703  0.1096  1.7241
30507WAT     H223834   5.005   4.701   3.100  0.9710 -2.4667  0.4897
30507WAT    EPW23835   5.018   4.720   3.016 -0.4854 -0.7319  0.5978
30508WAT      O23836  -2.616   0.044   5.395  0.4301  0.5966  0.1677
30508WAT     H123837  -2.675   0.105   5.440 -0.4067  1.0850 -1.4754
30508WAT     H223838  -2.612  -0.033   5.452 -1.1970  0.8633  0.6939
30508WAT    EPW23839  -2.623   0.042   5.408  0.1053  0.6962  0.0205
30509WAT      O23840  -0.720   0.138   6.355  0.3825 -0.0435 -0.1252
30509WAT     H123841  -0.627   0.147   6.376  0.2782 -0.1192  0.3876
30509WAT     H223842  -0.721   0.093   6.270  0.8099 -0.1100 -0.0985
30509WAT    EPW23843  -0.708   0.133   6.346  0.4251 -0.0623 -0.0539
30510WAT      O23844   8.067   5.908   0.476  0.0714  0.0385 -0.1690
30510WAT     H123845   8.102   5.896   0.388 -0.2406  1.6942 -0.5521
30510WAT     H223846   7.977   5.874   0.471  0.1030 -0.0040 -0.4543
30510WAT    EPW23847   8.060   5.902   0.463  0.0343  0.2513 -0.2572
30511WAT      O23848  -1.462   0.533   5.224 -0.0680 -0.8202 -0.1649
30511WAT     H123849  -1.418   0.456   5.259  3.6558  0.9323 -0.4945
30511WAT     H223850  -1.463   0.595   5.297 -1.1387 -0.4589 -0.4671
30511WAT    EPW23851  -1.456   0.531   5.238  0.2819 -0.5414 -0.2482
30512WAT      O23852   7.863   0.894   0.039 -0.6218  0.1505 -0.1422
30512WAT     H123853   7.857   0.978  -0.007 -4.2249 -0.5005 -1.1113
30512WAT     H223854   7.806   0.903   0.115  0.6855 -0.7670  1.0150
30512WAT    EPW23855   7.855   0.906   0.043 -0.9246 -0.0563 -0.1174
30513WAT      O23856   2.523   7.267   2.156 -0.0024  0.2953 -0.2510
30513WAT     H123857   2.581   7.232   2.088 -0.6494  0.2215 -0.7714
30513WAT     H223858   2.443   7.214   2.150  0.3594 -0.5073  1.3663
30513WAT    EPW23859   2.520   7.256   2.146 -0.0402  0.1798 -0.1063
30514WAT      O23860  -4.615   3.368   6.200  0.2104 -0.3674 -0.4843
30514WAT     H123861  -4.584   3.320   6.123  0.0937 -1.6039  0.2075
30514WAT     H223862  -4.657   3.446   6.164 -0.1211 -1.0701 -1.7025
30514WAT    EPW23863  -4.617   3.372   6.185  0.1514 -0.6231 -0.5538
30515WAT      O23864  -5.134   7.677   8.473  0.2210 -0.3186  0.3777
30515WAT     H123865  -5.168   7.758   8.510  0.9977  0.4387 -0.5021
30515WAT     H223866  -5.130   7.616   8.547 -2.5628 -0.3265  0.6137
30515WAT    EPW23867  -5.138   7.680   8.488 -0.0439 -0.2198  0.2928
30516WAT      O23868   1.226   9.970   1.047  0.2088  0.3735 -0.3917
30516WAT     H123869   1.195   9.882   1.024  0.3198 -0.5845  2.7044
30516WAT     H223870   1.215  10.021   0.967 -0.2662 -2.3404 -2.1742
30516WAT    EPW23871   1.221   9.965   1.033  0.1608 -0.1111 -0.2184
30517WAT      O23872   0.668   5.285   0.294  0.2043 -0.2747  0.4134
30517WAT     H123873   0.618   5.225   0.350 -1.3903  0.3110 -0.3264
30517WAT     H223874   0.605   5.353   0.270  0.2424 -1.3723 -3.4856
30517WAT    EPW23875   0.653   5.286   0.298 -0.0010 -0.3421 -0.1985
30518WAT      O23876  -5.457   6.354   6.282  0.2400 -0.3524 -0.5673
30518WAT     H123877  -5.388   6.312   6.334 -0.2842 -1.6453 -0.8790
30518WAT     H223878  -5.410   6.411   6.222  1.1291 -1.8021 -1.3120
30518WAT    EPW23879  -5.442   6.356   6.281  0.2882 -0.7141 -0.7069
30519WAT      O23880   3.444   9.847   4.455 -0.4750 -0.3937  0.7732
30519WAT     H123881   3.451   9.854   4.550 -0.3227  1.7749  0.6533
30519WAT     H223882   3.526   9.806   4.428  0.3797  0.7848  1.4585
30519WAT    EPW23883   3.456   9.843   4.464 -0.3421  0.0477  0.8478
30520WAT      O23884   2.504  10.005   7.191  0.8927 -0.4145  0.3491
30520WAT     H123885   2.483   9.950   7.267  0.4628  0.5351  0.9310
30520WAT     H223886   2.496  10.095   7.223  1.1428 -0.0004 -0.7080
30520WAT    EPW23887   2.500  10.010   7.205  0.8689 -0.2346  0.2863
30521WAT      O23888  -2.457  10.153   0.480  0.2568  0.5513  0.2772
30521WAT     H123889  -2.466  10.113   0.393  3.1155 -0.5418  0.3802
30521WAT     H223890  -2.415  10.237   0.463  1.5640 -0.0102  0.6076
30521WAT    EPW23891  -2.452  10.158   0.466  0.8062  0.3333  0.3344
30522WAT      O23892   3.423   0.224   1.755  0.2607  0.6480 -0.7416
30522WAT     H123893   3.488   0.242   1.823 -0.5854  1.3731 -0.1050
30522WAT     H223894   3.436   0.131   1.734  0.5403  0.4046  0.4198
30522WAT    EPW23895   3.433   0.214   1.761  0.1860  0.7115 -0.5044
30523WAT      O23896   2.255   7.862   3.909  0.2024 -0.0777 -0.0885
30523WAT     H123897   2.185   7.915   3.945  0.0874  0.7933 -1.5191
30523WAT     H223898   2.219   7.827   3.827  0.8489 -1.0328  0.0118
30523WAT    EPW23899   2.241   7.864   3.903  0.2725 -0.0887 -0.2639
30524WAT      O23900   5.108   2.758   7.253  0.1856  0.4456 -0.8924
30524WAT     H123901   5.149   2.845   7.252 -1.3647  1.2192 -2.0134
30524WAT     H223902   5.151   2.711   7.181  0.6856  0.4509 -0.6002
30524WAT    EPW23903   5.119   2.763   7.243  0.0470  0.5484 -1.0016
30525WAT      O23904   2.780   8.941   0.797  0.0891  0.2838  0.1880
30525WAT     H123905   2.718   8.999   0.842  2.2684  3.0853 -0.1523
30525WAT     H223906   2.866   8.977   0.818  1.3915 -0.3103 -3.4315
30525WAT    EPW23907   2.783   8.953   0.806  0.5484  0.5751 -0.3343
30526WAT      O23908  -1.668   3.332   4.059 -0.3124  0.4018 -0.7652
30526WAT     H123909  -1.629   3.298   3.978  2.6030 -0.5521  0.9210
30526WAT     H223910  -1.601   3.388   4.097 -0.2305 -1.6587  2.5150
30526WAT    EPW23911  -1.654   3.335   4.053  0.0829  0.0042 -0.1104
30527WAT      O23912   5.200   2.120   1.718  0.1889  0.7778 -0.0168
30527WAT     H123913   5.175   2.088   1.631 -2.1866  0.4544  0.7087
30527WAT     H223914   5.250   2.200   1.701 -0.0419  0.6098 -1.6686
30527WAT    EPW23915   5.203   2.126   1.704 -0.1550  0.7129 -0.1389
30528WAT      O23916   1.625   5.472   2.055  0.0160  0.3002 -0.1019
30528WAT     H123917   1.710   5.445   2.023 -0.1998  0.9423 -1.2597
30528WAT     H223918   1.644   5.536   2.124  0.4676  0.5731 -0.4788
30528WAT    EPW23919   1.639   5.477   2.060  0.0471  0.4208 -0.3043
30529WAT      O23920   1.509   9.099   0.547  0.0200 -0.3147 -0.7319
30529WAT     H123921   1.459   9.023   0.576 -1.6827  0.5145 -1.3512
30529WAT     H223922   1.490   9.106   0.453 -1.2824  1.8376 -0.3694
30529WAT    EPW23923   1.500   9.090   0.538 -0.3764  0.0782 -0.7658
30530WAT      O23924  -1.214   6.048   3.914 -0.1340 -0.2036 -0.4025
30530WAT     H123925  -1.290   5.991   3.925  0.2353 -0.6172  0.0581
30530WAT     H223926  -1.233   6.124   3.968  0.5404 -1.0883  1.1441
30530WAT    EPW23927  -1.227   6.050   3.923  0.0037 -0.3748 -0.1378
30531WAT      O23928  -2.188   7.142   8.619  0.2079 -0.3595  0.1562
30531WAT     H123929  -2.170   7.094   8.539  3.6373 -0.6523  0.9369
30531WAT     H223930  -2.230   7.223   8.590 -3.1228 -2.4381 -1.3993
30531WAT    EPW23931  -2.191   7.146   8.605  0.2209 -0.6723  0.0544
30532WAT      O23932   6.089   3.199   1.747 -0.3901 -0.1182 -0.7303
30532WAT     H123933   6.045   3.234   1.825 -0.4270  1.4621 -1.4138
30532WAT     H223934   6.181   3.224   1.758 -0.0199 -1.5484 -0.3276
30532WAT    EPW23935   6.095   3.207   1.759 -0.3462 -0.0985 -0.7674
30533WAT      O23936  -0.651   9.288   0.035 -0.3485  0.1202  0.1212
30533WAT     H123937  -0.556   9.280   0.038 -0.3359  0.2996  0.2447
30533WAT     H223938  -0.679   9.223  -0.029 -0.2391 -0.7146  0.9071
30533WAT    EPW23939  -0.642   9.278   0.027 -0.3326  0.0336  0.2418
30534WAT      O23940   2.851   2.822   8.510 -0.2448 -0.0117  0.2639
30534WAT     H123941   2.789   2.819   8.583  0.6865  3.5025  1.3901
30534WAT     H223942   2.800   2.859   8.437  0.4506  3.5532  1.3869
30534WAT    EPW23943   2.836   2.826   8.510 -0.0303  0.9218  0.5603
30535WAT      O23944   6.366   9.424   1.602  0.1258 -0.6123 -0.5747
30535WAT     H123945   6.419   9.504   1.600  1.5122 -1.4721  0.1213
30535WAT     H223946   6.316   9.426   1.521 -0.1148  1.1110 -0.4177
30535WAT    EPW23947   6.366   9.435   1.591  0.2770 -0.4983 -0.4622
30536WAT      O23948   1.327   9.573   5.420  0.3407  0.3039  0.3886
30536WAT     H123949   1.389   9.603   5.487  0.1598 -0.2701  0.8220
30536WAT     H223950   1.336   9.478   5.420  0.7539  0.3261 -0.8217
30536WAT    EPW23951   1.337   9.565   5.429  0.3713  0.2308  0.2861
30537WAT      O23952  -1.603   8.681  -0.012 -0.3411 -0.1579 -0.3847
30537WAT     H123953  -1.671   8.728   0.036 -0.9644 -0.0280 -1.3706
30537WAT     H223954  -1.527   8.683   0.046 -0.1694  2.5372 -0.5804
30537WAT    EPW23955  -1.602   8.687   0.002 -0.4007  0.2146 -0.5405
30538WAT      O23956  -2.836   8.259   3.048  0.0673  0.0591 -0.0524
30538WAT     H123957  -2.930   8.278   3.045 -0.5254 -2.3316  1.1343
30538WAT     H223958  -2.807   8.294   3.132  0.9854  3.3956 -1.5926
30538WAT    EPW23959  -2.844   8.266   3.059  0.1103  0.1836 -0.0989
30539WAT      O23960  -3.299   4.387   5.002  0.0485  0.1500  0.5511
30539WAT     H123961  -3.383   4.371   4.958 -0.3330 -2.9536  2.1220
30539WAT     H223962  -3.317   4.369   5.094  2.0475  1.2747  1.2201
30539WAT    EPW23963  -3.313   4.383   5.008  0.2618 -0.1111  0.8466
30540WAT      O23964   0.007   7.400   7.913 -0.2130 -1.1045  0.2467
30540WAT     H123965  -0.030   7.488   7.926 -0.3999 -1.4418  2.5194
30540WAT     H223966   0.064   7.387   7.989  1.4406 -2.1849 -1.1013
30540WAT    EPW23967   0.010   7.410   7.925 -0.0196 -1.2915  0.3686
30541WAT      O23968  -3.353   5.269   8.930 -0.2321  0.2015  0.2153
30541WAT     H123969  -3.309   5.334   8.876 -2.0443  2.3498  1.1100
30541WAT     H223970  -3.407   5.321   8.990 -3.2695 -2.1472 -0.2327
30541WAT    EPW23971  -3.354   5.284   8.931 -0.8715  0.1750  0.2742
30542WAT      O23972   1.151   9.125   1.026  0.4224  0.1242  0.4476
30542WAT     H123973   1.141   9.136   0.931  2.0172 -1.2169  0.0803
30542WAT     H223974   1.102   9.198   1.063  0.0207  0.8744 -1.4111
30542WAT    EPW23975   1.143   9.136   1.018  0.5797  0.0467  0.1541
30543WAT      O23976   7.786   1.170  -0.002 -0.4423  0.2642 -0.0957
30543WAT     H123977   7.796   1.201   0.088  0.1698  0.0941 -0.1043
30543WAT     H223978   7.860   1.207  -0.049 -0.7290  0.3037 -0.5212
30543WAT    EPW23979   7.797   1.179   0.004 -0.3993  0.2470 -0.1531
30544WAT      O23980   0.079   7.558   7.528  0.1942 -0.1994 -0.3127
30544WAT     H123981  -0.014   7.533   7.525 -0.3515  1.7093 -2.3959
30544WAT     H223982   0.084   7.620   7.601 -0.4504  0.5486 -0.8820
30544WAT    EPW23983   0.067   7.563   7.537  0.0372  0.1512 -0.6628
30545WAT      O23984   2.772   0.945   7.877 -0.7065  0.6499  0.0512
30545WAT     H123985   2.757   0.852   7.894  2.3337  0.2088  0.7594
30545WAT     H223986   2.751   0.956   7.784 -0.7890 -0.7931 -0.1191
30545WAT    EPW23987   2.767   0.935   7.867 -0.3165  0.4014  0.1221
30546WAT      O23988  -2.564   2.754   7.996 -0.0760  0.3119  0.4839
30546WAT     H123989  -2.655   2.727   8.002 -0.1101  0.3721  0.2177
30546WAT     H223990  -2.564   2.846   8.021 -0.2703  0.6611 -0.7437
30546WAT    EPW23991  -2.576   2.763   8.001 -0.1061  0.3660  0.2871
30547WAT      O23992   3.520   8.786   4.596 -0.5153  0.3402 -0.1113
30547WAT     H123993   3.519   8.841   4.674 -1.2901 -1.0026  0.8844
30547WAT     H223994   3.608   8.796   4.559 -1.1244  3.5292 -0.9949
30547WAT    EPW23995   3.532   8.794   4.601 -0.6979  0.5836 -0.0966
30548WAT      O23996  -4.615   6.790   8.296 -0.4050  0.3116  0.3826
30548WAT     H123997  -4.582   6.702   8.276 -0.0122  0.7560 -1.0212
30548WAT     H223998  -4.583   6.808   8.384 -1.0500 -1.1996  0.9683
30548WAT    EPW23999  -4.607   6.780   8.305 -0.4382  0.1709  0.2751
30549WAT      O24000   1.518   8.357   3.773  0.3909 -0.6255  0.0451
30549WAT     H124001   1.550   8.285   3.719 -0.0141 -0.8178  0.0585
30549WAT     H224002   1.588   8.422   3.770  0.2175 -0.4750 -1.0052
30549WAT    EPW24003   1.532   8.356   3.766  0.3146 -0.6309 -0.0917
30550WAT      O24004  -4.413   2.445   8.465 -0.6160  0.3182 -0.2651
30550WAT     H124005  -4.503   2.414   8.462 -1.0751  1.1817  2.3891
30550WAT     H224006  -4.361   2.372   8.430 -2.0416 -1.6054  1.4433
30550WAT    EPW24007  -4.418   2.431   8.460 -0.8645  0.1783  0.3104
30551WAT      O24008   3.867   0.351   2.070 -0.2295 -0.2797 -1.0486
30551WAT     H124009   3.798   0.390   2.016 -1.8560  0.7689  1.6348
30551WAT     H224010   3.843   0.259   2.075  1.3306 -0.9977 -3.9745
30551WAT    EPW24011   3.854   0.344   2.063 -0.2383 -0.2361 -1.0806
30552WAT      O24012  -3.467   6.809   8.525  0.6829  0.0306 -0.1739
30552WAT     H124013  -3.538   6.750   8.502 -0.0956  0.3824  1.1954
30552WAT     H224014  -3.394   6.784   8.468  0.4123 -2.2917  0.4197
30552WAT    EPW24015  -3.466   6.798   8.514  0.5445 -0.2294  0.0849
30553WAT      O24016   6.441   5.883   2.092 -0.3912  0.1730 -0.1792
30553WAT     H124017   6.418   5.883   2.185  0.3292 -1.8712  0.0301
30553WAT     H224018   6.534   5.905   2.090 -0.4356  0.3418 -0.4340
30553WAT    EPW24019   6.450   5.886   2.104 -0.3018 -0.0741 -0.1851
30554WAT      O24020   8.336   1.313   2.506 -0.0881 -0.3406 -0.1847
30554WAT     H124021   8.395   1.238   2.506 -0.4757 -0.7135  1.9626
30554WAT     H224022   8.297   1.312   2.593 -2.0053  0.8830 -0.9638
30554WAT    EPW24023   8.339   1.303   2.517 -0.3924 -0.2283 -0.0042
30555WAT      O24024  -3.522   2.385   7.211 -0.2350  0.7053  0.1151
30555WAT     H124025  -3.432   2.405   7.236 -0.7658  1.6730  1.4187
30555WAT     H224026  -3.534   2.428   7.127  0.6551  0.1350 -0.3233
30555WAT    EPW24027  -3.512   2.393   7.204 -0.1876  0.7577  0.2291
30556WAT      O24028   2.924   9.611   6.810 -0.3212 -0.1609 -0.2257
30556WAT     H124029   2.953   9.653   6.891  0.9078 -0.2228 -0.6134
30556WAT     H224030   2.993   9.631   6.746  0.5874 -3.0576 -0.3303
30556WAT    EPW24031   2.937   9.619   6.812 -0.0392 -0.5507 -0.2906
30557WAT      O24032   2.606   6.774   3.106 -0.1685  0.0080 -1.0021
30557WAT     H124033   2.668   6.782   3.178 -0.6243  2.0594 -0.7524
30557WAT     H224034   2.523   6.750   3.148 -0.4717  1.3591 -0.7672
30557WAT    EPW24035   2.603   6.772   3.121 -0.2686  0.4568 -0.9381
30558WAT      O24036   0.022   2.699   3.058 -0.4789  0.5011 -0.0111
30558WAT     H124037  -0.024   2.615   3.047  0.6611  0.0514 -1.7949
30558WAT     H224038   0.057   2.718   2.971 -0.7313  2.8709  0.3497
30558WAT    EPW24039   0.020   2.690   3.045 -0.3618  0.7544 -0.1988
30559WAT      O24040   8.024   0.406   3.128  1.4126  0.7304 -0.1569
30559WAT     H124041   7.975   0.462   3.068  1.5255  1.3778  0.3398
30559WAT     H224042   8.116   0.431   3.115  1.2760  2.8501  2.1614
30559WAT    EPW24043   8.030   0.417   3.119  1.4095  1.0954  0.2143
30560WAT      O24044   1.443   5.924   1.785  0.0551  0.4143  1.2344
30560WAT     H124045   1.441   5.868   1.863  1.3230  0.3176  1.2154
30560WAT     H224046   1.363   5.902   1.737  1.3081 -2.6651  0.3622
30560WAT    EPW24047   1.432   5.914   1.789  0.3877 -0.0045  1.1168
30561WAT      O24048  -4.636   4.778   4.873  0.0643  0.0747 -0.1433
30561WAT     H124049  -4.613   4.863   4.911 -0.0601 -0.7034  1.7613
30561WAT     H224050  -4.699   4.740   4.934  0.8586 -1.8198 -0.4277
30561WAT    EPW24051  -4.642   4.784   4.886  0.1526 -0.2778  0.0706
30562WAT      O24052   3.472   3.300   2.870 -0.2095  0.0715  0.0530
30562WAT     H124053   3.560   3.316   2.835 -0.7660  1.4131 -0.8362
30562WAT     H224054   3.481   3.307   2.965  0.9098 -1.2952  0.0646
30562WAT    EPW24055   3.485   3.303   2.878 -0.1352  0.0683 -0.0628
30563WAT      O24056   0.685   0.253   1.360  0.5635  0.3056 -0.5269
30563WAT     H124057   0.766   0.298   1.337  1.8011 -0.5236  1.8500
30563WAT     H224058   0.661   0.206   1.280  3.9503 -1.5721 -0.6633
30563WAT    EPW24059   0.693   0.252   1.347  1.1734 -0.0514 -0.2314
30564WAT      O24060   0.419   7.157   6.162 -0.0984 -0.2343 -0.4694
30564WAT     H124061   0.362   7.230   6.187 -1.9179 -1.3185 -1.3284
30564WAT     H224062   0.452   7.123   6.245  0.3809  1.1937 -0.0263
30564WAT    EPW24063   0.416   7.162   6.176 -0.2751 -0.1891 -0.5243
30565WAT      O24064  -2.133   7.373   1.823 -0.2135  0.9437  0.1038
30565WAT     H124065  -2.157   7.290   1.782  1.2889 -0.0167  1.0432
30565WAT     H224066  -2.211   7.427   1.817 -2.3531 -1.6300  2.2437
30565WAT    EPW24067  -2.146   7.369   1.817 -0.2975  0.4776  0.5099
30566WAT      O24068  -0.765   7.127   3.952  0.3811 -1.4195 -0.0940
30566WAT     H124069  -0.814   7.109   4.032 -2.8155  0.7805 -1.3572
30566WAT     H224070  -0.762   7.222   3.947  1.9246 -1.5086 -1.8200
30566WAT    EPW24071  -0.771   7.137   3.962  0.1630 -1.1411 -0.4883
30567WAT      O24072  -1.477   4.360   0.976 -0.0005  0.0577 -0.2489
30567WAT     H124073  -1.495   4.302   1.051  0.7831  1.0806  0.7712
30567WAT     H224074  -1.501   4.447   1.008 -0.2535  0.4324 -1.4250
30567WAT    EPW24075  -1.483   4.364   0.990  0.0695  0.2422 -0.2695
30568WAT      O24076   0.501   1.288   1.889  0.3980  0.1930 -0.8952
30568WAT     H124077   0.415   1.284   1.931  1.7819  2.3835  2.5991
30568WAT     H224078   0.557   1.333   1.952  3.8611  0.0487 -3.5242
30568WAT    EPW24079   0.497   1.293   1.903  1.0373  0.4629 -0.7811
30569WAT      O24080   6.297   0.883   5.626 -0.2046 -0.2326 -0.3642
30569WAT     H124081   6.275   0.934   5.704  1.1674 -0.0965 -0.0328
30569WAT     H224082   6.382   0.918   5.598 -0.9584  0.1412 -2.3003
30569WAT    EPW24083   6.306   0.895   5.633 -0.1230 -0.1653 -0.5758
30570WAT      O24084   3.509   9.357   2.748 -0.0343  0.1579 -1.0303
30570WAT     H124085   3.543   9.374   2.660  2.8672 -2.5148 -0.6073
30570WAT     H224086   3.570   9.404   2.806  0.1356 -0.8615 -0.3714
30570WAT    EPW24087   3.522   9.366   2.744  0.3707 -0.3295 -0.8875
30571WAT      O24088  -1.205   6.627   0.105  0.0924  0.0622  0.3312
30571WAT     H124089  -1.219   6.702   0.046 -2.6622 -1.0068 -0.5035
30571WAT     H224090  -1.236   6.552   0.056  0.1787 -1.2541  2.1908
30571WAT    EPW24091  -1.211   6.627   0.091 -0.2595 -0.2522  0.4664
30572WAT      O24092  -1.349   5.197   0.829  0.2218  0.2626  0.3640
30572WAT     H124093  -1.412   5.252   0.783 -1.4972 -0.4721  1.6879
30572WAT     H224094  -1.300   5.258   0.884 -0.2047  0.7142  0.2520
30572WAT    EPW24095  -1.351   5.213   0.830 -0.0612  0.2253  0.5239
30573WAT      O24096  -1.015   3.791   7.866  0.2505 -1.0219 -0.0131
30573WAT     H124097  -1.057   3.713   7.902 -0.3899  0.1919  2.0069
30573WAT     H224098  -1.086   3.853   7.854  1.0770  0.1090  0.7785
30573WAT    EPW24099  -1.030   3.789   7.869  0.2750 -0.7126  0.3576
30574WAT      O24100  -0.578   5.657   4.170  0.2231  0.1108 -0.3177
30574WAT     H124101  -0.544   5.590   4.111  0.3718  2.5128 -3.2079
30574WAT     H224102  -0.673   5.647   4.166  0.2210  0.4052 -1.2172
30574WAT    EPW24103  -0.586   5.647   4.162  0.2424  0.4666 -0.8173
30575WAT      O24104  -5.259   5.951   5.509 -0.0390  0.3236  0.2392
30575WAT     H124105  -5.291   5.863   5.528  0.8524 -0.1378 -0.3417
30575WAT     H224106  -5.167   5.949   5.533 -0.4762  1.7407  2.2053
30575WAT    EPW24107  -5.251   5.939   5.514  0.0212  0.4497  0.4220
30576WAT      O24108  -0.843   4.195   0.771 -0.6214 -0.4234 -0.9125
30576WAT     H124109  -0.915   4.140   0.741 -1.2621  1.1151 -2.3597
30576WAT     H224110  -0.778   4.188   0.701  0.6891 -1.8031  0.3832
30576WAT    EPW24111  -0.844   4.186   0.758 -0.5330 -0.4025 -0.9325
30577WAT      O24112  -1.833   8.392   3.060  0.2756  0.6623  0.2498
30577WAT     H124113  -1.762   8.456   3.058  2.2368 -1.3891 -0.2375
30577WAT     H224114  -1.868   8.392   2.971 -1.9148  3.2064  0.9943
30577WAT    EPW24115  -1.828   8.400   3.048  0.2455  0.7272  0.2836
30578WAT      O24116   3.162   5.351   4.374  0.4710  0.0077  0.3648
30578WAT     H124117   3.215   5.428   4.356 -1.2795  0.5707 -3.2228
30578WAT     H224118   3.075   5.386   4.393 -1.0659 -0.8862 -3.9906
30578WAT    EPW24119   3.158   5.366   4.374  0.0374 -0.0360 -0.6828
30579WAT      O24120  -4.972   3.058   7.595  0.1803 -0.2207 -0.6476
30579WAT     H124121  -4.887   3.017   7.613 -0.3028 -0.7974  0.4384
30579WAT     H224122  -4.961   3.149   7.624  0.0953 -0.5877  0.6157
30579WAT    EPW24123  -4.959   3.065   7.601  0.1054 -0.3451 -0.3376
30580WAT      O24124  -4.145   3.654   6.834  0.5375  0.1389 -0.7365
30580WAT     H124125  -4.102   3.647   6.919  0.2549  1.0778 -0.5089
30580WAT     H224126  -4.237   3.637   6.852  0.2604  1.6237 -0.6088
30580WAT    EPW24127  -4.152   3.651   6.848  0.4637  0.4586 -0.6895
30581WAT      O24128   7.070   5.665   0.586 -1.0285 -0.6847  0.6032
30581WAT     H124129   7.018   5.637   0.661 -1.8144 -0.0021  0.3282
30581WAT     H224130   7.044   5.606   0.515 -0.3770 -1.2501  0.8227
30581WAT    EPW24131   7.060   5.653   0.586 -1.0462 -0.6692  0.5959
30582WAT      O24132   1.537  10.122   7.707 -0.3071  0.4504 -0.2676
30582WAT     H124133   1.534  10.143   7.800 -2.0488  1.1444 -0.4570
30582WAT     H224134   1.600  10.185   7.671  3.1575 -2.0675  0.9134
30582WAT    EPW24135   1.545  10.133   7.714 -0.0798  0.2098 -0.1366
30583WAT      O24136   2.586   5.331   0.579  0.3865  0.3985  0.4382
30583WAT     H124137   2.645   5.406   0.582 -1.3039  1.7636  1.9219
30583WAT     H224138   2.561   5.324   0.487  0.8344  1.4429  0.2181
30583WAT    EPW24139   2.591   5.340   0.567  0.2227  0.7164  0.6049
30584WAT      O24140  -0.018   0.189   3.002 -0.1386  0.6691  0.2231
30584WAT     H124141   0.045   0.183   2.931 -0.7683 -0.5242 -0.2624
30584WAT     H224142   0.012   0.264   3.054  2.4097 -0.5867  0.7354
30584WAT    EPW24143  -0.006   0.198   3.000  0.1144  0.3461  0.2266
30585WAT      O24144   0.423   6.831   7.574  0.3865 -0.5602  0.3075
30585WAT     H124145   0.502   6.777   7.583  0.2234 -0.8407  0.0777
30585WAT     H224146   0.455   6.921   7.578  1.0112 -0.6164 -1.9780
30585WAT    EPW24147   0.438   6.835   7.576  0.4474 -0.6046 -0.0243
30586WAT      O24148   4.346   3.507   8.461  0.6397  0.6203  0.3974
30586WAT     H124149   4.325   3.416   8.481 -0.0322  0.5194 -0.6904
30586WAT     H224150   4.279   3.558   8.507 -0.0636  0.4632 -0.4336
30586WAT    EPW24151   4.334   3.502   8.470  0.4582  0.5863  0.1440
30587WAT      O24152   2.809   6.304   3.288 -0.8505 -0.2638  0.6335
30587WAT     H124153   2.871   6.259   3.230 -1.7449  0.2648 -0.7713
30587WAT     H224154   2.841   6.284   3.376  1.6067  0.3802 -0.0189
30587WAT    EPW24155   2.821   6.295   3.292 -0.6444 -0.1092  0.3622
30588WAT      O24156   4.525   6.901   6.292  0.0281  0.2694 -0.4008
30588WAT     H124157   4.463   6.837   6.329  0.5546 -0.3295 -0.5322
30588WAT     H224158   4.492   6.918   6.204 -0.8244  1.1476  0.0757
30588WAT    EPW24159   4.513   6.895   6.285 -0.0148  0.3061 -0.3555
30589WAT      O24160   1.114   0.420   5.804  0.2054 -0.1901  0.3027
30589WAT     H124161   1.076   0.334   5.821  4.1780 -2.1429  0.5492
30589WAT     H224162   1.068   0.478   5.864 -1.8752 -2.3236  0.9547
30589WAT    EPW24163   1.103   0.416   5.814  0.4550 -0.7291  0.4213
30590WAT      O24164   6.515   4.183   0.738 -0.3575  1.1082  0.8446
30590WAT     H124165   6.496   4.268   0.699 -2.9976  0.9372  1.5535
30590WAT     H224166   6.587   4.200   0.798  0.4132  2.4124 -0.3960
30590WAT    EPW24167   6.522   4.197   0.741 -0.6042  1.2577  0.7745
30591WAT      O24168  -0.369   2.676   0.054 -0.3076 -0.0435  0.1721
30591WAT     H124169  -0.463   2.658   0.045 -0.4056  0.9457 -0.9932
30591WAT     H224170  -0.351   2.666   0.147 -1.8021  0.8341  0.5790
30591WAT    EPW24171  -0.379   2.672   0.065 -0.5176  0.2027  0.0721
30592WAT      O24172   3.583   2.193   5.414  0.0635  0.8620 -0.1456
30592WAT     H124173   3.663   2.230   5.451 -0.5516  2.4096 -0.3045
30592WAT     H224174   3.527   2.177   5.490  0.8719 -1.2297  0.0786
30592WAT    EPW24175   3.586   2.195   5.429  0.0890  0.7902 -0.1371
30593WAT      O24176   2.261   4.799   7.810  0.1059 -0.4413  0.1490
30593WAT     H124177   2.215   4.798   7.726  1.5058 -0.2256 -0.6459
30593WAT     H224178   2.310   4.717   7.811  2.5980  0.9212 -0.7318
30593WAT    EPW24179   2.261   4.788   7.799  0.6193 -0.2332 -0.0720
30594WAT      O24180   7.183   3.401   1.300  0.0088  0.1407  0.0499
30594WAT     H124181   7.275   3.374   1.304 -1.1263 -4.3968  1.1429
30594WAT     H224182   7.164   3.433   1.388  0.7446  2.5378 -0.5712
30594WAT    EPW24183   7.193   3.402   1.312 -0.0439 -0.1416  0.1121
30595WAT      O24184  -2.719   6.914   3.798 -0.3795  0.1280  0.1898
30595WAT     H124185  -2.654   6.983   3.809 -1.6439  1.4670 -0.3629
30595WAT     H224186  -2.803   6.958   3.811 -1.2534 -1.2054 -0.6482
30595WAT    EPW24187  -2.722   6.929   3.801 -0.6616  0.1285  0.0063
30596WAT      O24188   1.739   9.998   0.085  0.4859 -0.0045 -0.6369
30596WAT     H124189   1.810   9.944   0.118  2.6874  0.9227 -3.4080
30596WAT     H224190   1.780  10.083   0.067 -2.3673  2.0992  1.6987
30596WAT    EPW24191   1.754  10.002   0.087  0.3999  0.3953 -0.6944
30597WAT      O24192  -0.472   2.490   3.617 -0.3366 -0.3783 -0.1973
30597WAT     H124193  -0.487   2.403   3.580 -2.6424  0.1790 -0.7263
30597WAT     H224194  -0.403   2.477   3.682 -1.1895 -2.7625  0.3192
30597WAT    EPW24195  -0.465   2.477   3.621 -0.7532 -0.6193 -0.1990
30598WAT      O24196   7.320   1.402   4.015  0.0835 -0.4220 -0.3940
30598WAT     H124197   7.377   1.439   4.082 -1.1043 -1.2828  1.1623
30598WAT     H224198   7.299   1.476   3.958  2.8882 -0.1204 -1.1965
30598WAT    EPW24199   7.325   1.417   4.016  0.2968 -0.4958 -0.2944
30599WAT      O24200   0.106   0.909   2.128 -0.0121  0.0708 -0.1225
30599WAT     H124201   0.012   0.915   2.111 -0.5734  0.2004  2.6128
30599WAT     H224202   0.141   0.992   2.096 -1.3209  1.2643  1.3629
30599WAT    EPW24203   0.098   0.920   2.121 -0.2588  0.2453  0.4342
30600WAT      O24204   1.183   1.606   7.476  0.7294 -1.2115 -0.6092
30600WAT     H124205   1.101   1.628   7.431  0.5597 -1.0750 -0.2339
30600WAT     H224206   1.229   1.548   7.415  1.1612  0.1104 -1.5967
30600WAT    EPW24207   1.178   1.601   7.462  0.7640 -1.0191 -0.6900
30601WAT      O24208   4.621   5.509   0.168  0.4014 -0.2217  0.0777
30601WAT     H124209   4.594   5.489   0.258  0.1782 -0.1395  0.0291
30601WAT     H224210   4.627   5.605   0.166 -0.3908 -0.1730 -0.2221
30601WAT    EPW24211   4.618   5.519   0.180  0.2673 -0.2046  0.0317
30602WAT      O24212   6.490   1.613   5.012  0.3314  0.1504  0.1889
30602WAT     H124213   6.491   1.526   5.051 -0.7703 -0.6165 -1.3461
30602WAT     H224214   6.476   1.673   5.085 -0.8242 -1.1326  1.0773
30602WAT    EPW24215   6.488   1.610   5.026  0.0336 -0.1200  0.1035
30603WAT      O24216   6.536   4.333   4.428  0.1801 -0.1653 -0.0983
30603WAT     H124217   6.541   4.355   4.335  1.5671  0.0330 -0.0106
30603WAT     H224218   6.501   4.412   4.470  0.2520  0.0086 -0.3682
30603WAT    EPW24219   6.532   4.346   4.422  0.3726 -0.1163 -0.1223
30604WAT      O24220  -2.749   1.954   4.040 -0.5421  0.7926  0.3733
30604WAT     H124221  -2.786   1.865   4.038  1.3551 -0.1497  2.2335
30604WAT     H224222  -2.815   2.006   4.086 -0.8064 -0.1834  1.1562
30604WAT    EPW24223  -2.762   1.949   4.046 -0.3266  0.5396  0.7219
30605WAT      O24224  -0.592   6.208   1.845 -0.2467 -0.4722  0.5669
30605WAT     H124225  -0.571   6.193   1.937 -2.3168  0.1364  1.1821
30605WAT     H224226  -0.551   6.135   1.799 -2.2874 -2.9656  2.4027
30605WAT    EPW24227  -0.584   6.196   1.851 -0.7889 -0.7207  0.8902
30606WAT      O24228  -0.359   9.269   2.639 -0.0539 -0.0769 -0.3800
30606WAT     H124229  -0.350   9.213   2.561 -0.3505  0.7153 -0.9995
30606WAT     H224230  -0.291   9.335   2.629 -1.0496  0.9361 -0.7755
30606WAT    EPW24231  -0.349   9.270   2.627 -0.2243  0.1607 -0.5138
30607WAT      O24232  -0.115   7.026   4.275  0.0952 -0.0398  0.0510
30607WAT     H124233  -0.156   7.113   4.278 -0.7836 -0.4471  3.0917
30607WAT     H224234  -0.188   6.965   4.272  0.6875 -0.7362 -0.7920
30607WAT    EPW24235  -0.130   7.030   4.275  0.0574 -0.1855  0.3409
30608WAT      O24236   1.825   9.187   4.901 -0.8393  0.5198 -0.0111
30608WAT     H124237   1.733   9.203   4.921 -1.2215 -0.6003 -0.7694
30608WAT     H224238   1.862   9.154   4.984 -1.1677  0.7704  0.2378
30608WAT    EPW24239   1.818   9.185   4.915 -0.9330  0.4053 -0.0784
30609WAT      O24240   8.470   0.802   1.988  0.4055 -0.6269 -0.3628
30609WAT     H124241   8.468   0.731   2.053 -2.0025 -3.1179 -2.8460
30609WAT     H224242   8.554   0.792   1.945 -0.4542 -3.1525 -1.6685
30609WAT    EPW24243   8.481   0.791   1.991 -0.0253 -1.2886 -0.8625
30610WAT      O24244   0.179   8.205   3.374 -1.0215  0.2812 -0.3806
30610WAT     H124245   0.262   8.164   3.398 -0.7882  0.3388 -1.0699
30610WAT     H224246   0.174   8.282   3.430 -0.5426  0.3557 -0.4333
30610WAT    EPW24247   0.190   8.210   3.384 -0.9276  0.2980 -0.4785
30611WAT      O24248   1.917   6.257   4.445 -0.3595 -0.0955  0.1917
30611WAT     H124249   1.967   6.244   4.364 -1.9263 -2.0636 -0.5475
30611WAT     H224250   1.965   6.325   4.492  1.1255  0.4613 -1.9608
30611WAT    EPW24251   1.930   6.265   4.440 -0.3703 -0.2818 -0.1895
30612WAT      O24252  -2.349   9.855   7.172  0.1469  0.4164 -0.0494
30612WAT     H124253  -2.272   9.806   7.201 -1.4227 -1.9073  0.4431
30612WAT     H224254  -2.313   9.923   7.115  2.7137  0.6611  1.6849
30612WAT    EPW24255  -2.334   9.857   7.168  0.2785  0.1421  0.2444
30613WAT      O24256  -7.977   9.642   7.657  0.1031  0.1460 -0.3563
30613WAT     H124257  -7.980   9.548   7.676 -0.9481  0.6347  2.3319
30613WAT     H224258  -7.949   9.682   7.740 -2.6108  2.4114 -0.3894
30613WAT    EPW24259  -7.973   9.635   7.671 -0.3936  0.5093 -0.0062
30614WAT      O24260  -7.966   9.266   8.935 -0.4638  0.0384 -0.0135
30614WAT     H124261  -7.892   9.313   8.897  0.1260 -0.9338 -0.0995
30614WAT     H224262  -8.041   9.323   8.919  0.6758  2.6262  2.9016
30614WAT    EPW24263  -7.966   9.280   8.928 -0.2358  0.2518  0.3600
30615WAT      O24264  -2.819   3.240   8.702 -0.2869  0.6174  0.3444
30615WAT     H124265  -2.755   3.288   8.649  1.3237 -3.3199 -1.6642
30615WAT     H224266  -2.902   3.251   8.656 -0.0551  1.7157  0.1608
30615WAT    EPW24267  -2.821   3.248   8.689 -0.0437  0.2431  0.0553
30616WAT      O24268  -6.537   5.055   7.889 -0.1125 -0.0462 -0.0140
30616WAT     H124269  -6.523   5.111   7.813  1.2588 -0.2310  0.0830
30616WAT     H224270  -6.602   4.991   7.860 -0.8414  0.8914 -0.4877
30616WAT    EPW24271  -6.544   5.054   7.876 -0.0279  0.0529 -0.0639
30617WAT      O24272   6.972   7.052   2.168 -0.0543 -0.2506  0.1704
30617WAT     H124273   7.015   6.977   2.126  1.3112  0.9428 -0.6132
30617WAT     H224274   6.894   7.014   2.209  0.8847 -2.2014  0.2674
30617WAT    EPW24275   6.967   7.037   2.168  0.2496 -0.3505  0.0798
30618WAT      O24276  -3.095   2.099   4.715 -0.3500  0.0430  0.1606
30618WAT     H124277  -3.044   2.072   4.791  0.4045 -1.8928 -0.9405
30618WAT     H224278  -3.178   2.131   4.750  0.6822  0.9523  1.8599
30618WAT    EPW24279  -3.099   2.100   4.729 -0.1143 -0.0924  0.2396
30619WAT      O24280  -0.190   0.367   1.290 -0.0596 -0.2777 -0.2272
30619WAT     H124281  -0.267   0.360   1.233 -0.2108  3.4957 -0.7202
30619WAT     H224282  -0.117   0.385   1.231  0.1012  1.9204  0.5515
30619WAT    EPW24283  -0.191   0.368   1.275 -0.0583  0.5099 -0.1895
30620WAT      O24284   1.995   3.218   5.301 -0.3233  0.4512 -0.5904
30620WAT     H124285   1.931   3.168   5.352 -1.4447  2.7486  0.3662
30620WAT     H224286   1.946   3.247   5.224 -0.0825  1.1892 -0.4658
30620WAT    EPW24287   1.980   3.215   5.297 -0.4395  0.8515 -0.4478
30621WAT      O24288   3.708   3.494   3.985  0.3804  0.5663  0.6331
30621WAT     H124289   3.798   3.482   3.954 -0.0895  0.8503 -0.9304
30621WAT     H224290   3.654   3.463   3.913 -0.7979 -0.0208  1.7236
30621WAT    EPW24291   3.713   3.488   3.972  0.1630  0.5264  0.5708
30622WAT      O24292  -0.237   2.030   1.924 -0.1786 -0.9089 -0.2161
30622WAT     H124293  -0.186   2.064   1.850  1.4067  0.3668  1.3528
30622WAT     H224294  -0.219   1.936   1.925  1.9043 -0.5565  0.0312
30622WAT    EPW24295  -0.228   2.022   1.914  0.3052 -0.6942  0.0234
30623WAT      O24296  -4.933   7.769   7.945  0.8144  0.3067  0.6048
30623WAT     H124297  -4.900   7.763   8.034 -0.9107 -0.0750  1.2589
30623WAT     H224298  -4.859   7.802   7.894  1.4603  1.7920  2.3944
30623WAT    EPW24299  -4.919   7.773   7.950  0.6721  0.4523  0.9270
30624WAT      O24300   1.075   3.415   1.272  0.3973 -0.8738  0.5238
30624WAT     H124301   1.123   3.346   1.227 -0.6259 -0.7391 -0.8418
30624WAT     H224302   1.003   3.370   1.317 -2.7452 -0.5345 -3.6014
30624WAT    EPW24303   1.071   3.400   1.272 -0.1521 -0.8113 -0.2004
30625WAT      O24304   0.434   9.898   7.881  0.6977  0.1440 -0.1504
30625WAT     H124305   0.529   9.914   7.877  0.8431 -0.5227  0.4670
30625WAT     H224306   0.409   9.927   7.969  0.3185  0.3635 -0.3306
30625WAT    EPW24307   0.443   9.904   7.892  0.6669  0.0854 -0.0927
30626WAT      O24308   1.093   5.224   5.635  0.1314 -0.2895  0.6192
30626WAT     H124309   1.089   5.233   5.730 -2.1568 -2.3062  0.8117
30626WAT     H224310   1.082   5.313   5.602 -1.1318  0.1911  2.2364
30626WAT    EPW24311   1.091   5.237   5.643 -0.3371 -0.4919  0.8578
30627WAT      O24312  -1.796   4.117   6.117  0.4055  0.0531  0.1353
30627WAT     H124313  -1.888   4.102   6.093  0.8961 -1.7214 -0.7798
30627WAT     H224314  -1.786   4.070   6.200  0.0396  1.8785  1.2787
30627WAT    EPW24315  -1.807   4.108   6.125  0.4219  0.0596  0.1655
30628WAT      O24316  -1.119   1.199   8.958  0.2454 -0.2122 -0.3416
30628WAT     H124317  -1.025   1.189   8.943  0.2737 -1.4250  0.4705
30628WAT     H224318  -1.156   1.203   8.870  1.1136  1.1776 -0.6826
30628WAT    EPW24319  -1.111   1.198   8.944  0.3636 -0.1888 -0.2794
30629WAT      O24320   1.349   4.680   3.116 -0.4058 -0.1080 -0.8031
30629WAT     H124321   1.378   4.680   3.208 -0.5760 -0.1128 -0.7488
30629WAT     H224322   1.404   4.746   3.074 -2.9111  2.8438  0.1501
30629WAT    EPW24323   1.360   4.689   3.123 -0.7587  0.2809 -0.6701
30630WAT      O24324   1.788   5.483   7.222  0.6990  0.2044 -0.1783
30630WAT     H124325   1.809   5.390   7.216 -0.2894  0.0459 -1.3353
30630WAT     H224326   1.823   5.509   7.308  0.0197 -1.4731  0.6538
30630WAT    EPW24327   1.796   5.474   7.233  0.4790 -0.0379 -0.2213
30631WAT      O24328  -2.470   8.543   4.076  0.6409  0.1850 -0.0437
30631WAT     H124329  -2.493   8.550   4.168 -5.0038 -1.7092 -0.9183
30631WAT     H224330  -2.524   8.608   4.032  2.0730  0.0252 -2.2280
30631WAT    EPW24331  -2.480   8.552   4.082  0.0852 -0.0858 -0.4473
30632WAT      O24332   5.346   0.066   0.618  0.5024  0.3480  0.7312
30632WAT     H124333   5.313  -0.001   0.678 -0.1881  1.7593  2.0094
30632WAT     H224334   5.269   0.117   0.595  1.4779  3.0810  2.9629
30632WAT    EPW24335   5.331   0.064   0.623  0.5400  0.8946  1.1942
30633WAT      O24336   2.557   4.636   7.379  0.0884  0.1176 -0.0798
30633WAT     H124337   2.622   4.692   7.335 -0.1887  0.5510  0.0490
30633WAT     H224338   2.539   4.567   7.316 -2.3053  2.1652 -1.8560
30633WAT    EPW24339   2.564   4.634   7.365 -0.2638  0.4449 -0.2973
30634WAT      O24340   0.083   4.735   1.611  0.1898 -0.0488  0.1054
30634WAT     H124341   0.141   4.796   1.566  3.2280 -1.9757  1.0618
30634WAT     H224342   0.118   4.649   1.589 -0.2263 -1.2002  3.3649
30634WAT    EPW24343   0.095   4.732   1.602  0.5357 -0.4547  0.6615
30635WAT      O24344   0.879   9.325   7.051 -0.0378 -0.2595 -0.1551
30635WAT     H124345   0.943   9.384   7.091  1.4890 -0.6155 -1.8997
30635WAT     H224346   0.796   9.372   7.056  0.7946  1.2402  0.1651
30635WAT    EPW24347   0.876   9.339   7.057  0.2734 -0.1087 -0.3428
30636WAT      O24348  -0.220   8.655   1.609 -1.3105  0.2356  0.3224
30636WAT     H124349  -0.255   8.662   1.520  1.1456  0.0928 -0.7315
30636WAT     H224350  -0.290   8.688   1.664 -2.8897  0.4259 -1.6636
30636WAT    EPW24351  -0.234   8.660   1.604 -1.1948  0.2418 -0.0786
30637WAT      O24352  -1.306   7.394   0.346  0.5579  0.5138 -0.0283
30637WAT     H124353  -1.273   7.369   0.432  0.1852  0.2927  0.0551
30637WAT     H224354  -1.377   7.456   0.365 -0.9447 -1.1412 -0.0731
30637WAT    EPW24355  -1.311   7.399   0.360  0.3105  0.2663 -0.0232
30638WAT      O24356  -0.329   2.750   3.553 -0.1352 -0.3912  0.1796
30638WAT     H124357  -0.414   2.794   3.551 -0.3251 -0.7594  0.1173
30638WAT     H224358  -0.348   2.661   3.582  0.0972 -0.7637 -0.7778
30638WAT    EPW24359  -0.343   2.744   3.556 -0.1296 -0.4889  0.0452
30639WAT      O24360  -3.289   0.798   8.631 -0.1705 -0.4182 -0.9533
30639WAT     H124361  -3.355   0.734   8.658 -0.8477 -0.4086 -2.4683
30639WAT     H224362  -3.306   0.812   8.538  1.4956  0.1766 -1.2056
30639WAT    EPW24363  -3.300   0.792   8.622 -0.0402 -0.3385 -1.1864
30640WAT      O24364   1.525   9.164   7.020 -0.3689  0.5051  0.1619
30640WAT     H124365   1.583   9.125   7.086 -2.4569 -4.5316 -0.4758
30640WAT     H224366   1.441   9.175   7.065 -0.5299  1.8638 -0.4269
30640WAT    EPW24367   1.521   9.160   7.034 -0.6655  0.0196  0.0002
30641WAT      O24368  -0.163   5.158   4.955 -0.4915 -0.2407  0.8942
30641WAT     H124369  -0.207   5.242   4.942  0.8862  0.7398  2.1748
30641WAT     H224370  -0.177   5.137   5.048  0.9053 -0.3571  1.1036
30641WAT    EPW24371  -0.170   5.166   4.966 -0.1256 -0.1266  1.0908
30642WAT      O24372   3.135   3.404   7.382 -0.0812  0.5503  0.8880
30642WAT     H124373   3.046   3.370   7.375 -0.5915  1.7631  1.3448
30642WAT     H224374   3.188   3.339   7.335 -1.3206  0.3311 -0.2842
30642WAT    EPW24375   3.130   3.391   7.374 -0.3120  0.6814  0.7937
30643WAT      O24376   3.621   2.175   7.289  0.5886  0.5487  0.5995
30643WAT     H124377   3.635   2.083   7.266 -0.3280  0.8503 -1.4017
30643WAT     H224378   3.672   2.188   7.369  2.1194 -1.2511 -0.0163
30643WAT    EPW24379   3.630   2.165   7.297  0.6697  0.3511  0.2544
30644WAT      O24380   7.770   2.147   3.579  0.3600 -0.4624  0.1076
30644WAT     H124381   7.756   2.218   3.641  0.0365 -1.3322  1.0474
30644WAT     H224382   7.704   2.161   3.511 -0.4702 -0.5256  0.8843
30644WAT    EPW24383   7.760   2.158   3.578  0.2079 -0.5856  0.3340
30645WAT      O24384   3.637   1.321   4.259 -0.5530 -0.4619 -0.2886
30645WAT     H124385   3.717   1.270   4.274 -1.0963 -1.4514 -0.6399
30645WAT     H224386   3.661   1.385   4.192  0.1264 -0.2943  0.1077
30645WAT    EPW24387   3.650   1.323   4.252 -0.5351 -0.5703 -0.2828
30646WAT      O24388   2.621   8.734   1.139 -0.0340 -0.4689 -0.0698
30646WAT     H124389   2.665   8.651   1.152 -2.2634 -2.3146 -3.1435
30646WAT     H224390   2.605   8.766   1.228  3.0821 -1.9783  1.1853
30646WAT    EPW24391   2.625   8.728   1.153  0.0830 -0.9112 -0.3096
30647WAT      O24392   5.011   7.146   1.463  0.5265  0.1209 -0.3466
30647WAT     H124393   5.022   7.172   1.555  0.9326 -0.7736 -0.1344
30647WAT     H224394   4.946   7.076   1.465  2.7121 -2.0377 -0.3490
30647WAT    EPW24395   5.004   7.140   1.475  0.8683 -0.2818 -0.3189
30648WAT      O24396   1.759   4.417   0.975  0.8341  1.0578  0.6443
30648WAT     H124397   1.724   4.408   0.886  2.3676  1.4424 -0.0406
30648WAT     H224398   1.702   4.481   1.016  0.9339  1.9656 -0.5620
30648WAT    EPW24399   1.747   4.424   0.969  1.0495  1.2283  0.3949
30649WAT      O24400  -2.411   7.046   0.612 -0.2283  0.1684 -0.2114
30649WAT     H124401  -2.491   6.997   0.594 -0.0951  0.8749 -3.1600
30649WAT     H224402  -2.395   7.031   0.706 -2.5367 -1.8122 -0.0258
30649WAT    EPW24403  -2.419   7.037   0.622 -0.5153  0.0005 -0.5758
30650WAT      O24404   0.075   2.033   4.343 -0.3437  0.1971  0.4803
30650WAT     H124405   0.064   2.113   4.292  0.3461 -0.0918 -0.1458
30650WAT     H224406  -0.012   2.013   4.378 -0.5802  1.0408  0.3783
30650WAT    EPW24407   0.062   2.041   4.341 -0.2839  0.2702  0.3843
30651WAT      O24408   5.426   0.913   7.750  0.0945  0.4545 -0.1478
30651WAT     H124409   5.439   0.824   7.784  3.4115  0.4216 -1.0888
30651WAT     H224410   5.397   0.900   7.660 -2.0704  0.4260  0.5187
30651WAT    EPW24411   5.424   0.900   7.743  0.2465  0.4464 -0.1841
30652WAT      O24412   3.435   2.268   0.595 -0.1351 -0.3325  0.0866
30652WAT     H124413   3.506   2.204   0.605  0.2480 -0.2449 -1.6880
30652WAT     H224414   3.382   2.258   0.674  1.7372 -0.5222  1.3775
30652WAT    EPW24415   3.438   2.258   0.607  0.1624 -0.3459  0.0228
30653WAT      O24416   2.727   8.450   7.750  0.3424  0.1803 -0.2752
30653WAT     H124417   2.816   8.475   7.776 -0.3722  2.6106  0.0626
30653WAT     H224418   2.739   8.410   7.664  1.7159  1.3576 -0.6922
30653WAT    EPW24419   2.740   8.448   7.742  0.4293  0.6557 -0.2856
30654WAT      O24420  -3.787  10.179   1.994 -0.3223  0.1205  0.0604
30654WAT     H124421  -3.862  10.120   1.986 -1.3865  1.5824 -1.2130
30654WAT     H224422  -3.710  10.121   1.990 -1.3045 -1.5271  2.4137
30654WAT    EPW24423  -3.787  10.163   1.993 -0.5922  0.0958  0.2028
30655WAT      O24424  -5.533   1.985   8.215 -0.3397  1.0115 -0.6361
30655WAT     H124425  -5.615   1.965   8.169  0.4120 -1.6398 -0.9812
30655WAT     H224426  -5.467   1.987   8.147  0.3312 -0.0585 -0.0557
30655WAT    EPW24427  -5.535   1.982   8.200 -0.1521  0.5206 -0.6051
30656WAT      O24428  -1.988   3.139   6.515 -0.3147 -0.0802 -0.4827
30656WAT     H124429  -1.937   3.176   6.443 -0.4578  2.6703  0.6916
30656WAT     H224430  -1.931   3.149   6.592  0.5299 -4.4562 -0.3008
30656WAT    EPW24431  -1.974   3.146   6.516 -0.2222 -0.2946 -0.3037
30657WAT      O24432   4.222   2.590   5.571 -0.7827  0.3768 -0.2366
30657WAT     H124433   4.297   2.555   5.620 -2.9046 -3.5822  0.6713
30657WAT     H224434   4.256   2.604   5.482  0.9555 -1.9545 -0.0495
30657WAT    EPW24435   4.237   2.587   5.566 -0.8333 -0.4529 -0.0923
30658WAT      O24436   0.412   9.918   3.779 -0.3720  0.8425 -0.3227
30658WAT     H124437   0.364   9.975   3.839 -0.1241  1.3130 -0.5645
30658WAT     H224438   0.371   9.832   3.790 -0.2213  0.8745  0.6513
30658WAT    EPW24439   0.400   9.914   3.789 -0.3195  0.9084 -0.2261
30659WAT      O24440   3.064   0.580   3.929  0.3636 -0.2216 -0.5741
30659WAT     H124441   3.100   0.491   3.925 -1.2041 -0.8357 -1.7811
30659WAT     H224442   3.024   0.585   4.016 -1.7702 -1.6466 -1.4058
30659WAT    EPW24443   3.064   0.569   3.940 -0.1247 -0.4905 -0.8429
30660WAT      O24444   2.146   2.842   7.423 -0.6854  0.4474 -0.2072
30660WAT     H124445   2.164   2.888   7.505  2.1260  0.1550 -0.5690
30660WAT     H224446   2.052   2.823   7.427 -0.9306  1.7358  2.2433
30660WAT    EPW24447   2.136   2.845   7.434 -0.3469  0.5788  0.0684
30661WAT      O24448   1.373   7.255   2.319  0.5731  0.3458  0.4109
30661WAT     H124449   1.320   7.269   2.397 -1.0804 -1.0949 -0.3668
30661WAT     H224450   1.406   7.165   2.327 -1.0228 -0.4693 -1.2383
30661WAT    EPW24451   1.370   7.245   2.330  0.1445  0.0482  0.0908
30662WAT      O24452   0.863   3.094   7.277  0.5200 -0.1339  0.0931
30662WAT     H124453   0.822   3.018   7.235 -0.5643  0.6384 -0.2952
30662WAT     H224454   0.935   3.117   7.219  1.4422 -1.3997  0.6867
30662WAT    EPW24455   0.867   3.087   7.264  0.4986 -0.1990  0.1204
30663WAT      O24456   4.692   0.882   0.533  0.1481  0.2700  0.0337
30663WAT     H124457   4.707   0.951   0.468 -3.7451  2.4987  1.1614
30663WAT     H224458   4.725   0.919   0.615 -4.3569  2.3383  1.2021
30663WAT    EPW24459   4.698   0.896   0.536 -0.9596  0.8368  0.3366
30664WAT      O24460   6.137   3.818   0.643 -0.2210  0.4898  0.1126
30664WAT     H124461   6.115   3.773   0.724 -1.6842 -0.9780 -1.0392
30664WAT     H224462   6.055   3.819   0.593  0.8683  0.4998 -1.7538
30664WAT    EPW24463   6.123   3.812   0.647 -0.2704  0.2975 -0.2854
30665WAT      O24464  -3.343   9.185   6.286 -0.3314  0.3170  0.0094
30665WAT     H124465  -3.397   9.210   6.360 -0.5268 -3.2262  1.2201
30665WAT     H224466  -3.406   9.165   6.216 -0.2983  0.6907 -0.1320
30665WAT    EPW24467  -3.358   9.186   6.286 -0.3529 -0.1011  0.1504
30666WAT      O24468  -0.322   0.797   1.802 -0.0224  0.7022  0.0751
30666WAT     H124469  -0.290   0.812   1.713  1.9668  3.3537  1.0986
30666WAT     H224470  -0.281   0.715   1.829  0.4978  0.6009 -0.9771
30666WAT    EPW24471  -0.313   0.788   1.794  0.3086  1.0385  0.0713
30667WAT      O24472  -0.070  10.232   3.058  0.8231 -0.1396 -0.7388
30667WAT     H124473  -0.051  10.176   2.983  0.6678 -1.0939 -0.0856
30667WAT     H224474  -0.137  10.185   3.107  1.8752 -0.2168  0.7215
30667WAT    EPW24475  -0.076  10.218   3.055  0.9414 -0.2756 -0.4600
30668WAT      O24476   2.829   5.808   8.116  0.2241 -0.5863 -0.6516
30668WAT     H124477   2.808   5.719   8.090 -2.2139 -0.1335 -0.4428
30668WAT     H224478   2.793   5.816   8.204  0.5883  0.5475 -0.5905
30668WAT    EPW24479   2.822   5.797   8.124 -0.0494 -0.3772 -0.6156
30669WAT      O24480   2.339   4.283   5.512  0.6055 -0.3419 -0.7478
30669WAT     H124481   2.378   4.243   5.590  4.5556 -0.3140 -2.4582
30669WAT     H224482   2.306   4.367   5.542  4.5055  0.9091  0.5985
30669WAT    EPW24483   2.340   4.289   5.526  1.6408 -0.1733 -0.7956
30670WAT      O24484  -0.261   6.103   2.265  0.2205  0.2553  0.5381
30670WAT     H124485  -0.289   6.150   2.344 -2.2933 -1.3390  0.7069
30670WAT     H224486  -0.337   6.105   2.207  0.8677 -1.4264 -0.4506
30670WAT    EPW24487  -0.275   6.110   2.268 -0.0257 -0.1769  0.4301
30671WAT      O24488  -5.087   1.464   8.697 -0.4507  0.6507  0.1724
30671WAT     H124489  -5.111   1.373   8.717 -2.2660  1.2274  0.7680
30671WAT     H224490  -5.170   1.511   8.693  0.3610  2.0580 -1.4415
30671WAT    EPW24491  -5.101   1.458   8.699 -0.5829  0.9124  0.0381
30672WAT      O24492  -2.830   7.807   4.904 -0.4398  0.0897  0.5603
30672WAT     H124493  -2.737   7.803   4.925  0.3980  1.7353 -2.2927
30672WAT     H224494  -2.833   7.812   4.809 -3.4793  0.0875  0.5521
30672WAT    EPW24495  -2.818   7.807   4.894 -0.7302  0.3066  0.1831
30673WAT      O24496   4.385   4.534   1.232 -0.4124 -0.4652  0.0241
30673WAT     H124497   4.452   4.590   1.193 -0.5182 -1.4665 -1.6990
30673WAT     H224498   4.368   4.467   1.166 -2.0435 -1.1114  1.0310
30673WAT    EPW24499   4.392   4.532   1.218 -0.6413 -0.6826 -0.0704
30674WAT      O24500   2.350   1.777   2.084  0.5694  0.4831  0.2984
30674WAT     H124501   2.315   1.866   2.075  1.3717  1.0801  2.4830
30674WAT     H224502   2.437   1.781   2.046  1.5118  1.3122  2.3951
30674WAT    EPW24503   2.357   1.789   2.078  0.7994  0.6711  0.8631
30675WAT      O24504  -0.472   3.551   2.103 -0.6723 -0.5836 -0.1113
30675WAT     H124505  -0.403   3.516   2.158 -0.2325  0.8619  0.2906
30675WAT     H224506  -0.545   3.490   2.115 -0.9664  0.2258  2.9257
30675WAT    EPW24507  -0.473   3.538   2.111 -0.6531 -0.2861  0.3421
30676WAT      O24508   2.599   5.113   0.718  0.4754 -0.6998 -0.8197
30676WAT     H124509   2.685   5.081   0.690 -0.0753 -0.9079 -2.3833
30676WAT     H224510   2.574   5.176   0.651 -0.6933 -0.8151 -0.5137
30676WAT    EPW24511   2.607   5.117   0.706  0.2487 -0.7424 -0.9856
30677WAT      O24512   0.204   5.258   1.345 -0.2221  0.3667  0.1000
30677WAT     H124513   0.208   5.196   1.418 -0.6950  0.7907  0.4903
30677WAT     H224514   0.172   5.206   1.271 -0.6229  0.1444  0.4273
30677WAT    EPW24515   0.201   5.243   1.345 -0.3373  0.3934  0.1946
30678WAT      O24516  -7.066  10.108   5.849 -0.6261 -0.0353 -0.3696
30678WAT     H124517  -6.977  10.094   5.882 -1.2851 -1.7305  0.8304
30678WAT     H224518  -7.057  10.179   5.785  1.1351  1.7156  1.6697
30678WAT    EPW24519  -7.053  10.116   5.845 -0.4807 -0.0277  0.0577
30679WAT      O24520   1.448   1.710   4.248 -0.3627 -0.8052 -0.2286
30679WAT     H124521   1.506   1.711   4.172 -0.1299  3.1754 -0.2056
30679WAT     H224522   1.507   1.704   4.324 -0.3063 -0.8747 -0.2779
30679WAT    EPW24523   1.464   1.709   4.248 -0.3245 -0.2894 -0.2322
30680WAT      O24524   0.697   3.861   0.824 -0.0149 -0.3121 -0.2696
30680WAT     H124525   0.656   3.905   0.898 -4.4458 -0.2561 -2.4602
30680WAT     H224526   0.727   3.932   0.767  2.0172 -0.3604  0.6441
30680WAT    EPW24527   0.696   3.876   0.826 -0.3313 -0.3113 -0.4380
30681WAT      O24528  -1.053   8.141   0.518 -0.3110  0.0707  0.1594
30681WAT     H124529  -1.135   8.113   0.559 -1.6737  2.6669 -0.5421
30681WAT     H224530  -1.032   8.224   0.562  1.2470  0.1009 -0.5780
30681WAT    EPW24531  -1.061   8.148   0.529 -0.2852  0.4168 -0.0304
30682WAT      O24532  -3.207   1.296   5.256 -0.2158 -0.0892  0.6860
30682WAT     H124533  -3.120   1.328   5.280  0.0254 -0.7129  0.6840
30682WAT     H224534  -3.263   1.373   5.258  0.3487  0.3284  0.6455
30682WAT    EPW24535  -3.203   1.310   5.259 -0.1096 -0.1164  0.6807
30683WAT      O24536   0.324   8.343   2.120  0.1500 -0.1218  0.1788
30683WAT     H124537   0.362   8.378   2.039 -1.1055  1.5895  0.2917
30683WAT     H224538   0.295   8.419   2.169  1.2993 -1.0814  2.5301
30683WAT    EPW24539   0.325   8.357   2.116  0.1360 -0.0224  0.5038
30684WAT      O24540   5.181   6.285   5.789  0.1108 -0.1153  0.0999
30684WAT     H124541   5.116   6.269   5.722 -0.4003  0.4326  0.4635
30684WAT     H224542   5.241   6.349   5.751 -0.1242  0.1227  0.1327
30684WAT    EPW24543   5.181   6.291   5.775  0.0124 -0.0114  0.1521
30685WAT      O24544  -0.320   4.821   8.043 -0.5463  0.2843 -0.1067
30685WAT     H124545  -0.272   4.862   8.115 -0.5765 -2.5538  1.6722
30685WAT     H224546  -0.254   4.803   7.977  0.2232 -0.4260  0.8262
30685WAT    EPW24547  -0.305   4.824   8.044 -0.4487 -0.1836  0.2508
30686WAT      O24548   1.717   3.277   5.599  0.3101  0.8286 -0.7748
30686WAT     H124549   1.689   3.186   5.605  0.8382  0.5200 -2.5520
30686WAT     H224550   1.668   3.322   5.668  2.2419 -1.2848  2.2464
30686WAT    EPW24551   1.707   3.271   5.609  0.6345  0.5093 -0.6108
30687WAT      O24552   4.749   9.086   4.644 -0.2594 -0.1541  0.1421
30687WAT     H124553   4.815   9.151   4.668  2.5114 -2.6831 -0.0308
30687WAT     H224554   4.772   9.060   4.555 -1.3523 -1.2920  0.1640
30687WAT    EPW24555   4.761   9.091   4.635 -0.0381 -0.6380  0.1221
30688WAT      O24556   3.929   0.783   8.604 -0.1784 -0.3536  0.0798
30688WAT     H124557   3.836   0.782   8.626  0.2775  0.3349  2.2906
30688WAT     H224558   3.952   0.876   8.603  0.1507 -0.3918 -2.2855
30688WAT    EPW24559   3.920   0.795   8.607 -0.0750 -0.2678  0.0591
30689WAT      O24560   3.340   6.197   7.106  0.2454  0.1090 -0.0365
30689WAT     H124561   3.325   6.109   7.070 -0.1491  0.8646 -1.8132
30689WAT     H224562   3.411   6.233   7.052 -1.5000  1.9167 -1.2441
30689WAT    EPW24563   3.348   6.190   7.094 -0.0368  0.4470 -0.4303
30690WAT      O24564  -4.769   9.330   5.452  0.2892  0.6303  0.3482
30690WAT     H124565  -4.835   9.289   5.509  0.8342  0.3954  0.8258
30690WAT     H224566  -4.694   9.271   5.458  1.0268  1.6096  0.9049
30690WAT    EPW24567  -4.768   9.316   5.460  0.4582  0.7286  0.4845
30691WAT      O24568   2.263   7.932   1.657 -0.3726  0.4098  0.1719
30691WAT     H124569   2.270   8.025   1.678  0.1223  0.0162  1.9472
30691WAT     H224570   2.196   7.928   1.589 -0.0971  2.0877 -0.2561
30691WAT    EPW24571   2.255   7.944   1.651 -0.2711  0.5791  0.3496
30692WAT      O24572   4.913   0.380   2.042  0.4414  0.5712 -0.3752
30692WAT     H124573   4.854   0.397   1.969 -1.6044 -0.6149  0.8731
30692WAT     H224574   4.982   0.325   2.006 -0.2527  0.4222 -1.5115
30692WAT    EPW24575   4.914   0.375   2.028  0.0799  0.3951 -0.3605
30693WAT      O24576   2.826   4.734   5.272  0.1136  0.3744 -0.0552
30693WAT     H124577   2.732   4.752   5.266 -0.1377 -1.0926 -1.1237
30693WAT     H224578   2.867   4.807   5.225 -0.4892  0.9225  0.2505
30693WAT    EPW24579   2.819   4.746   5.265  0.0011  0.2532 -0.1557
30694WAT      O24580   4.603   1.554   6.930 -0.0097 -0.4675  0.3946
30694WAT     H124581   4.537   1.586   6.992  0.5889  0.0899  0.7617
30694WAT     H224582   4.625   1.631   6.877 -0.6636 -0.9825 -0.6689
30694WAT    EPW24583   4.597   1.568   6.931 -0.0169 -0.4619  0.3028
30695WAT      O24584   4.975   0.062   1.327  0.1861  0.4306 -0.1129
30695WAT     H124585   5.064   0.096   1.342 -0.6285  2.7548 -0.0448
30695WAT     H224586   4.979   0.022   1.240  1.5729 -0.6427  0.3988
30695WAT    EPW24587   4.987   0.061   1.317  0.2615  0.5956 -0.0365
30696WAT      O24588  -4.608   4.675   6.439  0.1171  0.3983  0.1789
30696WAT     H124589  -4.636   4.751   6.388 -0.2406  0.2549  0.1587
30696WAT     H224590  -4.569   4.616   6.375  0.6521  0.6810  0.2348
30696WAT    EPW24591  -4.606   4.677   6.424  0.1404  0.4168  0.1836
30697WAT      O24592   3.767   3.147   1.565  0.3911 -0.4719  0.2960
30697WAT     H124593   3.743   3.184   1.480  0.6018 -0.7802  0.0992
30697WAT     H224594   3.800   3.222   1.615  0.1349 -0.2639  0.1585
30697WAT    EPW24595   3.768   3.162   1.561  0.3850 -0.4851  0.2519
30698WAT      O24596  -3.049  10.274   7.891 -0.7043 -0.2542 -0.1292
30698WAT     H124597  -3.010  10.289   7.805  0.2543  0.1022  0.3559
30698WAT     H224598  -3.012  10.190   7.919 -1.0197 -0.3718 -0.0637
30698WAT    EPW24599  -3.039  10.265   7.883 -0.6195 -0.2227 -0.0565
30699WAT      O24600  -1.637   0.746   5.938  0.4671 -0.4274  0.4499
30699WAT     H124601  -1.579   0.729   6.012 -0.1427 -1.9102  0.6199
30699WAT     H224602  -1.720   0.773   5.978  0.9030  1.3965  0.2146
30699WAT    EPW24603  -1.641   0.748   5.953  0.4442 -0.3824  0.4413
30700WAT      O24604   4.952   3.031   6.495  0.4737  0.0348  0.6364
30700WAT     H124605   5.011   3.091   6.540  1.9952  0.8618 -2.2247
30700WAT     H224606   4.872   3.081   6.480  1.7594  1.5378 -1.7983
30700WAT    EPW24607   4.949   3.045   6.499  0.8438  0.3421 -0.0622
30701WAT      O24608   6.220   8.062   2.570 -0.7568  0.5303  0.3884
30701WAT     H124609   6.126   8.072   2.582 -1.0393  0.8495 -1.6836
30701WAT     H224610   6.255   8.150   2.587 -1.1015  0.9098 -0.7695
30701WAT    EPW24611   6.212   8.075   2.574 -0.8395  0.6223 -0.0376
30702WAT      O24612  -0.884   6.026   7.733 -0.2792  0.9145  0.1424
30702WAT     H124613  -0.853   5.937   7.718  1.2968  1.4164  0.2719
30702WAT     H224614  -0.805   6.080   7.734 -0.9693  2.0157  2.3517
30702WAT    EPW24615  -0.869   6.021   7.731 -0.1623  1.1261  0.4508
30703WAT      O24616  -5.902   7.475   8.289 -0.5396 -0.3870 -0.1544
30703WAT     H124617  -5.850   7.458   8.368  0.8504  0.5840 -0.8200
30703WAT     H224618  -5.987   7.503   8.322  0.3165  0.9444  1.0552
30703WAT    EPW24619  -5.906   7.477   8.304 -0.2434 -0.0837 -0.0825
30704WAT      O24620   1.180   7.725   5.949  0.5550  0.3473 -0.5957
30704WAT     H124621   1.168   7.651   6.009 -2.3608  0.4466 -0.9008
30704WAT     H224622   1.121   7.706   5.876  0.6745  2.3726 -1.2753
30704WAT    EPW24623   1.171   7.713   5.948  0.1862  0.6275 -0.7255
30705WAT      O24624   0.657   3.710   5.133  0.4815 -0.1691  0.4939
30705WAT     H124625   0.611   3.794   5.130 -0.1300 -0.5191 -0.3702
30705WAT     H224626   0.620   3.666   5.209  0.0442 -0.0801  0.3339
30705WAT    EPW24627   0.646   3.715   5.143  0.3432 -0.2035  0.3588
30706WAT      O24628   4.251   8.572   5.371 -0.3816 -0.5256  0.1661
30706WAT     H124629   4.276   8.479   5.367  0.0098 -0.4696  1.2107
30706WAT     H224630   4.174   8.577   5.313 -0.0449 -1.3698 -0.3890
30706WAT    EPW24631   4.244   8.560   5.363 -0.2854 -0.6294  0.2308
30707WAT      O24632   5.978   2.754   0.913  0.2563 -0.7268  0.3714
30707WAT     H124633   6.003   2.689   0.978 -2.0937 -3.1450 -0.9589
30707WAT     H224634   5.891   2.782   0.939  0.1864 -0.0646 -0.5284
30707WAT    EPW24635   5.970   2.749   0.925 -0.0629 -0.9583  0.0772
30708WAT      O24636  -5.926   3.941   8.571  0.3931 -0.1688 -0.1391
30708WAT     H124637  -5.912   3.871   8.508 -0.0146 -2.9276  2.5766
30708WAT     H224638  -5.952   4.017   8.518  1.3017 -1.8787 -3.2815
30708WAT    EPW24639  -5.927   3.942   8.556  0.4592 -0.7582 -0.1955
30709WAT      O24640   5.673   3.820   4.729  0.2482  0.0412  0.7104
30709WAT     H124641   5.656   3.751   4.793 -1.4748 -0.0468  0.2138
30709WAT     H224642   5.761   3.802   4.697 -0.1818 -1.9814  0.5416
30709WAT    EPW24643   5.682   3.809   4.733 -0.0358 -0.2371  0.6227
30710WAT      O24644   9.404   0.811   0.397  0.1272 -0.3829 -0.0853
30710WAT     H124645   9.411   0.907   0.390  0.5487 -0.4696 -0.9841
30710WAT     H224646   9.372   0.783   0.311  0.5731 -1.1072 -0.0194
30710WAT    EPW24647   9.400   0.820   0.384  0.2418 -0.4899 -0.1951
30711WAT      O24648   6.496   2.800   1.550  0.0365 -0.6919  0.1698
30711WAT     H124649   6.525   2.748   1.475 -0.2043 -1.7013  0.7565
30711WAT     H224650   6.420   2.753   1.585 -1.8921  1.4738 -0.8519
30711WAT    EPW24651   6.490   2.787   1.545 -0.2496 -0.5394  0.1124
30712WAT      O24652  -2.364   1.005   7.767  0.5020 -0.2903 -0.3890
30712WAT     H124653  -2.295   0.940   7.760  0.6536 -0.0152 -1.6439
30712WAT     H224654  -2.323   1.086   7.736 -0.3748 -0.1336 -1.1825
30712WAT    EPW24655  -2.350   1.007   7.762  0.4065 -0.2334 -0.6592
30713WAT      O24656   1.548   4.718   4.854 -0.1707 -0.0084  0.0372
30713WAT     H124657   1.507   4.772   4.787  1.4139  1.6402  0.3221
30713WAT     H224658   1.626   4.682   4.811 -0.3023 -0.7114  0.3666
30713WAT    EPW24659   1.553   4.720   4.840  0.0209  0.1163  0.1183
30714WAT      O24660   0.315   6.134   2.081 -0.3812  0.1537  0.0241
30714WAT     H124661   0.303   6.046   2.117  0.0331  0.5396  1.1624
30714WAT     H224662   0.401   6.131   2.039  0.4413  0.4708  1.5965
30714WAT    EPW24663   0.325   6.122   2.080 -0.2181  0.2463  0.3816
30715WAT      O24664   1.400   5.508   8.794  0.4521  0.0876  0.2404
30715WAT     H124665   1.328   5.446   8.787 -1.4561  2.1345  0.8570
30715WAT     H224666   1.388   5.550   8.879  2.7711  0.0982  0.6476
30715WAT    EPW24667   1.389   5.505   8.804  0.5063  0.3591  0.3753
30716WAT      O24668  -5.354   3.568   7.563  0.2845 -0.0451 -0.3029
30716WAT     H124669  -5.326   3.639   7.621  1.7762 -0.0822 -0.9229
30716WAT     H224670  -5.447   3.557   7.581  0.6150  0.2191  1.7778
30716WAT    EPW24671  -5.363   3.576   7.573  0.5248 -0.0153 -0.1101
30717WAT      O24672   0.555   2.401   6.267  0.2023  0.0431  0.5113
30717WAT     H124673   0.516   2.472   6.318  0.1438 -1.1673  2.2549
30717WAT     H224674   0.546   2.324   6.323  2.4269 -0.8728 -0.2680
30717WAT    EPW24675   0.549   2.400   6.281  0.4880 -0.2373  0.6387
30718WAT      O24676   9.351   2.341   0.648  0.2624  0.0926 -0.5465
30718WAT     H124677   9.266   2.362   0.687  0.2769  2.2246 -1.5452
30718WAT     H224678   9.406   2.317   0.723 -0.3990  1.6395  0.4919
30718WAT    EPW24679   9.347   2.341   0.663  0.1769  0.5779 -0.5413
30719WAT      O24680  -5.057   2.635   7.699 -0.0734  0.5453 -0.4860
30719WAT     H124681  -5.141   2.678   7.683 -0.6104 -1.1596 -2.7437
30719WAT     H224682  -5.080   2.549   7.734  0.8464  0.7785  0.7823
30719WAT    EPW24683  -5.071   2.629   7.701 -0.0229  0.3511 -0.6166
30720WAT      O24684  -0.621   5.314   5.514  0.3741 -0.5748  0.1538
30720WAT     H124685  -0.688   5.280   5.573 -1.6556 -1.4054 -2.4268
30720WAT     H224686  -0.538   5.283   5.550 -0.7438 -0.9927  2.5202
30720WAT    EPW24687  -0.619   5.306   5.527 -0.0410 -0.7396  0.1254
30721WAT      O24688  -2.676   1.124   5.856 -0.1108 -0.0482 -0.6274
30721WAT     H124689  -2.601   1.068   5.841 -0.4467 -0.2300 -1.6957
30721WAT     H224690  -2.639   1.208   5.882  0.4715 -0.0896 -1.3033
30721WAT    EPW24691  -2.662   1.128   5.858 -0.0782 -0.0777 -0.8576
30722WAT      O24692  -4.232   5.494   7.677 -0.1832  0.2282  0.5761
30722WAT     H124693  -4.284   5.435   7.622  1.1845 -0.0138 -0.5047
30722WAT     H224694  -4.289   5.513   7.752 -1.0537 -1.6023  0.4280
30722WAT    EPW24695  -4.247   5.489   7.680 -0.1178 -0.0453  0.4139
30723WAT      O24696   6.059   2.429   5.109 -0.3404  0.5287  0.1332
30723WAT     H124697   6.003   2.425   5.031  0.3485  0.4355 -0.3588
30723WAT     H224698   6.006   2.390   5.178 -0.4956 -0.5185 -0.5624
30723WAT    EPW24699   6.044   2.424   5.108 -0.2701  0.3783 -0.0234
30724WAT      O24700   3.913   0.333   4.465  0.1243  0.3106  0.6716
30724WAT     H124701   3.827   0.315   4.502 -0.4867  0.6553 -0.5238
30724WAT     H224702   3.936   0.253   4.417 -0.4368  0.8849 -0.6282
30724WAT    EPW24703   3.905   0.320   4.463 -0.0303  0.4318  0.3424
30725WAT      O24704  -3.323   9.155   0.258  0.3428  0.1977  0.0521
30725WAT     H124705  -3.267   9.204   0.318  0.2368  1.0843 -0.5693
30725WAT     H224706  -3.281   9.069   0.252  0.5904  0.2393  1.0512
30725WAT    EPW24707  -3.310   9.150   0.265  0.3616  0.3200  0.1019
30726WAT      O24708   0.561   7.237   7.809  0.0580 -0.1061 -0.2855
30726WAT     H124709   0.472   7.270   7.794  0.1222  0.1409 -0.1410
30726WAT     H224710   0.617   7.301   7.765  0.3739  1.6946  2.4314
30726WAT    EPW24711   0.556   7.250   7.801  0.1082  0.1638  0.0918
30727WAT      O24712  -3.039   3.627   3.599 -0.3569  0.1610  0.2812
30727WAT     H124713  -2.991   3.694   3.550  0.0725 -1.1671 -1.2517
30727WAT     H224714  -3.078   3.673   3.672  1.1331  1.7952  0.1223
30727WAT    EPW24715  -3.038   3.642   3.602 -0.1037  0.2015  0.0582
30728WAT      O24716   1.181   0.959   6.806 -0.3467 -0.2054  0.2626
30728WAT     H124717   1.148   0.922   6.888  0.3886 -0.0322  0.6500
30728WAT     H224718   1.147   0.901   6.738 -0.6971 -0.5414  0.7164
30728WAT    EPW24719   1.172   0.947   6.808 -0.2959 -0.2268  0.3738
30729WAT      O24720  -1.242   5.180   3.964 -0.3561  0.4082 -0.1798
30729WAT     H124721  -1.255   5.269   3.931 -1.6946  0.9151  1.4925
30729WAT     H224722  -1.318   5.132   3.932  0.3296 -0.1349 -1.0214
30729WAT    EPW24723  -1.254   5.186   3.955 -0.4421  0.4034 -0.0702
30730WAT      O24724   3.240   9.753   1.485 -0.1758  0.3054  0.1445
30730WAT     H124725   3.271   9.826   1.431 -0.8761  0.6489  0.1881
30730WAT     H224726   3.149   9.739   1.456 -0.5509  0.4759  1.2026
30730WAT    EPW24727   3.232   9.761   1.474 -0.3176  0.3729  0.2898
30731WAT      O24728  -1.596   6.882   7.224 -0.5447  0.2501  1.3742
30731WAT     H124729  -1.584   6.857   7.133 -0.7263  1.9118  0.8612
30731WAT     H224730  -1.572   6.804   7.274 -0.7361 -0.7866 -0.0889
30731WAT    EPW24731  -1.592   6.868   7.219 -0.5939  0.3328  1.1137
30732WAT      O24732  -1.923   4.433   8.209  0.3417  0.4264  0.3934
30732WAT     H124733  -1.829   4.450   8.209  0.5877 -0.2035 -3.0235
30732WAT     H224734  -1.963   4.520   8.216  1.3026  1.0942 -1.6921
30732WAT    EPW24735  -1.916   4.447   8.210  0.5009  0.4313 -0.3324
30733WAT      O24736  -7.533   8.149   7.969 -0.6942 -0.0347 -0.2486
30733WAT     H124737  -7.585   8.218   8.011 -0.8626 -0.0157 -0.4901
30733WAT     H224738  -7.555   8.069   8.018  0.7647  0.3503  1.1448
30733WAT    EPW24739  -7.542   8.147   7.981 -0.5240  0.0186 -0.0968
30734WAT      O24740   2.731   5.471   6.345 -0.2868 -0.3934 -0.4462
30734WAT     H124741   2.694   5.383   6.342 -2.5574  0.4980 -0.8835
30734WAT     H224742   2.700   5.507   6.428  0.6592 -0.0040 -0.2451
30734WAT    EPW24743   2.722   5.464   6.356 -0.4615 -0.2246 -0.4776
30735WAT      O24744  -3.986   9.496   7.507 -1.1050  0.0263  0.1631
30735WAT     H124745  -3.904   9.543   7.517 -0.0330 -1.7965  0.2635
30735WAT     H224746  -4.054   9.563   7.519  0.3157  2.0817 -2.2715
30735WAT    EPW24747  -3.984   9.511   7.510 -0.7763  0.0572 -0.1447
30736WAT      O24748  -1.448   3.901   6.415 -0.6123  0.9838 -0.0531
30736WAT     H124749  -1.460   3.993   6.391 -4.3564  0.6038 -0.2156
30736WAT     H224750  -1.461   3.853   6.334  1.5806  0.2143 -0.0255
30736WAT    EPW24751  -1.451   3.907   6.401 -0.8169  0.8322 -0.0708
30737WAT      O24752   7.009   7.384   1.429 -0.3719  0.8786 -0.3101
30737WAT     H124753   7.093   7.350   1.460 -0.7580 -0.3418 -0.5716
30737WAT     H224754   6.945   7.317   1.452 -1.5380  2.4061  1.1768
30737WAT    EPW24755   7.012   7.371   1.436 -0.5767  0.9191 -0.1485
30738WAT      O24756   0.058   8.163   6.739 -0.3016  0.2559  0.0859
30738WAT     H124757   0.134   8.219   6.754  0.2216  0.1773 -1.9291
30738WAT     H224758   0.017   8.154   6.825 -0.8571  4.3682  0.4588
30738WAT    EPW24759   0.062   8.169   6.752 -0.3059  0.7882 -0.1307
30739WAT      O24760   2.375   3.686   6.199 -0.2280 -0.5950  0.2572
30739WAT     H124761   2.424   3.768   6.190 -0.2948 -0.4937  0.7652
30739WAT     H224762   2.309   3.705   6.265 -1.2468 -0.5962 -0.7420
30739WAT    EPW24763   2.373   3.699   6.207 -0.3711 -0.5817  0.1924
30740WAT      O24764   2.906   6.895   4.657 -0.7531 -0.3576  0.9645
30740WAT     H124765   2.879   6.975   4.701 -2.2645  0.6239 -1.6100
30740WAT     H224766   3.002   6.898   4.659 -0.7691  0.4716  2.5814
30740WAT    EPW24767   2.915   6.906   4.663 -0.9546 -0.1187  0.8380
30741WAT      O24768   6.958   8.730   0.964 -0.2250  0.3682  0.4963
30741WAT     H124769   6.876   8.700   1.001 -0.7034  3.4285  2.1871
30741WAT     H224770   6.974   8.815   1.005  3.1761  0.4548 -0.6804
30741WAT    EPW24771   6.950   8.737   0.974  0.1607  0.7830  0.5642
30742WAT      O24772  -2.502   5.303   6.828 -0.1257 -0.4998 -0.5118
30742WAT     H124773  -2.487   5.383   6.778 -1.3378 -0.1827 -0.3830
30742WAT     H224774  -2.419   5.256   6.822  1.3555  1.7079  1.1533
30742WAT    EPW24775  -2.489   5.307   6.821 -0.0902 -0.1669 -0.2754
30743WAT      O24776  -3.335   5.535   8.470 -0.5882  0.1224  0.2900
30743WAT     H124777  -3.254   5.486   8.456 -1.4002 -1.8794  1.9358
30743WAT     H224778  -3.371   5.548   8.382  0.8879 -0.0507 -0.3693
30743WAT    EPW24779  -3.329   5.530   8.457 -0.5006 -0.1643  0.4201
30744WAT      O24780  -0.847   0.407   7.824 -0.5073 -0.1479  0.6687
30744WAT     H124781  -0.859   0.390   7.917 -0.1036  0.1545  0.7807
30744WAT     H224782  -0.752   0.415   7.813 -0.6348  1.8840  0.6314
30744WAT    EPW24783  -0.836   0.406   7.835 -0.4709  0.1600  0.6785
30745WAT      O24784   0.905   3.118   5.724 -0.7518  0.2853  0.7822
30745WAT     H124785   0.839   3.073   5.671  0.2128 -0.8395  0.4878
30745WAT     H224786   0.958   3.047   5.761 -0.5006  1.1127  2.0735
30745WAT    EPW24787   0.903   3.103   5.722 -0.5914  0.2460  0.9136
30746WAT      O24788   4.373   3.871   2.394 -0.2872 -0.1506 -0.0569
30746WAT     H124789   4.445   3.934   2.388 -1.0603  0.8697  0.8112
30746WAT     H224790   4.295   3.925   2.407 -0.8809 -1.2956  1.5817
30746WAT    EPW24791   4.372   3.886   2.395 -0.4675 -0.1670  0.2736
30747WAT      O24792   3.380   4.958   8.360  0.2267  0.4866  0.3335
30747WAT     H124793   3.417   5.037   8.399  0.7164 -0.0082  0.8899
30747WAT     H224794   3.448   4.892   8.370  1.9179  1.1078 -4.5598
30747WAT    EPW24795   3.394   4.959   8.367  0.5144  0.5033 -0.2384
30748WAT      O24796  -5.278  10.233   6.508 -0.1117 -0.3377  0.9094
30748WAT     H124797  -5.219  10.195   6.573  0.2066 -1.3387  0.0679
30748WAT     H224798  -5.220  10.272   6.443 -0.2441 -2.4898 -0.6279
30748WAT    EPW24799  -5.263  10.233   6.508 -0.0873 -0.7534  0.5956
30749WAT      O24800   2.632   4.052   2.180 -1.1229 -0.6745 -0.7957
30749WAT     H124801   2.597   4.033   2.267  0.3601 -1.6438 -0.3519
30749WAT     H224802   2.689   3.977   2.161 -0.9138 -0.1622 -2.3259
30749WAT    EPW24803   2.635   4.039   2.189 -0.8998 -0.7346 -0.9390
30750WAT      O24804   0.690   0.691   7.547  0.3242 -0.4382 -0.7139
30750WAT     H124805   0.658   0.601   7.539  2.8629 -1.3645 -1.7621
30750WAT     H224806   0.720   0.698   7.637 -0.3440 -0.4627 -0.4865
30750WAT    EPW24807   0.690   0.680   7.558  0.5710 -0.5636 -0.8221
30751WAT      O24808  -3.089   7.756   3.765 -0.3364 -0.5194 -0.1219
30751WAT     H124809  -3.089   7.740   3.860  0.5446 -1.1354 -0.2058
30751WAT     H224810  -3.054   7.675   3.728 -2.3106 -0.9567 -1.1269
30751WAT    EPW24811  -3.084   7.743   3.773 -0.4805 -0.6583 -0.2656
30752WAT      O24812  -1.900   5.156   2.075  0.0240 -0.1233 -0.8355
30752WAT     H124813  -1.931   5.246   2.077 -0.2525 -0.1934 -1.6572
30752WAT     H224814  -1.832   5.152   2.143 -0.1560  0.6218 -0.6043
30752WAT    EPW24815  -1.895   5.167   2.085 -0.0362 -0.0346 -0.9134
30753WAT      O24816  -3.104   0.518   6.990  0.1670 -0.6371  0.5399
30753WAT     H124817  -3.135   0.430   7.011 -0.7006 -0.0705  1.7626
30753WAT     H224818  -3.152   0.541   6.911  0.2940 -1.2019  0.2923
30753WAT    EPW24819  -3.115   0.509   6.982  0.0693 -0.6368  0.6688
30754WAT      O24820  -6.919   5.283   8.849  0.8265  0.1488  0.4221
30754WAT     H124821  -6.906   5.197   8.889 -0.4778 -0.2942 -0.0434
30754WAT     H224822  -6.987   5.324   8.902  1.5051  0.9420  0.6934
30754WAT    EPW24823  -6.927   5.277   8.861  0.7439  0.1950  0.3963
30755WAT      O24824  -3.431   7.893   7.806  0.3435  0.5364  0.1446
30755WAT     H124825  -3.394   7.825   7.751  2.9667  0.8385  1.3751
30755WAT     H224826  -3.423   7.859   7.895  0.0479  1.7066  0.6366
30755WAT    EPW24827  -3.425   7.880   7.811  0.6505  0.7308  0.3719
30756WAT      O24828   4.694   0.658   8.035  0.3690  0.2000 -1.0124
30756WAT     H124829   4.722   0.568   8.053 -0.0805  0.4267  1.1440
30756WAT     H224830   4.605   0.662   8.070  0.6509  1.6550 -0.3862
30756WAT    EPW24831   4.686   0.647   8.042  0.3469  0.4218 -0.6452
30757WAT      O24832  -0.528   6.126   2.147 -0.0141  0.4146 -0.3051
30757WAT     H124833  -0.588   6.096   2.216  1.8994 -0.8274  0.9248
30757WAT     H224834  -0.517   6.049   2.091  3.7537 -1.0151  2.0095
30757WAT    EPW24835  -0.535   6.112   2.149  0.7352  0.0625  0.1624
30758WAT      O24836   3.695   6.466   6.107 -0.6851  0.2330 -0.3747
30758WAT     H124837   3.690   6.554   6.145  4.1328 -0.0704  1.6555
30758WAT     H224838   3.646   6.410   6.168  4.4030  0.2414  4.6178
30758WAT    EPW24839   3.688   6.470   6.120  0.6214  0.1938  0.5515
30759WAT      O24840  -5.593   9.930   7.757 -0.4133  0.1919  0.5630
30759WAT     H124841  -5.595   9.882   7.675  5.0996 -0.4798  0.4409
30759WAT     H224842  -5.598   9.863   7.825 -0.6636  0.3187  0.6738
30759WAT    EPW24843  -5.594   9.915   7.755  0.2809  0.1206  0.5615
30760WAT      O24844   3.059   4.167   3.667 -0.8249 -0.0097 -0.7994
30760WAT     H124845   3.084   4.244   3.718 -1.0050 -0.5362  0.1117
30760WAT     H224846   2.964   4.177   3.654 -1.5293 -1.6503  2.1834
30760WAT    EPW24847   3.049   4.179   3.672 -0.9415 -0.2954 -0.2859
30761WAT      O24848   0.219   5.738   1.800  0.6317 -0.6711  0.2917
30761WAT     H124849   0.168   5.799   1.746  0.1405 -0.6949  0.7266
30761WAT     H224850   0.182   5.747   1.888  1.6920 -0.3227  0.7254
30761WAT    EPW24851   0.208   5.748   1.804  0.7068 -0.6285  0.4063
30762WAT      O24852   2.181   0.898   8.319  0.4876  0.0694  0.7442
30762WAT     H124853   2.214   0.851   8.243 -1.6711  1.4231 -1.1294
30762WAT     H224854   2.191   0.990   8.298 -0.3931  0.4847  1.9876
30762WAT    EPW24855   2.187   0.904   8.306  0.0867  0.3027  0.6609
30763WAT      O24856  -2.848   8.524   5.972 -0.0925 -0.7978 -0.1356
30763WAT     H124857  -2.761   8.550   6.001 -1.2920  2.0031  1.3572
30763WAT     H224858  -2.859   8.567   5.888  0.3249 -2.1316 -0.9120
30763WAT    EPW24859  -2.838   8.533   5.965 -0.1957 -0.6042 -0.0410
30764WAT      O24860   1.957   2.375   1.604 -0.0504  0.3223  0.3762
30764WAT     H124861   2.051   2.388   1.620  0.6493 -1.4062 -1.7234
30764WAT     H224862   1.952   2.357   1.510 -2.6822  1.6172  0.2042
30764WAT    EPW24863   1.969   2.374   1.594 -0.3052  0.2651  0.0765
30765WAT      O24864   0.131   0.469   2.236  0.3553 -0.2122  0.1497
30765WAT     H124865   0.205   0.416   2.266 -0.2445 -1.5953 -0.7460
30765WAT     H224866   0.157   0.498   2.149  1.4445  2.5408  1.2786
30765WAT    EPW24867   0.144   0.466   2.229  0.4198 -0.0315  0.1805
30766WAT      O24868   4.880   0.153   8.425  0.0596 -0.1253 -0.3975
30766WAT     H124869   4.937   0.152   8.349 -1.5970 -1.0546 -1.6961
30766WAT     H224870   4.820   0.226   8.409  0.4114  0.4202  0.6222
30766WAT    EPW24871   4.880   0.163   8.413 -0.1128 -0.1759 -0.4344
30767WAT      O24872  -0.935   8.089   6.875  0.5152 -0.0492  0.0636
30767WAT     H124873  -0.891   8.009   6.847 -3.8053 -2.4496 -0.6540
30767WAT     H224874  -0.964   8.130   6.794 -0.7179  0.0690  0.5501
30767WAT    EPW24875  -0.933   8.084   6.861 -0.2173 -0.3505  0.0331
30768WAT      O24876   2.859   1.712   1.576  0.0062 -0.9498 -0.1466
30768WAT     H124877   2.809   1.708   1.494  0.0365  2.1945 -0.4278
30768WAT     H224878   2.913   1.791   1.568  1.7246 -1.8012  2.0025
30768WAT    EPW24879   2.859   1.722   1.564  0.2369 -0.6474  0.0998
30769WAT      O24880   0.419   8.432   5.830  0.0007  0.6835 -0.0506
30769WAT     H124881   0.505   8.469   5.810  0.3509 -0.5899 -1.0511
30769WAT     H224882   0.438   8.358   5.888 -0.8108  2.8548  3.2330
30769WAT    EPW24883   0.433   8.427   5.835 -0.0602  0.8020  0.2506
30770WAT      O24884   3.272   7.581   0.539  0.0650 -0.3816 -0.9183
30770WAT     H124885   3.285   7.487   0.550 -1.0604 -0.6166 -1.4666
30770WAT     H224886   3.342   7.608   0.479  0.6756 -0.7669 -0.3947
30770WAT    EPW24887   3.283   7.572   0.533 -0.0030 -0.4632 -0.9215
30771WAT      O24888   8.620   0.402   2.664  1.3686  0.0657  0.0568
30771WAT     H124889   8.534   0.374   2.698  1.5231  0.8232  1.1093
30771WAT     H224890   8.605   0.415   2.570  1.0905 -2.7150 -0.3709
30771WAT    EPW24891   8.606   0.400   2.656  1.3523 -0.2012  0.1391
30772WAT      O24892   4.246   3.245   0.874  0.4934  0.3094 -0.2325
30772WAT     H124893   4.291   3.280   0.951  0.6920 -1.3510  0.4520
30772WAT     H224894   4.164   3.294   0.870 -1.5485 -2.2453  3.6068
30772WAT    EPW24895   4.241   3.256   0.884  0.2501 -0.2465  0.3642
30773WAT      O24896   5.362   6.391   4.738  0.2283 -0.3092 -0.4586
30773WAT     H124897   5.290   6.360   4.684 -0.9250  1.1566  0.1621
30773WAT     H224898   5.411   6.312   4.761 -2.2297 -1.6284  0.6142
30773WAT    EPW24899   5.359   6.377   4.734 -0.2480 -0.2899 -0.2353
30774WAT      O24900   0.452   2.092   2.887  0.3129  0.0397 -0.4334
30774WAT     H124901   0.382   2.046   2.839  0.7412  0.3572 -1.3803
30774WAT     H224902   0.408   2.126   2.965 -0.5407  0.0205 -0.8876
30774WAT    EPW24903   0.437   2.090   2.891  0.2568  0.0790 -0.6181
30775WAT      O24904  -1.325   7.093   3.236  0.4360  0.8901  0.4460
30775WAT     H124905  -1.397   7.151   3.264  0.4913  0.7094  0.9750
30775WAT     H224906  -1.356   7.056   3.153 -0.9478 -0.6641  1.5831
30775WAT    EPW24907  -1.339   7.096   3.229  0.2608  0.6614  0.6657
30776WAT      O24908  -5.274   4.649   7.588  0.0987  0.0342  0.5977
30776WAT     H124909  -5.298   4.588   7.658  0.6924  0.8656  1.5520
30776WAT     H224910  -5.180   4.664   7.601 -0.0141  1.0565  0.3107
30776WAT    EPW24911  -5.264   4.643   7.599  0.1621  0.2787  0.6857
30777WAT      O24912   3.167   2.867   0.432 -0.0713 -0.0789 -0.5412
30777WAT     H124913   3.189   2.912   0.351 -1.0437  0.3272 -0.5941
30777WAT     H224914   3.140   2.779   0.405  2.2060 -0.8977 -0.4062
30777WAT    EPW24915   3.166   2.861   0.418  0.1009 -0.1333 -0.5303
30778WAT      O24916  -0.220   1.563   7.383  0.2189  0.3909 -0.2573
30778WAT     H124917  -0.163   1.500   7.426  1.6971  2.3144  0.7469
30778WAT     H224918  -0.292   1.511   7.349 -0.1485 -1.4783  3.0175
30778WAT    EPW24919  -0.222   1.548   7.384  0.3654  0.3981  0.3073
30779WAT      O24920  -0.170   7.776   3.499  0.1497 -0.9947  0.3069
30779WAT     H124921  -0.162   7.733   3.414 -1.2617 -1.8378  0.5643
30779WAT     H224922  -0.176   7.869   3.479  0.6692 -1.1154 -0.4492
30779WAT    EPW24923  -0.169   7.783   3.485  0.0321 -1.1220  0.2410
30780WAT      O24924   2.130   8.887   1.233 -0.0315 -0.4022 -0.1953
30780WAT     H124925   2.182   8.934   1.298 -0.5902 -0.8129  0.5666
30780WAT     H224926   2.073   8.954   1.195 -2.5210 -0.7670  2.5498
30780WAT    EPW24927   2.130   8.902   1.237 -0.4334 -0.5045  0.2673
30781WAT      O24928   5.237   9.793   0.308  0.1843  0.0123 -0.2028
30781WAT     H124929   5.164   9.821   0.253  0.0680  1.9709  0.8651
30781WAT     H224930   5.263   9.708   0.271  0.2220  1.2538 -3.3357
30781WAT    EPW24931   5.231   9.785   0.296  0.1740  0.4344 -0.4752
30782WAT      O24932  -3.089   3.226   5.057  0.7839  0.3424 -0.3232
30782WAT     H124933  -3.087   3.246   4.964 -1.1358  0.9974 -0.2577
30782WAT     H224934  -3.080   3.130   5.061  1.4940  0.3628 -1.1206
30782WAT    EPW24935  -3.087   3.216   5.045  0.6243  0.4314 -0.4196
30783WAT      O24936   1.972   5.446   5.985 -0.1744 -0.6587  0.3981
30783WAT     H124937   1.925   5.502   5.924  0.3354  0.5540  1.0761
30783WAT     H224938   1.933   5.360   5.974 -3.7279  0.5469  2.0511
30783WAT    EPW24939   1.961   5.442   5.976 -0.5758 -0.3400  0.7057
30784WAT      O24940   1.871   0.464   6.525  0.6387 -0.3329 -0.1933
30784WAT     H124941   1.867   0.458   6.621 -1.6877  2.4345  0.0243
30784WAT     H224942   1.965   0.459   6.505  1.5332  2.1041  2.5989
30784WAT    EPW24943   1.883   0.463   6.535  0.4498  0.3535  0.2036
30785WAT      O24944   1.769   3.671   5.125 -0.1798 -0.2592 -0.7359
30785WAT     H124945   1.826   3.669   5.202  0.5117  1.4543 -1.1450
30785WAT     H224946   1.702   3.736   5.148  0.1328  0.3924 -1.6141
30785WAT    EPW24947   1.768   3.679   5.138 -0.0474  0.0528 -0.9058
30786WAT      O24948   2.568   3.581   1.828  0.5334 -0.6683  0.0330
30786WAT     H124949   2.611   3.594   1.744  0.2503  0.8129  0.1013
30786WAT     H224950   2.476   3.564   1.805  0.6240 -1.1596  0.0152
30786WAT    EPW24951   2.561   3.580   1.814  0.5081 -0.5378  0.0396
30787WAT      O24952  -7.400   8.023   8.836 -0.1255 -0.0662  0.9142
30787WAT     H124953  -7.366   8.075   8.909 -0.3502 -1.2748  1.9205
30787WAT     H224954  -7.323   8.005   8.782 -0.3924  3.3084 -0.8588
30787WAT    EPW24955  -7.385   8.027   8.839 -0.1903  0.2193  0.8130
30788WAT      O24956  -1.139   3.155   2.475  0.0787 -0.3258  0.1681
30788WAT     H124957  -1.122   3.184   2.564 -0.7513  1.8111 -0.3084
30788WAT     H224958  -1.234   3.156   2.467 -0.1113 -4.0585  0.2899
30788WAT    EPW24959  -1.149   3.159   2.486 -0.0558 -0.5362  0.1214
30789WAT      O24960   1.486   6.468   0.527 -0.0616  0.0108  0.5216
30789WAT     H124961   1.540   6.481   0.605 -0.5730  0.1163  0.8638
30789WAT     H224962   1.439   6.387   0.545  1.3141 -1.0796 -0.5563
30789WAT    EPW24963   1.487   6.459   0.540  0.0525 -0.1190  0.4246
30790WAT      O24964  -2.071   4.570   1.221 -0.6021  0.1263  0.5334
30790WAT     H124965  -1.985   4.535   1.245 -0.8807 -1.6031 -0.7143
30790WAT     H224966  -2.132   4.525   1.279 -0.7578  0.4658  0.6323
30790WAT    EPW24967  -2.068   4.559   1.232 -0.6593 -0.0570  0.3819
30791WAT      O24968   9.438   3.497   0.109  0.3613 -0.0547 -0.0721
30791WAT     H124969   9.421   3.405   0.089  2.1270 -0.6477  0.9278
30791WAT     H224970   9.501   3.525   0.042 -1.4756  1.0146 -1.4698
30791WAT    EPW24971   9.444   3.489   0.097  0.3519  0.0081 -0.1246
30792WAT      O24972  -2.701   0.193   6.342 -0.4948  1.0522 -0.0181
30792WAT     H124973  -2.648   0.156   6.413  0.9691  1.2641 -0.9556
30792WAT     H224974  -2.741   0.271   6.380 -1.0025  0.3004  1.0228
30792WAT    EPW24975  -2.699   0.199   6.356 -0.3687  0.9810 -0.0045
30793WAT      O24976   1.618   0.018   6.384  0.3491 -1.1400  0.4854
30793WAT     H124977   1.700   0.066   6.384  0.2205 -0.9201  0.8362
30793WAT     H224978   1.597   0.007   6.291  0.8898 -1.4013  0.3935
30793WAT    EPW24979   1.626   0.023   6.371  0.4035 -1.1455  0.5195
30794WAT      O24980   2.971   9.421   5.809  0.0515  0.1382  0.9437
30794WAT     H124981   3.001   9.343   5.854 -0.4292 -1.0008 -0.6316
30794WAT     H224982   2.962   9.487   5.878 -0.3694 -1.4222  2.4341
30794WAT    EPW24983   2.974   9.420   5.824 -0.0675 -0.2179  0.9325
30795WAT      O24984  -0.863   8.589   3.036 -0.3160 -0.6576  0.1395
30795WAT     H124985  -0.790   8.592   2.974 -1.5092  3.8476 -1.3916
30795WAT     H224986  -0.930   8.537   2.991 -0.4554  0.9281 -1.6004
30795WAT    EPW24987  -0.862   8.582   3.022 -0.4918  0.1459 -0.2918
30796WAT      O24988  -0.032   8.176   2.394  0.2944 -0.1340 -0.1080
30796WAT     H124989   0.044   8.177   2.335 -0.0326  1.0683 -0.5396
30796WAT     H224990  -0.008   8.116   2.464  1.2780 -0.4632 -0.7155
30796WAT    EPW24991  -0.019   8.168   2.395  0.3810 -0.0186 -0.2450
30797WAT      O24992   0.119   8.272   5.988 -0.2677  1.0321  0.2056
30797WAT     H124993   0.093   8.215   6.060 -1.1986  0.8386 -0.2641
30797WAT     H224994   0.090   8.359   6.014 -1.3774  0.8314 -0.2751
30797WAT    EPW24995   0.111   8.276   6.001 -0.5369  0.9799  0.0803
30798WAT      O24996   1.303  10.195   2.002  0.2522  0.2090 -0.4855
30798WAT     H124997   1.231  10.147   1.961 -2.0772  3.0098 -0.0854
30798WAT     H224998   1.271  10.214   2.091  1.5705  1.3312 -0.2152
30798WAT    EPW24999   1.289  10.191   2.009  0.1188  0.7267 -0.3971
30799WAT      O25000   4.417   0.511   5.845 -0.0228  0.7068  0.0791
30799WAT     H125001   4.354   0.473   5.783  2.2336 -0.4316 -1.6529
30799WAT     H225002   4.426   0.602   5.817  0.2556  0.4530 -0.6927
30799WAT    EPW25003   4.410   0.518   5.833  0.3116  0.5232 -0.2513
30800WAT      O25004   1.819   7.560   6.153  0.2233  0.0777  0.3163
30800WAT     H125005   1.727   7.584   6.143  0.7212  1.2367 -2.8215
30800WAT     H225006   1.819   7.465   6.159 -1.1781 -0.5391 -4.5818
30800WAT    EPW25007   1.807   7.551   6.152  0.1041  0.1490 -0.7436
30801WAT      O25008  -1.083   4.389   0.364 -0.7949  0.3173 -0.3080
30801WAT     H125009  -1.080   4.438   0.282  2.4939 -0.5633 -0.8715
30801WAT     H225010  -1.030   4.440   0.425 -1.9395  0.1854  0.8394
30801WAT    EPW25011  -1.076   4.402   0.361 -0.5121  0.1838 -0.2310
30802WAT      O25012   2.949   9.691   5.475 -0.1466 -0.1269 -0.2565
30802WAT     H125013   2.892   9.630   5.428 -1.4861  1.6602 -1.0808
30802WAT     H225014   3.037   9.672   5.443 -0.8104 -0.1722 -2.1580
30802WAT    EPW25015   2.953   9.680   5.465 -0.4108  0.1030 -0.6161
30803WAT      O25016  -2.130  10.246   1.728 -0.0566  0.1932  1.4025
30803WAT     H125017  -2.133  10.158   1.765 -0.0387  0.0508  1.0725
30803WAT     H225018  -2.145  10.233   1.634  3.5770  0.1224  0.6601
30803WAT    EPW25019  -2.132  10.233   1.720  0.4250  0.1650  1.2611
30804WAT      O25020   9.065   2.442   1.235  0.4219  0.3647  0.0608
30804WAT     H125021   9.072   2.502   1.309 -0.6272 -2.7508  2.9456
30804WAT     H225022   9.156   2.417   1.216  0.6246 -0.3713  1.8089
30804WAT    EPW25023   9.078   2.446   1.242  0.3104 -0.1433  0.6718
30805WAT      O25024  -0.913   6.139   0.709 -0.4582  0.8296  0.6279
30805WAT     H125025  -1.008   6.146   0.699 -0.4521  1.1108  0.7584
30805WAT     H225026  -0.891   6.053   0.673 -0.8401  0.5105  1.1475
30805WAT    EPW25027  -0.923   6.129   0.703 -0.5077  0.8247  0.7137
30806WAT      O25028  -3.235   4.848   6.234 -0.0406 -0.3326  0.1726
30806WAT     H125029  -3.210   4.939   6.221  0.0507 -0.2934  0.6276
30806WAT     H225030  -3.161   4.808   6.279  0.6034 -1.0332 -1.4357
30806WAT    EPW25031  -3.222   4.855   6.238  0.0565 -0.4199  0.0205
30807WAT      O25032   4.769   4.209   2.499  0.5339 -0.9750 -0.2516
30807WAT     H125033   4.790   4.130   2.547  1.3686  0.3957  1.7707
30807WAT     H225034   4.756   4.276   2.566  0.8463  0.8481 -1.8951
30807WAT    EPW25035   4.770   4.208   2.514  0.6852 -0.5536 -0.2016
30808WAT      O25036   3.650   0.653   8.687  0.2993  1.0367 -0.7139
30808WAT     H125037   3.676   0.726   8.743  3.9844 -0.1389 -0.6388
30808WAT     H225038   3.643   0.578   8.747  0.2517  0.5860 -1.2776
30808WAT    EPW25039   3.653   0.653   8.702  0.7790  0.8222 -0.7782
30809WAT      O25040   5.028   2.858   0.408  0.8605  0.1881  0.3487
30809WAT     H125041   5.080   2.919   0.357 -0.8482  3.2960  2.0258
30809WAT     H225042   4.951   2.908   0.435  0.7314 -1.7532  4.3118
30809WAT    EPW25043   5.025   2.873   0.405  0.6182  0.3420  1.0926
30810WAT      O25044  -0.103  10.224   8.699  0.2603 -1.0202  0.0692
30810WAT     H125045  -0.018  10.196   8.735  0.4938  1.2975  1.5090
30810WAT     H225046  -0.142  10.143   8.666  1.6821 -2.7067  2.1986
30810WAT    EPW25047  -0.097  10.210   8.699  0.4786 -0.9370  0.5398
30811WAT      O25048   4.244   5.568   4.696 -0.3694  0.0783 -0.5387
30811WAT     H125049   4.175   5.577   4.630  0.5846  1.9804 -1.3763
30811WAT     H225050   4.198   5.566   4.779 -1.4659  3.1938 -0.9268
30811WAT    EPW25051   4.229   5.569   4.698 -0.3881  0.7401 -0.7002
30812WAT      O25052   2.875   2.975   2.966  0.0797  0.2226 -0.3200
30812WAT     H125053   2.831   2.891   2.967 -2.0234  1.2509 -1.3285
30812WAT     H225054   2.805   3.040   2.973  1.6809  1.9136  1.4406
30812WAT    EPW25055   2.860   2.973   2.967  0.0136  0.5813 -0.2208
30813WAT      O25056   0.065   9.448   0.701 -0.0344  0.3505  0.6048
30813WAT     H125057   0.027   9.533   0.725 -0.0154  0.6016 -0.2159
30813WAT     H225058   0.082   9.456   0.608 -0.6927 -0.8130  0.3674
30813WAT    EPW25059   0.062   9.461   0.692 -0.1187  0.2298  0.4652
30814WAT      O25060  -4.294  -0.004   7.711 -0.3619  0.0403 -0.0841
30814WAT     H125061  -4.361   0.062   7.728  0.1203  0.8436 -1.1820
30814WAT     H225062  -4.214   0.034   7.745 -0.0257  0.1635 -0.9771
30814WAT    EPW25063  -4.292   0.010   7.718 -0.2539  0.1625 -0.3467
30815WAT      O25064  -0.993   7.193   8.488 -0.1377  0.6886 -0.6918
30815WAT     H125065  -1.031   7.266   8.536  0.0291  1.1672 -1.2769
30815WAT     H225066  -1.054   7.121   8.502 -0.6249  1.1110 -0.6199
30815WAT    EPW25067  -1.006   7.193   8.496 -0.1800  0.8078 -0.7596
30816WAT      O25068   4.604   6.201   1.520 -0.5546 -0.9735 -0.0745
30816WAT     H125069   4.563   6.194   1.434  0.6186 -2.6181 -0.5359
30816WAT     H225070   4.697   6.209   1.502 -0.3310 -0.8276  1.0396
30816WAT    EPW25071   4.611   6.201   1.506 -0.3703 -1.1711  0.0117
30817WAT      O25072   7.471   4.567   1.372 -0.2513 -0.3431  0.4684
30817WAT     H125073   7.532   4.493   1.366  0.2203 -0.0435  1.2939
30817WAT     H225074   7.469   4.588   1.466 -0.2406  0.8074  0.2247
30817WAT    EPW25075   7.478   4.560   1.384 -0.1876 -0.1519  0.5452
30818WAT      O25076   9.075   0.916   0.118  0.5931  0.2946 -0.7495
30818WAT     H125077   9.141   0.972   0.157 -1.0151  0.6653  1.6968
30818WAT     H225078   9.061   0.847   0.183  0.1204 -1.0018 -2.1797
30818WAT    EPW25079   9.082   0.914   0.132  0.3181  0.1725 -0.6154
30819WAT      O25080   3.838   2.399   6.302 -0.3103  0.2742  0.1130
30819WAT     H125081   3.770   2.446   6.253 -3.2481 -2.4357  1.2114
30819WAT     H225082   3.816   2.414   6.394  0.5550 -0.7199  0.5034
30819WAT    EPW25083   3.826   2.407   6.307 -0.5836 -0.2145  0.3095
30820WAT      O25084   2.303   4.272   2.395 -0.0360  0.1874 -0.5028
30820WAT     H125085   2.294   4.179   2.372 -0.9995  0.7235 -2.5603
30820WAT     H225086   2.222   4.294   2.439  1.2198 -0.4837  2.3552
30820WAT    EPW25087   2.291   4.263   2.398  0.0025  0.1698 -0.3972
30821WAT      O25088  -0.886   8.440   4.442  0.6061  0.1151  0.1431
30821WAT     H125089  -0.818   8.387   4.402  0.2337 -1.8457  1.8868
30821WAT     H225090  -0.894   8.404   4.531 -0.9575  1.9450  0.8033
30821WAT    EPW25091  -0.878   8.428   4.449  0.3507  0.0978  0.4599
30822WAT      O25092  -1.937   9.994   8.917  0.1565 -0.7386 -0.4100
30822WAT     H125093  -1.902  10.079   8.889 -0.8456 -0.2061 -0.0847
30822WAT     H225094  -1.878   9.930   8.877  1.0744  0.1096 -0.4535
30822WAT    EPW25095  -1.925   9.996   8.908  0.1454 -0.5565 -0.3729
30823WAT      O25096  -1.233   7.821   8.803  0.6565 -0.4207  0.8315
30823WAT     H125097  -1.236   7.753   8.871 -0.5740 -0.3404  0.8753
30823WAT     H225098  -1.316   7.812   8.756  0.0378  1.6405  1.4301
30823WAT    EPW25099  -1.244   7.811   8.806  0.4126 -0.1383  0.9165
30824WAT      O25100  -1.230   0.241   4.900 -0.0241 -0.4615  0.2746
30824WAT     H125101  -1.232   0.150   4.872  1.3408 -1.3479  2.7538
30824WAT     H225102  -1.137   0.261   4.911 -0.2658  1.4199 -0.6753
30824WAT    EPW25103  -1.218   0.232   4.897  0.1240 -0.3303  0.4761
30825WAT      O25104  -1.983   7.575   7.534 -0.5627 -0.1997 -0.3073
30825WAT     H125105  -2.007   7.654   7.487 -1.2644  0.1048  0.5393
30825WAT     H225106  -2.064   7.546   7.576 -0.2525 -1.2007 -0.3577
30825WAT    EPW25107  -1.997   7.581   7.533 -0.6143 -0.2916 -0.2024
30826WAT      O25108  -2.176  10.237   3.582 -0.0274 -0.1754 -0.3703
30826WAT     H125109  -2.208  10.322   3.552  0.6379 -0.8465 -3.2701
30826WAT     H225110  -2.082  10.249   3.592 -0.1069 -0.2456  0.5717
30826WAT    EPW25111  -2.168  10.250   3.579  0.0498 -0.2732 -0.6285
30827WAT      O25112  -1.995   5.402   4.966 -0.1572 -0.1709 -0.0118
30827WAT     H125113  -1.906   5.369   4.960  0.6771  2.0941 -1.1201
30827WAT     H225114  -2.050   5.323   4.962  1.7413 -1.6078  0.6027
30827WAT    EPW25115  -1.991   5.387   4.965  0.2032 -0.0615 -0.0770
30828WAT      O25116   0.036   6.893   2.017 -0.0918 -0.0815  0.2376
30828WAT     H125117   0.053   6.817   1.961  0.1931 -2.4097  3.2045
30828WAT     H225118   0.119   6.941   2.018  0.5872 -1.2218  0.3569
30828WAT    EPW25119   0.050   6.889   2.010  0.0353 -0.5391  0.6446
30829WAT      O25120   3.910   2.522   8.757 -0.5547 -0.6233 -0.1731
30829WAT     H125121   3.911   2.597   8.697  1.5543 -0.3248  0.1540
30829WAT     H225122   3.979   2.464   8.724  2.1195  0.4790  3.0196
30829WAT    EPW25123   3.919   2.524   8.745  0.0762 -0.4385  0.2913
30830WAT      O25124   3.694   0.544   8.159  0.2551  0.8659  0.1520
30830WAT     H125125   3.652   0.618   8.116 -0.0108  0.2256 -0.7011
30830WAT     H225126   3.781   0.539   8.119 -0.2334 -0.1508 -0.8454
30830WAT    EPW25127   3.700   0.553   8.148  0.1554  0.6473 -0.0920
30831WAT      O25128   4.791   1.646   5.545 -0.6132 -0.1919 -0.2926
30831WAT     H125129   4.740   1.569   5.520  2.3447 -2.8501  1.1372
30831WAT     H225130   4.858   1.654   5.477 -0.2903  0.4906  0.0891
30831WAT    EPW25131   4.794   1.637   5.533 -0.1805 -0.4525 -0.0539
30832WAT      O25132   2.763   2.091   5.681  0.4659 -0.2944 -0.1092
30832WAT     H125133   2.836   2.032   5.660  0.4172 -0.0204 -1.1133
30832WAT     H225134   2.791   2.176   5.649  0.8458  0.4190  2.0062
30832WAT    EPW25135   2.776   2.094   5.674  0.5095 -0.1643  0.0374
30833WAT      O25136   3.245   2.712   5.318  0.5671 -0.0255  0.1687
30833WAT     H125137   3.282   2.769   5.251  2.1527 -1.0061  0.1500
30833WAT     H225138   3.298   2.729   5.396 -1.2042  1.0415  1.1824
30833WAT    EPW25139   3.257   2.722   5.319  0.5426 -0.0142  0.2997
30834WAT      O25140   1.277   2.727   7.621  0.1293  0.1165 -0.0967
30834WAT     H125141   1.220   2.701   7.548 -1.6508  0.3922  1.1218
30834WAT     H225142   1.285   2.822   7.612 -1.4452  0.3774  0.9445
30834WAT    EPW25143   1.270   2.736   7.610 -0.3132  0.1873  0.2012
30835WAT      O25144   3.459   0.010   6.234  0.0423 -0.3846  0.6828
30835WAT     H125145   3.418  -0.033   6.159  0.5521  2.5357 -1.4489
30835WAT     H225146   3.391   0.067   6.270  0.9365  1.4168 -0.3229
30835WAT    EPW25147   3.445   0.012   6.229  0.2273  0.2381  0.2689
30836WAT      O25148  -1.876   9.639   1.864  0.1099  0.1864 -0.2952
30836WAT     H125149  -1.787   9.674   1.852 -0.4428  2.1717  0.9363
30836WAT     H225150  -1.933   9.716   1.856 -1.3403 -0.7507  0.7172
30836WAT    EPW25151  -1.871   9.654   1.861 -0.1543  0.3242  0.0008
30837WAT      O25152  -0.577   0.329   7.523 -0.7223 -0.0444  0.4430
30837WAT     H125153  -0.647   0.287   7.473  0.6384  0.2829 -1.8756
30837WAT     H225154  -0.595   0.423   7.516 -0.2877  0.0210  0.1832
30837WAT    EPW25155  -0.589   0.336   7.515 -0.4855  0.0074  0.1032
30838WAT      O25156   0.769   2.698   3.038 -0.4769 -0.0546 -0.5023
30838WAT     H125157   0.797   2.783   3.004 -0.7467 -0.0249 -0.6532
30838WAT     H225158   0.675   2.697   3.024 -0.4954 -0.3148 -0.3565
30838WAT    EPW25159   0.761   2.709   3.031 -0.5149 -0.0850 -0.5029
30839WAT      O25160   1.273   4.028   0.262 -0.9105 -0.4385 -0.7993
30839WAT     H125161   1.302   4.056   0.176  0.5716 -2.9731 -1.2188
30839WAT     H225162   1.330   4.074   0.323 -0.0573 -0.7556 -1.3404
30839WAT    EPW25163   1.284   4.038   0.259 -0.6025 -0.8147 -0.9260
30840WAT      O25164  -0.456   3.201   5.422  0.0567  0.1518 -0.0550
30840WAT     H125165  -0.542   3.223   5.386  1.3788  3.4000 -1.6662
30840WAT     H225166  -0.413   3.150   5.353 -0.2213 -0.7038  0.3877
30840WAT    EPW25167  -0.462   3.197   5.408  0.1944  0.4674 -0.2093
30841WAT      O25168  -0.837   2.527   1.013 -0.5464  0.2962  0.2137
30841WAT     H125169  -0.917   2.578   1.006  0.0849  1.3898  0.7703
30841WAT     H225170  -0.804   2.544   1.101 -1.5818 -3.0410  1.3927
30841WAT    EPW25171  -0.843   2.536   1.023 -0.5997  0.0002  0.4426
30842WAT      O25172  -3.070   6.233   7.895 -0.5813 -0.3006  0.0171
30842WAT     H125173  -3.092   6.182   7.817  1.0530  2.1317 -2.1983
30842WAT     H225174  -2.976   6.222   7.906 -0.4381  1.0322  0.3453
30842WAT    EPW25175  -3.061   6.225   7.886 -0.3468  0.1960 -0.2317
30843WAT      O25176  -1.184   0.900   7.059 -0.4513 -0.7488  0.5097
30843WAT     H125177  -1.168   0.837   7.129 -0.0317 -0.6231  0.5309
30843WAT     H225178  -1.100   0.943   7.047 -1.2748  1.5165  2.1570
30843WAT    EPW25179  -1.171   0.897   7.067 -0.5046 -0.4334  0.7296
30844WAT      O25180  -0.178   8.749   2.203  0.1403  0.0416  0.5788
30844WAT     H125181  -0.143   8.820   2.258 -0.2463 -1.2175  2.5826
30844WAT     H225182  -0.268   8.737   2.234 -0.2503 -0.4327 -0.6712
30844WAT    EPW25183  -0.185   8.757   2.215  0.0378 -0.1869  0.6782
30845WAT      O25184   6.662   0.099   2.635  0.1474 -0.6104 -0.0730
30845WAT     H125185   6.573   0.134   2.633 -0.1577 -1.3877 -1.4081
30845WAT     H225186   6.670   0.059   2.721 -0.8892 -0.7696 -0.0335
30845WAT    EPW25187   6.651   0.098   2.646 -0.0296 -0.7339 -0.2439
30846WAT      O25188   1.634   5.093   2.713  0.5436 -0.5552 -0.1166
30846WAT     H125189   1.578   5.022   2.745  0.0785 -0.4409 -0.6578
30846WAT     H225190   1.634   5.082   2.618  4.0690 -2.5465 -0.0523
30846WAT    EPW25191   1.627   5.082   2.705  0.9472 -0.8028 -0.1795
30847WAT      O25192  -3.052   6.462   2.123 -0.1238  0.6612  0.6652
30847WAT     H125193  -3.126   6.405   2.144  0.6038  0.3671  2.6336
30847WAT     H225194  -3.086   6.551   2.138 -0.3363  0.5726  0.7159
30847WAT    EPW25195  -3.067   6.466   2.128 -0.0559  0.6106  0.9315
30848WAT      O25196  -1.282   9.485   2.621 -0.6928  0.6788 -0.1533
30848WAT     H125197  -1.274   9.527   2.706 -0.8128  0.6089 -0.1073
30848WAT     H225198  -1.237   9.401   2.631 -1.8098  0.1093  0.2256
30848WAT    EPW25199  -1.275   9.479   2.633 -0.8560  0.5946 -0.0972
30849WAT      O25200  -2.263   5.771   3.635  0.0210  0.3098  0.0697
30849WAT     H125201  -2.352   5.741   3.613  0.4253 -0.7508 -0.2182
30849WAT     H225202  -2.214   5.690   3.651  1.0464  0.8564 -0.2093
30849WAT    EPW25203  -2.268   5.756   3.634  0.2095  0.2418 -0.0050
30850WAT      O25204   3.602   3.810   3.771  0.0556 -0.0215 -0.7722
30850WAT     H125205   3.582   3.720   3.744 -1.2072  0.8315 -2.9266
30850WAT     H225206   3.578   3.864   3.696  1.3461  2.0961  0.2342
30850WAT    EPW25207   3.596   3.805   3.758  0.0592  0.3704 -0.9238
30851WAT      O25208  -2.157   4.568   8.670  0.1601 -0.2692  0.0690
30851WAT     H125209  -2.159   4.662   8.692 -0.3334 -0.3072  0.1980
30851WAT     H225210  -2.071   4.539   8.699  0.5468  0.2748 -0.5026
30851WAT    EPW25211  -2.146   4.577   8.677  0.1460 -0.2024  0.0105
30852WAT      O25212  -1.643   8.879   8.724 -0.2008  0.4869 -0.1498
30852WAT     H125213  -1.626   8.920   8.809  0.4226 -0.1982  0.0629
30852WAT     H225214  -1.589   8.801   8.724  2.2269  2.0136 -2.4150
30852WAT    EPW25215  -1.634   8.874   8.735  0.2016  0.5975 -0.4206
30853WAT      O25216   1.100   8.471   4.182 -0.2615 -0.4348 -0.5239
30853WAT     H125217   1.171   8.429   4.133 -1.8210 -1.5200 -1.9885
30853WAT     H225218   1.127   8.464   4.273  0.8811 -2.0782 -0.9261
30853WAT    EPW25219   1.113   8.464   4.187 -0.3165 -0.7944 -0.7703
30854WAT      O25220  -6.645   6.327   8.634 -0.1736  0.1322  0.2551
30854WAT     H125221  -6.702   6.271   8.581  0.7235 -0.7563  0.1937
30854WAT     H225222  -6.563   6.277   8.642  0.2938  0.9925  1.0653
30854WAT    EPW25223  -6.641   6.313   8.628  0.0064  0.1283  0.3543
30855WAT      O25224  -4.243   1.508   8.338  0.0875  0.0755  0.0371
30855WAT     H125225  -4.186   1.568   8.385  0.3058 -0.6035  0.6425
30855WAT     H225226  -4.197   1.489   8.256  0.1322  0.5266 -0.0444
30855WAT    EPW25227  -4.230   1.513   8.333  0.1221  0.0455  0.1054
30856WAT      O25228   3.429   8.696   3.139 -0.1566 -0.6292  0.2739
30856WAT     H125229   3.350   8.669   3.187  0.6932 -0.9947  1.5090
30856WAT     H225230   3.477   8.750   3.201 -0.9406  2.4038 -1.5240
30856WAT    EPW25231   3.425   8.700   3.153 -0.1479 -0.2775  0.1997
30857WAT      O25232   1.262   5.116   6.958  0.2345 -0.1736 -0.2469
30857WAT     H125233   1.169   5.132   6.976  0.5279  2.2234 -0.6136
30857WAT     H225234   1.299   5.203   6.943  3.0351 -0.7893  2.1207
30857WAT    EPW25235   1.255   5.130   6.959  0.6427  0.0613  0.0172
30858WAT      O25236   4.411   0.522   5.321  0.3400  0.0776  0.1873
30858WAT     H125237   4.353   0.447   5.338  1.9811 -1.5748 -1.1026
30858WAT     H225238   4.418   0.565   5.406 -0.5080 -1.3364  1.0403
30858WAT    EPW25239   4.404   0.517   5.334  0.4447 -0.3268  0.1297
30859WAT      O25240  -4.227   3.731   8.127 -0.1849  0.5834  0.1608
30859WAT     H125241  -4.267   3.753   8.043  2.0834 -1.0070 -1.4519
30859WAT     H225242  -4.156   3.794   8.138 -1.1314  1.4839  1.5075
30859WAT    EPW25243  -4.223   3.742   8.118 -0.0105  0.4923  0.1259
30860WAT      O25244   7.335   2.364   3.482 -0.4029 -0.4050  0.5980
30860WAT     H125245   7.364   2.386   3.570  0.3406  0.3358  0.1857
30860WAT     H225246   7.322   2.449   3.439  3.6847 -0.5327 -1.4237
30860WAT    EPW25247   7.337   2.378   3.488  0.2344 -0.3241  0.2769
30861WAT      O25248  -0.970   1.578   7.103 -0.7581 -0.0158  0.2843
30861WAT     H125249  -1.023   1.655   7.084 -1.5474 -0.9097 -1.3141
30861WAT     H225250  -1.003   1.547   7.187  0.2896  1.9383  1.4993
30861WAT    EPW25251  -0.981   1.584   7.112 -0.7240  0.1240  0.2339
30862WAT      O25252   1.110   2.934   8.269  0.2771 -0.2710  0.5224
30862WAT     H125253   1.173   2.982   8.215 -1.3496  0.9898 -0.3523
30862WAT     H225254   1.025   2.954   8.230 -0.8364 -0.5351  2.6551
30862WAT    EPW25255   1.107   2.943   8.257 -0.0844 -0.1396  0.6881
30863WAT      O25256  -3.806   5.636   7.845  0.1760  0.0357 -0.1265
30863WAT     H125257  -3.887   5.652   7.894  0.2898  0.8891 -0.2081
30863WAT     H225258  -3.745   5.701   7.877  1.1731 -1.2466  0.6630
30863WAT    EPW25259  -3.809   5.647   7.856  0.3225 -0.0210 -0.0331
30864WAT      O25260   1.182   6.953   4.114 -0.1331  0.1291  0.6288
30864WAT     H125261   1.101   6.939   4.065 -0.9296  1.5470  1.4796
30864WAT     H225262   1.229   7.018   4.063 -0.0104  0.0740  0.6719
30864WAT    EPW25263   1.177   6.960   4.101 -0.2219  0.3088  0.7467
30865WAT      O25264  -7.812   8.916   8.244  0.3808  0.8051  0.0492
30865WAT     H125265  -7.902   8.905   8.213  0.8712 -1.4353 -0.7104
30865WAT     H225266  -7.819   8.981   8.315 -2.3752 -1.5969  2.2443
30865WAT    EPW25267  -7.825   8.923   8.250  0.0818  0.1926  0.2384
30866WAT      O25268   3.523   3.071   5.359 -0.4014 -0.1389  0.3253
30866WAT     H125269   3.572   3.149   5.334 -0.3916 -0.7224 -1.6684
30866WAT     H225270   3.582   3.023   5.416 -0.4141  1.2917  1.6096
30866WAT    EPW25271   3.537   3.075   5.363 -0.4017 -0.0272  0.2317
30867WAT      O25272   2.497   9.992   8.101 -0.1803  0.3840 -0.3319
30867WAT     H125273   2.486   9.991   8.005  1.4486 -0.7177 -0.5511
30867WAT     H225274   2.408   9.991   8.135 -0.8619 -2.5530 -1.8634
30867WAT    EPW25275   2.484   9.992   8.093 -0.0553 -0.1488 -0.5631
30868WAT      O25276   2.186   8.653   6.199 -1.1193 -0.5171 -0.0899
30868WAT     H125277   2.230   8.626   6.118  0.3410 -1.7566  1.0357
30868WAT     H225278   2.128   8.580   6.220 -1.6955 -0.0796 -0.1598
30868WAT    EPW25279   2.184   8.639   6.191 -1.0028 -0.6232  0.0494
30869WAT      O25280  -0.258   4.690   4.384 -0.3269  0.0713 -0.0703
30869WAT     H125281  -0.227   4.768   4.338  0.5930 -1.3167 -1.9641
30869WAT     H225282  -0.283   4.721   4.470 -0.7174  2.5751 -1.0136
30869WAT    EPW25283  -0.257   4.704   4.389 -0.2571  0.2184 -0.4447
30870WAT      O25284  -3.707   4.091   4.939 -0.1500 -0.0521 -0.3523
30870WAT     H125285  -3.798   4.114   4.959 -0.5873  0.4133 -2.5999
30870WAT     H225286  -3.713   4.009   4.890  0.6718 -0.1170 -0.3561
30870WAT    EPW25287  -3.720   4.083   4.935 -0.0993  0.0007 -0.6495
30871WAT      O25288   1.217   6.146   0.233  0.2284  0.0186  0.4268
30871WAT     H125289   1.154   6.143   0.161  1.0204 -3.7499 -0.3204
30871WAT     H225290   1.168   6.184   0.306 -2.8951 -2.2947 -0.2248
30871WAT    EPW25291   1.202   6.151   0.233 -0.0791 -0.7837  0.2423
30872WAT      O25292  -2.624   6.950   6.016  0.4590  0.4733 -0.4477
30872WAT     H125293  -2.541   6.919   6.054 -0.8790 -1.1387  1.3409
30872WAT     H225294  -2.680   6.873   6.012 -1.7738  1.9166  0.6916
30872WAT    EPW25295  -2.620   6.936   6.021 -0.0120  0.4511 -0.0615
30873WAT      O25296   2.096   0.777   4.802 -0.8850 -0.0838  0.4344
30873WAT     H125297   2.078   0.683   4.809 -1.6411  0.0477  0.3406
30873WAT     H225298   2.010   0.818   4.812 -1.0166  0.4731 -2.2212
30873WAT    EPW25299   2.082   0.770   4.804 -1.0021  0.0070  0.0718
30874WAT      O25300  -3.644   2.417   8.828 -0.0349 -0.1437  0.3073
30874WAT     H125301  -3.587   2.428   8.905  1.8263 -1.8680 -0.7322
30874WAT     H225302  -3.690   2.500   8.821 -1.0695 -0.2192  3.8556
30874WAT    EPW25303  -3.643   2.429   8.837  0.0741 -0.3811  0.6380
30875WAT      O25304   0.293   2.490   4.904  0.2122  0.3403 -0.8378
30875WAT     H125305   0.326   2.578   4.888  1.9718 -0.4043 -1.5936
30875WAT     H225306   0.354   2.452   4.967 -0.3431 -0.4368 -0.7485
30875WAT    EPW25307   0.306   2.497   4.910  0.3710  0.1396 -0.9255
30876WAT      O25308   6.196   4.307   4.971  0.5380 -0.0475 -0.5729
30876WAT     H125309   6.263   4.326   5.037  0.4745 -0.3135 -0.4288
30876WAT     H225310   6.157   4.225   5.000 -0.0950  0.2864 -0.4570
30876WAT    EPW25311   6.199   4.299   4.984  0.4463 -0.0386 -0.5386
30877WAT      O25312   0.948   1.779   0.976  0.3640  0.5975  0.5261
30877WAT     H125313   1.023   1.787   0.916  0.8547 -3.0436  0.4458
30877WAT     H225314   0.978   1.822   1.056  2.9229 -1.3051  0.7274
30877WAT    EPW25315   0.962   1.786   0.979  0.7662 -0.1336  0.5420
30878WAT      O25316  -4.893  10.052   6.841 -0.1133 -0.0418  0.2506
30878WAT     H125317  -4.856   9.991   6.777 -0.1669 -1.6440  1.6711
30878WAT     H225318  -4.852  10.136   6.821  1.3723 -0.9355 -0.6374
30878WAT    EPW25319  -4.882  10.055   6.830  0.0756 -0.3710  0.3209
30879WAT      O25320   4.478   5.645   1.185 -0.4900  0.9008 -0.2677
30879WAT     H125321   4.479   5.701   1.263 -0.8068  0.6993 -0.1195
30879WAT     H225322   4.444   5.561   1.216 -0.3540  0.7352 -0.5656
30879WAT    EPW25323   4.474   5.641   1.199 -0.5140  0.8526 -0.2875
30880WAT      O25324  -1.004   8.107   3.862  0.5155  0.0242  0.1032
30880WAT     H125325  -0.911   8.097   3.882  0.0649 -1.9233  1.5257
30880WAT     H225326  -1.034   8.175   3.922  0.6892 -0.5327  0.8274
30880WAT    EPW25327  -0.996   8.115   3.872  0.4790 -0.3066  0.3864
30881WAT      O25328   4.191  10.176   4.274  0.1024  0.0814 -0.2731
30881WAT     H125329   4.137  10.224   4.336  0.4237 -0.7444  0.6727
30881WAT     H225330   4.143  10.095   4.259  0.7067 -0.3274 -0.0154
30881WAT    EPW25331   4.178  10.172   4.280  0.2246 -0.0815 -0.1144
30882WAT      O25332   4.376   9.257   1.483 -0.2201  0.1178  0.8404
30882WAT     H125333   4.311   9.201   1.442 -1.5552  2.4980 -0.5403
30882WAT     H225334   4.455   9.246   1.429 -0.0887 -1.2066  1.2708
30882WAT    EPW25335   4.378   9.248   1.471 -0.3788  0.2570  0.7150
30883WAT      O25336  -2.830   2.980   5.017 -0.1034  0.2906  0.1020
30883WAT     H125337  -2.797   2.979   4.927  0.0190  1.1068  0.1257
30883WAT     H225338  -2.751   2.991   5.070 -0.2409  0.5207  0.2607
30883WAT    EPW25339  -2.815   2.981   5.012 -0.1054  0.4286  0.1259
30884WAT      O25340  -2.409   2.579   3.920  0.3634  0.0077 -0.5832
30884WAT     H125341  -2.388   2.526   3.997 -0.7435 -0.6061 -0.6850
30884WAT     H225342  -2.454   2.519   3.861 -0.6628  0.9781 -0.8241
30884WAT    EPW25343  -2.412   2.564   3.923  0.0820  0.0547 -0.6285
30885WAT      O25344  -7.105   8.236   8.899  0.3935 -0.6101  0.0070
30885WAT     H125345  -7.064   8.323   8.907  2.0630 -1.1566 -1.7558
30885WAT     H225346  -7.137   8.234   8.809 -0.7164 -1.3884  0.4082
30885WAT    EPW25347  -7.104   8.248   8.888  0.4675 -0.7854 -0.1726
30886WAT      O25348   0.346   9.752   5.762  0.1376  0.4554 -0.4636
30886WAT     H125349   0.260   9.742   5.721 -0.8264  0.0846  1.5438
30886WAT     H225350   0.391   9.814   5.706 -1.8016  1.4288 -1.0512
30886WAT    EPW25351   0.340   9.759   5.749 -0.2453  0.5345 -0.2763
30887WAT      O25352   4.185   8.317   0.198  0.5432 -0.2453 -0.1626
30887WAT     H125353   4.228   8.243   0.240  0.3938 -0.0254  0.4014
30887WAT     H225354   4.248   8.389   0.206  0.7323 -0.3383 -0.8043
30887WAT    EPW25355   4.199   8.317   0.205  0.5484 -0.2284 -0.1728
30888WAT      O25356  -0.188   9.520   1.610 -0.0859 -0.2891  0.4911
30888WAT     H125357  -0.228   9.478   1.686  0.7397  1.4612  1.9550
30888WAT     H225358  -0.133   9.453   1.571 -0.1332 -1.0681  1.7338
30888WAT    EPW25359  -0.186   9.506   1.615  0.0168 -0.1607  0.8481
30889WAT      O25360   4.265   7.656   4.998  0.7047 -0.2560 -0.3520
30889WAT     H125361   4.338   7.717   4.986  0.0736  1.0748  2.0385
30889WAT     H225362   4.235   7.671   5.087 -1.9311 -1.4046 -0.9417
30889WAT    EPW25363   4.271   7.666   5.008  0.2737 -0.2317 -0.1144
30890WAT      O25364   6.991   4.025   3.374 -0.0774 -0.0885  0.2427
30890WAT     H125365   6.974   4.000   3.465 -0.0920 -0.0723  0.2445
30890WAT     H225366   7.086   4.036   3.369  0.0059 -0.8173  0.0771
30890WAT    EPW25367   7.002   4.023   3.385 -0.0684 -0.1826  0.2211
30891WAT      O25368   0.024   8.550   1.097  0.6403 -0.2235  0.2638
30891WAT     H125369  -0.068   8.540   1.074  1.0295 -0.7868 -1.1360
30891WAT     H225370   0.025   8.547   1.193 -0.4531 -3.7016  0.2936
30891WAT    EPW25371   0.012   8.548   1.107  0.5474 -0.7563  0.0831
30892WAT      O25372  -3.756   2.339   7.649 -0.8817 -0.4878  0.1210
30892WAT     H125373  -3.840   2.326   7.693 -0.5902  0.3950  0.9817
30892WAT     H225374  -3.779   2.364   7.560 -1.7232  2.8965  1.1249
30892WAT    EPW25375  -3.770   2.341   7.643 -0.9543  0.0750  0.3667
30893WAT      O25376   5.794   1.344   7.337 -0.3658  0.1561 -0.0068
30893WAT     H125377   5.852   1.268   7.339  0.9309  0.9979 -2.2375
30893WAT     H225378   5.852   1.418   7.319 -2.0636  1.0000 -2.6245
30893WAT    EPW25379   5.809   1.344   7.335 -0.4184  0.3784 -0.6461
30894WAT      O25380  -0.402   2.576   1.156 -0.0045  0.1939  0.1248
30894WAT     H125381  -0.456   2.502   1.128  1.4524 -0.7618 -0.2988
30894WAT     H225382  -0.446   2.610   1.233 -0.5925 -1.3000  0.4891
30894WAT    EPW25383  -0.415   2.571   1.162  0.1101 -0.1292  0.1169
30895WAT      O25384   6.093   5.594   2.913 -0.4817  0.6264  0.4119
30895WAT     H125385   6.111   5.502   2.894 -0.6001  1.0507 -2.1338
30895WAT     H225386   6.156   5.643   2.860 -0.8663  2.0444  1.1903
30895WAT    EPW25387   6.104   5.588   2.904 -0.5481  0.8693  0.1787
30896WAT      O25388   4.017   3.876   1.694 -0.7251  0.1486 -0.0222
30896WAT     H125389   3.927   3.904   1.675 -0.1365 -0.1311 -4.3208
30896WAT     H225390   4.012   3.780   1.695 -0.4416  0.1018 -1.1024
30896WAT    EPW25391   4.005   3.867   1.691 -0.6101  0.1055 -0.7316
30897WAT      O25392  -1.820   0.929   4.344 -0.1578  0.6580 -0.2828
30897WAT     H125393  -1.893   0.973   4.300 -1.3219 -0.1349  0.7625
30897WAT     H225394  -1.806   0.849   4.294  0.2363  0.9847 -0.6940
30897WAT    EPW25395  -1.828   0.924   4.332 -0.2594  0.5966 -0.1991
30898WAT      O25396  -0.243   8.388   8.867 -0.4830  0.0279  0.0587
30898WAT     H125397  -0.170   8.342   8.909 -0.1271 -0.8448 -1.4471
30898WAT     H225398  -0.314   8.382   8.931 -0.0149 -1.4045  0.4862
30898WAT    EPW25399  -0.243   8.381   8.881 -0.3744 -0.2761 -0.0839
30899WAT      O25400  -3.832   2.994   7.118  0.4187  0.4986 -0.0973
30899WAT     H125401  -3.822   2.969   7.026  0.9728  1.2142 -0.2381
30899WAT     H225402  -3.856   3.087   7.115  1.4700  0.7961  0.5126
30899WAT    EPW25403  -3.834   3.003   7.105  0.6305  0.6323 -0.0353
30900WAT      O25404  -1.775   4.235   1.530 -0.0779 -0.9788 -0.0247
30900WAT     H125405  -1.695   4.183   1.521 -1.3529 -3.2346  1.0078
30900WAT     H225406  -1.810   4.211   1.615 -1.5104  0.5013 -0.1514
30900WAT    EPW25407  -1.769   4.225   1.540 -0.4350 -1.0812  0.0947
30901WAT      O25408  -1.979   1.967   5.078  0.4487  1.3053  0.0417
30901WAT     H125409  -1.932   1.959   5.161  1.0606  2.2903 -0.1973
30901WAT     H225410  -1.918   1.933   5.013  0.6748  2.1810 -0.2151
30901WAT    EPW25411  -1.965   1.961   5.080  0.5592  1.5506 -0.0236
30902WAT      O25412   1.509   4.935   3.556  0.1978  0.8893 -0.0913
30902WAT     H125413   1.585   4.938   3.497  0.9635  1.4438  0.8893
30902WAT     H225414   1.445   4.994   3.515  0.7947  1.4241 -0.2734
30902WAT    EPW25415   1.510   4.943   3.543  0.3775  1.0328  0.0141
30903WAT      O25416   2.417   0.763   5.757  0.1923 -0.9601  0.1301
30903WAT     H125417   2.361   0.837   5.730 -0.1699 -1.1004  0.4846
30903WAT     H225418   2.442   0.784   5.846 -0.9621 -1.8676  0.7028
30903WAT    EPW25419   2.413   0.776   5.765 -0.0077 -1.0983  0.2522
30904WAT      O25420  -0.214   4.640   7.363  1.0656  0.1512  0.5436
30904WAT     H125421  -0.180   4.571   7.306 -0.4065 -0.7507  0.7263
30904WAT     H225422  -0.307   4.645   7.343  0.9314  1.3436  1.3288
30904WAT    EPW25423  -0.222   4.632   7.353  0.8537  0.1895  0.6711
30905WAT      O25424   4.648   3.982   7.912  0.6025 -0.8138  0.2326
30905WAT     H125425   4.573   4.028   7.875  1.3216 -2.9461 -4.5983
30905WAT     H225426   4.722   4.042   7.901  0.2234  0.1076  2.2177
30905WAT    EPW25427   4.648   3.996   7.906  0.6475 -0.9736 -0.1426
30906WAT      O25428   4.238   3.643   2.046  0.5341 -0.4754  0.7424
30906WAT     H125429   4.173   3.573   2.047  2.5314 -2.4570 -0.2638
30906WAT     H225430   4.218   3.694   1.968  0.0889 -0.9558  0.5420
30906WAT    EPW25431   4.227   3.640   2.036  0.7386 -0.8003  0.5833
30907WAT      O25432   1.869   9.094   1.130  0.2197 -0.3293  0.3497
30907WAT     H125433   1.832   9.095   1.218 -2.0717 -1.4593 -0.5423
30907WAT     H225434   1.813   9.035   1.081  0.3491  1.6477 -2.3585
30907WAT    EPW25435   1.857   9.086   1.135 -0.0654 -0.2174 -0.1252
30908WAT      O25436   5.534   3.227   7.006  0.8897  0.0569  0.2976
30908WAT     H125437   5.549   3.179   6.925  0.5169 -1.4337  1.0689
30908WAT     H225438   5.618   3.267   7.027  1.6586 -1.5501  0.4081
30908WAT    EPW25439   5.547   3.226   6.998  0.9420 -0.3517  0.4139
30909WAT      O25440   1.803   7.429   1.524  0.2560 -1.0654  0.2500
30909WAT     H125441   1.834   7.421   1.434  1.6600  0.5184  0.5218
30909WAT     H225442   1.807   7.523   1.542  1.0755 -1.4351  2.2972
30909WAT    EPW25443   1.808   7.441   1.515  0.5493 -0.9055  0.5559
30910WAT      O25444   2.971   9.166   1.833 -0.0240  0.4116  0.7414
30910WAT     H125445   2.911   9.235   1.804  0.0303 -0.2012 -0.9341
30910WAT     H225446   2.957   9.161   1.928 -3.0676 -0.1136  0.3554
30910WAT    EPW25447   2.961   9.175   1.842 -0.4183  0.2618  0.4695
30911WAT      O25448   1.290   5.651   5.527 -0.6559  0.4548  0.1303
30911WAT     H125449   1.331   5.566   5.543 -0.7729  0.3048 -0.3553
30911WAT     H225450   1.334   5.710   5.588  0.5742  0.3875 -0.6496
30911WAT    EPW25451   1.301   5.647   5.537 -0.5091  0.4263 -0.0365
30912WAT      O25452   6.588   1.112   5.318 -0.4828  0.1349 -0.5013
30912WAT     H125453   6.676   1.145   5.336  0.6149 -2.8069  0.0553
30912WAT     H225454   6.601   1.046   5.250 -1.6128 -2.9603  2.0757
30912WAT    EPW25455   6.601   1.108   5.311 -0.4871 -0.6614 -0.0880
30913WAT      O25456   7.418   5.475   1.415 -0.0295 -0.2046 -0.0685
30913WAT     H125457   7.390   5.418   1.486  1.8212  1.5914  2.2524
30913WAT     H225458   7.449   5.415   1.347 -0.0149 -1.9820  1.4342
30913WAT    EPW25459   7.418   5.459   1.415  0.2167 -0.2022  0.4358
30914WAT      O25460   2.316   0.510   1.832 -0.0789 -0.3378  0.1516
30914WAT     H125461   2.300   0.584   1.890  0.8764 -0.8804  1.1354
30914WAT     H225462   2.410   0.514   1.814 -0.2576 -0.5203 -0.9167
30914WAT    EPW25463   2.326   0.521   1.837  0.0236 -0.4335  0.1405
30915WAT      O25464   0.655  10.020   8.694 -0.0125 -0.0754  0.0629
30915WAT     H125465   0.740  10.063   8.684 -0.3453  0.8021  0.8503
30915WAT     H225466   0.655   9.987   8.784  0.7107 -2.8825 -0.8486
30915WAT    EPW25467   0.666  10.021   8.704  0.0390 -0.3295  0.0467
30916WAT      O25468   8.668   0.613   0.715 -0.5701  0.9524  0.2299
30916WAT     H125469   8.600   0.679   0.724 -2.9064 -1.5559  2.7139
30916WAT     H225470   8.702   0.601   0.803  2.2544  1.1275 -0.7111
30916WAT    EPW25471   8.664   0.620   0.727 -0.5059  0.6447  0.4334
30917WAT      O25472  -3.196   7.254   8.697  0.0745 -0.0940  0.3177
30917WAT     H125473  -3.103   7.235   8.688 -0.0771 -0.5583 -0.3401
30917WAT     H225474  -3.212   7.254   8.791  1.0792  1.6917  0.5330
30917WAT    EPW25475  -3.186   7.252   8.708  0.1869  0.0801  0.2594
30918WAT      O25476  -4.035   9.258   6.406  0.0778  0.4807  0.2741
30918WAT     H125477  -4.126   9.263   6.436 -0.4818  0.4945 -1.3269
30918WAT     H225478  -4.007   9.170   6.430 -0.0659  0.7473  1.5034
30918WAT    EPW25479  -4.044   9.247   6.414 -0.0150  0.5174  0.2251
30919WAT      O25480   0.065   4.631   2.067 -1.4298  0.0461  0.6573
30919WAT     H125481  -0.030   4.640   2.073 -1.4388 -0.8043  2.3294
30919WAT     H225482   0.095   4.638   2.157 -0.0282 -0.9923  0.2973
30919WAT    EPW25483   0.056   4.633   2.080 -1.2461 -0.2029  0.8303
30920WAT      O25484   2.471   9.965   5.718  0.1534  0.2792 -0.3144
30920WAT     H125485   2.427  10.021   5.781  0.7150 -1.5798  1.8767
30920WAT     H225486   2.541  10.020   5.681 -0.1754  1.4205  0.7082
30920WAT    EPW25487   2.475   9.979   5.722  0.1842  0.1845  0.1092
30921WAT      O25488  -2.853   2.006   8.910 -0.6188  0.8154 -0.2271
30921WAT     H125489  -2.876   2.036   8.998 -2.3998 -1.0132  0.0085
30921WAT     H225490  -2.889   2.073   8.852  1.6738  2.6977  0.3992
30921WAT    EPW25491  -2.861   2.019   8.914 -0.5513  0.8225 -0.1135
30922WAT      O25492  -3.331   7.030   7.789  0.2386 -1.1235 -0.3307
30922WAT     H125493  -3.277   6.966   7.741 -1.7224 -2.9828 -0.1845
30922WAT     H225494  -3.282   7.047   7.869  2.3327  0.0826 -1.7512
30922WAT    EPW25495  -3.317   7.024   7.793  0.2561 -1.2097 -0.4988
30923WAT      O25496   2.735   6.016   2.807 -0.0636  0.3595  1.0156
30923WAT     H125497   2.657   6.068   2.792 -0.4980  0.4342  3.2151
30923WAT     H225498   2.702   5.932   2.840  0.7572  0.7125  2.8460
30923WAT    EPW25499   2.720   6.012   2.810 -0.0126  0.4158  1.5471
30924WAT      O25500   2.802   3.202   7.655 -0.2053 -0.5956 -0.2945
30924WAT     H125501   2.874   3.261   7.635  0.2239 -1.2481 -0.6940
30924WAT     H225502   2.723   3.254   7.638  0.1327  0.6399  1.6217
30924WAT    EPW25503   2.801   3.217   7.650 -0.1042 -0.5187 -0.0944
30925WAT      O25504   0.644   7.356   3.629  0.0552 -0.0207  0.0856
30925WAT     H125505   0.731   7.388   3.654  1.0967 -1.1090 -1.8825
30925WAT     H225506   0.658   7.264   3.609 -2.1995 -0.9971  2.4811
30925WAT    EPW25507   0.658   7.348   3.630 -0.1048 -0.2933  0.1420
30926WAT      O25508  -2.678   2.523   3.856  0.0898  0.5328 -0.0942
30926WAT     H125509  -2.713   2.590   3.914 -0.2539 -0.7806  1.2792
30926WAT     H225510  -2.745   2.455   3.854  2.5864 -2.3675  3.1166
30926WAT    EPW25511  -2.691   2.523   3.863  0.3738 -0.0230  0.5105
30927WAT      O25512   2.425   7.581   4.969  0.1210  0.2940  0.5166
30927WAT     H125513   2.495   7.647   4.967  0.8047 -0.4371 -1.1735
30927WAT     H225514   2.464   7.507   5.016  1.0993 -0.6890 -1.6907
30927WAT    EPW25515   2.440   7.580   4.975  0.3402  0.0682  0.0024
30928WAT      O25516  -6.456   3.419   8.682  0.7502  0.2629  0.3138
30928WAT     H125517  -6.515   3.458   8.617  1.6259  0.6004 -0.2858
30928WAT     H225518  -6.502   3.340   8.710 -0.0357  0.5624 -0.0747
30928WAT    EPW25519  -6.470   3.414   8.677  0.7620  0.3469  0.1836
30929WAT      O25520  -2.774   7.630   4.074  0.0926 -0.4097  0.6004
30929WAT     H125521  -2.785   7.550   4.024 -0.5617  0.0290  0.0227
30929WAT     H225522  -2.687   7.622   4.113  0.8898 -0.5107 -1.0827
30929WAT    EPW25523  -2.764   7.619   4.073  0.1115 -0.3650  0.3023
30930WAT      O25524   7.743   5.677   1.615  0.0033  0.2556 -0.8919
30930WAT     H125525   7.699   5.606   1.664  2.3566 -2.5416 -2.4985
30930WAT     H225526   7.689   5.688   1.537 -0.2419  0.0196 -0.7604
30930WAT    EPW25527   7.730   5.669   1.611  0.2811 -0.1445 -1.0865
30931WAT      O25528   7.114   6.411   2.604 -0.3441 -0.3940 -0.5716
30931WAT     H125529   7.072   6.399   2.519 -1.5913  1.0598 -0.2059
30931WAT     H225530   7.177   6.482   2.590  0.8749 -1.4605 -0.7170
30931WAT    EPW25531   7.117   6.419   2.591 -0.3476 -0.3428 -0.5425
30932WAT      O25532  -1.275   1.807   1.216  0.5981 -0.3784  0.1380
30932WAT     H125533  -1.258   1.756   1.137  1.3497 -0.1321  0.1335
30932WAT     H225534  -1.361   1.847   1.202  1.8808  1.9552 -1.8054
30932WAT    EPW25535  -1.284   1.806   1.204  0.8664 -0.0382 -0.1189
30933WAT      O25536   1.356   2.250   3.156 -1.2928 -0.2804 -0.7400
30933WAT     H125537   1.343   2.180   3.221 -1.6573 -0.1229 -0.6398
30933WAT     H225538   1.380   2.204   3.076 -2.7607 -0.6227 -1.0129
30933WAT    EPW25539   1.357   2.235   3.154 -1.5345 -0.3048 -0.7627
30934WAT      O25540   2.022   7.186   1.610 -0.7854  0.4574 -0.2021
30934WAT     H125541   2.040   7.278   1.590  2.7539  0.1500  0.8980
30934WAT     H225542   2.019   7.182   1.706 -0.9005 -0.5653 -0.2343
30934WAT    EPW25543   2.024   7.198   1.620 -0.3339  0.2818 -0.0613
30935WAT      O25544  -2.170   8.187   0.975  0.7217  0.3418  0.7937
30935WAT     H125545  -2.201   8.269   1.013 -0.2537 -0.1008  0.9670
30935WAT     H225546  -2.158   8.128   1.050 -2.0916 -0.8359  0.4424
30935WAT    EPW25547  -2.172   8.190   0.990  0.2220  0.1278  0.7702
30936WAT      O25548   9.049   0.348   2.370 -1.2604  1.1221  0.1819
30936WAT     H125549   9.050   0.354   2.274 -1.7843  0.3917  0.1220
30936WAT     H225550   8.974   0.402   2.396 -2.7468 -0.7588 -0.0113
30936WAT    EPW25551   9.039   0.356   2.361 -1.5259  0.7777  0.1484
30937WAT      O25552   0.161   6.738   2.975 -0.2108 -0.5299  0.2249
30937WAT     H125553   0.199   6.808   2.922  0.7410 -0.2151  1.2901
30937WAT     H225554   0.091   6.781   3.024 -0.8417 -0.7398 -0.4742
30937WAT    EPW25555   0.157   6.753   2.975 -0.1685 -0.5159  0.2732
30938WAT      O25556  -4.854   8.861   8.420  0.2021  0.6115  0.1949
30938WAT     H125557  -4.856   8.780   8.471  0.2375  0.8012  0.5008
30938WAT     H225558  -4.928   8.912   8.454  0.2933  0.7845  0.1351
30938WAT    EPW25559  -4.864   8.857   8.431  0.2189  0.6590  0.2275
30939WAT      O25560   5.888   1.914   0.807 -0.0690  0.1499 -0.3424
30939WAT     H125561   5.961   1.883   0.861 -0.1521 -0.6649 -0.6813
30939WAT     H225562   5.811   1.871   0.844  0.1358 -2.1562 -2.3844
30939WAT    EPW25563   5.888   1.904   0.819 -0.0527 -0.2617 -0.6564
30940WAT      O25564   5.351  10.346   1.749  0.3614  0.3119 -0.2562
30940WAT     H125565   5.330  10.393   1.830 -2.0076 -3.2555  1.4321
30940WAT     H225566   5.446  10.335   1.752  0.2852 -0.3175  2.4754
30940WAT    EPW25567   5.361  10.351   1.760  0.0386 -0.2416  0.3268
30941WAT      O25568   5.765   4.724   1.957 -0.2647 -0.0474  0.2694
30941WAT     H125569   5.768   4.755   2.047 -1.9680  0.8935  0.0418
30941WAT     H225570   5.769   4.803   1.903  1.7869 -0.6459 -0.5671
30941WAT    EPW25571   5.766   4.738   1.962 -0.2186 -0.0021  0.1291
30942WAT      O25572  -3.334   1.801   4.664  0.4147 -0.0066  0.4497
30942WAT     H125573  -3.242   1.791   4.689  0.1048 -1.2868  1.2306
30942WAT     H225574  -3.359   1.714   4.632 -0.4339  0.4141 -0.0425
30942WAT    EPW25575  -3.325   1.788   4.663  0.2618 -0.1200  0.4880
30943WAT      O25576  -4.708   2.300   8.848  0.7317  0.3122  0.7233
30943WAT     H125577  -4.713   2.294   8.944  3.6985  2.0972  1.1234
30943WAT     H225578  -4.689   2.392   8.831 -1.1160  0.3235 -1.7591
30943WAT    EPW25579  -4.706   2.311   8.858  0.8793  0.5492  0.4487
30944WAT      O25580   4.607   4.925   0.756 -0.4011 -0.0731 -0.0432
30944WAT     H125581   4.669   4.960   0.691 -0.0107  0.3235  0.5398
30944WAT     H225582   4.662   4.883   0.821 -0.8098 -0.7016 -0.0981
30944WAT    EPW25583   4.623   4.924   0.756 -0.4034 -0.1037  0.0264
30945WAT      O25584   1.723   2.448   5.477  0.6304  0.0423 -0.1411
30945WAT     H125585   1.777   2.522   5.450 -0.0835  0.4164 -0.5590
30945WAT     H225586   1.687   2.414   5.395 -1.1142  0.8375  0.2393
30945WAT    EPW25587   1.725   2.453   5.463  0.3061  0.1965 -0.1459
30946WAT      O25588  -5.591   8.998   7.755 -0.2755  0.3076 -0.4859
30946WAT     H125589  -5.684   9.006   7.735 -0.1899  0.3791 -0.8672
30946WAT     H225590  -5.554   9.083   7.732  0.1755 -0.2569 -2.0019
30946WAT    EPW25591  -5.598   9.010   7.749 -0.2048  0.2427 -0.7362
30947WAT      O25592   1.494  10.036   1.125  0.3412 -0.0877 -0.1889
30947WAT     H125593   1.407  10.001   1.107  0.2605 -0.6729  1.2263
30947WAT     H225594   1.494  10.053   1.219  1.2818  1.2665 -0.4123
30947WAT    EPW25595   1.483  10.033   1.135  0.4547  0.0134 -0.0317
30948WAT      O25596   0.202   2.445   4.633  0.2129 -0.3537 -0.2718
30948WAT     H125597   0.296   2.445   4.616  0.5942 -0.1933  1.6520
30948WAT     H225598   0.195   2.453   4.728 -1.7301 -1.7400 -0.2468
30948WAT    EPW25599   0.214   2.446   4.643  0.0069 -0.5153 -0.0148
30949WAT      O25600   0.151   7.226   0.351  0.2725  0.4623 -0.9290
30949WAT     H125601   0.164   7.271   0.268  0.6045  0.3522 -0.9377
30949WAT     H225602   0.058   7.240   0.372 -0.0967 -0.4866 -1.8907
30949WAT    EPW25603   0.140   7.234   0.343  0.2676  0.3228 -1.0570
30950WAT      O25604  -1.902   8.387   2.790 -0.1386  0.5219 -0.4310
30950WAT     H125605  -1.970   8.320   2.793  1.6485 -1.3508  0.4452
30950WAT     H225606  -1.911   8.426   2.703 -2.3180  0.3742 -0.3225
30950WAT    EPW25607  -1.912   8.383   2.779 -0.1904  0.2551 -0.3011
30951WAT      O25608   7.086   1.117   3.256  0.9370  0.5090 -0.2009
30951WAT     H125609   7.127   1.067   3.327  0.3845  0.1524 -0.1290
30951WAT     H225610   7.155   1.177   3.226  1.7238 -0.5394 -0.5290
30951WAT    EPW25611   7.101   1.119   3.261  0.9680  0.3237 -0.2346
30952WAT      O25612  -0.690   4.214   3.984 -0.2078 -0.2425  0.8027
30952WAT     H125613  -0.684   4.129   3.942 -0.1081 -0.6808  1.6786
30952WAT     H225614  -0.610   4.221   4.036  0.2356  0.7949  0.0139
30952WAT    EPW25615  -0.678   4.204   3.986 -0.1362 -0.1636  0.8141
30953WAT      O25616   2.464   0.467   8.723  0.0894 -0.0816 -0.3114
30953WAT     H125617   2.512   0.417   8.657  2.1537  1.8392 -0.3827
30953WAT     H225618   2.456   0.408   8.798 -1.4419 -1.9620 -1.8539
30953WAT    EPW25619   2.469   0.453   8.724  0.1597 -0.0763 -0.5240
30954WAT      O25620   2.659   4.684   1.088 -0.1907  0.3779  0.9789
30954WAT     H125621   2.592   4.743   1.052 -0.9212  0.4208  2.3350
30954WAT     H225622   2.628   4.664   1.176 -1.0892 -3.7162 -0.0526
30954WAT    EPW25623   2.646   4.689   1.095 -0.4057 -0.1564  1.0217
30955WAT      O25624   4.327   6.844   4.456  0.0483 -0.0400  0.4311
30955WAT     H125625   4.349   6.919   4.511  0.0719  0.2255  0.0692
30955WAT     H225626   4.396   6.780   4.471 -0.9632 -0.7835  2.1920
30955WAT    EPW25627   4.339   6.846   4.465 -0.0820 -0.1030  0.6156
30956WAT      O25628   4.170   8.821   3.099 -0.1636  1.2420 -0.0420
30956WAT     H125629   4.096   8.825   3.159 -1.5857 -2.3957 -1.2348
30956WAT     H225630   4.148   8.881   3.028 -1.9820  0.3126 -0.3121
30956WAT    EPW25631   4.157   8.829   3.097 -0.5910  0.6394 -0.2348
30957WAT      O25632  -0.902   1.926   4.184  0.0696  0.4154 -0.2931
30957WAT     H125633  -0.971   1.992   4.176  0.3765  0.7961  0.1204
30957WAT     H225634  -0.831   1.960   4.130 -0.2189 -0.1901 -1.0658
30957WAT    EPW25635  -0.902   1.940   4.176  0.0720  0.3858 -0.3405
30958WAT      O25636   1.872   4.908   6.424 -0.0311 -0.7421  0.0262
30958WAT     H125637   1.915   4.900   6.509 -0.7084 -1.4312  0.3081
30958WAT     H225638   1.909   4.837   6.372 -1.0808 -1.5719  0.3867
30958WAT    EPW25639   1.883   4.898   6.428 -0.2589 -0.9425  0.1111
30959WAT      O25640   5.450   6.478   3.459 -0.2816 -0.4071  0.0049
30959WAT     H125641   5.363   6.497   3.425 -0.5252  0.0832  0.8613
30959WAT     H225642   5.439   6.397   3.509 -1.0657  1.3733  2.9392
30959WAT    EPW25643   5.437   6.470   3.461 -0.4170 -0.1078  0.5049
30960WAT      O25644   4.471   0.311   7.834 -1.2058  0.3832  0.0605
30960WAT     H125645   4.547   0.286   7.886 -0.7043  0.9840 -0.3694
30960WAT     H225646   4.396   0.286   7.887 -0.7153 -0.4517  0.3813
30960WAT    EPW25647   4.471   0.304   7.848 -1.0750  0.3524  0.0460
30961WAT      O25648   4.078   0.319   5.067  0.4691 -0.4402 -0.5420
30961WAT     H125649   4.024   0.377   5.012  0.2209 -0.0065  0.1451
30961WAT     H225650   4.168   0.346   5.048  0.3697 -0.0645 -0.4920
30961WAT    EPW25651   4.083   0.330   5.057  0.4234 -0.3334 -0.4449
30962WAT      O25652  -3.850   8.340   4.182 -0.0548 -0.3874  0.1130
30962WAT     H125653  -3.925   8.346   4.123 -1.4669 -0.4447  1.8185
30962WAT     H225654  -3.776   8.372   4.130 -1.0307 -1.3125 -1.9552
30962WAT    EPW25655  -3.850   8.345   4.168 -0.3698 -0.5169  0.0651
30963WAT      O25656  -5.105   9.791   5.235 -0.0325  0.9961  0.0995
30963WAT     H125657  -5.067   9.760   5.317 -1.0640  1.3230  0.7199
30963WAT     H225658  -5.034   9.781   5.171  0.1768 -1.1513  0.5841
30963WAT    EPW25659  -5.090   9.786   5.237 -0.1409  0.7558  0.2451
30964WAT      O25660  -1.391   7.304   3.542  0.0599 -0.1249  0.5028
30964WAT     H125661  -1.328   7.307   3.470 -1.3541 -0.4567 -0.8035
30964WAT     H225662  -1.368   7.225   3.590  0.0008 -0.8417 -0.6027
30964WAT    EPW25663  -1.379   7.294   3.539 -0.1344 -0.2632  0.1847
30965WAT      O25664   8.702   1.395   2.703  0.1605 -0.4506  0.7982
30965WAT     H125665   8.648   1.458   2.656 -0.4205 -2.6086 -1.6182
30965WAT     H225666   8.665   1.393   2.791 -1.9953  0.0880 -0.0428
30965WAT    EPW25667   8.690   1.403   2.709 -0.2007 -0.6642  0.3685
30966WAT      O25668  -0.933   6.849   3.171  1.0325 -0.0756  0.0437
30966WAT     H125669  -0.996   6.882   3.107 -1.2171 -2.0571  1.0606
30966WAT     H225670  -0.947   6.754   3.171  1.3606 -0.2185  2.9639
30966WAT    EPW25671  -0.943   6.841   3.162  0.7791 -0.3560  0.5629
30967WAT      O25672  -0.096   4.698   7.621  0.0263 -0.8298 -0.4384
30967WAT     H125673  -0.052   4.615   7.640  1.8945  0.1476 -0.1586
30967WAT     H225674  -0.145   4.682   7.540 -1.6241 -2.8384  0.8469
30967WAT    EPW25675  -0.096   4.685   7.613  0.0550 -0.9656 -0.2320
30968WAT      O25676   0.021   6.331   3.661  0.4363  0.1648  0.2828
30968WAT     H125677   0.005   6.388   3.736 -2.3649  0.9284 -0.7565
30968WAT     H225678   0.111   6.348   3.636  0.1938  2.9650  1.0036
30968WAT    EPW25679   0.031   6.341   3.667  0.0348  0.6347  0.2408
30969WAT      O25680   3.967   0.058   4.885 -0.7386  0.0380 -0.1298
30969WAT     H125681   3.959  -0.006   4.956  0.4244 -0.5209 -0.4744
30969WAT     H225682   3.955   0.143   4.928  0.5589 -0.2508  0.8767
30969WAT    EPW25683   3.964   0.061   4.900 -0.4140 -0.0738 -0.0424
30970WAT      O25684  -1.341   9.533   5.814 -0.3885 -0.2705  0.3452
30970WAT     H125685  -1.289   9.488   5.881 -1.6738  0.4498  1.9142
30970WAT     H225686  -1.308   9.499   5.731  0.9745 -1.5442  1.3437
30970WAT    EPW25687  -1.330   9.523   5.812 -0.3783 -0.3433  0.6840
30971WAT      O25688   3.139   6.181   0.285  0.1324 -0.1467  0.1265
30971WAT     H125689   3.128   6.241   0.212  2.6947  0.5094  0.1765
30971WAT     H225690   3.159   6.097   0.244 -0.9256 -0.3788  0.0740
30971WAT    EPW25691   3.141   6.178   0.270  0.3309 -0.0906  0.1262
30972WAT      O25692  -0.028   8.521   5.372  0.3779 -0.9008  0.1062
30972WAT     H125693   0.042   8.585   5.360 -0.5384  0.3663  1.2955
30972WAT     H225694  -0.086   8.534   5.298 -0.9826  1.2557  1.4589
30972WAT    EPW25695  -0.026   8.531   5.361  0.0776 -0.4492  0.4418
30973WAT      O25696  -0.240   0.537   7.453 -0.8381  0.0388 -0.3544
30973WAT     H125697  -0.178   0.609   7.442 -0.5419  0.2065  1.8452
30973WAT     H225698  -0.192   0.459   7.427  0.5742  0.1050  1.8088
30973WAT    EPW25699  -0.226   0.536   7.448 -0.6127  0.0696  0.2213
30974WAT      O25700  -3.466   4.406   7.465  0.3177 -0.4197 -0.1452
30974WAT     H125701  -3.382   4.397   7.421 -0.4093  0.9029 -1.8954
30974WAT     H225702  -3.488   4.317   7.493  1.2965 -1.1408 -1.5577
30974WAT    EPW25703  -3.458   4.393   7.463  0.3510 -0.3405 -0.5622
30975WAT      O25704   8.203   0.147   1.703  0.2118 -0.1050  0.6174
30975WAT     H125705   8.235   0.226   1.747  0.2402  0.1764  0.1004
30975WAT     H225706   8.109   0.147   1.719  0.4707 -1.0907  2.3916
30975WAT    EPW25707   8.195   0.157   1.711  0.2499 -0.1979  0.7832
30976WAT      O25708  -4.709   2.171   8.042  0.4833  0.3788 -0.6097
30976WAT     H125709  -4.653   2.192   8.117 -0.9003  1.2230  0.2375
30976WAT     H225710  -4.798   2.171   8.078 -0.0562 -1.4053 -1.8016
30976WAT    EPW25711  -4.713   2.173   8.057  0.2296  0.2549 -0.6552
30977WAT      O25712   2.480   3.148   2.506 -0.5824  0.0428  0.5971
30977WAT     H125713   2.562   3.190   2.532  0.0582 -1.6315  1.4360
30977WAT     H225714   2.420   3.167   2.578 -1.3677  2.3113 -0.5795
30977WAT    EPW25715   2.483   3.156   2.519 -0.6014  0.1211  0.5525
30978WAT      O25716   3.451   2.231   1.655 -0.7649 -0.2410 -0.3520
30978WAT     H125717   3.472   2.139   1.672 -0.6968  0.1426  1.8030
30978WAT     H225718   3.536   2.273   1.644 -0.7932 -0.3729 -1.2081
30978WAT    EPW25719   3.465   2.224   1.656 -0.7596 -0.2077 -0.1807
30979WAT      O25720  -2.930   2.817   4.342 -0.1176  0.0895 -0.1509
30979WAT     H125721  -2.908   2.908   4.325  1.6754 -0.2340  0.2005
30979WAT     H225722  -2.967   2.817   4.430  1.1099  0.3552  0.3972
30979WAT    EPW25723  -2.932   2.829   4.351  0.2809  0.0818 -0.0322
30980WAT      O25724  -0.598   1.892   5.524  0.4160  0.0100 -0.3546
30980WAT     H125725  -0.648   1.958   5.477  1.0321  0.7548  0.0138
30980WAT     H225726  -0.552   1.940   5.593  1.0398 -0.7608 -0.2058
30980WAT    EPW25727  -0.598   1.907   5.527  0.5796  0.0065 -0.2863
30981WAT      O25728  -5.242   5.042   8.922  0.0724 -0.4548 -0.5406
30981WAT     H125729  -5.155   5.004   8.935 -0.1646 -0.3074  2.0116
30981WAT     H225730  -5.226   5.135   8.905  0.4250 -0.2207  0.9391
30981WAT    EPW25731  -5.228   5.049   8.922  0.0875 -0.4046 -0.0086
30982WAT      O25732   5.834   2.480   6.920 -0.2028 -0.1803 -0.7052
30982WAT     H125733   5.792   2.565   6.905 -1.3156 -0.5165  0.3387
30982WAT     H225734   5.888   2.493   6.997  1.2022  0.0866 -1.6993
30982WAT    EPW25735   5.836   2.493   6.928 -0.1640 -0.1894 -0.6988
30983WAT      O25736  -0.218   4.145   6.195 -0.6193  0.0153 -0.3423
30983WAT     H125737  -0.312   4.146   6.213 -0.6895 -1.5504 -0.5258
30983WAT     H225738  -0.207   4.077   6.129  0.7098 -0.1709  0.0407
30983WAT    EPW25739  -0.229   4.136   6.189 -0.4532 -0.2158 -0.3157
30984WAT      O25740  -5.480   8.612   5.349 -0.4383  0.3137  0.2785
30984WAT     H125741  -5.449   8.526   5.319  0.8646  1.4527 -1.9024
30984WAT     H225742  -5.543   8.639   5.283 -3.5076 -0.2869  2.6970
30984WAT    EPW25743  -5.484   8.604   5.337 -0.6714  0.3848  0.3099
30985WAT      O25744  -3.360   1.064   7.614  0.5147  0.0481 -0.2353
30985WAT     H125745  -3.381   1.082   7.522  1.2118  0.0658 -0.3959
30985WAT     H225746  -3.268   1.088   7.622  0.8889 -1.4126  0.0947
30985WAT    EPW25747  -3.351   1.070   7.603  0.6560 -0.1423 -0.2129
30986WAT      O25748   2.053   7.870   4.405 -0.2100  0.3311 -0.7467
30986WAT     H125749   2.123   7.888   4.343 -0.0950 -3.7293 -2.0572
30986WAT     H225750   1.983   7.832   4.352 -0.6535 -2.0157  1.3442
30986WAT    EPW25751   2.053   7.867   4.390 -0.2533 -0.5138 -0.6437
30987WAT      O25752   2.781   5.808   8.418  0.1708 -0.4392  0.1170
30987WAT     H125753   2.724   5.734   8.440  0.5874 -1.2025 -1.2792
30987WAT     H225754   2.869   5.778   8.442  0.0882  0.5823  1.8877
30987WAT    EPW25755   2.785   5.794   8.424  0.2149 -0.4053  0.1669
30988WAT      O25756   2.297   2.664   7.106  0.5541 -0.5524 -0.3953
30988WAT     H125757   2.240   2.592   7.080 -1.0076  1.0515 -1.5848
30988WAT     H225758   2.281   2.733   7.042 -0.0841  1.9376  2.2250
30988WAT    EPW25759   2.288   2.664   7.094  0.2639 -0.0124 -0.2065
30989WAT      O25760  -1.160   6.192   8.194 -0.3447 -0.4538 -0.4532
30989WAT     H125761  -1.208   6.228   8.268  0.6411  0.5618 -0.2900
30989WAT     H225762  -1.099   6.261   8.167  1.2427 -1.7752 -0.4676
30989WAT    EPW25763  -1.158   6.206   8.200 -0.0053 -0.4940 -0.4330
30990WAT      O25764   0.874   1.571   6.474  0.1472 -0.0326 -0.3207
30990WAT     H125765   0.854   1.529   6.390 -0.8404  4.7105 -2.8094
30990WAT     H225766   0.788   1.590   6.512  0.4936  1.0776 -0.0758
30990WAT    EPW25767   0.860   1.568   6.468  0.0626  0.7394 -0.6168
30991WAT      O25768  -3.497   8.069   6.929 -0.2148 -0.3757 -0.0549
30991WAT     H125769  -3.585   8.083   6.895  0.0811 -2.6291 -2.0112
30991WAT     H225770  -3.443   8.055   6.851  0.9812 -3.3713  1.1717
30991WAT    EPW25771  -3.502   8.069   6.914 -0.0181 -1.0681 -0.1512
30992WAT      O25772   1.475   6.175   0.260  0.5714 -0.4368  0.1788
30992WAT     H125773   1.474   6.150   0.352  1.8279  0.7595  0.5407
30992WAT     H225774   1.383   6.186   0.237  0.2573 -0.5497  1.3430
30992WAT    EPW25775   1.463   6.173   0.269  0.6957 -0.2940  0.3801
30993WAT      O25776  -4.217   9.994   8.671  0.0545 -0.5858 -0.4790
30993WAT     H125777  -4.191  10.072   8.720 -4.5509  1.2693 -0.4196
30993WAT     H225778  -4.150   9.929   8.691  1.4901  1.7707  3.6536
30993WAT    EPW25779  -4.205   9.996   8.680 -0.3636 -0.0305  0.0734
30994WAT      O25780   5.701   3.348   1.871  0.3227  0.1051  0.1881
30994WAT     H125781   5.789   3.341   1.908  0.5127 -0.7444 -0.4003
30994WAT     H225782   5.715   3.343   1.777 -0.3783 -0.3585  0.1036
30994WAT    EPW25783   5.715   3.346   1.864  0.2553 -0.0681  0.0994
30995WAT      O25784  -6.569   5.873   8.935  0.0190  0.0781 -0.1476
30995WAT     H125785  -6.546   5.942   8.873 -2.3396  1.0896 -0.0086
30995WAT     H225786  -6.659   5.849   8.911 -1.0213  0.5327  2.8497
30995WAT    EPW25787  -6.578   5.879   8.924 -0.4294  0.2713  0.2661
30996WAT      O25788   1.401   4.957   0.925  0.1271 -0.2306 -0.0056
30996WAT     H125789   1.423   5.017   0.996 -2.3407 -2.2972  2.7166
30996WAT     H225790   1.328   4.999   0.880 -0.5398 -0.4442  0.8698
30996WAT    EPW25791   1.394   4.971   0.928 -0.2863 -0.5314  0.4689
30997WAT      O25792  -0.776   9.205   1.445  0.1394 -0.7228 -0.1618
30997WAT     H125793  -0.776   9.199   1.350 -0.2872 -0.1178 -0.2065
30997WAT     H225794  -0.800   9.296   1.464  0.8352 -0.6682  0.5178
30997WAT    EPW25795  -0.779   9.216   1.435  0.1749 -0.6361 -0.0781
30998WAT      O25796   3.430   7.214   7.340  0.1559 -0.1647  0.0573
30998WAT     H125797   3.426   7.151   7.268 -1.7914 -0.6245  0.5295
30998WAT     H225798   3.502   7.272   7.316  0.1562 -0.8572 -1.7930
30998WAT    EPW25799   3.439   7.213   7.328 -0.1010 -0.3169 -0.1245
30999WAT      O25800  -1.291   2.546   4.416 -0.3705 -0.7613 -0.3146
30999WAT     H125801  -1.380   2.540   4.381 -0.2880 -1.1043 -0.4756
30999WAT     H225802  -1.240   2.486   4.361  0.4730  1.2090 -1.7742
30999WAT    EPW25803  -1.296   2.537   4.404 -0.2484 -0.5467 -0.5283
31000WAT      O25804   0.759   2.814   0.771  0.3918 -0.1961  0.1213
31000WAT     H125805   0.817   2.793   0.697 -0.6025  0.0416 -0.7446
31000WAT     H225806   0.729   2.903   0.754 -1.6707 -0.9563 -0.4369
31000WAT    EPW25807   0.763   2.823   0.759 -0.0113 -0.2651 -0.0665
31001WAT      O25808  -1.714   0.818   3.865  0.0804  0.1992  0.3838
31001WAT     H125809  -1.763   0.869   3.801 -0.1420  0.4492  0.7534
31001WAT     H225810  -1.690   0.738   3.818  1.4377  1.1210 -0.5802
31001WAT    EPW25811  -1.717   0.814   3.850  0.2301  0.3537  0.3054
31002WAT      O25812  -1.869   9.656   5.784  0.1464  0.5853 -0.2069
31002WAT     H125813  -1.922   9.736   5.781  0.9740  1.1801  0.5863
31002WAT     H225814  -1.913   9.596   5.723  0.5292  2.2491 -2.2518
31002WAT    EPW25815  -1.882   9.658   5.775  0.3061  0.8831 -0.3719
31003WAT      O25816   4.444   0.096   0.327 -0.4036  0.2425 -0.4236
31003WAT     H125817   4.471   0.042   0.401 -0.5182  0.6367 -0.0923
31003WAT     H225818   4.394   0.036   0.271  0.8623 -0.4215 -0.8938
31003WAT    EPW25819   4.441   0.081   0.329 -0.2518  0.2069 -0.4419
31004WAT      O25820   5.327   3.059   4.524 -0.1123 -0.2434 -0.3063
31004WAT     H125821   5.242   3.020   4.506 -0.3894  0.4782 -0.6418
31004WAT     H225822   5.366   3.072   4.437  0.2383 -0.3492 -0.1669
31004WAT    EPW25823   5.321   3.056   4.510 -0.1028 -0.1622 -0.3319
31005WAT      O25824   8.060   0.635   4.395 -0.2959  0.0243 -0.2494
31005WAT     H125825   8.052   0.704   4.460 -1.4763  0.2897 -0.6467
31005WAT     H225826   8.070   0.681   4.312  0.5300 -0.3047 -0.3391
31005WAT    EPW25827   8.060   0.650   4.393 -0.3427  0.0159 -0.3138
31006WAT      O25828   0.027   9.955   0.034 -0.2781 -0.5633  0.0566
31006WAT     H125829   0.068   9.924  -0.047 -0.3655  0.6580 -0.4896
31006WAT     H225830  -0.063   9.923   0.030 -0.7742  0.8221 -1.1727
31006WAT    EPW25831   0.020   9.947   0.023 -0.3550 -0.2196 -0.1774
31007WAT      O25832   3.118   3.293   5.117  0.0806 -0.3663 -1.1323
31007WAT     H125833   3.047   3.257   5.065 -0.2257 -0.0514 -0.9361
31007WAT     H225834   3.075   3.343   5.186  0.4859  0.4191 -1.4248
31007WAT    EPW25835   3.103   3.295   5.119  0.0937 -0.2211 -1.1449
31008WAT      O25836  -2.259   8.646   8.838 -0.1514 -0.0559 -0.0559
31008WAT     H125837  -2.175   8.688   8.857  1.0315 -2.3777  0.1722
31008WAT     H225838  -2.288   8.611   8.921 -0.1163 -1.3507 -0.5712
31008WAT    EPW25839  -2.252   8.647   8.851  0.0092 -0.5331 -0.0939
31009WAT      O25840   1.824   8.058   4.916  0.0960  0.7716  0.1445
31009WAT     H125841   1.899   8.082   4.970  0.4249 -0.9836  0.5228
31009WAT     H225842   1.862   8.006   4.845 -0.7392 -0.0333  0.2771
31009WAT    EPW25843   1.839   8.054   4.914  0.0292  0.4339  0.2120
31010WAT      O25844  -5.565   4.459   8.095  0.0923  0.4127 -0.0808
31010WAT     H125845  -5.580   4.484   8.186 -1.4167 -1.3499  0.2149
31010WAT     H225846  -5.525   4.372   8.100 -1.0851 -0.2132 -1.0919
31010WAT    EPW25847  -5.562   4.451   8.108 -0.2620  0.0975 -0.1755
31011WAT      O25848   0.805   1.340   5.878  0.4073 -0.7460  0.3045
31011WAT     H125849   0.852   1.262   5.908  0.9404 -0.0594  1.3182
31011WAT     H225850   0.743   1.307   5.813  1.0115 -1.9311  0.3013
31011WAT    EPW25851   0.803   1.325   5.873  0.5573 -0.8118  0.4375
31012WAT      O25852   4.812   7.685   1.949  0.5879 -0.0470  0.1256
31012WAT     H125853   4.885   7.672   1.889 -0.1601  0.5977 -0.9491
31012WAT     H225854   4.834   7.766   1.996  0.0776  0.7550 -0.9746
31012WAT    EPW25855   4.825   7.694   1.948  0.4218  0.1438 -0.1612
31013WAT      O25856  -1.241   2.577   3.137 -0.6366  0.1417  0.1219
31013WAT     H125857  -1.288   2.502   3.174 -0.0993  0.3442  1.2557
31013WAT     H225858  -1.217   2.548   3.049 -1.5463 -0.5316  0.0710
31013WAT    EPW25859  -1.244   2.563   3.130 -0.6858  0.0796  0.2648
31014WAT      O25860  -4.092   2.132   7.932 -0.0527 -0.7201 -1.1951
31014WAT     H125861  -4.004   2.164   7.915 -0.5274  1.1872 -0.2984
31014WAT     H225862  -4.088   2.096   8.021 -0.2364 -0.4144 -1.0626
31014WAT    EPW25863  -4.080   2.131   7.941 -0.1395 -0.4282 -1.0595
31015WAT      O25864  -3.438   7.798   6.127 -0.6546 -0.5229 -0.0171
31015WAT     H125865  -3.479   7.715   6.105 -1.8275  0.2069 -0.7135
31015WAT     H225866  -3.346   7.787   6.104 -0.5666 -1.9627  0.9071
31015WAT    EPW25867  -3.431   7.786   6.121 -0.7977 -0.6166  0.0131
31016WAT      O25868   4.600   4.403   0.054 -0.3347  0.4277  0.1188
31016WAT     H125869   4.510   4.431   0.071 -0.3847  2.3074 -2.6134
31016WAT     H225870   4.653   4.478   0.078 -0.0447  1.3894 -3.1115
31016WAT    EPW25871   4.595   4.416   0.060 -0.3030  0.8025 -0.6677
31017WAT      O25872   1.784   4.647   3.648 -0.2933 -0.0152 -0.1230
31017WAT     H125873   1.772   4.593   3.726 -2.6147  1.3709  0.5802
31017WAT     H225874   1.878   4.664   3.645  0.0588 -1.3889  1.4627
31017WAT    EPW25875   1.795   4.642   3.658 -0.5531 -0.0136  0.1788
31018WAT      O25876  -0.286   1.178   8.131  0.7905 -0.3363  0.1097
31018WAT     H125877  -0.378   1.181   8.105  1.0643 -1.0522 -1.0328
31018WAT     H225878  -0.238   1.171   8.048  1.9908  1.6566  0.5656
31018WAT    EPW25879  -0.292   1.178   8.117  0.9849 -0.1679  0.0191
31019WAT      O25880  -2.362   8.639   1.275 -0.0406 -0.1263 -0.2745
31019WAT     H125881  -2.363   8.678   1.362 -1.1230 -2.0090  0.6397
31019WAT     H225882  -2.370   8.545   1.292  3.3560 -0.9475 -2.2790
31019WAT    EPW25883  -2.363   8.632   1.289  0.2645 -0.4830 -0.4184
31020WAT      O25884   4.912   2.549   3.271  0.5941  0.9133  0.4033
31020WAT     H125885   4.987   2.492   3.286  0.4911 -0.1074 -2.4684
31020WAT     H225886   4.840   2.505   3.317  1.5285  1.6332  2.7356
31020WAT    EPW25887   4.912   2.536   3.279  0.7036  0.8737  0.3321
31021WAT      O25888  -3.242   6.593   7.190 -0.1941  0.4447 -0.4795
31021WAT     H125889  -3.300   6.522   7.219 -0.3556 -0.1179 -2.0872
31021WAT     H225890  -3.298   6.648   7.135 -0.4345  2.6131  1.7498
31021WAT    EPW25891  -3.257   6.591   7.187 -0.2471  0.6564 -0.3977
31022WAT      O25892  -1.364   7.666   0.618 -0.1739  0.7655 -0.1437
31022WAT     H125893  -1.358   7.666   0.713 -0.8126  0.7560 -0.0993
31022WAT     H225894  -1.323   7.748   0.591 -0.4128  0.9909  0.1708
31022WAT    EPW25895  -1.358   7.676   0.627 -0.2896  0.7942 -0.0964
31023WAT      O25896  -1.487   4.615   1.547 -0.2018 -0.2415 -0.5845
31023WAT     H125897  -1.498   4.690   1.488  0.8287  0.2774 -0.1433
31023WAT     H225898  -1.437   4.552   1.496 -1.1615 -0.6932 -0.9935
31023WAT    EPW25899  -1.482   4.617   1.532 -0.1925 -0.2327 -0.5802
31024WAT      O25900   6.407   0.644   0.968  0.0298  0.9133 -0.3768
31024WAT     H125901   6.487   0.621   1.015 -0.5162  0.3724  0.3046
31024WAT     H225902   6.438   0.678   0.883  0.9639  0.5707 -0.1840
31024WAT    EPW25903   6.422   0.646   0.963  0.0811  0.7968 -0.2615
31025WAT      O25904   3.370   0.214   0.896 -0.1853 -0.5388 -0.5028
31025WAT     H125905   3.314   0.284   0.929  0.2223  0.5473 -2.0074
31025WAT     H225906   3.380   0.154   0.970  0.8454  1.8277  1.4345
31025WAT    EPW25907   3.364   0.215   0.910  0.0044 -0.0835 -0.4457
31026WAT      O25908  -0.785   0.728   6.029  0.3457 -0.5827 -1.1817
31026WAT     H125909  -0.780   0.764   5.941 -2.8008  0.4414 -1.0964
31026WAT     H225910  -0.848   0.656   6.022 -0.1543 -0.3279  0.2215
31026WAT    EPW25911  -0.793   0.723   6.017 -0.1352 -0.4140 -0.9854
31027WAT      O25912  -3.609   9.811   2.625  0.2407 -0.5426 -0.0764
31027WAT     H125913  -3.637   9.770   2.543  0.4826 -1.4890  0.3014
31027WAT     H225914  -3.563   9.890   2.597 -1.5235  0.2975 -0.7582
31027WAT    EPW25915  -3.607   9.816   2.610  0.0399 -0.5565 -0.1166
31028WAT      O25916  -2.085   1.437   8.206  0.5867  0.2558 -0.3213
31028WAT     H125917  -2.105   1.529   8.189  1.3113  0.9508  2.0739
31028WAT     H225918  -2.162   1.405   8.252  1.0077  0.1723  0.3387
31028WAT    EPW25919  -2.098   1.445   8.210  0.7379  0.3365  0.0820
31029WAT      O25920   2.846   2.148   7.474  0.1014  0.0904  0.4509
31029WAT     H125921   2.904   2.095   7.419  0.9640  1.1544  0.2917
31029WAT     H225922   2.869   2.238   7.452 -0.3682  0.5288  1.7051
31029WAT    EPW25923   2.857   2.153   7.464  0.1532  0.2885  0.5953
31030WAT      O25924   0.638   9.915   4.032 -0.1067  0.9714  0.4427
31030WAT     H125925   0.677   9.931   3.946 -0.5916 -1.2560 -0.2539
31030WAT     H225926   0.670   9.988   4.087  3.5801  0.2937 -0.5298
31030WAT    EPW25927   0.647   9.927   4.028  0.3156  0.5879  0.2224
31031WAT      O25928   1.036   3.169   2.625  0.1418  0.6388  0.1123
31031WAT     H125929   1.076   3.083   2.612 -0.1558  0.3768  0.8658
31031WAT     H225930   1.074   3.223   2.556  1.6904  0.3698  0.6957
31031WAT    EPW25931   1.047   3.164   2.614  0.3068  0.5687  0.2887
31032WAT      O25932   8.347   1.188   1.852  0.0790 -0.3222  0.0582
31032WAT     H125933   8.428   1.233   1.826 -1.4657  4.7370  2.7356
31032WAT     H225934   8.367   1.151   1.938  0.2903 -1.6549 -0.5444
31032WAT    EPW25935   8.361   1.189   1.860 -0.0973  0.1693  0.3319
31033WAT      O25936  -2.199   7.031   8.373 -0.0916 -0.3450 -0.4417
31033WAT     H125937  -2.187   6.941   8.404  0.9597 -0.4076 -0.9807
31033WAT     H225938  -2.117   7.053   8.330  0.5457  1.6746  1.5916
31033WAT    EPW25939  -2.187   7.022   8.372  0.1311 -0.0868 -0.2451
31034WAT      O25940   5.307   8.098   1.938 -0.2421  0.0826 -0.0955
31034WAT     H125941   5.396   8.094   1.972  0.2861  2.3242 -1.0243
31034WAT     H225942   5.315   8.074   1.846 -0.7066 -0.2380 -0.0587
31034WAT    EPW25943   5.320   8.094   1.931 -0.2339  0.3366 -0.2131
31035WAT      O25944  -2.700   0.063   8.586 -0.2370  0.0603  0.3480
31035WAT     H125945  -2.709   0.002   8.660 -2.8278 -0.8238 -0.5586
31035WAT     H225946  -2.609   0.092   8.590  0.5049 -2.1499  2.1606
31035WAT    EPW25947  -2.689   0.059   8.597 -0.4808 -0.3478  0.4673
31036WAT      O25948   0.037   0.111   6.540  0.5578 -0.4164  0.0097
31036WAT     H125949  -0.046   0.088   6.499  0.1379  1.4506 -0.2483
31036WAT     H225950   0.091   0.032   6.531 -0.9016 -1.3766 -0.5282
31036WAT    EPW25951   0.033   0.097   6.534  0.3099 -0.2968 -0.0951
31037WAT      O25952  -0.539   7.568   0.847 -0.6819 -0.3227  0.2809
31037WAT     H125953  -0.620   7.617   0.859  0.0822  0.7689  1.1913
31037WAT     H225954  -0.530   7.517   0.927 -0.3536 -0.2425  0.2973
31037WAT    EPW25955  -0.548   7.568   0.859 -0.5378 -0.1681  0.4031
31038WAT      O25956   2.094   6.428   4.552 -0.5898  0.5825 -0.2448
31038WAT     H125957   2.185   6.456   4.541 -0.5466  0.1456 -1.0509
31038WAT     H225958   2.043   6.508   4.544 -0.1679  1.2349  2.4621
31038WAT    EPW25959   2.100   6.442   4.550 -0.5286  0.6108  0.0060
31039WAT      O25960  -0.298   8.484   6.435  0.0883  0.1754  0.6968
31039WAT     H125961  -0.202   8.493   6.431 -0.0848  2.0491 -0.8059
31039WAT     H225962  -0.313   8.421   6.505  2.5815 -3.0662 -1.3402
31039WAT    EPW25963  -0.287   8.477   6.444  0.3943 -0.0048  0.2298
31040WAT      O25964   4.781   7.523   2.699  0.2316  0.3415  0.4072
31040WAT     H125965   4.809   7.432   2.705  0.6770  0.4018 -0.5753
31040WAT     H225966   4.799   7.548   2.608  0.8171  1.6251  0.8480
31040WAT    EPW25967   4.787   7.514   2.688  0.3676  0.5190  0.3358
31041WAT      O25968   3.208   3.721   1.231 -0.1021 -0.1624  0.3113
31041WAT     H125969   3.297   3.728   1.196 -0.1528 -0.6725  0.0623
31041WAT     H225970   3.155   3.692   1.156 -0.5215  0.3626  0.3984
31041WAT    EPW25971   3.213   3.718   1.216 -0.1640 -0.1605  0.2900
31042WAT      O25972   5.158   1.234   2.528  0.3429  0.0348  0.1591
31042WAT     H125973   5.232   1.282   2.565  0.9582 -1.6826  1.2993
31042WAT     H225974   5.181   1.218   2.437  0.6548  0.8392  0.0913
31042WAT    EPW25975   5.171   1.239   2.521  0.4649 -0.0857  0.3005
31043WAT      O25976  -0.963   6.153   2.636 -0.5061  0.2520 -0.2307
31043WAT     H125977  -0.988   6.080   2.692 -1.2463  1.1270  0.6091
31043WAT     H225978  -0.873   6.172   2.661 -0.0917 -0.7524 -0.8928
31043WAT    EPW25979  -0.955   6.146   2.646 -0.5490  0.2351 -0.2073
31044WAT      O25980  -3.223   2.989   4.226  0.1464  0.6158 -0.5135
31044WAT     H125981  -3.186   3.018   4.309 -0.8958  4.1496 -1.1318
31044WAT     H225982  -3.300   3.044   4.213 -4.0421 -4.5085 -0.5833
31044WAT    EPW25983  -3.228   3.000   4.235 -0.5436  0.4060 -0.6044
31045WAT      O25984  -2.939   1.923   4.909 -0.0482 -0.5472  0.2069
31045WAT     H125985  -2.992   1.858   4.864 -0.2488 -1.6240  1.9319
31045WAT     H225986  -2.848   1.897   4.890 -0.1276 -1.2750  0.7805
31045WAT    EPW25987  -2.934   1.911   4.900 -0.0851 -0.7852  0.5097
31046WAT      O25988   1.422   9.570   8.764 -0.7209 -0.2206  0.7106
31046WAT     H125989   1.378   9.503   8.817 -1.1659  0.7275  1.5853
31046WAT     H225990   1.373   9.572   8.682  0.0212 -1.7606  0.1909
31046WAT    EPW25991   1.410   9.561   8.761 -0.6818 -0.2985  0.7577
31047WAT      O25992   0.155   3.459   2.288 -0.2203 -0.9712 -0.4446
31047WAT     H125993   0.240   3.483   2.250 -1.1135  2.5799 -0.5608
31047WAT     H225994   0.135   3.373   2.251  2.8407 -1.4889 -1.1737
31047WAT    EPW25995   0.164   3.451   2.279  0.0656 -0.5711 -0.5561
31048WAT      O25996   8.987   2.681   0.782  0.2571  0.3485  0.1964
31048WAT     H125997   9.066   2.699   0.731 -0.3399  0.8993 -0.5587
31048WAT     H225998   8.943   2.612   0.734  1.0439 -1.1110  1.4782
31048WAT    EPW25999   8.992   2.674   0.769  0.2828  0.2285  0.2659
31049WAT      O26000   6.048   7.960   2.126  0.1685  0.4458  0.0208
31049WAT     H126001   6.069   7.996   2.040  1.0446  0.3353  0.1800
31049WAT     H226002   5.961   7.994   2.146  0.3323  1.1985 -0.5115
31049WAT    EPW26003   6.039   7.969   2.117  0.3057  0.5305 -0.0284
31050WAT      O26004  -1.276   0.292   2.859 -0.4264  0.2810 -0.2893
31050WAT     H126005  -1.240   0.260   2.942  0.7273  1.9220 -0.1074
31050WAT     H226006  -1.236   0.235   2.793 -1.0305 -0.7727  0.2325
31050WAT    EPW26007  -1.266   0.280   2.861 -0.3540  0.3585 -0.1965
31051WAT      O26008   3.502   0.880   3.251  0.1908 -0.0395 -0.4734
31051WAT     H126009   3.527   0.933   3.327 -0.7041  0.8805 -0.7839
31051WAT     H226010   3.535   0.792   3.270  0.4118  0.2917  0.7473
31051WAT    EPW26011   3.509   0.876   3.264  0.1018  0.1255 -0.3533
31052WAT      O26012   6.940   1.160   2.903  0.6084 -0.3329  0.9315
31052WAT     H126013   6.919   1.232   2.962  3.7706  2.1219 -0.6536
31052WAT     H226014   6.981   1.202   2.828  0.5108 -3.6600 -1.1902
31052WAT    EPW26015   6.943   1.175   2.901  1.0126 -0.4480  0.4426
31053WAT      O26016  -5.133   8.305   4.970  0.3813 -0.7292 -0.8350
31053WAT     H126017  -5.226   8.325   4.963  0.5764 -0.3208 -2.7646
31053WAT     H226018  -5.128   8.242   5.042 -1.2219  0.0778  0.0431
31053WAT    EPW26019  -5.145   8.299   4.979  0.1957 -0.5689 -0.9735
31054WAT      O26020   4.588   0.681   1.762  0.1492  0.8135  0.1051
31054WAT     H126021   4.539   0.665   1.681 -1.8571  1.0352  1.2100
31054WAT     H226022   4.578   0.775   1.778  0.2332  0.7090  0.7879
31054WAT    EPW26023   4.580   0.691   1.753 -0.1044  0.8290  0.3409
31055WAT      O26024   4.992   6.251   0.322 -0.0663 -1.1313  0.1199
31055WAT     H126025   5.083   6.230   0.343  1.2297  3.6932  0.3688
31055WAT     H226026   4.954   6.281   0.405 -1.1039 -0.6920 -0.4884
31055WAT    EPW26027   4.999   6.252   0.336 -0.0322 -0.4370  0.0725
31056WAT      O26028  -6.417   7.824   8.707  0.6855  0.1547  0.6315
31056WAT     H126029  -6.510   7.843   8.715  0.7695  0.7702  0.2880
31056WAT     H226030  -6.410   7.769   8.629  0.4727 -1.0708  1.4502
31056WAT    EPW26031  -6.428   7.820   8.698  0.6683  0.0744  0.6938
31057WAT      O26032   3.707   3.363   7.194  0.4936 -0.5724 -0.5124
31057WAT     H126033   3.638   3.408   7.145  0.0752 -0.2843  0.3268
31057WAT     H226034   3.713   3.277   7.152  0.7779 -0.0230 -1.6475
31057WAT    EPW26035   3.698   3.358   7.182  0.4760 -0.4619 -0.5515
31058WAT      O26036   0.693   8.029   0.952  0.2359  0.4722 -0.0332
31058WAT     H126037   0.605   8.052   0.922 -0.7154  1.7762  3.2659
31058WAT     H226038   0.735   8.114   0.968  0.2378  0.0128  3.0411
31058WAT    EPW26039   0.687   8.044   0.951  0.1107  0.5832  0.8074
31059WAT      O26040   1.564   3.540   4.508 -0.0181  0.2432 -0.2904
31059WAT     H126041   1.511   3.477   4.557 -3.0702  2.1876 -0.8193
31059WAT     H226042   1.645   3.547   4.558 -0.6178 -2.1151  1.2063
31059WAT    EPW26043   1.567   3.532   4.521 -0.4998  0.1885 -0.1628
31060WAT      O26044   4.588   0.602   1.141 -0.5305 -0.5072  0.4173
31060WAT     H126045   4.534   0.528   1.111  0.1363 -2.1996  3.0065
31060WAT     H226046   4.525   0.664   1.177 -0.9091 -1.6734  1.8444
31060WAT    EPW26047   4.573   0.600   1.142 -0.4926 -0.8842  0.9471
31061WAT      O26048   0.535   2.454   0.200  0.1862 -0.4311  0.1840
31061WAT     H126049   0.447   2.478   0.173  0.2057 -0.8899 -0.2961
31061WAT     H226050   0.574   2.413   0.123  1.1448  0.6151  0.0830
31061WAT    EPW26051   0.529   2.452   0.186  0.3152 -0.3537  0.1073
31062WAT      O26052   5.049   0.609   1.908  0.4972  0.1674  0.1961
31062WAT     H126053   5.002   0.569   1.981  2.3054 -2.7425 -0.0421
31062WAT     H226054   5.136   0.630   1.944  1.4225 -1.3344 -0.9997
31062WAT    EPW26055   5.055   0.606   1.922  0.8576 -0.4145  0.0070
31063WAT      O26056   5.014   9.214   3.211 -0.8193  0.7838  0.3095
31063WAT     H126057   5.013   9.309   3.198 -1.2982  1.0833  2.2516
31063WAT     H226058   4.926   9.194   3.243  0.0832  0.1106  2.4834
31063WAT    EPW26059   5.002   9.224   3.213 -0.7637  0.7343  0.8525
31064WAT      O26060   2.627   8.093   5.513 -0.1989  0.0732  0.9998
31064WAT     H126061   2.636   8.092   5.608 -0.3023  2.7348  1.0999
31064WAT     H226062   2.717   8.102   5.481 -0.2537  0.2648  0.8991
31064WAT    EPW26063   2.640   8.094   5.521 -0.2198  0.4497  0.9997
31065WAT      O26064  -0.052   6.336   5.592  1.0527 -0.6936 -0.2096
31065WAT     H126065  -0.025   6.390   5.517  0.2297  0.4644  0.2989
31065WAT     H226066  -0.125   6.384   5.631  1.4264 -1.3003  1.3121
31065WAT    EPW26067  -0.058   6.349   5.587  0.9934 -0.6206  0.0582
31066WAT      O26068  -4.762   2.471   8.223  0.2797 -0.9993  0.1147
31066WAT     H126069  -4.799   2.559   8.209  0.7456 -0.9376 -0.8011
31066WAT     H226070  -4.724   2.448   8.139  0.8412 -1.7699  0.5719
31066WAT    EPW26071  -4.762   2.480   8.210  0.4151 -1.0928  0.0544
31067WAT      O26072  -3.200   4.772   5.961  0.0808 -0.2787  0.0753
31067WAT     H126073  -3.260   4.778   5.887 -1.3798  1.5128  1.3205
31067WAT     H226074  -3.182   4.863   5.985  1.9651 -0.7913  0.8350
31067WAT    EPW26075  -3.205   4.784   5.954  0.1367 -0.1099  0.3397
31068WAT      O26076   1.324   3.139   1.760 -0.1254 -0.3583  0.0227
31068WAT     H126077   1.290   3.088   1.687 -1.6679 -1.3230  1.3456
31068WAT     H226078   1.270   3.113   1.835  2.3648 -0.6124  1.8811
31068WAT    EPW26079   1.312   3.129   1.760 -0.0003 -0.5192  0.4423
31069WAT      O26080  -0.737   0.961   7.197  0.0568  0.0702  0.4680
31069WAT     H126081  -0.689   1.005   7.267  1.8589 -2.7389  1.1242
31069WAT     H226082  -0.806   0.912   7.242 -0.1378 -0.0669  0.0305
31069WAT    EPW26083  -0.740   0.960   7.212  0.2688 -0.3184  0.4969
31070WAT      O26084   2.130   3.958   1.240  0.6997 -0.2715  0.2035
31070WAT     H126085   2.085   3.874   1.237 -0.7916  0.4642  0.9770
31070WAT     H226086   2.174   3.959   1.325 -0.1138  0.1275  0.6268
31070WAT    EPW26087   2.130   3.947   1.251  0.3958 -0.1218  0.3613
31071WAT      O26088   9.769   1.390   0.331 -0.6224 -0.8747  0.0411
31071WAT     H126089   9.772   1.320   0.265 -0.6996 -0.1587 -0.7354
31071WAT     H226090   9.845   1.445   0.310  0.1052 -1.3319  1.3506
31071WAT    EPW26091   9.780   1.388   0.319 -0.5364 -0.8405  0.1114
31072WAT      O26092   7.121   6.081   0.144  0.6181 -0.1954 -0.1661
31072WAT     H126093   7.122   6.011   0.079  0.6888 -0.2692 -0.0863
31072WAT     H226094   7.191   6.058   0.206  2.9220  1.6144 -1.9134
31072WAT    EPW26095   7.130   6.069   0.144  0.9313  0.0336 -0.3861
31073WAT      O26096   1.407   2.543   5.116  0.0575  0.8012 -0.1926
31073WAT     H126097   1.381   2.459   5.078  2.9202 -1.3818  2.1070
31073WAT     H226098   1.484   2.569   5.065  0.6747  0.6917  0.6732
31073WAT    EPW26099   1.414   2.535   5.104  0.5164  0.4988  0.2248
31074WAT      O26100  -3.354   3.438   8.689  0.5219 -0.2558  0.4224
31074WAT     H126101  -3.340   3.532   8.680 -1.1907 -0.0915 -1.0114
31074WAT     H226102  -3.295   3.412   8.760  0.2045  2.0757  1.6275
31074WAT    EPW26103  -3.344   3.447   8.697  0.2542  0.0733  0.3920
31075WAT      O26104   2.523   9.001   8.563 -0.7256  0.1678  0.1825
31075WAT     H126105   2.546   9.049   8.484  2.4714 -1.9627 -0.3817
31075WAT     H226106   2.589   9.026   8.628  0.1420 -2.1593  0.3183
31075WAT    EPW26107   2.534   9.010   8.561 -0.1888 -0.4201  0.1259
31076WAT      O26108   2.887   6.757   4.408  0.2382  0.0813  0.7442
31076WAT     H126109   2.922   6.840   4.442  1.0534  0.3548 -0.6553
31076WAT     H226110   2.806   6.783   4.363 -0.8285 -0.2755  2.3757
31076WAT    EPW26111   2.881   6.772   4.406  0.2052  0.0703  0.7749
31077WAT      O26112  -0.263   4.379   2.674 -0.3197  0.3681 -0.3159
31077WAT     H126113  -0.231   4.355   2.587 -1.7391  1.8102 -1.3053
31077WAT     H226114  -0.277   4.296   2.719  0.7077 -0.3940 -1.3578
31077WAT    EPW26115  -0.260   4.365   2.668 -0.3714  0.4578 -0.5838
31078WAT      O26116   3.298   4.868   8.643  0.2354 -0.5953  0.4400
31078WAT     H126117   3.274   4.849   8.552  0.1692 -1.3368  0.6057
31078WAT     H226118   3.347   4.950   8.638 -1.9577  0.7636  0.0541
31078WAT    EPW26119   3.302   4.877   8.630 -0.0626 -0.5140  0.4110
31079WAT      O26120   4.746   7.115   4.962  0.7898 -0.8089  0.1503
31079WAT     H126121   4.750   7.020   4.951 -1.6955 -0.8635 -0.8818
31079WAT     H226122   4.725   7.128   5.054  1.7471 -1.2203  0.4341
31079WAT    EPW26123   4.744   7.104   4.972  0.5884 -0.8705  0.0517
31080WAT      O26124  -3.464   9.798   3.083 -0.2133 -0.2811 -0.4298
31080WAT     H126125  -3.429   9.860   3.020  1.5187 -0.2261  0.5152
31080WAT     H226126  -3.422   9.715   3.061  2.7230  0.2831  2.2346
31080WAT    EPW26127  -3.454   9.795   3.072  0.4023 -0.1993  0.0463
31081WAT      O26128   1.369  10.317   3.803  0.8768 -0.0717  0.1905
31081WAT     H126129   1.453  10.350   3.834  0.8790 -0.2387  0.3631
31081WAT     H226130   1.308  10.389   3.819  0.8140 -0.2744  0.8843
31081WAT    EPW26131   1.372  10.331   3.809  0.8688 -0.1205  0.3048
31082WAT      O26132  -0.395   3.860   8.603 -0.6591 -0.1924 -0.4467
31082WAT     H126133  -0.424   3.922   8.670  2.0209 -0.4298  1.0539
31082WAT     H226134  -0.432   3.777   8.631  0.8370 -0.3895  1.1184
31082WAT    EPW26135  -0.404   3.858   8.616 -0.1083 -0.2497 -0.0424
31083WAT      O26136  -0.134   0.750   7.871  0.8030 -0.2947  0.3197
31083WAT     H126137  -0.207   0.704   7.912 -0.4961  4.0253  3.6729
31083WAT     H226138  -0.056   0.711   7.909 -0.2247  0.1643  3.1664
31083WAT    EPW26139  -0.133   0.739   7.881  0.4961  0.3356  1.1373
31084WAT      O26140   6.646   0.850   1.797 -0.0037  0.0664 -0.0205
31084WAT     H126141   6.682   0.916   1.857 -0.9465  0.8130 -0.2650
31084WAT     H226142   6.552   0.869   1.794 -0.2368 -1.0876 -0.3537
31084WAT    EPW26143   6.638   0.861   1.805 -0.1588  0.0126 -0.0967
31085WAT      O26144   1.218   9.503   7.404  0.3548  0.0016  0.2245
31085WAT     H126145   1.213   9.409   7.424  2.4805 -0.0603  0.7247
31085WAT     H226146   1.303   9.514   7.362  0.4573  1.8052  0.8013
31085WAT    EPW26147   1.228   9.492   7.401  0.6487  0.2313  0.3664
31086WAT      O26148   1.908   6.400   7.609  0.1944  0.3274  0.7886
31086WAT     H126149   1.834   6.444   7.567  2.4603  1.9267 -1.8502
31086WAT     H226150   1.916   6.442   7.695 -1.0890  1.0684  0.5674
31086WAT    EPW26151   1.899   6.411   7.615  0.3240  0.6359  0.4115
31087WAT      O26152   1.829   4.405   3.849 -0.1181 -0.7430  0.0252
31087WAT     H126153   1.846   4.326   3.796 -2.4815 -0.6984 -0.9684
31087WAT     H226154   1.745   4.387   3.891 -0.4859  1.0609  0.1359
31087WAT    EPW26155   1.820   4.392   3.847 -0.4783 -0.4990 -0.0913
31088WAT      O26156  -2.127   2.271   5.426  0.3464  0.1687  0.3157
31088WAT     H126157  -2.130   2.356   5.382  1.6747 -0.0589 -0.2858
31088WAT     H226158  -2.135   2.207   5.355 -4.0825 -0.3604  1.0048
31088WAT    EPW26159  -2.128   2.274   5.411 -0.0626  0.0689  0.3273
31089WAT      O26160  -5.402   7.894   6.403  0.1947 -0.4291  0.2003
31089WAT     H126161  -5.411   7.988   6.414  0.9266  0.0224 -2.2564
31089WAT     H226162  -5.489   7.859   6.421 -0.3616  0.8530  0.0955
31089WAT    EPW26163  -5.414   7.902   6.406  0.2179 -0.2007 -0.1376
31090WAT      O26164   1.623   3.778   2.311  0.2392  0.4635 -0.1221
31090WAT     H126165   1.659   3.767   2.223  0.4841 -1.7448  0.1893
31090WAT     H226166   1.698   3.805   2.365  0.4139  0.3871 -0.3263
31090WAT    EPW26167   1.638   3.780   2.307  0.2946  0.1621 -0.1080
31091WAT      O26168  -4.050   5.065   8.470 -0.9147  0.1831 -0.1378
31091WAT     H126169  -4.143   5.039   8.469 -1.6898  2.7085 -0.6365
31091WAT     H226170  -4.018   5.039   8.383 -1.5538  0.5368 -0.4906
31091WAT    EPW26171  -4.058   5.058   8.458 -1.1015  0.5629 -0.2503
31092WAT      O26172   2.744   6.702   3.682 -0.1090 -0.0872 -0.8317
31092WAT     H126173   2.791   6.620   3.673 -1.3635 -0.8454 -0.7391
31092WAT     H226174   2.652   6.676   3.693 -0.3061  1.2238  1.2598
31092WAT    EPW26175   2.738   6.688   3.683 -0.3005 -0.0143 -0.5437
31093WAT      O26176   5.762   0.647   1.573  0.1476  0.4546  0.3300
31093WAT     H126177   5.731   0.716   1.631 -0.0431 -0.0618  0.8538
31093WAT     H226178   5.726   0.566   1.611  1.8287 -0.1398  0.7528
31093WAT    EPW26179   5.753   0.645   1.586  0.3440  0.3081  0.4549
31094WAT      O26180  -4.961   5.308   8.831  0.0016  0.0682  0.4669
31094WAT     H126181  -4.935   5.216   8.821  0.8538  0.4418 -1.0897
31094WAT     H226182  -4.926   5.333   8.916  0.3986 -0.8367  0.5876
31094WAT    EPW26183  -4.953   5.299   8.841  0.1664 -0.0019  0.2775
31095WAT      O26184  -0.781   8.879   2.921 -0.1952 -0.8012 -0.3847
31095WAT     H126185  -0.856   8.832   2.885 -1.0765  1.9911 -2.5957
31095WAT     H226186  -0.811   8.969   2.928  2.5873  0.1896 -0.1745
31095WAT    EPW26187  -0.795   8.884   2.917  0.0555 -0.3023 -0.6487
31096WAT      O26188   4.005   6.945   6.766  0.5648 -0.6795 -0.5320
31096WAT     H126189   4.055   6.973   6.689 -1.1152 -1.6489 -2.0512
31096WAT     H226190   4.054   6.870   6.801  2.2884  0.8294  0.4726
31096WAT    EPW26191   4.018   6.939   6.760  0.5705 -0.6084 -0.5999
31097WAT      O26192   2.836   4.852   0.352  0.5069 -0.4189  0.0927
31097WAT     H126193   2.844   4.814   0.440  0.5584  0.8146  0.6511
31097WAT     H226194   2.742   4.850   0.334  0.5784 -1.4920 -0.2180
31097WAT    EPW26195   2.825   4.847   0.362  0.5231 -0.3977  0.1253
31098WAT      O26196  -0.454   0.030   3.108  0.0180 -0.4947 -0.5156
31098WAT     H126197  -0.534   0.013   3.057 -0.3375  0.3515 -0.2622
31098WAT     H226198  -0.453  -0.038   3.175 -0.0862 -0.9613 -0.9777
31098WAT    EPW26199  -0.464   0.019   3.110 -0.0426 -0.4446 -0.5431
31099WAT      O26200   3.130   4.053   7.797 -0.1168  0.1151 -0.8493
31099WAT     H126201   3.151   4.129   7.852 -0.1680 -0.9436  0.6934
31099WAT     H226202   3.214   4.012   7.779 -0.2777 -0.9333  0.5820
31099WAT    EPW26203   3.144   4.058   7.802 -0.1448 -0.1626 -0.4570
31100WAT      O26204  -3.433   7.140   2.970  0.1704 -0.0422 -0.1970
31100WAT     H126205  -3.464   7.050   2.980  0.1329 -0.0160 -0.0724
31100WAT     H226206  -3.354   7.143   3.024  0.2841 -0.0565 -0.3620
31100WAT    EPW26207  -3.427   7.128   2.978  0.1805 -0.0405 -0.2023
31101WAT      O26208   3.554   4.039   2.192 -0.1236 -0.4843 -0.4671
31101WAT     H126209   3.518   4.082   2.270 -0.6751 -0.1151 -0.9229
31101WAT     H226210   3.621   3.979   2.227  1.2527  1.2935  0.1323
31101WAT    EPW26211   3.558   4.037   2.207 -0.0149 -0.2012 -0.4482
31102WAT      O26212   5.124   3.146   7.602  0.3080  0.2473  0.1138
31102WAT     H126213   5.099   3.108   7.519 -1.4955  0.8033  0.3499
31102WAT     H226214   5.152   3.072   7.656  0.9252 -0.1827 -0.7860
31102WAT    EPW26215   5.124   3.132   7.598  0.1516  0.2639  0.0260
31103WAT      O26216  -0.008   1.024   5.789 -0.3938  0.4133  0.2128
31103WAT     H126217   0.047   1.096   5.820 -1.8421  2.2081 -1.0864
31103WAT     H226218  -0.095   1.064   5.779 -0.3964 -0.2390 -4.6180
31103WAT    EPW26219  -0.012   1.039   5.792 -0.5851  0.5640 -0.5958
31104WAT      O26220  -1.070   5.900   8.941 -0.0057 -0.3462  0.6794
31104WAT     H126221  -1.016   5.936   9.011  0.0261  0.1901  0.3870
31104WAT     H226222  -1.055   5.958   8.866  1.6534 -2.1530 -0.4681
31104WAT    EPW26223  -1.061   5.913   8.940  0.2173 -0.5138  0.4897
31105WAT      O26224  -1.743   0.988   5.481  0.0617 -0.4654  0.5287
31105WAT     H126225  -1.826   1.033   5.497 -0.0642  0.9199 -3.0692
31105WAT     H226226  -1.692   1.003   5.560 -2.3860  0.3307  2.0674
31105WAT    EPW26227  -1.747   0.996   5.493 -0.2777 -0.1777  0.2573
31106WAT      O26228  -5.612   9.999   4.620  0.4344 -0.8724 -0.0243
31106WAT     H126229  -5.603   9.908   4.592 -1.0833 -0.2411 -2.9722
31106WAT     H226230  -5.540  10.045   4.575 -1.3864 -0.0142 -2.2797
31106WAT    EPW26231  -5.601   9.993   4.610 -0.0060 -0.6757 -0.7107
31107WAT      O26232   0.734   2.756   1.687  0.4820 -0.6331  0.2993
31107WAT     H126233   0.730   2.804   1.770  0.6819 -2.4992  1.4385
31107WAT     H226234   0.685   2.811   1.625 -0.1876  0.5212  1.7910
31107WAT    EPW26235   0.727   2.770   1.690  0.4201 -0.7269  0.6463
31108WAT      O26236  -4.662   9.506   7.619 -0.8009 -0.3613  0.1779
31108WAT     H126237  -4.675   9.590   7.574  0.8525 -0.7120 -1.0430
31108WAT     H226238  -4.575   9.513   7.659  0.4678 -2.3064 -2.0041
31108WAT    EPW26239  -4.652   9.518   7.618 -0.4153 -0.6642 -0.2708
31109WAT      O26240   7.890   0.092   2.023  0.6960 -0.1525  0.6137
31109WAT     H126241   7.920   0.097   2.114  1.7996 -0.3125  0.2734
31109WAT     H226242   7.927   0.010   1.990  0.7179  0.1477 -0.1244
31109WAT    EPW26243   7.899   0.082   2.031  0.8442 -0.1340  0.4715
31110WAT      O26244   4.439   3.701   6.312  0.1486  0.8319 -0.1976
31110WAT     H126245   4.355   3.723   6.352 -1.1033 -1.9987 -1.0553
31110WAT     H226246   4.469   3.623   6.358  1.4347  0.7724 -1.0681
31110WAT    EPW26247   4.432   3.694   6.323  0.1533  0.4507 -0.4256
31111WAT      O26248  -1.641   7.461   0.779  0.2541  0.6658 -0.1918
31111WAT     H126249  -1.713   7.432   0.835  2.4358  0.0485  2.5846
31111WAT     H226250  -1.613   7.382   0.733  0.0658  0.5684 -0.1381
31111WAT    EPW26251  -1.647   7.447   0.781  0.5170  0.5715  0.1815
31112WAT      O26252  -1.689   4.968   8.806  0.2961 -0.0353 -0.4463
31112WAT     H126253  -1.657   5.027   8.739 -1.0117 -0.2067 -1.2687
31112WAT     H226254  -1.611   4.921   8.837  0.8706 -0.3441 -2.2377
31112WAT    EPW26255  -1.675   4.969   8.801  0.1993 -0.0987 -0.7911
31113WAT      O26256   2.064   4.769   5.116  0.3070 -0.2828  0.2107
31113WAT     H126257   2.152   4.754   5.081  0.6903 -2.8061  1.9718
31113WAT     H226258   2.071   4.853   5.162  2.0461 -0.7505  0.9066
31113WAT    EPW26259   2.077   4.778   5.118  0.5870 -0.6773  0.5348
31114WAT      O26260   2.975   0.760   3.758 -0.0645  0.7239 -0.2420
31114WAT     H126261   2.896   0.788   3.805 -1.1904 -1.3526 -0.7560
31114WAT     H226262   3.005   0.683   3.806  0.5664  0.3988 -1.1381
31114WAT    EPW26263   2.968   0.754   3.771 -0.1298  0.4072 -0.4280
31115WAT      O26264   2.144   4.353   8.013  0.5740 -1.1276  0.2114
31115WAT     H126265   2.149   4.355   7.918  1.5197 -1.8673  0.2328
31115WAT     H226266   2.146   4.445   8.039 -2.8126 -0.6955 -0.5692
31115WAT    EPW26267   2.144   4.366   8.004  0.2520 -1.1680  0.1116
31116WAT      O26268   2.218   4.427   0.504  0.7317  0.1026 -0.6772
31116WAT     H126269   2.143   4.374   0.474  0.5574  0.6711 -1.2859
31116WAT     H226270   2.204   4.436   0.598 -0.4358  0.8991 -0.9037
31116WAT    EPW26271   2.206   4.421   0.512  0.5548  0.2828 -0.7874
31117WAT      O26272  -0.175   9.828   2.105  0.3682  0.5579  0.0506
31117WAT     H126273  -0.135   9.777   2.175 -0.0462  2.0781  1.4749
31117WAT     H226274  -0.108   9.834   2.038  1.3806  0.4198  1.0226
31117WAT    EPW26275  -0.161   9.822   2.105  0.4471  0.7401  0.3667
31118WAT      O26276  -0.702   4.871   4.323  0.4621 -0.2701 -0.8159
31118WAT     H126277  -0.664   4.885   4.409  0.6543 -0.6128 -0.8452
31118WAT     H226278  -0.725   4.959   4.292  0.7378 -0.1126 -0.5749
31118WAT    EPW26279  -0.700   4.884   4.330  0.5238 -0.2944 -0.7880
31119WAT      O26280  -2.983   8.672   7.182 -0.0704 -0.0173  0.1241
31119WAT     H126281  -2.905   8.723   7.162 -0.8132  1.0253 -0.2063
31119WAT     H226282  -2.950   8.584   7.199  0.9109 -0.4692 -3.2629
31119WAT    EPW26283  -2.969   8.667   7.181 -0.0390  0.0610 -0.3662
31120WAT      O26284   2.413   1.919   5.606  0.1923 -0.4560 -0.0478
31120WAT     H126285   2.403   2.012   5.629 -1.0468  0.0403 -2.2959
31120WAT     H226286   2.476   1.886   5.670 -2.1229  0.9650  3.2944
31120WAT    EPW26287   2.420   1.927   5.617 -0.2764 -0.2031  0.0966
31121WAT      O26288   3.415   6.202   2.461  0.1871 -0.2874 -0.2020
31121WAT     H126289   3.359   6.182   2.535  1.0612 -2.1070  0.0282
31121WAT     H226290   3.449   6.290   2.478  2.1247 -1.4536  2.7658
31121WAT    EPW26291   3.412   6.211   2.473  0.5579 -0.6809  0.2197
31122WAT      O26292   4.891   2.000   0.901 -0.7965  0.1389  0.3115
31122WAT     H126293   4.886   2.048   0.984 -1.3090  1.2346 -0.3233
31122WAT     H226294   4.973   1.951   0.906 -1.2472 -0.5162  1.8240
31122WAT    EPW26295   4.901   2.000   0.913 -0.9234  0.1969  0.4272
31123WAT      O26296   2.681   4.716   8.457 -0.3569 -0.7605 -0.0870
31123WAT     H126297   2.655   4.654   8.389 -2.5140  0.7220 -0.7027
31123WAT     H226298   2.599   4.757   8.485  1.0907  3.2977 -1.1392
31123WAT    EPW26299   2.667   4.713   8.452 -0.4505 -0.0298 -0.3066
31124WAT      O26300   2.447   9.826   1.970 -0.0078 -0.5649  0.3037
31124WAT     H126301   2.395   9.795   2.044  0.4209 -3.2009 -0.4299
31124WAT     H226302   2.518   9.763   1.962  1.1552  0.8419 -1.0770
31124WAT    EPW26303   2.449   9.814   1.979  0.2021 -0.7267  0.0249
31125WAT      O26304  -0.826   5.724   8.251 -0.8621 -0.0560  0.9344
31125WAT     H126305  -0.745   5.757   8.213 -1.1161 -2.3616 -2.0209
31125WAT     H226306  -0.801   5.689   8.336  1.3826 -1.0305 -0.0430
31125WAT    EPW26307  -0.812   5.724   8.257 -0.5995 -0.4888  0.4158
31126WAT      O26308  -1.055   6.681   4.918  0.1061 -0.3512  0.0051
31126WAT     H126309  -1.086   6.593   4.940  0.8215 -0.9358 -1.2267
31126WAT     H226310  -0.962   6.680   4.938 -0.1265  0.5567  1.2071
31126WAT    EPW26311  -1.047   6.669   4.923  0.1698 -0.3085  0.0012
31127WAT      O26312   6.238   2.285   1.253  0.8048  0.5242  0.0077
31127WAT     H126313   6.321   2.238   1.261  2.1820  2.9477  1.3035
31127WAT     H226314   6.253   2.347   1.182 -0.3840  0.1458 -0.5977
31127WAT    EPW26315   6.251   2.287   1.245  0.8297  0.7939  0.0988
31128WAT      O26316   2.817   2.219   3.733  0.0659 -0.6813  0.0239
31128WAT     H126317   2.783   2.171   3.808 -2.3094 -0.7120 -0.9611
31128WAT     H226318   2.911   2.206   3.736 -0.1472 -2.2314  1.9108
31128WAT    EPW26319   2.825   2.211   3.743 -0.2755 -0.8899  0.1428
31129WAT      O26320   5.077   2.380   5.743  0.7566  0.1601  0.2093
31129WAT     H126321   5.123   2.464   5.752 -0.1928  0.5830  1.2427
31129WAT     H226322   5.019   2.376   5.818  0.9146 -1.5291  0.2740
31129WAT    EPW26323   5.075   2.390   5.754  0.6523 -0.0070  0.3541
31130WAT      O26324  -0.383   5.833   7.552  0.0299  0.8900 -0.1884
31130WAT     H126325  -0.457   5.797   7.600 -0.3129  0.4018 -1.0693
31130WAT     H226326  -0.396   5.928   7.555  0.7074  0.9738  1.7742
31130WAT    EPW26327  -0.394   5.841   7.559  0.0741  0.8366 -0.0458
31131WAT      O26328   3.228   7.983   3.501  0.6845 -0.2944  0.2121
31131WAT     H126329   3.173   7.963   3.577  0.3507  1.9531  0.6330
31131WAT     H226330   3.252   7.897   3.465  1.5740 -1.4692  3.3408
31131WAT    EPW26331   3.224   7.969   3.506  0.7578 -0.1528  0.6802
31132WAT      O26332  -0.053   0.613   6.081  0.2984  0.2095  0.5342
31132WAT     H126333  -0.067   0.575   6.168  0.9679  0.0570  0.5750
31132WAT     H226334   0.039   0.597   6.062  0.1652  0.2736 -0.1908
31132WAT    EPW26335  -0.043   0.606   6.090  0.3691  0.1978  0.4442
31133WAT      O26336  -2.982   2.708   6.027  0.4084 -0.4374 -0.3222
31133WAT     H126337  -3.063   2.736   5.983 -0.8331 -1.7049  1.0421
31133WAT     H226338  -2.949   2.636   5.973  0.0410 -0.6092 -0.3211
31133WAT    EPW26339  -2.989   2.702   6.014  0.1962 -0.6272 -0.1421
31134WAT      O26340  -2.242   5.828   1.832  0.0556  0.4414  0.1228
31134WAT     H126341  -2.205   5.859   1.914 -1.7150  1.7414  0.5102
31134WAT     H226342  -2.327   5.873   1.826 -0.4879 -0.7101 -1.7237
31134WAT    EPW26343  -2.249   5.838   1.842 -0.2496  0.4609 -0.0696
31135WAT      O26344   6.080   1.201   3.258  0.5956 -0.1620 -0.4796
31135WAT     H126345   6.134   1.273   3.227  1.0880  0.6506  2.0368
31135WAT     H226346   6.116   1.178   3.343 -2.2357 -0.4339  0.7665
31135WAT    EPW26347   6.092   1.207   3.265  0.2871 -0.0907  0.0167
31136WAT      O26348  -3.035   1.243   7.727 -0.5280  0.1261  0.6299
31136WAT     H126349  -3.076   1.300   7.662 -0.7665  1.8781  2.2515
31136WAT     H226350  -2.981   1.301   7.780 -1.3068 -0.9956  2.7891
31136WAT    EPW26351  -3.034   1.258   7.725 -0.6622  0.2092  1.1287
31137WAT      O26352  -4.622   4.731   5.362 -0.0074 -0.1065  0.4173
31137WAT     H126353  -4.634   4.692   5.449  3.3794 -1.3254  0.4618
31137WAT     H226354  -4.657   4.665   5.302  0.0504 -0.4391  0.7422
31137WAT    EPW26355  -4.628   4.717   5.366  0.4468 -0.3111  0.4661
31138WAT      O26356   4.437   5.685   4.154  0.3221  0.1933 -0.5799
31138WAT     H126357   4.491   5.660   4.229  0.0583 -2.7147 -1.2525
31138WAT     H226358   4.497   5.682   4.079  0.1420  1.1212 -0.7720
31138WAT    EPW26359   4.452   5.681   4.154  0.2635 -0.0679 -0.6940
31139WAT      O26360   0.345   3.735   7.450  0.1396 -0.3316 -0.3162
31139WAT     H126361   0.344   3.789   7.529  0.8540 -0.2571 -0.3524
31139WAT     H226362   0.437   3.731   7.424  0.2581 -2.3266  0.2077
31139WAT    EPW26363   0.357   3.741   7.457  0.2495 -0.5850 -0.2518
31140WAT      O26364   5.984   0.636   7.774  1.0256  0.5943 -0.5714
31140WAT     H126365   5.912   0.697   7.762  1.0486  0.9261  0.8233
31140WAT     H226366   6.059   0.690   7.799  1.9976  0.3365 -2.7054
31140WAT    EPW26367   5.984   0.651   7.776  1.1566  0.6041 -0.6690
31141WAT      O26368   8.349   5.524   0.908 -0.4412  0.1042 -0.3862
31141WAT     H126369   8.299   5.474   0.844 -0.6822  1.3997 -1.2616
31141WAT     H226370   8.434   5.538   0.866 -0.3032  0.2252 -0.0674
31141WAT    EPW26371   8.354   5.519   0.894 -0.4544  0.2911 -0.4596
31142WAT      O26372   0.593   1.861   2.375 -0.4291  0.4153 -0.3505
31142WAT     H126373   0.672   1.877   2.427  0.3654  0.7170 -1.6062
31142WAT     H226374   0.550   1.945   2.370  0.8166  1.0121 -2.2349
31142WAT    EPW26375   0.598   1.874   2.381 -0.1600  0.5338 -0.7646
31143WAT      O26376   5.540   8.331   1.056 -0.2075 -0.3875  0.2352
31143WAT     H126377   5.511   8.410   1.102 -1.2467 -0.0211 -1.0102
31143WAT     H226378   5.515   8.345   0.965 -0.2851 -2.0996 -0.0432
31143WAT    EPW26379   5.533   8.343   1.050 -0.3548 -0.5651  0.0342
31144WAT      O26380  -2.125   6.782   2.317  0.2772  0.7258  0.5485
31144WAT     H126381  -2.137   6.854   2.256  0.2754 -0.0951 -0.4373
31144WAT     H226382  -2.212   6.742   2.325  0.2138  0.9934  1.3133
31144WAT    EPW26383  -2.138   6.786   2.310  0.2685  0.6526  0.5193
31145WAT      O26384   4.115   0.978   2.430 -0.5158 -0.6717  0.2314
31145WAT     H126385   4.166   1.009   2.506  0.1711  0.2885 -0.5831
31145WAT     H226386   4.050   1.047   2.416 -2.0487 -1.8633  1.2208
31145WAT    EPW26387   4.113   0.991   2.439 -0.6275 -0.7022  0.2545
31146WAT      O26388  -0.458   3.997   6.227  0.1184 -0.3750  0.5798
31146WAT     H126389  -0.510   4.048   6.289  0.4743  0.4314  0.2324
31146WAT     H226390  -0.393   3.952   6.281  0.3542  0.2314  0.8020
31146WAT    EPW26391  -0.457   3.998   6.242  0.1964 -0.1887  0.5631
31147WAT      O26392  -1.295   5.118   4.430 -0.4186 -0.0140  0.4658
31147WAT     H126393  -1.347   5.199   4.437  0.7452  0.7594  0.3586
31147WAT     H226394  -1.241   5.131   4.352  2.4151  0.7003  2.4156
31147WAT    EPW26395  -1.295   5.130   4.421  0.1086  0.1822  0.7088
31148WAT      O26396  -5.753  10.331   7.981 -0.1739  0.0203 -0.4289
31148WAT     H126397  -5.686  10.353   7.916 -0.5010  1.8668 -0.1991
31148WAT     H226398  -5.730  10.383   8.057  0.9441 -3.0421  1.5252
31148WAT    EPW26399  -5.741  10.341   7.982 -0.0696 -0.1400 -0.1407
31149WAT      O26400   0.960  10.342   6.868 -0.4737 -0.2316 -0.6097
31149WAT     H126401   0.916  10.258   6.886 -1.4960 -0.0797 -2.1647
31149WAT     H226402   0.899  10.389   6.812  1.4233  0.2628 -2.3774
31149WAT    EPW26403   0.946  10.337   6.863 -0.3583 -0.1464 -1.0478
31150WAT      O26404   0.643   8.240   3.009  0.0141  0.0240  0.0559
31150WAT     H126405   0.645   8.327   3.046 -1.1189  0.3116 -0.5068
31150WAT     H226406   0.727   8.231   2.963  0.4003  0.5632  0.6535
31150WAT    EPW26407   0.655   8.250   3.008 -0.0844  0.1326  0.0606
31151WAT      O26408   4.024   3.440   5.115  0.3223 -0.2048 -0.2173
31151WAT     H126409   3.949   3.472   5.064 -1.9419 -1.5170  2.0374
31151WAT     H226410   4.065   3.518   5.150  0.9840  0.6283 -2.6571
31151WAT    EPW26411   4.020   3.454   5.113  0.1111 -0.2681 -0.2418
31152WAT      O26412   1.635   2.914   0.954 -0.2412 -0.3324  0.4098
31152WAT     H126413   1.588   2.843   0.909  1.6372  0.3948 -3.0753
31152WAT     H226414   1.618   2.991   0.900  2.2562  0.6312  0.8834
31152WAT    EPW26415   1.626   2.915   0.941  0.3360 -0.1094  0.0126
31153WAT      O26416   3.958   0.084   0.535 -0.6233 -0.2775  0.1825
31153WAT     H126417   3.949  -0.002   0.494  0.5527 -0.0524 -0.5931
31153WAT     H226418   3.967   0.145   0.461  0.3117  0.2955  0.7423
31153WAT    EPW26419   3.958   0.081   0.520 -0.3448 -0.1723  0.1540
31154WAT      O26420  -3.658   6.074   8.568 -0.1723 -0.2935  0.1862
31154WAT     H126421  -3.724   6.144   8.561 -0.7884 -0.4023  3.3962
31154WAT     H226422  -3.708   5.993   8.562 -0.2226 -0.3820  1.5282
31154WAT    EPW26423  -3.673   6.073   8.566 -0.2601 -0.3197  0.7868
31155WAT      O26424  -1.516   8.770   0.322 -0.0906 -0.0466 -0.2591
31155WAT     H126425  -1.550   8.795   0.408  0.4307 -1.3610  0.3629
31155WAT     H226426  -1.563   8.689   0.301  1.6850 -1.2174  0.0572
31155WAT    EPW26427  -1.527   8.762   0.331  0.2124 -0.3743 -0.1353
31156WAT      O26428   2.546   6.619   4.532  0.0914  0.0622 -0.1333
31156WAT     H126429   2.597   6.668   4.597 -1.1468  2.0781 -0.5917
31156WAT     H226430   2.605   6.606   4.459  1.0046 -0.7967  0.7302
31156WAT    EPW26431   2.560   6.623   4.531  0.0485  0.2151 -0.0799
31157WAT      O26432   2.548   8.511   8.574  0.1239  0.0524  0.2648
31157WAT     H126433   2.486   8.449   8.612 -1.4656  1.5675  0.2585
31157WAT     H226434   2.566   8.477   8.486  0.7509 -1.3591  0.9068
31157WAT    EPW26435   2.542   8.498   8.567 -0.0031  0.0663  0.3486
31158WAT      O26436   5.361   3.670   1.007  0.0805 -0.9607 -0.8728
31158WAT     H126437   5.346   3.698   1.098  0.6480  2.2893 -1.6732
31158WAT     H226438   5.321   3.583   1.003 -1.3423 -0.5887  2.0860
31158WAT    EPW26439   5.353   3.662   1.019 -0.0324 -0.4830 -0.5881
31159WAT      O26440  -3.368   9.658   3.626  1.1176  0.5387  0.1706
31159WAT     H126441  -3.348   9.751   3.612  0.1521  0.3746 -3.2145
31159WAT     H226442  -3.311   9.612   3.564  1.0927 -1.1193  1.3114
31159WAT    EPW26443  -3.358   9.664   3.616  0.9869  0.2985 -0.1254
31160WAT      O26444  -1.470   3.733   7.625 -0.0130  0.1009  0.0138
31160WAT     H126445  -1.489   3.778   7.543 -0.2261  1.5873  0.8397
31160WAT     H226446  -1.395   3.677   7.605  0.2075  0.7525 -1.0728
31160WAT    EPW26447  -1.463   3.732   7.612 -0.0121  0.3829 -0.0207
31161WAT      O26448  -4.505  10.277   7.696 -0.2737  0.2904 -0.3684
31161WAT     H126449  -4.487  10.217   7.623 -1.8074  0.8136 -1.2119
31161WAT     H226450  -4.439  10.346   7.687  0.0233 -0.0394 -0.7818
31161WAT    EPW26451  -4.494  10.278   7.685 -0.4368  0.3161 -0.5345
31162WAT      O26452  -4.552   1.846   6.584 -0.1919 -0.6223 -0.3097
31162WAT     H126453  -4.466   1.885   6.573  0.6226 -2.4142 -0.6785
31162WAT     H226454  -4.613   1.912   6.553  1.1151  0.2642 -1.0727
31162WAT    EPW26455  -4.549   1.860   6.579  0.0880 -0.7418 -0.4590
31163WAT      O26456   4.140   6.377   7.231  0.4282 -0.1918 -0.1823
31163WAT     H126457   4.138   6.293   7.277  0.7393 -0.5672 -0.8521
31163WAT     H226458   4.209   6.368   7.166 -0.1247  0.2714 -0.8508
31163WAT    EPW26459   4.149   6.365   7.229  0.3963 -0.1800 -0.3586
31164WAT      O26460   7.625   1.131   2.633 -0.3919 -0.6218 -0.0322
31164WAT     H126461   7.594   1.206   2.684 -0.6715 -0.7938  0.0541
31164WAT     H226462   7.546   1.078   2.618  0.1334 -2.0218  1.7684
31164WAT    EPW26463   7.611   1.134   2.638 -0.3595 -0.8292  0.2167
31165WAT      O26464   2.245  10.351   1.225  0.8131  0.2052  0.1971
31165WAT     H126465   2.255  10.266   1.183  0.2741  0.2961 -0.1294
31165WAT     H226466   2.292  10.343   1.308  1.1206 -0.2712 -0.0233
31165WAT    EPW26467   2.252  10.339   1.230  0.7825  0.1545  0.1250
31166WAT      O26468  -0.925   4.498   4.750  0.2892 -0.0918  0.0143
31166WAT     H126469  -0.885   4.584   4.739 -2.0546  0.8530 -2.3434
31166WAT     H226470  -0.995   4.496   4.684 -2.0929 -2.4108  2.3688
31166WAT    EPW26471  -0.929   4.509   4.740 -0.3341 -0.2730  0.0141
31167WAT      O26472  -1.206   1.545   1.960 -0.0194  0.5956 -0.2588
31167WAT     H126473  -1.134   1.505   1.909 -0.6025  1.0045 -1.4453
31167WAT     H226474  -1.205   1.497   2.043 -1.3059 -2.6925 -1.9455
31167WAT    EPW26475  -1.196   1.533   1.964 -0.2660  0.2158 -0.6377
31168WAT      O26476  -0.154   3.978   0.922 -0.8521  0.2393  0.4181
31168WAT     H126477  -0.248   3.965   0.915 -1.0961  1.9453  0.2615
31168WAT     H226478  -0.140   4.069   0.897  1.0200 -0.4126 -1.2164
31168WAT    EPW26479  -0.164   3.988   0.918 -0.6374  0.3784  0.1819
31169WAT      O26480   4.427   0.673   8.058  0.3688  0.5159  0.0793
31169WAT     H126481   4.381   0.628   7.987  0.4186  1.4308 -0.5419
31169WAT     H226482   4.374   0.751   8.075  0.3569  0.3003  1.0579
31169WAT    EPW26483   4.414   0.677   8.051  0.3736  0.6081  0.1264
31170WAT      O26484  -4.127   6.925   3.281 -0.8770  0.1090  0.3041
31170WAT     H126485  -4.218   6.922   3.251 -1.1525  2.5539  0.6834
31170WAT     H226486  -4.087   6.994   3.227  0.7710 -0.9125  0.1563
31170WAT    EPW26487  -4.133   6.934   3.270 -0.6959  0.2968  0.3347
31171WAT      O26488   8.620   1.609   2.383 -0.1895  0.4207 -0.2159
31171WAT     H126489   8.690   1.667   2.354 -0.7518  0.1500 -2.3015
31171WAT     H226490   8.665   1.531   2.415  0.5930  1.9910  2.9026
31171WAT    EPW26491   8.635   1.606   2.383 -0.1607  0.5922 -0.0796
31172WAT      O26492   2.311   2.023   6.911  0.4205  0.4388  0.4538
31172WAT     H126493   2.375   1.965   6.952  1.6729  1.9573  0.7216
31172WAT     H226494   2.257   1.965   6.858  2.1192 -0.8799  0.0790
31172WAT    EPW26495   2.312   2.007   6.910  0.8098  0.4650  0.4396
31173WAT      O26496   0.007   7.875   1.701  0.3486 -0.0684 -0.3536
31173WAT     H126497   0.051   7.922   1.773 -1.5042  1.2032  0.0450
31173WAT     H226498  -0.055   7.817   1.745  0.2531 -0.4009 -0.9157
31173WAT    EPW26499   0.005   7.874   1.717  0.0916  0.0553 -0.3752
31174WAT      O26500  -1.291   2.732   3.872 -0.0019 -0.3097 -0.2427
31174WAT     H126501  -1.359   2.724   3.805  0.7382 -0.0555 -1.0450
31174WAT     H226502  -1.221   2.674   3.842  1.1292  1.2192 -0.7202
31174WAT    EPW26503  -1.291   2.723   3.859  0.2449 -0.0744 -0.4115
31175WAT      O26504  -0.653   5.384   3.175  0.1063 -0.8954 -0.0126
31175WAT     H126505  -0.719   5.316   3.182 -0.4914 -0.3014  0.1810
31175WAT     H226506  -0.701   5.466   3.182  1.0542 -0.4410  1.9894
31175WAT    EPW26507  -0.668   5.386   3.177  0.1525 -0.7570  0.2770
31176WAT      O26508   0.633   1.780   4.553 -0.5352 -0.7598  0.2480
31176WAT     H126509   0.695   1.846   4.586 -2.1579  1.2784 -0.5564
31176WAT     H226510   0.689   1.708   4.524  1.2429 -0.4615  2.5738
31176WAT    EPW26511   0.649   1.779   4.554 -0.5147 -0.4516  0.4487
31177WAT      O26512   1.550   7.407   8.297 -0.0459 -0.2971  0.5005
31177WAT     H126513   1.546   7.380   8.389  1.0037 -0.4619  0.5183
31177WAT     H226514   1.532   7.327   8.248  1.4381 -0.6984  0.5657
31177WAT    EPW26515   1.547   7.393   8.303  0.2882 -0.3717  0.5112
31178WAT      O26516   5.848   3.263   4.483  0.1852  0.6650  0.4403
31178WAT     H126517   5.804   3.231   4.404  2.2206 -0.2418 -0.3932
31178WAT     H226518   5.778   3.302   4.535 -1.3792  0.4131 -1.3608
31178WAT    EPW26519   5.833   3.264   4.479  0.2472  0.5121  0.0930
31179WAT      O26520   5.715   3.746   3.681 -0.0744 -0.9237  0.1088
31179WAT     H126521   5.732   3.839   3.696 -0.0077 -1.0012  0.4975
31179WAT     H226522   5.643   3.725   3.739  1.0984 -1.5602  1.3758
31179WAT    EPW26523   5.708   3.756   3.690  0.0889 -1.0179  0.3272
31180WAT      O26524   3.962   7.688   0.762  0.2915  0.3958 -0.3575
31180WAT     H126525   4.006   7.706   0.845 -0.0916  2.4410 -0.5612
31180WAT     H226526   3.900   7.618   0.783  0.0257  1.0529  1.1545
31180WAT    EPW26527   3.960   7.681   0.776  0.2059  0.7522 -0.1850
31181WAT      O26528  -0.543   4.855   7.316  0.2326 -0.2511  0.1796
31181WAT     H126529  -0.625   4.863   7.267  0.4009  0.1824 -0.0376
31181WAT     H226530  -0.510   4.768   7.293 -0.3883 -0.6056  0.6244
31181WAT    EPW26531  -0.549   4.845   7.306  0.1729 -0.2408  0.2096
31182WAT      O26532   5.326   2.302   0.282  0.5605  0.1110  1.2864
31182WAT     H126533   5.363   2.267   0.363 -0.1374  3.2889  3.1696
31182WAT     H226534   5.402   2.329   0.230  1.0019 -0.9205  1.3899
31182WAT    EPW26535   5.341   2.301   0.286  0.5264  0.3940  1.5485
31183WAT      O26536  -0.896   6.473   1.657 -0.4370  0.7537  0.6431
31183WAT     H126537  -0.808   6.462   1.621 -1.0769 -0.8800 -0.5066
31183WAT     H226538  -0.918   6.564   1.638 -0.4981  0.1534 -2.6121
31183WAT    EPW26539  -0.887   6.483   1.650 -0.5295  0.4590  0.0621
31184WAT      O26540   4.729   4.631   3.599 -0.3441  0.3944  0.0475
31184WAT     H126541   4.682   4.614   3.517 -2.6049 -1.3960  1.5861
31184WAT     H226542   4.660   4.638   3.665  1.4539  0.3437  2.0490
31184WAT    EPW26543   4.714   4.630   3.597 -0.4051  0.1516  0.5144
31185WAT      O26544   5.514   5.969   5.139 -0.2605 -0.2139  0.1030
31185WAT     H126545   5.508   5.909   5.214 -2.5664  0.0541  0.2225
31185WAT     H226546   5.457   5.928   5.073  1.0104  0.0322 -1.1708
31185WAT    EPW26547   5.505   5.955   5.140 -0.3972 -0.1462 -0.0494
31186WAT      O26548   9.364   0.156   0.301 -0.0491  0.1874  0.5128
31186WAT     H126549   9.340   0.188   0.214  0.4368 -0.3480  0.1759
31186WAT     H226550   9.285   0.170   0.354 -0.7261 -0.5135 -0.2956
31186WAT    EPW26551   9.350   0.162   0.297 -0.0744  0.0243  0.3617
31187WAT      O26552  -0.977   2.808   6.202 -0.5656  0.2200  0.0207
31187WAT     H126553  -1.062   2.810   6.158  1.0572  1.1776 -3.4390
31187WAT     H226554  -0.973   2.890   6.252 -2.6677 -1.1427  2.7020
31187WAT    EPW26555  -0.988   2.819   6.203 -0.6289  0.1665 -0.0818
31188WAT      O26556  -0.880   5.553   4.794 -0.5003  0.8028 -0.1100
31188WAT     H126557  -0.862   5.463   4.765 -0.2580  1.2339 -1.4027
31188WAT     H226558  -0.973   5.566   4.774 -0.5169  0.8551  0.0057
31188WAT    EPW26559  -0.890   5.542   4.787 -0.4705  0.8664 -0.2651
31189WAT      O26560   9.083   1.463   0.794  0.5829 -0.3483  0.0630
31189WAT     H126561   9.054   1.527   0.860  1.8936 -0.8446  1.1668
31189WAT     H226562   9.125   1.516   0.727 -3.3457  0.4919 -2.0092
31189WAT    EPW26563   9.084   1.478   0.794  0.2375 -0.3030 -0.0647
31190WAT      O26564   5.003   1.635   1.775 -0.2165 -0.4032 -0.1163
31190WAT     H126565   4.950   1.699   1.822  2.1683  2.1975 -0.6863
31190WAT     H226566   5.042   1.581   1.844 -1.9886 -1.0943  0.3933
31190WAT    EPW26567   5.001   1.636   1.791 -0.1357 -0.1513 -0.1242
31191WAT      O26568   2.887   8.899   2.604  0.2948 -0.2182  0.3822
31191WAT     H126569   2.853   8.844   2.533 -0.2374  1.1872 -0.5054
31191WAT     H226570   2.928   8.837   2.665  2.0625 -1.3943 -1.8419
31191WAT    EPW26571   2.888   8.884   2.603  0.4578 -0.1884 -0.0281
31192WAT      O26572   6.633   2.691   0.694 -0.0832 -0.0663  0.7419
31192WAT     H126573   6.598   2.637   0.622  0.4625  1.5224 -0.7780
31192WAT     H226574   6.690   2.631   0.742 -0.6453 -1.2452  0.0146
31192WAT    EPW26575   6.636   2.676   0.691 -0.0851 -0.0122  0.4455
31193WAT      O26576  -5.884  10.183   5.302 -0.3545  0.2481  0.7687
31193WAT     H126577  -5.909  10.262   5.350  0.7428  1.6604 -0.9118
31193WAT     H226578  -5.860  10.213   5.215 -0.2953 -2.0008 -0.0664
31193WAT    EPW26579  -5.884  10.197   5.297 -0.2019  0.1383  0.4368
31194WAT      O26580  -3.905   0.402   7.783 -0.6932 -0.7924 -0.0680
31194WAT     H126581  -3.853   0.439   7.711  0.8806  0.3133  1.5203
31194WAT     H226582  -3.977   0.464   7.794 -0.9105 -0.9371 -0.6537
31194WAT    EPW26583  -3.908   0.415   7.775 -0.5143 -0.6657  0.0644
31195WAT      O26584   4.816   3.329   4.903 -0.2603  0.2479 -0.2178
31195WAT     H126585   4.849   3.256   4.956  1.6560  0.7978 -0.5754
31195WAT     H226586   4.822   3.299   4.813 -0.4728  0.4687 -0.3078
31195WAT    EPW26587   4.821   3.316   4.898 -0.0355  0.3494 -0.2770
31196WAT      O26588  -1.861   8.995   8.570 -0.0145 -0.7337  0.0157
31196WAT     H126589  -1.878   8.926   8.506 -1.8558 -0.7961  0.5065
31196WAT     H226590  -1.786   8.964   8.620 -0.1838 -1.9043 -0.4293
31196WAT    EPW26591  -1.853   8.982   8.568 -0.2797 -0.8960  0.0215
31197WAT      O26592  -4.936   1.675   8.926  0.3181  0.5365  0.6617
31197WAT     H126593  -4.891   1.707   8.847  0.0198  0.3136  0.4000
31197WAT     H226594  -5.024   1.652   8.896  1.7902 -5.2930 -0.3449
31197WAT    EPW26595  -4.942   1.676   8.911  0.4733 -0.2618  0.4945
31198WAT      O26596  -2.530   9.536   0.128 -0.2516  0.0361 -0.3642
31198WAT     H126597  -2.475   9.549   0.205 -1.7201 -2.5092  1.2656
31198WAT     H226598  -2.472   9.494   0.064  0.6895  1.1314 -0.2534
31198WAT    EPW26599  -2.515   9.532   0.130 -0.3211 -0.1554 -0.1347
31199WAT      O26600   2.490   2.792   4.282 -0.6164 -0.7789 -0.9380
31199WAT     H126601   2.500   2.856   4.353  0.5554 -2.0805  0.1113
31199WAT     H226602   2.410   2.744   4.303 -1.0142 -0.2779 -1.2598
31199WAT    EPW26603   2.481   2.794   4.294 -0.5144 -0.8844 -0.8421
31200WAT      O26604  -2.959  10.169   6.514  0.1688 -0.0983 -0.4650
31200WAT     H126605  -3.026  10.180   6.581  1.7862 -1.1803  1.4280
31200WAT     H226606  -2.903  10.246   6.523  2.6845 -1.9979  2.3412
31200WAT    EPW26607  -2.960  10.181   6.524  0.7139 -0.4916  0.1547
31201WAT      O26608  -0.488   5.912   7.095 -0.7558  0.4637  0.1716
31201WAT     H126609  -0.432   5.882   7.167 -0.5840  0.4949  0.0517
31201WAT     H226610  -0.557   5.962   7.138 -1.0087 -0.0439  0.3656
31201WAT    EPW26611  -0.490   5.915   7.110 -0.7665  0.4010  0.1814
31202WAT      O26612  -4.501   7.192   3.755 -0.1017  0.2446  0.2400
31202WAT     H126613  -4.553   7.123   3.713  0.2256 -1.8710  3.0314
31202WAT     H226614  -4.562   7.235   3.815  0.5684 -0.1498  1.2263
31202WAT    EPW26615  -4.516   7.188   3.757  0.0300 -0.0865  0.7381
31203WAT      O26616   3.697   4.946   7.261  0.1893 -0.2330  0.6909
31203WAT     H126617   3.688   5.020   7.202 -0.5914  1.4793  2.8084
31203WAT     H226618   3.614   4.942   7.309 -0.4976 -3.6207 -0.4883
31203WAT    EPW26619   3.685   4.955   7.260 -0.0043 -0.4542  0.8147
31204WAT      O26620  -4.801   6.451   4.648 -0.0164  0.0456 -0.3740
31204WAT     H126621  -4.833   6.365   4.621 -0.0654  0.3877 -1.4799
31204WAT     H226622  -4.747   6.433   4.725  0.8451 -1.1232 -1.2041
31204WAT    EPW26623  -4.798   6.437   4.655  0.0908 -0.0632 -0.6292
31205WAT      O26624  -1.209   6.212   5.408  0.2117  0.1837  0.1705
31205WAT     H126625  -1.122   6.248   5.390  1.6638 -2.1809  1.7665
31205WAT     H226626  -1.202   6.120   5.381 -0.4238 -1.0911  3.7728
31205WAT    EPW26627  -1.197   6.205   5.402  0.3194 -0.2964  0.8559
31206WAT      O26628   1.123   2.778   6.864 -0.3021  0.2469  0.0578
31206WAT     H126629   1.138   2.756   6.956 -3.8280 -1.3515  0.4257
31206WAT     H226630   1.028   2.786   6.857 -0.2681 -0.8107 -3.6978
31206WAT    EPW26631   1.112   2.776   6.875 -0.7627 -0.1034 -0.3891
31207WAT      O26632  -2.419   8.160   6.768  0.1418 -0.0634  0.3782
31207WAT     H126633  -2.475   8.221   6.816 -0.0454 -1.1779  1.6287
31207WAT     H226634  -2.462   8.075   6.777  0.5600 -0.4475 -1.0604
31207WAT    EPW26635  -2.432   8.157   6.776  0.1723 -0.2613  0.3536
31208WAT      O26636  -4.208   8.913   4.168 -0.6976 -0.4178 -0.4316
31208WAT     H126637  -4.235   8.980   4.105 -1.2414 -1.7340 -1.6352
31208WAT     H226638  -4.227   8.952   4.254 -4.2433 -0.3066 -1.1255
31208WAT    EPW26639  -4.214   8.927   4.171 -1.2372 -0.5765 -0.6819
31209WAT      O26640   6.604   3.530   0.795 -0.7309  0.1522 -0.0280
31209WAT     H126641   6.637   3.448   0.759  2.5854 -0.3601  3.4387
31209WAT     H226642   6.514   3.511   0.820 -0.2666 -2.2926  0.0640
31209WAT    EPW26643   6.597   3.517   0.794 -0.2322 -0.2379  0.4413
31210WAT      O26644   2.822   5.205   4.775 -0.3670  0.7873  0.4871
31210WAT     H126645   2.766   5.130   4.755 -1.1759  0.6428  3.0283
31210WAT     H226646   2.907   5.167   4.793 -0.6587  0.4967  1.3034
31210WAT    EPW26647   2.825   5.191   4.775 -0.5122  0.7298  0.9301
31211WAT      O26648   4.130   8.741   5.603  0.4974 -0.7679 -0.1342
31211WAT     H126649   4.045   8.715   5.638 -0.8239  0.6254 -2.1235
31211WAT     H226650   4.151   8.674   5.538  2.0810 -2.3513  1.8792
31211WAT    EPW26651   4.122   8.729   5.599  0.5319 -0.7925 -0.1311
31212WAT      O26652  -3.762   7.953   6.796  0.0452  0.0881 -0.1870
31212WAT     H126653  -3.691   7.890   6.807  0.6460  0.7339 -0.2915
31212WAT     H226654  -3.834   7.902   6.759  0.1751 -0.7458  0.6726
31212WAT    EPW26655  -3.762   7.938   6.793  0.1414  0.0634 -0.0873
31213WAT      O26656   4.737   4.840   7.391  0.3773 -0.2517 -0.6112
31213WAT     H126657   4.782   4.818   7.473  0.4176  0.4077 -0.4472
31213WAT     H226658   4.747   4.763   7.336  0.6425 -0.5727 -0.1129
31213WAT    EPW26659   4.745   4.827   7.395  0.4177 -0.2072 -0.5238
31214WAT      O26660  -2.182   9.978   0.380 -0.0023 -0.1212 -0.1742
31214WAT     H126661  -2.108   9.929   0.345 -0.7794 -1.3024 -0.2339
31214WAT     H226662  -2.232  10.005   0.302  0.2856  0.5641 -0.1292
31214WAT    EPW26663  -2.179   9.975   0.365 -0.0669 -0.1864 -0.1762
31215WAT      O26664  -0.101   0.959   8.755  0.1265  0.8199  0.2949
31215WAT     H126665  -0.156   0.913   8.817 -1.5819  0.1511 -1.6050
31215WAT     H226666  -0.012   0.932   8.777 -0.4438  0.3325  2.1732
31215WAT    EPW26667  -0.096   0.950   8.766 -0.1740  0.6674  0.2923
31216WAT      O26668   1.285   0.983   3.686 -0.0538 -1.0471 -0.6250
31216WAT     H126669   1.208   0.946   3.730 -0.4432  0.0038 -0.3859
31216WAT     H226670   1.302   1.064   3.733  0.8445 -0.9688 -1.0709
31216WAT    EPW26671   1.277   0.989   3.698  0.0133 -0.8982 -0.6523
31217WAT      O26672  -2.637  10.220   3.057 -0.2896 -0.7027  0.2919
31217WAT     H126673  -2.558  10.271   3.039 -0.1117 -0.9167  0.4546
31217WAT     H226674  -2.709  10.277   3.032 -0.0911 -0.3758  0.4663
31217WAT    EPW26675  -2.636  10.234   3.051 -0.2400 -0.6871  0.3364
31218WAT      O26676   3.918   0.856   0.503 -1.1102  0.8083 -0.4520
31218WAT     H126677   3.996   0.905   0.476  0.0982 -1.3278 -1.0331
31218WAT     H226678   3.848   0.892   0.448 -0.0104  1.0166 -1.7814
31218WAT    EPW26679   3.919   0.867   0.492 -0.8059  0.5541 -0.7039
31219WAT      O26680   1.359   0.418   7.542 -0.2617  0.6691 -0.6608
31219WAT     H126681   1.391   0.328   7.552 -0.8248  0.6508  1.5677
31219WAT     H226682   1.328   0.442   7.630 -4.8145  1.2144 -2.1604
31219WAT    EPW26683   1.359   0.409   7.555 -0.9364  0.7386 -0.5646
31220WAT      O26684   3.084   5.339   8.659 -0.1751  0.6469 -0.3525
31220WAT     H126685   2.993   5.310   8.664  0.0238 -0.1158 -0.8772
31220WAT     H226686   3.130   5.263   8.623  0.3958  1.5922 -1.6728
31220WAT    EPW26687   3.078   5.325   8.655 -0.0736  0.6709 -0.5956
31221WAT      O26688   5.047   3.533   2.403 -0.6464 -0.1093  0.0234
31221WAT     H126689   5.047   3.611   2.348  1.7358  0.1933  0.3542
31221WAT     H226690   4.997   3.559   2.481  0.4244  1.2467  0.2963
31221WAT    EPW26691   5.040   3.547   2.406 -0.1910  0.1093  0.1030
31222WAT      O26692   3.387   0.045   5.952 -0.2409  0.2486  0.3128
31222WAT     H126693   3.297   0.042   5.983 -0.8873 -0.9862 -1.5031
31222WAT     H226694   3.387   0.117   5.888 -0.5644 -1.1183 -1.3028
31222WAT    EPW26695   3.375   0.054   5.948 -0.3687 -0.0946 -0.1397
31223WAT      O26696   0.970   5.271   7.636 -0.0723  0.5542  0.3150
31223WAT     H126697   0.984   5.225   7.553  4.9978  0.3410  0.9513
31223WAT     H226698   0.961   5.201   7.701 -3.1107  0.7223  0.2020
31223WAT    EPW26699   0.971   5.256   7.634  0.1957  0.5484  0.3841
31224WAT      O26700  -1.591   0.836   7.392 -0.7072 -0.4084 -0.6461
31224WAT     H126701  -1.672   0.884   7.376  0.6755  2.4383  0.2775
31224WAT     H226702  -1.570   0.795   7.308 -3.4524 -1.9599 -0.6930
31224WAT    EPW26703  -1.599   0.837   7.379 -0.8869 -0.2376 -0.5302
31225WAT      O26704  -0.042   0.609   5.299 -0.4302 -0.6649  0.1908
31225WAT     H126705  -0.097   0.536   5.329  1.0476 -2.0584 -0.3011
31225WAT     H226706  -0.059   0.615   5.205 -0.9156 -0.0333  0.3163
31225WAT    EPW26707  -0.051   0.600   5.291 -0.2993 -0.7654  0.1423
31226WAT      O26708   1.139   0.615   1.863  0.3336  0.2308 -0.5757
31226WAT     H126709   1.055   0.654   1.838 -0.8192  0.8046  3.3835
31226WAT     H226710   1.204   0.684   1.847 -0.3578  0.7045 -1.3899
31226WAT    EPW26711   1.136   0.630   1.858  0.0904  0.3690 -0.1609
31227WAT      O26712   2.360   7.202   8.262 -0.4413 -0.5854 -0.0609
31227WAT     H126713   2.276   7.221   8.306 -0.4299  0.6265 -0.5297
31227WAT     H226714   2.373   7.276   8.203  2.1652  0.5518  1.7675
31227WAT    EPW26715   2.350   7.215   8.260 -0.0960 -0.2756  0.1187
31228WAT      O26716   0.138   7.868   6.671 -0.1429 -0.7310 -0.6245
31228WAT     H126717   0.093   7.796   6.715  2.4133 -1.3624  1.1430
31228WAT     H226718   0.077   7.942   6.678 -1.7955 -2.0595 -0.3261
31228WAT    EPW26719   0.124   7.868   6.678 -0.0237 -0.9894 -0.3519
31229WAT      O26720   1.974   7.051   6.146  1.0683  0.6116 -0.0480
31229WAT     H126721   2.040   7.112   6.181 -0.6779  1.2960  2.2738
31229WAT     H226722   1.915   7.106   6.096  1.7231  0.1218 -1.4147
31229WAT    EPW26723   1.975   7.066   6.144  0.9243  0.6371  0.0780
31230WAT      O26724  -5.761  10.030   6.645 -0.0303  0.3041  0.2666
31230WAT     H126725  -5.733   9.957   6.701 -0.0588 -0.3314 -0.5238
31230WAT     H226726  -5.681  10.064   6.606  0.1029  1.4001  1.4396
31230WAT    EPW26727  -5.747  10.025   6.647 -0.0165  0.3648  0.3169
31231WAT      O26728   2.788   4.478   5.147 -0.3376  0.2005  0.1549
31231WAT     H126729   2.840   4.411   5.193  0.6412 -0.3853 -1.7044
31231WAT     H226730   2.812   4.560   5.191  1.2288 -0.2197  0.1750
31231WAT    EPW26731   2.798   4.480   5.159 -0.0019  0.0677 -0.0875
31232WAT      O26732  -4.424   8.147   8.450  0.3353  0.5423 -0.1086
31232WAT     H126733  -4.446   8.145   8.543  0.9777  2.4530  0.1354
31232WAT     H226734  -4.344   8.199   8.446 -1.7061  3.9052 -2.0407
31232WAT    EPW26735  -4.416   8.154   8.461  0.1507  1.2383 -0.3314
31233WAT      O26736  -6.051   7.825   8.840  0.3748  0.1983 -0.3064
31233WAT     H126737  -6.117   7.780   8.893  0.3998  0.9240  0.3500
31233WAT     H226738  -5.978   7.840   8.899  0.8345  0.0815 -0.8337
31233WAT    EPW26739  -6.050   7.821   8.855  0.4387  0.2782 -0.2899
31234WAT      O26740   0.947  10.218   6.440 -0.0744  0.2038  0.5428
31234WAT     H126741   0.870  10.265   6.407 -1.3521 -1.6943  0.6690
31234WAT     H226742   0.974  10.162   6.367  0.8970  0.4632  0.6826
31234WAT    EPW26743   0.940  10.217   6.426 -0.1148 -0.0129  0.5777
31235WAT      O26744   2.985   8.165   3.520  0.2112 -0.3088 -0.1879
31235WAT     H126745   2.916   8.110   3.556 -0.8594  0.1948 -1.3836
31235WAT     H226746   3.063   8.111   3.524 -0.6575 -1.6411 -0.5992
31235WAT    EPW26747   2.986   8.151   3.525 -0.0446 -0.4182 -0.3998
31236WAT      O26748   5.946   3.836   3.035 -0.0279 -0.0188 -0.4196
31236WAT     H126749   6.040   3.825   3.028  0.1064 -1.2469  2.1231
31236WAT     H226750   5.925   3.809   3.125 -2.7705  0.3988 -0.8343
31236WAT    EPW26751   5.955   3.831   3.046 -0.3719 -0.1258 -0.1389
31237WAT      O26752   1.323   4.872   0.477  0.4236  0.1059 -0.1024
31237WAT     H126753   1.230   4.869   0.455  0.0850  2.5578  0.7023
31237WAT     H226754   1.365   4.903   0.397 -0.2480  4.4799  0.9967
31237WAT    EPW26755   1.316   4.876   0.463  0.2903  1.0064  0.1487
31238WAT      O26756   4.873   9.469   2.167  0.0031  0.1815  0.3884
31238WAT     H126757   4.811   9.440   2.099 -0.4880  0.2238  0.8071
31238WAT     H226758   4.952   9.494   2.119  1.2009 -3.6064  0.0936
31238WAT    EPW26759   4.875   9.469   2.151  0.0963 -0.3128  0.4047
31239WAT      O26760   6.823   5.620   0.761 -0.2708  0.0827  0.4430
31239WAT     H126761   6.764   5.583   0.695  0.9409  0.4793 -0.9014
31239WAT     H226762   6.877   5.546   0.789  1.7407  0.5960 -1.8017
31239WAT    EPW26763   6.822   5.605   0.756  0.1545  0.2027 -0.0304
31240WAT      O26764   0.535   3.421   0.234  0.3064  0.7040  0.1637
31240WAT     H126765   0.522   3.383   0.321 -0.3501  1.4537  0.4077
31240WAT     H226766   0.523   3.348   0.173 -0.8061  0.4909  0.6287
31240WAT    EPW26767   0.532   3.407   0.237  0.0731  0.7747  0.2572
31241WAT      O26768   4.317   1.828   6.093  0.2264  0.3209 -0.1881
31241WAT     H126769   4.326   1.919   6.121  1.0341 -0.3309  1.9182
31241WAT     H226770   4.354   1.826   6.005  1.7725  1.7299  0.3712
31241WAT    EPW26771   4.323   1.840   6.085  0.5367  0.4208  0.1633
31242WAT      O26772   4.523   5.215   0.633 -0.0157 -0.0579  0.2724
31242WAT     H126773   4.595   5.178   0.685 -0.1658  0.7745  1.1007
31242WAT     H226774   4.482   5.279   0.691 -2.1704 -1.3294  0.2634
31242WAT    EPW26775   4.527   5.219   0.648 -0.3197 -0.1156  0.3804
31243WAT      O26776  -2.582   3.340   2.967  0.0082  0.3568  1.0875
31243WAT     H126777  -2.592   3.276   3.038 -0.1210 -1.4327 -0.4509
31243WAT     H226778  -2.509   3.305   2.915 -1.2904  0.3939 -0.8483
31243WAT    EPW26779  -2.574   3.327   2.970 -0.1800  0.1256  0.6293
31244WAT      O26780  -1.508   3.102   4.696 -0.7716  0.0235 -0.4695
31244WAT     H126781  -1.599   3.078   4.714 -0.3164 -1.1414  0.4158
31244WAT     H226782  -1.474   3.030   4.643  0.0848 -0.3661  0.5872
31244WAT    EPW26783  -1.516   3.089   4.691 -0.5985 -0.1816 -0.2136
31245WAT      O26784   1.868   0.264   5.308 -0.4969  0.3214  0.4933
31245WAT     H126785   1.798   0.213   5.266 -0.7295  0.2079  1.0185
31245WAT     H226786   1.821   0.333   5.355 -0.1613  1.6719 -1.0352
31245WAT    EPW26787   1.852   0.267   5.308 -0.4833  0.4846  0.3610
31246WAT      O26788  -0.615   5.654   3.356  0.2011  0.1612  0.8038
31246WAT     H126789  -0.687   5.661   3.294  0.4967 -0.9061  0.3140
31246WAT     H226790  -0.564   5.734   3.344 -0.8738  0.9172  1.1357
31246WAT    EPW26791  -0.618   5.665   3.347  0.0983  0.1202  0.7831
31247WAT      O26792  -0.640   3.257   1.242 -0.3902  0.1370  0.3434
31247WAT     H126793  -0.586   3.203   1.184  0.5649 -1.3304  2.4746
31247WAT     H226794  -0.577   3.303   1.297 -0.9729  5.4763 -2.7718
31247WAT    EPW26795  -0.624   3.256   1.241 -0.3411  0.6477  0.2136
31248WAT      O26796  -5.358   7.831   4.427 -0.3432  0.2144 -0.5830
31248WAT     H126797  -5.425   7.885   4.385 -2.3593 -1.1615  0.6450
31248WAT     H226798  -5.394   7.742   4.423  0.5120 -0.3045  1.7929
31248WAT    EPW26799  -5.371   7.826   4.421 -0.4964 -0.0358 -0.1075
31249WAT      O26800   2.410   0.955   3.147 -0.3195 -0.2024  0.2907
31249WAT     H126801   2.393   0.863   3.170  0.8256 -1.0579 -1.9661
31249WAT     H226802   2.406   0.957   3.051 -1.4900  2.3981  0.3039
31249WAT    EPW26803   2.407   0.943   3.137 -0.3229  0.0278 -0.0051
31250WAT      O26804  -0.793   6.153   4.344 -0.6516  0.4385 -0.5525
31250WAT     H126805  -0.822   6.062   4.356 -1.5806  0.8532  0.5867
31250WAT     H226806  -0.738   6.171   4.419 -0.5266  0.8398 -0.7368
31250WAT    EPW26807  -0.790   6.143   4.355 -0.7576  0.5462 -0.4265
31251WAT      O26808   4.416   6.066   2.919  0.1707  0.6806 -0.1217
31251WAT     H126809   4.404   6.044   3.012  0.4369 -1.3104 -0.5229
31251WAT     H226810   4.394   5.986   2.872  3.4599  0.4737 -1.5834
31251WAT    EPW26811   4.411   6.053   2.925  0.6397  0.3908 -0.3674
31252WAT      O26812  -0.437   7.352   6.371 -0.5359 -0.2524 -0.2069
31252WAT     H126813  -0.489   7.375   6.448  1.1305  1.5656  0.4712
31252WAT     H226814  -0.497   7.364   6.297 -1.7878 -0.7423  0.7026
31252WAT    EPW26815  -0.451   7.357   6.372 -0.4812 -0.0772  0.0026
31253WAT      O26816   4.886   3.896   7.328 -0.6679  0.0185  0.1215
31253WAT     H126817   4.927   3.982   7.337  0.7810 -0.2066 -3.0065
31253WAT     H226818   4.803   3.914   7.283 -0.8693 -0.1165  0.4409
31253WAT    EPW26819   4.880   3.910   7.323 -0.5033 -0.0290 -0.2491
31254WAT      O26820   1.875   5.667   1.952 -0.1109  0.1628  0.6960
31254WAT     H126821   1.832   5.747   1.981  2.0263  3.0792 -3.2747
31254WAT     H226822   1.967   5.679   1.977 -0.0714 -2.2189  2.0000
31254WAT    EPW26823   1.881   5.679   1.959  0.1762  0.2334  0.3443
31255WAT      O26824  -5.041   7.305   5.528 -0.0123 -0.2992  0.0862
31255WAT     H126825  -5.058   7.285   5.620  2.7947 -1.2977  0.4741
31255WAT     H226826  -5.047   7.400   5.523  0.0846 -0.2047  1.3764
31255WAT    EPW26827  -5.044   7.315   5.539  0.3707 -0.4184  0.3076
31256WAT      O26828   2.356   9.019   1.338 -0.0926 -0.3413 -0.3517
31256WAT     H126829   2.348   9.109   1.368  2.5911 -0.7779  2.1313
31256WAT     H226830   2.407   9.025   1.257 -0.3053  0.4213 -0.4325
31256WAT    EPW26831   2.362   9.032   1.331  0.2334 -0.2980 -0.0349
31257WAT      O26832  -2.394   3.271   3.737 -0.5936 -0.3716 -0.1432
31257WAT     H126833  -2.343   3.352   3.737 -0.3448 -0.5116  0.8436
31257WAT     H226834  -2.333   3.205   3.702  1.0563 -1.1664  3.7485
31257WAT    EPW26835  -2.379   3.273   3.732 -0.3432 -0.4948  0.5003
31258WAT      O26836  -0.434   5.111   0.381 -0.8968 -0.2632 -0.2259
31258WAT     H126837  -0.384   5.176   0.432  1.4680 -1.5369 -0.7508
31258WAT     H226838  -0.383   5.100   0.301 -0.6604 -3.3683  0.2267
31258WAT    EPW26839  -0.420   5.118   0.377 -0.5537 -0.8407 -0.2354
31259WAT      O26840   1.145   3.081   2.045  0.3815  0.5576 -0.2569
31259WAT     H126841   1.172   3.172   2.056  1.7252  0.1245  0.1233
31259WAT     H226842   1.221   3.029   2.069 -0.4654 -0.6935 -0.1543
31259WAT    EPW26843   1.158   3.086   2.049  0.4470  0.3353 -0.1932
31260WAT      O26844  -4.238   1.408   6.693 -0.5907  0.0336  0.2723
31260WAT     H126845  -4.164   1.443   6.743 -2.3478  0.6776  2.6279
31260WAT     H226846  -4.258   1.475   6.629 -1.4442  1.6568  2.1317
31260WAT    EPW26847  -4.231   1.421   6.691 -0.9351  0.3327  0.8283
31261WAT      O26848  -2.793   7.699   5.804 -0.5546 -0.5299 -0.2700
31261WAT     H126849  -2.881   7.669   5.828 -0.2127 -1.4919 -0.1917
31261WAT     H226850  -2.753   7.624   5.761 -0.2465  0.3432 -1.5560
31261WAT    EPW26851  -2.800   7.685   5.802 -0.4689 -0.5417 -0.4292
31262WAT      O26852   9.108   3.407   0.501  0.3409 -0.3719 -0.1746
31262WAT     H126853   9.016   3.429   0.516  0.4598 -1.3934  2.5057
31262WAT     H226854   9.140   3.478   0.444 -1.2272  1.9600  1.6456
31262WAT    EPW26855   9.100   3.419   0.495  0.1502 -0.1991  0.4190
31263WAT      O26856   6.436   3.059   1.415 -0.2349 -0.1876  0.3067
31263WAT     H126857   6.357   3.040   1.466  0.2821 -1.4470  0.6742
31263WAT     H226858   6.505   3.011   1.460  0.5241 -0.0609 -0.6951
31263WAT    EPW26859   6.434   3.050   1.428 -0.0665 -0.3370  0.2230
31264WAT      O26860  -1.761   5.348   7.757  0.5119  0.4097 -0.3273
31264WAT     H126861  -1.734   5.333   7.847 -2.9257  0.1278  0.8017
31264WAT     H226862  -1.787   5.261   7.725 -0.4831  0.8601 -0.7748
31264WAT    EPW26863  -1.761   5.335   7.765 -0.0727  0.4318 -0.2375
31265WAT      O26864   2.025   2.137   3.220  0.3819 -0.2559 -0.1999
31265WAT     H126865   1.944   2.112   3.265 -1.0711 -1.5658 -3.2213
31265WAT     H226866   2.030   2.232   3.230 -1.9654 -0.0331 -0.4819
31265WAT    EPW26867   2.015   2.146   3.227 -0.1193 -0.3992 -0.6356
31266WAT      O26868   4.966   0.927   5.980 -0.2472 -0.9495  0.5927
31266WAT     H126869   4.906   0.984   5.931 -0.5717 -1.5887  0.2316
31266WAT     H226870   4.936   0.934   6.070  0.8563  0.8625  0.8571
31266WAT    EPW26871   4.954   0.935   5.985 -0.1445 -0.7948  0.5801
31267WAT      O26872   0.945   8.658   3.336 -0.3015  0.8683  0.7400
31267WAT     H126873   0.885   8.670   3.263 -0.9310  2.1961  1.4297
31267WAT     H226874   1.010   8.728   3.325 -0.7414  1.4542  1.7474
31267WAT    EPW26875   0.946   8.669   3.325 -0.4425  1.1210  0.9638
31268WAT      O26876  -4.150   8.479   4.913  0.2536 -0.3119 -0.0763
31268WAT     H126877  -4.126   8.572   4.920 -0.2569  0.0649 -2.4695
31268WAT     H226878  -4.219   8.468   4.978  1.4652  0.5312  1.4096
31268WAT    EPW26879  -4.156   8.490   4.922  0.3462 -0.1507 -0.1960
31269WAT      O26880  -5.586  10.069   6.055 -0.6365  0.1634 -0.4002
31269WAT     H126881  -5.508  10.015   6.062 -0.9309 -0.0800  3.3477
31269WAT     H226882  -5.554  10.158   6.046  0.1057  0.0106  0.5859
31269WAT    EPW26883  -5.572  10.074   6.055 -0.5774  0.1111  0.2241
31270WAT      O26884  -1.235   5.917   1.471  0.0471 -0.6204 -0.0265
31270WAT     H126885  -1.271   5.832   1.494  1.6407 -0.7780  2.3015
31270WAT     H226886  -1.144   5.898   1.448  0.3991  0.4026  0.4551
31270WAT    EPW26887  -1.227   5.903   1.471  0.3038 -0.5062  0.3442
31271WAT      O26888  -1.799   8.038   1.103 -0.0122  0.4894 -0.5449
31271WAT     H126889  -1.759   8.004   1.183  1.8164 -2.3877 -2.4817
31271WAT     H226890  -1.724   8.059   1.047 -1.2200 -0.3126 -2.5349
31271WAT    EPW26891  -1.784   8.037   1.106  0.0697  0.0038 -1.0628
31272WAT      O26892  -3.453   8.678   2.563 -0.5104  0.4309  0.7728
31272WAT     H126893  -3.393   8.744   2.528 -0.6314  0.6702  1.0087
31272WAT     H226894  -3.538   8.702   2.528 -0.1479 -1.2794 -1.5143
31272WAT    EPW26895  -3.456   8.690   2.554 -0.4785  0.2370  0.5022
31273WAT      O26896   7.986   5.554   0.663  0.1944 -0.1974 -0.4369
31273WAT     H126897   8.059   5.595   0.617  0.3971  0.9754  0.8831
31273WAT     H226898   8.021   5.532   0.749 -0.3281 -1.8896 -0.6075
31273WAT    EPW26899   8.000   5.556   0.668  0.1523 -0.2658 -0.2853
31274WAT      O26900   7.747   2.637   3.570 -0.2209  0.2748  0.3934
31274WAT     H126901   7.761   2.585   3.649  2.5665  0.3943  0.0537
31274WAT     H226902   7.822   2.618   3.514 -2.3108 -0.1361 -2.4839
31274WAT    EPW26903   7.758   2.628   3.573 -0.1287  0.2363 -0.0309
31275WAT      O26904   6.538   0.267   3.274  0.5295  0.3182  0.4819
31275WAT     H126905   6.593   0.336   3.311 -0.4080  1.1556  0.3619
31275WAT     H226906   6.528   0.203   3.344 -0.9581  1.7276  1.6457
31275WAT    EPW26907   6.544   0.267   3.288  0.2096  0.6145  0.6196
31276WAT      O26908  -1.404  10.321   4.573 -0.3842 -0.7154 -0.6766
31276WAT     H126909  -1.482  10.376   4.564 -0.9145 -1.0896  1.1827
31276WAT     H226910  -1.380  10.330   4.665  3.2566  1.3485 -1.6251
31276WAT    EPW26911  -1.411  10.330   4.584  0.0260 -0.4930 -0.5567
31277WAT      O26912   3.350   2.015   4.335 -0.1270  0.1215 -0.5068
31277WAT     H126913   3.270   1.964   4.322 -0.1258 -0.3108  0.9859
31277WAT     H226914   3.329   2.074   4.408  0.5843  0.7163 -0.7732
31277WAT    EPW26915   3.336   2.016   4.343 -0.0330  0.1429 -0.3448
31278WAT      O26916   7.736   8.051   0.624 -0.0758  0.6078 -0.0371
31278WAT     H126917   7.674   8.003   0.568 -0.8097  0.6076  0.7416
31278WAT     H226918   7.720   8.015   0.712  2.6651 -1.0695 -0.1119
31278WAT    EPW26919   7.726   8.040   0.629  0.1888  0.3872  0.0558
31279WAT      O26920  -2.600   6.476   2.869  0.2280 -0.5879 -0.9116
31279WAT     H126921  -2.530   6.536   2.845  0.1448 -0.3703 -0.6073
31279WAT     H226922  -2.657   6.526   2.927  1.3308 -1.5938  1.1481
31279WAT    EPW26923  -2.598   6.490   2.874  0.3624 -0.6919 -0.5997
31280WAT      O26924   2.419   6.855   7.072 -0.4552  0.4438 -0.4692
31280WAT     H126925   2.435   6.931   7.128 -2.2828 -0.1632  0.9833
31280WAT     H226926   2.501   6.806   7.075  0.7510  2.2992 -1.4262
31280WAT    EPW26927   2.432   6.858   7.080 -0.5372  0.6084 -0.4039
31281WAT      O26928  -2.189   7.908   3.381 -0.3442 -0.2214  0.2317
31281WAT     H126929  -2.149   7.993   3.400  0.0962 -0.3814  0.0168
31281WAT     H226930  -2.121   7.858   3.337 -1.8133  0.7145 -3.4976
31281WAT    EPW26931  -2.175   7.913   3.378 -0.4798 -0.1190 -0.2885
31282WAT      O26932  -2.582   1.445   4.885 -0.1452  0.6083  0.2096
31282WAT     H126933  -2.644   1.446   4.812  1.7726  0.9602 -1.4925
31282WAT     H226934  -2.518   1.512   4.864  2.1168 -1.2804  0.6943
31282WAT    EPW26935  -2.582   1.454   4.873  0.4060  0.4055  0.0491
31283WAT      O26936  -3.609   6.513   2.186 -0.6845  1.1249  0.0491
31283WAT     H126937  -3.637   6.504   2.094  1.1601  1.4412 -0.5913
31283WAT     H226938  -3.582   6.425   2.212  1.2625  1.4498 -0.6326
31283WAT    EPW26939  -3.609   6.500   2.177 -0.1843  1.2095 -0.1253
31284WAT      O26940   4.461   4.322   7.483  0.6139 -0.1687 -0.5106
31284WAT     H126941   4.415   4.389   7.432  1.0071  0.6810  0.2236
31284WAT     H226942   4.402   4.246   7.481  0.0176  0.2998 -1.0989
31284WAT    EPW26943   4.447   4.321   7.476  0.5870  0.0052 -0.4914
31285WAT      O26944  -0.363   9.815   5.661 -0.5080 -0.3133 -0.2794
31285WAT     H126945  -0.355   9.724   5.634 -2.0074 -0.6797  0.4038
31285WAT     H226946  -0.420   9.812   5.739 -2.1013  1.3474 -1.2965
31285WAT    EPW26947  -0.370   9.803   5.668 -0.9159 -0.1426 -0.3233
31286WAT      O26948   0.169   8.485   3.840  0.0093 -0.1315 -0.1336
31286WAT     H126949   0.085   8.446   3.815 -0.4389  0.4925  0.3578
31286WAT     H226950   0.177   8.465   3.934 -0.4230  1.2729  0.2223
31286WAT    EPW26951   0.159   8.477   3.849 -0.1069  0.1359 -0.0219
31287WAT      O26952  -3.676   8.042   2.553  0.3303 -0.0381  0.1830
31287WAT     H126953  -3.621   8.097   2.609  0.4164  0.7019 -0.6193
31287WAT     H226954  -3.713   8.102   2.489  0.3701 -0.8997 -0.6723
31287WAT    EPW26955  -3.673   8.057   2.552  0.3470 -0.0539 -0.0356
31288WAT      O26956   8.300   1.995   2.857 -0.1954 -0.0099  0.7245
31288WAT     H126957   8.208   2.005   2.880 -0.3227 -1.0429  0.6989
31288WAT     H226958   8.329   1.918   2.907  0.5950  0.1742  0.5659
31288WAT    EPW26959   8.292   1.986   2.867 -0.1078 -0.1218  0.7002
31289WAT      O26960   5.091   4.133   1.674  0.0910  0.5828 -0.0733
31289WAT     H126961   5.110   4.092   1.590 -2.0620  0.6481 -0.6526
31289WAT     H226962   5.103   4.063   1.738 -1.4215 -0.4357 -0.8196
31289WAT    EPW26963   5.095   4.118   1.671 -0.3924  0.4570 -0.2481
31290WAT      O26964  -0.291   6.403   7.559 -0.1171  0.1097  0.2396
31290WAT     H126965  -0.352   6.397   7.487  0.5835  1.2398 -0.4873
31290WAT     H226966  -0.267   6.496   7.562  0.5750 -0.0846  1.3220
31290WAT    EPW26967  -0.296   6.415   7.550  0.0666  0.2332  0.2863
31291WAT      O26968  -2.012   6.782   2.006  0.0009 -0.8017 -0.1302
31291WAT     H126969  -1.937   6.722   2.008  3.6282  3.1949  2.5257
31291WAT     H226970  -2.060   6.764   2.086  1.0569 -0.2989  0.6431
31291WAT    EPW26971  -2.008   6.772   2.017  0.6186 -0.2081  0.3220
31292WAT      O26972   1.847   6.187   8.257 -0.3594 -0.3062  0.5604
31292WAT     H126973   1.788   6.215   8.187  0.7979 -0.2454 -0.4136
31292WAT     H226974   1.797   6.202   8.337 -0.9842  1.5229 -0.1182
31292WAT    EPW26975   1.833   6.193   8.259 -0.2891 -0.0570  0.3424
31293WAT      O26976  -4.550   3.195   6.405 -0.1037 -0.0209  0.1832
31293WAT     H126977  -4.536   3.115   6.354 -0.8441 -0.4073  0.5707
31293WAT     H226978  -4.568   3.262   6.339 -1.3459 -0.5767 -0.0863
31293WAT    EPW26979  -4.551   3.193   6.389 -0.3650 -0.1451  0.1988
31294WAT      O26980   0.212   2.514   7.398  0.2409  0.3090  0.2658
31294WAT     H126981   0.185   2.566   7.473 -2.8351 -1.1389  0.3147
31294WAT     H226982   0.201   2.423   7.426  2.3488 -0.3927 -0.8704
31294WAT    EPW26983   0.207   2.509   7.411  0.1132  0.0255  0.1223
31295WAT      O26984   0.543   1.836   4.842 -0.1199 -0.0696 -0.5582
31295WAT     H126985   0.449   1.828   4.859 -0.1003 -0.1686 -0.4977
31295WAT     H226986   0.551   1.830   4.747 -0.3851  1.9790 -0.7494
31295WAT    EPW26987   0.532   1.834   4.832 -0.1523  0.1875 -0.5755
31296WAT      O26988   0.800   2.357   2.190 -0.7198 -0.1874  0.8565
31296WAT     H126989   0.790   2.300   2.266  0.9712  1.0596  2.0969
31296WAT     H226990   0.895   2.366   2.180 -0.9423  1.1655 -0.2308
31296WAT    EPW26991   0.811   2.351   2.199 -0.5261  0.1556  0.8767
31297WAT      O26992   0.744   5.946   1.309  0.3830  0.2093 -0.2157
31297WAT     H126993   0.800   5.899   1.247 -0.9984 -0.6435 -0.8586
31297WAT     H226994   0.663   5.963   1.260 -1.4297 -1.9586  1.8251
31297WAT    EPW26995   0.741   5.942   1.294 -0.0383 -0.1891 -0.0314
31298WAT      O26996   1.451   4.451   7.900 -0.5419  0.7802 -0.0619
31298WAT     H126997   1.477   4.380   7.842 -1.3928  1.5276 -1.4313
31298WAT     H226998   1.524   4.513   7.897  0.2168 -0.0375  1.1665
31298WAT    EPW26999   1.464   4.450   7.892 -0.5541  0.7710 -0.0806
31299WAT      O27000  -2.065   4.240   5.776  0.5470 -0.4149  0.3053
31299WAT     H127001  -2.060   4.244   5.681  1.1716  1.5101  0.3777
31299WAT     H227002  -2.141   4.292   5.799 -1.2733 -3.0832  0.8101
31299WAT    EPW27003  -2.074   4.247   5.767  0.3893 -0.5131  0.3815
31300WAT      O27004   6.315   3.459   0.805 -0.1621 -1.0235  0.1664
31300WAT     H127005   6.315   3.416   0.720  1.7009 -1.4846  0.3669
31300WAT     H227006   6.329   3.388   0.868 -0.1450 -0.5187  0.7394
31300WAT    EPW27007   6.317   3.444   0.802  0.0858 -1.0177  0.2684
31301WAT      O27008   0.564   4.261   1.176  0.0530  0.3243 -0.5490
31301WAT     H127009   0.621   4.335   1.196  1.6363 -0.6994 -1.0980
31301WAT     H227010   0.528   4.234   1.260 -0.2081  1.4390 -0.2913
31301WAT    EPW27011   0.567   4.267   1.190  0.2274  0.3362 -0.5874
31302WAT      O27012   7.969   0.246   1.278 -0.2086 -0.5602 -0.3188
31302WAT     H127013   7.958   0.333   1.241  0.0045 -0.5661 -0.3966
31302WAT     H227014   8.006   0.262   1.365 -1.8064 -0.4791  0.3914
31302WAT    EPW27015   7.972   0.260   1.285 -0.3910 -0.5503 -0.2354
31303WAT      O27016   3.807   1.925   7.242  0.7363 -0.2001 -0.3422
31303WAT     H127017   3.818   1.959   7.331  0.2113  1.0162 -0.7125
31303WAT     H227018   3.828   1.832   7.249  1.9112  0.1139  0.7997
31303WAT    EPW27019   3.811   1.917   7.255  0.8219  0.0017 -0.2406
31304WAT      O27020   0.268   4.970   8.844  0.5020 -0.4666 -0.4797
31304WAT     H127021   0.216   4.935   8.772  0.2674  0.9472 -1.0153
31304WAT     H227022   0.359   4.959   8.816  0.5734 -3.0352  0.4990
31304WAT    EPW27023   0.273   4.964   8.831  0.4805 -0.6189 -0.4215
31305WAT      O27024  -1.152   4.885   6.940  0.1256 -0.3798  0.5943
31305WAT     H127025  -1.114   4.966   6.904 -0.0305 -0.9522 -0.9263
31305WAT     H227026  -1.173   4.832   6.863  1.2712 -2.3647  1.5800
31305WAT    EPW27027  -1.150   4.889   6.925  0.2562 -0.7169  0.5238
31306WAT      O27028   0.111   7.021   4.426  0.4830  0.4803 -0.2275
31306WAT     H127029   0.092   7.079   4.499 -0.4430  0.1600 -0.2074
31306WAT     H227030   0.026   7.004   4.385  0.4018 -2.3496  0.8979
31306WAT    EPW27031   0.097   7.026   4.430  0.3502  0.0648 -0.0763
31307WAT      O27032   4.541   8.042   5.582 -1.0178 -0.1405  0.5450
31307WAT     H127033   4.594   7.971   5.619 -0.9546  0.0107  0.7500
31307WAT     H227034   4.559   8.117   5.639 -0.1003  0.3908 -0.4209
31307WAT    EPW27035   4.550   8.042   5.595 -0.8886 -0.0501  0.4444
31308WAT      O27036   6.737   6.583   0.544 -0.2462  0.1733  0.3419
31308WAT     H127037   6.688   6.501   0.553  0.4762 -0.1751  1.3278
31308WAT     H227038   6.809   6.575   0.608 -0.4865  1.8055  0.8623
31308WAT    EPW27039   6.740   6.571   0.554 -0.1829  0.3426  0.5406
31309WAT      O27040  -3.041   9.941   3.651 -0.1613  0.0497  0.0976
31309WAT     H127041  -2.982   9.866   3.650 -1.4228 -0.9869  0.0958
31309WAT     H227042  -3.025   9.982   3.736 -1.1172 -1.6549  1.1696
31309WAT    EPW27043  -3.031   9.937   3.662 -0.4538 -0.3119  0.2388
31310WAT      O27044  -4.869   7.035   4.635 -0.1124  0.5723  0.2063
31310WAT     H127045  -4.853   6.941   4.630 -1.4527  0.3319  0.0347
31310WAT     H227046  -4.937   7.051   4.569 -1.3592  1.3059  1.6133
31310WAT    EPW27047  -4.876   7.025   4.626 -0.4535  0.6375  0.3693
31311WAT      O27048   1.519   3.630   5.464  0.0002 -0.1811 -0.4443
31311WAT     H127049   1.597   3.586   5.431  0.5941  1.0992 -0.8454
31311WAT     H227050   1.484   3.571   5.530  0.1236 -1.7316 -1.6974
31311WAT    EPW27051   1.525   3.617   5.468  0.0948 -0.2167 -0.6626
31312WAT      O27052  -3.465   7.228   3.613 -0.4693  0.5375 -0.9117
31312WAT     H127053  -3.385   7.198   3.655  0.2930  0.8933 -2.0481
31312WAT     H227054  -3.533   7.168   3.645  0.1698  0.4433  0.3302
31312WAT    EPW27055  -3.463   7.216   3.623 -0.2844  0.5722 -0.8978
31313WAT      O27056  -1.357   4.558   8.598 -0.0426 -0.4384 -0.8410
31313WAT     H127057  -1.427   4.511   8.553  0.4905 -0.9562 -1.1438
31313WAT     H227058  -1.298   4.585   8.528  1.0673 -1.6987 -0.4492
31313WAT    EPW27059  -1.359   4.555   8.583  0.1742 -0.6728 -0.8292
31314WAT      O27060  -1.018   8.833   7.824 -0.5611 -0.6605 -0.0583
31314WAT     H127061  -0.953   8.903   7.818 -0.1469 -1.1286 -1.2446
31314WAT     H227062  -0.981   8.761   7.774 -2.3129 -0.6809 -1.4316
31314WAT    EPW27063  -1.004   8.833   7.817 -0.7375 -0.7248 -0.3960
31315WAT      O27064  -0.325   6.134   8.480  0.0844 -0.0122  0.4884
31315WAT     H127065  -0.345   6.063   8.541 -0.0154  0.3137  0.8400
31315WAT     H227066  -0.306   6.090   8.397  0.9551 -0.5136  0.9414
31315WAT    EPW27067  -0.325   6.119   8.477  0.1861 -0.0353  0.5946
31316WAT      O27068   6.601   4.458   3.772 -0.9696  0.7911  0.4640
31316WAT     H127069   6.613   4.553   3.770 -0.9814  0.9696  3.7533
31316WAT     H227070   6.511   4.445   3.802 -0.5366 -0.2208  1.4006
31316WAT    EPW27071   6.591   4.469   3.776 -0.9139  0.6812  1.0214
31317WAT      O27072   7.918   2.427   0.352 -0.4950 -0.1006  0.3173
31317WAT     H127073   7.887   2.480   0.425  1.7716 -1.5602  2.4860
31317WAT     H227074   7.916   2.337   0.385  5.1759 -0.4656  0.6286
31317WAT    EPW27075   7.914   2.422   0.366  0.5519 -0.3413  0.6444
31318WAT      O27076   0.144   8.829   0.027 -0.4859 -0.3249 -0.4769
31318WAT     H127077   0.160   8.921   0.003 -1.4714 -0.2239 -0.7696
31318WAT     H227078   0.205   8.813   0.100  0.1259  0.3744 -0.8144
31318WAT    EPW27079   0.154   8.839   0.033 -0.5351 -0.2193 -0.5600
31319WAT      O27080   4.165   4.876   6.505 -0.3888  0.2462 -0.3215
31319WAT     H127081   4.083   4.862   6.459 -1.0748 -0.6777  1.0933
31319WAT     H227082   4.160   4.966   6.536 -1.3866 -0.1286  0.6769
31319WAT    EPW27083   4.154   4.886   6.503 -0.6108  0.0751 -0.0033
31320WAT      O27084   1.319   4.148   0.741  0.0110  0.3206  0.0349
31320WAT     H127085   1.254   4.203   0.783  0.5688 -1.1955  3.1287
31320WAT     H227086   1.322   4.068   0.794  2.7696 -0.6096 -1.3209
31320WAT    EPW27087   1.311   4.144   0.753  0.4484 -0.0021  0.2641
31321WAT      O27088  -1.054   6.707   1.603  0.3972 -0.2039  0.3720
31321WAT     H127089  -1.046   6.793   1.562 -1.5136  0.1632  0.6387
31321WAT     H227090  -1.111   6.658   1.544  1.9603 -1.5261 -0.0920
31321WAT    EPW27091  -1.061   6.712   1.590  0.3514 -0.3297  0.3460
31322WAT      O27092   3.230   2.255   4.538  0.6988  0.2987  0.1131
31322WAT     H127093   3.280   2.249   4.619 -0.4318 -0.3762  0.7788
31322WAT     H227094   3.146   2.292   4.565  0.1530 -0.3481 -0.6857
31322WAT    EPW27095   3.226   2.259   4.552  0.4777  0.1243  0.0956
31323WAT      O27096  -0.095   8.368   2.870  0.1717  0.1549  0.3515
31323WAT     H127097  -0.185   8.336   2.880  0.6450 -0.6689  2.7115
31323WAT     H227098  -0.086   8.388   2.777 -2.7800  1.3089  0.2088
31323WAT    EPW27099  -0.106   8.367   2.859 -0.1552  0.1984  0.6440
31324WAT      O27100   6.087   1.849   1.579  0.1437  0.2189  1.2228
31324WAT     H127101   6.085   1.945   1.571  1.2861  0.3500  2.2326
31324WAT     H227102   6.060   1.817   1.493 -0.1209  1.4443  0.8277
31324WAT    EPW27103   6.083   1.858   1.567  0.2596  0.3977  1.3039
31325WAT      O27104   1.060   9.661   4.670  0.3419 -0.7731  0.1475
31325WAT     H127105   1.140   9.713   4.681 -0.8784  1.1620  0.2132
31325WAT     H227106   1.010   9.676   4.750 -0.3763 -1.4789 -0.1499
31325WAT    EPW27107   1.064   9.670   4.682  0.0862 -0.6113  0.1171
31326WAT      O27108  -2.965   2.463   7.459  0.1117 -0.3806  0.1733
31326WAT     H127109  -3.030   2.404   7.420 -1.2735  0.7618  0.6834
31326WAT     H227110  -3.001   2.486   7.544  1.8968 -0.8338  1.0957
31326WAT    EPW27111  -2.978   2.458   7.465  0.1644 -0.2897  0.3622
31327WAT      O27112  -2.879   4.610   7.720  0.3900 -0.0916 -0.7147
31327WAT     H127113  -2.959   4.557   7.725  0.4026 -0.0872 -0.4057
31327WAT     H227114  -2.848   4.599   7.631 -0.1531  0.1929 -0.9423
31327WAT    EPW27115  -2.886   4.602   7.709  0.3201 -0.0534 -0.7041
31328WAT      O27116  -1.565   4.497   3.215 -0.3717  0.3200  0.0622
31328WAT     H127117  -1.563   4.471   3.308 -0.8584  1.0025  0.2681
31328WAT     H227118  -1.625   4.572   3.212  0.1715  0.7382 -0.6958
31328WAT    EPW27119  -1.573   4.503   3.227 -0.3642  0.4652 -0.0107
31329WAT      O27120  -3.989   3.896   8.165 -0.3177  0.2371  0.2268
31329WAT     H127121  -3.939   3.976   8.153 -2.9324  1.9001 -0.5659
31329WAT     H227122  -3.979   3.874   8.257 -0.6943  2.3607  0.8174
31329WAT    EPW27123  -3.981   3.903   8.175 -0.7123  0.7366  0.2003
31330WAT      O27124   2.311   8.877   1.595  0.4527  0.2085 -0.9328
31330WAT     H127125   2.362   8.928   1.657 -1.2168  1.1186 -0.2427
31330WAT     H227126   2.336   8.910   1.509  2.2374 -0.5468 -0.7359
31330WAT    EPW27127   2.321   8.888   1.592  0.4679  0.2289 -0.8157
31331WAT      O27128   0.346   9.071   5.273 -0.5842  0.0388 -0.5203
31331WAT     H127129   0.422   9.066   5.331 -1.5586  0.9750  0.9299
31331WAT     H227130   0.355   8.997   5.214  2.0702  0.8248 -1.2243
31331WAT    EPW27131   0.357   9.061   5.273 -0.3626  0.2656 -0.4218
31332WAT      O27132   0.199   2.134   8.138  0.5885  0.2701  0.1082
31332WAT     H127133   0.105   2.143   8.124  0.6952 -1.0669 -1.7150
31332WAT     H227134   0.206   2.085   8.220 -0.1979  2.6215  1.6829
31332WAT    EPW27135   0.187   2.129   8.147  0.4989  0.4038  0.0753
31333WAT      O27136   4.317   2.868   2.822 -0.2743 -0.1565  0.2403
31333WAT     H127137   4.272   2.786   2.800  0.7919 -1.8035  3.5323
31333WAT     H227138   4.246   2.929   2.844 -1.0376 -0.7838 -0.3917
31333WAT    EPW27139   4.301   2.865   2.822 -0.2344 -0.4566  0.5912
31334WAT      O27140   4.829   6.302   3.963 -0.1422  0.3179 -0.4027
31334WAT     H127141   4.846   6.230   4.024  1.2511  0.4144 -0.6354
31334WAT     H227142   4.915   6.342   3.950 -0.5800  0.8502 -1.7500
31334WAT    EPW27143   4.843   6.298   3.970 -0.0162  0.4010 -0.6109
31335WAT      O27144   1.597   5.450   1.146 -0.5983 -0.2565 -0.2973
31335WAT     H127145   1.533   5.478   1.081 -0.9124 -0.2802 -0.0049
31335WAT     H227146   1.681   5.454   1.101 -0.6529  0.9495 -0.3308
31335WAT    EPW27147   1.599   5.454   1.132 -0.6469 -0.1004 -0.2632
31336WAT      O27148   5.467   9.588   1.038 -0.7584  0.0425 -0.2287
31336WAT     H127149   5.553   9.554   1.012  0.1086  1.3688  0.8142
31336WAT     H227150   5.462   9.675   0.999 -1.0659  0.5128  0.8488
31336WAT    EPW27151   5.477   9.595   1.029 -0.6847  0.2794  0.0510
31337WAT      O27152   1.994   7.929   5.845 -0.8624  0.0836 -0.0133
31337WAT     H127153   1.907   7.956   5.877 -0.0593 -0.5389  2.9799
31337WAT     H227154   2.029   7.875   5.915  1.5506 -0.5842 -1.6316
31337WAT    EPW27155   1.987   7.926   5.858 -0.4383 -0.0865  0.1681
31338WAT      O27156  -0.589   7.260   7.347 -0.0637 -0.3245  0.0366
31338WAT     H127157  -0.638   7.307   7.279  0.2283  2.3955  1.5421
31338WAT     H227158  -0.638   7.277   7.427  0.0427 -2.7855  0.6884
31338WAT    EPW27159  -0.602   7.268   7.348 -0.0111 -0.2904  0.3209
31339WAT      O27160  -4.364   3.932   5.055 -0.0241  0.3286 -0.2643
31339WAT     H127161  -4.310   3.855   5.075 -1.7787 -0.5574  1.4734
31339WAT     H227162  -4.380   3.973   5.140 -0.9384  1.3367 -0.8934
31339WAT    EPW27163  -4.359   3.927   5.068 -0.3760  0.3448 -0.1180
31340WAT      O27164   1.244   6.022   2.605  0.6782 -0.1553  0.7869
31340WAT     H127165   1.249   5.989   2.515 -0.1901  0.0843  0.6447
31340WAT     H227166   1.179   5.965   2.647  1.6465 -0.7670  1.4893
31340WAT    EPW27167   1.236   6.010   2.599  0.6914 -0.2046  0.8607
31341WAT      O27168  -3.098   4.950   8.727 -0.4120  0.1161 -0.2106
31341WAT     H127169  -3.124   4.890   8.657 -2.7792  0.6659  0.0966
31341WAT     H227170  -3.094   5.036   8.685 -0.3184  0.2248  0.0162
31341WAT    EPW27171  -3.101   4.954   8.712 -0.7118  0.2029 -0.1402
31342WAT      O27172   4.631   2.195   5.921  0.1417 -0.1232  0.2523
31342WAT     H127173   4.611   2.160   6.008  1.5344 -1.6594 -0.0005
31342WAT     H227174   4.660   2.119   5.870 -0.4691  0.7636 -1.5356
31342WAT    EPW27175   4.632   2.181   5.926  0.2449 -0.2087 -0.0169
31343WAT      O27176  -1.288   4.381   7.993 -0.4193 -0.0695  0.1398
31343WAT     H127177  -1.219   4.315   7.995  0.7667  1.1331  0.3782
31343WAT     H227178  -1.266   4.437   7.919 -1.4335  0.0431 -0.0902
31343WAT    EPW27179  -1.276   4.380   7.984 -0.3965  0.1040  0.1409
31344WAT      O27180  -0.837   7.886   7.488  0.6252 -0.7481  0.7634
31344WAT     H127181  -0.792   7.969   7.507  2.8624 -2.1765  2.1454
31344WAT     H227182  -0.850   7.888   7.393 -0.5715  1.7079  0.9004
31344WAT    EPW27183  -0.833   7.897   7.478  0.7624 -0.6123  0.9639
31345WAT      O27184  -1.290   9.775   4.195  0.4904  0.2181 -0.5629
31345WAT     H127185  -1.301   9.733   4.109 -0.4051 -1.3705  0.2747
31345WAT     H227186  -1.197   9.762   4.215  0.4490 -0.4739 -0.7791
31345WAT    EPW27187  -1.279   9.767   4.186  0.3669 -0.0825 -0.4811
31346WAT      O27188  -0.155   3.849   6.086  0.2433 -0.3092  0.1781
31346WAT     H127189  -0.164   3.781   6.152  1.0990 -0.0631  0.5609
31346WAT     H227190  -0.069   3.834   6.046 -0.4253 -0.6945 -1.1647
31346WAT    EPW27191  -0.145   3.838   6.089  0.2680 -0.3275  0.0515
31347WAT      O27192   1.542   0.163   5.740 -0.1560  0.3797 -0.0056
31347WAT     H127193   1.527   0.128   5.828 -1.2047  1.5056  0.2925
31347WAT     H227194   1.615   0.223   5.751 -0.7000  1.0105  0.2521
31347WAT    EPW27195   1.549   0.166   5.753 -0.3661  0.6114  0.0679
31348WAT      O27196  -1.646   4.245   8.253  0.3007  0.0279 -0.2431
31348WAT     H127197  -1.672   4.246   8.161  2.0121 -1.0955 -0.8037
31348WAT     H227198  -1.563   4.196   8.253 -0.2948 -1.1012  2.0617
31348WAT    EPW27199  -1.638   4.239   8.241  0.4479 -0.2692 -0.0134
31349WAT      O27200   4.862   6.671   4.610 -0.2378  0.2027 -0.4491
31349WAT     H127201   4.951   6.638   4.622 -0.8694 -1.2255  0.6317
31349WAT     H227202   4.843   6.718   4.691 -1.5350 -2.2415  0.7927
31349WAT    EPW27203   4.871   6.673   4.623 -0.4921 -0.3080 -0.1426
31350WAT      O27204  -4.092   0.159   7.804  0.2150 -0.0193 -0.3018
31350WAT     H127205  -4.061   0.245   7.830 -0.0773 -0.9047  3.5003
31350WAT     H227206  -4.012   0.107   7.791  0.4827 -0.3775  2.2891
31350WAT    EPW27207  -4.077   0.163   7.806  0.2117 -0.1833  0.5412
31351WAT      O27208   1.913   4.150   8.212  0.3514  0.1374 -0.0939
31351WAT     H127209   1.999   4.186   8.192 -0.8959  3.3678 -0.3423
31351WAT     H227210   1.904   4.160   8.307  0.0888  0.2786 -0.1309
31351WAT    EPW27211   1.923   4.156   8.222  0.1522  0.5822 -0.1316
31352WAT      O27212   2.069   2.216   1.287 -0.3169 -0.8470 -0.6981
31352WAT     H127213   2.118   2.134   1.285  0.5884 -0.3782  0.8014
31352WAT     H227214   2.124   2.279   1.240 -0.8969 -1.0087 -1.6303
31352WAT    EPW27215   2.082   2.213   1.280 -0.2739 -0.8066 -0.6233
31353WAT      O27216   6.098   4.319   0.880 -0.2999  0.3843 -1.1823
31353WAT     H127217   6.029   4.283   0.936  2.4307 -2.5104  0.6580
31353WAT     H227218   6.154   4.244   0.859  1.9683  2.4199 -3.0824
31353WAT    EPW27219   6.097   4.304   0.885  0.3595  0.2711 -1.1902
31354WAT      O27220   6.716   9.015   1.486  0.5773 -0.1669  0.0275
31354WAT     H127221   6.791   9.070   1.508  0.7494 -0.6939  0.7981
31354WAT     H227222   6.648   9.040   1.548  0.4537 -0.3936 -0.0156
31354WAT    EPW27223   6.717   9.025   1.497  0.5836 -0.2666  0.1234
31355WAT      O27224   4.394   2.311   2.111 -0.0968 -0.0850  0.1073
31355WAT     H127225   4.367   2.254   2.038  1.2968 -0.7721  0.0923
31355WAT     H227226   4.394   2.253   2.187  0.3064  0.1559  0.2909
31355WAT    EPW27227   4.391   2.296   2.111  0.1402 -0.1439  0.1295
31356WAT      O27228   5.105   3.591   4.672 -0.1789 -0.3210 -0.1633
31356WAT     H127229   5.076   3.588   4.580  0.4232  0.0271 -0.3682
31356WAT     H227230   5.031   3.629   4.719  0.0973  1.0196 -0.7544
31356WAT    EPW27231   5.091   3.595   4.666 -0.0629 -0.0982 -0.2682
31357WAT      O27232   2.115   0.482   5.496  0.3467 -0.0164  0.2082
31357WAT     H127233   2.061   0.538   5.552  1.3016  0.5471  0.5882
31357WAT     H227234   2.086   0.503   5.407  0.3685  0.7455  0.3713
31357WAT    EPW27235   2.104   0.492   5.492  0.4755  0.1584  0.2799
31358WAT      O27236   3.139   8.075   1.882  0.0744  0.8155  0.0015
31358WAT     H127237   3.079   8.026   1.827  0.0428 -1.0340  1.5784
31358WAT     H227238   3.225   8.060   1.843  0.3776 -2.3910  1.5648
31358WAT    EPW27239   3.142   8.067   1.870  0.1103  0.1488  0.4157
31359WAT      O27240  -2.084   6.487   7.128  0.0169  0.5193  0.2801
31359WAT     H127241  -2.039   6.542   7.192  1.0916 -0.7169  0.6383
31359WAT     H227242  -2.015   6.460   7.067 -0.6708  0.3359 -0.4274
31359WAT    EPW27243  -2.069   6.491   7.128  0.0679  0.3321  0.2339
31360WAT      O27244   3.234   0.475   6.979 -0.1312  0.7889 -0.0515
31360WAT     H127245   3.217   0.508   6.891 -0.3820  0.3399 -0.1759
31360WAT     H227246   3.256   0.383   6.966  1.6213  1.1308  0.1806
31360WAT    EPW27247   3.235   0.467   6.966  0.0669  0.7748 -0.0372
31361WAT      O27248  -4.262   7.015   3.808  0.4644 -0.4522 -0.2686
31361WAT     H127249  -4.198   6.989   3.742 -1.0033 -0.8797 -1.5773
31361WAT     H227250  -4.309   7.089   3.769  0.5748  0.2842  0.9431
31361WAT    EPW27251  -4.260   7.021   3.794  0.2854 -0.4115 -0.2815
31362WAT      O27252  -1.075   8.794   4.960 -0.1216 -0.2785 -0.3718
31362WAT     H127253  -1.031   8.754   4.886 -2.3910 -0.2218 -1.8368
31362WAT     H227254  -1.011   8.857   4.994  1.7684 -1.8302 -0.8695
31362WAT    EPW27255  -1.061   8.797   4.955 -0.1716 -0.4759 -0.6306
31363WAT      O27256  -1.461   1.957   4.147  0.2896  0.0246  0.1650
31363WAT     H127257  -1.435   1.882   4.094  2.9787 -0.0509  1.4184
31363WAT     H227258  -1.535   1.926   4.198  1.4736 -1.9101  0.8297
31363WAT    EPW27259  -1.467   1.943   4.146  0.8004 -0.2406  0.4179
31364WAT      O27260   4.487   0.286   0.526  0.3618 -0.2936 -0.5008
31364WAT     H127261   4.441   0.367   0.505  0.6035 -0.1801 -0.6108
31364WAT     H227262   4.447   0.220   0.469  0.9198 -0.0125 -1.2392
31364WAT    EPW27263   4.476   0.288   0.515  0.4673 -0.2415 -0.6127
31365WAT      O27264  -3.723   5.318   3.603  0.6821 -0.1135 -0.0819
31365WAT     H127265  -3.670   5.250   3.562 -1.5918 -2.3684  0.4453
31365WAT     H227266  -3.695   5.319   3.694  0.3814 -0.7309  0.0201
31365WAT    EPW27267  -3.713   5.309   3.610  0.3426 -0.4923  0.0011
31366WAT      O27268  -1.444   7.437   2.581  0.2838  0.2157  0.0957
31366WAT     H127269  -1.451   7.533   2.579  0.5296  0.2307 -0.4548
31366WAT     H227270  -1.531   7.406   2.558  0.7429  0.3439 -2.0221
31366WAT    EPW27271  -1.456   7.446   2.577  0.3768  0.2346 -0.2562
31367WAT      O27272  -0.360   4.363   0.224 -0.1689  0.7074 -0.8185
31367WAT     H127273  -0.455   4.362   0.238 -0.3121 -0.2463 -1.7092
31367WAT     H227274  -0.333   4.273   0.241  0.5125  0.8767 -0.9775
31367WAT    EPW27275  -0.369   4.351   0.228 -0.0980  0.6042 -0.9569
31368WAT      O27276   0.833   5.035   5.606 -0.0499 -0.0289  0.1414
31368WAT     H127277   0.917   5.033   5.650 -0.0489 -2.5880  0.1386
31368WAT     H227278   0.768   5.037   5.676 -0.0383  0.9925  0.1468
31368WAT    EPW27279   0.835   5.035   5.621 -0.0482 -0.2320  0.1421
31369WAT      O27280  -3.993   7.521   3.410 -0.0327  0.3651 -0.3903
31369WAT     H127281  -3.918   7.567   3.447 -0.4265  0.9738 -0.3271
31369WAT     H227282  -4.055   7.514   3.482 -0.9508  1.8777 -0.9826
31369WAT    EPW27283  -3.991   7.526   3.424 -0.2059  0.6449 -0.4600
31370WAT      O27284  -1.599  10.120   2.487 -0.3285  0.3137 -0.8792
31370WAT     H127285  -1.521  10.080   2.448 -2.0878 -0.4447 -3.9872
31370WAT     H227286  -1.588  10.214   2.472 -0.4308  0.1262 -2.2775
31370WAT    EPW27287  -1.587  10.127   2.480 -0.5741  0.1888 -1.4737
31371WAT      O27288   6.801   2.016   1.673  0.2257  0.5990  0.4191
31371WAT     H127289   6.782   2.078   1.603  0.0063 -1.1309 -1.1089
31371WAT     H227290   6.715   1.978   1.695  0.5406 -0.1218  0.4128
31371WAT    EPW27291   6.787   2.019   1.667  0.2384  0.2759  0.2168
31372WAT      O27292  -0.556  10.358   4.481 -0.4577  0.0671  0.5174
31372WAT     H127293  -0.486  10.331   4.540 -0.1480  1.4305  0.8215
31372WAT     H227294  -0.635  10.352   4.533 -0.6556 -1.8042  0.0723
31372WAT    EPW27295  -0.557  10.354   4.495 -0.4430  0.0001  0.4988
31373WAT      O27296  -3.167   9.575   3.421  0.4218  0.4205 -0.1314
31373WAT     H127297  -3.141   9.514   3.490 -4.2926 -1.1153  0.6656
31373WAT     H227298  -3.146   9.530   3.339  1.5331  0.0115  0.3637
31373WAT    EPW27299  -3.161   9.561   3.419 -0.0535  0.1640  0.0391
31374WAT      O27300   0.705   5.703   4.897 -0.4392 -0.2277 -0.3829
31374WAT     H127301   0.733   5.632   4.955 -0.5487  0.4152  0.4725
31374WAT     H227302   0.651   5.660   4.831 -2.0924 -0.7185  1.2103
31374WAT    EPW27303   0.702   5.688   4.896 -0.6717 -0.2077 -0.0598
31375WAT      O27304   0.966   7.221   7.712 -0.2707 -0.0487  0.1732
31375WAT     H127305   0.944   7.262   7.796  4.8248 -3.3399  3.6588
31375WAT     H227306   1.052   7.255   7.691 -0.5037 -0.9679 -2.7110
31375WAT    EPW27307   0.974   7.231   7.720  0.3706 -0.6042  0.2525
31376WAT      O27308   3.178   5.239   3.041  0.2709 -0.0815  0.4633
31376WAT     H127309   3.173   5.322   3.089 -0.2485  0.1177  0.0748
31376WAT     H227310   3.238   5.257   2.969 -0.6824  0.2930 -0.2573
31376WAT    EPW27311   3.185   5.253   3.038  0.0767 -0.0062  0.3171
31377WAT      O27312   2.515   5.154   0.994  0.1006  0.4056 -0.3724
31377WAT     H127313   2.584   5.127   1.053  2.9757  2.8261 -2.3091
31377WAT     H227314   2.558   5.166   0.909 -2.8008  1.5369 -1.8633
31377WAT    EPW27315   2.530   5.152   0.991  0.0972  0.8740 -0.8245
31378WAT      O27316   5.499   6.446   0.430  0.3405 -0.0639  0.2689
31378WAT     H127317   5.469   6.380   0.492 -1.3316  0.6509  0.2659
31378WAT     H227318   5.546   6.510   0.484  0.2375 -0.2312  0.5582
31378WAT    EPW27319   5.501   6.446   0.446  0.1063  0.0083  0.3067
31379WAT      O27320   3.191   9.968   6.116  0.6833  0.8522  0.4041
31379WAT     H127321   3.166   9.974   6.024 -0.3893  0.0450  0.6225
31379WAT     H227322   3.285   9.951   6.115  0.7495  1.2227 -0.5256
31379WAT    EPW27323   3.200   9.967   6.104  0.5507  0.7949  0.3102
31380WAT      O27324   4.934   5.136   2.909  0.4313 -0.3387  0.5798
31380WAT     H127325   4.848   5.172   2.929  0.0857  0.3367 -1.8225
31380WAT     H227326   4.995   5.207   2.929  0.2530 -0.2124  0.6729
31380WAT    EPW27327   4.931   5.150   2.914  0.3622 -0.2329  0.2751
31381WAT      O27328  -6.631   4.012   8.755 -0.0884  0.1281 -0.0663
31381WAT     H127329  -6.676   4.019   8.839 -1.9231 -0.5795 -0.9181
31381WAT     H227330  -6.555   3.956   8.773  0.0206  0.6739  1.2694
31381WAT    EPW27331  -6.627   4.006   8.768 -0.3159  0.1068 -0.0024
31382WAT      O27332  -1.263   0.558   5.025 -0.1784 -0.4510 -0.2470
31382WAT     H127333  -1.253   0.637   4.972 -1.4024 -1.5189 -2.1811
31382WAT     H227334  -1.335   0.578   5.085  1.0784  0.6947  0.9417
31382WAT    EPW27335  -1.271   0.571   5.026 -0.1740 -0.4407 -0.3455
31383WAT      O27336  -4.647   6.787   8.872 -0.5396  0.3062  0.4913
31383WAT     H127337  -4.646   6.694   8.896 -2.2004  0.2657  0.5724
31383WAT     H227338  -4.665   6.832   8.955 -1.3295  0.5511  0.2000
31383WAT    EPW27339  -4.649   6.781   8.886 -0.8628  0.3333  0.4640
31384WAT      O27340  -5.505   7.334   7.256 -0.2544 -0.1100  0.0882
31384WAT     H127341  -5.517   7.239   7.256 -1.4106  0.0084 -1.0966
31384WAT     H227342  -5.419   7.347   7.216  0.6807 -0.6936  1.8038
31384WAT    EPW27343  -5.495   7.323   7.251 -0.2835 -0.1712  0.1583
31385WAT      O27344   6.784   5.800   1.181  0.4087 -0.2497 -0.1848
31385WAT     H127345   6.773   5.705   1.175 -0.3587 -0.1805  0.0844
31385WAT     H227346   6.708   5.836   1.135  1.0462  0.2436 -0.8863
31385WAT    EPW27347   6.773   5.792   1.174  0.3920 -0.1757 -0.2418
31386WAT      O27348  -4.209   6.948   4.779  0.7176 -0.0939  0.4304
31386WAT     H127349  -4.130   6.948   4.832  1.2307  0.3294 -0.3145
31386WAT     H227350  -4.219   6.858   4.749  0.2915 -0.3956  1.4012
31386WAT    EPW27351  -4.200   6.936   4.782  0.7291 -0.0780  0.4604
31387WAT      O27352  -0.676   6.174   6.727  0.3385  0.0165 -0.2990
31387WAT     H127353  -0.620   6.248   6.702 -1.1905  0.6087 -2.2213
31387WAT     H227354  -0.614   6.107   6.758  1.7754  2.0317  1.4927
31387WAT    EPW27355  -0.660   6.175   6.728  0.3264  0.3603 -0.3164
31388WAT      O27356   3.954   1.973   7.818 -0.6396 -0.2743 -0.5473
31388WAT     H127357   3.998   1.904   7.768  0.3466 -0.2222  0.2414
31388WAT     H227358   3.982   1.960   7.908 -1.2964  0.5021 -0.2165
31388WAT    EPW27359   3.963   1.962   7.823 -0.5962 -0.1650 -0.3996
31389WAT      O27360   1.444   2.843   7.853 -0.5899 -0.4539 -0.0619
31389WAT     H127361   1.502   2.891   7.794  0.6552 -0.8923  0.7897
31389WAT     H227362   1.390   2.790   7.794 -0.9417  0.7996 -0.9267
31389WAT    EPW27363   1.444   2.843   7.837 -0.4721 -0.3464 -0.0637
31390WAT      O27364   2.059   3.957   5.406 -0.1663  0.3535  0.4552
31390WAT     H127365   2.088   3.919   5.489  2.0216 -0.7084 -0.7086
31390WAT     H227366   1.993   4.022   5.432  1.7166  1.4015  3.2192
31390WAT    EPW27367   2.054   3.961   5.421  0.3706  0.3517  0.6664
31391WAT      O27368   3.888   1.803   8.398  0.3758  0.4789 -0.5738
31391WAT     H127369   3.813   1.758   8.436 -0.9534  2.3996 -0.7773
31391WAT     H227370   3.876   1.794   8.303 -0.3482  1.8897 -0.6354
31391WAT    EPW27371   3.876   1.796   8.390  0.1049  0.9183 -0.6084
31392WAT      O27372   2.615   9.385   8.070 -0.5009  0.0277 -0.1022
31392WAT     H127373   2.525   9.407   8.093  0.1776  1.7695  1.0854
31392WAT     H227374   2.640   9.449   8.004  0.3837  0.6455  0.8010
31392WAT    EPW27375   2.607   9.396   8.065 -0.2947  0.3390  0.1736
31393WAT      O27376   1.852   7.295   2.377 -0.2502  0.3813 -0.7172
31393WAT     H127377   1.765   7.335   2.386 -0.5566  0.2164 -2.5509
31393WAT     H227378   1.892   7.305   2.464 -2.3568 -0.2061  0.3889
31393WAT    EPW27379   1.846   7.302   2.390 -0.5685  0.2820 -0.8131
31394WAT      O27380   6.238   2.915   3.233  0.3120 -0.6734 -0.5819
31394WAT     H127381   6.317   2.967   3.250  1.2794 -0.3671 -4.8872
31394WAT     H227382   6.193   2.962   3.163 -3.8980 -0.8489  1.6604
31394WAT    EPW27383   6.243   2.928   3.226 -0.1156 -0.6561 -0.8540
31395WAT      O27384   5.785   0.264   6.374 -0.5288 -0.1832  0.1166
31395WAT     H127385   5.715   0.294   6.433  1.3038  0.7630  1.9445
31395WAT     H227386   5.812   0.180   6.411 -2.4231 -1.9566 -2.1995
31395WAT    EPW27387   5.779   0.257   6.387 -0.5369 -0.2923  0.0522
31396WAT      O27388   8.276   0.074   3.006  0.0538  0.8577  0.1561
31396WAT     H127389   8.243   0.150   2.958 -1.3229 -0.0892 -0.4640
31396WAT     H227390   8.211   0.006   2.989  0.8630 -0.2345  1.3247
31396WAT    EPW27391   8.263   0.075   2.998 -0.0210  0.5888  0.2284
31397WAT      O27392   0.694   1.654   6.749  0.4506  0.9614 -0.2812
31397WAT     H127393   0.746   1.609   6.815 -0.2480 -0.3015 -0.5568
31397WAT     H227394   0.754   1.717   6.710  2.0830 -1.0376 -1.2060
31397WAT    EPW27395   0.709   1.656   6.753  0.5738  0.5312 -0.4394
31398WAT      O27396   2.517   8.432   0.162  0.2986 -0.4212  0.1741
31398WAT     H127397   2.552   8.491   0.229  1.5748 -1.1821  0.2084
31398WAT     H227398   2.501   8.350   0.207  0.2052 -0.6370 -0.2472
31398WAT    EPW27399   2.520   8.429   0.176  0.4545 -0.5498  0.1231
31399WAT      O27400   7.123   2.914   0.193 -0.2986  0.3355 -0.1504
31399WAT     H127401   7.155   2.843   0.248  2.4974  0.8744 -0.8874
31399WAT     H227402   7.082   2.975   0.254  0.9497  0.0004  1.0778
31399WAT    EPW27403   7.122   2.913   0.208  0.2348  0.3624 -0.0856
31400WAT      O27404  -0.138   5.235   5.436  0.2391  0.6712 -0.5709
31400WAT     H127405  -0.185   5.207   5.514  1.1764  0.4685 -0.0623
31400WAT     H227406  -0.127   5.330   5.448  1.4321  0.4620  0.1491
31400WAT    EPW27407  -0.143   5.244   5.448  0.5201  0.6170 -0.4089
31401WAT      O27408   4.366   8.778   5.202 -0.6129 -0.7275  0.3755
31401WAT     H127409   4.455   8.743   5.200 -0.4447 -0.3357 -1.8840
31401WAT     H227410   4.316   8.714   5.252  0.4740 -2.1772 -0.3337
31401WAT    EPW27411   4.371   8.765   5.208 -0.4473 -0.8669 -0.0162
31402WAT      O27412  -2.745   5.503   4.501  0.5009 -0.4369 -0.3365
31402WAT     H127413  -2.726   5.433   4.565  2.5075  1.6435  1.5310
31402WAT     H227414  -2.695   5.477   4.424  3.1470 -0.0512  1.1222
31402WAT    EPW27415  -2.736   5.490   4.500  1.1146 -0.1116  0.1020
31403WAT      O27416   5.667   1.061   7.593 -0.1860  0.0147  0.0237
31403WAT     H127417   5.588   1.026   7.634  0.1085 -2.5020 -1.3553
31403WAT     H227418   5.682   1.145   7.637 -4.1889  1.1506 -0.3578
31403WAT    EPW27419   5.658   1.067   7.604 -0.6752 -0.1674 -0.2089
31404WAT      O27420   2.458   6.436   3.383  0.0749  0.3859 -0.1732
31404WAT     H127421   2.371   6.401   3.402  0.7637 -0.4118  1.6931
31404WAT     H227422   2.517   6.362   3.395  1.1497  1.2497  0.0134
31404WAT    EPW27423   2.454   6.422   3.387  0.3074  0.3946  0.0975
31405WAT      O27424   4.055   9.092   5.824  0.0870 -0.8153  0.6726
31405WAT     H127425   4.147   9.112   5.836 -0.5159  1.5654  2.0817
31405WAT     H227426   4.030   9.041   5.901  0.3151 -1.8826  0.0504
31405WAT    EPW27427   4.064   9.088   5.836  0.0374 -0.6423  0.7763
31406WAT      O27428   0.346   0.969   6.848 -0.3000 -0.0480 -0.9745
31406WAT     H127429   0.413   0.945   6.785  0.9256 -1.0857  0.6291
31406WAT     H227430   0.373   1.055   6.881  1.1960 -1.0998  0.7605
31406WAT    EPW27431   0.358   0.977   6.844  0.0590 -0.3236 -0.5343
31407WAT      O27432   0.897  10.020   7.318  0.4124  0.1533 -0.6848
31407WAT     H127433   0.912  10.106   7.278 -0.0182  0.2853 -0.5678
31407WAT     H227434   0.957  10.017   7.392  0.7560  0.1672 -0.9592
31407WAT    EPW27435   0.907  10.031   7.323  0.4009  0.1726 -0.7057
31408WAT      O27436   1.421   5.090   5.722 -0.5713 -0.2877  0.3194
31408WAT     H127437   1.336   5.083   5.680 -0.6800 -1.0946  0.6593
31408WAT     H227438   1.475   5.139   5.660 -2.1823  3.3349  1.4746
31408WAT    EPW27439   1.417   5.096   5.709 -0.7980  0.0837  0.5167
31409WAT      O27440   4.821   0.136   3.496 -0.7603 -0.0373 -0.0970
31409WAT     H127441   4.776   0.124   3.580 -2.5408 -0.5135 -1.0695
31409WAT     H227442   4.863   0.222   3.504 -0.7894 -0.1298  1.3224
31409WAT    EPW27443   4.821   0.146   3.508 -0.9990 -0.1123 -0.0381
31410WAT      O27444   0.268  10.147   6.098  0.8039 -0.4703 -0.5294
31410WAT     H127445   0.305  10.135   6.185  1.9598  0.3779 -0.8836
31410WAT     H227446   0.239  10.238   6.096 -2.6843 -1.4274  0.2098
31410WAT    EPW27447   0.269  10.158   6.109  0.4963 -0.4849 -0.4787
31411WAT      O27448   2.515   5.863   1.498  0.1324  0.1926 -0.2837
31411WAT     H127449   2.430   5.850   1.538  0.1501 -0.0254 -0.3198
31411WAT     H227450   2.507   5.947   1.451  0.5852  1.2455  1.4456
31411WAT    EPW27451   2.503   5.873   1.497  0.1944  0.3028 -0.0604
31412WAT      O27452   7.651   1.367   1.374 -0.0757 -0.5102 -0.0640
31412WAT     H127453   7.618   1.363   1.284  0.0911  2.0568 -0.3132
31412WAT     H227454   7.604   1.440   1.413 -1.5125 -2.6774  2.5986
31412WAT    EPW27455   7.640   1.376   1.367 -0.2432 -0.4575  0.2543
31413WAT      O27456  -3.395   7.158   7.348  0.1217 -0.2057  0.0973
31413WAT     H127457  -3.428   7.217   7.416  1.1373 -0.8147  1.1443
31413WAT     H227458  -3.410   7.206   7.266 -3.0402 -0.3159  0.4775
31413WAT    EPW27459  -3.402   7.172   7.346 -0.1614 -0.3004  0.2854
31414WAT      O27460  -0.498   3.122   2.664  0.1433 -0.7064  0.2014
31414WAT     H127461  -0.405   3.097   2.660 -0.2498 -2.1325 -1.1191
31414WAT     H227462  -0.515   3.161   2.578 -1.0330 -2.7614 -0.5689
31414WAT    EPW27463  -0.488   3.124   2.652 -0.0637 -1.1655 -0.0744
31415WAT      O27464   2.728   9.228   0.358 -0.5542 -0.2967 -0.3617
31415WAT     H127465   2.655   9.287   0.336 -2.0451 -1.7574  0.4499
31415WAT     H227466   2.705   9.146   0.315  0.4350 -0.8954  0.2439
31415WAT    EPW27467   2.715   9.225   0.349 -0.6202 -0.5684 -0.1748
31416WAT      O27468   2.140   5.708   2.151 -0.5376 -0.2324 -0.5164
31416WAT     H127469   2.223   5.732   2.109  0.7065 -3.0403  0.1438
31416WAT     H227470   2.126   5.778   2.215  0.2510  1.3396 -1.9757
31416WAT    EPW27471   2.149   5.721   2.154 -0.2695 -0.3953 -0.6218
31417WAT      O27472   4.019   8.047   4.441 -0.8357  0.4154 -0.1749
31417WAT     H127473   3.932   8.016   4.416 -1.3622  0.7881  1.1149
31417WAT     H227474   4.080   7.992   4.392 -1.7587 -1.6631  0.8886
31417WAT    EPW27475   4.016   8.036   4.431 -1.0269  0.1903  0.1357
31418WAT      O27476  -2.737   6.114   1.938 -0.9057  0.3478  0.0151
31418WAT     H127477  -2.710   6.025   1.960 -0.9377 -0.0335 -1.4268
31418WAT     H227478  -2.657   6.166   1.944 -0.0105 -0.5282 -2.9347
31418WAT    EPW27479  -2.723   6.109   1.942 -0.7918  0.1819 -0.5642
31419WAT      O27480   2.641   4.240   6.183  0.1436  0.0094  0.1411
31419WAT     H127481   2.576   4.282   6.239 -1.8950 -1.5472 -0.8887
31419WAT     H227482   2.699   4.194   6.243  0.4735  1.6081  1.1045
31419WAT    EPW27483   2.640   4.240   6.198 -0.0817  0.0148  0.1326
31420WAT      O27484   5.361   3.735   1.277  0.0530  0.4174  0.0951
31420WAT     H127485   5.430   3.777   1.329 -0.3285  2.8310 -1.1877
31420WAT     H227486   5.310   3.685   1.341  1.6534  0.3902  1.4205
31420WAT    EPW27487   5.364   3.734   1.293  0.2136  0.7322  0.1007
31421WAT      O27488   2.238   1.995   1.450 -0.4579  0.0881 -0.1218
31421WAT     H127489   2.161   1.972   1.501 -0.3275  0.9302  0.4781
31421WAT     H227490   2.266   1.913   1.409 -0.7168 -0.5508  0.9555
31421WAT    EPW27491   2.232   1.981   1.451 -0.4749  0.1149  0.0994
31422WAT      O27492  -5.120   0.630   8.575 -0.1769 -0.1918  0.0794
31422WAT     H127493  -5.056   0.580   8.626 -0.8169 -1.0588  0.0525
31422WAT     H227494  -5.148   0.700   8.634  0.5816  0.0303  0.1879
31422WAT    EPW27495  -5.115   0.633   8.590 -0.1614 -0.2769  0.0901
31423WAT      O27496   4.460   2.751   0.898 -0.3017 -0.5041  0.1937
31423WAT     H127497   4.422   2.724   0.814 -0.6035 -1.5631  0.6580
31423WAT     H227498   4.544   2.790   0.874  0.1785 -1.9008 -0.5254
31423WAT    EPW27499   4.466   2.753   0.883 -0.2780 -0.8279  0.1601
31424WAT      O27500   5.267   2.008   0.228 -0.6889 -0.9754  0.7139
31424WAT     H127501   5.286   1.985   0.137 -0.4164  1.0020  0.2210
31424WAT     H227502   5.216   2.089   0.221 -0.6275 -0.7788  2.3351
31424WAT    EPW27503   5.262   2.016   0.215 -0.6449 -0.6888  0.8627
31425WAT      O27504   2.415   2.453   7.999  0.4056 -0.2957 -0.2024
31425WAT     H127505   2.412   2.405   7.916 -2.2038 -0.2894 -0.1848
31425WAT     H227506   2.379   2.539   7.977  0.7875  0.1021  0.7092
31425WAT    EPW27507   2.410   2.458   7.985  0.1118 -0.2424 -0.0799
31426WAT      O27508   2.064   4.940   8.405  0.0254 -0.2431 -0.0736
31426WAT     H127509   2.154   4.946   8.373 -0.0527  0.1906 -0.2300
31426WAT     H227510   2.033   4.855   8.376  1.5700 -2.0594  3.1134
31426WAT    EPW27511   2.072   4.930   8.397  0.2190 -0.4253  0.3262
31427WAT      O27512   3.827   0.203   8.385 -0.7778  0.4760  0.2020
31427WAT     H127513   3.814   0.108   8.397 -1.3871  0.2044 -2.1673
31427WAT     H227514   3.753   0.231   8.332 -0.0776  2.0952  0.0267
31427WAT    EPW27515   3.816   0.194   8.380 -0.7657  0.6537 -0.1335
31428WAT      O27516  -0.400   2.905   4.818  0.2982 -0.6926  0.3039
31428WAT     H127517  -0.372   2.855   4.741  1.6559  0.9705 -0.3546
31428WAT     H227518  -0.318   2.927   4.863 -0.4962 -3.4082  3.5127
31428WAT    EPW27519  -0.385   2.901   4.814  0.3725 -0.8314  0.6404
31429WAT      O27520   0.437   2.524   6.578 -0.0925  0.1081 -0.5278
31429WAT     H127521   0.415   2.617   6.575  1.3556  0.5697  1.0483
31429WAT     H227522   0.367   2.484   6.629  0.5282  0.8239  0.9552
31429WAT    EPW27523   0.425   2.531   6.584  0.1803  0.2635 -0.1245
31430WAT      O27524   4.927   2.093   8.055 -0.1853 -0.1890  0.0546
31430WAT     H127525   4.945   2.050   7.971  1.2411  1.2994 -0.4416
31430WAT     H227526   4.872   2.030   8.101  0.7756 -2.0206 -1.1246
31430WAT    EPW27527   4.922   2.079   8.050  0.1297 -0.2344 -0.1669
31431WAT      O27528  -5.208   9.196   8.606  0.0252 -0.2210 -0.2643
31431WAT     H127529  -5.234   9.104   8.606  1.6257 -0.7029  0.2968
31431WAT     H227530  -5.274   9.240   8.659  0.3150 -1.3838  1.0983
31431WAT    EPW27531  -5.220   9.189   8.613  0.2744 -0.4382 -0.0100
31432WAT      O27532   4.155   3.863   7.006 -0.0114 -0.2399 -0.2475
31432WAT     H127533   4.176   3.923   7.078 -0.9422 -0.5531  0.3117
31432WAT     H227534   4.224   3.877   6.942 -1.2263  2.9316 -1.0930
31432WAT    EPW27535   4.167   3.873   7.007 -0.2942  0.1371 -0.2851
31433WAT      O27536   4.961   0.288   6.842 -0.4163  0.4141 -0.4380
31433WAT     H127537   4.902   0.253   6.775  1.7543 -1.9983 -1.2497
31433WAT     H227538   4.933   0.379   6.853 -2.6447  0.1026 -2.5685
31433WAT    EPW27539   4.949   0.295   6.835 -0.4239  0.0549 -0.8261
31434WAT      O27540  -1.952   5.264   3.971  0.3764  0.1586 -0.4742
31434WAT     H127541  -1.930   5.333   3.909  0.0594  0.3259 -0.4050
31434WAT     H227542  -1.969   5.187   3.916 -0.0608  0.3476 -0.6110
31434WAT    EPW27543  -1.951   5.263   3.956  0.2769  0.2055 -0.4830
31435WAT      O27544   0.402   0.765   4.622 -0.4176 -0.6858  0.0728
31435WAT     H127545   0.421   0.857   4.606  1.5677 -1.1682 -0.7159
31435WAT     H227546   0.430   0.750   4.712 -0.2051 -0.6227  0.0193
31435WAT    EPW27547   0.408   0.775   4.631 -0.1277 -0.7411 -0.0384
31436WAT      O27548   3.167   3.016   2.914  0.4341  0.1250 -0.2297
31436WAT     H127549   3.156   2.976   2.828  0.2821  0.0340 -0.1687
31436WAT     H227550   3.081   3.007   2.956  1.1015 -1.9818  0.8513
31436WAT    EPW27551   3.155   3.009   2.909  0.5021 -0.1650 -0.0789
31437WAT      O27552  -4.107   3.767   7.565 -0.8161  0.4169  0.2440
31437WAT     H127553  -4.091   3.799   7.654 -1.7955  2.6474 -0.3056
31437WAT     H227554  -4.195   3.729   7.569 -0.2127 -1.0207  0.5632
31437WAT    EPW27555  -4.116   3.766   7.578 -0.8655  0.5214  0.2136
31438WAT      O27556  -1.403   4.267   8.660  0.7447 -0.1394 -0.6900
31438WAT     H127557  -1.406   4.206   8.586 -1.6502  0.6749 -1.3525
31438WAT     H227558  -1.438   4.349   8.624 -1.8862 -0.1066  1.6746
31438WAT    EPW27559  -1.408   4.270   8.645  0.0818 -0.0277 -0.4654
31439WAT      O27560   3.143   4.629   3.300  0.0632 -0.5007 -0.3165
31439WAT     H127561   3.177   4.607   3.387 -0.2099 -0.3073 -0.1620
31439WAT     H227562   3.049   4.639   3.312  0.3565  3.1256  0.1538
31439WAT    EPW27563   3.135   4.627   3.313  0.0658  0.0029 -0.2341
31440WAT      O27564   6.067   1.220   2.287  0.5274 -0.7081  0.3948
31440WAT     H127565   6.083   1.134   2.327 -2.5677 -1.1728  0.8668
31440WAT     H227566   6.093   1.208   2.196  0.4054 -2.0826  0.5101
31440WAT    EPW27567   6.073   1.207   2.281  0.1030 -0.9507  0.4722
31441WAT      O27568  -4.989   4.758   5.671  0.6321 -0.3073  0.3364
31441WAT     H127569  -5.023   4.702   5.740  0.3798 -1.4944 -0.7218
31441WAT     H227570  -4.991   4.846   5.709 -2.2010 -0.5103  0.8797
31441WAT    EPW27571  -4.994   4.763   5.685  0.2253 -0.4907  0.2685
31442WAT      O27572   2.267   6.664   1.761 -1.1619 -0.6439  0.7814
31442WAT     H127573   2.219   6.731   1.713  1.5069 -0.4788 -1.9578
31442WAT     H227574   2.342   6.710   1.800  0.8154 -1.8975 -1.2893
31442WAT    EPW27575   2.271   6.679   1.760 -0.5491 -0.7873  0.1470
31443WAT      O27576  -4.491   8.876   4.365  0.3092 -0.3370 -0.0924
31443WAT     H127577  -4.561   8.910   4.421 -0.0796  1.0802 -1.3755
31443WAT     H227578  -4.413   8.922   4.395  0.4780 -1.0126  0.5326
31443WAT    EPW27579  -4.490   8.887   4.376  0.2801 -0.2394 -0.1793
31444WAT      O27580  -1.901   8.731   6.573 -0.3601  0.3301  0.5470
31444WAT     H127581  -1.912   8.636   6.568 -2.2667  0.5415  0.2057
31444WAT     H227582  -1.917   8.762   6.484 -2.8719  1.2166  1.2312
31444WAT    EPW27583  -1.905   8.723   6.561 -0.9429  0.4754  0.5922
31445WAT      O27584  -4.721   8.979   4.788  0.3651 -0.7769  0.5658
31445WAT     H127585  -4.776   9.029   4.849 -0.8121 -2.0384  0.5858
31445WAT     H227586  -4.637   9.025   4.789 -0.2428  0.3817  1.6297
31445WAT    EPW27587  -4.717   8.992   4.796  0.1295 -0.7906  0.7088
31446WAT      O27588   6.654   8.380   0.590 -0.2238 -0.8189 -0.0911
31446WAT     H127589   6.722   8.369   0.523 -0.6521  2.2267 -1.1712
31446WAT     H227590   6.702   8.374   0.673  1.3723  0.9424 -0.8132
31446WAT    EPW27591   6.669   8.377   0.592 -0.0699 -0.1845 -0.3287
31447WAT      O27592   3.067   3.263   3.494 -0.3312  0.5833 -0.1720
31447WAT     H127593   3.050   3.203   3.567  1.0725  1.1815  0.6876
31447WAT     H227594   3.038   3.216   3.416 -3.6023  0.6059  0.8842
31447WAT    EPW27595   3.061   3.249   3.493 -0.5776  0.6652  0.0807
31448WAT      O27596   1.874   4.349   2.930 -0.3033  0.5073  0.2918
31448WAT     H127597   1.849   4.285   2.864 -0.0101  0.6298  0.0571
31448WAT     H227598   1.793   4.398   2.948  0.0220  1.7881 -1.4473
31448WAT    EPW27599   1.860   4.347   2.923 -0.2217  0.6926  0.0315
31449WAT      O27600  -0.940   0.798   7.688 -0.8663  0.3389  0.0506
31449WAT     H127601  -0.916   0.812   7.780 -1.7836 -0.7052  0.4824
31449WAT     H227602  -1.005   0.866   7.670  0.9641  2.0055 -0.5657
31449WAT    EPW27603  -0.946   0.809   7.698 -0.7459  0.4210  0.0265
31450WAT      O27604  -3.684   3.392   6.462 -0.6552 -0.4577  0.5873
31450WAT     H127605  -3.768   3.365   6.426  0.0453 -1.1744 -0.5881
31450WAT     H227606  -3.685   3.362   6.553 -2.1938  0.7782  1.0187
31450WAT    EPW27607  -3.695   3.385   6.470 -0.7657 -0.3892  0.4890
31451WAT      O27608   2.646   7.430   3.619 -0.3598  0.3821 -0.5321
31451WAT     H127609   2.725   7.412   3.669 -1.2128 -1.3163  0.3179
31451WAT     H227610   2.630   7.523   3.631  1.3598  0.7131 -0.5374
31451WAT    EPW27611   2.654   7.440   3.627 -0.2455  0.2015 -0.4207
31452WAT      O27612   5.167   6.697   0.720  0.4229 -0.0388  0.0573
31452WAT     H127613   5.127   6.766   0.667  1.7078  0.5868 -0.1375
31452WAT     H227614   5.179   6.624   0.659  3.0386  1.0962 -0.9569
31452WAT    EPW27615   5.163   6.697   0.705  0.9375  0.1934 -0.1021
31453WAT      O27616  -5.848   4.913   8.816  0.0177  0.9665  0.0950
31453WAT     H127617  -5.849   4.964   8.897  0.6274  0.0727  0.6952
31453WAT     H227618  -5.758   4.882   8.808 -0.5043 -0.7201  0.2457
31453WAT    EPW27619  -5.836   4.915   8.826  0.0293  0.6261  0.1945
31454WAT      O27620   0.502   3.075   1.794 -0.4514  0.2984  0.5707
31454WAT     H127621   0.509   3.097   1.887 -0.7025  0.5994  0.5207
31454WAT     H227622   0.454   2.992   1.792 -1.7274  0.9977  0.6552
31454WAT    EPW27623   0.496   3.067   1.806 -0.6528  0.4302  0.5752
31455WAT      O27624   4.082   9.342   5.652 -0.0686 -0.5539  0.2771
31455WAT     H127625   4.067   9.252   5.682 -0.3436 -1.0818 -1.3632
31455WAT     H227626   4.142   9.378   5.717  1.5075 -2.5241  0.0393
31455WAT    EPW27627   4.088   9.335   5.665  0.1032 -0.8831  0.0293
31456WAT      O27628   3.922   6.444   1.983  0.0204 -0.6106 -0.0966
31456WAT     H127629   3.849   6.491   1.943  0.9777  0.4298 -0.6895
31456WAT     H227630   3.990   6.510   1.993  0.5714 -1.3456  1.3043
31456WAT    EPW27631   3.921   6.459   1.979  0.2193 -0.5703  0.0100
31457WAT      O27632  -1.119   8.644   2.679 -0.4295  0.0364  0.5904
31457WAT     H127633  -1.193   8.584   2.669 -1.1014  0.9263  0.0610
31457WAT     H227634  -1.092   8.663   2.589 -0.0388  0.2892  0.7636
31457WAT    EPW27635  -1.126   8.639   2.666 -0.4666  0.1869  0.5434
31458WAT      O27636   0.353   8.111   4.404 -0.1496  0.1911  0.5362
31458WAT     H127637   0.340   8.018   4.387  0.1330  0.2697 -0.1800
31458WAT     H227638   0.433   8.133   4.355 -1.4081  1.2881 -1.1647
31458WAT    EPW27639   0.362   8.102   4.395 -0.2783  0.3467  0.2172
31459WAT      O27640  -1.101   8.393   1.684  0.3636  0.6489  0.3764
31459WAT     H127641  -1.026   8.450   1.698  0.4158  0.4143  1.0692
31459WAT     H227642  -1.064   8.306   1.672  0.2636  0.6984 -0.3526
31459WAT    EPW27643  -1.086   8.389   1.684  0.3573  0.6247  0.3717
31460WAT      O27644   3.259   6.076   8.906  1.7112 -0.2033 -0.2634
31460WAT     H127645   3.231   5.986   8.926  0.0925  0.0054 -1.3373
31460WAT     H227646   3.295   6.109   8.988  2.1179 -1.7498  0.2233
31460WAT    EPW27647   3.260   6.068   8.919  1.5514 -0.3798 -0.3409
31461WAT      O27648  -2.533   6.249   5.103 -0.0880 -0.1170 -0.1245
31461WAT     H127649  -2.581   6.183   5.152 -0.8793 -0.8150 -1.7582
31461WAT     H227650  -2.599   6.290   5.047  0.7458  0.7407 -0.5107
31461WAT    EPW27651  -2.548   6.246   5.102 -0.0824 -0.0961 -0.3910
31462WAT      O27652  -0.957   8.270   7.505  0.6364 -0.1114  0.5045
31462WAT     H127653  -0.925   8.357   7.481 -1.6069  1.3211  2.1869
31462WAT     H227654  -0.931   8.213   7.432  1.9525  2.0128 -0.7865
31462WAT    EPW27655  -0.950   8.274   7.492  0.5141  0.3581  0.5558
31463WAT      O27656   2.105   8.369   8.807  0.3802 -0.0916 -0.3344
31463WAT     H127657   2.068   8.386   8.894 -3.6956 -0.4346 -1.7669
31463WAT     H227658   2.139   8.454   8.779  1.0111  0.2108  1.2204
31463WAT    EPW27659   2.104   8.383   8.815 -0.0740 -0.0968 -0.3181
31464WAT      O27660   4.502  10.010   3.255  0.2347 -0.3688 -0.4343
31464WAT     H127661   4.499  10.101   3.284  0.3875 -0.7292  0.7997
31464WAT     H227662   4.590   9.999   3.221  0.8484 -0.5045  1.0983
31464WAT    EPW27663   4.513  10.020   3.255  0.3357 -0.4344 -0.0694
31465WAT      O27664   5.643   7.919   2.482 -0.3609 -0.3826  0.1058
31465WAT     H127665   5.622   7.897   2.573 -0.4243 -0.4220  0.0820
31465WAT     H227666   5.582   7.990   2.460 -0.5345 -0.5638  0.0049
31465WAT    EPW27667   5.632   7.926   2.491 -0.3920 -0.4117  0.0893
31466WAT      O27668   7.642   4.147   0.426  0.2323 -0.4678 -0.2502
31466WAT     H127669   7.697   4.114   0.356  0.5902 -0.9313  0.2435
31466WAT     H227670   7.653   4.085   0.498 -0.6891 -0.4018 -0.0285
31466WAT    EPW27671   7.651   4.135   0.426  0.1578 -0.5200 -0.1558
31467WAT      O27672   4.324   8.640   2.476  0.2553  0.4964 -0.3869
31467WAT     H127673   4.375   8.580   2.532 -0.2258  2.0406  1.8546
31467WAT     H227674   4.269   8.688   2.538 -2.5516  0.2553 -2.5328
31467WAT    EPW27675   4.323   8.638   2.492 -0.1783  0.6685 -0.3743
31468WAT      O27676   4.193   2.271   8.239  0.7591 -0.1784  0.0379
31468WAT     H127677   4.192   2.276   8.143 -1.8493 -1.0146 -0.0450
31468WAT     H227678   4.117   2.322   8.267 -0.9027 -3.1313  1.3689
31468WAT    EPW27679   4.183   2.278   8.230  0.1960 -0.6782  0.2027
31469WAT      O27680  -0.829   4.987   4.932 -0.5488  0.1611 -0.4015
31469WAT     H127681  -0.854   5.074   4.901  0.1091  0.8757  0.9680
31469WAT     H227682  -0.858   4.984   5.023  0.1991 -0.7185 -0.1706
31469WAT    EPW27683  -0.836   4.998   4.940 -0.3634  0.1392 -0.1905
31470WAT      O27684   4.689   7.695   3.546  0.4181 -0.3657  0.3836
31470WAT     H127685   4.750   7.768   3.555 -0.7776  0.7771 -0.4254
31470WAT     H227686   4.741   7.625   3.505  1.7628 -0.2561  1.8076
31470WAT    EPW27687   4.704   7.695   3.542  0.4377 -0.2005  0.4647
31471WAT      O27688   5.023   7.658   0.515  0.2960  0.1455  1.0957
31471WAT     H127689   5.044   7.572   0.478  2.0530  1.7489 -2.0756
31471WAT     H227690   4.933   7.674   0.488  1.2383  0.8728 -2.0803
31471WAT    EPW27691   5.014   7.648   0.507  0.6521  0.4530  0.2585
31472WAT      O27692   3.002   1.431   2.956  0.0117  0.0010  0.1750
31472WAT     H127693   2.993   1.362   2.890 -4.1108 -1.6655  2.1246
31472WAT     H227694   3.036   1.506   2.907  2.3484 -2.5906 -2.5906
31472WAT    EPW27695   3.005   1.431   2.941 -0.2239 -0.5605  0.0675
31473WAT      O27696   1.051   6.852   2.207  0.5245 -0.1836 -0.6377
31473WAT     H127697   0.975   6.821   2.255  1.3035 -1.8213 -0.3980
31473WAT     H227698   1.106   6.775   2.196  0.1280 -0.1044 -4.7722
31473WAT    EPW27699   1.048   6.838   2.212  0.5749 -0.3893 -1.1514
31474WAT      O27700   3.571   2.621   0.921  0.2395  0.2227  0.4138
31474WAT     H127701   3.506   2.573   0.870  1.0277  1.6320 -2.0961
31474WAT     H227702   3.562   2.712   0.891  2.5632  0.6501  0.8176
31474WAT    EPW27703   3.561   2.627   0.910  0.6499  0.4649  0.1360
31475WAT      O27704  -2.575   4.102   7.221 -0.0449 -0.3272 -1.0488
31475WAT     H127705  -2.483   4.098   7.194  0.1107 -0.7338 -0.4716
31475WAT     H227706  -2.587   4.191   7.253  0.4970 -0.6257  0.0530
31475WAT    EPW27707  -2.565   4.113   7.222  0.0471 -0.4203 -0.8276
31476WAT      O27708   6.420   8.205   1.840 -0.3381 -0.6173  0.3125
31476WAT     H127709   6.371   8.123   1.852 -0.3070 -0.4969  1.2871
31476WAT     H227710   6.503   8.191   1.885 -1.7363  1.2162  3.8716
31476WAT    EPW27711   6.424   8.193   1.847 -0.5183 -0.3595  0.9105
31477WAT      O27712   2.819   0.522   7.441  0.4800  0.0868  0.3625
31477WAT     H127713   2.749   0.510   7.506 -0.6496  0.5999 -0.7186
31477WAT     H227714   2.894   0.550   7.492  0.1254 -1.1852  1.6571
31477WAT    EPW27715   2.819   0.524   7.456  0.2842 -0.0133  0.3905
31478WAT      O27716   0.727   0.928   6.936 -0.2795  0.3980  0.5512
31478WAT     H127717   0.652   0.987   6.947 -0.9999 -0.1963 -0.8647
31478WAT     H227718   0.704   0.850   6.986 -1.2526 -0.3178 -0.9562
31478WAT    EPW27719   0.714   0.925   6.944 -0.5029  0.2252  0.1657
31479WAT      O27720   6.328   5.030   0.249 -0.5399 -0.0129  0.6419
31479WAT     H127721   6.247   5.032   0.301 -2.0942  0.7735 -1.6428
31479WAT     H227722   6.309   5.086   0.173  0.8812 -2.5405 -1.7716
31479WAT    EPW27723   6.315   5.038   0.246 -0.5577 -0.2425  0.0222
31480WAT      O27724   2.528   7.435   2.646 -0.1902  0.0373  0.1714
31480WAT     H127725   2.441   7.453   2.682 -0.8346 -1.7683 -0.4227
31480WAT     H227726   2.588   7.476   2.709 -1.3263 -2.0198  2.7743
31480WAT    EPW27727   2.524   7.443   2.659 -0.4250 -0.4721  0.4364
31481WAT      O27728  -3.367   9.747   0.097 -0.0258  0.0441 -0.4267
31481WAT     H127729  -3.360   9.735   0.002  0.8564  1.0977 -0.5123
31481WAT     H227730  -3.279   9.729   0.130 -0.6785 -1.8984  0.4226
31481WAT    EPW27731  -3.355   9.743   0.089  0.0044 -0.0734 -0.3260
31482WAT      O27732   8.175   6.146   0.634 -0.0642 -0.1917 -0.1775
31482WAT     H127733   8.139   6.062   0.606  2.2468 -1.5613  0.6737
31482WAT     H227734   8.141   6.209   0.570 -2.7727 -1.5109 -0.1831
31482WAT    EPW27735   8.166   6.143   0.621 -0.1168 -0.5465 -0.0660
31483WAT      O27736  -2.693   0.763   6.753  0.0871  0.4324  0.2714
31483WAT     H127737  -2.699   0.678   6.796  1.3391 -0.0084 -0.3859
31483WAT     H227738  -2.744   0.752   6.673 -0.0200  0.4014  0.3433
31483WAT    EPW27739  -2.700   0.750   6.748  0.2381  0.3702  0.1941
31484WAT      O27740   6.334   8.959   0.186 -0.3098 -0.9879  1.0574
31484WAT     H127741   6.306   9.050   0.187 -0.7230 -1.0967  0.3861
31484WAT     H227742   6.382   8.947   0.268  0.9428  0.2019  0.5342
31484WAT    EPW27743   6.337   8.969   0.197 -0.1991 -0.8450  0.8999
31485WAT      O27744   7.273   1.892   4.300 -0.0406 -0.5193 -0.0380
31485WAT     H127745   7.211   1.877   4.229  1.1939  0.6720 -1.4279
31485WAT     H227746   7.354   1.850   4.270  0.6869  0.5642  0.3434
31485WAT    EPW27747   7.275   1.884   4.286  0.2179 -0.2193 -0.1709
31486WAT      O27748   4.384   1.771   4.045  0.4778  0.4880  0.0202
31486WAT     H127749   4.301   1.738   4.010  0.1726 -0.3802  1.4720
31486WAT     H227750   4.438   1.693   4.056  0.8537  0.8290  0.6712
31486WAT    EPW27751   4.380   1.757   4.042  0.4871  0.4185  0.2975
31487WAT      O27752  -4.369   4.782   7.102 -0.5263  0.4922 -0.2506
31487WAT     H127753  -4.285   4.819   7.131  0.6626 -1.3851 -1.0954
31487WAT     H227754  -4.384   4.707   7.160 -0.2880 -0.7153 -1.6754
31487WAT    EPW27755  -4.360   4.777   7.114 -0.3383  0.0851 -0.5500
31488WAT      O27756   4.786   4.565   1.802 -0.2446  0.3254  0.2528
31488WAT     H127757   4.808   4.484   1.757  0.3486  1.8214 -2.3490
31488WAT     H227758   4.869   4.595   1.841 -0.2286  0.2069  0.3092
31488WAT    EPW27759   4.800   4.558   1.801 -0.1645  0.5071 -0.0829
31489WAT      O27760   7.095   1.348   1.884  0.1053 -0.3666  0.6857
31489WAT     H127761   7.150   1.424   1.865  0.2704 -0.6012  0.1969
31489WAT     H227762   7.157   1.282   1.917  0.1418 -0.6614  0.0514
31489WAT    EPW27763   7.110   1.349   1.886  0.1316 -0.4364  0.5376
31490WAT      O27764  -6.163   4.601   7.824  0.6540  0.1676  0.0255
31490WAT     H127765  -6.241   4.639   7.865  0.5698  0.6292 -0.5553
31490WAT     H227766  -6.100   4.594   7.896 -0.5468 -2.0575  0.9452
31490WAT    EPW27767  -6.165   4.605   7.839  0.4845 -0.0648  0.0701
31491WAT      O27768   1.022   4.093   6.083  0.5307 -0.7449  0.1064
31491WAT     H127769   1.013   4.004   6.117  0.8402 -0.6323  0.4922
31491WAT     H227770   1.104   4.125   6.121  1.6198 -1.0832 -1.8482
31491WAT    EPW27771   1.031   4.085   6.093  0.7151 -0.7746 -0.1004
31492WAT      O27772  -2.723   8.994   4.503  0.0241  0.3016  0.1507
31492WAT     H127773  -2.762   8.948   4.429  0.4968 -0.3510  0.2978
31492WAT     H227774  -2.632   9.008   4.477  0.4204 -0.6846  0.9420
31492WAT    EPW27775  -2.716   8.990   4.490  0.1389  0.0858  0.2744
31493WAT      O27776   4.030   5.216   4.663  0.0315 -0.2109 -0.3342
31493WAT     H127777   3.945   5.259   4.674 -0.3293 -0.3974 -2.1409
31493WAT     H227778   4.037   5.159   4.740 -1.8732 -0.8242 -0.5511
31493WAT    EPW27779   4.019   5.214   4.675 -0.2673 -0.3164 -0.6011
31494WAT      O27780   1.903   1.929   4.565  0.3495 -0.4288  0.2125
31494WAT     H127781   1.928   1.848   4.609 -0.9838 -0.9210  0.1194
31494WAT     H227782   1.826   1.959   4.613  0.6500  0.6240  0.0488
31494WAT    EPW27783   1.896   1.922   4.577  0.2133 -0.3549  0.1786
31495WAT      O27784   1.091   7.433   0.986 -0.0831 -0.2878 -0.1461
31495WAT     H127785   1.040   7.443   1.066 -1.6655 -0.1850 -1.1229
31495WAT     H227786   1.121   7.522   0.966 -1.5746  0.0784 -0.8434
31495WAT    EPW27787   1.089   7.446   0.994 -0.4885 -0.2258 -0.3669
31496WAT      O27788   0.450   8.304   1.602  0.3008  0.6937 -0.1222
31496WAT     H127789   0.376   8.295   1.541  1.2331  0.5654 -1.2885
31496WAT     H227790   0.510   8.364   1.558  0.8306  0.9099  0.8685
31496WAT    EPW27791   0.448   8.311   1.588  0.4936  0.7057 -0.1454
31497WAT      O27792   8.862   4.553   0.726  0.1701  0.3557  0.2208
31497WAT     H127793   8.894   4.462   0.728  2.9666  1.1379 -2.2418
31497WAT     H227794   8.931   4.604   0.768  0.6308  1.7407 -2.0530
31497WAT    EPW27795   8.876   4.547   0.732  0.5999  0.6416 -0.4039
31498WAT      O27796  -0.848   3.012   4.193  0.0730  0.3406  0.0075
31498WAT     H127797  -0.782   3.031   4.126 -1.6118 -0.4567 -1.9912
31498WAT     H227798  -0.814   2.935   4.238  0.6896  0.1761 -0.7119
31498WAT    EPW27799  -0.835   3.004   4.190 -0.0679  0.2137 -0.3512
31499WAT      O27800  -0.263   3.182   7.311  0.8264 -0.2105 -0.4373
31499WAT     H127801  -0.312   3.263   7.296 -0.0420 -0.4548  0.8324
31499WAT     H227802  -0.325   3.112   7.291  0.3852 -0.5289  1.7325
31499WAT    EPW27803  -0.278   3.183   7.307  0.6537 -0.2847  0.0165
31500WAT      O27804   1.157   9.719   4.382 -0.4375 -0.0966  0.5035
31500WAT     H127805   1.077   9.685   4.421 -1.0960  1.0285  0.1865
31500WAT     H227806   1.131   9.802   4.342  0.6133 -0.3156 -0.7119
31500WAT    EPW27807   1.143   9.726   4.382 -0.3857  0.0234  0.3014
31501WAT      O27808   1.678   6.824   5.013 -0.5723  0.3923  0.0807
31501WAT     H127809   1.743   6.757   4.995 -1.3474 -0.2757 -0.2839
31501WAT     H227810   1.598   6.776   5.034 -1.1233  1.1938 -0.1106
31501WAT    EPW27811   1.676   6.809   5.013 -0.7473  0.4101  0.0074
31502WAT      O27812   5.835   6.433   3.680  0.8717 -0.1597 -0.4366
31502WAT     H127813   5.824   6.343   3.710 -0.5619  0.7526  2.0648
31502WAT     H227814   5.810   6.432   3.588 -1.4134 -1.9018  0.1422
31502WAT    EPW27815   5.830   6.421   3.672  0.3812 -0.2692 -0.0304
31503WAT      O27816   4.936   0.997   6.461 -0.4880  0.6901  0.0076
31503WAT     H127817   4.975   1.047   6.532 -0.5687  0.2843  0.3395
31503WAT     H227818   4.844   0.987   6.486 -0.4735  0.3807 -0.0598
31503WAT    EPW27819   4.929   1.002   6.473 -0.4969  0.5957  0.0424
31504WAT      O27820  -6.225   9.515   5.455 -0.4862 -0.6781  0.4317
31504WAT     H127821  -6.313   9.478   5.464 -0.3765 -0.6516  1.8978
31504WAT     H227822  -6.166   9.445   5.483  0.2698 -1.8156 -3.4012
31504WAT    EPW27823  -6.229   9.501   5.460 -0.3719 -0.8245  0.1194
31505WAT      O27824   2.947   8.603   1.925  0.3839 -0.1678 -0.4314
31505WAT     H127825   2.868   8.645   1.960  1.4451  0.8988  0.7677
31505WAT     H227826   2.936   8.608   1.830  0.2734  2.5589 -0.3616
31505WAT    EPW27827   2.935   8.609   1.917  0.5091  0.3324 -0.2640
31506WAT      O27828  -2.555   9.240   0.637 -0.7395  0.7356  0.0688
31506WAT     H127829  -2.508   9.158   0.654  0.1452  1.5205  1.6619
31506WAT     H227830  -2.574   9.238   0.543 -1.9555 -1.9049  0.2763
31506WAT    EPW27831  -2.552   9.229   0.627 -0.7832  0.4911  0.3063
31507WAT      O27832   4.311   8.253   2.015 -0.0029  0.3085  0.0635
31507WAT     H127833   4.348   8.340   1.998  1.6345  0.1384  2.2416
31507WAT     H227834   4.339   8.233   2.105 -1.2610 -2.0201  0.0071
31507WAT    EPW27835   4.319   8.262   2.025  0.0470 -0.0215  0.3434
31508WAT      O27836   3.925   3.241   1.894  0.4350 -0.5137  0.1136
31508WAT     H127837   4.015   3.224   1.920  0.8513 -1.7154 -1.9559
31508WAT     H227838   3.876   3.166   1.928  0.0048  0.5082  1.9123
31508WAT    EPW27839   3.930   3.229   1.902  0.4332 -0.5374  0.0779
31509WAT      O27840   4.196   1.399   6.117 -0.0197 -0.4255 -0.0185
31509WAT     H127841   4.227   1.443   6.038 -0.6117 -1.7837 -1.0474
31509WAT     H227842   4.202   1.466   6.185  0.2046  0.8800 -1.2626
31509WAT    EPW27843   4.201   1.414   6.116 -0.0684 -0.4324 -0.3183
31510WAT      O27844   4.936   3.106   5.023 -0.2769 -0.0399  0.5275
31510WAT     H127845   4.925   3.043   4.952 -0.0341  0.8341 -0.3161
31510WAT     H227846   4.961   3.053   5.099 -0.9754 -1.0407  0.0837
31510WAT    EPW27847   4.938   3.091   5.024 -0.3371 -0.0566  0.3579
31511WAT      O27848   0.553   3.709   8.880  0.0754  0.4515 -0.4002
31511WAT     H127849   0.546   3.613   8.888 -1.9671  0.5848  0.0136
31511WAT     H227850   0.544   3.726   8.787 -2.5726  0.3548 -0.2307
31511WAT    EPW27851   0.551   3.698   8.869 -0.5432  0.4565 -0.3238
31512WAT      O27852  -6.133   9.278   8.229  0.1033 -0.2849  0.3664
31512WAT     H127853  -6.158   9.267   8.137 -4.5565 -2.0232  1.5822
31512WAT     H227854  -6.191   9.346   8.262  1.6372  0.2759  2.1108
31512WAT    EPW27855  -6.144   9.286   8.221 -0.3090 -0.4401  0.7567
31513WAT      O27856  -2.740   5.068   8.070  1.0088 -0.0281  0.4345
31513WAT     H127857  -2.714   5.105   7.985 -1.9189  2.1100  0.3050
31513WAT     H227858  -2.736   4.973   8.057  2.4667  0.2213 -1.4413
31513WAT    EPW27859  -2.736   5.060   8.057  0.8149  0.2866  0.1698
31514WAT      O27860  -3.225   2.329   5.388 -0.1675 -0.3088 -0.0865
31514WAT     H127861  -3.294   2.304   5.450  0.0076  2.2339  1.2355
31514WAT     H227862  -3.169   2.389   5.436  2.4795 -1.4875 -1.4424
31514WAT    EPW27863  -3.227   2.333   5.402  0.2048 -0.1289 -0.0911
31515WAT      O27864  -1.584   8.316   0.579 -0.1695 -0.0817 -0.4720
31515WAT     H127865  -1.680   8.309   0.571 -0.0892 -0.2044 -1.5129
31515WAT     H227866  -1.551   8.253   0.516  0.6227 -1.0337  0.8544
31515WAT    EPW27867  -1.592   8.307   0.570 -0.0544 -0.2236 -0.4343
31516WAT      O27868  -5.523   8.144   4.740 -0.0351 -0.8004 -0.3899
31516WAT     H127869  -5.498   8.070   4.795  0.5970 -0.7831 -0.6386
31516WAT     H227870  -5.460   8.142   4.667 -2.3373 -2.3469 -2.4947
31516WAT    EPW27871  -5.511   8.134   4.738 -0.2551 -1.0018 -0.7002
31517WAT      O27872   1.566   9.074   8.727 -0.7643  0.4159  0.7181
31517WAT     H127873   1.524   9.160   8.725 -1.6568 -0.0194 -0.1349
31517WAT     H227874   1.619   9.072   8.647 -2.0825 -0.4563 -0.1645
31517WAT    EPW27875   1.568   9.085   8.716 -1.0559  0.2437  0.4892
31518WAT      O27876  -0.298   3.764   2.348  0.7875 -0.0147  0.3034
31518WAT     H127877  -0.336   3.677   2.362 -0.6138  0.6475  0.8614
31518WAT     H227878  -0.241   3.753   2.273 -0.1063 -1.2111 -0.2451
31518WAT    EPW27879  -0.295   3.751   2.340  0.4848 -0.0851  0.3046
  10.99500  10.36619   8.97738   0.00000   0.00000  -3.66500   0.00000  -3.66500  -5.18309
